# vtk DataFile Version 4.0
vtk output
ASCII
DATASET UNSTRUCTURED_GRID
POINTS 2186 float
0.0000000e+00 0.0000000e+00 0.0000000e+00 
0.0000000e+00 0.0000000e+00 5.0000000e+01 
5.0000000e+00 0.0000000e+00 0.0000000e+00 
5.0000000e+00 0.0000000e+00 5.0000000e+01 
5.0000000e+00 1.0000000e+00 0.0000000e+00 
5.0000000e+00 1.0000000e+00 5.0000000e+01 
0.0000000e+00 1.0000000e+00 0.0000000e+00 
0.0000000e+00 1.0000000e+00 5.0000000e+01 
5.0000000e+00 2.0000000e+00 0.0000000e+00 
5.0000000e+00 2.0000000e+00 5.0000000e+01 
3.0000000e+00 2.0000000e+00 0.0000000e+00 
3.0000000e+00 2.0000000e+00 5.0000000e+01 
0.0000000e+00 2.0000000e+00 0.0000000e+00 
0.0000000e+00 2.0000000e+00 5.0000000e+01 
1.5000000e+00 3.0000000e+00 0.0000000e+00 
1.5000000e+00 3.0000000e+00 5.0000000e+01 
7.5000000e-01 3.0000000e+00 0.0000000e+00 
7.5000000e-01 3.0000000e+00 5.0000000e+01 
0.0000000e+00 3.0000000e+00 0.0000000e+00 
0.0000000e+00 3.0000000e+00 5.0000000e+01 
7.5000000e-01 3.0000000e+00 -2.5000000e+01 
7.5000000e-01 3.0000000e+00 -2.4500000e+01 
7.5000000e-01 3.0000000e+00 -2.4000000e+01 
7.5000000e-01 3.0000000e+00 -2.3500000e+01 
7.5000000e-01 3.0000000e+00 -2.3000000e+01 
7.5000000e-01 3.0000000e+00 -2.2500000e+01 
7.5000000e-01 3.0000000e+00 -2.2000000e+01 
7.5000000e-01 3.0000000e+00 -2.1500000e+01 
7.5000000e-01 3.0000000e+00 -2.1000000e+01 
7.5000000e-01 3.0000000e+00 -2.0500000e+01 
7.5000000e-01 3.0000000e+00 -2.0000000e+01 
7.5000000e-01 3.0000000e+00 -1.9500000e+01 
7.5000000e-01 3.0000000e+00 -1.9000000e+01 
7.5000000e-01 3.0000000e+00 -1.8500000e+01 
7.5000000e-01 3.0000000e+00 -1.8000000e+01 
7.5000000e-01 3.0000000e+00 -1.7500000e+01 
7.5000000e-01 3.0000000e+00 -1.7000000e+01 
7.5000000e-01 3.0000000e+00 -1.6500000e+01 
7.5000000e-01 3.0000000e+00 -1.6000000e+01 
7.5000000e-01 3.0000000e+00 -1.5500000e+01 
7.5000000e-01 3.0000000e+00 -1.5000000e+01 
7.5000000e-01 3.0000000e+00 -1.4500000e+01 
7.5000000e-01 3.0000000e+00 -1.4000000e+01 
7.5000000e-01 3.0000000e+00 -1.3500000e+01 
7.5000000e-01 3.0000000e+00 -1.3000000e+01 
7.5000000e-01 3.0000000e+00 -1.2500000e+01 
7.5000000e-01 3.0000000e+00 -1.2000000e+01 
7.5000000e-01 3.0000000e+00 -1.1500000e+01 
7.5000000e-01 3.0000000e+00 -1.1000000e+01 
7.5000000e-01 3.0000000e+00 -1.0500000e+01 
7.5000000e-01 3.0000000e+00 -1.0000000e+01 
7.5000000e-01 3.0000000e+00 -9.5000000e+00 
7.5000000e-01 3.0000000e+00 -9.0000000e+00 
7.5000000e-01 3.0000000e+00 -8.5000000e+00 
7.5000000e-01 3.0000000e+00 -8.0000000e+00 
7.5000000e-01 3.0000000e+00 -7.5000000e+00 
7.5000000e-01 3.0000000e+00 -7.0000000e+00 
7.5000000e-01 3.0000000e+00 -6.5000000e+00 
7.5000000e-01 3.0000000e+00 -6.0000000e+00 
7.5000000e-01 3.0000000e+00 -5.5000000e+00 
7.5000000e-01 3.0000000e+00 -5.0000000e+00 
7.5000000e-01 3.0000000e+00 -4.5000000e+00 
7.5000000e-01 3.0000000e+00 -4.0000000e+00 
7.5000000e-01 3.0000000e+00 -3.5000000e+00 
7.5000000e-01 3.0000000e+00 -3.0000000e+00 
7.5000000e-01 3.0000000e+00 -2.5000000e+00 
7.5000000e-01 3.0000000e+00 -2.0000000e+00 
7.5000000e-01 3.0000000e+00 -1.5000000e+00 
7.5000000e-01 3.0000000e+00 -1.0000000e+00 
7.5000000e-01 3.0000000e+00 -5.0000000e-01 
7.5000000e-01 3.0000000e+00 5.0000000e-01 
7.5000000e-01 3.0000000e+00 1.0000000e+00 
7.5000000e-01 3.0000000e+00 1.5000000e+00 
7.5000000e-01 3.0000000e+00 2.0000000e+00 
7.5000000e-01 3.0000000e+00 2.5000000e+00 
7.5000000e-01 3.0000000e+00 3.0000000e+00 
7.5000000e-01 3.0000000e+00 3.5000000e+00 
7.5000000e-01 3.0000000e+00 4.0000000e+00 
7.5000000e-01 3.0000000e+00 4.5000000e+00 
7.5000000e-01 3.0000000e+00 5.0000000e+00 
7.5000000e-01 3.0000000e+00 5.5000000e+00 
7.5000000e-01 3.0000000e+00 6.0000000e+00 
7.5000000e-01 3.0000000e+00 6.5000000e+00 
7.5000000e-01 3.0000000e+00 7.0000000e+00 
7.5000000e-01 3.0000000e+00 7.5000000e+00 
7.5000000e-01 3.0000000e+00 8.0000000e+00 
7.5000000e-01 3.0000000e+00 8.5000000e+00 
7.5000000e-01 3.0000000e+00 9.0000000e+00 
7.5000000e-01 3.0000000e+00 9.5000000e+00 
7.5000000e-01 3.0000000e+00 1.0000000e+01 
7.5000000e-01 3.0000000e+00 1.0500000e+01 
7.5000000e-01 3.0000000e+00 1.1000000e+01 
7.5000000e-01 3.0000000e+00 1.1500000e+01 
7.5000000e-01 3.0000000e+00 1.2000000e+01 
7.5000000e-01 3.0000000e+00 1.2500000e+01 
7.5000000e-01 3.0000000e+00 1.3000000e+01 
7.5000000e-01 3.0000000e+00 1.3500000e+01 
7.5000000e-01 3.0000000e+00 1.4000000e+01 
7.5000000e-01 3.0000000e+00 1.4500000e+01 
7.5000000e-01 3.0000000e+00 1.5000000e+01 
7.5000000e-01 3.0000000e+00 1.5500000e+01 
7.5000000e-01 3.0000000e+00 1.6000000e+01 
7.5000000e-01 3.0000000e+00 1.6500000e+01 
7.5000000e-01 3.0000000e+00 1.7000000e+01 
7.5000000e-01 3.0000000e+00 1.7500000e+01 
7.5000000e-01 3.0000000e+00 1.8000000e+01 
7.5000000e-01 3.0000000e+00 1.8500000e+01 
7.5000000e-01 3.0000000e+00 1.9000000e+01 
7.5000000e-01 3.0000000e+00 1.9500000e+01 
7.5000000e-01 3.0000000e+00 2.0000000e+01 
7.5000000e-01 3.0000000e+00 2.0500000e+01 
7.5000000e-01 3.0000000e+00 2.1000000e+01 
7.5000000e-01 3.0000000e+00 2.1500000e+01 
7.5000000e-01 3.0000000e+00 2.2000000e+01 
7.5000000e-01 3.0000000e+00 2.2500000e+01 
7.5000000e-01 3.0000000e+00 2.3000000e+01 
7.5000000e-01 3.0000000e+00 2.3500000e+01 
7.5000000e-01 3.0000000e+00 2.4000000e+01 
7.5000000e-01 3.0000000e+00 2.4500000e+01 
7.5000000e-01 3.0000000e+00 2.5000000e+01 
7.5000000e-01 3.0000000e+00 2.5500000e+01 
7.5000000e-01 3.0000000e+00 2.6000000e+01 
7.5000000e-01 3.0000000e+00 2.6500000e+01 
7.5000000e-01 3.0000000e+00 2.7000000e+01 
7.5000000e-01 3.0000000e+00 2.7500000e+01 
7.5000000e-01 3.0000000e+00 2.8000000e+01 
7.5000000e-01 3.0000000e+00 2.8500000e+01 
7.5000000e-01 3.0000000e+00 2.9000000e+01 
7.5000000e-01 3.0000000e+00 2.9500000e+01 
7.5000000e-01 3.0000000e+00 3.0000000e+01 
7.5000000e-01 3.0000000e+00 3.0500000e+01 
7.5000000e-01 3.0000000e+00 3.1000000e+01 
7.5000000e-01 3.0000000e+00 3.1500000e+01 
7.5000000e-01 3.0000000e+00 3.2000000e+01 
7.5000000e-01 3.0000000e+00 3.2500000e+01 
7.5000000e-01 3.0000000e+00 3.3000000e+01 
7.5000000e-01 3.0000000e+00 3.3500000e+01 
7.5000000e-01 3.0000000e+00 3.4000000e+01 
7.5000000e-01 3.0000000e+00 3.4500000e+01 
7.5000000e-01 3.0000000e+00 3.5000000e+01 
7.5000000e-01 3.0000000e+00 3.5500000e+01 
7.5000000e-01 3.0000000e+00 3.6000000e+01 
7.5000000e-01 3.0000000e+00 3.6500000e+01 
7.5000000e-01 3.0000000e+00 3.7000000e+01 
7.5000000e-01 3.0000000e+00 3.7500000e+01 
7.5000000e-01 3.0000000e+00 3.8000000e+01 
7.5000000e-01 3.0000000e+00 3.8500000e+01 
7.5000000e-01 3.0000000e+00 3.9000000e+01 
7.5000000e-01 3.0000000e+00 3.9500000e+01 
7.5000000e-01 3.0000000e+00 4.0000000e+01 
7.5000000e-01 3.0000000e+00 4.0500000e+01 
7.5000000e-01 3.0000000e+00 4.1000000e+01 
7.5000000e-01 3.0000000e+00 4.1500000e+01 
7.5000000e-01 3.0000000e+00 4.2000000e+01 
7.5000000e-01 3.0000000e+00 4.2500000e+01 
7.5000000e-01 3.0000000e+00 4.3000000e+01 
7.5000000e-01 3.0000000e+00 4.3500000e+01 
7.5000000e-01 3.0000000e+00 4.4000000e+01 
7.5000000e-01 3.0000000e+00 4.4500000e+01 
7.5000000e-01 3.0000000e+00 4.5000000e+01 
7.5000000e-01 3.0000000e+00 4.5500000e+01 
7.5000000e-01 3.0000000e+00 4.6000000e+01 
7.5000000e-01 3.0000000e+00 4.6500000e+01 
7.5000000e-01 3.0000000e+00 4.7000000e+01 
7.5000000e-01 3.0000000e+00 4.7500000e+01 
7.5000000e-01 3.0000000e+00 4.8000000e+01 
7.5000000e-01 3.0000000e+00 4.8500000e+01 
7.5000000e-01 3.0000000e+00 4.9000000e+01 
7.5000000e-01 3.0000000e+00 4.9500000e+01 
7.5000000e-01 3.0000000e+00 5.0500000e+01 
7.5000000e-01 3.0000000e+00 5.1000000e+01 
7.5000000e-01 3.0000000e+00 5.1500000e+01 
7.5000000e-01 3.0000000e+00 5.2000000e+01 
7.5000000e-01 3.0000000e+00 5.2500000e+01 
7.5000000e-01 3.0000000e+00 5.3000000e+01 
7.5000000e-01 3.0000000e+00 5.3500000e+01 
7.5000000e-01 3.0000000e+00 5.4000000e+01 
7.5000000e-01 3.0000000e+00 5.4500000e+01 
7.5000000e-01 3.0000000e+00 5.5000000e+01 
7.5000000e-01 3.0000000e+00 5.5500000e+01 
7.5000000e-01 3.0000000e+00 5.6000000e+01 
7.5000000e-01 3.0000000e+00 5.6500000e+01 
7.5000000e-01 3.0000000e+00 5.7000000e+01 
7.5000000e-01 3.0000000e+00 5.7500000e+01 
7.5000000e-01 3.0000000e+00 5.8000000e+01 
7.5000000e-01 3.0000000e+00 5.8500000e+01 
7.5000000e-01 3.0000000e+00 5.9000000e+01 
7.5000000e-01 3.0000000e+00 5.9500000e+01 
7.5000000e-01 3.0000000e+00 6.0000000e+01 
7.5000000e-01 3.0000000e+00 6.0500000e+01 
7.5000000e-01 3.0000000e+00 6.1000000e+01 
7.5000000e-01 3.0000000e+00 6.1500000e+01 
7.5000000e-01 3.0000000e+00 6.2000000e+01 
7.5000000e-01 3.0000000e+00 6.2500000e+01 
7.5000000e-01 3.0000000e+00 6.3000000e+01 
7.5000000e-01 3.0000000e+00 6.3500000e+01 
7.5000000e-01 3.0000000e+00 6.4000000e+01 
7.5000000e-01 3.0000000e+00 6.4500000e+01 
7.5000000e-01 3.0000000e+00 6.5000000e+01 
7.5000000e-01 3.0000000e+00 6.5500000e+01 
7.5000000e-01 3.0000000e+00 6.6000000e+01 
7.5000000e-01 3.0000000e+00 6.6500000e+01 
7.5000000e-01 3.0000000e+00 6.7000000e+01 
7.5000000e-01 3.0000000e+00 6.7500000e+01 
7.5000000e-01 3.0000000e+00 6.8000000e+01 
7.5000000e-01 3.0000000e+00 6.8500000e+01 
7.5000000e-01 3.0000000e+00 6.9000000e+01 
7.5000000e-01 3.0000000e+00 6.9500000e+01 
7.5000000e-01 3.0250001e+00 -2.5000000e+01 
7.5000000e-01 3.0250001e+00 -2.4500000e+01 
7.5000000e-01 3.0250001e+00 -2.4000000e+01 
7.5000000e-01 3.0250001e+00 -2.3500000e+01 
7.5000000e-01 3.0250001e+00 -2.3000000e+01 
7.5000000e-01 3.0250001e+00 -2.2500000e+01 
7.5000000e-01 3.0250001e+00 -2.2000000e+01 
7.5000000e-01 3.0250001e+00 -2.1500000e+01 
7.5000000e-01 3.0250001e+00 -2.1000000e+01 
7.5000000e-01 3.0250001e+00 -2.0500000e+01 
7.5000000e-01 3.0250001e+00 -2.0000000e+01 
7.5000000e-01 3.0250001e+00 -1.9500000e+01 
7.5000000e-01 3.0250001e+00 -1.9000000e+01 
7.5000000e-01 3.0250001e+00 -1.8500000e+01 
7.5000000e-01 3.0250001e+00 -1.8000000e+01 
7.5000000e-01 3.0250001e+00 -1.7500000e+01 
7.5000000e-01 3.0250001e+00 -1.7000000e+01 
7.5000000e-01 3.0250001e+00 -1.6500000e+01 
7.5000000e-01 3.0250001e+00 -1.6000000e+01 
7.5000000e-01 3.0250001e+00 -1.5500000e+01 
[...]
POINT_DATA 2186
FIELD FieldData 3
DISPLACEMENT 3 2186  float
0.0000000e+00 0.0000000e+00 0.0000000e+00 
0.0000000e+00 0.0000000e+00 0.0000000e+00 
0.0000000e+00 0.0000000e+00 0.0000000e+00 
0.0000000e+00 0.0000000e+00 0.0000000e+00 
-4.1775306e-06 3.6245801e-06 4.9637492e-06 
-9.8243710e-08 2.1643693e-07 1.9023612e-07 
0.0000000e+00 7.8856592e-06 0.0000000e+00 
0.0000000e+00 3.2986830e-07 0.0000000e+00 
-2.0460539e-06 2.5586262e-06 -5.6395274e-06 
-3.4466487e-07 5.0665085e-07 9.1927511e-08 
5.8344449e-06 1.7222030e-05 1.0032928e-05 
1.0788624e-07 -4.8174837e-07 7.3601643e-07 
0.0000000e+00 -5.5886908e-06 0.0000000e+00 
0.0000000e+00 4.8248671e-07 0.0000000e+00 
-3.5914607e-05 5.3249937e-06 3.4931691e-05 
-1.5000536e-07 -3.8599799e-07 -1.2811457e-06 
1.1566184e-06 -3.4965192e-06 6.7980822e-05 
7.1149934e-08 -1.6557900e-06 -3.0899250e-07 
0.0000000e+00 -4.1496089e-05 0.0000000e+00 
0.0000000e+00 5.2208367e-07 0.0000000e+00 
0.0000000e+00 -3.3448480e-06 0.0000000e+00 
0.0000000e+00 1.6404232e-06 0.0000000e+00 
0.0000000e+00 1.0300968e-05 0.0000000e+00 
0.0000000e+00 1.2065348e-05 0.0000000e+00 
0.0000000e+00 2.2091083e-06 0.0000000e+00 
0.0000000e+00 -1.3460924e-05 0.0000000e+00 
0.0000000e+00 -2.2768036e-05 0.0000000e+00 
0.0000000e+00 -1.7133443e-05 0.0000000e+00 
0.0000000e+00 8.5897273e-07 0.0000000e+00 
0.0000000e+00 1.8805427e-05 0.0000000e+00 
0.0000000e+00 2.3981607e-05 0.0000000e+00 
0.0000000e+00 1.3390581e-05 0.0000000e+00 
0.0000000e+00 -3.9468077e-06 0.0000000e+00 
0.0000000e+00 -1.4496023e-05 0.0000000e+00 
0.0000000e+00 -1.1351992e-05 0.0000000e+00 
0.0000000e+00 3.2150317e-07 0.0000000e+00 
0.0000000e+00 8.1712642e-06 0.0000000e+00 
0.0000000e+00 3.7109678e-06 0.0000000e+00 
0.0000000e+00 -9.8858145e-06 0.0000000e+00 
0.0000000e+00 -1.9999834e-05 0.0000000e+00 
0.0000000e+00 -1.5159344e-05 0.0000000e+00 
0.0000000e+00 4.6725991e-06 0.0000000e+00 
0.0000000e+00 2.6784150e-05 0.0000000e+00 
0.0000000e+00 3.4916004e-05 0.0000000e+00 
0.0000000e+00 2.1909951e-05 0.0000000e+00 
0.0000000e+00 -4.3508539e-06 0.0000000e+00 
0.0000000e+00 -2.6641619e-05 0.0000000e+00 
0.0000000e+00 -3.1259602e-05 0.0000000e+00 
0.0000000e+00 -1.7854642e-05 0.0000000e+00 
0.0000000e+00 1.2949560e-06 0.0000000e+00 
0.0000000e+00 1.1544183e-05 0.0000000e+00 
0.0000000e+00 7.3433303e-06 0.0000000e+00 
0.0000000e+00 -4.0740642e-06 0.0000000e+00 
0.0000000e+00 -9.5335472e-06 0.0000000e+00 
0.0000000e+00 -1.6024667e-06 0.0000000e+00 
0.0000000e+00 1.4757360e-05 0.0000000e+00 
0.0000000e+00 2.6397036e-05 0.0000000e+00 
0.0000000e+00 2.3368439e-05 0.0000000e+00 
0.0000000e+00 7.3386095e-06 0.0000000e+00 
0.0000000e+00 -1.0217330e-05 0.0000000e+00 
0.0000000e+00 -1.7903996e-05 0.0000000e+00 
0.0000000e+00 -1.3506068e-05 0.0000000e+00 
0.0000000e+00 -4.9236223e-06 0.0000000e+00 
0.0000000e+00 -2.7394935e-06 0.0000000e+00 
0.0000000e+00 -1.0859992e-05 0.0000000e+00 
0.0000000e+00 -2.3204993e-05 0.0000000e+00 
0.0000000e+00 -2.9493391e-05 0.0000000e+00 
0.0000000e+00 -2.4874142e-05 0.0000000e+00 
0.0000000e+00 -1.4037417e-05 0.0000000e+00 
0.0000000e+00 -5.7352499e-06 0.0000000e+00 
-3.2134227e-05 -7.5957348e-07 3.2619831e-05 
-5.4856973e-05 1.2621059e-05 1.4876870e-05 
-6.6506793e-05 4.1409105e-05 -1.8917015e-06 
-5.4688269e-05 8.1338942e-05 -2.2838942e-05 
-5.8375508e-06 1.1584863e-04 -2.6163443e-05 
2.5881596e-07 1.3227919e-04 -4.7356200e-05 
-8.1474436e-06 1.3431780e-04 -4.9529270e-05 
1.7706334e-05 1.3853896e-04 -3.3691584e-05 
2.2109234e-05 1.6263823e-04 -2.6283951e-05 
3.8756007e-05 2.1012859e-04 -5.9147515e-06 
4.8272788e-05 2.5931883e-04 3.4788225e-06 
4.9060978e-05 2.7819377e-04 5.6831368e-06 
3.7947895e-05 2.6653899e-04 7.5557355e-06 
4.9037528e-05 2.4876354e-04 3.4315141e-05 
1.9969548e-05 2.4124791e-04 8.8010442e-05 
3.0983017e-05 2.1081814e-04 1.2342528e-04 
-8.8043853e-06 3.9939350e-05 1.9472082e-04 
-5.3929045e-05 -4.2418082e-04 2.0540954e-04 
-1.2446482e-04 -1.2448635e-03 3.0306185e-04 
-1.7768120e-04 -2.3421661e-03 2.0475891e-04 
-2.6680180e-04 -3.5854573e-03 2.9797401e-04 
-4.0215257e-04 -4.6677222e-03 2.3762288e-05 
-4.6044649e-04 -5.1336866e-03 -2.7940661e-05 
-4.3881239e-04 -4.8350263e-03 -6.8800036e-05 
-4.5530623e-04 -4.5984434e-03 -1.7673310e-04 
-6.5321219e-04 -4.7122370e-03 -2.0750398e-04 
-2.7810296e-04 -4.8535676e-03 -2.9844700e-04 
-1.7595988e-04 -4.3994677e-03 -3.0341267e-04 
-8.0669277e-05 -3.1337549e-03 -3.9438985e-04 
-4.9574075e-05 -1.7469001e-03 -2.1828937e-04 
3.2753083e-05 -7.2140357e-04 -2.1099614e-04 
6.1452687e-05 -1.1059250e-04 -9.1848524e-05 
8.3106665e-05 1.8066002e-04 -3.9764531e-05 
1.2725075e-04 2.6034663e-04 1.5856771e-05 
6.4110849e-05 2.1236304e-04 1.1361038e-04 
1.7040400e-05 1.1740152e-04 1.5245026e-04 
-2.9413965e-05 3.6264537e-05 1.6977443e-04 
-4.8357229e-05 -9.0886042e-06 1.3855334e-04 
-9.0604684e-05 -2.4647006e-05 9.4851173e-05 
-8.4064966e-05 -2.4288596e-05 4.1156716e-05 
-6.6290297e-05 -1.2892603e-05 -1.5559528e-05 
-6.0185004e-05 7.7864634e-06 -2.8375571e-05 
-4.7713722e-05 3.6879967e-05 -3.6709866e-05 
-2.2450255e-05 7.1545692e-05 -3.1393261e-05 
-1.9047015e-05 1.0586847e-04 -2.7147928e-05 
-5.5574451e-06 1.3591423e-04 -4.2584499e-05 
-5.3140170e-06 1.5481959e-04 -4.2233736e-05 
1.2526741e-05 1.5465658e-04 -3.2465559e-05 
2.1503320e-05 1.4764837e-04 -3.1060761e-05 
3.1228690e-05 1.7028267e-04 -1.1747101e-05 
3.1188876e-05 2.3008502e-04 7.1064683e-06 
4.6043759e-05 2.8680757e-04 1.0737625e-05 
3.9825238e-05 3.0205958e-04 3.1358635e-05 
5.7027606e-05 2.6694449e-04 5.2975553e-05 
2.8249022e-05 2.0196506e-04 9.9798635e-05 
2.0381049e-05 1.1604476e-04 1.3255635e-04 
-2.6468526e-05 -6.3235238e-05 2.1017187e-04 
-7.0534144e-05 -4.9567054e-04 1.8574044e-04 
-1.4046993e-04 -1.3271057e-03 2.9289388e-04 
-2.2860407e-04 -2.5544963e-03 1.6962769e-04 
-3.2343841e-04 -3.9643534e-03 2.6533398e-04 
-4.3129959e-04 -4.9863332e-03 3.0290874e-05 
-4.6874330e-04 -5.0981957e-03 -4.5584486e-05 
-4.1400426e-04 -4.6587451e-03 -9.2779672e-05 
-3.8637535e-04 -4.5080888e-03 -2.1662751e-04 
-3.8794571e-04 -4.7406252e-03 -2.7801821e-04 
-3.4666189e-04 -4.9145860e-03 -2.9875155e-04 
-2.8304945e-04 -4.2261528e-03 -2.8920223e-04 
-1.5599070e-04 -2.9166683e-03 -4.4677040e-04 
-6.3246225e-05 -1.5921072e-03 -2.1842564e-04 
2.4080686e-05 -6.1314937e-04 -1.7981054e-04 
5.1021172e-05 -2.6361937e-05 -5.4704302e-05 
6.2908053e-05 2.2574882e-04 -1.1319088e-05 
4.1729614e-05 2.5735749e-04 3.8831582e-05 
4.5963876e-05 1.9395229e-04 7.9598532e-05 
1.2588137e-05 1.1693901e-04 9.4041730e-05 
-2.2201602e-05 6.1926294e-05 1.0334120e-04 
-2.6608752e-05 2.4941768e-05 7.6026139e-05 
-5.0796760e-05 -4.4649978e-06 1.8667881e-05 
-4.3359792e-05 -2.2368900e-05 -1.4392185e-05 
-1.6287142e-05 -2.0498876e-05 -4.2423449e-05 
-8.4744206e-06 -5.8615155e-06 -3.9181909e-05 
8.3824634e-06 6.9171620e-06 -2.9513882e-05 
1.0091713e-05 1.0631675e-05 -1.8170678e-05 
8.5223282e-06 8.1899052e-06 -7.0963838e-06 
9.5450396e-06 5.4081775e-06 -3.1422853e-06 
5.7422521e-06 2.6588209e-06 4.5776690e-07 
2.7109977e-06 -1.4038659e-06 1.7035034e-06 
1.2115632e-06 -6.1405885e-06 2.2357917e-06 
-6.3726583e-07 -8.2522256e-06 1.5297063e-06 
-8.0018111e-07 -5.7453685e-06 2.3095743e-06 
-7.1113726e-07 -1.3366237e-06 9.9048100e-07 
-1.8793065e-06 1.2896126e-06 8.9365909e-07 
-7.6188076e-07 1.4980967e-06 8.5849399e-07 
-2.5772840e-07 1.0021304e-06 -2.7669691e-07 
-5.0843283e-07 1.1619791e-06 6.4313832e-07 
7.2971562e-07 1.5228723e-06 -1.9604556e-07 
-2.6601055e-07 1.0370549e-06 -4.3471547e-07 
4.5219591e-07 -3.7651745e-07 -1.3282491e-07 
0.0000000e+00 -2.0579505e-06 0.0000000e+00 
0.0000000e+00 -1.8615708e-06 0.0000000e+00 
0.0000000e+00 -1.5711638e-06 0.0000000e+00 
0.0000000e+00 -1.2155676e-06 0.0000000e+00 
0.0000000e+00 -4.1616462e-07 0.0000000e+00 
0.0000000e+00 8.5985010e-07 0.0000000e+00 
0.0000000e+00 1.9194438e-06 0.0000000e+00 
0.0000000e+00 1.9096576e-06 0.0000000e+00 
0.0000000e+00 7.1171064e-07 0.0000000e+00 
0.0000000e+00 -8.5545196e-07 0.0000000e+00 
0.0000000e+00 -1.7363767e-06 0.0000000e+00 
0.0000000e+00 -1.4859822e-06 0.0000000e+00 
0.0000000e+00 -4.6241124e-07 0.0000000e+00 
0.0000000e+00 6.4027751e-07 0.0000000e+00 
0.0000000e+00 1.3057734e-06 0.0000000e+00 
0.0000000e+00 1.3259092e-06 0.0000000e+00 
0.0000000e+00 6.9913818e-07 0.0000000e+00 
0.0000000e+00 -3.6592823e-07 0.0000000e+00 
0.0000000e+00 -1.3635675e-06 0.0000000e+00 
0.0000000e+00 -1.6437432e-06 0.0000000e+00 
0.0000000e+00 -8.8634943e-07 0.0000000e+00 
0.0000000e+00 5.1388724e-07 0.0000000e+00 
0.0000000e+00 1.6274067e-06 0.0000000e+00 
0.0000000e+00 1.6808831e-06 0.0000000e+00 
0.0000000e+00 6.6148488e-07 0.0000000e+00 
0.0000000e+00 -7.0250093e-07 0.0000000e+00 
0.0000000e+00 -1.5274582e-06 0.0000000e+00 
0.0000000e+00 -1.3853519e-06 0.0000000e+00 
0.0000000e+00 -4.8076748e-07 0.0000000e+00 
0.0000000e+00 6.0558563e-07 0.0000000e+00 
0.0000000e+00 1.2925323e-06 0.0000000e+00 
0.0000000e+00 1.2487317e-06 0.0000000e+00 
0.0000000e+00 4.9879463e-07 0.0000000e+00 
0.0000000e+00 -5.6793891e-07 0.0000000e+00 
0.0000000e+00 -1.3341114e-06 0.0000000e+00 
0.0000000e+00 -1.2879874e-06 0.0000000e+00 
0.0000000e+00 -4.0763786e-07 0.0000000e+00 
0.0000000e+00 7.2445664e-07 0.0000000e+00 
0.0000000e+00 1.2576641e-06 0.0000000e+00 
0.0000000e+00 -3.0335066e-06 0.0000000e+00 
0.0000000e+00 1.7854103e-06 0.0000000e+00 
0.0000000e+00 1.0115976e-05 0.0000000e+00 
0.0000000e+00 1.1685345e-05 0.0000000e+00 
0.0000000e+00 1.9416407e-06 0.0000000e+00 
0.0000000e+00 -1.3395857e-05 0.0000000e+00 
0.0000000e+00 -2.2423115e-05 0.0000000e+00 
0.0000000e+00 -1.6792414e-05 0.0000000e+00 
0.0000000e+00 9.1533508e-07 0.0000000e+00 
0.0000000e+00 1.8532413e-05 0.0000000e+00 
0.0000000e+00 2.3609280e-05 0.0000000e+00 
0.0000000e+00 1.3233072e-05 0.0000000e+00 
0.0000000e+00 -3.7563307e-06 0.0000000e+00 
0.0000000e+00 -1.4121977e-05 0.0000000e+00 
0.0000000e+00 -1.1119858e-05 0.0000000e+00 
0.0000000e+00 2.0415818e-07 0.0000000e+00 
0.0000000e+00 7.7966788e-06 0.0000000e+00 
0.0000000e+00 3.3965355e-06 0.0000000e+00 
0.0000000e+00 -9.8653254e-06 0.0000000e+00 
0.0000000e+00 -1.9645002e-05 0.0000000e+00 
0.0000000e+00 -1.4750480e-05 0.0000000e+00 
0.0000000e+00 4.8011852e-06 0.0000000e+00 
0.0000000e+00 2.6517544e-05 0.0000000e+00 
0.0000000e+00 3.4458699e-05 0.0000000e+00 
0.0000000e+00 2.1625270e-05 0.0000000e+00 
0.0000000e+00 -4.2367756e-06 0.0000000e+00 
0.0000000e+00 -2.6224983e-05 0.0000000e+00 
0.0000000e+00 -3.0876032e-05 0.0000000e+00 
0.0000000e+00 -1.7803399e-05 0.0000000e+00 
0.0000000e+00 9.8511748e-07 0.0000000e+00 
0.0000000e+00 1.1126404e-05 0.0000000e+00 
0.0000000e+00 7.1489080e-06 0.0000000e+00 
0.0000000e+00 -3.8944863e-06 0.0000000e+00 
0.0000000e+00 -9.1324282e-06 0.0000000e+00 
0.0000000e+00 -1.3172211e-06 0.0000000e+00 
0.0000000e+00 1.4688926e-05 0.0000000e+00 
0.0000000e+00 2.6048689e-05 0.0000000e+00 
0.0000000e+00 2.3057766e-05 0.0000000e+00 
0.0000000e+00 7.3344941e-06 0.0000000e+00 
0.0000000e+00 -9.9277349e-06 0.0000000e+00 
0.0000000e+00 -1.7578937e-05 0.0000000e+00 
0.0000000e+00 -1.3413410e-05 0.0000000e+00 
0.0000000e+00 -5.1296847e-06 0.0000000e+00 
0.0000000e+00 -3.0696142e-06 0.0000000e+00 
0.0000000e+00 -1.1040461e-05 0.0000000e+00 
0.0000000e+00 -2.3095685e-05 0.0000000e+00 
0.0000000e+00 -2.9228655e-05 0.0000000e+00 
0.0000000e+00 -2.4748078e-05 0.0000000e+00 
0.0000000e+00 -1.4215138e-05 0.0000000e+00 
0.0000000e+00 -6.1012820e-06 0.0000000e+00 
0.0000000e+00 -3.6021115e-06 0.0000000e+00 
0.0000000e+00 -5.9415260e-07 0.0000000e+00 
0.0000000e+00 1.2874054e-05 0.0000000e+00 
0.0000000e+00 4.1874722e-05 0.0000000e+00 
0.0000000e+00 8.1330239e-05 0.0000000e+00 
0.0000000e+00 1.1551003e-04 0.0000000e+00 
0.0000000e+00 1.3198539e-04 0.0000000e+00 
0.0000000e+00 1.3407103e-04 0.0000000e+00 
0.0000000e+00 1.3881641e-04 0.0000000e+00 
0.0000000e+00 1.6378763e-04 0.0000000e+00 
0.0000000e+00 2.1097741e-04 0.0000000e+00 
0.0000000e+00 2.5848625e-04 0.0000000e+00 
0.0000000e+00 2.7744318e-04 0.0000000e+00 
0.0000000e+00 2.6642613e-04 0.0000000e+00 
0.0000000e+00 2.4992679e-04 0.0000000e+00 
0.0000000e+00 2.4465332e-04 0.0000000e+00 
0.0000000e+00 2.1343486e-04 0.0000000e+00 
0.0000000e+00 3.7647464e-05 0.0000000e+00 
0.0000000e+00 -4.2965551e-04 0.0000000e+00 
0.0000000e+00 -1.2479291e-03 0.0000000e+00 
0.0000000e+00 -2.3496472e-03 0.0000000e+00 
0.0000000e+00 -3.5968707e-03 0.0000000e+00 
0.0000000e+00 -4.6975552e-03 0.0000000e+00 
0.0000000e+00 -5.1622950e-03 0.0000000e+00 
0.0000000e+00 -4.8702545e-03 0.0000000e+00 
0.0000000e+00 -4.6201954e-03 0.0000000e+00 
0.0000000e+00 -4.7281850e-03 0.0000000e+00 
0.0000000e+00 -4.8805992e-03 0.0000000e+00 
0.0000000e+00 -4.4320724e-03 0.0000000e+00 
0.0000000e+00 -3.1548280e-03 0.0000000e+00 
0.0000000e+00 -1.7607361e-03 0.0000000e+00 
0.0000000e+00 -7.2545512e-04 0.0000000e+00 
0.0000000e+00 -1.1069226e-04 0.0000000e+00 
0.0000000e+00 1.8145687e-04 0.0000000e+00 
0.0000000e+00 2.6062145e-04 0.0000000e+00 
0.0000000e+00 2.1353873e-04 0.0000000e+00 
0.0000000e+00 1.1895582e-04 0.0000000e+00 
0.0000000e+00 3.6934045e-05 0.0000000e+00 
0.0000000e+00 -9.1622542e-06 0.0000000e+00 
0.0000000e+00 -2.4902689e-05 0.0000000e+00 
0.0000000e+00 -2.4054112e-05 0.0000000e+00 
0.0000000e+00 -1.2835420e-05 0.0000000e+00 
0.0000000e+00 7.6291767e-06 0.0000000e+00 
0.0000000e+00 3.6756403e-05 0.0000000e+00 
0.0000000e+00 7.1458991e-05 0.0000000e+00 
0.0000000e+00 1.0634568e-04 0.0000000e+00 
0.0000000e+00 1.3646396e-04 0.0000000e+00 
0.0000000e+00 1.5412919e-04 0.0000000e+00 
0.0000000e+00 1.5336038e-04 0.0000000e+00 
0.0000000e+00 1.4848204e-04 0.0000000e+00 
0.0000000e+00 1.7226396e-04 0.0000000e+00 
0.0000000e+00 2.3061539e-04 0.0000000e+00 
0.0000000e+00 2.8626897e-04 0.0000000e+00 
0.0000000e+00 3.0084862e-04 0.0000000e+00 
0.0000000e+00 2.6684321e-04 0.0000000e+00 
0.0000000e+00 2.0451228e-04 0.0000000e+00 
0.0000000e+00 1.1946765e-04 0.0000000e+00 
0.0000000e+00 -6.2290186e-05 0.0000000e+00 
0.0000000e+00 -4.9941859e-04 0.0000000e+00 
0.0000000e+00 -1.3351251e-03 0.0000000e+00 
0.0000000e+00 -2.5696144e-03 0.0000000e+00 
0.0000000e+00 -3.9763586e-03 0.0000000e+00 
0.0000000e+00 -5.0144480e-03 0.0000000e+00 
0.0000000e+00 -5.1246965e-03 0.0000000e+00 
0.0000000e+00 -4.6931496e-03 0.0000000e+00 
0.0000000e+00 -4.5271586e-03 0.0000000e+00 
0.0000000e+00 -4.7682929e-03 0.0000000e+00 
0.0000000e+00 -4.9367640e-03 0.0000000e+00 
0.0000000e+00 -4.2582769e-03 0.0000000e+00 
0.0000000e+00 -2.9319138e-03 0.0000000e+00 
0.0000000e+00 -1.6024073e-03 0.0000000e+00 
0.0000000e+00 -6.1668555e-04 0.0000000e+00 
0.0000000e+00 -2.8270400e-05 0.0000000e+00 
0.0000000e+00 2.2583977e-04 0.0000000e+00 
0.0000000e+00 2.5963527e-04 0.0000000e+00 
0.0000000e+00 1.9568554e-04 0.0000000e+00 
0.0000000e+00 1.1803837e-04 0.0000000e+00 
0.0000000e+00 6.1931110e-05 0.0000000e+00 
0.0000000e+00 2.4506273e-05 0.0000000e+00 
0.0000000e+00 -4.4340186e-06 0.0000000e+00 
0.0000000e+00 -2.1791109e-05 0.0000000e+00 
0.0000000e+00 -2.0400888e-05 0.0000000e+00 
0.0000000e+00 -6.2565941e-06 0.0000000e+00 
0.0000000e+00 6.6252624e-06 0.0000000e+00 
0.0000000e+00 1.0643662e-05 0.0000000e+00 
0.0000000e+00 8.3888890e-06 0.0000000e+00 
0.0000000e+00 5.3770059e-06 0.0000000e+00 
0.0000000e+00 2.5645722e-06 0.0000000e+00 
0.0000000e+00 -1.4269878e-06 0.0000000e+00 
0.0000000e+00 -6.0485031e-06 0.0000000e+00 
0.0000000e+00 -8.1124863e-06 0.0000000e+00 
0.0000000e+00 -5.7658972e-06 0.0000000e+00 
0.0000000e+00 -1.4637093e-06 0.0000000e+00 
0.0000000e+00 1.2352799e-06 0.0000000e+00 
0.0000000e+00 1.5405519e-06 0.0000000e+00 
0.0000000e+00 1.0612549e-06 0.0000000e+00 
0.0000000e+00 1.1605299e-06 0.0000000e+00 
0.0000000e+00 1.4823826e-06 0.0000000e+00 
0.0000000e+00 1.0108791e-06 0.0000000e+00 
0.0000000e+00 -3.5120070e-07 0.0000000e+00 
0.0000000e+00 -1.6239666e-06 0.0000000e+00 
0.0000000e+00 -2.0648754e-06 0.0000000e+00 
0.0000000e+00 -1.8843089e-06 0.0000000e+00 
0.0000000e+00 -1.5792245e-06 0.0000000e+00 
0.0000000e+00 -1.1972494e-06 0.0000000e+00 
0.0000000e+00 -3.9448130e-07 0.0000000e+00 
0.0000000e+00 8.5637413e-07 0.0000000e+00 
0.0000000e+00 1.8916689e-06 0.0000000e+00 
0.0000000e+00 1.8859622e-06 0.0000000e+00 
0.0000000e+00 7.1491064e-07 0.0000000e+00 
0.0000000e+00 -8.3145591e-07 0.0000000e+00 
0.0000000e+00 -1.7157915e-06 0.0000000e+00 
0.0000000e+00 -1.4835459e-06 0.0000000e+00 
0.0000000e+00 -4.7208871e-07 0.0000000e+00 
0.0000000e+00 6.3169148e-07 0.0000000e+00 
0.0000000e+00 1.3016759e-06 0.0000000e+00 
0.0000000e+00 1.3206901e-06 0.0000000e+00 
0.0000000e+00 6.9176991e-07 0.0000000e+00 
0.0000000e+00 -3.6677483e-07 0.0000000e+00 
0.0000000e+00 -1.3508345e-06 0.0000000e+00 
0.0000000e+00 -1.6243835e-06 0.0000000e+00 
0.0000000e+00 -8.7722327e-07 0.0000000e+00 
0.0000000e+00 5.0328634e-07 0.0000000e+00 
0.0000000e+00 1.6054660e-06 0.0000000e+00 
0.0000000e+00 1.6657322e-06 0.0000000e+00 
0.0000000e+00 6.6375117e-07 0.0000000e+00 
0.0000000e+00 -6.8768207e-07 0.0000000e+00 
0.0000000e+00 -1.5129712e-06 0.0000000e+00 
0.0000000e+00 -1.3796507e-06 0.0000000e+00 
0.0000000e+00 -4.8341298e-07 0.0000000e+00 
0.0000000e+00 5.9898019e-07 0.0000000e+00 
0.0000000e+00 1.2846513e-06 0.0000000e+00 
0.0000000e+00 1.2408105e-06 0.0000000e+00 
0.0000000e+00 4.9402200e-07 0.0000000e+00 
0.0000000e+00 -5.6477978e-07 0.0000000e+00 
0.0000000e+00 -1.3220207e-06 0.0000000e+00 
0.0000000e+00 -1.2736871e-06 0.0000000e+00 
0.0000000e+00 -4.0177764e-07 0.0000000e+00 
0.0000000e+00 7.1678591e-07 0.0000000e+00 
0.0000000e+00 1.2431224e-06 0.0000000e+00 
0.0000000e+00 0.0000000e+00 0.0000000e+00 
0.0000000e+00 0.0000000e+00 0.0000000e+00 
0.0000000e+00 0.0000000e+00 0.0000000e+00 
0.0000000e+00 0.0000000e+00 0.0000000e+00 
0.0000000e+00 0.0000000e+00 0.0000000e+00 
0.0000000e+00 0.0000000e+00 0.0000000e+00 
0.0000000e+00 0.0000000e+00 0.0000000e+00 
0.0000000e+00 0.0000000e+00 0.0000000e+00 
0.0000000e+00 0.0000000e+00 0.0000000e+00 
0.0000000e+00 0.0000000e+00 0.0000000e+00 
0.0000000e+00 0.0000000e+00 0.0000000e+00 
0.0000000e+00 0.0000000e+00 0.0000000e+00 
0.0000000e+00 0.0000000e+00 0.0000000e+00 
0.0000000e+00 0.0000000e+00 0.0000000e+00 
0.0000000e+00 0.0000000e+00 0.0000000e+00 
0.0000000e+00 0.0000000e+00 0.0000000e+00 
0.0000000e+00 0.0000000e+00 0.0000000e+00 
0.0000000e+00 0.0000000e+00 0.0000000e+00 
0.0000000e+00 0.0000000e+00 0.0000000e+00 
0.0000000e+00 0.0000000e+00 0.0000000e+00 
0.0000000e+00 0.0000000e+00 0.0000000e+00 
0.0000000e+00 0.0000000e+00 0.0000000e+00 
0.0000000e+00 0.0000000e+00 0.0000000e+00 
0.0000000e+00 0.0000000e+00 0.0000000e+00 
0.0000000e+00 0.0000000e+00 0.0000000e+00 
0.0000000e+00 0.0000000e+00 0.0000000e+00 
0.0000000e+00 0.0000000e+00 0.0000000e+00 
0.0000000e+00 0.0000000e+00 0.0000000e+00 
0.0000000e+00 0.0000000e+00 0.0000000e+00 
0.0000000e+00 0.0000000e+00 0.0000000e+00 
0.0000000e+00 0.0000000e+00 0.0000000e+00 
0.0000000e+00 0.0000000e+00 0.0000000e+00 
0.0000000e+00 0.0000000e+00 0.0000000e+00 
0.0000000e+00 0.0000000e+00 0.0000000e+00 
0.0000000e+00 0.0000000e+00 0.0000000e+00 
0.0000000e+00 0.0000000e+00 0.0000000e+00 
0.0000000e+00 0.0000000e+00 0.0000000e+00 
0.0000000e+00 0.0000000e+00 0.0000000e+00 
0.0000000e+00 0.0000000e+00 0.0000000e+00 
0.0000000e+00 0.0000000e+00 0.0000000e+00 
0.0000000e+00 0.0000000e+00 0.0000000e+00 
0.0000000e+00 0.0000000e+00 0.0000000e+00 
0.0000000e+00 0.0000000e+00 0.0000000e+00 
0.0000000e+00 0.0000000e+00 0.0000000e+00 
0.0000000e+00 0.0000000e+00 0.0000000e+00 
0.0000000e+00 0.0000000e+00 0.0000000e+00 
0.0000000e+00 0.0000000e+00 0.0000000e+00 
0.0000000e+00 0.0000000e+00 0.0000000e+00 
0.0000000e+00 0.0000000e+00 0.0000000e+00 
0.0000000e+00 0.0000000e+00 0.0000000e+00 
0.0000000e+00 0.0000000e+00 0.0000000e+00 
0.0000000e+00 0.0000000e+00 0.0000000e+00 
0.0000000e+00 0.0000000e+00 0.0000000e+00 
0.0000000e+00 0.0000000e+00 0.0000000e+00 
0.0000000e+00 0.0000000e+00 0.0000000e+00 
0.0000000e+00 0.0000000e+00 0.0000000e+00 
0.0000000e+00 0.0000000e+00 0.0000000e+00 
0.0000000e+00 0.0000000e+00 0.0000000e+00 