# vtk DataFile Version 4.0
vtk output
ASCII
DATASET UNSTRUCTURED_GRID
POINTS 2186 float
0.0000000e+00 0.0000000e+00 0.0000000e+00 
0.0000000e+00 0.0000000e+00 5.0000000e+01 
5.0000000e+00 0.0000000e+00 0.0000000e+00 
5.0000000e+00 0.0000000e+00 5.0000000e+01 
5.0000000e+00 1.0000000e+00 0.0000000e+00 
5.0000000e+00 1.0000000e+00 5.0000000e+01 
0.0000000e+00 1.0000000e+00 0.0000000e+00 
0.0000000e+00 1.0000000e+00 5.0000000e+01 
5.0000000e+00 2.0000000e+00 0.0000000e+00 
5.0000000e+00 2.0000000e+00 5.0000000e+01 
3.0000000e+00 2.0000000e+00 0.0000000e+00 
3.0000000e+00 2.0000000e+00 5.0000000e+01 
0.0000000e+00 2.0000000e+00 0.0000000e+00 
0.0000000e+00 2.0000000e+00 5.0000000e+01 
1.5000000e+00 3.0000000e+00 0.0000000e+00 
1.5000000e+00 3.0000000e+00 5.0000000e+01 
7.5000000e-01 3.0000000e+00 0.0000000e+00 
7.5000000e-01 3.0000000e+00 5.0000000e+01 
0.0000000e+00 3.0000000e+00 0.0000000e+00 
0.0000000e+00 3.0000000e+00 5.0000000e+01 
7.5000000e-01 3.0000000e+00 -2.5000000e+01 
7.5000000e-01 3.0000000e+00 -2.4500000e+01 
7.5000000e-01 3.0000000e+00 -2.4000000e+01 
7.5000000e-01 3.0000000e+00 -2.3500000e+01 
7.5000000e-01 3.0000000e+00 -2.3000000e+01 
7.5000000e-01 3.0000000e+00 -2.2500000e+01 
7.5000000e-01 3.0000000e+00 -2.2000000e+01 
7.5000000e-01 3.0000000e+00 -2.1500000e+01 
7.5000000e-01 3.0000000e+00 -2.1000000e+01 
7.5000000e-01 3.0000000e+00 -2.0500000e+01 
7.5000000e-01 3.0000000e+00 -2.0000000e+01 
7.5000000e-01 3.0000000e+00 -1.9500000e+01 
7.5000000e-01 3.0000000e+00 -1.9000000e+01 
7.5000000e-01 3.0000000e+00 -1.8500000e+01 
7.5000000e-01 3.0000000e+00 -1.8000000e+01 
7.5000000e-01 3.0000000e+00 -1.7500000e+01 
7.5000000e-01 3.0000000e+00 -1.7000000e+01 
7.5000000e-01 3.0000000e+00 -1.6500000e+01 
7.5000000e-01 3.0000000e+00 -1.6000000e+01 
7.5000000e-01 3.0000000e+00 -1.5500000e+01 
7.5000000e-01 3.0000000e+00 -1.5000000e+01 
7.5000000e-01 3.0000000e+00 -1.4500000e+01 
7.5000000e-01 3.0000000e+00 -1.4000000e+01 
7.5000000e-01 3.0000000e+00 -1.3500000e+01 
7.5000000e-01 3.0000000e+00 -1.3000000e+01 
7.5000000e-01 3.0000000e+00 -1.2500000e+01 
7.5000000e-01 3.0000000e+00 -1.2000000e+01 
7.5000000e-01 3.0000000e+00 -1.1500000e+01 
7.5000000e-01 3.0000000e+00 -1.1000000e+01 
7.5000000e-01 3.0000000e+00 -1.0500000e+01 
7.5000000e-01 3.0000000e+00 -1.0000000e+01 
7.5000000e-01 3.0000000e+00 -9.5000000e+00 
7.5000000e-01 3.0000000e+00 -9.0000000e+00 
7.5000000e-01 3.0000000e+00 -8.5000000e+00 
7.5000000e-01 3.0000000e+00 -8.0000000e+00 
7.5000000e-01 3.0000000e+00 -7.5000000e+00 
7.5000000e-01 3.0000000e+00 -7.0000000e+00 
7.5000000e-01 3.0000000e+00 -6.5000000e+00 
7.5000000e-01 3.0000000e+00 -6.0000000e+00 
7.5000000e-01 3.0000000e+00 -5.5000000e+00 
7.5000000e-01 3.0000000e+00 -5.0000000e+00 
7.5000000e-01 3.0000000e+00 -4.5000000e+00 
7.5000000e-01 3.0000000e+00 -4.0000000e+00 
7.5000000e-01 3.0000000e+00 -3.5000000e+00 
7.5000000e-01 3.0000000e+00 -3.0000000e+00 
7.5000000e-01 3.0000000e+00 -2.5000000e+00 
7.5000000e-01 3.0000000e+00 -2.0000000e+00 
7.5000000e-01 3.0000000e+00 -1.5000000e+00 
7.5000000e-01 3.0000000e+00 -1.0000000e+00 
7.5000000e-01 3.0000000e+00 -5.0000000e-01 
7.5000000e-01 3.0000000e+00 5.0000000e-01 
7.5000000e-01 3.0000000e+00 1.0000000e+00 
7.5000000e-01 3.0000000e+00 1.5000000e+00 
7.5000000e-01 3.0000000e+00 2.0000000e+00 
7.5000000e-01 3.0000000e+00 2.5000000e+00 
7.5000000e-01 3.0000000e+00 3.0000000e+00 
7.5000000e-01 3.0000000e+00 3.5000000e+00 
7.5000000e-01 3.0000000e+00 4.0000000e+00 
7.5000000e-01 3.0000000e+00 4.5000000e+00 
7.5000000e-01 3.0000000e+00 5.0000000e+00 
7.5000000e-01 3.0000000e+00 5.5000000e+00 
7.5000000e-01 3.0000000e+00 6.0000000e+00 
7.5000000e-01 3.0000000e+00 6.5000000e+00 
7.5000000e-01 3.0000000e+00 7.0000000e+00 
7.5000000e-01 3.0000000e+00 7.5000000e+00 
7.5000000e-01 3.0000000e+00 8.0000000e+00 
7.5000000e-01 3.0000000e+00 8.5000000e+00 
7.5000000e-01 3.0000000e+00 9.0000000e+00 
7.5000000e-01 3.0000000e+00 9.5000000e+00 
7.5000000e-01 3.0000000e+00 1.0000000e+01 
7.5000000e-01 3.0000000e+00 1.0500000e+01 
7.5000000e-01 3.0000000e+00 1.1000000e+01 
7.5000000e-01 3.0000000e+00 1.1500000e+01 
7.5000000e-01 3.0000000e+00 1.2000000e+01 
7.5000000e-01 3.0000000e+00 1.2500000e+01 
7.5000000e-01 3.0000000e+00 1.3000000e+01 
7.5000000e-01 3.0000000e+00 1.3500000e+01 
7.5000000e-01 3.0000000e+00 1.4000000e+01 
7.5000000e-01 3.0000000e+00 1.4500000e+01 
7.5000000e-01 3.0000000e+00 1.5000000e+01 
7.5000000e-01 3.0000000e+00 1.5500000e+01 
7.5000000e-01 3.0000000e+00 1.6000000e+01 
7.5000000e-01 3.0000000e+00 1.6500000e+01 
7.5000000e-01 3.0000000e+00 1.7000000e+01 
7.5000000e-01 3.0000000e+00 1.7500000e+01 
7.5000000e-01 3.0000000e+00 1.8000000e+01 
7.5000000e-01 3.0000000e+00 1.8500000e+01 
7.5000000e-01 3.0000000e+00 1.9000000e+01 
7.5000000e-01 3.0000000e+00 1.9500000e+01 
7.5000000e-01 3.0000000e+00 2.0000000e+01 
7.5000000e-01 3.0000000e+00 2.0500000e+01 
7.5000000e-01 3.0000000e+00 2.1000000e+01 
7.5000000e-01 3.0000000e+00 2.1500000e+01 
7.5000000e-01 3.0000000e+00 2.2000000e+01 
7.5000000e-01 3.0000000e+00 2.2500000e+01 
7.5000000e-01 3.0000000e+00 2.3000000e+01 
7.5000000e-01 3.0000000e+00 2.3500000e+01 
7.5000000e-01 3.0000000e+00 2.4000000e+01 
7.5000000e-01 3.0000000e+00 2.4500000e+01 
7.5000000e-01 3.0000000e+00 2.5000000e+01 
7.5000000e-01 3.0000000e+00 2.5500000e+01 
7.5000000e-01 3.0000000e+00 2.6000000e+01 
7.5000000e-01 3.0000000e+00 2.6500000e+01 
7.5000000e-01 3.0000000e+00 2.7000000e+01 
7.5000000e-01 3.0000000e+00 2.7500000e+01 
7.5000000e-01 3.0000000e+00 2.8000000e+01 
7.5000000e-01 3.0000000e+00 2.8500000e+01 
7.5000000e-01 3.0000000e+00 2.9000000e+01 
7.5000000e-01 3.0000000e+00 2.9500000e+01 
7.5000000e-01 3.0000000e+00 3.0000000e+01 
7.5000000e-01 3.0000000e+00 3.0500000e+01 
7.5000000e-01 3.0000000e+00 3.1000000e+01 
7.5000000e-01 3.0000000e+00 3.1500000e+01 
7.5000000e-01 3.0000000e+00 3.2000000e+01 
7.5000000e-01 3.0000000e+00 3.2500000e+01 
7.5000000e-01 3.0000000e+00 3.3000000e+01 
7.5000000e-01 3.0000000e+00 3.3500000e+01 
7.5000000e-01 3.0000000e+00 3.4000000e+01 
7.5000000e-01 3.0000000e+00 3.4500000e+01 
7.5000000e-01 3.0000000e+00 3.5000000e+01 
7.5000000e-01 3.0000000e+00 3.5500000e+01 
7.5000000e-01 3.0000000e+00 3.6000000e+01 
7.5000000e-01 3.0000000e+00 3.6500000e+01 
7.5000000e-01 3.0000000e+00 3.7000000e+01 
7.5000000e-01 3.0000000e+00 3.7500000e+01 
7.5000000e-01 3.0000000e+00 3.8000000e+01 
7.5000000e-01 3.0000000e+00 3.8500000e+01 
7.5000000e-01 3.0000000e+00 3.9000000e+01 
7.5000000e-01 3.0000000e+00 3.9500000e+01 
7.5000000e-01 3.0000000e+00 4.0000000e+01 
7.5000000e-01 3.0000000e+00 4.0500000e+01 
7.5000000e-01 3.0000000e+00 4.1000000e+01 
7.5000000e-01 3.0000000e+00 4.1500000e+01 
7.5000000e-01 3.0000000e+00 4.2000000e+01 
7.5000000e-01 3.0000000e+00 4.2500000e+01 
7.5000000e-01 3.0000000e+00 4.3000000e+01 
7.5000000e-01 3.0000000e+00 4.3500000e+01 
7.5000000e-01 3.0000000e+00 4.4000000e+01 
7.5000000e-01 3.0000000e+00 4.4500000e+01 
7.5000000e-01 3.0000000e+00 4.5000000e+01 
7.5000000e-01 3.0000000e+00 4.5500000e+01 
7.5000000e-01 3.0000000e+00 4.6000000e+01 
7.5000000e-01 3.0000000e+00 4.6500000e+01 
7.5000000e-01 3.0000000e+00 4.7000000e+01 
7.5000000e-01 3.0000000e+00 4.7500000e+01 
7.5000000e-01 3.0000000e+00 4.8000000e+01 
7.5000000e-01 3.0000000e+00 4.8500000e+01 
7.5000000e-01 3.0000000e+00 4.9000000e+01 
7.5000000e-01 3.0000000e+00 4.9500000e+01 
7.5000000e-01 3.0000000e+00 5.0500000e+01 
7.5000000e-01 3.0000000e+00 5.1000000e+01 
7.5000000e-01 3.0000000e+00 5.1500000e+01 
7.5000000e-01 3.0000000e+00 5.2000000e+01 
7.5000000e-01 3.0000000e+00 5.2500000e+01 
7.5000000e-01 3.0000000e+00 5.3000000e+01 
7.5000000e-01 3.0000000e+00 5.3500000e+01 
7.5000000e-01 3.0000000e+00 5.4000000e+01 
7.5000000e-01 3.0000000e+00 5.4500000e+01 
7.5000000e-01 3.0000000e+00 5.5000000e+01 
7.5000000e-01 3.0000000e+00 5.5500000e+01 
7.5000000e-01 3.0000000e+00 5.6000000e+01 
7.5000000e-01 3.0000000e+00 5.6500000e+01 
7.5000000e-01 3.0000000e+00 5.7000000e+01 
7.5000000e-01 3.0000000e+00 5.7500000e+01 
7.5000000e-01 3.0000000e+00 5.8000000e+01 
7.5000000e-01 3.0000000e+00 5.8500000e+01 
7.5000000e-01 3.0000000e+00 5.9000000e+01 
7.5000000e-01 3.0000000e+00 5.9500000e+01 
7.5000000e-01 3.0000000e+00 6.0000000e+01 
7.5000000e-01 3.0000000e+00 6.0500000e+01 
7.5000000e-01 3.0000000e+00 6.1000000e+01 
7.5000000e-01 3.0000000e+00 6.1500000e+01 
7.5000000e-01 3.0000000e+00 6.2000000e+01 
7.5000000e-01 3.0000000e+00 6.2500000e+01 
7.5000000e-01 3.0000000e+00 6.3000000e+01 
7.5000000e-01 3.0000000e+00 6.3500000e+01 
7.5000000e-01 3.0000000e+00 6.4000000e+01 
7.5000000e-01 3.0000000e+00 6.4500000e+01 
7.5000000e-01 3.0000000e+00 6.5000000e+01 
7.5000000e-01 3.0000000e+00 6.5500000e+01 
7.5000000e-01 3.0000000e+00 6.6000000e+01 
7.5000000e-01 3.0000000e+00 6.6500000e+01 
7.5000000e-01 3.0000000e+00 6.7000000e+01 
7.5000000e-01 3.0000000e+00 6.7500000e+01 
7.5000000e-01 3.0000000e+00 6.8000000e+01 
7.5000000e-01 3.0000000e+00 6.8500000e+01 
7.5000000e-01 3.0000000e+00 6.9000000e+01 
7.5000000e-01 3.0000000e+00 6.9500000e+01 
7.5000000e-01 3.0250001e+00 -2.5000000e+01 
7.5000000e-01 3.0250001e+00 -2.4500000e+01 
7.5000000e-01 3.0250001e+00 -2.4000000e+01 
7.5000000e-01 3.0250001e+00 -2.3500000e+01 
7.5000000e-01 3.0250001e+00 -2.3000000e+01 
7.5000000e-01 3.0250001e+00 -2.2500000e+01 
7.5000000e-01 3.0250001e+00 -2.2000000e+01 
7.5000000e-01 3.0250001e+00 -2.1500000e+01 
7.5000000e-01 3.0250001e+00 -2.1000000e+01 
7.5000000e-01 3.0250001e+00 -2.0500000e+01 
7.5000000e-01 3.0250001e+00 -2.0000000e+01 
7.5000000e-01 3.0250001e+00 -1.9500000e+01 
7.5000000e-01 3.0250001e+00 -1.9000000e+01 
7.5000000e-01 3.0250001e+00 -1.8500000e+01 
7.5000000e-01 3.0250001e+00 -1.8000000e+01 
7.5000000e-01 3.0250001e+00 -1.7500000e+01 
7.5000000e-01 3.0250001e+00 -1.7000000e+01 
7.5000000e-01 3.0250001e+00 -1.6500000e+01 
7.5000000e-01 3.0250001e+00 -1.6000000e+01 
7.5000000e-01 3.0250001e+00 -1.5500000e+01 
[...]
POINT_DATA 2186
FIELD FieldData 3
DISPLACEMENT 3 2186  float
0.0000000e+00 0.0000000e+00 0.0000000e+00 
0.0000000e+00 0.0000000e+00 0.0000000e+00 
0.0000000e+00 0.0000000e+00 0.0000000e+00 
0.0000000e+00 0.0000000e+00 0.0000000e+00 
-1.7260916e-07 -1.1255337e-07 -8.2937834e-07 
6.0496245e-07 -8.9595642e-07 1.8708623e-06 
0.0000000e+00 -2.0508148e-06 0.0000000e+00 
0.0000000e+00 -2.2769507e-06 0.0000000e+00 
6.1805775e-07 -1.4902552e-06 8.2074479e-07 
8.7645753e-07 -1.0208895e-06 3.2558387e-06 
-2.6931295e-06 -1.2732305e-06 -4.7390839e-07 
-3.9695513e-07 -3.1136683e-06 5.3357921e-06 
0.0000000e+00 -1.5306678e-06 0.0000000e+00 
0.0000000e+00 -1.4643723e-06 0.0000000e+00 
-6.7649967e-06 3.8812614e-06 5.0411631e-06 
-3.1055306e-06 -4.9603191e-06 6.9963771e-06 
-6.3811353e-07 7.3646984e-06 5.7303005e-06 
-2.9144646e-06 -2.6471996e-06 8.3174546e-06 
0.0000000e+00 -2.9739106e-06 0.0000000e+00 
0.0000000e+00 9.2166692e-06 0.0000000e+00 
0.0000000e+00 -1.3043827e-05 0.0000000e+00 
0.0000000e+00 -1.1129267e-05 0.0000000e+00 
0.0000000e+00 -6.2946601e-06 0.0000000e+00 
0.0000000e+00 -4.4466631e-07 0.0000000e+00 
0.0000000e+00 4.6176619e-06 0.0000000e+00 
0.0000000e+00 7.9425899e-06 0.0000000e+00 
0.0000000e+00 9.4847483e-06 0.0000000e+00 
0.0000000e+00 9.5670366e-06 0.0000000e+00 
0.0000000e+00 8.3137083e-06 0.0000000e+00 
0.0000000e+00 5.5708192e-06 0.0000000e+00 
0.0000000e+00 1.3627506e-06 0.0000000e+00 
0.0000000e+00 -3.5773855e-06 0.0000000e+00 
0.0000000e+00 -7.7830609e-06 0.0000000e+00 
0.0000000e+00 -9.7153625e-06 0.0000000e+00 
0.0000000e+00 -8.6922537e-06 0.0000000e+00 
0.0000000e+00 -5.3836493e-06 0.0000000e+00 
0.0000000e+00 -1.4543321e-06 0.0000000e+00 
0.0000000e+00 1.4308869e-06 0.0000000e+00 
0.0000000e+00 2.5467900e-06 0.0000000e+00 
0.0000000e+00 2.3448340e-06 0.0000000e+00 
0.0000000e+00 1.8757501e-06 0.0000000e+00 
0.0000000e+00 1.9019006e-06 0.0000000e+00 
0.0000000e+00 2.4108076e-06 0.0000000e+00 
0.0000000e+00 2.8599732e-06 0.0000000e+00 
0.0000000e+00 2.8386851e-06 0.0000000e+00 
0.0000000e+00 2.4995622e-06 0.0000000e+00 
0.0000000e+00 2.3737634e-06 0.0000000e+00 
0.0000000e+00 2.7627614e-06 0.0000000e+00 
0.0000000e+00 3.2689820e-06 0.0000000e+00 
0.0000000e+00 2.9120984e-06 0.0000000e+00 
0.0000000e+00 8.1378261e-07 0.0000000e+00 
0.0000000e+00 -3.0285541e-06 0.0000000e+00 
0.0000000e+00 -7.4859649e-06 0.0000000e+00 
0.0000000e+00 -1.0820563e-05 0.0000000e+00 
0.0000000e+00 -1.1647720e-05 0.0000000e+00 
0.0000000e+00 -9.6531649e-06 0.0000000e+00 
0.0000000e+00 -5.6101881e-06 0.0000000e+00 
0.0000000e+00 -8.0798640e-07 0.0000000e+00 
0.0000000e+00 3.6257738e-06 0.0000000e+00 
0.0000000e+00 7.0782799e-06 0.0000000e+00 
0.0000000e+00 9.3564768e-06 0.0000000e+00 
0.0000000e+00 1.0351100e-05 0.0000000e+00 
0.0000000e+00 9.8670143e-06 0.0000000e+00 
0.0000000e+00 7.8867006e-06 0.0000000e+00 
0.0000000e+00 5.0307472e-06 0.0000000e+00 
0.0000000e+00 2.6063060e-06 0.0000000e+00 
0.0000000e+00 1.9450699e-06 0.0000000e+00 
0.0000000e+00 3.4731192e-06 0.0000000e+00 
0.0000000e+00 6.2511872e-06 0.0000000e+00 
0.0000000e+00 8.2753068e-06 0.0000000e+00 
-6.1477022e-06 1.9789643e-06 -1.4944794e-06 
-7.8004841e-06 -5.8406035e-06 -5.9571048e-06 
-7.5168687e-06 -1.2873011e-05 -1.0122921e-05 
-6.0768712e-06 -1.7528942e-05 -8.6171549e-06 
-1.0496649e-05 -1.9714651e-05 -9.0084741e-06 
-8.3500299e-06 -2.0584312e-05 -6.9425678e-06 
-4.7515587e-06 -2.1148464e-05 -6.0313264e-06 
-3.4079285e-06 -2.1207188e-05 -5.1552620e-06 
-1.9687914e-06 -2.0434556e-05 -5.2667087e-06 
-2.1235069e-06 -1.8112762e-05 -3.3123729e-06 
4.0107906e-07 -1.4999669e-05 2.5101656e-06 
-2.8790926e-06 -1.3701901e-05 1.1670305e-05 
-6.0816028e-06 -1.4663398e-05 1.1383869e-05 
-9.5413452e-06 -1.4619981e-05 1.3766939e-05 
-7.0638644e-06 -1.0541707e-05 1.5301566e-05 
-8.6708596e-06 -3.1867116e-06 1.5912221e-05 
-8.0247928e-06 4.1106048e-07 1.7003335e-05 
-1.2321682e-05 -5.4459460e-06 1.8431017e-05 
-1.5794560e-05 -1.7718950e-05 2.0023217e-05 
-2.1809296e-05 -2.5937605e-05 1.3422431e-05 
-2.0752997e-05 -2.2056560e-05 3.2376236e-06 
-1.7120863e-05 -8.6094769e-06 -4.2018696e-06 
-1.0707849e-05 3.3543795e-06 7.5314568e-07 
-1.1496637e-05 -7.6370389e-07 -4.9276591e-06 
-4.4148710e-06 -1.6029608e-05 -1.4204525e-05 
7.5593243e-06 -1.8375642e-05 -1.2991793e-05 
-5.3893223e-06 9.1751099e-06 1.1408047e-06 
1.0688791e-06 6.1813633e-05 2.0221657e-06 
1.3995315e-05 1.0681325e-04 4.1227327e-06 
1.6650409e-05 1.0880945e-04 2.0120318e-05 
-1.3740573e-06 7.0052381e-05 3.0101883e-05 
7.1652958e-06 1.6642509e-05 5.7659534e-05 
-8.7976114e-06 -5.0472347e-05 1.1003647e-04 
-5.8639402e-05 -2.0628978e-04 2.0346156e-04 
-5.5241715e-05 -6.0372212e-04 2.2916381e-04 
-6.7178698e-05 -1.3694655e-03 1.7943484e-04 
-1.4361441e-04 -2.5029695e-03 2.6871043e-04 
-1.8443802e-04 -3.7507995e-03 8.6030726e-05 
-2.6585153e-04 -4.6624448e-03 1.4641802e-04 
-2.7524334e-04 -4.6939836e-03 1.9342811e-05 
-2.4763320e-04 -4.2744288e-03 -4.1407591e-05 
-2.5004093e-04 -4.0935078e-03 -4.5656539e-05 
-2.2343748e-04 -4.3347571e-03 -4.4315799e-05 
-2.5127851e-04 -4.4824686e-03 -1.4805621e-04 
-2.0134477e-04 -3.8598829e-03 -2.4403476e-04 
-1.5501743e-04 -2.6069304e-03 -1.6783127e-04 
-7.5727708e-05 -1.3981462e-03 -2.5492441e-04 
-5.1337985e-05 -5.2726921e-04 -1.3122114e-04 
-7.6285419e-06 -2.0620644e-05 -1.1873549e-04 
-2.9757646e-06 1.9610069e-04 -6.6345703e-05 
7.0491305e-06 2.2018587e-04 -2.7498378e-05 
5.9632475e-06 1.5364788e-04 -1.4617744e-05 
4.4446997e-06 7.7585290e-05 4.1249627e-06 
-3.1149600e-06 2.0730520e-05 -4.2183665e-08 
-4.2966253e-06 -1.7002058e-05 9.5488394e-06 
-5.8799674e-06 -3.8054844e-05 1.1838734e-05 
-8.2425813e-06 -4.0784271e-05 1.6472992e-05 
-7.6018819e-06 -3.0221079e-05 1.9405255e-05 
-5.7250240e-06 -1.9405801e-05 1.8534696e-05 
-9.5337418e-06 -1.8506560e-05 1.3463858e-05 
-6.4229093e-06 -2.3581581e-05 5.9492086e-06 
-7.7753411e-06 -1.9328207e-05 1.0262443e-05 
-8.0067812e-06 6.9565039e-07 1.5788477e-05 
-1.2790110e-05 2.3185807e-05 1.1298626e-05 
-9.0733465e-06 2.9391711e-05 6.8458244e-06 
-7.2976331e-06 1.3899924e-05 4.7920407e-06 
-5.3653685e-06 1.1622654e-06 -3.3730912e-06 
3.4083416e-06 2.8674129e-05 1.0725886e-05 
1.1951231e-05 9.2132548e-05 2.3728233e-05 
1.8171235e-05 1.4112683e-04 3.3030999e-05 
8.4260810e-06 1.2751172e-04 4.8969785e-05 
9.2282326e-06 2.9899998e-05 7.8323690e-05 
-1.5910044e-06 -1.3737708e-04 1.1453387e-04 
-1.0948345e-05 -3.6065196e-04 1.3288076e-04 
-7.4998105e-05 -7.2435109e-04 2.2990606e-04 
-5.5145592e-05 -1.4060428e-03 2.0443153e-04 
-1.9938733e-04 -2.5254718e-03 2.8181894e-04 
-9.4542876e-05 -3.8653940e-03 1.5320833e-04 
-3.8929039e-04 -4.8240591e-03 1.6725727e-04 
-7.9361402e-05 -4.6906839e-03 6.5601911e-05 
-2.5676869e-04 -4.1818405e-03 -3.0270328e-06 
-2.4420684e-04 -4.0111858e-03 -6.2727115e-05 
-2.3136749e-04 -4.3175248e-03 -6.4729851e-05 
-2.5050851e-04 -4.4666217e-03 -1.6581490e-04 
-1.9669574e-04 -3.6795866e-03 -2.7543411e-04 
-1.4864180e-04 -2.3831378e-03 -1.8334453e-04 
-6.5079737e-05 -1.1926383e-03 -2.4913385e-04 
-3.6001748e-05 -3.5420569e-04 -1.2712926e-04 
9.8963847e-07 8.9825953e-05 -1.1557913e-04 
1.0601050e-05 2.3365510e-04 -6.1667117e-05 
1.6432938e-05 2.1746378e-04 -2.8241129e-05 
1.5567850e-05 1.5097455e-04 -1.4947339e-05 
9.5386822e-06 8.7987893e-05 7.5351477e-06 
7.3411652e-06 3.6455760e-05 6.7680494e-06 
4.3607579e-06 -4.6604596e-06 9.1424854e-06 
3.8316207e-06 -2.8453698e-05 7.3086808e-06 
3.7536527e-06 -3.0157003e-05 7.7601062e-06 
2.2749621e-06 -1.7955228e-05 8.4554813e-06 
-2.3865638e-07 -6.1928718e-06 8.6074569e-06 
0.0000000e+00 -3.7411007e-06 0.0000000e+00 
0.0000000e+00 -3.0897620e-06 0.0000000e+00 
0.0000000e+00 8.5138356e-07 0.0000000e+00 
0.0000000e+00 3.9992524e-06 0.0000000e+00 
0.0000000e+00 3.0395697e-06 0.0000000e+00 
0.0000000e+00 -1.6544378e-07 0.0000000e+00 
0.0000000e+00 -1.4497912e-06 0.0000000e+00 
0.0000000e+00 8.3785629e-08 0.0000000e+00 
0.0000000e+00 1.3318842e-06 0.0000000e+00 
0.0000000e+00 -2.4194702e-07 0.0000000e+00 
0.0000000e+00 -3.1627530e-06 0.0000000e+00 
0.0000000e+00 -3.9566517e-06 0.0000000e+00 
0.0000000e+00 -1.6128866e-06 0.0000000e+00 
0.0000000e+00 1.2876093e-06 0.0000000e+00 
0.0000000e+00 1.8796969e-06 0.0000000e+00 
0.0000000e+00 3.4029398e-07 0.0000000e+00 
0.0000000e+00 -7.4277835e-07 0.0000000e+00 
0.0000000e+00 2.3063204e-07 0.0000000e+00 
0.0000000e+00 2.0491068e-06 0.0000000e+00 
0.0000000e+00 2.4160058e-06 0.0000000e+00 
0.0000000e+00 7.8161031e-07 0.0000000e+00 
0.0000000e+00 -1.1735465e-06 0.0000000e+00 
0.0000000e+00 -1.6793263e-06 0.0000000e+00 
0.0000000e+00 -8.0883370e-07 0.0000000e+00 
0.0000000e+00 -5.3324793e-09 0.0000000e+00 
0.0000000e+00 -1.4740344e-07 0.0000000e+00 
0.0000000e+00 -6.6251278e-07 0.0000000e+00 
0.0000000e+00 -5.3876897e-07 0.0000000e+00 
0.0000000e+00 3.1699716e-07 0.0000000e+00 
0.0000000e+00 1.0578633e-06 0.0000000e+00 
0.0000000e+00 9.9149122e-07 0.0000000e+00 
0.0000000e+00 3.0026249e-07 0.0000000e+00 
0.0000000e+00 -3.4248023e-07 0.0000000e+00 
0.0000000e+00 -5.4743668e-07 0.0000000e+00 
0.0000000e+00 -4.2237252e-07 0.0000000e+00 
0.0000000e+00 -2.1072182e-07 0.0000000e+00 
0.0000000e+00 -2.2175699e-09 0.0000000e+00 
0.0000000e+00 1.8803563e-07 0.0000000e+00 
0.0000000e+00 2.7627544e-07 0.0000000e+00 
0.0000000e+00 -1.3019557e-05 0.0000000e+00 
0.0000000e+00 -1.1117337e-05 0.0000000e+00 
0.0000000e+00 -6.3075117e-06 0.0000000e+00 
0.0000000e+00 -4.7320401e-07 0.0000000e+00 
0.0000000e+00 4.5951419e-06 0.0000000e+00 
0.0000000e+00 7.9424244e-06 0.0000000e+00 
0.0000000e+00 9.5051655e-06 0.0000000e+00 
0.0000000e+00 9.5902742e-06 0.0000000e+00 
0.0000000e+00 8.3208070e-06 0.0000000e+00 
0.0000000e+00 5.5572041e-06 0.0000000e+00 
0.0000000e+00 1.3420300e-06 0.0000000e+00 
0.0000000e+00 -3.5848141e-06 0.0000000e+00 
0.0000000e+00 -7.7675213e-06 0.0000000e+00 
0.0000000e+00 -9.6868444e-06 0.0000000e+00 
0.0000000e+00 -8.6730288e-06 0.0000000e+00 
0.0000000e+00 -5.3905846e-06 0.0000000e+00 
0.0000000e+00 -1.4853179e-06 0.0000000e+00 
0.0000000e+00 1.3957214e-06 0.0000000e+00 
0.0000000e+00 2.5301438e-06 0.0000000e+00 
0.0000000e+00 2.3550508e-06 0.0000000e+00 
0.0000000e+00 1.9008951e-06 0.0000000e+00 
0.0000000e+00 1.9203994e-06 0.0000000e+00 
0.0000000e+00 2.4101578e-06 0.0000000e+00 
0.0000000e+00 2.8470120e-06 0.0000000e+00 
0.0000000e+00 2.8320292e-06 0.0000000e+00 
0.0000000e+00 2.5117574e-06 0.0000000e+00 
0.0000000e+00 2.3999196e-06 0.0000000e+00 
0.0000000e+00 2.7848002e-06 0.0000000e+00 
0.0000000e+00 3.2701425e-06 0.0000000e+00 
0.0000000e+00 2.8897600e-06 0.0000000e+00 
0.0000000e+00 7.8193176e-07 0.0000000e+00 
0.0000000e+00 -3.0490701e-06 0.0000000e+00 
0.0000000e+00 -7.4833429e-06 0.0000000e+00 
0.0000000e+00 -1.0801505e-05 0.0000000e+00 
0.0000000e+00 -1.1631130e-05 0.0000000e+00 
0.0000000e+00 -9.6536005e-06 0.0000000e+00 
0.0000000e+00 -5.6270842e-06 0.0000000e+00 
0.0000000e+00 -8.2897708e-07 0.0000000e+00 
0.0000000e+00 3.6141134e-06 0.0000000e+00 
0.0000000e+00 7.0818064e-06 0.0000000e+00 
0.0000000e+00 9.3698909e-06 0.0000000e+00 
0.0000000e+00 1.0361159e-05 0.0000000e+00 
0.0000000e+00 9.8645596e-06 0.0000000e+00 
0.0000000e+00 7.8789017e-06 0.0000000e+00 
0.0000000e+00 5.0368453e-06 0.0000000e+00 
0.0000000e+00 2.6368596e-06 0.0000000e+00 
0.0000000e+00 1.9889121e-06 0.0000000e+00 
0.0000000e+00 3.5086161e-06 0.0000000e+00 
0.0000000e+00 6.2661525e-06 0.0000000e+00 
0.0000000e+00 8.2722700e-06 0.0000000e+00 
0.0000000e+00 7.2478965e-06 0.0000000e+00 
0.0000000e+00 1.9481536e-06 0.0000000e+00 
0.0000000e+00 -5.7823327e-06 0.0000000e+00 
0.0000000e+00 -1.2835940e-05 0.0000000e+00 
0.0000000e+00 -1.7497168e-05 0.0000000e+00 
0.0000000e+00 -1.9726034e-05 0.0000000e+00 
0.0000000e+00 -2.0645550e-05 0.0000000e+00 
0.0000000e+00 -2.1185182e-05 0.0000000e+00 
0.0000000e+00 -2.1252381e-05 0.0000000e+00 
0.0000000e+00 -2.0383926e-05 0.0000000e+00 
0.0000000e+00 -1.8026181e-05 0.0000000e+00 
0.0000000e+00 -1.5057912e-05 0.0000000e+00 
0.0000000e+00 -1.3838889e-05 0.0000000e+00 
0.0000000e+00 -1.4727334e-05 0.0000000e+00 
0.0000000e+00 -1.4570393e-05 0.0000000e+00 
0.0000000e+00 -1.0289654e-05 0.0000000e+00 
0.0000000e+00 -3.1428126e-06 0.0000000e+00 
0.0000000e+00 1.4751647e-07 0.0000000e+00 
0.0000000e+00 -5.7611483e-06 0.0000000e+00 
0.0000000e+00 -1.7786333e-05 0.0000000e+00 
0.0000000e+00 -2.5693629e-05 0.0000000e+00 
0.0000000e+00 -2.1709251e-05 0.0000000e+00 
0.0000000e+00 -8.2544693e-06 0.0000000e+00 
0.0000000e+00 2.8126974e-06 0.0000000e+00 
0.0000000e+00 -1.5861398e-06 0.0000000e+00 
0.0000000e+00 -1.6165724e-05 0.0000000e+00 
0.0000000e+00 -1.7826051e-05 0.0000000e+00 
0.0000000e+00 1.0398948e-05 0.0000000e+00 
0.0000000e+00 6.2398780e-05 0.0000000e+00 
0.0000000e+00 1.0571089e-04 0.0000000e+00 
0.0000000e+00 1.0780887e-04 0.0000000e+00 
0.0000000e+00 7.0367860e-05 0.0000000e+00 
0.0000000e+00 1.8922537e-05 0.0000000e+00 
0.0000000e+00 -4.7239690e-05 0.0000000e+00 
0.0000000e+00 -2.0608184e-04 0.0000000e+00 
0.0000000e+00 -6.0707208e-04 0.0000000e+00 
0.0000000e+00 -1.3789302e-03 0.0000000e+00 
0.0000000e+00 -2.5117928e-03 0.0000000e+00 
0.0000000e+00 -3.7682152e-03 0.0000000e+00 
0.0000000e+00 -4.6824045e-03 0.0000000e+00 
0.0000000e+00 -4.7257803e-03 0.0000000e+00 
0.0000000e+00 -4.2993291e-03 0.0000000e+00 
0.0000000e+00 -4.1192425e-03 0.0000000e+00 
0.0000000e+00 -4.3534096e-03 0.0000000e+00 
0.0000000e+00 -4.5109191e-03 0.0000000e+00 
0.0000000e+00 -3.8833627e-03 0.0000000e+00 
0.0000000e+00 -2.6270421e-03 0.0000000e+00 
0.0000000e+00 -1.4063963e-03 0.0000000e+00 
0.0000000e+00 -5.3058536e-04 0.0000000e+00 
0.0000000e+00 -2.1472191e-05 0.0000000e+00 
0.0000000e+00 1.9635702e-04 0.0000000e+00 
0.0000000e+00 2.2142263e-04 0.0000000e+00 
0.0000000e+00 1.5572285e-04 0.0000000e+00 
0.0000000e+00 7.8393503e-05 0.0000000e+00 
0.0000000e+00 2.0511288e-05 0.0000000e+00 
0.0000000e+00 -1.7231112e-05 0.0000000e+00 
0.0000000e+00 -3.7692305e-05 0.0000000e+00 
0.0000000e+00 -4.0390907e-05 0.0000000e+00 
0.0000000e+00 -3.0368588e-05 0.0000000e+00 
0.0000000e+00 -2.0007605e-05 0.0000000e+00 
0.0000000e+00 -1.8956816e-05 0.0000000e+00 
0.0000000e+00 -2.3357721e-05 0.0000000e+00 
0.0000000e+00 -1.8716417e-05 0.0000000e+00 
0.0000000e+00 1.0579178e-06 0.0000000e+00 
0.0000000e+00 2.3040959e-05 0.0000000e+00 
0.0000000e+00 2.8350682e-05 0.0000000e+00 
0.0000000e+00 1.3051010e-05 0.0000000e+00 
0.0000000e+00 2.1957183e-06 0.0000000e+00 
0.0000000e+00 3.0323121e-05 0.0000000e+00 
0.0000000e+00 9.2812916e-05 0.0000000e+00 
0.0000000e+00 1.4091966e-04 0.0000000e+00 
0.0000000e+00 1.2595172e-04 0.0000000e+00 
0.0000000e+00 2.8907876e-05 0.0000000e+00 
0.0000000e+00 -1.3442700e-04 0.0000000e+00 
0.0000000e+00 -3.5670388e-04 0.0000000e+00 
0.0000000e+00 -7.2486076e-04 0.0000000e+00 
0.0000000e+00 -1.4169266e-03 0.0000000e+00 
0.0000000e+00 -2.5397376e-03 0.0000000e+00 
0.0000000e+00 -3.8890259e-03 0.0000000e+00 
0.0000000e+00 -4.8439209e-03 0.0000000e+00 
0.0000000e+00 -4.7169998e-03 0.0000000e+00 
0.0000000e+00 -4.2033424e-03 0.0000000e+00 
0.0000000e+00 -4.0392806e-03 0.0000000e+00 
0.0000000e+00 -4.3410542e-03 0.0000000e+00 
0.0000000e+00 -4.4957534e-03 0.0000000e+00 
0.0000000e+00 -3.6996270e-03 0.0000000e+00 
0.0000000e+00 -2.3986138e-03 0.0000000e+00 
0.0000000e+00 -1.1998538e-03 0.0000000e+00 
0.0000000e+00 -3.5887727e-04 0.0000000e+00 
0.0000000e+00 8.8915745e-05 0.0000000e+00 
0.0000000e+00 2.3559442e-04 0.0000000e+00 
0.0000000e+00 2.1961330e-04 0.0000000e+00 
0.0000000e+00 1.5223111e-04 0.0000000e+00 
0.0000000e+00 8.8056884e-05 0.0000000e+00 
0.0000000e+00 3.6312569e-05 0.0000000e+00 
0.0000000e+00 -4.3782975e-06 0.0000000e+00 
0.0000000e+00 -2.8019309e-05 0.0000000e+00 
0.0000000e+00 -3.0140820e-05 0.0000000e+00 
0.0000000e+00 -1.8310055e-05 0.0000000e+00 
0.0000000e+00 -6.5216154e-06 0.0000000e+00 
0.0000000e+00 -2.6152386e-06 0.0000000e+00 
0.0000000e+00 -3.5466751e-06 0.0000000e+00 
0.0000000e+00 -2.9740270e-06 0.0000000e+00 
0.0000000e+00 7.5190303e-07 0.0000000e+00 
0.0000000e+00 3.8426392e-06 0.0000000e+00 
0.0000000e+00 3.0395197e-06 0.0000000e+00 
0.0000000e+00 -2.1858741e-08 0.0000000e+00 
0.0000000e+00 -1.3618533e-06 0.0000000e+00 
0.0000000e+00 7.2274684e-09 0.0000000e+00 
0.0000000e+00 1.2031746e-06 0.0000000e+00 
0.0000000e+00 -2.5461591e-07 0.0000000e+00 
0.0000000e+00 -3.0531132e-06 0.0000000e+00 
0.0000000e+00 -3.8720682e-06 0.0000000e+00 
0.0000000e+00 -1.6565493e-06 0.0000000e+00 
0.0000000e+00 1.1791930e-06 0.0000000e+00 
0.0000000e+00 1.8428574e-06 0.0000000e+00 
0.0000000e+00 4.1202688e-07 0.0000000e+00 
0.0000000e+00 -6.5888827e-07 0.0000000e+00 
0.0000000e+00 2.2641552e-07 0.0000000e+00 
0.0000000e+00 1.9725323e-06 0.0000000e+00 
0.0000000e+00 2.3666860e-06 0.0000000e+00 
0.0000000e+00 8.1422291e-07 0.0000000e+00 
0.0000000e+00 -1.1090875e-06 0.0000000e+00 
0.0000000e+00 -1.6641187e-06 0.0000000e+00 
0.0000000e+00 -8.5273632e-07 0.0000000e+00 
0.0000000e+00 -4.4991339e-08 0.0000000e+00 
0.0000000e+00 -1.3474406e-07 0.0000000e+00 
0.0000000e+00 -6.2205271e-07 0.0000000e+00 
0.0000000e+00 -5.2596738e-07 0.0000000e+00 
0.0000000e+00 2.9037730e-07 0.0000000e+00 
0.0000000e+00 1.0318425e-06 0.0000000e+00 
0.0000000e+00 9.9829617e-07 0.0000000e+00 
0.0000000e+00 3.2368791e-07 0.0000000e+00 
0.0000000e+00 -3.3793282e-07 0.0000000e+00 
0.0000000e+00 -5.6516257e-07 0.0000000e+00 
0.0000000e+00 -4.3213632e-07 0.0000000e+00 
0.0000000e+00 -1.9470377e-07 0.0000000e+00 
0.0000000e+00 1.8835099e-08 0.0000000e+00 
0.0000000e+00 1.8495537e-07 0.0000000e+00 
0.0000000e+00 2.5546692e-07 0.0000000e+00 
0.0000000e+00 0.0000000e+00 0.0000000e+00 
0.0000000e+00 0.0000000e+00 0.0000000e+00 
0.0000000e+00 0.0000000e+00 0.0000000e+00 
0.0000000e+00 0.0000000e+00 0.0000000e+00 
0.0000000e+00 0.0000000e+00 0.0000000e+00 
0.0000000e+00 0.0000000e+00 0.0000000e+00 
0.0000000e+00 0.0000000e+00 0.0000000e+00 
0.0000000e+00 0.0000000e+00 0.0000000e+00 
0.0000000e+00 0.0000000e+00 0.0000000e+00 
0.0000000e+00 0.0000000e+00 0.0000000e+00 
0.0000000e+00 0.0000000e+00 0.0000000e+00 
0.0000000e+00 0.0000000e+00 0.0000000e+00 
0.0000000e+00 0.0000000e+00 0.0000000e+00 
0.0000000e+00 0.0000000e+00 0.0000000e+00 
0.0000000e+00 0.0000000e+00 0.0000000e+00 
0.0000000e+00 0.0000000e+00 0.0000000e+00 
0.0000000e+00 0.0000000e+00 0.0000000e+00 
0.0000000e+00 0.0000000e+00 0.0000000e+00 
0.0000000e+00 0.0000000e+00 0.0000000e+00 
0.0000000e+00 0.0000000e+00 0.0000000e+00 
0.0000000e+00 0.0000000e+00 0.0000000e+00 
0.0000000e+00 0.0000000e+00 0.0000000e+00 
0.0000000e+00 0.0000000e+00 0.0000000e+00 
0.0000000e+00 0.0000000e+00 0.0000000e+00 
0.0000000e+00 0.0000000e+00 0.0000000e+00 
0.0000000e+00 0.0000000e+00 0.0000000e+00 
0.0000000e+00 0.0000000e+00 0.0000000e+00 
0.0000000e+00 0.0000000e+00 0.0000000e+00 
0.0000000e+00 0.0000000e+00 0.0000000e+00 
0.0000000e+00 0.0000000e+00 0.0000000e+00 
0.0000000e+00 0.0000000e+00 0.0000000e+00 
0.0000000e+00 0.0000000e+00 0.0000000e+00 
0.0000000e+00 0.0000000e+00 0.0000000e+00 
0.0000000e+00 0.0000000e+00 0.0000000e+00 
0.0000000e+00 0.0000000e+00 0.0000000e+00 
0.0000000e+00 0.0000000e+00 0.0000000e+00 
0.0000000e+00 0.0000000e+00 0.0000000e+00 
0.0000000e+00 0.0000000e+00 0.0000000e+00 
0.0000000e+00 0.0000000e+00 0.0000000e+00 
0.0000000e+00 0.0000000e+00 0.0000000e+00 
0.0000000e+00 0.0000000e+00 0.0000000e+00 
0.0000000e+00 0.0000000e+00 0.0000000e+00 
0.0000000e+00 0.0000000e+00 0.0000000e+00 
0.0000000e+00 0.0000000e+00 0.0000000e+00 
0.0000000e+00 0.0000000e+00 0.0000000e+00 
0.0000000e+00 0.0000000e+00 0.0000000e+00 
0.0000000e+00 0.0000000e+00 0.0000000e+00 
0.0000000e+00 0.0000000e+00 0.0000000e+00 
0.0000000e+00 0.0000000e+00 0.0000000e+00 
0.0000000e+00 0.0000000e+00 0.0000000e+00 
0.0000000e+00 0.0000000e+00 0.0000000e+00 
0.0000000e+00 0.0000000e+00 0.0000000e+00 
0.0000000e+00 0.0000000e+00 0.0000000e+00 
0.0000000e+00 0.0000000e+00 0.0000000e+00 
0.0000000e+00 0.0000000e+00 0.0000000e+00 
0.0000000e+00 0.0000000e+00 0.0000000e+00 
0.0000000e+00 0.0000000e+00 0.0000000e+00 