# vtk DataFile Version 4.0
vtk output
ASCII
DATASET UNSTRUCTURED_GRID
POINTS 2186 float
0.0000000e+00 0.0000000e+00 0.0000000e+00 
0.0000000e+00 0.0000000e+00 5.0000000e+01 
5.0000000e+00 0.0000000e+00 0.0000000e+00 
5.0000000e+00 0.0000000e+00 5.0000000e+01 
5.0000000e+00 1.0000000e+00 0.0000000e+00 
5.0000000e+00 1.0000000e+00 5.0000000e+01 
0.0000000e+00 1.0000000e+00 0.0000000e+00 
0.0000000e+00 1.0000000e+00 5.0000000e+01 
5.0000000e+00 2.0000000e+00 0.0000000e+00 
5.0000000e+00 2.0000000e+00 5.0000000e+01 
3.0000000e+00 2.0000000e+00 0.0000000e+00 
3.0000000e+00 2.0000000e+00 5.0000000e+01 
0.0000000e+00 2.0000000e+00 0.0000000e+00 
0.0000000e+00 2.0000000e+00 5.0000000e+01 
1.5000000e+00 3.0000000e+00 0.0000000e+00 
1.5000000e+00 3.0000000e+00 5.0000000e+01 
7.5000000e-01 3.0000000e+00 0.0000000e+00 
7.5000000e-01 3.0000000e+00 5.0000000e+01 
0.0000000e+00 3.0000000e+00 0.0000000e+00 
0.0000000e+00 3.0000000e+00 5.0000000e+01 
7.5000000e-01 3.0000000e+00 -2.5000000e+01 
7.5000000e-01 3.0000000e+00 -2.4500000e+01 
7.5000000e-01 3.0000000e+00 -2.4000000e+01 
7.5000000e-01 3.0000000e+00 -2.3500000e+01 
7.5000000e-01 3.0000000e+00 -2.3000000e+01 
7.5000000e-01 3.0000000e+00 -2.2500000e+01 
7.5000000e-01 3.0000000e+00 -2.2000000e+01 
7.5000000e-01 3.0000000e+00 -2.1500000e+01 
7.5000000e-01 3.0000000e+00 -2.1000000e+01 
7.5000000e-01 3.0000000e+00 -2.0500000e+01 
7.5000000e-01 3.0000000e+00 -2.0000000e+01 
7.5000000e-01 3.0000000e+00 -1.9500000e+01 
7.5000000e-01 3.0000000e+00 -1.9000000e+01 
7.5000000e-01 3.0000000e+00 -1.8500000e+01 
7.5000000e-01 3.0000000e+00 -1.8000000e+01 
7.5000000e-01 3.0000000e+00 -1.7500000e+01 
7.5000000e-01 3.0000000e+00 -1.7000000e+01 
7.5000000e-01 3.0000000e+00 -1.6500000e+01 
7.5000000e-01 3.0000000e+00 -1.6000000e+01 
7.5000000e-01 3.0000000e+00 -1.5500000e+01 
7.5000000e-01 3.0000000e+00 -1.5000000e+01 
7.5000000e-01 3.0000000e+00 -1.4500000e+01 
7.5000000e-01 3.0000000e+00 -1.4000000e+01 
7.5000000e-01 3.0000000e+00 -1.3500000e+01 
7.5000000e-01 3.0000000e+00 -1.3000000e+01 
7.5000000e-01 3.0000000e+00 -1.2500000e+01 
7.5000000e-01 3.0000000e+00 -1.2000000e+01 
7.5000000e-01 3.0000000e+00 -1.1500000e+01 
7.5000000e-01 3.0000000e+00 -1.1000000e+01 
7.5000000e-01 3.0000000e+00 -1.0500000e+01 
7.5000000e-01 3.0000000e+00 -1.0000000e+01 
7.5000000e-01 3.0000000e+00 -9.5000000e+00 
7.5000000e-01 3.0000000e+00 -9.0000000e+00 
7.5000000e-01 3.0000000e+00 -8.5000000e+00 
7.5000000e-01 3.0000000e+00 -8.0000000e+00 
7.5000000e-01 3.0000000e+00 -7.5000000e+00 
7.5000000e-01 3.0000000e+00 -7.0000000e+00 
7.5000000e-01 3.0000000e+00 -6.5000000e+00 
7.5000000e-01 3.0000000e+00 -6.0000000e+00 
7.5000000e-01 3.0000000e+00 -5.5000000e+00 
7.5000000e-01 3.0000000e+00 -5.0000000e+00 
7.5000000e-01 3.0000000e+00 -4.5000000e+00 
7.5000000e-01 3.0000000e+00 -4.0000000e+00 
7.5000000e-01 3.0000000e+00 -3.5000000e+00 
7.5000000e-01 3.0000000e+00 -3.0000000e+00 
7.5000000e-01 3.0000000e+00 -2.5000000e+00 
7.5000000e-01 3.0000000e+00 -2.0000000e+00 
7.5000000e-01 3.0000000e+00 -1.5000000e+00 
7.5000000e-01 3.0000000e+00 -1.0000000e+00 
7.5000000e-01 3.0000000e+00 -5.0000000e-01 
7.5000000e-01 3.0000000e+00 5.0000000e-01 
7.5000000e-01 3.0000000e+00 1.0000000e+00 
7.5000000e-01 3.0000000e+00 1.5000000e+00 
7.5000000e-01 3.0000000e+00 2.0000000e+00 
7.5000000e-01 3.0000000e+00 2.5000000e+00 
7.5000000e-01 3.0000000e+00 3.0000000e+00 
7.5000000e-01 3.0000000e+00 3.5000000e+00 
7.5000000e-01 3.0000000e+00 4.0000000e+00 
7.5000000e-01 3.0000000e+00 4.5000000e+00 
7.5000000e-01 3.0000000e+00 5.0000000e+00 
7.5000000e-01 3.0000000e+00 5.5000000e+00 
7.5000000e-01 3.0000000e+00 6.0000000e+00 
7.5000000e-01 3.0000000e+00 6.5000000e+00 
7.5000000e-01 3.0000000e+00 7.0000000e+00 
7.5000000e-01 3.0000000e+00 7.5000000e+00 
7.5000000e-01 3.0000000e+00 8.0000000e+00 
7.5000000e-01 3.0000000e+00 8.5000000e+00 
7.5000000e-01 3.0000000e+00 9.0000000e+00 
7.5000000e-01 3.0000000e+00 9.5000000e+00 
7.5000000e-01 3.0000000e+00 1.0000000e+01 
7.5000000e-01 3.0000000e+00 1.0500000e+01 
7.5000000e-01 3.0000000e+00 1.1000000e+01 
7.5000000e-01 3.0000000e+00 1.1500000e+01 
7.5000000e-01 3.0000000e+00 1.2000000e+01 
7.5000000e-01 3.0000000e+00 1.2500000e+01 
7.5000000e-01 3.0000000e+00 1.3000000e+01 
7.5000000e-01 3.0000000e+00 1.3500000e+01 
7.5000000e-01 3.0000000e+00 1.4000000e+01 
7.5000000e-01 3.0000000e+00 1.4500000e+01 
7.5000000e-01 3.0000000e+00 1.5000000e+01 
7.5000000e-01 3.0000000e+00 1.5500000e+01 
7.5000000e-01 3.0000000e+00 1.6000000e+01 
7.5000000e-01 3.0000000e+00 1.6500000e+01 
7.5000000e-01 3.0000000e+00 1.7000000e+01 
7.5000000e-01 3.0000000e+00 1.7500000e+01 
7.5000000e-01 3.0000000e+00 1.8000000e+01 
7.5000000e-01 3.0000000e+00 1.8500000e+01 
7.5000000e-01 3.0000000e+00 1.9000000e+01 
7.5000000e-01 3.0000000e+00 1.9500000e+01 
7.5000000e-01 3.0000000e+00 2.0000000e+01 
7.5000000e-01 3.0000000e+00 2.0500000e+01 
7.5000000e-01 3.0000000e+00 2.1000000e+01 
7.5000000e-01 3.0000000e+00 2.1500000e+01 
7.5000000e-01 3.0000000e+00 2.2000000e+01 
7.5000000e-01 3.0000000e+00 2.2500000e+01 
7.5000000e-01 3.0000000e+00 2.3000000e+01 
7.5000000e-01 3.0000000e+00 2.3500000e+01 
7.5000000e-01 3.0000000e+00 2.4000000e+01 
7.5000000e-01 3.0000000e+00 2.4500000e+01 
7.5000000e-01 3.0000000e+00 2.5000000e+01 
7.5000000e-01 3.0000000e+00 2.5500000e+01 
7.5000000e-01 3.0000000e+00 2.6000000e+01 
7.5000000e-01 3.0000000e+00 2.6500000e+01 
7.5000000e-01 3.0000000e+00 2.7000000e+01 
7.5000000e-01 3.0000000e+00 2.7500000e+01 
7.5000000e-01 3.0000000e+00 2.8000000e+01 
7.5000000e-01 3.0000000e+00 2.8500000e+01 
7.5000000e-01 3.0000000e+00 2.9000000e+01 
7.5000000e-01 3.0000000e+00 2.9500000e+01 
7.5000000e-01 3.0000000e+00 3.0000000e+01 
7.5000000e-01 3.0000000e+00 3.0500000e+01 
7.5000000e-01 3.0000000e+00 3.1000000e+01 
7.5000000e-01 3.0000000e+00 3.1500000e+01 
7.5000000e-01 3.0000000e+00 3.2000000e+01 
7.5000000e-01 3.0000000e+00 3.2500000e+01 
7.5000000e-01 3.0000000e+00 3.3000000e+01 
7.5000000e-01 3.0000000e+00 3.3500000e+01 
7.5000000e-01 3.0000000e+00 3.4000000e+01 
7.5000000e-01 3.0000000e+00 3.4500000e+01 
7.5000000e-01 3.0000000e+00 3.5000000e+01 
7.5000000e-01 3.0000000e+00 3.5500000e+01 
7.5000000e-01 3.0000000e+00 3.6000000e+01 
7.5000000e-01 3.0000000e+00 3.6500000e+01 
7.5000000e-01 3.0000000e+00 3.7000000e+01 
7.5000000e-01 3.0000000e+00 3.7500000e+01 
7.5000000e-01 3.0000000e+00 3.8000000e+01 
7.5000000e-01 3.0000000e+00 3.8500000e+01 
7.5000000e-01 3.0000000e+00 3.9000000e+01 
7.5000000e-01 3.0000000e+00 3.9500000e+01 
7.5000000e-01 3.0000000e+00 4.0000000e+01 
7.5000000e-01 3.0000000e+00 4.0500000e+01 
7.5000000e-01 3.0000000e+00 4.1000000e+01 
7.5000000e-01 3.0000000e+00 4.1500000e+01 
7.5000000e-01 3.0000000e+00 4.2000000e+01 
7.5000000e-01 3.0000000e+00 4.2500000e+01 
7.5000000e-01 3.0000000e+00 4.3000000e+01 
7.5000000e-01 3.0000000e+00 4.3500000e+01 
7.5000000e-01 3.0000000e+00 4.4000000e+01 
7.5000000e-01 3.0000000e+00 4.4500000e+01 
7.5000000e-01 3.0000000e+00 4.5000000e+01 
7.5000000e-01 3.0000000e+00 4.5500000e+01 
7.5000000e-01 3.0000000e+00 4.6000000e+01 
7.5000000e-01 3.0000000e+00 4.6500000e+01 
7.5000000e-01 3.0000000e+00 4.7000000e+01 
7.5000000e-01 3.0000000e+00 4.7500000e+01 
7.5000000e-01 3.0000000e+00 4.8000000e+01 
7.5000000e-01 3.0000000e+00 4.8500000e+01 
7.5000000e-01 3.0000000e+00 4.9000000e+01 
7.5000000e-01 3.0000000e+00 4.9500000e+01 
7.5000000e-01 3.0000000e+00 5.0500000e+01 
7.5000000e-01 3.0000000e+00 5.1000000e+01 
7.5000000e-01 3.0000000e+00 5.1500000e+01 
7.5000000e-01 3.0000000e+00 5.2000000e+01 
7.5000000e-01 3.0000000e+00 5.2500000e+01 
7.5000000e-01 3.0000000e+00 5.3000000e+01 
7.5000000e-01 3.0000000e+00 5.3500000e+01 
7.5000000e-01 3.0000000e+00 5.4000000e+01 
7.5000000e-01 3.0000000e+00 5.4500000e+01 
7.5000000e-01 3.0000000e+00 5.5000000e+01 
7.5000000e-01 3.0000000e+00 5.5500000e+01 
7.5000000e-01 3.0000000e+00 5.6000000e+01 
7.5000000e-01 3.0000000e+00 5.6500000e+01 
7.5000000e-01 3.0000000e+00 5.7000000e+01 
7.5000000e-01 3.0000000e+00 5.7500000e+01 
7.5000000e-01 3.0000000e+00 5.8000000e+01 
7.5000000e-01 3.0000000e+00 5.8500000e+01 
7.5000000e-01 3.0000000e+00 5.9000000e+01 
7.5000000e-01 3.0000000e+00 5.9500000e+01 
7.5000000e-01 3.0000000e+00 6.0000000e+01 
7.5000000e-01 3.0000000e+00 6.0500000e+01 
7.5000000e-01 3.0000000e+00 6.1000000e+01 
7.5000000e-01 3.0000000e+00 6.1500000e+01 
7.5000000e-01 3.0000000e+00 6.2000000e+01 
7.5000000e-01 3.0000000e+00 6.2500000e+01 
7.5000000e-01 3.0000000e+00 6.3000000e+01 
7.5000000e-01 3.0000000e+00 6.3500000e+01 
7.5000000e-01 3.0000000e+00 6.4000000e+01 
7.5000000e-01 3.0000000e+00 6.4500000e+01 
7.5000000e-01 3.0000000e+00 6.5000000e+01 
7.5000000e-01 3.0000000e+00 6.5500000e+01 
7.5000000e-01 3.0000000e+00 6.6000000e+01 
7.5000000e-01 3.0000000e+00 6.6500000e+01 
7.5000000e-01 3.0000000e+00 6.7000000e+01 
7.5000000e-01 3.0000000e+00 6.7500000e+01 
7.5000000e-01 3.0000000e+00 6.8000000e+01 
7.5000000e-01 3.0000000e+00 6.8500000e+01 
7.5000000e-01 3.0000000e+00 6.9000000e+01 
7.5000000e-01 3.0000000e+00 6.9500000e+01 
7.5000000e-01 3.0250001e+00 -2.5000000e+01 
7.5000000e-01 3.0250001e+00 -2.4500000e+01 
7.5000000e-01 3.0250001e+00 -2.4000000e+01 
7.5000000e-01 3.0250001e+00 -2.3500000e+01 
7.5000000e-01 3.0250001e+00 -2.3000000e+01 
7.5000000e-01 3.0250001e+00 -2.2500000e+01 
7.5000000e-01 3.0250001e+00 -2.2000000e+01 
7.5000000e-01 3.0250001e+00 -2.1500000e+01 
7.5000000e-01 3.0250001e+00 -2.1000000e+01 
7.5000000e-01 3.0250001e+00 -2.0500000e+01 
7.5000000e-01 3.0250001e+00 -2.0000000e+01 
7.5000000e-01 3.0250001e+00 -1.9500000e+01 
7.5000000e-01 3.0250001e+00 -1.9000000e+01 
7.5000000e-01 3.0250001e+00 -1.8500000e+01 
7.5000000e-01 3.0250001e+00 -1.8000000e+01 
7.5000000e-01 3.0250001e+00 -1.7500000e+01 
7.5000000e-01 3.0250001e+00 -1.7000000e+01 
7.5000000e-01 3.0250001e+00 -1.6500000e+01 
7.5000000e-01 3.0250001e+00 -1.6000000e+01 
7.5000000e-01 3.0250001e+00 -1.5500000e+01 
[...]
POINT_DATA 2186
FIELD FieldData 3
DISPLACEMENT 3 2186  float
0.0000000e+00 0.0000000e+00 0.0000000e+00 
0.0000000e+00 0.0000000e+00 0.0000000e+00 
0.0000000e+00 0.0000000e+00 0.0000000e+00 
0.0000000e+00 0.0000000e+00 0.0000000e+00 
-6.3387120e-06 -4.1382987e-06 6.5750777e-07 
-2.1141167e-07 1.2845457e-07 -1.3184119e-07 
0.0000000e+00 -1.6208362e-05 0.0000000e+00 
0.0000000e+00 1.0122343e-07 0.0000000e+00 
-7.0385458e-06 -1.0441566e-05 5.7859017e-07 
-4.1646967e-07 1.1623144e-07 2.1756472e-07 
-2.2278180e-05 -1.7252447e-05 7.2198673e-06 
-4.6111630e-08 -1.6348470e-07 -4.9386877e-09 
0.0000000e+00 -2.8464114e-05 0.0000000e+00 
0.0000000e+00 -1.9244355e-07 0.0000000e+00 
-2.4442620e-06 -4.6352536e-05 7.1872229e-05 
-7.5497169e-08 -1.8963925e-06 6.7303881e-07 
7.2619245e-05 -2.3736367e-05 5.8917158e-05 
1.8639011e-07 2.6132004e-06 2.9221980e-07 
0.0000000e+00 3.1288703e-06 0.0000000e+00 
0.0000000e+00 -1.6283960e-06 0.0000000e+00 
0.0000000e+00 7.0572596e-06 0.0000000e+00 
0.0000000e+00 8.6754499e-06 0.0000000e+00 
0.0000000e+00 9.0622107e-06 0.0000000e+00 
0.0000000e+00 1.8281634e-06 0.0000000e+00 
0.0000000e+00 -1.2863617e-05 0.0000000e+00 
0.0000000e+00 -2.5742542e-05 0.0000000e+00 
0.0000000e+00 -2.4717012e-05 0.0000000e+00 
0.0000000e+00 -5.6120120e-06 0.0000000e+00 
0.0000000e+00 2.1927503e-05 0.0000000e+00 
0.0000000e+00 3.9499515e-05 0.0000000e+00 
0.0000000e+00 3.3159176e-05 0.0000000e+00 
0.0000000e+00 4.7256367e-06 0.0000000e+00 
0.0000000e+00 -2.8117931e-05 0.0000000e+00 
0.0000000e+00 -4.3790671e-05 0.0000000e+00 
0.0000000e+00 -3.2223081e-05 0.0000000e+00 
0.0000000e+00 -2.0823491e-06 0.0000000e+00 
0.0000000e+00 2.5800666e-05 0.0000000e+00 
0.0000000e+00 3.3844641e-05 0.0000000e+00 
0.0000000e+00 2.0110989e-05 0.0000000e+00 
0.0000000e+00 -1.7480610e-06 0.0000000e+00 
0.0000000e+00 -1.4409912e-05 0.0000000e+00 
0.0000000e+00 -1.0684491e-05 0.0000000e+00 
0.0000000e+00 1.8686061e-06 0.0000000e+00 
0.0000000e+00 8.6848049e-06 0.0000000e+00 
0.0000000e+00 1.3627764e-06 0.0000000e+00 
0.0000000e+00 -1.4837337e-05 0.0000000e+00 
0.0000000e+00 -2.5359590e-05 0.0000000e+00 
0.0000000e+00 -1.8859710e-05 0.0000000e+00 
0.0000000e+00 2.7619242e-06 0.0000000e+00 
0.0000000e+00 2.5380003e-05 0.0000000e+00 
0.0000000e+00 3.3784101e-05 0.0000000e+00 
0.0000000e+00 2.3366922e-05 0.0000000e+00 
0.0000000e+00 2.8089596e-06 0.0000000e+00 
0.0000000e+00 -1.3593382e-05 0.0000000e+00 
0.0000000e+00 -1.6909296e-05 0.0000000e+00 
0.0000000e+00 -9.2183391e-06 0.0000000e+00 
0.0000000e+00 -4.1301934e-07 0.0000000e+00 
0.0000000e+00 5.0998256e-07 0.0000000e+00 
0.0000000e+00 -7.3760543e-06 0.0000000e+00 
0.0000000e+00 -1.6750220e-05 0.0000000e+00 
0.0000000e+00 -1.8516770e-05 0.0000000e+00 
0.0000000e+00 -9.1383263e-06 0.0000000e+00 
0.0000000e+00 7.0568899e-06 0.0000000e+00 
0.0000000e+00 2.1478063e-05 0.0000000e+00 
0.0000000e+00 2.7158645e-05 0.0000000e+00 
0.0000000e+00 2.2966546e-05 0.0000000e+00 
0.0000000e+00 1.3929219e-05 0.0000000e+00 
0.0000000e+00 6.9311955e-06 0.0000000e+00 
0.0000000e+00 3.7520660e-06 0.0000000e+00 
0.0000000e+00 -2.7017686e-06 0.0000000e+00 
9.3147846e-06 -6.3674357e-05 7.4081821e-05 
-1.0138456e-05 -1.1444795e-04 1.0319635e-04 
-3.6314592e-05 -1.5756246e-04 9.9664830e-05 
-8.2422062e-05 -1.8149940e-04 9.6761512e-05 
-1.2339180e-04 -1.8609234e-04 9.9413744e-05 
-1.0155853e-04 -1.8093534e-04 7.5477816e-05 
-1.0275428e-04 -1.7771914e-04 5.9709779e-05 
-9.6929405e-05 -1.7973896e-04 4.3139862e-05 
-1.3336781e-04 -1.7056626e-04 2.7412152e-05 
-9.8482298e-05 -1.2827948e-04 1.4348019e-05 
-1.4478934e-04 -6.8334550e-05 1.5946671e-05 
-9.0320355e-05 -3.7322665e-05 2.6499969e-05 
-1.4720793e-04 -6.8983325e-05 6.5568071e-05 
-1.0615621e-04 -1.7193555e-04 7.6739270e-05 
-1.7341590e-04 -3.4188764e-04 1.1744413e-04 
-1.7263493e-04 -5.8866804e-04 9.6599346e-05 
-2.2238748e-04 -1.0144535e-03 1.9186542e-04 
-2.0244543e-04 -1.7753610e-03 1.2800045e-04 
-2.7089377e-04 -2.9495014e-03 1.9940385e-04 
-3.1434614e-04 -4.3121115e-03 8.1126209e-06 
-3.7706635e-04 -5.2758926e-03 1.2873080e-05 
-4.1377437e-04 -5.1433020e-03 -1.3083058e-04 
-3.1658218e-04 -4.6299952e-03 -2.3831306e-04 
-2.7316500e-04 -4.4609909e-03 -2.3782880e-04 
-2.4927084e-04 -4.8031276e-03 -2.2998328e-04 
-4.8550963e-04 -4.9730474e-03 -1.9270879e-04 
-1.5278316e-04 -4.0730168e-03 -1.4054825e-04 
-7.6171156e-05 -2.6394126e-03 -4.7298825e-05 
-4.6955382e-05 -1.3287778e-03 -1.7958992e-04 
-1.7603283e-05 -4.0529721e-04 -8.3462008e-05 
2.2732361e-06 9.1783477e-05 -8.2367638e-05 
-1.2015855e-05 2.6014468e-04 -1.6613969e-05 
-6.9351813e-06 2.5048907e-04 2.0124684e-05 
-3.4510456e-05 1.8582436e-04 7.2815441e-05 
-4.0304389e-05 1.2185374e-04 -1.3813738e-05 
-1.0851092e-05 6.7600115e-05 -6.3104875e-05 
2.7271755e-05 1.6731405e-05 -7.8136007e-05 
2.6686539e-05 -2.3733997e-05 -6.7845067e-05 
6.0645605e-05 -4.2215106e-05 -2.0198115e-05 
4.0735969e-05 -4.3821277e-05 2.8163215e-05 
1.9021010e-05 -5.1627976e-05 8.1554506e-05 
-1.0049984e-05 -8.1012287e-05 9.6211610e-05 
-4.0221406e-05 -1.2697563e-04 8.9922039e-05 
-6.9820657e-05 -1.6719679e-04 8.7301443e-05 
-9.9381272e-05 -1.8289451e-04 8.1763945e-05 
-8.7453249e-05 -1.7087263e-04 4.5837071e-05 
-1.1276962e-04 -1.4457954e-04 5.2762021e-05 
-9.4143572e-05 -1.3216336e-04 2.4076970e-05 
-1.3287640e-04 -1.3857796e-04 3.6649869e-06 
-9.2222268e-05 -1.3254787e-04 5.7019420e-06 
-1.3794244e-04 -9.3859300e-05 1.9525896e-05 
-9.3148796e-05 -4.3104032e-05 2.7269853e-05 
-1.3627287e-04 -3.8389873e-05 6.0241386e-05 
-1.2466974e-04 -1.4307426e-04 4.9593364e-05 
-1.8882719e-04 -3.7759275e-04 9.4677380e-05 
-1.9104462e-04 -7.3656510e-04 9.5305884e-05 
-2.4576762e-04 -1.2668811e-03 2.0406552e-04 
-2.6641498e-04 -2.0545758e-03 1.0401381e-04 
-3.3900663e-04 -3.1838154e-03 1.8553519e-04 
-4.0674387e-04 -4.5117456e-03 -3.3783457e-05 
-4.2348390e-04 -5.4645054e-03 -8.1710292e-05 
-4.0862025e-04 -5.2176192e-03 -1.5078804e-04 
-3.1867530e-04 -4.6165125e-03 -2.3940622e-04 
-2.8777699e-04 -4.3578451e-03 -2.1299635e-04 
-2.1415760e-04 -4.6224105e-03 -1.8600184e-04 
-2.3926423e-04 -4.7065020e-03 -1.8074171e-04 
-1.6041122e-04 -3.7557425e-03 -2.9227260e-04 
-1.0460707e-04 -2.3243602e-03 -1.0642700e-04 
-4.0770621e-05 -1.0983882e-03 -1.7441470e-04 
-2.6058635e-06 -2.8647314e-04 -3.2103955e-05 
1.1794413e-05 1.0705157e-04 -2.3635517e-05 
4.1558915e-06 2.2308569e-04 2.5196490e-05 
-1.0741687e-05 2.1283032e-04 6.2933730e-05 
-1.6235759e-05 1.5783693e-04 6.4473454e-05 
-5.3859756e-05 8.7693159e-05 3.7224374e-05 
-6.2120947e-05 2.1083584e-05 -6.6427742e-06 
-2.5125262e-05 -1.6386735e-05 -6.1142833e-05 
-1.3131952e-05 -1.8812229e-05 -7.9668302e-05 
2.7913484e-05 -4.9887058e-07 -5.4598040e-05 
3.6680856e-05 1.4906767e-05 -3.8942311e-05 
2.4094565e-05 1.4623166e-05 -2.9794337e-06 
1.6157319e-05 5.7822881e-06 9.4135385e-06 
4.4578201e-06 -1.8576045e-06 1.3212887e-05 
-8.1566947e-07 -5.8905216e-06 1.0508004e-05 
-4.5581946e-06 -8.8925599e-06 6.8493441e-06 
-5.7615143e-06 -1.0836031e-05 2.3672198e-06 
-3.7004852e-06 -8.5669953e-06 8.6352992e-07 
-1.5396921e-06 -2.4901908e-06 1.6302856e-06 
-9.8745750e-07 3.3496692e-06 -2.1388512e-07 
1.4301493e-07 5.5987298e-06 1.0626386e-07 
6.8839785e-07 4.5138572e-06 -3.0111056e-07 
3.8969748e-08 2.5947659e-06 -1.2396362e-06 
4.9905680e-07 1.3683505e-06 6.5165347e-07 
2.8479900e-07 2.1237678e-07 -3.2216559e-07 
-1.6802480e-07 -1.7187444e-06 5.0741829e-07 
5.3539981e-07 -3.3458252e-06 3.8116912e-07 
-1.3681282e-09 -3.1086543e-06 -2.8702755e-07 
-5.6723155e-07 -9.4813925e-07 -2.9446220e-08 
-8.2409805e-08 1.5625226e-06 -2.1701487e-08 
0.0000000e+00 1.8389532e-06 0.0000000e+00 
0.0000000e+00 2.1856326e-07 0.0000000e+00 
0.0000000e+00 -1.1724725e-06 0.0000000e+00 
0.0000000e+00 -1.8034317e-06 0.0000000e+00 
0.0000000e+00 -1.6202666e-06 0.0000000e+00 
0.0000000e+00 -7.2985290e-07 0.0000000e+00 
0.0000000e+00 5.8430442e-07 0.0000000e+00 
0.0000000e+00 1.6794492e-06 0.0000000e+00 
0.0000000e+00 1.7791002e-06 0.0000000e+00 
0.0000000e+00 6.4335944e-07 0.0000000e+00 
0.0000000e+00 -1.0220740e-06 0.0000000e+00 
0.0000000e+00 -2.0118846e-06 0.0000000e+00 
0.0000000e+00 -1.6062215e-06 0.0000000e+00 
0.0000000e+00 -1.5736281e-07 0.0000000e+00 
0.0000000e+00 1.2621622e-06 0.0000000e+00 
0.0000000e+00 1.7517383e-06 0.0000000e+00 
0.0000000e+00 1.1764441e-06 0.0000000e+00 
0.0000000e+00 5.8761962e-08 0.0000000e+00 
0.0000000e+00 -9.2798672e-07 0.0000000e+00 
0.0000000e+00 -1.3444700e-06 0.0000000e+00 
0.0000000e+00 -1.0699499e-06 0.0000000e+00 
0.0000000e+00 -2.5908375e-07 0.0000000e+00 
0.0000000e+00 6.9137116e-07 0.0000000e+00 
0.0000000e+00 1.2551249e-06 0.0000000e+00 
0.0000000e+00 1.0630778e-06 0.0000000e+00 
0.0000000e+00 2.0466473e-07 0.0000000e+00 
0.0000000e+00 -7.6320208e-07 0.0000000e+00 
0.0000000e+00 -1.1911768e-06 0.0000000e+00 
0.0000000e+00 -8.1520966e-07 0.0000000e+00 
0.0000000e+00 6.1748196e-08 0.0000000e+00 
0.0000000e+00 8.1963412e-07 0.0000000e+00 
0.0000000e+00 9.7482359e-07 0.0000000e+00 
0.0000000e+00 4.8526448e-07 0.0000000e+00 
0.0000000e+00 -2.7509660e-07 0.0000000e+00 
0.0000000e+00 -7.9861456e-07 0.0000000e+00 
0.0000000e+00 -7.7070996e-07 0.0000000e+00 
0.0000000e+00 -2.4878861e-07 0.0000000e+00 
0.0000000e+00 3.8956424e-07 0.0000000e+00 
0.0000000e+00 6.8157004e-07 0.0000000e+00 
0.0000000e+00 7.1989598e-06 0.0000000e+00 
0.0000000e+00 8.7091385e-06 0.0000000e+00 
0.0000000e+00 8.8989282e-06 0.0000000e+00 
0.0000000e+00 1.5935919e-06 0.0000000e+00 
0.0000000e+00 -1.2944382e-05 0.0000000e+00 
0.0000000e+00 -2.5553612e-05 0.0000000e+00 
0.0000000e+00 -2.4374671e-05 0.0000000e+00 
0.0000000e+00 -5.3870481e-06 0.0000000e+00 
0.0000000e+00 2.1831223e-05 0.0000000e+00 
0.0000000e+00 3.9124156e-05 0.0000000e+00 
0.0000000e+00 3.2774555e-05 0.0000000e+00 
0.0000000e+00 4.6233581e-06 0.0000000e+00 
0.0000000e+00 -2.7853157e-05 0.0000000e+00 
0.0000000e+00 -4.3351443e-05 0.0000000e+00 
0.0000000e+00 -3.1935579e-05 0.0000000e+00 
0.0000000e+00 -2.1568958e-06 0.0000000e+00 
0.0000000e+00 2.5433113e-05 0.0000000e+00 
0.0000000e+00 3.3478005e-05 0.0000000e+00 
0.0000000e+00 2.0028798e-05 0.0000000e+00 
0.0000000e+00 -1.4991299e-06 0.0000000e+00 
0.0000000e+00 -1.4049494e-05 0.0000000e+00 
0.0000000e+00 -1.0510327e-05 0.0000000e+00 
0.0000000e+00 1.7231343e-06 0.0000000e+00 
0.0000000e+00 8.3494415e-06 0.0000000e+00 
0.0000000e+00 1.1169249e-06 0.0000000e+00 
0.0000000e+00 -1.4792011e-05 0.0000000e+00 
0.0000000e+00 -2.5061832e-05 0.0000000e+00 
0.0000000e+00 -1.8556231e-05 0.0000000e+00 
0.0000000e+00 2.8242514e-06 0.0000000e+00 
0.0000000e+00 2.5162763e-05 0.0000000e+00 
0.0000000e+00 3.3478962e-05 0.0000000e+00 
0.0000000e+00 2.3216788e-05 0.0000000e+00 
0.0000000e+00 2.9079686e-06 0.0000000e+00 
0.0000000e+00 -1.3345663e-05 0.0000000e+00 
0.0000000e+00 -1.6700633e-05 0.0000000e+00 
0.0000000e+00 -9.1867014e-06 0.0000000e+00 
0.0000000e+00 -5.6856544e-07 0.0000000e+00 
0.0000000e+00 2.8405870e-07 0.0000000e+00 
0.0000000e+00 -7.5090547e-06 0.0000000e+00 
0.0000000e+00 -1.6703514e-05 0.0000000e+00 
0.0000000e+00 -1.8344386e-05 0.0000000e+00 
0.0000000e+00 -8.9760788e-06 0.0000000e+00 
0.0000000e+00 7.1023078e-06 0.0000000e+00 
0.0000000e+00 2.1383523e-05 0.0000000e+00 
0.0000000e+00 2.6985665e-05 0.0000000e+00 
0.0000000e+00 2.2853559e-05 0.0000000e+00 
0.0000000e+00 1.4022778e-05 0.0000000e+00 
0.0000000e+00 7.2239777e-06 0.0000000e+00 
0.0000000e+00 3.9996826e-06 0.0000000e+00 
0.0000000e+00 -2.8000611e-06 0.0000000e+00 
0.0000000e+00 -2.4117326e-05 0.0000000e+00 
0.0000000e+00 -6.4189095e-05 0.0000000e+00 
0.0000000e+00 -1.1441305e-04 0.0000000e+00 
0.0000000e+00 -1.5732921e-04 0.0000000e+00 
0.0000000e+00 -1.8117727e-04 0.0000000e+00 
0.0000000e+00 -1.8587821e-04 0.0000000e+00 
0.0000000e+00 -1.8110211e-04 0.0000000e+00 
0.0000000e+00 -1.7864788e-04 0.0000000e+00 
0.0000000e+00 -1.8045618e-04 0.0000000e+00 
0.0000000e+00 -1.6952283e-04 0.0000000e+00 
0.0000000e+00 -1.2700059e-04 0.0000000e+00 
0.0000000e+00 -6.8231151e-05 0.0000000e+00 
0.0000000e+00 -3.7873939e-05 0.0000000e+00 
0.0000000e+00 -6.9944181e-05 0.0000000e+00 
0.0000000e+00 -1.7232298e-04 0.0000000e+00 
0.0000000e+00 -3.3890139e-04 0.0000000e+00 
0.0000000e+00 -5.8634428e-04 0.0000000e+00 
0.0000000e+00 -1.0158826e-03 0.0000000e+00 
0.0000000e+00 -1.7851163e-03 0.0000000e+00 
0.0000000e+00 -2.9635725e-03 0.0000000e+00 
0.0000000e+00 -4.3360735e-03 0.0000000e+00 
0.0000000e+00 -5.2970336e-03 0.0000000e+00 
0.0000000e+00 -5.1731030e-03 0.0000000e+00 
0.0000000e+00 -4.6513663e-03 0.0000000e+00 
0.0000000e+00 -4.4927779e-03 0.0000000e+00 
0.0000000e+00 -4.8298626e-03 0.0000000e+00 
0.0000000e+00 -4.9935258e-03 0.0000000e+00 
0.0000000e+00 -4.1003907e-03 0.0000000e+00 
0.0000000e+00 -2.6567618e-03 0.0000000e+00 
0.0000000e+00 -1.3363159e-03 0.0000000e+00 
0.0000000e+00 -4.0998968e-04 0.0000000e+00 
0.0000000e+00 9.0527865e-05 0.0000000e+00 
0.0000000e+00 2.6201495e-04 0.0000000e+00 
0.0000000e+00 2.5312707e-04 0.0000000e+00 
0.0000000e+00 1.8711248e-04 0.0000000e+00 
0.0000000e+00 1.2214712e-04 0.0000000e+00 
0.0000000e+00 6.7320521e-05 0.0000000e+00 
0.0000000e+00 1.6770882e-05 0.0000000e+00 
0.0000000e+00 -2.3229524e-05 0.0000000e+00 
0.0000000e+00 -4.1806077e-05 0.0000000e+00 
0.0000000e+00 -4.4210581e-05 0.0000000e+00 
0.0000000e+00 -5.2181018e-05 0.0000000e+00 
0.0000000e+00 -8.1484832e-05 0.0000000e+00 
0.0000000e+00 -1.2706756e-04 0.0000000e+00 
0.0000000e+00 -1.6704647e-04 0.0000000e+00 
0.0000000e+00 -1.8240485e-04 0.0000000e+00 
0.0000000e+00 -1.7004767e-04 0.0000000e+00 
0.0000000e+00 -1.4516947e-04 0.0000000e+00 
0.0000000e+00 -1.3358222e-04 0.0000000e+00 
0.0000000e+00 -1.3876073e-04 0.0000000e+00 
0.0000000e+00 -1.3167702e-04 0.0000000e+00 
0.0000000e+00 -9.2162940e-05 0.0000000e+00 
0.0000000e+00 -4.1995376e-05 0.0000000e+00 
0.0000000e+00 -3.9650949e-05 0.0000000e+00 
0.0000000e+00 -1.4454649e-04 0.0000000e+00 
0.0000000e+00 -3.7664783e-04 0.0000000e+00 
0.0000000e+00 -7.3573971e-04 0.0000000e+00 
0.0000000e+00 -1.2661365e-03 0.0000000e+00 
0.0000000e+00 -2.0612511e-03 0.0000000e+00 
0.0000000e+00 -3.1984323e-03 0.0000000e+00 
0.0000000e+00 -4.5424728e-03 0.0000000e+00 
0.0000000e+00 -5.4868697e-03 0.0000000e+00 
0.0000000e+00 -5.2458500e-03 0.0000000e+00 
0.0000000e+00 -4.6340819e-03 0.0000000e+00 
0.0000000e+00 -4.3885973e-03 0.0000000e+00 
0.0000000e+00 -4.6478212e-03 0.0000000e+00 
0.0000000e+00 -4.7396938e-03 0.0000000e+00 
0.0000000e+00 -3.7730425e-03 0.0000000e+00 
0.0000000e+00 -2.3427135e-03 0.0000000e+00 
0.0000000e+00 -1.1052501e-03 0.0000000e+00 
0.0000000e+00 -2.9052590e-04 0.0000000e+00 
0.0000000e+00 1.0754103e-04 0.0000000e+00 
0.0000000e+00 2.2578523e-04 0.0000000e+00 
0.0000000e+00 2.1436597e-04 0.0000000e+00 
0.0000000e+00 1.5803658e-04 0.0000000e+00 
0.0000000e+00 8.7596258e-05 0.0000000e+00 
0.0000000e+00 2.2049569e-05 0.0000000e+00 
0.0000000e+00 -1.5752752e-05 0.0000000e+00 
0.0000000e+00 -1.8769057e-05 0.0000000e+00 
0.0000000e+00 -9.8674229e-07 0.0000000e+00 
0.0000000e+00 1.4315634e-05 0.0000000e+00 
0.0000000e+00 1.4686555e-05 0.0000000e+00 
0.0000000e+00 6.0397842e-06 0.0000000e+00 
0.0000000e+00 -1.7752805e-06 0.0000000e+00 
0.0000000e+00 -6.0110729e-06 0.0000000e+00 
0.0000000e+00 -8.9468022e-06 0.0000000e+00 
0.0000000e+00 -1.0654492e-05 0.0000000e+00 
0.0000000e+00 -8.4753756e-06 0.0000000e+00 
0.0000000e+00 -2.5919589e-06 0.0000000e+00 
0.0000000e+00 3.2148332e-06 0.0000000e+00 
0.0000000e+00 5.5764363e-06 0.0000000e+00 
0.0000000e+00 4.5797838e-06 0.0000000e+00 
0.0000000e+00 2.6501332e-06 0.0000000e+00 
0.0000000e+00 1.3516094e-06 0.0000000e+00 
0.0000000e+00 1.4618826e-07 0.0000000e+00 
0.0000000e+00 -1.7131661e-06 0.0000000e+00 
0.0000000e+00 -3.2826636e-06 0.0000000e+00 
0.0000000e+00 -3.0695107e-06 0.0000000e+00 
0.0000000e+00 -9.6433325e-07 0.0000000e+00 
0.0000000e+00 1.5077011e-06 0.0000000e+00 
0.0000000e+00 2.5813515e-06 0.0000000e+00 
0.0000000e+00 1.8487174e-06 0.0000000e+00 
0.0000000e+00 2.3741904e-07 0.0000000e+00 
0.0000000e+00 -1.1637034e-06 0.0000000e+00 
0.0000000e+00 -1.8028768e-06 0.0000000e+00 
0.0000000e+00 -1.6142036e-06 0.0000000e+00 
0.0000000e+00 -7.1821484e-07 0.0000000e+00 
0.0000000e+00 5.8445642e-07 0.0000000e+00 
0.0000000e+00 1.6580218e-06 0.0000000e+00 
0.0000000e+00 1.7513529e-06 0.0000000e+00 
0.0000000e+00 6.3644029e-07 0.0000000e+00 
0.0000000e+00 -9.9929446e-07 0.0000000e+00 
0.0000000e+00 -1.9795702e-06 0.0000000e+00 
0.0000000e+00 -1.5927153e-06 0.0000000e+00 
0.0000000e+00 -1.7120877e-07 0.0000000e+00 
0.0000000e+00 1.2372188e-06 0.0000000e+00 
0.0000000e+00 1.7370330e-06 0.0000000e+00 
0.0000000e+00 1.1784830e-06 0.0000000e+00 
0.0000000e+00 6.9014924e-08 0.0000000e+00 
0.0000000e+00 -9.1905792e-07 0.0000000e+00 
0.0000000e+00 -1.3385742e-06 0.0000000e+00 
0.0000000e+00 -1.0654001e-06 0.0000000e+00 
0.0000000e+00 -2.5809669e-07 0.0000000e+00 
0.0000000e+00 6.8449197e-07 0.0000000e+00 
0.0000000e+00 1.2420696e-06 0.0000000e+00 
0.0000000e+00 1.0533738e-06 0.0000000e+00 
0.0000000e+00 2.0700914e-07 0.0000000e+00 
0.0000000e+00 -7.5024184e-07 0.0000000e+00 
0.0000000e+00 -1.1780551e-06 0.0000000e+00 
0.0000000e+00 -8.1143236e-07 0.0000000e+00 
0.0000000e+00 5.5262600e-08 0.0000000e+00 
0.0000000e+00 8.0906051e-07 0.0000000e+00 
0.0000000e+00 9.6690485e-07 0.0000000e+00 
0.0000000e+00 4.8334010e-07 0.0000000e+00 
0.0000000e+00 -2.7081941e-07 0.0000000e+00 
0.0000000e+00 -7.9013336e-07 0.0000000e+00 
0.0000000e+00 -7.6233124e-07 0.0000000e+00 
0.0000000e+00 -2.4583599e-07 0.0000000e+00 
0.0000000e+00 3.8475309e-07 0.0000000e+00 
0.0000000e+00 6.7288107e-07 0.0000000e+00 
0.0000000e+00 0.0000000e+00 0.0000000e+00 
0.0000000e+00 0.0000000e+00 0.0000000e+00 
0.0000000e+00 0.0000000e+00 0.0000000e+00 
0.0000000e+00 0.0000000e+00 0.0000000e+00 
0.0000000e+00 0.0000000e+00 0.0000000e+00 
0.0000000e+00 0.0000000e+00 0.0000000e+00 
0.0000000e+00 0.0000000e+00 0.0000000e+00 
0.0000000e+00 0.0000000e+00 0.0000000e+00 
0.0000000e+00 0.0000000e+00 0.0000000e+00 
0.0000000e+00 0.0000000e+00 0.0000000e+00 
0.0000000e+00 0.0000000e+00 0.0000000e+00 
0.0000000e+00 0.0000000e+00 0.0000000e+00 
0.0000000e+00 0.0000000e+00 0.0000000e+00 
0.0000000e+00 0.0000000e+00 0.0000000e+00 
0.0000000e+00 0.0000000e+00 0.0000000e+00 
0.0000000e+00 0.0000000e+00 0.0000000e+00 
0.0000000e+00 0.0000000e+00 0.0000000e+00 
0.0000000e+00 0.0000000e+00 0.0000000e+00 
0.0000000e+00 0.0000000e+00 0.0000000e+00 
0.0000000e+00 0.0000000e+00 0.0000000e+00 
0.0000000e+00 0.0000000e+00 0.0000000e+00 
0.0000000e+00 0.0000000e+00 0.0000000e+00 
0.0000000e+00 0.0000000e+00 0.0000000e+00 
0.0000000e+00 0.0000000e+00 0.0000000e+00 
0.0000000e+00 0.0000000e+00 0.0000000e+00 
0.0000000e+00 0.0000000e+00 0.0000000e+00 
0.0000000e+00 0.0000000e+00 0.0000000e+00 
0.0000000e+00 0.0000000e+00 0.0000000e+00 
0.0000000e+00 0.0000000e+00 0.0000000e+00 
0.0000000e+00 0.0000000e+00 0.0000000e+00 
0.0000000e+00 0.0000000e+00 0.0000000e+00 
0.0000000e+00 0.0000000e+00 0.0000000e+00 
0.0000000e+00 0.0000000e+00 0.0000000e+00 
0.0000000e+00 0.0000000e+00 0.0000000e+00 
0.0000000e+00 0.0000000e+00 0.0000000e+00 
0.0000000e+00 0.0000000e+00 0.0000000e+00 
0.0000000e+00 0.0000000e+00 0.0000000e+00 
0.0000000e+00 0.0000000e+00 0.0000000e+00 
0.0000000e+00 0.0000000e+00 0.0000000e+00 
0.0000000e+00 0.0000000e+00 0.0000000e+00 
0.0000000e+00 0.0000000e+00 0.0000000e+00 
0.0000000e+00 0.0000000e+00 0.0000000e+00 
0.0000000e+00 0.0000000e+00 0.0000000e+00 
0.0000000e+00 0.0000000e+00 0.0000000e+00 
0.0000000e+00 0.0000000e+00 0.0000000e+00 
0.0000000e+00 0.0000000e+00 0.0000000e+00 
0.0000000e+00 0.0000000e+00 0.0000000e+00 
0.0000000e+00 0.0000000e+00 0.0000000e+00 
0.0000000e+00 0.0000000e+00 0.0000000e+00 
0.0000000e+00 0.0000000e+00 0.0000000e+00 
0.0000000e+00 0.0000000e+00 0.0000000e+00 
0.0000000e+00 0.0000000e+00 0.0000000e+00 
0.0000000e+00 0.0000000e+00 0.0000000e+00 
0.0000000e+00 0.0000000e+00 0.0000000e+00 
0.0000000e+00 0.0000000e+00 0.0000000e+00 
0.0000000e+00 0.0000000e+00 0.0000000e+00 