# vtk DataFile Version 4.0
vtk output
ASCII
DATASET UNSTRUCTURED_GRID
POINTS 662 float
0.0000000e+00 0.0000000e+00 0.0000000e+00 
0.0000000e+00 0.0000000e+00 4.0000000e+01 
5.0000000e+00 0.0000000e+00 0.0000000e+00 
5.0000000e+00 0.0000000e+00 4.0000000e+01 
5.0000000e+00 1.0000000e+00 0.0000000e+00 
5.0000000e+00 1.0000000e+00 4.0000000e+01 
0.0000000e+00 1.0000000e+00 0.0000000e+00 
0.0000000e+00 1.0000000e+00 4.0000000e+01 
5.0000000e+00 2.0000000e+00 0.0000000e+00 
5.0000000e+00 2.0000000e+00 4.0000000e+01 
3.0000000e+00 2.0000000e+00 0.0000000e+00 
3.0000000e+00 2.0000000e+00 4.0000000e+01 
0.0000000e+00 2.0000000e+00 0.0000000e+00 
0.0000000e+00 2.0000000e+00 4.0000000e+01 
1.5000000e+00 3.0000000e+00 0.0000000e+00 
1.5000000e+00 3.0000000e+00 4.0000000e+01 
7.5000000e-01 3.0000000e+00 0.0000000e+00 
7.5000000e-01 3.0000000e+00 4.0000000e+01 
0.0000000e+00 3.0000000e+00 0.0000000e+00 
0.0000000e+00 3.0000000e+00 4.0000000e+01 
7.5000000e-01 3.0000000e+00 5.0000000e-01 
7.5000000e-01 3.0000000e+00 1.0000000e+00 
7.5000000e-01 3.0000000e+00 1.5000000e+00 
7.5000000e-01 3.0000000e+00 2.0000000e+00 
7.5000000e-01 3.0000000e+00 2.5000000e+00 
7.5000000e-01 3.0000000e+00 3.0000000e+00 
7.5000000e-01 3.0000000e+00 3.5000000e+00 
7.5000000e-01 3.0000000e+00 4.0000000e+00 
7.5000000e-01 3.0000000e+00 4.5000000e+00 
7.5000000e-01 3.0000000e+00 5.0000000e+00 
7.5000000e-01 3.0000000e+00 5.5000000e+00 
7.5000000e-01 3.0000000e+00 6.0000000e+00 
7.5000000e-01 3.0000000e+00 6.5000000e+00 
7.5000000e-01 3.0000000e+00 7.0000000e+00 
7.5000000e-01 3.0000000e+00 7.5000000e+00 
7.5000000e-01 3.0000000e+00 8.0000000e+00 
7.5000000e-01 3.0000000e+00 8.5000000e+00 
7.5000000e-01 3.0000000e+00 9.0000000e+00 
7.5000000e-01 3.0000000e+00 9.5000000e+00 
7.5000000e-01 3.0000000e+00 1.0000000e+01 
7.5000000e-01 3.0000000e+00 1.0500000e+01 
7.5000000e-01 3.0000000e+00 1.1000000e+01 
7.5000000e-01 3.0000000e+00 1.1500000e+01 
7.5000000e-01 3.0000000e+00 1.2000000e+01 
7.5000000e-01 3.0000000e+00 1.2500000e+01 
7.5000000e-01 3.0000000e+00 1.3000000e+01 
7.5000000e-01 3.0000000e+00 1.3500000e+01 
7.5000000e-01 3.0000000e+00 1.4000000e+01 
7.5000000e-01 3.0000000e+00 1.4500000e+01 
7.5000000e-01 3.0000000e+00 1.5000000e+01 
7.5000000e-01 3.0000000e+00 1.5500000e+01 
7.5000000e-01 3.0000000e+00 1.6000000e+01 
7.5000000e-01 3.0000000e+00 1.6500000e+01 
7.5000000e-01 3.0000000e+00 1.7000000e+01 
7.5000000e-01 3.0000000e+00 1.7500000e+01 
7.5000000e-01 3.0000000e+00 1.8000000e+01 
7.5000000e-01 3.0000000e+00 1.8500000e+01 
7.5000000e-01 3.0000000e+00 1.9000000e+01 
7.5000000e-01 3.0000000e+00 1.9500000e+01 
7.5000000e-01 3.0000000e+00 2.0000000e+01 
7.5000000e-01 3.0000000e+00 2.0500000e+01 
7.5000000e-01 3.0000000e+00 2.1000000e+01 
7.5000000e-01 3.0000000e+00 2.1500000e+01 
7.5000000e-01 3.0000000e+00 2.2000000e+01 
7.5000000e-01 3.0000000e+00 2.2500000e+01 
7.5000000e-01 3.0000000e+00 2.3000000e+01 
7.5000000e-01 3.0000000e+00 2.3500000e+01 
7.5000000e-01 3.0000000e+00 2.4000000e+01 
7.5000000e-01 3.0000000e+00 2.4500000e+01 
7.5000000e-01 3.0000000e+00 2.5000000e+01 
7.5000000e-01 3.0000000e+00 2.5500000e+01 
7.5000000e-01 3.0000000e+00 2.6000000e+01 
7.5000000e-01 3.0000000e+00 2.6500000e+01 
7.5000000e-01 3.0000000e+00 2.7000000e+01 
7.5000000e-01 3.0000000e+00 2.7500000e+01 
7.5000000e-01 3.0000000e+00 2.8000000e+01 
7.5000000e-01 3.0000000e+00 2.8500000e+01 
7.5000000e-01 3.0000000e+00 2.9000000e+01 
7.5000000e-01 3.0000000e+00 2.9500000e+01 
7.5000000e-01 3.0000000e+00 3.0000000e+01 
7.5000000e-01 3.0000000e+00 3.0500000e+01 
7.5000000e-01 3.0000000e+00 3.1000000e+01 
7.5000000e-01 3.0000000e+00 3.1500000e+01 
7.5000000e-01 3.0000000e+00 3.2000000e+01 
7.5000000e-01 3.0000000e+00 3.2500000e+01 
7.5000000e-01 3.0000000e+00 3.3000000e+01 
7.5000000e-01 3.0000000e+00 3.3500000e+01 
7.5000000e-01 3.0000000e+00 3.4000000e+01 
7.5000000e-01 3.0000000e+00 3.4500000e+01 
7.5000000e-01 3.0000000e+00 3.5000000e+01 
7.5000000e-01 3.0000000e+00 3.5500000e+01 
7.5000000e-01 3.0000000e+00 3.6000000e+01 
7.5000000e-01 3.0000000e+00 3.6500000e+01 
7.5000000e-01 3.0000000e+00 3.7000000e+01 
7.5000000e-01 3.0000000e+00 3.7500000e+01 
7.5000000e-01 3.0000000e+00 3.8000000e+01 
7.5000000e-01 3.0000000e+00 3.8500000e+01 
7.5000000e-01 3.0000000e+00 3.9000000e+01 
7.5000000e-01 3.0000000e+00 3.9500000e+01 
7.5000000e-01 3.0000000e+00 4.0500000e+01 
7.5000000e-01 3.0000000e+00 4.1000000e+01 
7.5000000e-01 3.0000000e+00 4.1500000e+01 
7.5000000e-01 3.0000000e+00 4.2000000e+01 
7.5000000e-01 3.0000000e+00 4.2500000e+01 
7.5000000e-01 3.0000000e+00 4.3000000e+01 
7.5000000e-01 3.0000000e+00 4.3500000e+01 
7.5000000e-01 3.0000000e+00 4.4000000e+01 
7.5000000e-01 3.0000000e+00 4.4500000e+01 
7.5000000e-01 3.0000000e+00 4.5000000e+01 
7.5000000e-01 3.0000000e+00 4.5500000e+01 
7.5000000e-01 3.0000000e+00 4.6000000e+01 
7.5000000e-01 3.0000000e+00 4.6500000e+01 
7.5000000e-01 3.0000000e+00 4.7000000e+01 
7.5000000e-01 3.0000000e+00 4.7500000e+01 
7.5000000e-01 3.0000000e+00 4.8000000e+01 
7.5000000e-01 3.0000000e+00 4.8500000e+01 
7.5000000e-01 3.0000000e+00 4.9000000e+01 
7.5000000e-01 3.0000000e+00 4.9500000e+01 
7.5000000e-01 3.0000000e+00 5.0000000e+01 
7.5000000e-01 3.0250001e+00 0.0000000e+00 
7.5000000e-01 3.0250001e+00 5.0000000e-01 
7.5000000e-01 3.0250001e+00 1.0000000e+00 
7.5000000e-01 3.0250001e+00 1.5000000e+00 
7.5000000e-01 3.0250001e+00 2.0000000e+00 
7.5000000e-01 3.0250001e+00 2.5000000e+00 
7.5000000e-01 3.0250001e+00 3.0000000e+00 
7.5000000e-01 3.0250001e+00 3.5000000e+00 
7.5000000e-01 3.0250001e+00 4.0000000e+00 
7.5000000e-01 3.0250001e+00 4.5000000e+00 
7.5000000e-01 3.0250001e+00 5.0000000e+00 
7.5000000e-01 3.0250001e+00 5.5000000e+00 
7.5000000e-01 3.0250001e+00 6.0000000e+00 
7.5000000e-01 3.0250001e+00 6.5000000e+00 
7.5000000e-01 3.0250001e+00 7.0000000e+00 
7.5000000e-01 3.0250001e+00 7.5000000e+00 
7.5000000e-01 3.0250001e+00 8.0000000e+00 
7.5000000e-01 3.0250001e+00 8.5000000e+00 
7.5000000e-01 3.0250001e+00 9.0000000e+00 
7.5000000e-01 3.0250001e+00 9.5000000e+00 
7.5000000e-01 3.0250001e+00 1.0000000e+01 
7.5000000e-01 3.0250001e+00 1.0500000e+01 
7.5000000e-01 3.0250001e+00 1.1000000e+01 
7.5000000e-01 3.0250001e+00 1.1500000e+01 
7.5000000e-01 3.0250001e+00 1.2000000e+01 
7.5000000e-01 3.0250001e+00 1.2500000e+01 
7.5000000e-01 3.0250001e+00 1.3000000e+01 
7.5000000e-01 3.0250001e+00 1.3500000e+01 
7.5000000e-01 3.0250001e+00 1.4000000e+01 
7.5000000e-01 3.0250001e+00 1.4500000e+01 
7.5000000e-01 3.0250001e+00 1.5000000e+01 
7.5000000e-01 3.0250001e+00 1.5500000e+01 
7.5000000e-01 3.0250001e+00 1.6000000e+01 
7.5000000e-01 3.0250001e+00 1.6500000e+01 
7.5000000e-01 3.0250001e+00 1.7000000e+01 
7.5000000e-01 3.0250001e+00 1.7500000e+01 
7.5000000e-01 3.0250001e+00 1.8000000e+01 
7.5000000e-01 3.0250001e+00 1.8500000e+01 
7.5000000e-01 3.0250001e+00 1.9000000e+01 
7.5000000e-01 3.0250001e+00 1.9500000e+01 
7.5000000e-01 3.0250001e+00 2.0000000e+01 
7.5000000e-01 3.0250001e+00 2.0500000e+01 
7.5000000e-01 3.0250001e+00 2.1000000e+01 
7.5000000e-01 3.0250001e+00 2.1500000e+01 
7.5000000e-01 3.0250001e+00 2.2000000e+01 
7.5000000e-01 3.0250001e+00 2.2500000e+01 
7.5000000e-01 3.0250001e+00 2.3000000e+01 
7.5000000e-01 3.0250001e+00 2.3500000e+01 
7.5000000e-01 3.0250001e+00 2.4000000e+01 
7.5000000e-01 3.0250001e+00 2.4500000e+01 
7.5000000e-01 3.0250001e+00 2.5000000e+01 
7.5000000e-01 3.0250001e+00 2.5500000e+01 
7.5000000e-01 3.0250001e+00 2.6000000e+01 
7.5000000e-01 3.0250001e+00 2.6500000e+01 
7.5000000e-01 3.0250001e+00 2.7000000e+01 
7.5000000e-01 3.0250001e+00 2.7500000e+01 
7.5000000e-01 3.0250001e+00 2.8000000e+01 
7.5000000e-01 3.0250001e+00 2.8500000e+01 
7.5000000e-01 3.0250001e+00 2.9000000e+01 
7.5000000e-01 3.0250001e+00 2.9500000e+01 
7.5000000e-01 3.0250001e+00 3.0000000e+01 
7.5000000e-01 3.0250001e+00 3.0500000e+01 
7.5000000e-01 3.0250001e+00 3.1000000e+01 
7.5000000e-01 3.0250001e+00 3.1500000e+01 
7.5000000e-01 3.0250001e+00 3.2000000e+01 
7.5000000e-01 3.0250001e+00 3.2500000e+01 
7.5000000e-01 3.0250001e+00 3.3000000e+01 
7.5000000e-01 3.0250001e+00 3.3500000e+01 
7.5000000e-01 3.0250001e+00 3.4000000e+01 
7.5000000e-01 3.0250001e+00 3.4500000e+01 
7.5000000e-01 3.0250001e+00 3.5000000e+01 
7.5000000e-01 3.0250001e+00 3.5500000e+01 
7.5000000e-01 3.0250001e+00 3.6000000e+01 
7.5000000e-01 3.0250001e+00 3.6500000e+01 
7.5000000e-01 3.0250001e+00 3.7000000e+01 
7.5000000e-01 3.0250001e+00 3.7500000e+01 
7.5000000e-01 3.0250001e+00 3.8000000e+01 
7.5000000e-01 3.0250001e+00 3.8500000e+01 
7.5000000e-01 3.0250001e+00 3.9000000e+01 
7.5000000e-01 3.0250001e+00 3.9500000e+01 
7.5000000e-01 3.0250001e+00 4.0000000e+01 
7.5000000e-01 3.0250001e+00 4.0500000e+01 
7.5000000e-01 3.0250001e+00 4.1000000e+01 
7.5000000e-01 3.0250001e+00 4.1500000e+01 
7.5000000e-01 3.0250001e+00 4.2000000e+01 
7.5000000e-01 3.0250001e+00 4.2500000e+01 
7.5000000e-01 3.0250001e+00 4.3000000e+01 
7.5000000e-01 3.0250001e+00 4.3500000e+01 
7.5000000e-01 3.0250001e+00 4.4000000e+01 
7.5000000e-01 3.0250001e+00 4.4500000e+01 
7.5000000e-01 3.0250001e+00 4.5000000e+01 
7.5000000e-01 3.0250001e+00 4.5500000e+01 
7.5000000e-01 3.0250001e+00 4.6000000e+01 
7.5000000e-01 3.0250001e+00 4.6500000e+01 
7.5000000e-01 3.0250001e+00 4.7000000e+01 
7.5000000e-01 3.0250001e+00 4.7500000e+01 
7.5000000e-01 3.0250001e+00 4.8000000e+01 
7.5000000e-01 3.0250001e+00 4.8500000e+01 
7.5000000e-01 3.0250001e+00 4.9000000e+01 
7.5000000e-01 3.0250001e+00 4.9500000e+01 
7.5000000e-01 3.0250001e+00 5.0000000e+01 
7.5000000e-01 3.0250001e+00 3.5750000e+01 
3.0000000e+00 2.0000000e+00 3.6000000e+01 
8.0487806e-01 3.0000000e+00 3.6000000e+01 
0.0000000e+00 0.0000000e+00 2.0000000e+00 
0.0000000e+00 0.0000000e+00 4.0000000e+00 
0.0000000e+00 0.0000000e+00 6.0000000e+00 
0.0000000e+00 0.0000000e+00 8.0000000e+00 
0.0000000e+00 0.0000000e+00 1.0000000e+01 
0.0000000e+00 0.0000000e+00 1.2000000e+01 
0.0000000e+00 0.0000000e+00 1.4000000e+01 
[...]
POINT_DATA 662
FIELD FieldData 3
DISPLACEMENT 3 662  float
0.0000000e+00 0.0000000e+00 0.0000000e+00 
0.0000000e+00 0.0000000e+00 0.0000000e+00 
0.0000000e+00 0.0000000e+00 0.0000000e+00 
0.0000000e+00 0.0000000e+00 0.0000000e+00 
6.6895273e-06 -4.8866232e-06 -1.9998004e-07 
9.1564054e-08 -3.0163519e-06 -2.4523795e-06 
0.0000000e+00 -7.0610286e-06 0.0000000e+00 
0.0000000e+00 2.9523058e-05 0.0000000e+00 
8.7912958e-06 -6.9144967e-06 -4.4971025e-06 
1.4662673e-06 -7.7183677e-06 5.2815985e-06 
1.2140148e-06 -7.4299278e-06 -1.0002245e-05 
-2.6881155e-06 4.5563218e-07 3.8444355e-06 
0.0000000e+00 -9.6515705e-06 0.0000000e+00 
0.0000000e+00 5.7515121e-05 0.0000000e+00 
-4.9723226e-06 -8.5593601e-06 -1.1038819e-05 
2.2823362e-05 4.4804001e-05 1.8787950e-05 
1.6433278e-05 1.7246759e-05 3.6834763e-06 
2.0925250e-05 8.3949199e-05 2.2039920e-05 
0.0000000e+00 -1.6755177e-05 0.0000000e+00 
0.0000000e+00 8.2290942e-05 0.0000000e+00 
-1.2398869e-05 1.8453513e-05 -1.7756496e-05 
-1.7383431e-05 2.1288977e-05 -2.3685803e-05 
-1.8445799e-05 2.4018756e-05 -2.8352917e-05 
-1.5632391e-05 2.6293343e-05 -3.4310779e-05 
-8.6661639e-06 2.9123266e-05 -3.7990725e-05 
-4.7811868e-06 3.3705652e-05 -3.9976225e-05 
5.5047399e-06 4.1857391e-05 -5.3158456e-05 
1.7674216e-05 5.5636010e-05 -6.2847568e-05 
2.4928291e-05 7.6361299e-05 -5.7680536e-05 
3.0929175e-05 1.0240980e-04 -4.5607430e-05 
3.5952395e-05 1.3212560e-04 -3.6827601e-05 
4.6247264e-05 1.6408872e-04 -2.4229512e-05 
5.9253893e-05 1.9571252e-04 -1.0911711e-05 
6.3976979e-05 2.1980146e-04 7.6437827e-06 
5.0287592e-05 2.2346240e-04 3.6977362e-05 
2.8097926e-05 1.7807097e-04 6.8637914e-05 
-1.5213756e-05 4.1863361e-05 1.1013964e-04 
-2.6644933e-05 -2.2627153e-04 1.5005954e-04 
-5.4362637e-05 -6.8982696e-04 2.0868638e-04 
-1.1346958e-04 -1.3924319e-03 1.6415385e-04 
-2.6774392e-04 -2.3541122e-03 2.4820754e-04 
-2.8150147e-04 -3.3947348e-03 2.2668838e-04 
-1.8037179e-04 -4.2062332e-03 1.6611863e-04 
-1.5634179e-04 -4.2312588e-03 1.7052083e-04 
-2.9148476e-04 -4.0362226e-03 8.6193722e-05 
-3.5960416e-04 -3.9913584e-03 5.1366354e-05 
-2.4794345e-04 -4.2088847e-03 6.5815902e-06 
-9.5944350e-05 -4.2058947e-03 -4.2048730e-05 
-1.2185445e-04 -3.5106409e-03 -1.4309761e-04 
-2.1299956e-04 -2.4899114e-03 -1.7673495e-04 
-2.0379973e-04 -1.5905614e-03 -1.8160761e-04 
-7.9995145e-05 -8.9412578e-04 -1.3250197e-04 
-4.1837902e-05 -4.3638944e-04 -1.7257720e-04 
-2.7343149e-05 -1.5941700e-04 -1.4480630e-04 
-1.7444814e-05 -8.2786810e-06 -1.2626646e-04 
6.3136749e-06 6.3065207e-05 -1.0194364e-04 
2.0559144e-05 8.3166589e-05 -6.7862937e-05 
2.7193862e-05 7.6785138e-05 -3.7757603e-05 
1.8998260e-05 6.0633389e-05 -2.9857616e-05 
1.0345319e-05 4.2672287e-05 -3.2852509e-05 
2.0454440e-06 2.7260616e-05 -3.8376133e-05 
2.3050646e-07 1.2264177e-05 -3.8947815e-05 
-6.8547301e-06 -5.1638822e-06 -2.7598073e-05 
-1.7953538e-05 -2.4073213e-05 -9.1277707e-06 
-1.7632436e-05 -4.1855419e-05 9.4937204e-06 
-1.7792656e-05 -5.3260021e-05 1.9083873e-05 
-1.4860952e-05 -5.2633284e-05 2.0623567e-05 
-9.3345752e-06 -3.6722926e-05 1.6337972e-05 
4.0108944e-06 -2.7918361e-06 -6.3895163e-06 
9.2085502e-06 4.4149434e-05 -2.8914639e-05 
2.6262232e-05 9.8692355e-05 -5.4370321e-05 
4.7331123e-05 1.5303522e-04 -7.0962713e-05 
5.6796500e-05 2.0022201e-04 -6.3641615e-05 
6.4930682e-05 2.3115797e-04 -3.9585695e-05 
5.2114206e-05 2.3257828e-04 -8.1635744e-06 
3.1556341e-05 1.7767941e-04 3.0392694e-05 
-1.0528803e-05 2.2947088e-05 8.8708555e-05 
-2.0354495e-05 -2.7341745e-04 1.4204916e-04 
-4.4810949e-05 -7.7539025e-04 2.0248596e-04 
-1.0658836e-04 -1.5176326e-03 1.5097384e-04 
-2.5933667e-04 -2.5035087e-03 2.3259310e-04 
-2.7386411e-04 -3.5154396e-03 2.0055581e-04 
-1.7308467e-04 -4.1881530e-03 1.3330567e-04 
-1.3189827e-04 -4.1190377e-03 1.3995658e-04 
-2.7061292e-04 -3.9671636e-03 6.5418324e-05 
-3.2927460e-04 -4.0115719e-03 4.2221654e-05 
-2.1576526e-04 -4.2798412e-03 2.2423988e-06 
-7.9616497e-05 -4.1786027e-03 -1.9035222e-05 
-1.1953682e-04 -3.3624065e-03 -1.4433292e-04 
-2.2025089e-04 -2.3065531e-03 -1.8647744e-04 
-2.2102162e-04 -1.4054226e-03 -1.9991363e-04 
-1.3170477e-04 -7.2386104e-04 -1.7498255e-04 
-5.4927670e-05 -2.8476436e-04 -1.7245342e-04 
-3.2078846e-05 -2.5048932e-05 -1.4395728e-04 
-2.3435006e-05 1.1378319e-04 -1.2948707e-04 
2.3800505e-06 1.7412993e-04 -1.0977538e-04 
1.8212226e-05 1.8428086e-04 -7.4763026e-05 
3.1550288e-05 1.6484204e-04 -4.1677940e-05 
2.7667864e-05 1.3026485e-04 -2.2340389e-05 
0.0000000e+00 3.2536231e-05 0.0000000e+00 
0.0000000e+00 -1.8973684e-05 0.0000000e+00 
0.0000000e+00 -6.4383086e-05 0.0000000e+00 
0.0000000e+00 -9.7586380e-05 0.0000000e+00 
0.0000000e+00 -1.1393655e-04 0.0000000e+00 
0.0000000e+00 -1.1160303e-04 0.0000000e+00 
0.0000000e+00 -9.2057649e-05 0.0000000e+00 
0.0000000e+00 -5.9595262e-05 0.0000000e+00 
0.0000000e+00 -2.0343125e-05 0.0000000e+00 
0.0000000e+00 1.8816041e-05 0.0000000e+00 
0.0000000e+00 5.1322077e-05 0.0000000e+00 
0.0000000e+00 7.2039686e-05 0.0000000e+00 
0.0000000e+00 7.8186698e-05 0.0000000e+00 
0.0000000e+00 6.9732305e-05 0.0000000e+00 
0.0000000e+00 4.9121685e-05 0.0000000e+00 
0.0000000e+00 2.0575542e-05 0.0000000e+00 
0.0000000e+00 -1.0647585e-05 0.0000000e+00 
0.0000000e+00 -3.8883169e-05 0.0000000e+00 
0.0000000e+00 -5.8744838e-05 0.0000000e+00 
0.0000000e+00 -6.5994551e-05 0.0000000e+00 
0.0000000e+00 1.7337787e-05 0.0000000e+00 
0.0000000e+00 1.8520332e-05 0.0000000e+00 
0.0000000e+00 2.1219321e-05 0.0000000e+00 
0.0000000e+00 2.3935498e-05 0.0000000e+00 
0.0000000e+00 2.6267824e-05 0.0000000e+00 
0.0000000e+00 2.9085268e-05 0.0000000e+00 
0.0000000e+00 3.3694079e-05 0.0000000e+00 
0.0000000e+00 4.1907933e-05 0.0000000e+00 
0.0000000e+00 5.5794171e-05 0.0000000e+00 
0.0000000e+00 7.6373348e-05 0.0000000e+00 
0.0000000e+00 1.0240636e-04 0.0000000e+00 
0.0000000e+00 1.3219356e-04 0.0000000e+00 
0.0000000e+00 1.6432174e-04 0.0000000e+00 
0.0000000e+00 1.9604985e-04 0.0000000e+00 
0.0000000e+00 2.2072332e-04 0.0000000e+00 
0.0000000e+00 2.2419995e-04 0.0000000e+00 
0.0000000e+00 1.7815722e-04 0.0000000e+00 
0.0000000e+00 4.3072538e-05 0.0000000e+00 
0.0000000e+00 -2.2693540e-04 0.0000000e+00 
0.0000000e+00 -6.9130317e-04 0.0000000e+00 
0.0000000e+00 -1.4020214e-03 0.0000000e+00 
0.0000000e+00 -2.3618594e-03 0.0000000e+00 
0.0000000e+00 -3.4272841e-03 0.0000000e+00 
0.0000000e+00 -4.2306455e-03 0.0000000e+00 
0.0000000e+00 -4.2620110e-03 0.0000000e+00 
0.0000000e+00 -4.0501305e-03 0.0000000e+00 
0.0000000e+00 -4.0213149e-03 0.0000000e+00 
0.0000000e+00 -4.2281686e-03 0.0000000e+00 
0.0000000e+00 -4.2392449e-03 0.0000000e+00 
0.0000000e+00 -3.5282073e-03 0.0000000e+00 
0.0000000e+00 -2.5076312e-03 0.0000000e+00 
0.0000000e+00 -1.5927168e-03 0.0000000e+00 
0.0000000e+00 -8.9815183e-04 0.0000000e+00 
0.0000000e+00 -4.3623129e-04 0.0000000e+00 
0.0000000e+00 -1.5864063e-04 0.0000000e+00 
0.0000000e+00 -7.3174538e-06 0.0000000e+00 
0.0000000e+00 6.3272091e-05 0.0000000e+00 
0.0000000e+00 8.3581246e-05 0.0000000e+00 
0.0000000e+00 7.7272198e-05 0.0000000e+00 
0.0000000e+00 6.0830065e-05 0.0000000e+00 
0.0000000e+00 4.2966010e-05 0.0000000e+00 
0.0000000e+00 2.7279410e-05 0.0000000e+00 
0.0000000e+00 1.2061982e-05 0.0000000e+00 
0.0000000e+00 -5.2344358e-06 0.0000000e+00 
0.0000000e+00 -2.4179606e-05 0.0000000e+00 
0.0000000e+00 -4.1880667e-05 0.0000000e+00 
0.0000000e+00 -5.3154337e-05 0.0000000e+00 
0.0000000e+00 -5.2611653e-05 0.0000000e+00 
0.0000000e+00 -3.6354540e-05 0.0000000e+00 
0.0000000e+00 -2.7667663e-06 0.0000000e+00 
0.0000000e+00 4.4260840e-05 0.0000000e+00 
0.0000000e+00 9.8665012e-05 0.0000000e+00 
0.0000000e+00 1.5313074e-04 0.0000000e+00 
0.0000000e+00 2.0046253e-04 0.0000000e+00 
0.0000000e+00 2.3193764e-04 0.0000000e+00 
0.0000000e+00 2.3349724e-04 0.0000000e+00 
0.0000000e+00 1.7779847e-04 0.0000000e+00 
0.0000000e+00 2.4176294e-05 0.0000000e+00 
0.0000000e+00 -2.7456190e-04 0.0000000e+00 
0.0000000e+00 -7.7733287e-04 0.0000000e+00 
0.0000000e+00 -1.5283070e-03 0.0000000e+00 
0.0000000e+00 -2.5126038e-03 0.0000000e+00 
0.0000000e+00 -3.5505407e-03 0.0000000e+00 
0.0000000e+00 -4.2122630e-03 0.0000000e+00 
0.0000000e+00 -4.1486821e-03 0.0000000e+00 
0.0000000e+00 -3.9806981e-03 0.0000000e+00 
0.0000000e+00 -4.0432424e-03 0.0000000e+00 
0.0000000e+00 -4.3012449e-03 0.0000000e+00 
0.0000000e+00 -4.2124726e-03 0.0000000e+00 
0.0000000e+00 -3.3786783e-03 0.0000000e+00 
0.0000000e+00 -2.3227024e-03 0.0000000e+00 
0.0000000e+00 -1.4070488e-03 0.0000000e+00 
0.0000000e+00 -7.2720385e-04 0.0000000e+00 
0.0000000e+00 -2.8478893e-04 0.0000000e+00 
0.0000000e+00 -2.3955661e-05 0.0000000e+00 
0.0000000e+00 1.1458344e-04 0.0000000e+00 
0.0000000e+00 1.7452406e-04 0.0000000e+00 
0.0000000e+00 1.8465947e-04 0.0000000e+00 
0.0000000e+00 1.6544350e-04 0.0000000e+00 
0.0000000e+00 1.3012097e-04 0.0000000e+00 
0.0000000e+00 8.4013365e-05 0.0000000e+00 
0.0000000e+00 3.2489294e-05 0.0000000e+00 
0.0000000e+00 -1.8970655e-05 0.0000000e+00 
0.0000000e+00 -6.4311273e-05 0.0000000e+00 
0.0000000e+00 -9.7460681e-05 0.0000000e+00 
0.0000000e+00 -1.1379597e-04 0.0000000e+00 
0.0000000e+00 -1.1148372e-04 0.0000000e+00 
0.0000000e+00 -9.1978625e-05 0.0000000e+00 
0.0000000e+00 -5.9564110e-05 0.0000000e+00 
0.0000000e+00 -2.0364525e-05 0.0000000e+00 
0.0000000e+00 1.8743443e-05 0.0000000e+00 
0.0000000e+00 5.1213854e-05 0.0000000e+00 
0.0000000e+00 7.1923583e-05 0.0000000e+00 
0.0000000e+00 7.8088487e-05 0.0000000e+00 
0.0000000e+00 6.9663460e-05 0.0000000e+00 
0.0000000e+00 4.9080922e-05 0.0000000e+00 
0.0000000e+00 2.0560430e-05 0.0000000e+00 
0.0000000e+00 -1.0632988e-05 0.0000000e+00 
0.0000000e+00 -3.8832815e-05 0.0000000e+00 
0.0000000e+00 -5.8661957e-05 0.0000000e+00 
0.0000000e+00 -6.5897875e-05 0.0000000e+00 
0.0000000e+00 -1.0341582e-03 0.0000000e+00 
2.3539209e-05 -4.4813227e-05 -4.0580814e-09 
-1.0862032e-04 -6.5230700e-04 -1.5137900e-04 
0.0000000e+00 0.0000000e+00 0.0000000e+00 
0.0000000e+00 0.0000000e+00 0.0000000e+00 
0.0000000e+00 0.0000000e+00 0.0000000e+00 
0.0000000e+00 0.0000000e+00 0.0000000e+00 
0.0000000e+00 0.0000000e+00 0.0000000e+00 
0.0000000e+00 0.0000000e+00 0.0000000e+00 
0.0000000e+00 0.0000000e+00 0.0000000e+00 
0.0000000e+00 0.0000000e+00 0.0000000e+00 
0.0000000e+00 0.0000000e+00 0.0000000e+00 
0.0000000e+00 0.0000000e+00 0.0000000e+00 
0.0000000e+00 0.0000000e+00 0.0000000e+00 
0.0000000e+00 0.0000000e+00 0.0000000e+00 
0.0000000e+00 0.0000000e+00 0.0000000e+00 
0.0000000e+00 0.0000000e+00 0.0000000e+00 
0.0000000e+00 0.0000000e+00 0.0000000e+00 
0.0000000e+00 0.0000000e+00 0.0000000e+00 
0.0000000e+00 0.0000000e+00 0.0000000e+00 
0.0000000e+00 0.0000000e+00 0.0000000e+00 
0.0000000e+00 0.0000000e+00 0.0000000e+00 
0.0000000e+00 0.0000000e+00 0.0000000e+00 
0.0000000e+00 0.0000000e+00 0.0000000e+00 
0.0000000e+00 0.0000000e+00 0.0000000e+00 
0.0000000e+00 0.0000000e+00 0.0000000e+00 
0.0000000e+00 0.0000000e+00 0.0000000e+00 
0.0000000e+00 0.0000000e+00 0.0000000e+00 
0.0000000e+00 0.0000000e+00 0.0000000e+00 
0.0000000e+00 0.0000000e+00 0.0000000e+00 
0.0000000e+00 0.0000000e+00 0.0000000e+00 
0.0000000e+00 0.0000000e+00 0.0000000e+00 
0.0000000e+00 0.0000000e+00 0.0000000e+00 
0.0000000e+00 0.0000000e+00 0.0000000e+00 
0.0000000e+00 0.0000000e+00 0.0000000e+00 
0.0000000e+00 0.0000000e+00 0.0000000e+00 
0.0000000e+00 0.0000000e+00 0.0000000e+00 
0.0000000e+00 0.0000000e+00 0.0000000e+00 
0.0000000e+00 0.0000000e+00 0.0000000e+00 
0.0000000e+00 0.0000000e+00 0.0000000e+00 
0.0000000e+00 0.0000000e+00 0.0000000e+00 
0.0000000e+00 0.0000000e+00 0.0000000e+00 
0.0000000e+00 0.0000000e+00 0.0000000e+00 
0.0000000e+00 0.0000000e+00 0.0000000e+00 
0.0000000e+00 0.0000000e+00 0.0000000e+00 
-1.1867633e-06 1.3426690e-07 -6.6562836e-07 
-6.2733211e-06 3.1606268e-07 -4.4277635e-06 
-2.2180220e-06 3.1910693e-07 -9.7641259e-06 
8.1647531e-06 -1.1124545e-06 -9.0316098e-06 
3.0908101e-05 -5.2156165e-06 -1.1044314e-05 
5.2103318e-05 -6.3412003e-06 -8.5839545e-08 
4.5954759e-05 -5.5409459e-06 1.1979735e-05 
2.2904085e-05 -4.6632040e-06 7.5303124e-06 
8.8059251e-06 -1.3681646e-06 2.5712063e-06 
3.3787660e-06 -5.4285103e-08 1.8815375e-06 
-1.4398322e-06 -4.3937516e-06 4.4251392e-06 
-5.5068440e-06 -2.2435522e-06 1.3449837e-06 
-5.9512995e-06 4.3012433e-06 -1.0774796e-06 
5.8369719e-06 -7.6785420e-07 -8.0065629e-06 
3.2506807e-05 -9.6616413e-06 -1.0884940e-05 
5.4691816e-05 -9.9031786e-06 7.9458965e-07 
5.6585443e-05 -1.1180788e-05 1.3558426e-05 
2.2140777e-05 -7.2803737e-06 1.2987830e-05 
-5.7102925e-06 5.8438627e-06 -2.3342430e-07 
0.0000000e+00 1.2898267e-05 0.0000000e+00 
0.0000000e+00 2.1440135e-05 0.0000000e+00 
0.0000000e+00 5.7359735e-05 0.0000000e+00 
0.0000000e+00 3.7796832e-05 0.0000000e+00 
0.0000000e+00 -2.0052204e-04 0.0000000e+00 
0.0000000e+00 -5.7566050e-04 0.0000000e+00 
0.0000000e+00 -5.4286176e-04 0.0000000e+00 
0.0000000e+00 -1.8446903e-04 0.0000000e+00 
0.0000000e+00 5.9175381e-06 0.0000000e+00 
0.0000000e+00 7.5225598e-06 0.0000000e+00 
0.0000000e+00 -6.8046334e-06 0.0000000e+00 
0.0000000e+00 -1.6425085e-05 0.0000000e+00 
0.0000000e+00 5.5375469e-05 0.0000000e+00 
0.0000000e+00 4.0387327e-05 0.0000000e+00 
0.0000000e+00 -2.0905877e-04 0.0000000e+00 
0.0000000e+00 -5.5963383e-04 0.0000000e+00 
0.0000000e+00 -5.3707178e-04 0.0000000e+00 
0.0000000e+00 -1.6363172e-04 0.0000000e+00 
0.0000000e+00 4.0603984e-05 0.0000000e+00 
2.2098477e-06 -3.9652919e-06 -5.3455028e-06 
1.3834300e-06 -8.8642846e-06 -6.9877619e-06 
-3.2457101e-06 -1.6501289e-06 2.3254497e-06 
-8.2293100e-06 1.8125995e-05 -1.0688917e-05 
-1.2130806e-08 -9.1009485e-07 -2.1402741e-06 
-4.8333059e-06 6.5075369e-07 -6.1513083e-06 
2.0211880e-06 2.4772959e-07 -1.4387213e-05 
2.2566170e-05 -3.5834021e-06 -1.4886212e-05 
3.2899443e-05 -3.9411261e-06 -6.0674586e-07 
3.1860734e-05 -3.8580056e-06 6.5638942e-06 
1.7895003e-05 -9.3043775e-07 1.3115268e-05 
6.9839116e-06 -1.3082561e-07 -2.4119029e-07 
9.5696214e-06 -8.9122119e-07 -1.6064561e-06 
4.2887809e-06 -1.8072458e-06 3.8759008e-06 
-1.6036635e-06 -8.1215894e-06 6.6907105e-06 
-5.8741766e-06 -2.9849275e-06 -2.9334192e-06 
-1.5392842e-06 5.3946337e-06 -7.1878708e-06 
2.3054863e-05 -2.0699554e-06 -7.8044422e-06 
3.5530222e-05 -9.3103126e-06 -4.5501943e-07 
3.9721275e-05 -8.4012072e-06 7.0112933e-06 
3.1475953e-05 -8.2745528e-06 1.6561564e-05 
9.6421354e-06 -1.2777354e-06 -2.9512204e-08 
-5.4111370e-06 5.0074445e-06 -2.0990171e-06 
-3.0925082e-07 -9.7610491e-06 -1.0531292e-05 
0.0000000e+00 2.4410057e-05 0.0000000e+00 
0.0000000e+00 3.5261121e-05 0.0000000e+00 
0.0000000e+00 9.7888682e-05 0.0000000e+00 
0.0000000e+00 8.4319603e-05 0.0000000e+00 
0.0000000e+00 -4.2659009e-04 0.0000000e+00 
0.0000000e+00 -1.2649628e-03 0.0000000e+00 
0.0000000e+00 -1.1917839e-03 0.0000000e+00 
0.0000000e+00 -3.4678399e-04 0.0000000e+00 
0.0000000e+00 2.5331103e-05 0.0000000e+00 
0.0000000e+00 1.1848790e-05 0.0000000e+00 
0.0000000e+00 -9.7580769e-06 0.0000000e+00 
0.0000000e+00 -3.3045933e-05 0.0000000e+00 
0.0000000e+00 1.0564764e-04 0.0000000e+00 
0.0000000e+00 8.5782238e-05 0.0000000e+00 
0.0000000e+00 -4.5706567e-04 0.0000000e+00 
0.0000000e+00 -1.2348130e-03 0.0000000e+00 
0.0000000e+00 -1.1613957e-03 0.0000000e+00 
0.0000000e+00 -2.9698649e-04 0.0000000e+00 
0.0000000e+00 8.9430308e-05 0.0000000e+00 
-1.7071472e-06 3.6937523e-05 -1.7559987e-05 
-1.3637528e-05 1.9696063e-05 -2.2555098e-05 
1.8258510e-05 2.9017443e-05 -8.7609740e-05 
7.1530128e-05 9.4465817e-05 -3.2240234e-05 
5.5272012e-05 1.4895979e-04 1.1178324e-04 
-2.6933171e-04 -4.0386713e-04 3.7749027e-04 
-7.1670802e-04 -1.4117456e-03 1.8606934e-04 
-6.3461199e-04 -1.4781445e-03 -1.1268308e-04 
-1.6211875e-04 -3.0057985e-04 -2.6155362e-04 
1.6698665e-05 3.6350608e-05 -1.2501786e-04 
1.5456886e-05 2.1988391e-05 -2.6223910e-05 
-2.4374080e-05 -2.4331510e-05 1.2457023e-05 
-1.3621512e-05 -3.2854961e-05 -1.2112976e-06 
7.4497075e-05 7.3595154e-05 -9.7227050e-05 
5.7544345e-05 1.6193948e-04 7.9648045e-05 
-2.8136204e-04 -4.4119172e-04 3.6643806e-04 
-6.7349506e-04 -1.3388082e-03 1.3819674e-04 
-6.2293292e-04 -1.4432154e-03 -9.1423710e-05 
-1.4134902e-04 -2.9818277e-04 -2.4459095e-04 
1.2629580e-05 1.0140452e-04 -1.4229164e-04 
0.0000000e+00 3.8761882e-05 0.0000000e+00 
0.0000000e+00 4.2149648e-05 0.0000000e+00 
0.0000000e+00 1.3876798e-04 0.0000000e+00 
0.0000000e+00 1.7037819e-04 0.0000000e+00 
0.0000000e+00 -8.1180374e-04 0.0000000e+00 
0.0000000e+00 -2.4331335e-03 0.0000000e+00 
0.0000000e+00 -2.2342636e-03 0.0000000e+00 
0.0000000e+00 -5.7530095e-04 0.0000000e+00 
0.0000000e+00 6.8192676e-05 0.0000000e+00 
0.0000000e+00 1.9774772e-05 0.0000000e+00 
0.0000000e+00 -1.2348069e-05 0.0000000e+00 
0.0000000e+00 -5.5664870e-05 0.0000000e+00 
0.0000000e+00 1.5447922e-04 0.0000000e+00 
0.0000000e+00 1.6477665e-04 0.0000000e+00 
0.0000000e+00 -8.9394511e-04 0.0000000e+00 
0.0000000e+00 -2.3977344e-03 0.0000000e+00 
0.0000000e+00 -2.1902185e-03 0.0000000e+00 
0.0000000e+00 -4.5737624e-04 0.0000000e+00 
0.0000000e+00 1.6087382e-04 0.0000000e+00 
-6.7288343e-06 1.5772041e-06 -8.2956931e-06 
-3.6490442e-06 7.4771965e-06 -1.8577035e-05 
1.1343469e-05 2.4074694e-05 -6.4905898e-06 
2.5811989e-05 5.2449748e-05 2.1669533e-05 
5.5139011e-05 -3.9815633e-05 1.7526318e-05 
5.1732222e-05 -1.1142348e-04 6.5831400e-06 
3.9914852e-05 -1.2026674e-04 1.1261868e-05 
3.1650001e-05 -6.7638859e-05 -4.2488896e-06 
5.7022171e-06 8.1802382e-06 -2.6381003e-05 
3.2408562e-07 2.5822178e-06 -1.5716978e-05 
-1.6122045e-05 -6.6413791e-06 -1.0625084e-06 
-9.4747238e-06 -6.8919626e-06 -6.0814741e-06 
1.0260785e-05 1.9871524e-05 -8.2300257e-06 
1.7616503e-05 5.2737141e-05 1.2327467e-05 
5.9878959e-05 -4.2289725e-05 1.3801345e-05 
6.5565837e-05 -9.9744531e-05 9.1985157e-06 
4.8964805e-05 -1.1322932e-04 2.4112698e-05 
-7.1216928e-06 1.5880676e-05 -2.3706356e-05 
-3.1445848e-05 -2.3571323e-04 -1.1504063e-04 
0.0000000e+00 0.0000000e+00 0.0000000e+00 
0.0000000e+00 0.0000000e+00 0.0000000e+00 
0.0000000e+00 0.0000000e+00 0.0000000e+00 
0.0000000e+00 0.0000000e+00 0.0000000e+00 
0.0000000e+00 0.0000000e+00 0.0000000e+00 
0.0000000e+00 0.0000000e+00 0.0000000e+00 
0.0000000e+00 0.0000000e+00 0.0000000e+00 
0.0000000e+00 0.0000000e+00 0.0000000e+00 
0.0000000e+00 0.0000000e+00 0.0000000e+00 
0.0000000e+00 0.0000000e+00 0.0000000e+00 
0.0000000e+00 0.0000000e+00 0.0000000e+00 
0.0000000e+00 0.0000000e+00 0.0000000e+00 
0.0000000e+00 0.0000000e+00 0.0000000e+00 
0.0000000e+00 0.0000000e+00 0.0000000e+00 
0.0000000e+00 0.0000000e+00 0.0000000e+00 
0.0000000e+00 0.0000000e+00 0.0000000e+00 
0.0000000e+00 0.0000000e+00 0.0000000e+00 
0.0000000e+00 0.0000000e+00 0.0000000e+00 
0.0000000e+00 0.0000000e+00 0.0000000e+00 
0.0000000e+00 0.0000000e+00 0.0000000e+00 
0.0000000e+00 0.0000000e+00 0.0000000e+00 
0.0000000e+00 0.0000000e+00 0.0000000e+00 
0.0000000e+00 0.0000000e+00 0.0000000e+00 
0.0000000e+00 0.0000000e+00 0.0000000e+00 
0.0000000e+00 0.0000000e+00 0.0000000e+00 
0.0000000e+00 0.0000000e+00 0.0000000e+00 
0.0000000e+00 0.0000000e+00 0.0000000e+00 
0.0000000e+00 0.0000000e+00 0.0000000e+00 
0.0000000e+00 0.0000000e+00 0.0000000e+00 
0.0000000e+00 0.0000000e+00 0.0000000e+00 
0.0000000e+00 0.0000000e+00 0.0000000e+00 
0.0000000e+00 0.0000000e+00 0.0000000e+00 
0.0000000e+00 0.0000000e+00 0.0000000e+00 
0.0000000e+00 0.0000000e+00 0.0000000e+00 
0.0000000e+00 0.0000000e+00 0.0000000e+00 
0.0000000e+00 0.0000000e+00 0.0000000e+00 
0.0000000e+00 0.0000000e+00 0.0000000e+00 
0.0000000e+00 0.0000000e+00 0.0000000e+00 
0.0000000e+00 0.0000000e+00 0.0000000e+00 
0.0000000e+00 0.0000000e+00 0.0000000e+00 
0.0000000e+00 0.0000000e+00 0.0000000e+00 
0.0000000e+00 0.0000000e+00 0.0000000e+00 
1.2754480e-06 -1.0411309e-06 4.1071996e-07 
2.5621875e-05 -8.0855953e-06 4.0606860e-06 
2.2547971e-05 -9.9840900e-06 5.2044147e-06 
-2.2782497e-06 -1.5202901e-06 1.3287328e-06 
-3.5673947e-06 8.0715967e-07 8.0602314e-07 
-2.3246428e-06 2.2116735e-06 -1.1826739e-06 
7.4047771e-06 -7.0622564e-06 -6.5699455e-06 
2.6981606e-05 -1.0640651e-05 -2.3710536e-06 