# vtk DataFile Version 4.0
vtk output
ASCII
DATASET UNSTRUCTURED_GRID
POINTS 622 float
0.0000000e+00 0.0000000e+00 0.0000000e+00 
0.0000000e+00 0.0000000e+00 4.0000000e+01 
5.0000000e+00 0.0000000e+00 0.0000000e+00 
5.0000000e+00 0.0000000e+00 4.0000000e+01 
5.0000000e+00 1.0000000e+00 0.0000000e+00 
5.0000000e+00 1.0000000e+00 4.0000000e+01 
0.0000000e+00 1.0000000e+00 0.0000000e+00 
0.0000000e+00 1.0000000e+00 4.0000000e+01 
5.0000000e+00 2.0000000e+00 0.0000000e+00 
5.0000000e+00 2.0000000e+00 4.0000000e+01 
3.0000000e+00 2.0000000e+00 0.0000000e+00 
3.0000000e+00 2.0000000e+00 4.0000000e+01 
0.0000000e+00 2.0000000e+00 0.0000000e+00 
0.0000000e+00 2.0000000e+00 4.0000000e+01 
1.5000000e+00 3.0000000e+00 0.0000000e+00 
1.5000000e+00 3.0000000e+00 4.0000000e+01 
7.5000000e-01 3.0000000e+00 0.0000000e+00 
7.5000000e-01 3.0000000e+00 4.0000000e+01 
0.0000000e+00 3.0000000e+00 0.0000000e+00 
0.0000000e+00 3.0000000e+00 4.0000000e+01 
7.5000000e-01 3.0000000e+00 5.0000000e-01 
7.5000000e-01 3.0000000e+00 1.0000000e+00 
7.5000000e-01 3.0000000e+00 1.5000000e+00 
7.5000000e-01 3.0000000e+00 2.0000000e+00 
7.5000000e-01 3.0000000e+00 2.5000000e+00 
7.5000000e-01 3.0000000e+00 3.0000000e+00 
7.5000000e-01 3.0000000e+00 3.5000000e+00 
7.5000000e-01 3.0000000e+00 4.0000000e+00 
7.5000000e-01 3.0000000e+00 4.5000000e+00 
7.5000000e-01 3.0000000e+00 5.0000000e+00 
7.5000000e-01 3.0000000e+00 5.5000000e+00 
7.5000000e-01 3.0000000e+00 6.0000000e+00 
7.5000000e-01 3.0000000e+00 6.5000000e+00 
7.5000000e-01 3.0000000e+00 7.0000000e+00 
7.5000000e-01 3.0000000e+00 7.5000000e+00 
7.5000000e-01 3.0000000e+00 8.0000000e+00 
7.5000000e-01 3.0000000e+00 8.5000000e+00 
7.5000000e-01 3.0000000e+00 9.0000000e+00 
7.5000000e-01 3.0000000e+00 9.5000000e+00 
7.5000000e-01 3.0000000e+00 1.0000000e+01 
7.5000000e-01 3.0000000e+00 1.0500000e+01 
7.5000000e-01 3.0000000e+00 1.1000000e+01 
7.5000000e-01 3.0000000e+00 1.1500000e+01 
7.5000000e-01 3.0000000e+00 1.2000000e+01 
7.5000000e-01 3.0000000e+00 1.2500000e+01 
7.5000000e-01 3.0000000e+00 1.3000000e+01 
7.5000000e-01 3.0000000e+00 1.3500000e+01 
7.5000000e-01 3.0000000e+00 1.4000000e+01 
7.5000000e-01 3.0000000e+00 1.4500000e+01 
7.5000000e-01 3.0000000e+00 1.5000000e+01 
7.5000000e-01 3.0000000e+00 1.5500000e+01 
7.5000000e-01 3.0000000e+00 1.6000000e+01 
7.5000000e-01 3.0000000e+00 1.6500000e+01 
7.5000000e-01 3.0000000e+00 1.7000000e+01 
7.5000000e-01 3.0000000e+00 1.7500000e+01 
7.5000000e-01 3.0000000e+00 1.8000000e+01 
7.5000000e-01 3.0000000e+00 1.8500000e+01 
7.5000000e-01 3.0000000e+00 1.9000000e+01 
7.5000000e-01 3.0000000e+00 1.9500000e+01 
7.5000000e-01 3.0000000e+00 2.0000000e+01 
7.5000000e-01 3.0000000e+00 2.0500000e+01 
7.5000000e-01 3.0000000e+00 2.1000000e+01 
7.5000000e-01 3.0000000e+00 2.1500000e+01 
7.5000000e-01 3.0000000e+00 2.2000000e+01 
7.5000000e-01 3.0000000e+00 2.2500000e+01 
7.5000000e-01 3.0000000e+00 2.3000000e+01 
7.5000000e-01 3.0000000e+00 2.3500000e+01 
7.5000000e-01 3.0000000e+00 2.4000000e+01 
7.5000000e-01 3.0000000e+00 2.4500000e+01 
7.5000000e-01 3.0000000e+00 2.5000000e+01 
7.5000000e-01 3.0000000e+00 2.5500000e+01 
7.5000000e-01 3.0000000e+00 2.6000000e+01 
7.5000000e-01 3.0000000e+00 2.6500000e+01 
7.5000000e-01 3.0000000e+00 2.7000000e+01 
7.5000000e-01 3.0000000e+00 2.7500000e+01 
7.5000000e-01 3.0000000e+00 2.8000000e+01 
7.5000000e-01 3.0000000e+00 2.8500000e+01 
7.5000000e-01 3.0000000e+00 2.9000000e+01 
7.5000000e-01 3.0000000e+00 2.9500000e+01 
7.5000000e-01 3.0000000e+00 3.0000000e+01 
7.5000000e-01 3.0000000e+00 3.0500000e+01 
7.5000000e-01 3.0000000e+00 3.1000000e+01 
7.5000000e-01 3.0000000e+00 3.1500000e+01 
7.5000000e-01 3.0000000e+00 3.2000000e+01 
7.5000000e-01 3.0000000e+00 3.2500000e+01 
7.5000000e-01 3.0000000e+00 3.3000000e+01 
7.5000000e-01 3.0000000e+00 3.3500000e+01 
7.5000000e-01 3.0000000e+00 3.4000000e+01 
7.5000000e-01 3.0000000e+00 3.4500000e+01 
7.5000000e-01 3.0000000e+00 3.5000000e+01 
7.5000000e-01 3.0000000e+00 3.5500000e+01 
7.5000000e-01 3.0000000e+00 3.6000000e+01 
7.5000000e-01 3.0000000e+00 3.6500000e+01 
7.5000000e-01 3.0000000e+00 3.7000000e+01 
7.5000000e-01 3.0000000e+00 3.7500000e+01 
7.5000000e-01 3.0000000e+00 3.8000000e+01 
7.5000000e-01 3.0000000e+00 3.8500000e+01 
7.5000000e-01 3.0000000e+00 3.9000000e+01 
7.5000000e-01 3.0000000e+00 3.9500000e+01 
7.5000000e-01 3.0250001e+00 0.0000000e+00 
7.5000000e-01 3.0250001e+00 5.0000000e-01 
7.5000000e-01 3.0250001e+00 1.0000000e+00 
7.5000000e-01 3.0250001e+00 1.5000000e+00 
7.5000000e-01 3.0250001e+00 2.0000000e+00 
7.5000000e-01 3.0250001e+00 2.5000000e+00 
7.5000000e-01 3.0250001e+00 3.0000000e+00 
7.5000000e-01 3.0250001e+00 3.5000000e+00 
7.5000000e-01 3.0250001e+00 4.0000000e+00 
7.5000000e-01 3.0250001e+00 4.5000000e+00 
7.5000000e-01 3.0250001e+00 5.0000000e+00 
7.5000000e-01 3.0250001e+00 5.5000000e+00 
7.5000000e-01 3.0250001e+00 6.0000000e+00 
7.5000000e-01 3.0250001e+00 6.5000000e+00 
7.5000000e-01 3.0250001e+00 7.0000000e+00 
7.5000000e-01 3.0250001e+00 7.5000000e+00 
7.5000000e-01 3.0250001e+00 8.0000000e+00 
7.5000000e-01 3.0250001e+00 8.5000000e+00 
7.5000000e-01 3.0250001e+00 9.0000000e+00 
7.5000000e-01 3.0250001e+00 9.5000000e+00 
7.5000000e-01 3.0250001e+00 1.0000000e+01 
7.5000000e-01 3.0250001e+00 1.0500000e+01 
7.5000000e-01 3.0250001e+00 1.1000000e+01 
7.5000000e-01 3.0250001e+00 1.1500000e+01 
7.5000000e-01 3.0250001e+00 1.2000000e+01 
7.5000000e-01 3.0250001e+00 1.2500000e+01 
7.5000000e-01 3.0250001e+00 1.3000000e+01 
7.5000000e-01 3.0250001e+00 1.3500000e+01 
7.5000000e-01 3.0250001e+00 1.4000000e+01 
7.5000000e-01 3.0250001e+00 1.4500000e+01 
7.5000000e-01 3.0250001e+00 1.5000000e+01 
7.5000000e-01 3.0250001e+00 1.5500000e+01 
7.5000000e-01 3.0250001e+00 1.6000000e+01 
7.5000000e-01 3.0250001e+00 1.6500000e+01 
7.5000000e-01 3.0250001e+00 1.7000000e+01 
7.5000000e-01 3.0250001e+00 1.7500000e+01 
7.5000000e-01 3.0250001e+00 1.8000000e+01 
7.5000000e-01 3.0250001e+00 1.8500000e+01 
7.5000000e-01 3.0250001e+00 1.9000000e+01 
7.5000000e-01 3.0250001e+00 1.9500000e+01 
7.5000000e-01 3.0250001e+00 2.0000000e+01 
7.5000000e-01 3.0250001e+00 2.0500000e+01 
7.5000000e-01 3.0250001e+00 2.1000000e+01 
7.5000000e-01 3.0250001e+00 2.1500000e+01 
7.5000000e-01 3.0250001e+00 2.2000000e+01 
7.5000000e-01 3.0250001e+00 2.2500000e+01 
7.5000000e-01 3.0250001e+00 2.3000000e+01 
7.5000000e-01 3.0250001e+00 2.3500000e+01 
7.5000000e-01 3.0250001e+00 2.4000000e+01 
7.5000000e-01 3.0250001e+00 2.4500000e+01 
7.5000000e-01 3.0250001e+00 2.5000000e+01 
7.5000000e-01 3.0250001e+00 2.5500000e+01 
7.5000000e-01 3.0250001e+00 2.6000000e+01 
7.5000000e-01 3.0250001e+00 2.6500000e+01 
7.5000000e-01 3.0250001e+00 2.7000000e+01 
7.5000000e-01 3.0250001e+00 2.7500000e+01 
7.5000000e-01 3.0250001e+00 2.8000000e+01 
7.5000000e-01 3.0250001e+00 2.8500000e+01 
7.5000000e-01 3.0250001e+00 2.9000000e+01 
7.5000000e-01 3.0250001e+00 2.9500000e+01 
7.5000000e-01 3.0250001e+00 3.0000000e+01 
7.5000000e-01 3.0250001e+00 3.0500000e+01 
7.5000000e-01 3.0250001e+00 3.1000000e+01 
7.5000000e-01 3.0250001e+00 3.1500000e+01 
7.5000000e-01 3.0250001e+00 3.2000000e+01 
7.5000000e-01 3.0250001e+00 3.2500000e+01 
7.5000000e-01 3.0250001e+00 3.3000000e+01 
7.5000000e-01 3.0250001e+00 3.3500000e+01 
7.5000000e-01 3.0250001e+00 3.4000000e+01 
7.5000000e-01 3.0250001e+00 3.4500000e+01 
7.5000000e-01 3.0250001e+00 3.5000000e+01 
7.5000000e-01 3.0250001e+00 3.5500000e+01 
7.5000000e-01 3.0250001e+00 3.6000000e+01 
7.5000000e-01 3.0250001e+00 3.6500000e+01 
7.5000000e-01 3.0250001e+00 3.7000000e+01 
7.5000000e-01 3.0250001e+00 3.7500000e+01 
7.5000000e-01 3.0250001e+00 3.8000000e+01 
7.5000000e-01 3.0250001e+00 3.8500000e+01 
7.5000000e-01 3.0250001e+00 3.9000000e+01 
7.5000000e-01 3.0250001e+00 3.9500000e+01 
7.5000000e-01 3.0250001e+00 4.0000000e+01 
7.5000000e-01 3.0250001e+00 3.5750000e+01 
3.0000000e+00 2.0000000e+00 3.6000000e+01 
8.0487806e-01 3.0000000e+00 3.6000000e+01 
0.0000000e+00 0.0000000e+00 2.0000000e+00 
0.0000000e+00 0.0000000e+00 4.0000000e+00 
0.0000000e+00 0.0000000e+00 6.0000000e+00 
0.0000000e+00 0.0000000e+00 8.0000000e+00 
0.0000000e+00 0.0000000e+00 1.0000000e+01 
0.0000000e+00 0.0000000e+00 1.2000000e+01 
0.0000000e+00 0.0000000e+00 1.4000000e+01 
0.0000000e+00 0.0000000e+00 1.6000000e+01 
0.0000000e+00 0.0000000e+00 1.8000000e+01 
0.0000000e+00 0.0000000e+00 2.0000000e+01 
0.0000000e+00 0.0000000e+00 2.2000000e+01 
0.0000000e+00 0.0000000e+00 2.4000000e+01 
0.0000000e+00 0.0000000e+00 2.6000000e+01 
0.0000000e+00 0.0000000e+00 2.8000000e+01 
0.0000000e+00 0.0000000e+00 3.0000000e+01 
0.0000000e+00 0.0000000e+00 3.2000000e+01 
0.0000000e+00 0.0000000e+00 3.4000000e+01 
0.0000000e+00 0.0000000e+00 3.6000000e+01 
0.0000000e+00 0.0000000e+00 3.8000000e+01 
5.0000000e+00 0.0000000e+00 2.0000000e+00 
5.0000000e+00 0.0000000e+00 4.0000000e+00 
5.0000000e+00 0.0000000e+00 6.0000000e+00 
5.0000000e+00 0.0000000e+00 8.0000000e+00 
5.0000000e+00 0.0000000e+00 1.0000000e+01 
5.0000000e+00 0.0000000e+00 1.2000000e+01 
5.0000000e+00 0.0000000e+00 1.4000000e+01 
5.0000000e+00 0.0000000e+00 1.6000000e+01 
5.0000000e+00 0.0000000e+00 1.8000000e+01 
5.0000000e+00 0.0000000e+00 2.0000000e+01 
5.0000000e+00 0.0000000e+00 2.2000000e+01 
5.0000000e+00 0.0000000e+00 2.4000000e+01 
5.0000000e+00 0.0000000e+00 2.6000000e+01 
5.0000000e+00 0.0000000e+00 2.8000000e+01 
5.0000000e+00 0.0000000e+00 3.0000000e+01 
5.0000000e+00 0.0000000e+00 3.2000000e+01 
5.0000000e+00 0.0000000e+00 3.4000000e+01 
5.0000000e+00 0.0000000e+00 3.6000000e+01 
5.0000000e+00 0.0000000e+00 3.8000000e+01 
1.6666666e+00 0.0000000e+00 0.0000000e+00 
3.3333333e+00 0.0000000e+00 0.0000000e+00 
1.6666666e+00 0.0000000e+00 4.0000000e+01 
3.3333333e+00 0.0000000e+00 4.0000000e+01 
5.0000000e+00 1.0000000e+00 2.0000000e+00 
5.0000000e+00 1.0000000e+00 4.0000000e+00 
5.0000000e+00 1.0000000e+00 6.0000000e+00 
5.0000000e+00 1.0000000e+00 8.0000000e+00 
5.0000000e+00 1.0000000e+00 1.0000000e+01 
[...]
POINT_DATA 622
FIELD FieldData 3
DISPLACEMENT 3 622  float
0.0000000e+00 0.0000000e+00 0.0000000e+00 
0.0000000e+00 0.0000000e+00 0.0000000e+00 
0.0000000e+00 0.0000000e+00 0.0000000e+00 
0.0000000e+00 0.0000000e+00 0.0000000e+00 
1.9104939e-06 -9.1396566e-07 -4.9357041e-06 
7.8014882e-06 5.6202248e-06 1.3396240e-05 
0.0000000e+00 -1.9702763e-06 0.0000000e+00 
0.0000000e+00 -1.5848938e-04 0.0000000e+00 
1.2926811e-06 5.9140700e-07 -5.9676095e-06 
2.5961748e-05 6.8978015e-06 -8.8402652e-07 
5.3747995e-06 -4.9882501e-06 -8.5086713e-06 
3.3996308e-05 7.6380566e-05 -1.0497432e-05 
0.0000000e+00 -5.8729388e-06 0.0000000e+00 
0.0000000e+00 -3.3275291e-04 0.0000000e+00 
6.0498987e-06 -1.2112785e-05 -1.9229030e-05 
-9.5523486e-05 -1.2336418e-04 -2.3274386e-04 
1.8020535e-07 -7.4924710e-06 -1.3925523e-05 
-4.5786008e-05 -1.3173822e-03 -1.1618056e-04 
0.0000000e+00 -1.0256155e-05 0.0000000e+00 
0.0000000e+00 -2.8359293e-04 0.0000000e+00 
4.1838134e-06 -6.6699954e-06 -1.7152073e-05 
1.0736210e-05 -3.7769983e-06 -1.6164480e-05 
1.4123178e-05 2.0853615e-06 -1.3112695e-05 
1.7867229e-05 1.1670358e-05 -5.4248699e-06 
1.9429637e-05 2.5251720e-05 3.5202434e-06 
1.6790886e-05 4.2062940e-05 6.0213356e-06 
1.2050911e-05 5.9961701e-05 6.9055313e-06 
9.5863543e-06 7.6298587e-05 4.5661636e-06 
6.7341916e-06 8.9052417e-05 -2.1072804e-06 
5.8500282e-06 9.7082877e-05 -2.1843830e-06 
2.3571249e-06 1.0016629e-04 6.4980472e-06 
-1.2420701e-08 9.8928198e-05 1.8454786e-05 
3.2988949e-06 9.2946648e-05 2.9530791e-05 
5.6812719e-06 8.2931678e-05 3.4730172e-05 
6.8386594e-06 6.8824433e-05 3.6877820e-05 
9.6100730e-06 5.1730156e-05 3.3593704e-05 
1.1988071e-05 3.3416120e-05 2.9936216e-05 
1.5292011e-05 1.6798926e-05 2.7305256e-05 
2.0991381e-05 5.6987733e-06 2.8049277e-05 
2.2257864e-05 2.8270131e-06 3.0005524e-05 
2.1912198e-05 9.7974207e-06 2.4071584e-05 
1.9196630e-05 1.9878940e-05 2.1074211e-05 
1.4335096e-05 2.1071479e-05 3.0806743e-05 
3.8594540e-06 -1.5918491e-05 4.3628974e-05 
-3.5003908e-05 -1.3153415e-04 7.3275529e-05 
-4.8013666e-05 -3.6701161e-04 1.0239539e-04 
-7.2239985e-05 -7.8446144e-04 1.4380045e-04 
-1.2560027e-04 -1.4285989e-03 9.0221525e-05 
-2.6893208e-04 -2.3226417e-03 1.6843631e-04 
-2.7682417e-04 -3.2998803e-03 1.5431232e-04 
-1.7836184e-04 -4.0714415e-03 1.0103548e-04 
-1.5559123e-04 -4.1058725e-03 1.1186513e-04 
-2.9140996e-04 -3.9593391e-03 5.0918043e-05 
-3.5379097e-04 -3.9824108e-03 3.2289903e-05 
-2.3494240e-04 -4.2701340e-03 -1.1205255e-05 
-7.8031160e-05 -4.3056132e-03 -6.5398468e-05 
-1.0175401e-04 -3.5868832e-03 -1.6618136e-04 
-1.9480122e-04 -2.5116068e-03 -1.9630385e-04 
-1.8711404e-04 -1.5635720e-03 -1.9081483e-04 
-5.8237085e-05 -8.3489058e-04 -1.2645486e-04 
-1.9268966e-05 -3.6653382e-04 -1.6038783e-04 
-3.4828470e-06 -9.4468953e-05 -1.2447141e-04 
4.8366741e-07 4.3420478e-05 -9.7486212e-05 
1.4355009e-05 9.9762205e-05 -6.7581961e-05 
1.7484394e-05 1.0770003e-04 -3.8121285e-05 
1.6497743e-05 9.2296315e-05 -1.4910579e-05 
7.0659203e-06 6.8655390e-05 -3.9205743e-06 
-2.7634032e-06 4.2520722e-05 -2.8286318e-06 
-8.1979024e-06 1.7243303e-05 -4.7425460e-06 
-8.8457609e-06 -6.5310546e-06 -8.5063339e-06 
-1.1757882e-05 -2.7626209e-05 -1.0039978e-05 
-1.7252309e-05 -4.3530734e-05 -1.0518175e-05 
-1.7772714e-05 -5.1456558e-05 -1.3139296e-05 
-1.9083383e-05 -5.1858438e-05 -1.9194460e-05 
-1.3710534e-05 -4.4096687e-05 -2.8449153e-05 
-4.6188843e-06 -2.7059396e-05 -3.5810081e-05 
1.5255745e-05 1.6225134e-06 -3.5238147e-05 
2.7541615e-05 4.1299783e-05 -3.0767133e-05 
4.0970503e-05 9.0533256e-05 -3.1642252e-05 
5.3521439e-05 1.4407319e-04 -2.4453982e-05 
5.7651920e-05 1.9531185e-04 -2.2466573e-05 
5.8336755e-05 2.3286822e-04 -8.8157667e-06 
4.6308873e-05 2.4029407e-04 1.6165688e-05 
2.7379003e-05 1.8668393e-04 4.3757362e-05 
-2.2032651e-05 2.6470603e-05 9.3216666e-05 
-3.5282988e-05 -2.7971703e-04 1.3706079e-04 
-6.6798260e-05 -7.9100078e-04 1.9694338e-04 
-1.3009780e-04 -1.5336379e-03 1.4667147e-04 
-2.6891334e-04 -2.5031324e-03 2.2231315e-04 
-2.7882087e-04 -3.4876852e-03 1.8255640e-04 
-1.8479713e-04 -4.1331202e-03 8.0042781e-05 
-3.7444616e-04 -4.0575839e-03 1.2684309e-04 
-2.5957343e-04 -3.8746754e-03 9.9712117e-05 
-2.9056572e-04 -3.9126002e-03 1.1730722e-05 
-1.1011284e-04 -4.1855564e-03 -1.2611283e-04 
-1.7519205e-04 -4.1515301e-03 -1.9768825e-04 
-1.7586790e-04 -3.3293823e-03 -3.2228514e-04 
-1.9920609e-04 -2.3135007e-03 -3.1843380e-04 
-1.3778172e-04 -1.5858173e-03 -1.6677844e-04 
0.0000000e+00 -7.5240609e-06 0.0000000e+00 
0.0000000e+00 -6.6909729e-06 0.0000000e+00 
0.0000000e+00 -3.7629388e-06 0.0000000e+00 
0.0000000e+00 2.1133549e-06 0.0000000e+00 
0.0000000e+00 1.1723205e-05 0.0000000e+00 
0.0000000e+00 2.5322312e-05 0.0000000e+00 
0.0000000e+00 4.2095347e-05 0.0000000e+00 
0.0000000e+00 5.9942609e-05 0.0000000e+00 
0.0000000e+00 7.6278724e-05 0.0000000e+00 
0.0000000e+00 8.9028246e-05 0.0000000e+00 
0.0000000e+00 9.7057215e-05 0.0000000e+00 
0.0000000e+00 1.0023508e-04 0.0000000e+00 
0.0000000e+00 9.8895034e-05 0.0000000e+00 
0.0000000e+00 9.3003589e-05 0.0000000e+00 
0.0000000e+00 8.2901766e-05 0.0000000e+00 
0.0000000e+00 6.8806847e-05 0.0000000e+00 
0.0000000e+00 5.1675259e-05 0.0000000e+00 
0.0000000e+00 3.3382268e-05 0.0000000e+00 
0.0000000e+00 1.6858021e-05 0.0000000e+00 
0.0000000e+00 5.7470761e-06 0.0000000e+00 
0.0000000e+00 3.2006180e-06 0.0000000e+00 
0.0000000e+00 1.0082525e-05 0.0000000e+00 
0.0000000e+00 2.0822426e-05 0.0000000e+00 
0.0000000e+00 2.1677488e-05 0.0000000e+00 
0.0000000e+00 -1.5793436e-05 0.0000000e+00 
0.0000000e+00 -1.3043093e-04 0.0000000e+00 
0.0000000e+00 -3.6760763e-04 0.0000000e+00 
0.0000000e+00 -7.8584475e-04 0.0000000e+00 
0.0000000e+00 -1.4377002e-03 0.0000000e+00 
0.0000000e+00 -2.3300559e-03 0.0000000e+00 
0.0000000e+00 -3.3314198e-03 0.0000000e+00 
0.0000000e+00 -4.0951031e-03 0.0000000e+00 
0.0000000e+00 -4.1363654e-03 0.0000000e+00 
0.0000000e+00 -3.9731180e-03 0.0000000e+00 
0.0000000e+00 -4.0132450e-03 0.0000000e+00 
0.0000000e+00 -4.2904820e-03 0.0000000e+00 
0.0000000e+00 -4.3407059e-03 0.0000000e+00 
0.0000000e+00 -3.6055055e-03 0.0000000e+00 
0.0000000e+00 -2.5306116e-03 0.0000000e+00 
0.0000000e+00 -1.5659787e-03 0.0000000e+00 
0.0000000e+00 -8.3941739e-04 0.0000000e+00 
0.0000000e+00 -3.6640570e-04 0.0000000e+00 
0.0000000e+00 -9.3606919e-05 0.0000000e+00 
0.0000000e+00 4.4514702e-05 0.0000000e+00 
0.0000000e+00 1.0019443e-04 0.0000000e+00 
0.0000000e+00 1.0820411e-04 0.0000000e+00 
0.0000000e+00 9.2805465e-05 0.0000000e+00 
0.0000000e+00 6.8795402e-05 0.0000000e+00 
0.0000000e+00 4.2639447e-05 0.0000000e+00 
0.0000000e+00 1.7197463e-05 0.0000000e+00 
0.0000000e+00 -6.6364482e-06 0.0000000e+00 
0.0000000e+00 -2.7632235e-05 0.0000000e+00 
0.0000000e+00 -4.3331347e-05 0.0000000e+00 
0.0000000e+00 -5.1494018e-05 0.0000000e+00 
0.0000000e+00 -5.1899769e-05 0.0000000e+00 
0.0000000e+00 -4.4176624e-05 0.0000000e+00 
0.0000000e+00 -2.6953328e-05 0.0000000e+00 
0.0000000e+00 1.6563177e-06 0.0000000e+00 
0.0000000e+00 4.1499152e-05 0.0000000e+00 
0.0000000e+00 9.0622481e-05 0.0000000e+00 
0.0000000e+00 1.4431984e-04 0.0000000e+00 
0.0000000e+00 1.9561590e-04 0.0000000e+00 
0.0000000e+00 2.3369797e-04 0.0000000e+00 
0.0000000e+00 2.4109017e-04 0.0000000e+00 
0.0000000e+00 1.8654793e-04 0.0000000e+00 
0.0000000e+00 2.7572885e-05 0.0000000e+00 
0.0000000e+00 -2.8105013e-04 0.0000000e+00 
0.0000000e+00 -7.9292420e-04 0.0000000e+00 
0.0000000e+00 -1.5436779e-03 0.0000000e+00 
0.0000000e+00 -2.5117523e-03 0.0000000e+00 
0.0000000e+00 -3.5212331e-03 0.0000000e+00 
0.0000000e+00 -4.1593071e-03 0.0000000e+00 
0.0000000e+00 -4.0830369e-03 0.0000000e+00 
0.0000000e+00 -3.8901637e-03 0.0000000e+00 
0.0000000e+00 -3.9422358e-03 0.0000000e+00 
0.0000000e+00 -4.2157173e-03 0.0000000e+00 
0.0000000e+00 -4.1715447e-03 0.0000000e+00 
0.0000000e+00 -3.3460530e-03 0.0000000e+00 
0.0000000e+00 -2.3290550e-03 0.0000000e+00 
0.0000000e+00 -1.5894331e-03 0.0000000e+00 
0.0000000e+00 -1.3212985e-03 0.0000000e+00 
0.0000000e+00 -4.1802214e-03 0.0000000e+00 
9.7593569e-05 -1.6092039e-04 1.2514372e-05 
-1.7697200e-04 -3.5337640e-03 1.4396250e-04 
0.0000000e+00 0.0000000e+00 0.0000000e+00 
0.0000000e+00 0.0000000e+00 0.0000000e+00 
0.0000000e+00 0.0000000e+00 0.0000000e+00 
0.0000000e+00 0.0000000e+00 0.0000000e+00 
0.0000000e+00 0.0000000e+00 0.0000000e+00 
0.0000000e+00 0.0000000e+00 0.0000000e+00 
0.0000000e+00 0.0000000e+00 0.0000000e+00 
0.0000000e+00 0.0000000e+00 0.0000000e+00 
0.0000000e+00 0.0000000e+00 0.0000000e+00 
0.0000000e+00 0.0000000e+00 0.0000000e+00 
0.0000000e+00 0.0000000e+00 0.0000000e+00 
0.0000000e+00 0.0000000e+00 0.0000000e+00 
0.0000000e+00 0.0000000e+00 0.0000000e+00 
0.0000000e+00 0.0000000e+00 0.0000000e+00 
0.0000000e+00 0.0000000e+00 0.0000000e+00 
0.0000000e+00 0.0000000e+00 0.0000000e+00 
0.0000000e+00 0.0000000e+00 0.0000000e+00 
0.0000000e+00 0.0000000e+00 0.0000000e+00 
0.0000000e+00 0.0000000e+00 0.0000000e+00 
0.0000000e+00 0.0000000e+00 0.0000000e+00 
0.0000000e+00 0.0000000e+00 0.0000000e+00 
0.0000000e+00 0.0000000e+00 0.0000000e+00 
0.0000000e+00 0.0000000e+00 0.0000000e+00 
0.0000000e+00 0.0000000e+00 0.0000000e+00 
0.0000000e+00 0.0000000e+00 0.0000000e+00 
0.0000000e+00 0.0000000e+00 0.0000000e+00 
0.0000000e+00 0.0000000e+00 0.0000000e+00 
0.0000000e+00 0.0000000e+00 0.0000000e+00 
0.0000000e+00 0.0000000e+00 0.0000000e+00 
0.0000000e+00 0.0000000e+00 0.0000000e+00 
0.0000000e+00 0.0000000e+00 0.0000000e+00 
0.0000000e+00 0.0000000e+00 0.0000000e+00 
0.0000000e+00 0.0000000e+00 0.0000000e+00 
0.0000000e+00 0.0000000e+00 0.0000000e+00 
0.0000000e+00 0.0000000e+00 0.0000000e+00 
0.0000000e+00 0.0000000e+00 0.0000000e+00 
0.0000000e+00 0.0000000e+00 0.0000000e+00 
0.0000000e+00 0.0000000e+00 0.0000000e+00 
0.0000000e+00 0.0000000e+00 0.0000000e+00 
0.0000000e+00 0.0000000e+00 0.0000000e+00 
0.0000000e+00 0.0000000e+00 0.0000000e+00 
0.0000000e+00 0.0000000e+00 0.0000000e+00 
2.3987213e-06 -1.6589998e-06 -3.6528554e-06 
1.3044060e-07 -1.1391201e-06 1.1262564e-06 
-6.2834756e-06 -1.6015008e-07 3.0400693e-06 
-1.0522554e-05 3.0288345e-06 -1.1448552e-07 
-4.3227647e-06 1.1178636e-07 -3.2698761e-06 
1.1699244e-05 -3.6100475e-06 -6.3071302e-06 
3.6259695e-05 -6.9788084e-06 -1.0544824e-05 
5.3856744e-05 -7.7062932e-06 -2.5636618e-06 
4.6598376e-05 -5.5393157e-06 8.3234791e-06 
2.0560756e-05 -1.9023074e-06 4.4779840e-06 
4.1488511e-06 -1.3324949e-06 1.2274227e-06 
1.4192482e-06 -8.2916239e-07 1.9186589e-07 
-2.7402195e-06 -2.2062659e-06 2.9869716e-06 
-7.9936453e-06 -2.3141658e-06 1.9266365e-06 
-5.7466514e-06 1.0842854e-06 -9.2999886e-07 
2.0546263e-06 3.3249362e-06 -8.7220105e-06 
3.3816959e-05 -5.0524277e-06 -1.7963535e-05 
5.6249937e-05 -2.0533094e-05 -1.8701438e-06 
4.1566236e-05 -1.3632053e-05 1.9652309e-05 
0.0000000e+00 2.7160747e-06 0.0000000e+00 
0.0000000e+00 2.5036372e-05 0.0000000e+00 
0.0000000e+00 2.9125138e-05 0.0000000e+00 
0.0000000e+00 1.2645121e-05 0.0000000e+00 
0.0000000e+00 -3.1573193e-06 0.0000000e+00 
0.0000000e+00 -2.1527554e-05 0.0000000e+00 
0.0000000e+00 -2.2125960e-04 0.0000000e+00 
0.0000000e+00 -5.4215145e-04 0.0000000e+00 
0.0000000e+00 -5.3076772e-04 0.0000000e+00 
0.0000000e+00 -1.5351287e-04 0.0000000e+00 
0.0000000e+00 1.0450711e-05 0.0000000e+00 
0.0000000e+00 1.2205934e-05 0.0000000e+00 
0.0000000e+00 -2.1569342e-05 0.0000000e+00 
0.0000000e+00 -8.4993135e-06 0.0000000e+00 
0.0000000e+00 4.7008809e-05 0.0000000e+00 
0.0000000e+00 4.1510739e-05 0.0000000e+00 
0.0000000e+00 -2.2402589e-04 0.0000000e+00 
0.0000000e+00 -5.7727483e-04 0.0000000e+00 
0.0000000e+00 -4.9504498e-04 0.0000000e+00 
2.9703106e-06 -2.5225245e-06 -6.0714838e-06 
1.7067678e-06 -2.6353734e-06 -4.6266682e-06 
3.9432460e-05 3.4046585e-05 1.8127534e-05 
7.5231706e-05 -8.5883519e-05 1.0702492e-04 
3.9192923e-06 -2.5324086e-06 -4.9785635e-06 
3.1762600e-06 -3.9240008e-06 -1.0464093e-08 
-4.6662904e-06 -2.0275154e-06 3.3289764e-06 
-1.2497779e-05 2.5426443e-06 6.3583366e-07 
-6.9175271e-06 1.9018910e-06 -3.6067586e-06 
1.9201558e-05 -3.0136050e-06 -8.5839874e-06 
3.5251054e-05 -5.2716491e-06 -4.5843681e-06 
3.8215148e-05 -6.4844348e-06 -7.0165250e-08 
2.5795414e-05 -2.2433794e-06 7.0045430e-06 
9.8505461e-06 2.1599883e-06 -2.6905611e-06 
7.8317553e-06 -1.7388603e-06 -1.1542918e-06 
2.9635646e-06 -2.9409180e-06 1.4886352e-06 
-5.3545864e-06 -4.3616064e-06 4.4712679e-06 
-1.0392115e-05 -2.5610252e-06 -6.5306324e-07 
1.3618371e-06 7.1125896e-07 -8.0161435e-06 
1.7445553e-05 3.4362686e-06 -9.9564104e-06 
3.4372995e-05 -3.9386287e-06 -7.1041450e-06 
4.6714315e-05 -1.2985884e-05 7.9769889e-06 
3.1302625e-05 -3.4373011e-06 1.1867652e-05 
4.6331952e-06 -4.7070243e-06 -7.4748323e-06 
0.0000000e+00 4.7820504e-06 0.0000000e+00 
0.0000000e+00 4.7939517e-05 0.0000000e+00 
0.0000000e+00 5.5719222e-05 0.0000000e+00 
0.0000000e+00 2.4966226e-05 0.0000000e+00 
0.0000000e+00 -8.2313609e-06 0.0000000e+00 
0.0000000e+00 -2.6700576e-05 0.0000000e+00 
0.0000000e+00 -4.6270111e-04 0.0000000e+00 
0.0000000e+00 -1.1988936e-03 0.0000000e+00 
0.0000000e+00 -1.1820103e-03 0.0000000e+00 
0.0000000e+00 -2.8896847e-04 0.0000000e+00 
0.0000000e+00 3.4390992e-05 0.0000000e+00 
0.0000000e+00 2.1922973e-05 0.0000000e+00 
0.0000000e+00 -3.6197078e-05 0.0000000e+00 
0.0000000e+00 -1.9058025e-05 0.0000000e+00 
0.0000000e+00 8.7690532e-05 0.0000000e+00 
0.0000000e+00 9.1179660e-05 0.0000000e+00 
0.0000000e+00 -4.7241725e-04 0.0000000e+00 
0.0000000e+00 -1.3040269e-03 0.0000000e+00 
0.0000000e+00 -1.0918399e-03 0.0000000e+00 
5.9986014e-05 -2.3717192e-04 5.5257333e-05 
2.2067252e-05 2.5825802e-06 -8.3860905e-06 
1.3619861e-05 4.8317739e-05 4.3275254e-06 
3.2335220e-06 6.3939733e-05 2.4565477e-05 
4.5782967e-06 4.2684809e-05 3.5682326e-05 
3.6017322e-05 -1.5092230e-05 4.8705904e-05 
1.9996987e-05 1.9708285e-05 7.6425174e-05 
-2.8217575e-04 -4.4393275e-04 2.7838958e-04 
-7.0215960e-04 -1.3424549e-03 1.2190540e-04 
-6.4248539e-04 -1.4791444e-03 -1.4979608e-04 
-1.3294483e-04 -2.4942466e-04 -2.5151280e-04 
3.3197099e-05 4.8875754e-05 -7.1833165e-05 
1.4033502e-06 1.9449850e-05 -1.1251376e-06 
-2.7322290e-05 -3.6763213e-05 3.5722342e-06 
-1.1298965e-05 -1.4930577e-05 -5.3848544e-05 
7.5953903e-05 7.1720606e-05 -3.4277524e-05 
5.7532259e-05 1.7730510e-04 8.5249572e-05 
-3.2799054e-04 -4.6690361e-04 3.9470399e-04 
-5.0959602e-04 -1.7352428e-03 1.3903840e-04 
-5.7908992e-04 -1.2131528e-03 -2.1923562e-04 
0.0000000e+00 -1.0352645e-07 0.0000000e+00 
0.0000000e+00 7.4070107e-05 0.0000000e+00 
0.0000000e+00 8.6203661e-05 0.0000000e+00 
0.0000000e+00 3.6083362e-05 0.0000000e+00 
0.0000000e+00 -1.6346075e-05 0.0000000e+00 
0.0000000e+00 2.2664924e-06 0.0000000e+00 
0.0000000e+00 -8.6072570e-04 0.0000000e+00 
0.0000000e+00 -2.3224768e-03 0.0000000e+00 
0.0000000e+00 -2.2558351e-03 0.0000000e+00 
0.0000000e+00 -4.9398880e-04 0.0000000e+00 
0.0000000e+00 8.2114209e-05 0.0000000e+00 
0.0000000e+00 3.8335591e-05 0.0000000e+00 
0.0000000e+00 -4.6740046e-05 0.0000000e+00 
0.0000000e+00 -3.8094171e-05 0.0000000e+00 
0.0000000e+00 1.2058641e-04 0.0000000e+00 
0.0000000e+00 1.8878702e-04 0.0000000e+00 
0.0000000e+00 -9.2972838e-04 0.0000000e+00 
0.0000000e+00 -2.4146747e-03 0.0000000e+00 
0.0000000e+00 -2.1329320e-03 0.0000000e+00 
5.7701300e-06 -1.3424851e-06 -1.2192660e-06 
-2.0742431e-07 9.0273588e-06 3.1496375e-06 
-1.2771558e-05 1.1864797e-05 9.3741155e-06 
-8.9590967e-06 1.0319576e-05 1.0071387e-05 
8.7928820e-06 -7.9792142e-07 1.2806620e-05 
2.3175608e-05 1.9992465e-05 1.6628681e-05 
5.5181492e-05 -4.7567424e-05 3.2511739e-06 
5.3103166e-05 -1.0104664e-04 -9.3981143e-06 
4.1442225e-05 -1.0378075e-04 -6.2804622e-07 
3.8149286e-05 -5.3547490e-05 -4.4628227e-06 
3.1551062e-06 1.2816215e-05 -1.4474543e-05 
-5.2646365e-06 3.4440591e-06 -9.5056830e-06 
-1.3996208e-05 -1.1543247e-05 -2.5032157e-06 
-9.6944768e-06 -7.4711888e-06 -9.2178889e-06 
7.8297498e-06 2.2871893e-05 -4.4167191e-06 
1.5705380e-05 5.0178143e-05 1.1540458e-05 
4.4563734e-05 -3.2522610e-05 1.3785462e-05 
5.0024959e-05 -1.1300697e-04 1.2862508e-05 
-7.6204284e-05 -1.1381028e-03 7.3435418e-05 
0.0000000e+00 0.0000000e+00 0.0000000e+00 
0.0000000e+00 0.0000000e+00 0.0000000e+00 
0.0000000e+00 0.0000000e+00 0.0000000e+00 
0.0000000e+00 0.0000000e+00 0.0000000e+00 
0.0000000e+00 0.0000000e+00 0.0000000e+00 
0.0000000e+00 0.0000000e+00 0.0000000e+00 
0.0000000e+00 0.0000000e+00 0.0000000e+00 
0.0000000e+00 0.0000000e+00 0.0000000e+00 
0.0000000e+00 0.0000000e+00 0.0000000e+00 
0.0000000e+00 0.0000000e+00 0.0000000e+00 
0.0000000e+00 0.0000000e+00 0.0000000e+00 
0.0000000e+00 0.0000000e+00 0.0000000e+00 
0.0000000e+00 0.0000000e+00 0.0000000e+00 
0.0000000e+00 0.0000000e+00 0.0000000e+00 
0.0000000e+00 0.0000000e+00 0.0000000e+00 
0.0000000e+00 0.0000000e+00 0.0000000e+00 
0.0000000e+00 0.0000000e+00 0.0000000e+00 
0.0000000e+00 0.0000000e+00 0.0000000e+00 
0.0000000e+00 0.0000000e+00 0.0000000e+00 
0.0000000e+00 0.0000000e+00 0.0000000e+00 
0.0000000e+00 0.0000000e+00 0.0000000e+00 
0.0000000e+00 0.0000000e+00 0.0000000e+00 
0.0000000e+00 0.0000000e+00 0.0000000e+00 
0.0000000e+00 0.0000000e+00 0.0000000e+00 
0.0000000e+00 0.0000000e+00 0.0000000e+00 
0.0000000e+00 0.0000000e+00 0.0000000e+00 
0.0000000e+00 0.0000000e+00 0.0000000e+00 
0.0000000e+00 0.0000000e+00 0.0000000e+00 
0.0000000e+00 0.0000000e+00 0.0000000e+00 
0.0000000e+00 0.0000000e+00 0.0000000e+00 
0.0000000e+00 0.0000000e+00 0.0000000e+00 
0.0000000e+00 0.0000000e+00 0.0000000e+00 
0.0000000e+00 0.0000000e+00 0.0000000e+00 
0.0000000e+00 0.0000000e+00 0.0000000e+00 
0.0000000e+00 0.0000000e+00 0.0000000e+00 
0.0000000e+00 0.0000000e+00 0.0000000e+00 
0.0000000e+00 0.0000000e+00 0.0000000e+00 
0.0000000e+00 0.0000000e+00 0.0000000e+00 
0.0000000e+00 0.0000000e+00 0.0000000e+00 
0.0000000e+00 0.0000000e+00 0.0000000e+00 
0.0000000e+00 0.0000000e+00 0.0000000e+00 
0.0000000e+00 0.0000000e+00 0.0000000e+00 
1.1623965e-06 -7.5913010e-07 -2.4628268e-06 
1.0374059e-05 -7.1522381e-06 -5.9240797e-06 
2.5980464e-05 -9.0760313e-06 2.8325571e-06 
2.2404566e-07 -1.3193822e-07 -6.8101741e-07 
6.0844525e-07 -4.1134413e-07 1.8852933e-06 
-2.6602404e-06 -1.0844973e-06 8.3678930e-07 
-3.9389151e-06 -1.9981360e-07 3.9502740e-07 
-3.1390359e-06 2.6000278e-06 -6.6327198e-07 
7.0996571e-06 -4.2223910e-06 -9.8158871e-06 
3.2028449e-05 -1.2870542e-05 -1.1104006e-05 
2.9682928e-05 -1.3903565e-05 3.6040874e-06 
1.7121038e-05 -9.0669855e-06 1.1534500e-05 
4.8933737e-07 -4.8098798e-07 -1.2278225e-06 
-2.4574592e-06 5.4417222e-07 1.5335734e-06 
-5.8661176e-06 1.8780466e-06 1.7598808e-06 
-4.5631677e-06 1.0488164e-06 -2.1880492e-06 
2.1554747e-06 -1.2968934e-06 -3.0113517e-07 
2.7406675e-05 -9.8518467e-06 -3.8679473e-06 
2.1059181e-05 -8.3023242e-06 3.4375903e-06 
5.1866227e-06 -2.5741970e-06 9.2253447e-07 
3.6289814e-06 -1.3343058e-06 -1.2057870e-06 
1.1649842e-04 -1.2092725e-04 6.6475033e-05 
-1.0492608e-05 5.0762419e-06 5.0731810e-06 
-2.5065667e-06 8.1987093e-07 3.2853306e-06 
3.6909758e-05 9.3744475e-06 -1.0288816e-05 
8.7941218e-05 -2.3791477e-05 -1.4801628e-06 
1.9207544e-05 5.1582077e-07 1.1550212e-05 
-4.8428296e-06 -1.9736976e-06 -5.1607199e-06 
-5.4679958e-06 2.3351943e-06 2.3493544e-06 
2.0899644e-05 2.1647729e-05 -1.0289695e-05 
-9.0728026e-06 1.7236111e-05 5.8550177e-06 
1.6295829e-05 -2.7582785e-06 1.1846777e-06 
1.1384118e-04 -2.2883939e-04 -4.2033105e-05 
9.3324576e-05 -2.0512525e-04 3.8909719e-05 
-3.5954062e-07 8.0400241e-06 -5.2692608e-06 
-5.7077455e-06 -1.3967406e-05 -2.2611914e-06 
4.7693156e-06 3.9480616e-05 -9.9270744e-07 
1.0364914e-04 -2.3829260e-04 -5.9785318e-05 
1.4232988e-04 -3.5949366e-04 9.0587464e-06 
-3.0886397e-07 1.0794153e-06 1.9344361e-06 
6.2117433e-05 -3.9035607e-05 1.6848939e-05 
1.0880783e-06 1.0425322e-05 3.5170058e-06 
-1.1019676e-05 3.9283441e-06 4.0687246e-06 
8.5534921e-06 2.8722254e-06 4.7180979e-06 
5.4120806e-05 -1.7510738e-05 -8.3245513e-06 
4.1888463e-05 -2.1265800e-05 5.9420854e-06 
3.5961949e-07 2.6399107e-06 -2.7418134e-06 