# vtk DataFile Version 4.0
vtk output
ASCII
DATASET UNSTRUCTURED_GRID
POINTS 662 float
0.0000000e+00 0.0000000e+00 0.0000000e+00 
0.0000000e+00 0.0000000e+00 4.0000000e+01 
5.0000000e+00 0.0000000e+00 0.0000000e+00 
5.0000000e+00 0.0000000e+00 4.0000000e+01 
5.0000000e+00 1.0000000e+00 0.0000000e+00 
5.0000000e+00 1.0000000e+00 4.0000000e+01 
0.0000000e+00 1.0000000e+00 0.0000000e+00 
0.0000000e+00 1.0000000e+00 4.0000000e+01 
5.0000000e+00 2.0000000e+00 0.0000000e+00 
5.0000000e+00 2.0000000e+00 4.0000000e+01 
3.0000000e+00 2.0000000e+00 0.0000000e+00 
3.0000000e+00 2.0000000e+00 4.0000000e+01 
0.0000000e+00 2.0000000e+00 0.0000000e+00 
0.0000000e+00 2.0000000e+00 4.0000000e+01 
1.5000000e+00 3.0000000e+00 0.0000000e+00 
1.5000000e+00 3.0000000e+00 4.0000000e+01 
7.5000000e-01 3.0000000e+00 0.0000000e+00 
7.5000000e-01 3.0000000e+00 4.0000000e+01 
0.0000000e+00 3.0000000e+00 0.0000000e+00 
0.0000000e+00 3.0000000e+00 4.0000000e+01 
7.5000000e-01 3.0000000e+00 5.0000000e-01 
7.5000000e-01 3.0000000e+00 1.0000000e+00 
7.5000000e-01 3.0000000e+00 1.5000000e+00 
7.5000000e-01 3.0000000e+00 2.0000000e+00 
7.5000000e-01 3.0000000e+00 2.5000000e+00 
7.5000000e-01 3.0000000e+00 3.0000000e+00 
7.5000000e-01 3.0000000e+00 3.5000000e+00 
7.5000000e-01 3.0000000e+00 4.0000000e+00 
7.5000000e-01 3.0000000e+00 4.5000000e+00 
7.5000000e-01 3.0000000e+00 5.0000000e+00 
7.5000000e-01 3.0000000e+00 5.5000000e+00 
7.5000000e-01 3.0000000e+00 6.0000000e+00 
7.5000000e-01 3.0000000e+00 6.5000000e+00 
7.5000000e-01 3.0000000e+00 7.0000000e+00 
7.5000000e-01 3.0000000e+00 7.5000000e+00 
7.5000000e-01 3.0000000e+00 8.0000000e+00 
7.5000000e-01 3.0000000e+00 8.5000000e+00 
7.5000000e-01 3.0000000e+00 9.0000000e+00 
7.5000000e-01 3.0000000e+00 9.5000000e+00 
7.5000000e-01 3.0000000e+00 1.0000000e+01 
7.5000000e-01 3.0000000e+00 1.0500000e+01 
7.5000000e-01 3.0000000e+00 1.1000000e+01 
7.5000000e-01 3.0000000e+00 1.1500000e+01 
7.5000000e-01 3.0000000e+00 1.2000000e+01 
7.5000000e-01 3.0000000e+00 1.2500000e+01 
7.5000000e-01 3.0000000e+00 1.3000000e+01 
7.5000000e-01 3.0000000e+00 1.3500000e+01 
7.5000000e-01 3.0000000e+00 1.4000000e+01 
7.5000000e-01 3.0000000e+00 1.4500000e+01 
7.5000000e-01 3.0000000e+00 1.5000000e+01 
7.5000000e-01 3.0000000e+00 1.5500000e+01 
7.5000000e-01 3.0000000e+00 1.6000000e+01 
7.5000000e-01 3.0000000e+00 1.6500000e+01 
7.5000000e-01 3.0000000e+00 1.7000000e+01 
7.5000000e-01 3.0000000e+00 1.7500000e+01 
7.5000000e-01 3.0000000e+00 1.8000000e+01 
7.5000000e-01 3.0000000e+00 1.8500000e+01 
7.5000000e-01 3.0000000e+00 1.9000000e+01 
7.5000000e-01 3.0000000e+00 1.9500000e+01 
7.5000000e-01 3.0000000e+00 2.0000000e+01 
7.5000000e-01 3.0000000e+00 2.0500000e+01 
7.5000000e-01 3.0000000e+00 2.1000000e+01 
7.5000000e-01 3.0000000e+00 2.1500000e+01 
7.5000000e-01 3.0000000e+00 2.2000000e+01 
7.5000000e-01 3.0000000e+00 2.2500000e+01 
7.5000000e-01 3.0000000e+00 2.3000000e+01 
7.5000000e-01 3.0000000e+00 2.3500000e+01 
7.5000000e-01 3.0000000e+00 2.4000000e+01 
7.5000000e-01 3.0000000e+00 2.4500000e+01 
7.5000000e-01 3.0000000e+00 2.5000000e+01 
7.5000000e-01 3.0000000e+00 2.5500000e+01 
7.5000000e-01 3.0000000e+00 2.6000000e+01 
7.5000000e-01 3.0000000e+00 2.6500000e+01 
7.5000000e-01 3.0000000e+00 2.7000000e+01 
7.5000000e-01 3.0000000e+00 2.7500000e+01 
7.5000000e-01 3.0000000e+00 2.8000000e+01 
7.5000000e-01 3.0000000e+00 2.8500000e+01 
7.5000000e-01 3.0000000e+00 2.9000000e+01 
7.5000000e-01 3.0000000e+00 2.9500000e+01 
7.5000000e-01 3.0000000e+00 3.0000000e+01 
7.5000000e-01 3.0000000e+00 3.0500000e+01 
7.5000000e-01 3.0000000e+00 3.1000000e+01 
7.5000000e-01 3.0000000e+00 3.1500000e+01 
7.5000000e-01 3.0000000e+00 3.2000000e+01 
7.5000000e-01 3.0000000e+00 3.2500000e+01 
7.5000000e-01 3.0000000e+00 3.3000000e+01 
7.5000000e-01 3.0000000e+00 3.3500000e+01 
7.5000000e-01 3.0000000e+00 3.4000000e+01 
7.5000000e-01 3.0000000e+00 3.4500000e+01 
7.5000000e-01 3.0000000e+00 3.5000000e+01 
7.5000000e-01 3.0000000e+00 3.5500000e+01 
7.5000000e-01 3.0000000e+00 3.6000000e+01 
7.5000000e-01 3.0000000e+00 3.6500000e+01 
7.5000000e-01 3.0000000e+00 3.7000000e+01 
7.5000000e-01 3.0000000e+00 3.7500000e+01 
7.5000000e-01 3.0000000e+00 3.8000000e+01 
7.5000000e-01 3.0000000e+00 3.8500000e+01 
7.5000000e-01 3.0000000e+00 3.9000000e+01 
7.5000000e-01 3.0000000e+00 3.9500000e+01 
7.5000000e-01 3.0000000e+00 4.0500000e+01 
7.5000000e-01 3.0000000e+00 4.1000000e+01 
7.5000000e-01 3.0000000e+00 4.1500000e+01 
7.5000000e-01 3.0000000e+00 4.2000000e+01 
7.5000000e-01 3.0000000e+00 4.2500000e+01 
7.5000000e-01 3.0000000e+00 4.3000000e+01 
7.5000000e-01 3.0000000e+00 4.3500000e+01 
7.5000000e-01 3.0000000e+00 4.4000000e+01 
7.5000000e-01 3.0000000e+00 4.4500000e+01 
7.5000000e-01 3.0000000e+00 4.5000000e+01 
7.5000000e-01 3.0000000e+00 4.5500000e+01 
7.5000000e-01 3.0000000e+00 4.6000000e+01 
7.5000000e-01 3.0000000e+00 4.6500000e+01 
7.5000000e-01 3.0000000e+00 4.7000000e+01 
7.5000000e-01 3.0000000e+00 4.7500000e+01 
7.5000000e-01 3.0000000e+00 4.8000000e+01 
7.5000000e-01 3.0000000e+00 4.8500000e+01 
7.5000000e-01 3.0000000e+00 4.9000000e+01 
7.5000000e-01 3.0000000e+00 4.9500000e+01 
7.5000000e-01 3.0000000e+00 5.0000000e+01 
7.5000000e-01 3.0250001e+00 0.0000000e+00 
7.5000000e-01 3.0250001e+00 5.0000000e-01 
7.5000000e-01 3.0250001e+00 1.0000000e+00 
7.5000000e-01 3.0250001e+00 1.5000000e+00 
7.5000000e-01 3.0250001e+00 2.0000000e+00 
7.5000000e-01 3.0250001e+00 2.5000000e+00 
7.5000000e-01 3.0250001e+00 3.0000000e+00 
7.5000000e-01 3.0250001e+00 3.5000000e+00 
7.5000000e-01 3.0250001e+00 4.0000000e+00 
7.5000000e-01 3.0250001e+00 4.5000000e+00 
7.5000000e-01 3.0250001e+00 5.0000000e+00 
7.5000000e-01 3.0250001e+00 5.5000000e+00 
7.5000000e-01 3.0250001e+00 6.0000000e+00 
7.5000000e-01 3.0250001e+00 6.5000000e+00 
7.5000000e-01 3.0250001e+00 7.0000000e+00 
7.5000000e-01 3.0250001e+00 7.5000000e+00 
7.5000000e-01 3.0250001e+00 8.0000000e+00 
7.5000000e-01 3.0250001e+00 8.5000000e+00 
7.5000000e-01 3.0250001e+00 9.0000000e+00 
7.5000000e-01 3.0250001e+00 9.5000000e+00 
7.5000000e-01 3.0250001e+00 1.0000000e+01 
7.5000000e-01 3.0250001e+00 1.0500000e+01 
7.5000000e-01 3.0250001e+00 1.1000000e+01 
7.5000000e-01 3.0250001e+00 1.1500000e+01 
7.5000000e-01 3.0250001e+00 1.2000000e+01 
7.5000000e-01 3.0250001e+00 1.2500000e+01 
7.5000000e-01 3.0250001e+00 1.3000000e+01 
7.5000000e-01 3.0250001e+00 1.3500000e+01 
7.5000000e-01 3.0250001e+00 1.4000000e+01 
7.5000000e-01 3.0250001e+00 1.4500000e+01 
7.5000000e-01 3.0250001e+00 1.5000000e+01 
7.5000000e-01 3.0250001e+00 1.5500000e+01 
7.5000000e-01 3.0250001e+00 1.6000000e+01 
7.5000000e-01 3.0250001e+00 1.6500000e+01 
7.5000000e-01 3.0250001e+00 1.7000000e+01 
7.5000000e-01 3.0250001e+00 1.7500000e+01 
7.5000000e-01 3.0250001e+00 1.8000000e+01 
7.5000000e-01 3.0250001e+00 1.8500000e+01 
7.5000000e-01 3.0250001e+00 1.9000000e+01 
7.5000000e-01 3.0250001e+00 1.9500000e+01 
7.5000000e-01 3.0250001e+00 2.0000000e+01 
7.5000000e-01 3.0250001e+00 2.0500000e+01 
7.5000000e-01 3.0250001e+00 2.1000000e+01 
7.5000000e-01 3.0250001e+00 2.1500000e+01 
7.5000000e-01 3.0250001e+00 2.2000000e+01 
7.5000000e-01 3.0250001e+00 2.2500000e+01 
7.5000000e-01 3.0250001e+00 2.3000000e+01 
7.5000000e-01 3.0250001e+00 2.3500000e+01 
7.5000000e-01 3.0250001e+00 2.4000000e+01 
7.5000000e-01 3.0250001e+00 2.4500000e+01 
7.5000000e-01 3.0250001e+00 2.5000000e+01 
7.5000000e-01 3.0250001e+00 2.5500000e+01 
7.5000000e-01 3.0250001e+00 2.6000000e+01 
7.5000000e-01 3.0250001e+00 2.6500000e+01 
7.5000000e-01 3.0250001e+00 2.7000000e+01 
7.5000000e-01 3.0250001e+00 2.7500000e+01 
7.5000000e-01 3.0250001e+00 2.8000000e+01 
7.5000000e-01 3.0250001e+00 2.8500000e+01 
7.5000000e-01 3.0250001e+00 2.9000000e+01 
7.5000000e-01 3.0250001e+00 2.9500000e+01 
7.5000000e-01 3.0250001e+00 3.0000000e+01 
7.5000000e-01 3.0250001e+00 3.0500000e+01 
7.5000000e-01 3.0250001e+00 3.1000000e+01 
7.5000000e-01 3.0250001e+00 3.1500000e+01 
7.5000000e-01 3.0250001e+00 3.2000000e+01 
7.5000000e-01 3.0250001e+00 3.2500000e+01 
7.5000000e-01 3.0250001e+00 3.3000000e+01 
7.5000000e-01 3.0250001e+00 3.3500000e+01 
7.5000000e-01 3.0250001e+00 3.4000000e+01 
7.5000000e-01 3.0250001e+00 3.4500000e+01 
7.5000000e-01 3.0250001e+00 3.5000000e+01 
7.5000000e-01 3.0250001e+00 3.5500000e+01 
7.5000000e-01 3.0250001e+00 3.6000000e+01 
7.5000000e-01 3.0250001e+00 3.6500000e+01 
7.5000000e-01 3.0250001e+00 3.7000000e+01 
7.5000000e-01 3.0250001e+00 3.7500000e+01 
7.5000000e-01 3.0250001e+00 3.8000000e+01 
7.5000000e-01 3.0250001e+00 3.8500000e+01 
7.5000000e-01 3.0250001e+00 3.9000000e+01 
7.5000000e-01 3.0250001e+00 3.9500000e+01 
7.5000000e-01 3.0250001e+00 4.0000000e+01 
7.5000000e-01 3.0250001e+00 4.0500000e+01 
7.5000000e-01 3.0250001e+00 4.1000000e+01 
7.5000000e-01 3.0250001e+00 4.1500000e+01 
7.5000000e-01 3.0250001e+00 4.2000000e+01 
7.5000000e-01 3.0250001e+00 4.2500000e+01 
7.5000000e-01 3.0250001e+00 4.3000000e+01 
7.5000000e-01 3.0250001e+00 4.3500000e+01 
7.5000000e-01 3.0250001e+00 4.4000000e+01 
7.5000000e-01 3.0250001e+00 4.4500000e+01 
7.5000000e-01 3.0250001e+00 4.5000000e+01 
7.5000000e-01 3.0250001e+00 4.5500000e+01 
7.5000000e-01 3.0250001e+00 4.6000000e+01 
7.5000000e-01 3.0250001e+00 4.6500000e+01 
7.5000000e-01 3.0250001e+00 4.7000000e+01 
7.5000000e-01 3.0250001e+00 4.7500000e+01 
7.5000000e-01 3.0250001e+00 4.8000000e+01 
7.5000000e-01 3.0250001e+00 4.8500000e+01 
7.5000000e-01 3.0250001e+00 4.9000000e+01 
7.5000000e-01 3.0250001e+00 4.9500000e+01 
7.5000000e-01 3.0250001e+00 5.0000000e+01 
7.5000000e-01 3.0250001e+00 3.5750000e+01 
3.0000000e+00 2.0000000e+00 3.6000000e+01 
8.0487806e-01 3.0000000e+00 3.6000000e+01 
0.0000000e+00 0.0000000e+00 2.0000000e+00 
0.0000000e+00 0.0000000e+00 4.0000000e+00 
0.0000000e+00 0.0000000e+00 6.0000000e+00 
0.0000000e+00 0.0000000e+00 8.0000000e+00 
0.0000000e+00 0.0000000e+00 1.0000000e+01 
0.0000000e+00 0.0000000e+00 1.2000000e+01 
0.0000000e+00 0.0000000e+00 1.4000000e+01 
[...]
POINT_DATA 662
FIELD FieldData 3
DISPLACEMENT 3 662  float
0.0000000e+00 0.0000000e+00 0.0000000e+00 
0.0000000e+00 0.0000000e+00 0.0000000e+00 
0.0000000e+00 0.0000000e+00 0.0000000e+00 
0.0000000e+00 0.0000000e+00 0.0000000e+00 
7.9855408e-06 -4.4362064e-06 -6.6920652e-06 
7.5913940e-06 6.1197375e-06 1.3740024e-05 
0.0000000e+00 -2.3398887e-05 0.0000000e+00 
0.0000000e+00 -1.5759203e-04 0.0000000e+00 
7.3149295e-06 -3.1520701e-06 -1.0324417e-05 
2.6090305e-05 6.7267151e-06 -7.8971436e-07 
6.9698672e-06 -1.7621387e-05 -2.2348308e-05 
3.4795485e-05 8.0519399e-05 -1.3079986e-05 
0.0000000e+00 -4.3035187e-05 0.0000000e+00 
0.0000000e+00 -3.1822119e-04 0.0000000e+00 
-5.8105920e-06 -5.3980064e-05 -5.7325989e-05 
-8.2305014e-05 -7.8748446e-05 -2.5761226e-04 
-1.3934387e-05 -4.5614248e-05 -4.5419529e-05 
-4.7981277e-05 -5.9469254e-04 -2.9685124e-04 
0.0000000e+00 -6.5677705e-05 0.0000000e+00 
0.0000000e+00 -1.8817800e-04 0.0000000e+00 
-1.8718957e-06 -4.1642768e-05 -4.0706789e-05 
8.2796869e-06 -3.1582324e-05 -3.3580687e-05 
1.2416293e-05 -1.7660583e-05 -2.6842861e-05 
1.7164939e-05 -7.0352093e-07 -1.5552214e-05 
1.9804866e-05 1.8550871e-05 -3.2362736e-06 
1.7430770e-05 3.8970189e-05 1.4333608e-06 
1.2243739e-05 5.8897509e-05 3.5710157e-06 
9.7686425e-06 7.6242970e-05 2.2892411e-06 
6.8194845e-06 8.9455149e-05 -3.7042048e-06 
5.9620761e-06 9.7765645e-05 -3.5167066e-06 
2.4872259e-06 1.0106828e-04 5.2369410e-06 
1.2680177e-07 1.0000078e-04 1.7311006e-05 
3.7612001e-06 9.4044415e-05 2.8307360e-05 
6.0456346e-06 8.3883453e-05 3.3975379e-05 
7.2381386e-06 6.9618764e-05 3.6468620e-05 
9.8525443e-06 5.2435236e-05 3.3322263e-05 
1.2098099e-05 3.4182962e-05 3.0315705e-05 
1.5909091e-05 1.7772767e-05 2.7841090e-05 
2.1093967e-05 6.9881348e-06 2.8581837e-05 
2.2692051e-05 4.4120475e-06 3.0610488e-05 
2.1928021e-05 1.1572504e-05 2.4085946e-05 
1.8969016e-05 2.1773261e-05 2.0455764e-05 
1.4379221e-05 2.3060766e-05 2.9958739e-05 
3.9888155e-06 -1.3437365e-05 4.3054551e-05 
-3.3979813e-05 -1.2836615e-04 7.3319847e-05 
-4.7038753e-05 -3.6371354e-04 1.0374620e-04 
-7.1095652e-05 -7.8201323e-04 1.4639991e-04 
-1.2526760e-04 -1.4277488e-03 9.3157549e-05 
-2.6930764e-04 -2.3233765e-03 1.7140609e-04 
-2.7719574e-04 -3.3015537e-03 1.5604404e-04 
-1.7909755e-04 -4.0733810e-03 1.0164331e-04 
-1.5597680e-04 -4.1078841e-03 1.1179056e-04 
-2.9181418e-04 -3.9608236e-03 4.9886949e-05 
-3.5418308e-04 -3.9829789e-03 3.1397292e-05 
-2.3526572e-04 -4.2696791e-03 -1.1878845e-05 
-7.8105266e-05 -4.3041809e-03 -6.5585933e-05 
-1.0101813e-04 -3.5848301e-03 -1.6538285e-04 
-1.9368302e-04 -2.5088815e-03 -1.9494124e-04 
-1.8605271e-04 -1.5604184e-03 -1.8918548e-04 
-5.7533933e-05 -8.3182182e-04 -1.2476789e-04 
-1.9079032e-05 -3.6363309e-04 -1.5991017e-04 
-3.7307630e-06 -9.1722155e-05 -1.2490619e-04 
4.6108170e-07 4.5648856e-05 -9.8754615e-05 
1.4474064e-05 1.0100471e-04 -6.9572008e-05 
1.7607483e-05 1.0785682e-04 -3.9477727e-05 
1.6748985e-05 9.1825161e-05 -1.5849551e-05 
6.8918284e-06 6.8125330e-05 -4.5436182e-06 
-3.3720355e-06 4.2081072e-05 -3.3555496e-06 
-8.9496361e-06 1.6856828e-05 -6.1396663e-06 
-1.0068062e-05 -6.5529171e-06 -1.0825545e-05 
-1.2234450e-05 -2.6569967e-05 -1.3613834e-05 
-1.7303850e-05 -4.1058142e-05 -1.5160953e-05 
-1.6638911e-05 -4.7916499e-05 -1.6948345e-05 
-1.6979666e-05 -4.8137266e-05 -2.0899066e-05 
-1.1980978e-05 -4.1231615e-05 -2.8027798e-05 
-2.9687812e-06 -2.5646585e-05 -3.3064305e-05 
1.6351631e-05 1.3269636e-06 -2.9783885e-05 
2.8859396e-05 3.9483013e-05 -2.4621551e-05 
4.1474803e-05 8.7583598e-05 -2.4835355e-05 
5.3443317e-05 1.4065026e-04 -1.7246241e-05 
5.6417764e-05 1.9235638e-04 -1.8641907e-05 
5.5482855e-05 2.3115710e-04 -8.3383020e-06 
4.4198565e-05 2.4061299e-04 1.3599128e-05 
2.5748594e-05 1.8998446e-04 3.8605616e-05 
-2.2164038e-05 3.3894084e-05 8.7329528e-05 
-3.4372610e-05 -2.6761295e-04 1.3177538e-04 
-6.5484492e-05 -7.7478279e-04 1.9201658e-04 
-1.2790442e-04 -1.5153214e-03 1.4310636e-04 
-2.6620706e-04 -2.4858546e-03 2.2127261e-04 
-2.7588097e-04 -3.4743273e-03 1.8331397e-04 
-1.8239956e-04 -4.1273199e-03 8.3420440e-05 
-3.7444558e-04 -4.0680408e-03 1.3135975e-04 
-2.6585269e-04 -3.9146612e-03 1.0388283e-04 
-2.9671766e-04 -3.9961464e-03 1.2658533e-05 
-1.0956588e-04 -4.3239738e-03 -1.3473685e-04 
-1.8534141e-04 -4.3385434e-03 -2.0775052e-04 
-1.8352779e-04 -3.5245828e-03 -3.5252870e-04 
-2.1462914e-04 -2.4227882e-03 -3.6885234e-04 
-1.5780306e-04 -1.4403198e-03 -1.5467910e-04 
0.0000000e+00 7.5550211e-05 0.0000000e+00 
0.0000000e+00 5.7238771e-04 0.0000000e+00 
0.0000000e+00 9.0364943e-04 0.0000000e+00 
0.0000000e+00 1.0848143e-03 0.0000000e+00 
0.0000000e+00 1.1366225e-03 0.0000000e+00 
0.0000000e+00 1.0834135e-03 0.0000000e+00 
0.0000000e+00 9.5207570e-04 0.0000000e+00 
0.0000000e+00 7.7100290e-04 0.0000000e+00 
0.0000000e+00 5.6812610e-04 0.0000000e+00 
0.0000000e+00 3.6796209e-04 0.0000000e+00 
0.0000000e+00 1.8881915e-04 0.0000000e+00 
0.0000000e+00 4.1622436e-05 0.0000000e+00 
0.0000000e+00 -6.9156995e-05 0.0000000e+00 
0.0000000e+00 -1.4345653e-04 0.0000000e+00 
0.0000000e+00 -1.8406786e-04 0.0000000e+00 
0.0000000e+00 -1.9634546e-04 0.0000000e+00 
0.0000000e+00 -1.8846465e-04 0.0000000e+00 
0.0000000e+00 -1.7087093e-04 0.0000000e+00 
0.0000000e+00 -1.5436883e-04 0.0000000e+00 
0.0000000e+00 -1.4759623e-04 0.0000000e+00 
0.0000000e+00 -4.5490604e-05 0.0000000e+00 
0.0000000e+00 -4.1639749e-05 0.0000000e+00 
0.0000000e+00 -3.1660617e-05 0.0000000e+00 
0.0000000e+00 -1.7670593e-05 0.0000000e+00 
0.0000000e+00 -6.8465562e-07 0.0000000e+00 
0.0000000e+00 1.8578190e-05 0.0000000e+00 
0.0000000e+00 3.9000854e-05 0.0000000e+00 
0.0000000e+00 5.8886922e-05 0.0000000e+00 
0.0000000e+00 7.6227981e-05 0.0000000e+00 
0.0000000e+00 8.9441557e-05 0.0000000e+00 
0.0000000e+00 9.7745200e-05 0.0000000e+00 
0.0000000e+00 1.0114304e-04 0.0000000e+00 
0.0000000e+00 9.9966222e-05 0.0000000e+00 
0.0000000e+00 9.4093688e-05 0.0000000e+00 
0.0000000e+00 8.3857616e-05 0.0000000e+00 
0.0000000e+00 6.9599875e-05 0.0000000e+00 
0.0000000e+00 5.2383410e-05 0.0000000e+00 
0.0000000e+00 3.4150507e-05 0.0000000e+00 
0.0000000e+00 1.7833258e-05 0.0000000e+00 
0.0000000e+00 7.0393698e-06 0.0000000e+00 
0.0000000e+00 4.7881363e-06 0.0000000e+00 
0.0000000e+00 1.1854501e-05 0.0000000e+00 
0.0000000e+00 2.2688579e-05 0.0000000e+00 
0.0000000e+00 2.3691782e-05 0.0000000e+00 
0.0000000e+00 -1.3278936e-05 0.0000000e+00 
0.0000000e+00 -1.2726898e-04 0.0000000e+00 
0.0000000e+00 -3.6433362e-04 0.0000000e+00 
0.0000000e+00 -7.8343070e-04 0.0000000e+00 
0.0000000e+00 -1.4368616e-03 0.0000000e+00 
0.0000000e+00 -2.3307619e-03 0.0000000e+00 
0.0000000e+00 -3.3330449e-03 0.0000000e+00 
0.0000000e+00 -4.0970254e-03 0.0000000e+00 
0.0000000e+00 -4.1383351e-03 0.0000000e+00 
0.0000000e+00 -3.9746119e-03 0.0000000e+00 
0.0000000e+00 -4.0138373e-03 0.0000000e+00 
0.0000000e+00 -4.2899763e-03 0.0000000e+00 
0.0000000e+00 -4.3390975e-03 0.0000000e+00 
0.0000000e+00 -3.6033804e-03 0.0000000e+00 
0.0000000e+00 -2.5279149e-03 0.0000000e+00 
0.0000000e+00 -1.5628535e-03 0.0000000e+00 
0.0000000e+00 -8.3630608e-04 0.0000000e+00 
0.0000000e+00 -3.6348062e-04 0.0000000e+00 
0.0000000e+00 -9.0895453e-05 0.0000000e+00 
0.0000000e+00 4.6714325e-05 0.0000000e+00 
0.0000000e+00 1.0144189e-04 0.0000000e+00 
0.0000000e+00 1.0838808e-04 0.0000000e+00 
0.0000000e+00 9.2350936e-05 0.0000000e+00 
0.0000000e+00 6.8249930e-05 0.0000000e+00 
0.0000000e+00 4.2180582e-05 0.0000000e+00 
0.0000000e+00 1.6812150e-05 0.0000000e+00 
0.0000000e+00 -6.6260723e-06 0.0000000e+00 
0.0000000e+00 -2.6565804e-05 0.0000000e+00 
0.0000000e+00 -4.0859595e-05 0.0000000e+00 
0.0000000e+00 -4.7963404e-05 0.0000000e+00 
0.0000000e+00 -4.8204627e-05 0.0000000e+00 
0.0000000e+00 -4.1314823e-05 0.0000000e+00 
0.0000000e+00 -2.5554289e-05 0.0000000e+00 
0.0000000e+00 1.3752693e-06 0.0000000e+00 
0.0000000e+00 3.9685998e-05 0.0000000e+00 
0.0000000e+00 8.7671302e-05 0.0000000e+00 
0.0000000e+00 1.4091187e-04 0.0000000e+00 
0.0000000e+00 1.9265337e-04 0.0000000e+00 
0.0000000e+00 2.3198166e-04 0.0000000e+00 
0.0000000e+00 2.4140389e-04 0.0000000e+00 
0.0000000e+00 1.8987696e-04 0.0000000e+00 
0.0000000e+00 3.5027799e-05 0.0000000e+00 
0.0000000e+00 -2.6890569e-04 0.0000000e+00 
0.0000000e+00 -7.7671011e-04 0.0000000e+00 
0.0000000e+00 -1.5254429e-03 0.0000000e+00 
0.0000000e+00 -2.4944430e-03 0.0000000e+00 
0.0000000e+00 -3.5076323e-03 0.0000000e+00 
0.0000000e+00 -4.1533881e-03 0.0000000e+00 
0.0000000e+00 -4.0936074e-03 0.0000000e+00 
0.0000000e+00 -3.9303061e-03 0.0000000e+00 
0.0000000e+00 -4.0265555e-03 0.0000000e+00 
0.0000000e+00 -4.3549817e-03 0.0000000e+00 
0.0000000e+00 -4.3593561e-03 0.0000000e+00 
0.0000000e+00 -3.5427879e-03 0.0000000e+00 
0.0000000e+00 -2.4424777e-03 0.0000000e+00 
0.0000000e+00 -1.4387950e-03 0.0000000e+00 
0.0000000e+00 -5.9561152e-04 0.0000000e+00 
0.0000000e+00 7.5201038e-05 0.0000000e+00 
0.0000000e+00 5.7208567e-04 0.0000000e+00 
0.0000000e+00 9.0343127e-04 0.0000000e+00 
0.0000000e+00 1.0846774e-03 0.0000000e+00 
0.0000000e+00 1.1365456e-03 0.0000000e+00 
0.0000000e+00 1.0833874e-03 0.0000000e+00 
0.0000000e+00 9.5211581e-04 0.0000000e+00 
0.0000000e+00 7.7113509e-04 0.0000000e+00 
0.0000000e+00 5.6835846e-04 0.0000000e+00 
0.0000000e+00 3.6826092e-04 0.0000000e+00 
0.0000000e+00 1.8911422e-04 0.0000000e+00 
0.0000000e+00 4.1848485e-05 0.0000000e+00 
0.0000000e+00 -6.9013477e-05 0.0000000e+00 
0.0000000e+00 -1.4335717e-04 0.0000000e+00 
0.0000000e+00 -1.8397624e-04 0.0000000e+00 
0.0000000e+00 -1.9627504e-04 0.0000000e+00 
0.0000000e+00 -1.8846284e-04 0.0000000e+00 
0.0000000e+00 -1.7096347e-04 0.0000000e+00 
0.0000000e+00 -1.5453449e-04 0.0000000e+00 
0.0000000e+00 -1.4778759e-04 0.0000000e+00 
0.0000000e+00 -4.1810470e-03 0.0000000e+00 
9.8989520e-05 -1.6110481e-04 1.1220493e-05 
-1.7769045e-04 -3.5441036e-03 1.4781363e-04 
0.0000000e+00 0.0000000e+00 0.0000000e+00 
0.0000000e+00 0.0000000e+00 0.0000000e+00 
0.0000000e+00 0.0000000e+00 0.0000000e+00 
0.0000000e+00 0.0000000e+00 0.0000000e+00 
0.0000000e+00 0.0000000e+00 0.0000000e+00 
0.0000000e+00 0.0000000e+00 0.0000000e+00 
0.0000000e+00 0.0000000e+00 0.0000000e+00 
0.0000000e+00 0.0000000e+00 0.0000000e+00 
0.0000000e+00 0.0000000e+00 0.0000000e+00 
0.0000000e+00 0.0000000e+00 0.0000000e+00 
0.0000000e+00 0.0000000e+00 0.0000000e+00 
0.0000000e+00 0.0000000e+00 0.0000000e+00 
0.0000000e+00 0.0000000e+00 0.0000000e+00 
0.0000000e+00 0.0000000e+00 0.0000000e+00 
0.0000000e+00 0.0000000e+00 0.0000000e+00 
0.0000000e+00 0.0000000e+00 0.0000000e+00 
0.0000000e+00 0.0000000e+00 0.0000000e+00 
0.0000000e+00 0.0000000e+00 0.0000000e+00 
0.0000000e+00 0.0000000e+00 0.0000000e+00 
0.0000000e+00 0.0000000e+00 0.0000000e+00 
0.0000000e+00 0.0000000e+00 0.0000000e+00 
0.0000000e+00 0.0000000e+00 0.0000000e+00 
0.0000000e+00 0.0000000e+00 0.0000000e+00 
0.0000000e+00 0.0000000e+00 0.0000000e+00 
0.0000000e+00 0.0000000e+00 0.0000000e+00 
0.0000000e+00 0.0000000e+00 0.0000000e+00 
0.0000000e+00 0.0000000e+00 0.0000000e+00 
0.0000000e+00 0.0000000e+00 0.0000000e+00 
0.0000000e+00 0.0000000e+00 0.0000000e+00 
0.0000000e+00 0.0000000e+00 0.0000000e+00 
0.0000000e+00 0.0000000e+00 0.0000000e+00 
0.0000000e+00 0.0000000e+00 0.0000000e+00 
0.0000000e+00 0.0000000e+00 0.0000000e+00 
0.0000000e+00 0.0000000e+00 0.0000000e+00 
0.0000000e+00 0.0000000e+00 0.0000000e+00 
0.0000000e+00 0.0000000e+00 0.0000000e+00 
0.0000000e+00 0.0000000e+00 0.0000000e+00 
0.0000000e+00 0.0000000e+00 0.0000000e+00 
0.0000000e+00 0.0000000e+00 0.0000000e+00 
0.0000000e+00 0.0000000e+00 0.0000000e+00 
0.0000000e+00 0.0000000e+00 0.0000000e+00 
0.0000000e+00 0.0000000e+00 0.0000000e+00 
4.4142748e-06 -1.8507877e-06 -4.7063309e-06 
1.1395379e-06 -1.1811284e-06 6.2920964e-07 
-5.9740864e-06 -2.5279968e-07 3.0768176e-06 
-1.0564526e-05 3.0662668e-06 -1.0491064e-07 
-4.4487256e-06 1.0138280e-07 -3.1215695e-06 
1.1695014e-05 -3.6124452e-06 -6.1508154e-06 
3.6386144e-05 -7.1332393e-06 -1.0618047e-05 
5.4493761e-05 -7.9261927e-06 -2.7980025e-06 
4.7520116e-05 -5.8669089e-06 8.1469370e-06 
2.1743052e-05 -2.3637538e-06 4.4155272e-06 
5.4995298e-06 -1.6475627e-06 9.9958731e-07 
2.4416693e-06 -1.1847469e-06 1.3305831e-07 
-2.2390836e-06 -2.3907085e-06 3.1272884e-06 
-8.0685641e-06 -2.0895045e-06 2.2167928e-06 
-5.9691943e-06 8.1434848e-07 -2.4484234e-07 
1.9724869e-06 3.2410583e-06 -8.0956688e-06 
3.4230274e-05 -4.6903610e-06 -1.8108583e-05 
5.6654244e-05 -2.0483534e-05 -2.2345566e-06 
4.2506043e-05 -1.3746236e-05 1.9530438e-05 
0.0000000e+00 7.6529665e-07 0.0000000e+00 
0.0000000e+00 2.4954219e-05 0.0000000e+00 
0.0000000e+00 2.9632129e-05 0.0000000e+00 
0.0000000e+00 1.2680996e-05 0.0000000e+00 
0.0000000e+00 -2.8044894e-06 0.0000000e+00 
0.0000000e+00 -2.0248377e-05 0.0000000e+00 
0.0000000e+00 -2.2082998e-04 0.0000000e+00 
0.0000000e+00 -5.4257893e-04 0.0000000e+00 
0.0000000e+00 -5.3142832e-04 0.0000000e+00 
0.0000000e+00 -1.5272138e-04 0.0000000e+00 
0.0000000e+00 1.0787311e-05 0.0000000e+00 
0.0000000e+00 1.1901366e-05 0.0000000e+00 
0.0000000e+00 -2.0735140e-05 0.0000000e+00 
0.0000000e+00 -7.7000841e-06 0.0000000e+00 
0.0000000e+00 4.5941913e-05 0.0000000e+00 
0.0000000e+00 4.1859465e-05 0.0000000e+00 
0.0000000e+00 -2.1870398e-04 0.0000000e+00 
0.0000000e+00 -5.7816249e-04 0.0000000e+00 
0.0000000e+00 -5.1681645e-04 0.0000000e+00 
7.3999354e-06 -8.2781180e-06 -1.1313131e-05 
4.8682964e-06 -2.0554569e-05 -1.4176986e-05 
4.0405699e-05 3.5225985e-05 1.7298978e-05 
7.6167322e-05 -8.5185959e-05 1.1091353e-04 
6.0084067e-06 -2.9651999e-06 -7.7042632e-06 
4.5251354e-06 -4.0048576e-06 -8.9948827e-07 
-4.1824760e-06 -2.2076551e-06 3.1727031e-06 
-1.2580669e-05 2.5532279e-06 7.4647818e-07 
-6.9568787e-06 1.8374207e-06 -3.4968889e-06 
1.9371901e-05 -3.0471001e-06 -8.2458982e-06 
3.5541325e-05 -5.4878169e-06 -4.6295977e-06 
3.9064991e-05 -6.7851229e-06 -2.6374389e-07 
2.7006525e-05 -2.7417566e-06 6.7583169e-06 
1.1592251e-05 1.5090533e-06 -2.8997283e-06 
9.8171240e-06 -2.2466581e-06 -1.4007900e-06 
4.3641962e-06 -3.4570792e-06 1.3610558e-06 
-4.4265039e-06 -4.7466347e-06 4.4916537e-06 
-1.0436460e-05 -2.4373453e-06 -7.8642117e-08 
9.4120776e-07 5.0287628e-07 -7.0923188e-06 
1.7806104e-05 3.4493628e-06 -9.5805854e-06 
3.5184145e-05 -3.3959159e-06 -7.3097813e-06 
4.7669695e-05 -1.2986964e-05 7.8080157e-06 
3.1935055e-05 -2.8935676e-06 1.1497257e-05 
5.7504953e-06 -3.2409804e-05 -2.4516781e-05 
0.0000000e+00 7.5950442e-07 0.0000000e+00 
0.0000000e+00 4.7657322e-05 0.0000000e+00 
0.0000000e+00 5.6219600e-05 0.0000000e+00 
0.0000000e+00 2.5504472e-05 0.0000000e+00 
0.0000000e+00 -7.9146121e-06 0.0000000e+00 
0.0000000e+00 -2.5193796e-05 0.0000000e+00 
0.0000000e+00 -4.6099749e-04 0.0000000e+00 
0.0000000e+00 -1.1999925e-03 0.0000000e+00 
0.0000000e+00 -1.1829534e-03 0.0000000e+00 
0.0000000e+00 -2.8730577e-04 0.0000000e+00 
0.0000000e+00 3.5036333e-05 0.0000000e+00 
0.0000000e+00 2.1099226e-05 0.0000000e+00 
0.0000000e+00 -3.4437631e-05 0.0000000e+00 
0.0000000e+00 -1.7411883e-05 0.0000000e+00 
0.0000000e+00 8.4861691e-05 0.0000000e+00 
0.0000000e+00 9.2232476e-05 0.0000000e+00 
0.0000000e+00 -4.6276869e-04 0.0000000e+00 
0.0000000e+00 -1.3049933e-03 0.0000000e+00 
0.0000000e+00 -1.1439229e-03 0.0000000e+00 
5.6955458e-05 -2.3405660e-04 5.8757050e-05 
2.0784622e-05 -1.1658102e-06 -2.0259036e-05 
1.4028123e-05 4.8108868e-05 1.5376147e-06 
3.3643969e-06 6.4677944e-05 2.3058479e-05 
4.9693576e-06 4.3028198e-05 3.5393525e-05 
3.6070087e-05 -1.3933524e-05 4.9708411e-05 
2.0782856e-05 2.1407668e-05 7.5543350e-05 
-2.8190599e-04 -4.4291007e-04 2.8216516e-04 
-7.0289284e-04 -1.3437400e-03 1.2160120e-04 
-6.4193620e-04 -1.4797216e-03 -1.5035647e-04 
-1.3206592e-04 -2.4757968e-04 -2.4968197e-04 
3.3794207e-05 4.9841470e-05 -7.4227151e-05 
7.6965233e-07 1.8603663e-05 -1.8362398e-06 
-2.7580962e-05 -3.4700519e-05 -2.7622352e-06 
-8.8854704e-06 -1.3511363e-05 -4.9700273e-05 
7.4893673e-05 6.8373447e-05 -2.5689536e-05 
5.6415771e-05 1.8020351e-04 7.8067344e-05 
-3.2292077e-04 -4.5549884e-04 3.9001362e-04 
-5.1086437e-04 -1.7416264e-03 1.4732544e-04 
-6.0097914e-04 -1.2644315e-03 -2.2135543e-04 
0.0000000e+00 -5.6822078e-06 0.0000000e+00 
0.0000000e+00 7.3366347e-05 0.0000000e+00 
0.0000000e+00 8.7492845e-05 0.0000000e+00 
0.0000000e+00 3.6942918e-05 0.0000000e+00 
0.0000000e+00 -1.5922895e-05 0.0000000e+00 
0.0000000e+00 5.0087747e-06 0.0000000e+00 
0.0000000e+00 -8.5857388e-04 0.0000000e+00 
0.0000000e+00 -2.3236123e-03 0.0000000e+00 
0.0000000e+00 -2.2568868e-03 0.0000000e+00 
0.0000000e+00 -4.9071660e-04 0.0000000e+00 
0.0000000e+00 8.2939019e-05 0.0000000e+00 
0.0000000e+00 3.7441572e-05 0.0000000e+00 
0.0000000e+00 -4.4203178e-05 0.0000000e+00 
0.0000000e+00 -3.7094513e-05 0.0000000e+00 
0.0000000e+00 1.1699409e-04 0.0000000e+00 
0.0000000e+00 1.9020560e-04 0.0000000e+00 
0.0000000e+00 -9.1247942e-04 0.0000000e+00 
0.0000000e+00 -2.4200883e-03 0.0000000e+00 
0.0000000e+00 -2.2418278e-03 0.0000000e+00 
6.4128412e-06 -1.6692964e-06 -6.5152699e-06 
3.2477499e-07 9.2221399e-06 1.2913047e-06 
-1.2550033e-05 1.2193545e-05 8.6087321e-06 
-9.0046560e-06 1.0331495e-05 9.9651152e-06 
8.8330844e-06 -6.1608273e-07 1.3120844e-05 
2.3155899e-05 2.0377902e-05 1.6909114e-05 
5.5320663e-05 -4.7437003e-05 3.8247085e-06 
5.3388569e-05 -1.0130301e-04 -9.1033144e-06 
4.1757943e-05 -1.0410986e-04 -2.9481225e-07 
3.8708349e-05 -5.3415599e-05 -4.4599806e-06 
3.9747574e-06 1.3034465e-05 -1.5135176e-05 
-4.8211168e-06 3.1580494e-06 -1.0310287e-05 
-1.3863486e-05 -1.0986141e-05 -3.3087017e-06 
-9.7311140e-06 -7.1604436e-06 -8.0875670e-06 
7.7213435e-06 2.2180267e-05 -2.3191114e-06 
1.6311320e-05 5.0998628e-05 1.1302432e-05 
4.4954068e-05 -3.0587744e-05 1.2750064e-05 
5.0871957e-05 -1.1706018e-04 1.3366284e-05 
-7.6320728e-05 -1.1440227e-03 7.6579920e-05 
0.0000000e+00 0.0000000e+00 0.0000000e+00 
0.0000000e+00 0.0000000e+00 0.0000000e+00 
0.0000000e+00 0.0000000e+00 0.0000000e+00 
0.0000000e+00 0.0000000e+00 0.0000000e+00 
0.0000000e+00 0.0000000e+00 0.0000000e+00 
0.0000000e+00 0.0000000e+00 0.0000000e+00 
0.0000000e+00 0.0000000e+00 0.0000000e+00 
0.0000000e+00 0.0000000e+00 0.0000000e+00 
0.0000000e+00 0.0000000e+00 0.0000000e+00 
0.0000000e+00 0.0000000e+00 0.0000000e+00 
0.0000000e+00 0.0000000e+00 0.0000000e+00 
0.0000000e+00 0.0000000e+00 0.0000000e+00 
0.0000000e+00 0.0000000e+00 0.0000000e+00 
0.0000000e+00 0.0000000e+00 0.0000000e+00 
0.0000000e+00 0.0000000e+00 0.0000000e+00 
0.0000000e+00 0.0000000e+00 0.0000000e+00 
0.0000000e+00 0.0000000e+00 0.0000000e+00 
0.0000000e+00 0.0000000e+00 0.0000000e+00 
0.0000000e+00 0.0000000e+00 0.0000000e+00 
0.0000000e+00 0.0000000e+00 0.0000000e+00 
0.0000000e+00 0.0000000e+00 0.0000000e+00 
0.0000000e+00 0.0000000e+00 0.0000000e+00 
0.0000000e+00 0.0000000e+00 0.0000000e+00 
0.0000000e+00 0.0000000e+00 0.0000000e+00 
0.0000000e+00 0.0000000e+00 0.0000000e+00 
0.0000000e+00 0.0000000e+00 0.0000000e+00 
0.0000000e+00 0.0000000e+00 0.0000000e+00 
0.0000000e+00 0.0000000e+00 0.0000000e+00 
0.0000000e+00 0.0000000e+00 0.0000000e+00 
0.0000000e+00 0.0000000e+00 0.0000000e+00 
0.0000000e+00 0.0000000e+00 0.0000000e+00 
0.0000000e+00 0.0000000e+00 0.0000000e+00 
0.0000000e+00 0.0000000e+00 0.0000000e+00 
0.0000000e+00 0.0000000e+00 0.0000000e+00 
0.0000000e+00 0.0000000e+00 0.0000000e+00 
0.0000000e+00 0.0000000e+00 0.0000000e+00 
0.0000000e+00 0.0000000e+00 0.0000000e+00 
0.0000000e+00 0.0000000e+00 0.0000000e+00 
0.0000000e+00 0.0000000e+00 0.0000000e+00 
0.0000000e+00 0.0000000e+00 0.0000000e+00 
0.0000000e+00 0.0000000e+00 0.0000000e+00 
0.0000000e+00 0.0000000e+00 0.0000000e+00 
3.3702602e-06 -1.8143071e-06 -2.7430931e-06 
1.0438364e-05 -7.2110029e-06 -5.9328440e-06 
2.7573400e-05 -9.9672843e-06 -3.9106894e-06 
8.1940937e-07 -3.0746790e-07 -8.3125968e-07 
1.1051256e-06 -5.9281143e-07 2.0011003e-06 
-2.6008411e-06 -1.0281320e-06 9.4304852e-07 
-4.0206623e-06 -1.7966576e-07 5.5623934e-07 
-3.2337975e-06 2.5183533e-06 -2.0264361e-07 