# vtk DataFile Version 4.0
vtk output
ASCII
DATASET UNSTRUCTURED_GRID
POINTS 662 float
0.0000000e+00 0.0000000e+00 0.0000000e+00 
0.0000000e+00 0.0000000e+00 4.0000000e+01 
5.0000000e+00 0.0000000e+00 0.0000000e+00 
5.0000000e+00 0.0000000e+00 4.0000000e+01 
5.0000000e+00 1.0000000e+00 0.0000000e+00 
5.0000000e+00 1.0000000e+00 4.0000000e+01 
0.0000000e+00 1.0000000e+00 0.0000000e+00 
0.0000000e+00 1.0000000e+00 4.0000000e+01 
5.0000000e+00 2.0000000e+00 0.0000000e+00 
5.0000000e+00 2.0000000e+00 4.0000000e+01 
3.0000000e+00 2.0000000e+00 0.0000000e+00 
3.0000000e+00 2.0000000e+00 4.0000000e+01 
0.0000000e+00 2.0000000e+00 0.0000000e+00 
0.0000000e+00 2.0000000e+00 4.0000000e+01 
1.5000000e+00 3.0000000e+00 0.0000000e+00 
1.5000000e+00 3.0000000e+00 4.0000000e+01 
7.5000000e-01 3.0000000e+00 0.0000000e+00 
7.5000000e-01 3.0000000e+00 4.0000000e+01 
0.0000000e+00 3.0000000e+00 0.0000000e+00 
0.0000000e+00 3.0000000e+00 4.0000000e+01 
7.5000000e-01 3.0000000e+00 5.0000000e-01 
7.5000000e-01 3.0000000e+00 1.0000000e+00 
7.5000000e-01 3.0000000e+00 1.5000000e+00 
7.5000000e-01 3.0000000e+00 2.0000000e+00 
7.5000000e-01 3.0000000e+00 2.5000000e+00 
7.5000000e-01 3.0000000e+00 3.0000000e+00 
7.5000000e-01 3.0000000e+00 3.5000000e+00 
7.5000000e-01 3.0000000e+00 4.0000000e+00 
7.5000000e-01 3.0000000e+00 4.5000000e+00 
7.5000000e-01 3.0000000e+00 5.0000000e+00 
7.5000000e-01 3.0000000e+00 5.5000000e+00 
7.5000000e-01 3.0000000e+00 6.0000000e+00 
7.5000000e-01 3.0000000e+00 6.5000000e+00 
7.5000000e-01 3.0000000e+00 7.0000000e+00 
7.5000000e-01 3.0000000e+00 7.5000000e+00 
7.5000000e-01 3.0000000e+00 8.0000000e+00 
7.5000000e-01 3.0000000e+00 8.5000000e+00 
7.5000000e-01 3.0000000e+00 9.0000000e+00 
7.5000000e-01 3.0000000e+00 9.5000000e+00 
7.5000000e-01 3.0000000e+00 1.0000000e+01 
7.5000000e-01 3.0000000e+00 1.0500000e+01 
7.5000000e-01 3.0000000e+00 1.1000000e+01 
7.5000000e-01 3.0000000e+00 1.1500000e+01 
7.5000000e-01 3.0000000e+00 1.2000000e+01 
7.5000000e-01 3.0000000e+00 1.2500000e+01 
7.5000000e-01 3.0000000e+00 1.3000000e+01 
7.5000000e-01 3.0000000e+00 1.3500000e+01 
7.5000000e-01 3.0000000e+00 1.4000000e+01 
7.5000000e-01 3.0000000e+00 1.4500000e+01 
7.5000000e-01 3.0000000e+00 1.5000000e+01 
7.5000000e-01 3.0000000e+00 1.5500000e+01 
7.5000000e-01 3.0000000e+00 1.6000000e+01 
7.5000000e-01 3.0000000e+00 1.6500000e+01 
7.5000000e-01 3.0000000e+00 1.7000000e+01 
7.5000000e-01 3.0000000e+00 1.7500000e+01 
7.5000000e-01 3.0000000e+00 1.8000000e+01 
7.5000000e-01 3.0000000e+00 1.8500000e+01 
7.5000000e-01 3.0000000e+00 1.9000000e+01 
7.5000000e-01 3.0000000e+00 1.9500000e+01 
7.5000000e-01 3.0000000e+00 2.0000000e+01 
7.5000000e-01 3.0000000e+00 2.0500000e+01 
7.5000000e-01 3.0000000e+00 2.1000000e+01 
7.5000000e-01 3.0000000e+00 2.1500000e+01 
7.5000000e-01 3.0000000e+00 2.2000000e+01 
7.5000000e-01 3.0000000e+00 2.2500000e+01 
7.5000000e-01 3.0000000e+00 2.3000000e+01 
7.5000000e-01 3.0000000e+00 2.3500000e+01 
7.5000000e-01 3.0000000e+00 2.4000000e+01 
7.5000000e-01 3.0000000e+00 2.4500000e+01 
7.5000000e-01 3.0000000e+00 2.5000000e+01 
7.5000000e-01 3.0000000e+00 2.5500000e+01 
7.5000000e-01 3.0000000e+00 2.6000000e+01 
7.5000000e-01 3.0000000e+00 2.6500000e+01 
7.5000000e-01 3.0000000e+00 2.7000000e+01 
7.5000000e-01 3.0000000e+00 2.7500000e+01 
7.5000000e-01 3.0000000e+00 2.8000000e+01 
7.5000000e-01 3.0000000e+00 2.8500000e+01 
7.5000000e-01 3.0000000e+00 2.9000000e+01 
7.5000000e-01 3.0000000e+00 2.9500000e+01 
7.5000000e-01 3.0000000e+00 3.0000000e+01 
7.5000000e-01 3.0000000e+00 3.0500000e+01 
7.5000000e-01 3.0000000e+00 3.1000000e+01 
7.5000000e-01 3.0000000e+00 3.1500000e+01 
7.5000000e-01 3.0000000e+00 3.2000000e+01 
7.5000000e-01 3.0000000e+00 3.2500000e+01 
7.5000000e-01 3.0000000e+00 3.3000000e+01 
7.5000000e-01 3.0000000e+00 3.3500000e+01 
7.5000000e-01 3.0000000e+00 3.4000000e+01 
7.5000000e-01 3.0000000e+00 3.4500000e+01 
7.5000000e-01 3.0000000e+00 3.5000000e+01 
7.5000000e-01 3.0000000e+00 3.5500000e+01 
7.5000000e-01 3.0000000e+00 3.6000000e+01 
7.5000000e-01 3.0000000e+00 3.6500000e+01 
7.5000000e-01 3.0000000e+00 3.7000000e+01 
7.5000000e-01 3.0000000e+00 3.7500000e+01 
7.5000000e-01 3.0000000e+00 3.8000000e+01 
7.5000000e-01 3.0000000e+00 3.8500000e+01 
7.5000000e-01 3.0000000e+00 3.9000000e+01 
7.5000000e-01 3.0000000e+00 3.9500000e+01 
7.5000000e-01 3.0000000e+00 4.0500000e+01 
7.5000000e-01 3.0000000e+00 4.1000000e+01 
7.5000000e-01 3.0000000e+00 4.1500000e+01 
7.5000000e-01 3.0000000e+00 4.2000000e+01 
7.5000000e-01 3.0000000e+00 4.2500000e+01 
7.5000000e-01 3.0000000e+00 4.3000000e+01 
7.5000000e-01 3.0000000e+00 4.3500000e+01 
7.5000000e-01 3.0000000e+00 4.4000000e+01 
7.5000000e-01 3.0000000e+00 4.4500000e+01 
7.5000000e-01 3.0000000e+00 4.5000000e+01 
7.5000000e-01 3.0000000e+00 4.5500000e+01 
7.5000000e-01 3.0000000e+00 4.6000000e+01 
7.5000000e-01 3.0000000e+00 4.6500000e+01 
7.5000000e-01 3.0000000e+00 4.7000000e+01 
7.5000000e-01 3.0000000e+00 4.7500000e+01 
7.5000000e-01 3.0000000e+00 4.8000000e+01 
7.5000000e-01 3.0000000e+00 4.8500000e+01 
7.5000000e-01 3.0000000e+00 4.9000000e+01 
7.5000000e-01 3.0000000e+00 4.9500000e+01 
7.5000000e-01 3.0000000e+00 5.0000000e+01 
7.5000000e-01 3.0250001e+00 0.0000000e+00 
7.5000000e-01 3.0250001e+00 5.0000000e-01 
7.5000000e-01 3.0250001e+00 1.0000000e+00 
7.5000000e-01 3.0250001e+00 1.5000000e+00 
7.5000000e-01 3.0250001e+00 2.0000000e+00 
7.5000000e-01 3.0250001e+00 2.5000000e+00 
7.5000000e-01 3.0250001e+00 3.0000000e+00 
7.5000000e-01 3.0250001e+00 3.5000000e+00 
7.5000000e-01 3.0250001e+00 4.0000000e+00 
7.5000000e-01 3.0250001e+00 4.5000000e+00 
7.5000000e-01 3.0250001e+00 5.0000000e+00 
7.5000000e-01 3.0250001e+00 5.5000000e+00 
7.5000000e-01 3.0250001e+00 6.0000000e+00 
7.5000000e-01 3.0250001e+00 6.5000000e+00 
7.5000000e-01 3.0250001e+00 7.0000000e+00 
7.5000000e-01 3.0250001e+00 7.5000000e+00 
7.5000000e-01 3.0250001e+00 8.0000000e+00 
7.5000000e-01 3.0250001e+00 8.5000000e+00 
7.5000000e-01 3.0250001e+00 9.0000000e+00 
7.5000000e-01 3.0250001e+00 9.5000000e+00 
7.5000000e-01 3.0250001e+00 1.0000000e+01 
7.5000000e-01 3.0250001e+00 1.0500000e+01 
7.5000000e-01 3.0250001e+00 1.1000000e+01 
7.5000000e-01 3.0250001e+00 1.1500000e+01 
7.5000000e-01 3.0250001e+00 1.2000000e+01 
7.5000000e-01 3.0250001e+00 1.2500000e+01 
7.5000000e-01 3.0250001e+00 1.3000000e+01 
7.5000000e-01 3.0250001e+00 1.3500000e+01 
7.5000000e-01 3.0250001e+00 1.4000000e+01 
7.5000000e-01 3.0250001e+00 1.4500000e+01 
7.5000000e-01 3.0250001e+00 1.5000000e+01 
7.5000000e-01 3.0250001e+00 1.5500000e+01 
7.5000000e-01 3.0250001e+00 1.6000000e+01 
7.5000000e-01 3.0250001e+00 1.6500000e+01 
7.5000000e-01 3.0250001e+00 1.7000000e+01 
7.5000000e-01 3.0250001e+00 1.7500000e+01 
7.5000000e-01 3.0250001e+00 1.8000000e+01 
7.5000000e-01 3.0250001e+00 1.8500000e+01 
7.5000000e-01 3.0250001e+00 1.9000000e+01 
7.5000000e-01 3.0250001e+00 1.9500000e+01 
7.5000000e-01 3.0250001e+00 2.0000000e+01 
7.5000000e-01 3.0250001e+00 2.0500000e+01 
7.5000000e-01 3.0250001e+00 2.1000000e+01 
7.5000000e-01 3.0250001e+00 2.1500000e+01 
7.5000000e-01 3.0250001e+00 2.2000000e+01 
7.5000000e-01 3.0250001e+00 2.2500000e+01 
7.5000000e-01 3.0250001e+00 2.3000000e+01 
7.5000000e-01 3.0250001e+00 2.3500000e+01 
7.5000000e-01 3.0250001e+00 2.4000000e+01 
7.5000000e-01 3.0250001e+00 2.4500000e+01 
7.5000000e-01 3.0250001e+00 2.5000000e+01 
7.5000000e-01 3.0250001e+00 2.5500000e+01 
7.5000000e-01 3.0250001e+00 2.6000000e+01 
7.5000000e-01 3.0250001e+00 2.6500000e+01 
7.5000000e-01 3.0250001e+00 2.7000000e+01 
7.5000000e-01 3.0250001e+00 2.7500000e+01 
7.5000000e-01 3.0250001e+00 2.8000000e+01 
7.5000000e-01 3.0250001e+00 2.8500000e+01 
7.5000000e-01 3.0250001e+00 2.9000000e+01 
7.5000000e-01 3.0250001e+00 2.9500000e+01 
7.5000000e-01 3.0250001e+00 3.0000000e+01 
7.5000000e-01 3.0250001e+00 3.0500000e+01 
7.5000000e-01 3.0250001e+00 3.1000000e+01 
7.5000000e-01 3.0250001e+00 3.1500000e+01 
7.5000000e-01 3.0250001e+00 3.2000000e+01 
7.5000000e-01 3.0250001e+00 3.2500000e+01 
7.5000000e-01 3.0250001e+00 3.3000000e+01 
7.5000000e-01 3.0250001e+00 3.3500000e+01 
7.5000000e-01 3.0250001e+00 3.4000000e+01 
7.5000000e-01 3.0250001e+00 3.4500000e+01 
7.5000000e-01 3.0250001e+00 3.5000000e+01 
7.5000000e-01 3.0250001e+00 3.5500000e+01 
7.5000000e-01 3.0250001e+00 3.6000000e+01 
7.5000000e-01 3.0250001e+00 3.6500000e+01 
7.5000000e-01 3.0250001e+00 3.7000000e+01 
7.5000000e-01 3.0250001e+00 3.7500000e+01 
7.5000000e-01 3.0250001e+00 3.8000000e+01 
7.5000000e-01 3.0250001e+00 3.8500000e+01 
7.5000000e-01 3.0250001e+00 3.9000000e+01 
7.5000000e-01 3.0250001e+00 3.9500000e+01 
7.5000000e-01 3.0250001e+00 4.0000000e+01 
7.5000000e-01 3.0250001e+00 4.0500000e+01 
7.5000000e-01 3.0250001e+00 4.1000000e+01 
7.5000000e-01 3.0250001e+00 4.1500000e+01 
7.5000000e-01 3.0250001e+00 4.2000000e+01 
7.5000000e-01 3.0250001e+00 4.2500000e+01 
7.5000000e-01 3.0250001e+00 4.3000000e+01 
7.5000000e-01 3.0250001e+00 4.3500000e+01 
7.5000000e-01 3.0250001e+00 4.4000000e+01 
7.5000000e-01 3.0250001e+00 4.4500000e+01 
7.5000000e-01 3.0250001e+00 4.5000000e+01 
7.5000000e-01 3.0250001e+00 4.5500000e+01 
7.5000000e-01 3.0250001e+00 4.6000000e+01 
7.5000000e-01 3.0250001e+00 4.6500000e+01 
7.5000000e-01 3.0250001e+00 4.7000000e+01 
7.5000000e-01 3.0250001e+00 4.7500000e+01 
7.5000000e-01 3.0250001e+00 4.8000000e+01 
7.5000000e-01 3.0250001e+00 4.8500000e+01 
7.5000000e-01 3.0250001e+00 4.9000000e+01 
7.5000000e-01 3.0250001e+00 4.9500000e+01 
7.5000000e-01 3.0250001e+00 5.0000000e+01 
7.5000000e-01 3.0250001e+00 3.5750000e+01 
3.0000000e+00 2.0000000e+00 3.6000000e+01 
8.0487806e-01 3.0000000e+00 3.6000000e+01 
0.0000000e+00 0.0000000e+00 2.0000000e+00 
0.0000000e+00 0.0000000e+00 4.0000000e+00 
0.0000000e+00 0.0000000e+00 6.0000000e+00 
0.0000000e+00 0.0000000e+00 8.0000000e+00 
0.0000000e+00 0.0000000e+00 1.0000000e+01 
0.0000000e+00 0.0000000e+00 1.2000000e+01 
0.0000000e+00 0.0000000e+00 1.4000000e+01 
[...]
POINT_DATA 662
FIELD FieldData 3
DISPLACEMENT 3 662  float
0.0000000e+00 0.0000000e+00 0.0000000e+00 
0.0000000e+00 0.0000000e+00 0.0000000e+00 
0.0000000e+00 0.0000000e+00 0.0000000e+00 
0.0000000e+00 0.0000000e+00 0.0000000e+00 
-1.5460603e-06 -2.3645653e-06 -3.1845468e-07 
3.7397243e-07 8.7243632e-07 1.2906638e-06 
0.0000000e+00 2.2384202e-05 0.0000000e+00 
0.0000000e+00 -1.1348490e-05 0.0000000e+00 
-5.9352556e-06 -2.4759702e-06 -6.5528616e-07 
-2.7522788e-06 2.3270843e-06 -1.3570376e-06 
-1.6273989e-06 -1.0370894e-05 -1.2954481e-05 
-1.4166147e-06 -3.6066915e-06 -5.1838006e-06 
0.0000000e+00 3.9961080e-05 0.0000000e+00 
0.0000000e+00 -2.0272839e-05 0.0000000e+00 
1.1585376e-05 2.6749776e-05 -6.0824103e-05 
-9.9613617e-06 -1.6382754e-05 -3.2760920e-05 
6.5644763e-06 8.7911867e-05 -1.9007895e-05 
1.8521723e-06 -3.3352633e-05 -3.8332815e-05 
0.0000000e+00 5.7581103e-05 0.0000000e+00 
0.0000000e+00 -2.8098484e-05 0.0000000e+00 
2.9820305e-05 9.2068243e-05 -4.8464855e-05 
3.9724255e-05 1.0419449e-04 -4.0097777e-05 
4.6108566e-05 1.2144304e-04 -3.5726283e-05 
5.0046994e-05 1.4364216e-04 -2.2803717e-05 
5.2419673e-05 1.6970412e-04 2.0754824e-07 
4.8200229e-05 1.9439480e-04 1.5525966e-05 
3.4643046e-05 2.0511777e-04 3.7894853e-05 
2.3890239e-05 1.7068587e-04 6.0089584e-05 
-8.4572030e-06 4.7310637e-05 9.8835888e-05 
-1.9581772e-05 -2.0698983e-04 1.3727203e-04 
-5.5958782e-05 -6.5439421e-04 1.8872302e-04 
-1.1577275e-04 -1.3364904e-03 1.3212582e-04 
-2.5806567e-04 -2.2703183e-03 2.0811315e-04 
-2.6234007e-04 -3.2824671e-03 1.8574072e-04 
-1.4814544e-04 -4.0759789e-03 1.1020673e-04 
-1.1584225e-04 -4.1131373e-03 9.9732781e-05 
-2.6069864e-04 -3.9500603e-03 2.2878005e-05 
-3.3366724e-04 -3.9436030e-03 -7.9718156e-06 
-2.1440649e-04 -4.1955318e-03 -5.9842947e-05 
-5.0723473e-05 -4.2012208e-03 -1.1335414e-04 
-7.6507371e-05 -3.4714558e-03 -1.9021465e-04 
-1.7094679e-04 -2.3998960e-03 -1.9419382e-04 
-1.7979313e-04 -1.4660306e-03 -1.6323791e-04 
-6.6836365e-05 -7.5936934e-04 -8.1405182e-05 
-3.0922074e-05 -3.1954428e-04 -1.0541607e-04 
-1.7405200e-05 -8.0063423e-05 -6.4709100e-05 
-2.2156370e-05 2.2910810e-05 -3.7316939e-05 
-1.8965688e-05 4.3477463e-05 -1.7890246e-05 
-1.4873161e-05 1.8784729e-05 -5.9484619e-06 
-9.5103869e-06 -2.3338904e-05 -3.2175726e-06 
-7.1221225e-06 -6.3473315e-05 -9.6636995e-06 
-1.3355658e-05 -9.4432369e-05 -1.4671396e-05 
-1.5252707e-05 -1.1219553e-04 1.8928249e-06 
-1.6776905e-05 -1.1986378e-04 1.9879360e-05 
-3.3511824e-05 -1.2183424e-04 5.1882704e-05 
-5.0775547e-05 -1.1984555e-04 7.7924749e-05 
-5.0128896e-05 -1.1444299e-04 5.8451715e-05 
-5.3172669e-05 -1.0591473e-04 2.7572454e-05 
-3.8377442e-05 -9.3109447e-05 -1.4990988e-05 
-1.5716580e-05 -7.4342577e-05 -6.0009857e-05 
2.6005484e-06 -4.5996032e-05 -7.4166943e-05 
1.6707982e-05 -9.7850552e-06 -7.5379656e-05 
3.1452448e-05 3.3696604e-05 -7.8703844e-05 
4.1232208e-05 8.0876758e-05 -6.7825575e-05 
5.0309602e-05 1.2682354e-04 -4.5524626e-05 
5.3465457e-05 1.6402711e-04 -1.9131243e-05 
4.1833973e-05 1.7926663e-04 9.0644016e-06 
2.9521332e-05 1.4350151e-04 3.6053440e-05 
-1.2974624e-05 1.2224872e-05 6.7209505e-05 
-2.1906904e-05 -2.5861262e-04 9.7884171e-05 
-3.7051832e-05 -7.3375448e-04 1.3415299e-04 
-8.3945808e-05 -1.4484120e-03 6.6361696e-05 
-2.2666057e-04 -2.4058381e-03 1.6469606e-04 
-2.2984056e-04 -3.3895853e-03 1.6336871e-04 
-1.3104305e-04 -4.0385011e-03 1.3141485e-04 
-9.8253127e-05 -3.9552692e-03 1.7936571e-04 
-2.4370468e-04 -3.7990061e-03 1.2452023e-04 
-3.1091992e-04 -3.8471206e-03 1.0822248e-04 
-2.0514714e-04 -4.1295276e-03 7.2184717e-05 
-7.0926377e-05 -4.0571750e-03 4.2956981e-05 
-1.1702068e-04 -3.2853908e-03 -9.4679519e-05 
-2.2126272e-04 -2.2808521e-03 -1.5268227e-04 
-2.1564271e-04 -1.4293224e-03 -1.7854312e-04 
-1.0040202e-04 -7.8632630e-04 -1.5614316e-04 
-5.6222991e-05 -3.7113635e-04 -2.0088663e-04 
-3.3240980e-05 -1.2419457e-04 -1.7597272e-04 
-2.1028913e-05 1.0279883e-05 -1.6538955e-04 
5.6297569e-07 7.6295139e-05 -1.4462339e-04 
2.3034330e-05 1.0104429e-04 -9.7409065e-05 
4.0956609e-05 1.0441698e-04 -4.8690184e-05 
3.4498556e-05 9.6708376e-05 -1.1531231e-05 
2.5169858e-05 8.1538223e-05 2.5345713e-05 
1.9903213e-05 6.0341172e-05 4.7686779e-05 
1.4037519e-05 3.6250414e-05 5.9389266e-05 
3.1634313e-06 1.2110645e-05 7.0455542e-05 
-7.1019617e-06 -8.4239809e-06 6.5558692e-05 
-1.0618421e-05 -2.3271969e-05 4.7822010e-05 
-1.4434199e-05 -3.2088021e-05 2.3376544e-05 
-1.0699003e-05 -3.5326098e-05 -1.3759490e-06 
0.0000000e+00 -2.7120563e-05 0.0000000e+00 
0.0000000e+00 -1.6363583e-05 0.0000000e+00 
0.0000000e+00 -2.3719435e-06 0.0000000e+00 
0.0000000e+00 1.2477122e-05 0.0000000e+00 
0.0000000e+00 2.5211792e-05 0.0000000e+00 
0.0000000e+00 3.3112727e-05 0.0000000e+00 
0.0000000e+00 3.4471446e-05 0.0000000e+00 
0.0000000e+00 2.9003175e-05 0.0000000e+00 
0.0000000e+00 1.7816177e-05 0.0000000e+00 
0.0000000e+00 3.0394572e-06 0.0000000e+00 
0.0000000e+00 -1.2656872e-05 0.0000000e+00 
0.0000000e+00 -2.6448270e-05 0.0000000e+00 
0.0000000e+00 -3.5636491e-05 0.0000000e+00 
0.0000000e+00 -3.7989670e-05 0.0000000e+00 
0.0000000e+00 -3.2288735e-05 0.0000000e+00 
0.0000000e+00 -1.8986930e-05 0.0000000e+00 
0.0000000e+00 -6.2061201e-07 0.0000000e+00 
0.0000000e+00 1.8432918e-05 0.0000000e+00 
0.0000000e+00 3.2981323e-05 0.0000000e+00 
0.0000000e+00 3.8521765e-05 0.0000000e+00 
0.0000000e+00 8.7967695e-05 0.0000000e+00 
0.0000000e+00 9.2213515e-05 0.0000000e+00 
0.0000000e+00 1.0407842e-04 0.0000000e+00 
0.0000000e+00 1.2147247e-04 0.0000000e+00 
0.0000000e+00 1.4382871e-04 0.0000000e+00 
0.0000000e+00 1.7010418e-04 0.0000000e+00 
0.0000000e+00 1.9543950e-04 0.0000000e+00 
0.0000000e+00 2.0581615e-04 0.0000000e+00 
0.0000000e+00 1.7072614e-04 0.0000000e+00 
0.0000000e+00 4.8436625e-05 0.0000000e+00 
0.0000000e+00 -2.0769791e-04 0.0000000e+00 
0.0000000e+00 -6.5591990e-04 0.0000000e+00 
0.0000000e+00 -1.3456428e-03 0.0000000e+00 
0.0000000e+00 -2.2778090e-03 0.0000000e+00 
0.0000000e+00 -3.3140467e-03 0.0000000e+00 
0.0000000e+00 -4.0997858e-03 0.0000000e+00 
0.0000000e+00 -4.1434322e-03 0.0000000e+00 
0.0000000e+00 -3.9638239e-03 0.0000000e+00 
0.0000000e+00 -3.9741765e-03 0.0000000e+00 
0.0000000e+00 -4.2155287e-03 0.0000000e+00 
0.0000000e+00 -4.2358437e-03 0.0000000e+00 
0.0000000e+00 -3.4897423e-03 0.0000000e+00 
0.0000000e+00 -2.4188121e-03 0.0000000e+00 
0.0000000e+00 -1.4683532e-03 0.0000000e+00 
0.0000000e+00 -7.6389732e-04 0.0000000e+00 
0.0000000e+00 -3.1934609e-04 0.0000000e+00 
0.0000000e+00 -7.9182581e-05 0.0000000e+00 
0.0000000e+00 2.3877441e-05 0.0000000e+00 
0.0000000e+00 4.3953703e-05 0.0000000e+00 
0.0000000e+00 1.9206642e-05 0.0000000e+00 
0.0000000e+00 -2.2738643e-05 0.0000000e+00 
0.0000000e+00 -6.3311811e-05 0.0000000e+00 
0.0000000e+00 -9.4093550e-05 0.0000000e+00 
0.0000000e+00 -1.1214506e-04 0.0000000e+00 
0.0000000e+00 -1.2003923e-04 0.0000000e+00 
0.0000000e+00 -1.2193814e-04 0.0000000e+00 
0.0000000e+00 -1.1989605e-04 0.0000000e+00 
0.0000000e+00 -1.1454066e-04 0.0000000e+00 
0.0000000e+00 -1.0594797e-04 0.0000000e+00 
0.0000000e+00 -9.3184251e-05 0.0000000e+00 
0.0000000e+00 -7.4050826e-05 0.0000000e+00 
0.0000000e+00 -4.6038080e-05 0.0000000e+00 
0.0000000e+00 -9.6519880e-06 0.0000000e+00 
0.0000000e+00 3.3757184e-05 0.0000000e+00 
0.0000000e+00 8.0949860e-05 0.0000000e+00 
0.0000000e+00 1.2712927e-04 0.0000000e+00 
0.0000000e+00 1.6491863e-04 0.0000000e+00 
0.0000000e+00 1.8010417e-04 0.0000000e+00 
0.0000000e+00 1.4366207e-04 0.0000000e+00 
0.0000000e+00 1.3380775e-05 0.0000000e+00 
0.0000000e+00 -2.5977133e-04 0.0000000e+00 
0.0000000e+00 -7.3571719e-04 0.0000000e+00 
0.0000000e+00 -1.4590432e-03 0.0000000e+00 
0.0000000e+00 -2.4147877e-03 0.0000000e+00 
0.0000000e+00 -3.4243471e-03 0.0000000e+00 
0.0000000e+00 -4.0622447e-03 0.0000000e+00 
0.0000000e+00 -3.9849179e-03 0.0000000e+00 
0.0000000e+00 -3.8123599e-03 0.0000000e+00 
0.0000000e+00 -3.8786605e-03 0.0000000e+00 
0.0000000e+00 -4.1506696e-03 0.0000000e+00 
0.0000000e+00 -4.0905545e-03 0.0000000e+00 
0.0000000e+00 -3.3014957e-03 0.0000000e+00 
0.0000000e+00 -2.2966997e-03 0.0000000e+00 
0.0000000e+00 -1.4309702e-03 0.0000000e+00 
0.0000000e+00 -7.8962935e-04 0.0000000e+00 
0.0000000e+00 -3.7091415e-04 0.0000000e+00 
0.0000000e+00 -1.2331316e-04 0.0000000e+00 
0.0000000e+00 1.1215112e-05 0.0000000e+00 
0.0000000e+00 7.6697586e-05 0.0000000e+00 
0.0000000e+00 1.0154135e-04 0.0000000e+00 
0.0000000e+00 1.0475920e-04 0.0000000e+00 
0.0000000e+00 9.6810480e-05 0.0000000e+00 
0.0000000e+00 8.1446640e-05 0.0000000e+00 
0.0000000e+00 6.0343638e-05 0.0000000e+00 
0.0000000e+00 3.6233920e-05 0.0000000e+00 
0.0000000e+00 1.2212737e-05 0.0000000e+00 
0.0000000e+00 -8.3292098e-06 0.0000000e+00 
0.0000000e+00 -2.3245355e-05 0.0000000e+00 
0.0000000e+00 -3.2105221e-05 0.0000000e+00 
0.0000000e+00 -3.5323064e-05 0.0000000e+00 
0.0000000e+00 -3.3440003e-05 0.0000000e+00 
0.0000000e+00 -2.7055827e-05 0.0000000e+00 
0.0000000e+00 -1.6304110e-05 0.0000000e+00 
0.0000000e+00 -2.3398604e-06 0.0000000e+00 
0.0000000e+00 1.2467887e-05 0.0000000e+00 
0.0000000e+00 2.5163616e-05 0.0000000e+00 
0.0000000e+00 3.3043860e-05 0.0000000e+00 
0.0000000e+00 3.4406879e-05 0.0000000e+00 
0.0000000e+00 2.8961382e-05 0.0000000e+00 
0.0000000e+00 1.7800305e-05 0.0000000e+00 
0.0000000e+00 3.0400035e-06 0.0000000e+00 
0.0000000e+00 -1.2649574e-05 0.0000000e+00 
0.0000000e+00 -2.6432510e-05 0.0000000e+00 
0.0000000e+00 -3.5599678e-05 0.0000000e+00 
0.0000000e+00 -3.7921796e-05 0.0000000e+00 
0.0000000e+00 -3.2197760e-05 0.0000000e+00 
0.0000000e+00 -1.8902290e-05 0.0000000e+00 
0.0000000e+00 -5.8020123e-07 0.0000000e+00 
0.0000000e+00 1.8404504e-05 0.0000000e+00 
0.0000000e+00 3.2889428e-05 0.0000000e+00 
0.0000000e+00 3.8403490e-05 0.0000000e+00 
0.0000000e+00 9.0011083e-05 0.0000000e+00 
3.4091136e-06 2.6469204e-05 2.4426226e-06 
2.6045325e-05 8.2838254e-05 2.5318312e-05 
0.0000000e+00 0.0000000e+00 0.0000000e+00 
0.0000000e+00 0.0000000e+00 0.0000000e+00 
0.0000000e+00 0.0000000e+00 0.0000000e+00 
0.0000000e+00 0.0000000e+00 0.0000000e+00 
0.0000000e+00 0.0000000e+00 0.0000000e+00 
0.0000000e+00 0.0000000e+00 0.0000000e+00 
0.0000000e+00 0.0000000e+00 0.0000000e+00 
0.0000000e+00 0.0000000e+00 0.0000000e+00 
0.0000000e+00 0.0000000e+00 0.0000000e+00 
0.0000000e+00 0.0000000e+00 0.0000000e+00 
0.0000000e+00 0.0000000e+00 0.0000000e+00 
0.0000000e+00 0.0000000e+00 0.0000000e+00 
0.0000000e+00 0.0000000e+00 0.0000000e+00 
0.0000000e+00 0.0000000e+00 0.0000000e+00 
0.0000000e+00 0.0000000e+00 0.0000000e+00 
0.0000000e+00 0.0000000e+00 0.0000000e+00 
0.0000000e+00 0.0000000e+00 0.0000000e+00 
0.0000000e+00 0.0000000e+00 0.0000000e+00 
0.0000000e+00 0.0000000e+00 0.0000000e+00 
0.0000000e+00 0.0000000e+00 0.0000000e+00 
0.0000000e+00 0.0000000e+00 0.0000000e+00 
0.0000000e+00 0.0000000e+00 0.0000000e+00 
0.0000000e+00 0.0000000e+00 0.0000000e+00 
0.0000000e+00 0.0000000e+00 0.0000000e+00 
0.0000000e+00 0.0000000e+00 0.0000000e+00 
0.0000000e+00 0.0000000e+00 0.0000000e+00 
0.0000000e+00 0.0000000e+00 0.0000000e+00 
0.0000000e+00 0.0000000e+00 0.0000000e+00 
0.0000000e+00 0.0000000e+00 0.0000000e+00 
0.0000000e+00 0.0000000e+00 0.0000000e+00 
0.0000000e+00 0.0000000e+00 0.0000000e+00 
0.0000000e+00 0.0000000e+00 0.0000000e+00 
0.0000000e+00 0.0000000e+00 0.0000000e+00 
0.0000000e+00 0.0000000e+00 0.0000000e+00 
0.0000000e+00 0.0000000e+00 0.0000000e+00 
0.0000000e+00 0.0000000e+00 0.0000000e+00 
0.0000000e+00 0.0000000e+00 0.0000000e+00 
0.0000000e+00 0.0000000e+00 0.0000000e+00 
0.0000000e+00 0.0000000e+00 0.0000000e+00 
0.0000000e+00 0.0000000e+00 0.0000000e+00 
0.0000000e+00 0.0000000e+00 0.0000000e+00 
0.0000000e+00 0.0000000e+00 0.0000000e+00 
-4.4985313e-06 -2.6525736e-06 -4.1362578e-06 
6.8020449e-06 1.1152976e-06 -1.1030397e-05 
3.0814823e-05 -3.6331539e-06 -1.4816706e-05 
4.6302677e-05 -1.4710190e-05 -8.2642600e-06 
4.5180313e-05 -8.4661733e-06 3.5034418e-06 
1.7035703e-05 5.4715656e-07 -1.1164551e-06 
4.4620579e-06 2.1844660e-06 3.9375250e-06 
5.4964662e-06 7.3109533e-07 7.8197554e-06 
2.0076805e-06 -5.1650641e-06 5.0890062e-06 
-3.4868985e-06 -4.6260466e-06 2.0882492e-06 
-5.9451418e-06 3.7146565e-06 -1.4553989e-06 
6.4775045e-06 -2.0112986e-06 -6.7986207e-06 
2.7370428e-05 -5.4436850e-06 -6.8958525e-06 
4.7599726e-05 -8.3778596e-06 -2.5663719e-06 
4.6133613e-05 -1.2242303e-05 3.5896196e-06 
2.0848234e-05 -5.6089489e-06 3.7195250e-06 
1.3243863e-06 5.9553840e-06 8.4334033e-06 
-2.6924772e-06 2.9186601e-06 4.5369197e-06 
1.9080858e-06 -4.4392259e-06 2.5514767e-06 
0.0000000e+00 4.9666076e-05 0.0000000e+00 
0.0000000e+00 4.2277119e-05 0.0000000e+00 
0.0000000e+00 -1.9016526e-04 0.0000000e+00 
0.0000000e+00 -5.4467208e-04 0.0000000e+00 
0.0000000e+00 -4.8969215e-04 0.0000000e+00 
0.0000000e+00 -1.3796236e-04 0.0000000e+00 
0.0000000e+00 -1.9714256e-05 0.0000000e+00 
0.0000000e+00 -3.8629933e-05 0.0000000e+00 
0.0000000e+00 -4.1656036e-05 0.0000000e+00 
0.0000000e+00 -3.7878104e-05 0.0000000e+00 
0.0000000e+00 2.9114401e-05 0.0000000e+00 
0.0000000e+00 3.2131269e-05 0.0000000e+00 
0.0000000e+00 -1.8472677e-04 0.0000000e+00 
0.0000000e+00 -4.8860878e-04 0.0000000e+00 
0.0000000e+00 -4.9073715e-04 0.0000000e+00 
0.0000000e+00 -1.7969818e-04 0.0000000e+00 
0.0000000e+00 6.8733602e-06 0.0000000e+00 
0.0000000e+00 3.6339716e-05 0.0000000e+00 
0.0000000e+00 -8.8934776e-06 0.0000000e+00 
-4.1912385e-06 -6.6531006e-06 -1.4356394e-06 
-7.8016501e-06 4.7457702e-06 2.3467783e-06 
4.3687120e-07 -1.4446669e-06 -2.1765213e-06 
1.2266695e-06 -8.2517063e-06 2.1010851e-06 
2.2641836e-06 -2.3697637e-06 -8.7306316e-06 
1.9788436e-05 7.8295466e-07 -1.7529355e-05 
3.8078986e-05 5.5667141e-07 -5.8588266e-06 
4.7641890e-05 -2.4024723e-06 -5.6438303e-06 
3.2429849e-05 -8.2427214e-06 -1.6471935e-06 
1.1940841e-05 2.7347351e-06 -9.6582180e-06 
2.1863536e-06 3.3907356e-06 5.4601301e-06 
4.4456756e-06 -9.2473209e-07 1.2291787e-05 
-2.7024605e-06 -7.2058160e-06 9.0013646e-06 
-1.0825289e-05 -4.6582668e-06 -1.9487163e-06 
-4.0863856e-06 4.8104357e-06 -8.6807522e-06 
2.2242553e-05 -2.7332969e-06 -8.4832163e-06 
3.0059859e-05 -3.0119882e-06 -4.3692918e-07 
3.9598552e-05 -7.8732701e-06 4.6620589e-06 
2.6343234e-05 -9.9748249e-06 5.1132602e-06 
4.9093069e-06 -1.6912771e-06 -7.3862543e-06 
3.0901319e-06 6.3800244e-06 2.3846376e-06 
2.1006176e-06 9.4667860e-07 6.7000760e-06 
3.5474789e-06 -3.8485587e-06 4.8044712e-06 
3.0049762e-07 1.8629617e-05 -1.3030732e-05 
0.0000000e+00 9.4727089e-05 0.0000000e+00 
0.0000000e+00 8.6475760e-05 0.0000000e+00 
0.0000000e+00 -4.0277385e-04 0.0000000e+00 
0.0000000e+00 -1.2048281e-03 0.0000000e+00 
0.0000000e+00 -1.1082656e-03 0.0000000e+00 
0.0000000e+00 -2.5602881e-04 0.0000000e+00 
0.0000000e+00 -1.8027882e-05 0.0000000e+00 
0.0000000e+00 -7.1360802e-05 0.0000000e+00 
0.0000000e+00 -7.1865281e-05 0.0000000e+00 
0.0000000e+00 -6.4928383e-05 0.0000000e+00 
0.0000000e+00 5.4370521e-05 0.0000000e+00 
0.0000000e+00 6.7803812e-05 0.0000000e+00 
0.0000000e+00 -4.1330679e-04 0.0000000e+00 
0.0000000e+00 -1.1095811e-03 0.0000000e+00 
0.0000000e+00 -1.0929359e-03 0.0000000e+00 
0.0000000e+00 -3.2674300e-04 0.0000000e+00 
0.0000000e+00 1.9164992e-05 0.0000000e+00 
0.0000000e+00 6.0471331e-05 0.0000000e+00 
0.0000000e+00 -1.3722381e-05 0.0000000e+00 
-3.1421487e-06 -1.2927650e-05 2.5141253e-06 
7.2053481e-05 8.8915272e-05 -1.8510520e-05 
5.6263041e-05 1.4132704e-04 7.9779238e-05 
-2.6367602e-04 -3.9283183e-04 3.4869846e-04 
-6.6642038e-04 -1.3549466e-03 1.0542033e-04 
-5.9054437e-04 -1.4260991e-03 -2.3314550e-04 
-1.5456532e-04 -1.8128350e-04 -2.1376135e-04 
7.6226497e-06 3.6579634e-06 -1.4225225e-05 
-2.6608754e-05 -6.8349742e-05 -2.1840064e-05 
-7.1249546e-05 -8.2898863e-05 9.0068919e-05 
-2.2335737e-05 -5.4991357e-05 -9.3306116e-05 
5.7363668e-05 3.2489137e-05 -9.1688897e-05 
5.6602297e-05 1.4933730e-04 7.0469709e-05 
-2.4819293e-04 -3.9896416e-04 2.6871529e-04 
-6.2938977e-04 -1.2326707e-03 1.7073807e-04 
-5.9874810e-04 -1.3882162e-03 -3.6760623e-05 
-1.7705263e-04 -2.6846159e-04 -2.8736371e-04 
2.2871074e-05 4.0130617e-05 -1.7708405e-04 
3.1817013e-05 6.0619590e-05 3.4194789e-05 
-3.2284595e-06 -8.7558146e-06 7.6359189e-05 
0.0000000e+00 1.2362495e-04 0.0000000e+00 
0.0000000e+00 1.6029738e-04 0.0000000e+00 
0.0000000e+00 -7.6874718e-04 0.0000000e+00 
0.0000000e+00 -2.3453184e-03 0.0000000e+00 
0.0000000e+00 -2.1575280e-03 0.0000000e+00 
0.0000000e+00 -4.4016092e-04 0.0000000e+00 
0.0000000e+00 2.9149842e-05 0.0000000e+00 
0.0000000e+00 -1.0561761e-04 0.0000000e+00 
0.0000000e+00 -8.5331587e-05 0.0000000e+00 
0.0000000e+00 -7.6393160e-05 0.0000000e+00 
0.0000000e+00 6.4294996e-05 0.0000000e+00 
0.0000000e+00 1.3388004e-04 0.0000000e+00 
0.0000000e+00 -8.3741109e-04 0.0000000e+00 
0.0000000e+00 -2.2423188e-03 0.0000000e+00 
0.0000000e+00 -2.0840338e-03 0.0000000e+00 
0.0000000e+00 -5.0615630e-04 0.0000000e+00 
0.0000000e+00 5.6301382e-05 0.0000000e+00 
0.0000000e+00 7.4923235e-05 0.0000000e+00 
0.0000000e+00 -1.3298224e-05 0.0000000e+00 
1.0101276e-05 2.1756079e-05 -1.0241627e-05 
2.9815146e-05 4.1185365e-05 6.0040193e-06 
5.1467174e-05 -2.6925665e-05 7.4808399e-06 
5.1974494e-05 -1.1615823e-04 -2.4773335e-05 
4.6712506e-05 -8.5499618e-05 -1.3079717e-05 
3.4053362e-05 -3.1461594e-05 -2.2468460e-06 
8.2625456e-06 -3.5339024e-06 -5.1033626e-06 
-7.2554667e-06 -6.7795963e-06 3.5245450e-06 
-1.7624279e-05 -1.7664359e-05 1.2474433e-05 
-8.0766104e-06 -2.2235914e-05 -1.2320932e-05 
2.9275550e-06 1.4722974e-05 -1.5570533e-05 
2.7520189e-05 4.4954177e-05 4.4778676e-06 
6.4325235e-05 -3.3850749e-05 4.4573476e-06 
6.1389394e-05 -7.6452692e-05 9.7047596e-06 
3.4915305e-05 -1.0385064e-04 2.2179176e-05 
2.4434547e-05 -6.9690053e-05 -1.3619953e-05 
2.0568542e-08 1.9738611e-05 -3.7665755e-05 
1.3396709e-06 -4.8062998e-06 1.4626275e-05 
2.0614791e-05 4.9446451e-05 2.0054080e-05 
0.0000000e+00 0.0000000e+00 0.0000000e+00 
0.0000000e+00 0.0000000e+00 0.0000000e+00 
0.0000000e+00 0.0000000e+00 0.0000000e+00 
0.0000000e+00 0.0000000e+00 0.0000000e+00 
0.0000000e+00 0.0000000e+00 0.0000000e+00 
0.0000000e+00 0.0000000e+00 0.0000000e+00 
0.0000000e+00 0.0000000e+00 0.0000000e+00 
0.0000000e+00 0.0000000e+00 0.0000000e+00 
0.0000000e+00 0.0000000e+00 0.0000000e+00 
0.0000000e+00 0.0000000e+00 0.0000000e+00 
0.0000000e+00 0.0000000e+00 0.0000000e+00 
0.0000000e+00 0.0000000e+00 0.0000000e+00 
0.0000000e+00 0.0000000e+00 0.0000000e+00 
0.0000000e+00 0.0000000e+00 0.0000000e+00 
0.0000000e+00 0.0000000e+00 0.0000000e+00 
0.0000000e+00 0.0000000e+00 0.0000000e+00 
0.0000000e+00 0.0000000e+00 0.0000000e+00 
0.0000000e+00 0.0000000e+00 0.0000000e+00 
0.0000000e+00 0.0000000e+00 0.0000000e+00 
0.0000000e+00 0.0000000e+00 0.0000000e+00 
0.0000000e+00 0.0000000e+00 0.0000000e+00 
0.0000000e+00 0.0000000e+00 0.0000000e+00 
0.0000000e+00 0.0000000e+00 0.0000000e+00 
0.0000000e+00 0.0000000e+00 0.0000000e+00 
0.0000000e+00 0.0000000e+00 0.0000000e+00 
0.0000000e+00 0.0000000e+00 0.0000000e+00 
0.0000000e+00 0.0000000e+00 0.0000000e+00 
0.0000000e+00 0.0000000e+00 0.0000000e+00 
0.0000000e+00 0.0000000e+00 0.0000000e+00 
0.0000000e+00 0.0000000e+00 0.0000000e+00 
0.0000000e+00 0.0000000e+00 0.0000000e+00 
0.0000000e+00 0.0000000e+00 0.0000000e+00 
0.0000000e+00 0.0000000e+00 0.0000000e+00 
0.0000000e+00 0.0000000e+00 0.0000000e+00 
0.0000000e+00 0.0000000e+00 0.0000000e+00 
0.0000000e+00 0.0000000e+00 0.0000000e+00 
0.0000000e+00 0.0000000e+00 0.0000000e+00 
0.0000000e+00 0.0000000e+00 0.0000000e+00 
0.0000000e+00 0.0000000e+00 0.0000000e+00 
0.0000000e+00 0.0000000e+00 0.0000000e+00 
0.0000000e+00 0.0000000e+00 0.0000000e+00 
0.0000000e+00 0.0000000e+00 0.0000000e+00 
-2.1115886e-06 -4.4906878e-07 -7.9021669e-07 
3.0169354e-06 -5.3512457e-07 8.1992766e-07 
2.1919611e-06 2.3282111e-07 2.3103503e-06 
-1.3509601e-06 1.5978786e-06 -1.4830041e-06 
5.8653700e-06 -5.6107224e-06 -3.8992853e-06 
2.3174838e-05 -8.2462202e-06 -2.6200721e-06 
2.5057061e-05 -1.1405815e-05 -8.2358707e-07 
2.1666350e-05 -1.1190651e-05 2.6658547e-06 