# vtk DataFile Version 4.0
vtk output
ASCII
DATASET UNSTRUCTURED_GRID
POINTS 662 float
0.0000000e+00 0.0000000e+00 0.0000000e+00 
0.0000000e+00 0.0000000e+00 4.0000000e+01 
5.0000000e+00 0.0000000e+00 0.0000000e+00 
5.0000000e+00 0.0000000e+00 4.0000000e+01 
5.0000000e+00 1.0000000e+00 0.0000000e+00 
5.0000000e+00 1.0000000e+00 4.0000000e+01 
0.0000000e+00 1.0000000e+00 0.0000000e+00 
0.0000000e+00 1.0000000e+00 4.0000000e+01 
5.0000000e+00 2.0000000e+00 0.0000000e+00 
5.0000000e+00 2.0000000e+00 4.0000000e+01 
3.0000000e+00 2.0000000e+00 0.0000000e+00 
3.0000000e+00 2.0000000e+00 4.0000000e+01 
0.0000000e+00 2.0000000e+00 0.0000000e+00 
0.0000000e+00 2.0000000e+00 4.0000000e+01 
1.5000000e+00 3.0000000e+00 0.0000000e+00 
1.5000000e+00 3.0000000e+00 4.0000000e+01 
7.5000000e-01 3.0000000e+00 0.0000000e+00 
7.5000000e-01 3.0000000e+00 4.0000000e+01 
0.0000000e+00 3.0000000e+00 0.0000000e+00 
0.0000000e+00 3.0000000e+00 4.0000000e+01 
7.5000000e-01 3.0000000e+00 5.0000000e-01 
7.5000000e-01 3.0000000e+00 1.0000000e+00 
7.5000000e-01 3.0000000e+00 1.5000000e+00 
7.5000000e-01 3.0000000e+00 2.0000000e+00 
7.5000000e-01 3.0000000e+00 2.5000000e+00 
7.5000000e-01 3.0000000e+00 3.0000000e+00 
7.5000000e-01 3.0000000e+00 3.5000000e+00 
7.5000000e-01 3.0000000e+00 4.0000000e+00 
7.5000000e-01 3.0000000e+00 4.5000000e+00 
7.5000000e-01 3.0000000e+00 5.0000000e+00 
7.5000000e-01 3.0000000e+00 5.5000000e+00 
7.5000000e-01 3.0000000e+00 6.0000000e+00 
7.5000000e-01 3.0000000e+00 6.5000000e+00 
7.5000000e-01 3.0000000e+00 7.0000000e+00 
7.5000000e-01 3.0000000e+00 7.5000000e+00 
7.5000000e-01 3.0000000e+00 8.0000000e+00 
7.5000000e-01 3.0000000e+00 8.5000000e+00 
7.5000000e-01 3.0000000e+00 9.0000000e+00 
7.5000000e-01 3.0000000e+00 9.5000000e+00 
7.5000000e-01 3.0000000e+00 1.0000000e+01 
7.5000000e-01 3.0000000e+00 1.0500000e+01 
7.5000000e-01 3.0000000e+00 1.1000000e+01 
7.5000000e-01 3.0000000e+00 1.1500000e+01 
7.5000000e-01 3.0000000e+00 1.2000000e+01 
7.5000000e-01 3.0000000e+00 1.2500000e+01 
7.5000000e-01 3.0000000e+00 1.3000000e+01 
7.5000000e-01 3.0000000e+00 1.3500000e+01 
7.5000000e-01 3.0000000e+00 1.4000000e+01 
7.5000000e-01 3.0000000e+00 1.4500000e+01 
7.5000000e-01 3.0000000e+00 1.5000000e+01 
7.5000000e-01 3.0000000e+00 1.5500000e+01 
7.5000000e-01 3.0000000e+00 1.6000000e+01 
7.5000000e-01 3.0000000e+00 1.6500000e+01 
7.5000000e-01 3.0000000e+00 1.7000000e+01 
7.5000000e-01 3.0000000e+00 1.7500000e+01 
7.5000000e-01 3.0000000e+00 1.8000000e+01 
7.5000000e-01 3.0000000e+00 1.8500000e+01 
7.5000000e-01 3.0000000e+00 1.9000000e+01 
7.5000000e-01 3.0000000e+00 1.9500000e+01 
7.5000000e-01 3.0000000e+00 2.0000000e+01 
7.5000000e-01 3.0000000e+00 2.0500000e+01 
7.5000000e-01 3.0000000e+00 2.1000000e+01 
7.5000000e-01 3.0000000e+00 2.1500000e+01 
7.5000000e-01 3.0000000e+00 2.2000000e+01 
7.5000000e-01 3.0000000e+00 2.2500000e+01 
7.5000000e-01 3.0000000e+00 2.3000000e+01 
7.5000000e-01 3.0000000e+00 2.3500000e+01 
7.5000000e-01 3.0000000e+00 2.4000000e+01 
7.5000000e-01 3.0000000e+00 2.4500000e+01 
7.5000000e-01 3.0000000e+00 2.5000000e+01 
7.5000000e-01 3.0000000e+00 2.5500000e+01 
7.5000000e-01 3.0000000e+00 2.6000000e+01 
7.5000000e-01 3.0000000e+00 2.6500000e+01 
7.5000000e-01 3.0000000e+00 2.7000000e+01 
7.5000000e-01 3.0000000e+00 2.7500000e+01 
7.5000000e-01 3.0000000e+00 2.8000000e+01 
7.5000000e-01 3.0000000e+00 2.8500000e+01 
7.5000000e-01 3.0000000e+00 2.9000000e+01 
7.5000000e-01 3.0000000e+00 2.9500000e+01 
7.5000000e-01 3.0000000e+00 3.0000000e+01 
7.5000000e-01 3.0000000e+00 3.0500000e+01 
7.5000000e-01 3.0000000e+00 3.1000000e+01 
7.5000000e-01 3.0000000e+00 3.1500000e+01 
7.5000000e-01 3.0000000e+00 3.2000000e+01 
7.5000000e-01 3.0000000e+00 3.2500000e+01 
7.5000000e-01 3.0000000e+00 3.3000000e+01 
7.5000000e-01 3.0000000e+00 3.3500000e+01 
7.5000000e-01 3.0000000e+00 3.4000000e+01 
7.5000000e-01 3.0000000e+00 3.4500000e+01 
7.5000000e-01 3.0000000e+00 3.5000000e+01 
7.5000000e-01 3.0000000e+00 3.5500000e+01 
7.5000000e-01 3.0000000e+00 3.6000000e+01 
7.5000000e-01 3.0000000e+00 3.6500000e+01 
7.5000000e-01 3.0000000e+00 3.7000000e+01 
7.5000000e-01 3.0000000e+00 3.7500000e+01 
7.5000000e-01 3.0000000e+00 3.8000000e+01 
7.5000000e-01 3.0000000e+00 3.8500000e+01 
7.5000000e-01 3.0000000e+00 3.9000000e+01 
7.5000000e-01 3.0000000e+00 3.9500000e+01 
7.5000000e-01 3.0000000e+00 4.0500000e+01 
7.5000000e-01 3.0000000e+00 4.1000000e+01 
7.5000000e-01 3.0000000e+00 4.1500000e+01 
7.5000000e-01 3.0000000e+00 4.2000000e+01 
7.5000000e-01 3.0000000e+00 4.2500000e+01 
7.5000000e-01 3.0000000e+00 4.3000000e+01 
7.5000000e-01 3.0000000e+00 4.3500000e+01 
7.5000000e-01 3.0000000e+00 4.4000000e+01 
7.5000000e-01 3.0000000e+00 4.4500000e+01 
7.5000000e-01 3.0000000e+00 4.5000000e+01 
7.5000000e-01 3.0000000e+00 4.5500000e+01 
7.5000000e-01 3.0000000e+00 4.6000000e+01 
7.5000000e-01 3.0000000e+00 4.6500000e+01 
7.5000000e-01 3.0000000e+00 4.7000000e+01 
7.5000000e-01 3.0000000e+00 4.7500000e+01 
7.5000000e-01 3.0000000e+00 4.8000000e+01 
7.5000000e-01 3.0000000e+00 4.8500000e+01 
7.5000000e-01 3.0000000e+00 4.9000000e+01 
7.5000000e-01 3.0000000e+00 4.9500000e+01 
7.5000000e-01 3.0000000e+00 5.0000000e+01 
7.5000000e-01 3.0250001e+00 0.0000000e+00 
7.5000000e-01 3.0250001e+00 5.0000000e-01 
7.5000000e-01 3.0250001e+00 1.0000000e+00 
7.5000000e-01 3.0250001e+00 1.5000000e+00 
7.5000000e-01 3.0250001e+00 2.0000000e+00 
7.5000000e-01 3.0250001e+00 2.5000000e+00 
7.5000000e-01 3.0250001e+00 3.0000000e+00 
7.5000000e-01 3.0250001e+00 3.5000000e+00 
7.5000000e-01 3.0250001e+00 4.0000000e+00 
7.5000000e-01 3.0250001e+00 4.5000000e+00 
7.5000000e-01 3.0250001e+00 5.0000000e+00 
7.5000000e-01 3.0250001e+00 5.5000000e+00 
7.5000000e-01 3.0250001e+00 6.0000000e+00 
7.5000000e-01 3.0250001e+00 6.5000000e+00 
7.5000000e-01 3.0250001e+00 7.0000000e+00 
7.5000000e-01 3.0250001e+00 7.5000000e+00 
7.5000000e-01 3.0250001e+00 8.0000000e+00 
7.5000000e-01 3.0250001e+00 8.5000000e+00 
7.5000000e-01 3.0250001e+00 9.0000000e+00 
7.5000000e-01 3.0250001e+00 9.5000000e+00 
7.5000000e-01 3.0250001e+00 1.0000000e+01 
7.5000000e-01 3.0250001e+00 1.0500000e+01 
7.5000000e-01 3.0250001e+00 1.1000000e+01 
7.5000000e-01 3.0250001e+00 1.1500000e+01 
7.5000000e-01 3.0250001e+00 1.2000000e+01 
7.5000000e-01 3.0250001e+00 1.2500000e+01 
7.5000000e-01 3.0250001e+00 1.3000000e+01 
7.5000000e-01 3.0250001e+00 1.3500000e+01 
7.5000000e-01 3.0250001e+00 1.4000000e+01 
7.5000000e-01 3.0250001e+00 1.4500000e+01 
7.5000000e-01 3.0250001e+00 1.5000000e+01 
7.5000000e-01 3.0250001e+00 1.5500000e+01 
7.5000000e-01 3.0250001e+00 1.6000000e+01 
7.5000000e-01 3.0250001e+00 1.6500000e+01 
7.5000000e-01 3.0250001e+00 1.7000000e+01 
7.5000000e-01 3.0250001e+00 1.7500000e+01 
7.5000000e-01 3.0250001e+00 1.8000000e+01 
7.5000000e-01 3.0250001e+00 1.8500000e+01 
7.5000000e-01 3.0250001e+00 1.9000000e+01 
7.5000000e-01 3.0250001e+00 1.9500000e+01 
7.5000000e-01 3.0250001e+00 2.0000000e+01 
7.5000000e-01 3.0250001e+00 2.0500000e+01 
7.5000000e-01 3.0250001e+00 2.1000000e+01 
7.5000000e-01 3.0250001e+00 2.1500000e+01 
7.5000000e-01 3.0250001e+00 2.2000000e+01 
7.5000000e-01 3.0250001e+00 2.2500000e+01 
7.5000000e-01 3.0250001e+00 2.3000000e+01 
7.5000000e-01 3.0250001e+00 2.3500000e+01 
7.5000000e-01 3.0250001e+00 2.4000000e+01 
7.5000000e-01 3.0250001e+00 2.4500000e+01 
7.5000000e-01 3.0250001e+00 2.5000000e+01 
7.5000000e-01 3.0250001e+00 2.5500000e+01 
7.5000000e-01 3.0250001e+00 2.6000000e+01 
7.5000000e-01 3.0250001e+00 2.6500000e+01 
7.5000000e-01 3.0250001e+00 2.7000000e+01 
7.5000000e-01 3.0250001e+00 2.7500000e+01 
7.5000000e-01 3.0250001e+00 2.8000000e+01 
7.5000000e-01 3.0250001e+00 2.8500000e+01 
7.5000000e-01 3.0250001e+00 2.9000000e+01 
7.5000000e-01 3.0250001e+00 2.9500000e+01 
7.5000000e-01 3.0250001e+00 3.0000000e+01 
7.5000000e-01 3.0250001e+00 3.0500000e+01 
7.5000000e-01 3.0250001e+00 3.1000000e+01 
7.5000000e-01 3.0250001e+00 3.1500000e+01 
7.5000000e-01 3.0250001e+00 3.2000000e+01 
7.5000000e-01 3.0250001e+00 3.2500000e+01 
7.5000000e-01 3.0250001e+00 3.3000000e+01 
7.5000000e-01 3.0250001e+00 3.3500000e+01 
7.5000000e-01 3.0250001e+00 3.4000000e+01 
7.5000000e-01 3.0250001e+00 3.4500000e+01 
7.5000000e-01 3.0250001e+00 3.5000000e+01 
7.5000000e-01 3.0250001e+00 3.5500000e+01 
7.5000000e-01 3.0250001e+00 3.6000000e+01 
7.5000000e-01 3.0250001e+00 3.6500000e+01 
7.5000000e-01 3.0250001e+00 3.7000000e+01 
7.5000000e-01 3.0250001e+00 3.7500000e+01 
7.5000000e-01 3.0250001e+00 3.8000000e+01 
7.5000000e-01 3.0250001e+00 3.8500000e+01 
7.5000000e-01 3.0250001e+00 3.9000000e+01 
7.5000000e-01 3.0250001e+00 3.9500000e+01 
7.5000000e-01 3.0250001e+00 4.0000000e+01 
7.5000000e-01 3.0250001e+00 4.0500000e+01 
7.5000000e-01 3.0250001e+00 4.1000000e+01 
7.5000000e-01 3.0250001e+00 4.1500000e+01 
7.5000000e-01 3.0250001e+00 4.2000000e+01 
7.5000000e-01 3.0250001e+00 4.2500000e+01 
7.5000000e-01 3.0250001e+00 4.3000000e+01 
7.5000000e-01 3.0250001e+00 4.3500000e+01 
7.5000000e-01 3.0250001e+00 4.4000000e+01 
7.5000000e-01 3.0250001e+00 4.4500000e+01 
7.5000000e-01 3.0250001e+00 4.5000000e+01 
7.5000000e-01 3.0250001e+00 4.5500000e+01 
7.5000000e-01 3.0250001e+00 4.6000000e+01 
7.5000000e-01 3.0250001e+00 4.6500000e+01 
7.5000000e-01 3.0250001e+00 4.7000000e+01 
7.5000000e-01 3.0250001e+00 4.7500000e+01 
7.5000000e-01 3.0250001e+00 4.8000000e+01 
7.5000000e-01 3.0250001e+00 4.8500000e+01 
7.5000000e-01 3.0250001e+00 4.9000000e+01 
7.5000000e-01 3.0250001e+00 4.9500000e+01 
7.5000000e-01 3.0250001e+00 5.0000000e+01 
7.5000000e-01 3.0250001e+00 3.5750000e+01 
3.0000000e+00 2.0000000e+00 3.6000000e+01 
8.0487806e-01 3.0000000e+00 3.6000000e+01 
0.0000000e+00 0.0000000e+00 2.0000000e+00 
0.0000000e+00 0.0000000e+00 4.0000000e+00 
0.0000000e+00 0.0000000e+00 6.0000000e+00 
0.0000000e+00 0.0000000e+00 8.0000000e+00 
0.0000000e+00 0.0000000e+00 1.0000000e+01 
0.0000000e+00 0.0000000e+00 1.2000000e+01 
0.0000000e+00 0.0000000e+00 1.4000000e+01 
[...]
POINT_DATA 662
FIELD FieldData 3
DISPLACEMENT 3 662  float
0.0000000e+00 0.0000000e+00 0.0000000e+00 
0.0000000e+00 0.0000000e+00 0.0000000e+00 
0.0000000e+00 0.0000000e+00 0.0000000e+00 
0.0000000e+00 0.0000000e+00 0.0000000e+00 
2.0137566e-05 -2.4102395e-05 -3.1878491e-05 
-1.5340770e-07 -6.8318275e-07 -2.7679741e-08 
0.0000000e+00 -9.3718118e-05 0.0000000e+00 
0.0000000e+00 -1.6081806e-06 0.0000000e+00 
2.5227659e-05 -3.2071544e-05 -5.6426165e-05 
-3.8324600e-07 -8.5768295e-07 9.2508196e-07 
6.0862703e-06 -2.8777891e-05 -3.9303159e-05 
-5.6830538e-07 -2.0330708e-06 3.3412599e-07 
0.0000000e+00 -1.1707453e-04 0.0000000e+00 
0.0000000e+00 -3.5750154e-06 0.0000000e+00 
3.4792462e-05 2.2083864e-06 7.5644370e-05 
-4.3343584e-07 -8.3566256e-06 -2.2679171e-06 
1.8557990e-05 3.5577232e-05 2.2665037e-04 
4.1918389e-07 -7.7089680e-06 -8.0370108e-07 
0.0000000e+00 -5.2159998e-05 0.0000000e+00 
0.0000000e+00 -6.7333735e-06 0.0000000e+00 
-4.2390198e-05 -4.5523117e-05 1.8713348e-04 
-6.7165340e-05 -2.8784655e-04 1.2512290e-04 
-8.9851899e-05 -7.1797415e-04 2.1334611e-04 
-1.0715453e-04 -1.3750872e-03 2.3867072e-04 
-1.8693577e-04 -2.2496667e-03 1.2618124e-04 
-2.2004235e-04 -3.2445923e-03 1.3497590e-04 
-1.1840482e-04 -4.0388759e-03 9.9932840e-05 
-8.5280677e-05 -4.0690023e-03 1.1846507e-04 
-2.2955827e-04 -3.9015012e-03 5.2819305e-05 
-3.0288388e-04 -3.9006551e-03 4.1445128e-05 
-2.0741766e-04 -4.1690390e-03 1.0219213e-05 
-6.4407286e-05 -4.2016567e-03 -4.9286940e-05 
-9.9727098e-05 -3.5075305e-03 -1.5901357e-04 
-2.0202906e-04 -2.4776845e-03 -1.9668834e-04 
-1.9410661e-04 -1.5870398e-03 -1.8799827e-04 
-7.2705254e-05 -9.1877655e-04 -1.1748391e-04 
-4.6274163e-05 -5.0481927e-04 -1.5470046e-04 
-4.0509462e-05 -2.7236503e-04 -1.3846555e-04 
-3.1246836e-05 -1.4957783e-04 -1.3515123e-04 
-3.5894498e-06 -7.6553566e-05 -1.2209649e-04 
1.8331191e-05 -1.5756186e-05 -8.8679859e-05 
3.1871237e-05 4.3835640e-05 -4.9595146e-05 
2.1661970e-05 9.9552395e-05 -1.5770889e-05 
4.7811295e-06 1.4028701e-04 1.5782647e-05 
8.5439825e-07 1.5508528e-04 1.7426091e-05 
-3.4419172e-06 1.4713488e-04 1.3559079e-05 
-3.4424495e-06 1.2375478e-04 -9.5466760e-07 
2.5605843e-06 9.3830240e-05 -2.5894376e-05 
4.4512959e-07 6.5792708e-05 -4.0721763e-05 
5.7924326e-06 4.0549075e-05 -4.2633856e-05 
6.7719129e-06 1.6889306e-05 -3.2538261e-05 
6.1205469e-06 -5.6163826e-06 -1.4607723e-05 
5.0267190e-06 -2.7946677e-05 1.3359813e-05 
9.0186477e-06 -4.9865575e-05 3.1925978e-05 
7.6281967e-06 -7.1561502e-05 4.6794314e-05 
-7.1076583e-06 -8.7803441e-05 6.0837207e-05 
-2.5007108e-05 -9.3177987e-05 4.9810405e-05 
-2.8968590e-05 -8.9048932e-05 3.8866976e-05 
-2.0332242e-05 -8.2129183e-05 2.8918774e-05 
-2.2844642e-06 -1.0346046e-04 1.3449484e-05 
-3.6722198e-05 -1.9883990e-04 3.1011052e-05 
-5.7901438e-05 -4.2144494e-04 5.5960107e-05 
-7.8503253e-05 -8.4284070e-04 9.2119240e-05 
-1.1865671e-04 -1.5022930e-03 4.2675561e-05 
-2.2827223e-04 -2.4080812e-03 1.5907256e-04 
-2.1803168e-04 -3.3478145e-03 1.6347256e-04 
-1.2638523e-04 -3.9650737e-03 1.3656473e-04 
-1.0878671e-04 -3.8632222e-03 1.8373356e-04 
-2.6060833e-04 -3.7094811e-03 1.1313477e-04 
-3.2161360e-04 -3.7791496e-03 9.4632538e-05 
-2.1272463e-04 -4.0950249e-03 4.3934680e-05 
-7.8259254e-05 -4.0582456e-03 -1.2853129e-05 
-1.0605300e-04 -3.3164762e-03 -1.4594455e-04 
-2.0152444e-04 -2.3355882e-03 -1.9883738e-04 
-1.8854145e-04 -1.5007480e-03 -2.1300308e-04 
-8.2701677e-05 -8.6927623e-04 -1.5682887e-04 
-4.7016852e-05 -4.6209889e-04 -1.8021716e-04 
-2.7502456e-05 -2.1753165e-04 -1.4395588e-04 
-1.7998831e-05 -7.9119534e-05 -1.2138766e-04 
9.4938305e-06 -8.8042214e-07 -9.4991352e-05 
2.4539371e-05 4.4517292e-05 -6.1861421e-05 
3.5943976e-05 7.3187752e-05 -2.4381594e-05 
2.3405837e-05 9.0726353e-05 8.5269221e-06 
6.4909232e-06 9.6215830e-05 3.3151307e-05 
-1.3615587e-06 8.5829000e-05 3.8750066e-05 
-8.0435066e-06 6.3009160e-05 3.2958804e-05 
-8.4708063e-06 3.4027722e-05 2.0101368e-05 
-5.2018972e-06 5.7526531e-06 3.4719774e-06 
-4.2300567e-06 -1.5079641e-05 -5.7266311e-06 
-2.2788863e-06 -2.7384862e-05 -1.2599878e-05 
2.3181403e-06 -2.9900626e-05 -1.5741742e-05 
1.1519612e-06 -2.3045441e-05 -1.0420158e-05 
1.6869639e-06 -8.8663028e-06 -3.9721263e-06 
1.7657158e-06 6.7626679e-06 2.5490090e-06 
-7.3007800e-07 1.5965385e-05 6.4747142e-06 
-6.4203209e-07 1.5998654e-05 5.1130100e-06 
-7.1108940e-07 8.6735445e-06 2.1221169e-06 
-5.6025738e-07 -8.9817945e-07 -1.3218100e-06 
-6.9864441e-08 -6.8042009e-06 -3.0174842e-06 
0.0000000e+00 -4.7849690e-06 0.0000000e+00 
0.0000000e+00 -5.8617911e-07 0.0000000e+00 
0.0000000e+00 2.3721905e-06 0.0000000e+00 
0.0000000e+00 3.1317625e-06 0.0000000e+00 
0.0000000e+00 2.3855102e-06 0.0000000e+00 
0.0000000e+00 1.3977052e-06 0.0000000e+00 
0.0000000e+00 8.2343661e-07 0.0000000e+00 
0.0000000e+00 4.3574545e-07 0.0000000e+00 
0.0000000e+00 -2.2049279e-07 0.0000000e+00 
0.0000000e+00 -1.0965728e-06 0.0000000e+00 
0.0000000e+00 -1.6100925e-06 0.0000000e+00 
0.0000000e+00 -1.2699309e-06 0.0000000e+00 
0.0000000e+00 -2.3331745e-07 0.0000000e+00 
0.0000000e+00 7.9032088e-07 0.0000000e+00 
0.0000000e+00 1.1578227e-06 0.0000000e+00 
0.0000000e+00 7.9838770e-07 0.0000000e+00 
0.0000000e+00 1.5632510e-07 0.0000000e+00 
0.0000000e+00 -2.8699415e-07 0.0000000e+00 
0.0000000e+00 -4.0358444e-07 0.0000000e+00 
0.0000000e+00 -3.8807332e-07 0.0000000e+00 
0.0000000e+00 3.5597470e-05 0.0000000e+00 
0.0000000e+00 -4.3947537e-05 0.0000000e+00 
0.0000000e+00 -2.8716505e-04 0.0000000e+00 
0.0000000e+00 -7.2028278e-04 0.0000000e+00 
0.0000000e+00 -1.3789013e-03 0.0000000e+00 
0.0000000e+00 -2.2622629e-03 0.0000000e+00 
0.0000000e+00 -3.2773563e-03 0.0000000e+00 
0.0000000e+00 -4.0632971e-03 0.0000000e+00 
0.0000000e+00 -4.1002198e-03 0.0000000e+00 
0.0000000e+00 -3.9155879e-03 0.0000000e+00 
0.0000000e+00 -3.9311512e-03 0.0000000e+00 
0.0000000e+00 -4.1891676e-03 0.0000000e+00 
0.0000000e+00 -4.2369030e-03 0.0000000e+00 
0.0000000e+00 -3.5260669e-03 0.0000000e+00 
0.0000000e+00 -2.4966858e-03 0.0000000e+00 
0.0000000e+00 -1.5894595e-03 0.0000000e+00 
0.0000000e+00 -9.2328247e-04 0.0000000e+00 
0.0000000e+00 -5.0475332e-04 0.0000000e+00 
0.0000000e+00 -2.7146575e-04 0.0000000e+00 
0.0000000e+00 -1.4838789e-04 0.0000000e+00 
0.0000000e+00 -7.5241711e-05 0.0000000e+00 
0.0000000e+00 -1.5101660e-05 0.0000000e+00 
0.0000000e+00 4.4245073e-05 0.0000000e+00 
0.0000000e+00 9.9526791e-05 0.0000000e+00 
0.0000000e+00 1.3954581e-04 0.0000000e+00 
0.0000000e+00 1.5490035e-04 0.0000000e+00 
0.0000000e+00 1.4713719e-04 0.0000000e+00 
0.0000000e+00 1.2384719e-04 0.0000000e+00 
0.0000000e+00 9.4274234e-05 0.0000000e+00 
0.0000000e+00 6.5952736e-05 0.0000000e+00 
0.0000000e+00 4.0557185e-05 0.0000000e+00 
0.0000000e+00 1.6892667e-05 0.0000000e+00 
0.0000000e+00 -5.7655839e-06 0.0000000e+00 
0.0000000e+00 -2.8033019e-05 0.0000000e+00 
0.0000000e+00 -5.0211842e-05 0.0000000e+00 
0.0000000e+00 -7.1547875e-05 0.0000000e+00 
0.0000000e+00 -8.7400615e-05 0.0000000e+00 
0.0000000e+00 -9.2846989e-05 0.0000000e+00 
0.0000000e+00 -8.7824752e-05 0.0000000e+00 
0.0000000e+00 -8.1403203e-05 0.0000000e+00 
0.0000000e+00 -1.0301983e-04 0.0000000e+00 
0.0000000e+00 -1.9787133e-04 0.0000000e+00 
0.0000000e+00 -4.2277668e-04 0.0000000e+00 
0.0000000e+00 -8.4474921e-04 0.0000000e+00 
0.0000000e+00 -1.5129348e-03 0.0000000e+00 
0.0000000e+00 -2.4169693e-03 0.0000000e+00 
0.0000000e+00 -3.3830060e-03 0.0000000e+00 
0.0000000e+00 -3.9891284e-03 0.0000000e+00 
0.0000000e+00 -3.8934718e-03 0.0000000e+00 
0.0000000e+00 -3.7230686e-03 0.0000000e+00 
0.0000000e+00 -3.8107662e-03 0.0000000e+00 
0.0000000e+00 -4.1163182e-03 0.0000000e+00 
0.0000000e+00 -4.0919608e-03 0.0000000e+00 
0.0000000e+00 -3.3326414e-03 0.0000000e+00 
0.0000000e+00 -2.3513255e-03 0.0000000e+00 
0.0000000e+00 -1.5024644e-03 0.0000000e+00 
0.0000000e+00 -8.7280734e-04 0.0000000e+00 
0.0000000e+00 -4.6184074e-04 0.0000000e+00 
0.0000000e+00 -2.1676064e-04 0.0000000e+00 
0.0000000e+00 -7.8122532e-05 0.0000000e+00 
0.0000000e+00 -2.6868125e-07 0.0000000e+00 
0.0000000e+00 4.5040364e-05 0.0000000e+00 
0.0000000e+00 7.3492694e-05 0.0000000e+00 
0.0000000e+00 9.0839843e-05 0.0000000e+00 
0.0000000e+00 9.5848358e-05 0.0000000e+00 
0.0000000e+00 8.5727996e-05 0.0000000e+00 
0.0000000e+00 6.3039828e-05 0.0000000e+00 
0.0000000e+00 3.4053512e-05 0.0000000e+00 
0.0000000e+00 6.0141979e-06 0.0000000e+00 
0.0000000e+00 -1.5086715e-05 0.0000000e+00 
0.0000000e+00 -2.7266391e-05 0.0000000e+00 
0.0000000e+00 -2.9821585e-05 0.0000000e+00 
0.0000000e+00 -2.2885328e-05 0.0000000e+00 
0.0000000e+00 -8.8000816e-06 0.0000000e+00 
0.0000000e+00 6.4461346e-06 0.0000000e+00 
0.0000000e+00 1.5733742e-05 0.0000000e+00 
0.0000000e+00 1.5875881e-05 0.0000000e+00 
0.0000000e+00 8.6924638e-06 0.0000000e+00 
0.0000000e+00 -6.3781425e-07 0.0000000e+00 
0.0000000e+00 -6.6952034e-06 0.0000000e+00 
0.0000000e+00 -7.6833066e-06 0.0000000e+00 
0.0000000e+00 -4.8128472e-06 0.0000000e+00 
0.0000000e+00 -6.6309377e-07 0.0000000e+00 
0.0000000e+00 2.3108021e-06 0.0000000e+00 
0.0000000e+00 3.1255440e-06 0.0000000e+00 
0.0000000e+00 2.4205171e-06 0.0000000e+00 
0.0000000e+00 1.4287297e-06 0.0000000e+00 
0.0000000e+00 8.2123842e-07 0.0000000e+00 
0.0000000e+00 4.1136596e-07 0.0000000e+00 
0.0000000e+00 -2.3461780e-07 0.0000000e+00 
0.0000000e+00 -1.0836188e-06 0.0000000e+00 
0.0000000e+00 -1.5839362e-06 0.0000000e+00 
0.0000000e+00 -1.2564336e-06 0.0000000e+00 
0.0000000e+00 -2.4266663e-07 0.0000000e+00 
0.0000000e+00 7.7034571e-07 0.0000000e+00 
0.0000000e+00 1.1452910e-06 0.0000000e+00 
0.0000000e+00 7.9955680e-07 0.0000000e+00 
0.0000000e+00 1.6440359e-07 0.0000000e+00 
0.0000000e+00 -2.8105987e-07 0.0000000e+00 
0.0000000e+00 -4.0292477e-07 0.0000000e+00 
0.0000000e+00 -3.8991163e-07 0.0000000e+00 
0.0000000e+00 -2.7539074e-05 0.0000000e+00 
-1.2344595e-06 -4.0462355e-06 -7.7903456e-07 
9.7467239e-07 -2.4647663e-05 -1.1267226e-05 
0.0000000e+00 0.0000000e+00 0.0000000e+00 
0.0000000e+00 0.0000000e+00 0.0000000e+00 
0.0000000e+00 0.0000000e+00 0.0000000e+00 
0.0000000e+00 0.0000000e+00 0.0000000e+00 
0.0000000e+00 0.0000000e+00 0.0000000e+00 
0.0000000e+00 0.0000000e+00 0.0000000e+00 
0.0000000e+00 0.0000000e+00 0.0000000e+00 
0.0000000e+00 0.0000000e+00 0.0000000e+00 
0.0000000e+00 0.0000000e+00 0.0000000e+00 
0.0000000e+00 0.0000000e+00 0.0000000e+00 
0.0000000e+00 0.0000000e+00 0.0000000e+00 
0.0000000e+00 0.0000000e+00 0.0000000e+00 
0.0000000e+00 0.0000000e+00 0.0000000e+00 
0.0000000e+00 0.0000000e+00 0.0000000e+00 
0.0000000e+00 0.0000000e+00 0.0000000e+00 
0.0000000e+00 0.0000000e+00 0.0000000e+00 
0.0000000e+00 0.0000000e+00 0.0000000e+00 
0.0000000e+00 0.0000000e+00 0.0000000e+00 
0.0000000e+00 0.0000000e+00 0.0000000e+00 
0.0000000e+00 0.0000000e+00 0.0000000e+00 
0.0000000e+00 0.0000000e+00 0.0000000e+00 
0.0000000e+00 0.0000000e+00 0.0000000e+00 
0.0000000e+00 0.0000000e+00 0.0000000e+00 
0.0000000e+00 0.0000000e+00 0.0000000e+00 
0.0000000e+00 0.0000000e+00 0.0000000e+00 
0.0000000e+00 0.0000000e+00 0.0000000e+00 
0.0000000e+00 0.0000000e+00 0.0000000e+00 
0.0000000e+00 0.0000000e+00 0.0000000e+00 
0.0000000e+00 0.0000000e+00 0.0000000e+00 
0.0000000e+00 0.0000000e+00 0.0000000e+00 
0.0000000e+00 0.0000000e+00 0.0000000e+00 
0.0000000e+00 0.0000000e+00 0.0000000e+00 
0.0000000e+00 0.0000000e+00 0.0000000e+00 
0.0000000e+00 0.0000000e+00 0.0000000e+00 
0.0000000e+00 0.0000000e+00 0.0000000e+00 
0.0000000e+00 0.0000000e+00 0.0000000e+00 
0.0000000e+00 0.0000000e+00 0.0000000e+00 
0.0000000e+00 0.0000000e+00 0.0000000e+00 
0.0000000e+00 0.0000000e+00 0.0000000e+00 
0.0000000e+00 0.0000000e+00 0.0000000e+00 
0.0000000e+00 0.0000000e+00 0.0000000e+00 
0.0000000e+00 0.0000000e+00 0.0000000e+00 
3.1891799e-05 -9.7035308e-07 -2.4287696e-05 
5.9231785e-05 -4.8322026e-06 -1.4606784e-05 
3.9710794e-05 -8.0087875e-06 -1.7323995e-07 
1.0901383e-05 -9.6282902e-06 6.8748318e-07 
4.1322501e-06 -8.3199375e-06 1.1337655e-05 
-7.2065171e-07 4.4168032e-06 8.6538976e-06 
8.0144764e-06 6.3504749e-06 -6.4586543e-06 
3.4076020e-06 -2.8649731e-06 -1.2788998e-05 
1.4576940e-06 -6.0832376e-06 -3.5050850e-06 
1.2464629e-05 -1.0018916e-05 -4.3711448e-06 
3.4315362e-05 -2.1465999e-06 -3.8893131e-06 
4.8334601e-05 -1.0660096e-06 5.2274623e-07 
3.6767418e-05 -7.0650267e-06 1.6927517e-06 
1.1803231e-05 -1.4452611e-05 2.7675460e-06 
6.7955234e-06 -9.2941121e-07 8.3424129e-06 
2.2599013e-06 3.4660304e-06 9.3071058e-06 
1.6211084e-07 -1.1540664e-06 1.6569619e-06 
-6.2400721e-07 -1.7203400e-06 -1.3215518e-06 
3.5785274e-07 1.0715436e-06 3.0520536e-07 
0.0000000e+00 -2.1467321e-04 0.0000000e+00 
0.0000000e+00 -4.8754484e-04 0.0000000e+00 
0.0000000e+00 -5.1076879e-04 0.0000000e+00 
0.0000000e+00 -1.8422943e-04 0.0000000e+00 
0.0000000e+00 -2.7407707e-05 0.0000000e+00 
0.0000000e+00 3.8326700e-05 0.0000000e+00 
0.0000000e+00 1.6298825e-05 0.0000000e+00 
0.0000000e+00 3.0341083e-05 0.0000000e+00 
0.0000000e+00 -2.4353618e-05 0.0000000e+00 
0.0000000e+00 -3.7120801e-05 0.0000000e+00 
0.0000000e+00 -1.9875164e-04 0.0000000e+00 
0.0000000e+00 -4.6996571e-04 0.0000000e+00 
0.0000000e+00 -5.2468805e-04 0.0000000e+00 
0.0000000e+00 -1.8926857e-04 0.0000000e+00 
0.0000000e+00 -3.2507016e-06 0.0000000e+00 
0.0000000e+00 3.0804946e-05 0.0000000e+00 
0.0000000e+00 -4.4528883e-06 0.0000000e+00 
0.0000000e+00 -2.8930033e-06 0.0000000e+00 
0.0000000e+00 1.3989878e-06 0.0000000e+00 
2.5402929e-05 -1.9339266e-05 -2.7595437e-05 
2.4367426e-05 -5.7594327e-05 -4.6223915e-05 
-2.1356914e-07 -8.5048373e-07 -2.3499527e-07 
-2.7520039e-07 -1.4405190e-06 -5.0415503e-07 
3.1188203e-05 4.7453750e-06 -3.5112385e-05 
5.3657070e-05 6.8402051e-06 -1.3200141e-05 
3.3717894e-05 -1.4670867e-06 -2.0695951e-07 
4.5672477e-06 -6.3092180e-06 -7.1946556e-07 
3.8650577e-07 -1.3556935e-05 6.6847133e-06 
3.6506503e-06 7.5003318e-06 2.7449084e-06 
1.3699367e-05 1.0972925e-05 -2.1703479e-06 
-1.1589971e-06 -5.0868621e-06 -7.2514804e-06 
-6.2209479e-06 -8.6125947e-06 -6.5128702e-06 
1.7885695e-05 -1.1806736e-05 -9.5130072e-06 
3.6172962e-05 4.7433534e-07 -4.0854165e-06 
4.7683265e-05 1.9828456e-06 2.9190744e-06 
2.6634176e-05 -3.2380660e-06 1.1212532e-05 
-6.0440169e-07 -1.7735911e-05 -2.2495341e-08 
1.8958431e-06 -3.0065596e-06 2.2299541e-07 
4.3454929e-06 4.1251174e-06 1.0135199e-05 
2.2488887e-06 -3.5307087e-07 4.1717121e-06 
-7.7595229e-07 -1.9434958e-06 -4.6620173e-07 
8.1675893e-08 1.0466571e-06 -4.8294197e-07 
7.8647336e-06 -8.7201966e-05 -4.2622516e-05 
0.0000000e+00 -4.6633530e-04 0.0000000e+00 
0.0000000e+00 -1.1083366e-03 0.0000000e+00 
0.0000000e+00 -1.1488973e-03 0.0000000e+00 
0.0000000e+00 -3.4902061e-04 0.0000000e+00 
0.0000000e+00 -5.1081592e-05 0.0000000e+00 
0.0000000e+00 8.0197366e-05 0.0000000e+00 
0.0000000e+00 3.4188437e-05 0.0000000e+00 
0.0000000e+00 4.3239263e-05 0.0000000e+00 
0.0000000e+00 -5.2555381e-05 0.0000000e+00 
0.0000000e+00 -6.3538006e-05 0.0000000e+00 
0.0000000e+00 -4.4619778e-04 0.0000000e+00 
0.0000000e+00 -1.0547184e-03 0.0000000e+00 
0.0000000e+00 -1.1430178e-03 0.0000000e+00 
0.0000000e+00 -3.5260950e-04 0.0000000e+00 
0.0000000e+00 -1.4081345e-06 0.0000000e+00 
0.0000000e+00 5.8968293e-05 0.0000000e+00 
0.0000000e+00 -9.4029147e-06 0.0000000e+00 
0.0000000e+00 -9.0422463e-06 0.0000000e+00 
0.0000000e+00 6.5378172e-06 0.0000000e+00 
-2.9480140e-07 -2.3763787e-06 -5.1625699e-07 
-3.2881557e-04 -4.3631627e-04 2.7140093e-04 
-6.2980264e-04 -1.3436904e-03 1.1572198e-04 
-6.0572062e-04 -1.3850826e-03 -1.0882902e-04 
-1.7497093e-04 -2.9846566e-04 -2.2290050e-04 
2.8462464e-06 -7.1260212e-05 -1.4336815e-04 
2.0359974e-05 8.9102781e-05 2.2874808e-06 
3.6899025e-06 7.3976938e-05 -8.1340067e-06 
5.6273620e-06 -2.6766715e-05 1.0060975e-05 
8.3381192e-06 -1.0060802e-04 6.1599909e-05 
-1.8819186e-06 -3.9614741e-05 3.4879042e-05 
-2.7643880e-04 -4.3754402e-04 2.1090190e-04 
-6.5250311e-04 -1.1451117e-03 1.5565849e-04 
-6.0514332e-04 -1.3303526e-03 -4.8361744e-05 
-1.6605198e-04 -3.2745773e-04 -2.7392054e-04 
1.4718708e-05 -1.0037219e-05 -1.3119538e-04 
1.7535898e-05 5.5778906e-05 4.5481596e-05 
-9.1595075e-06 8.0293412e-06 2.1848880e-05 
-1.7944028e-08 -1.9963452e-05 -1.3890723e-05 
1.3627541e-06 1.3770900e-05 7.1483091e-06 
0.0000000e+00 -8.1578310e-04 0.0000000e+00 
0.0000000e+00 -2.2364417e-03 0.0000000e+00 
0.0000000e+00 -2.1808406e-03 0.0000000e+00 
0.0000000e+00 -5.8904907e-04 0.0000000e+00 
0.0000000e+00 -6.4852400e-05 0.0000000e+00 
0.0000000e+00 1.3166832e-04 0.0000000e+00 
0.0000000e+00 6.7615860e-05 0.0000000e+00 
0.0000000e+00 4.1003230e-05 0.0000000e+00 
0.0000000e+00 -1.0021207e-04 0.0000000e+00 
0.0000000e+00 -6.9739661e-05 0.0000000e+00 
0.0000000e+00 -8.7447895e-04 0.0000000e+00 
0.0000000e+00 -2.1277140e-03 0.0000000e+00 
0.0000000e+00 -2.1356670e-03 0.0000000e+00 
0.0000000e+00 -5.7548838e-04 0.0000000e+00 
0.0000000e+00 1.3564543e-05 0.0000000e+00 
0.0000000e+00 9.0237467e-05 0.0000000e+00 
0.0000000e+00 -1.0707967e-06 0.0000000e+00 
0.0000000e+00 -2.0033756e-05 0.0000000e+00 
0.0000000e+00 1.3126559e-05 0.0000000e+00 
3.1559357e-05 -1.8088869e-05 -1.4067178e-05 
7.1928873e-05 -1.1508740e-04 1.4307434e-05 
6.8635076e-05 -9.1393005e-05 1.0623111e-05 
2.5121401e-05 -5.7466958e-05 -1.1136079e-05 
-1.3481405e-05 -1.1675043e-05 -1.5451342e-05 
1.1878821e-05 2.1231070e-05 -4.3254836e-06 
9.0563908e-06 1.6857803e-05 -7.5654025e-06 
-4.3938362e-06 -2.0710610e-05 6.0322020e-07 
-7.4140521e-06 -3.8540125e-05 1.1685914e-05 
1.5543608e-05 -3.7649236e-06 6.5562781e-06 
5.9799357e-05 -3.0781139e-05 -1.3275314e-06 
7.6562741e-05 -3.9568171e-05 5.8630558e-06 
4.1422369e-05 -7.0990092e-05 1.7017246e-05 
2.1337297e-05 -6.6573717e-05 -1.6429094e-05 
-1.1021591e-05 -6.7158162e-06 -1.5911284e-05 
5.3411200e-06 1.3546712e-05 7.7438881e-06 
9.3937655e-07 2.8527295e-06 9.7328266e-06 
9.2300763e-07 2.9757871e-06 -9.0720738e-07 
2.1153755e-06 -1.4708970e-05 -7.7708974e-06 
0.0000000e+00 0.0000000e+00 0.0000000e+00 
0.0000000e+00 0.0000000e+00 0.0000000e+00 
0.0000000e+00 0.0000000e+00 0.0000000e+00 
0.0000000e+00 0.0000000e+00 0.0000000e+00 
0.0000000e+00 0.0000000e+00 0.0000000e+00 
0.0000000e+00 0.0000000e+00 0.0000000e+00 
0.0000000e+00 0.0000000e+00 0.0000000e+00 
0.0000000e+00 0.0000000e+00 0.0000000e+00 
0.0000000e+00 0.0000000e+00 0.0000000e+00 
0.0000000e+00 0.0000000e+00 0.0000000e+00 
0.0000000e+00 0.0000000e+00 0.0000000e+00 
0.0000000e+00 0.0000000e+00 0.0000000e+00 
0.0000000e+00 0.0000000e+00 0.0000000e+00 
0.0000000e+00 0.0000000e+00 0.0000000e+00 
0.0000000e+00 0.0000000e+00 0.0000000e+00 
0.0000000e+00 0.0000000e+00 0.0000000e+00 
0.0000000e+00 0.0000000e+00 0.0000000e+00 
0.0000000e+00 0.0000000e+00 0.0000000e+00 
0.0000000e+00 0.0000000e+00 0.0000000e+00 
0.0000000e+00 0.0000000e+00 0.0000000e+00 
0.0000000e+00 0.0000000e+00 0.0000000e+00 
0.0000000e+00 0.0000000e+00 0.0000000e+00 
0.0000000e+00 0.0000000e+00 0.0000000e+00 
0.0000000e+00 0.0000000e+00 0.0000000e+00 
0.0000000e+00 0.0000000e+00 0.0000000e+00 
0.0000000e+00 0.0000000e+00 0.0000000e+00 
0.0000000e+00 0.0000000e+00 0.0000000e+00 
0.0000000e+00 0.0000000e+00 0.0000000e+00 
0.0000000e+00 0.0000000e+00 0.0000000e+00 
0.0000000e+00 0.0000000e+00 0.0000000e+00 
0.0000000e+00 0.0000000e+00 0.0000000e+00 
0.0000000e+00 0.0000000e+00 0.0000000e+00 
0.0000000e+00 0.0000000e+00 0.0000000e+00 
0.0000000e+00 0.0000000e+00 0.0000000e+00 
0.0000000e+00 0.0000000e+00 0.0000000e+00 
0.0000000e+00 0.0000000e+00 0.0000000e+00 
0.0000000e+00 0.0000000e+00 0.0000000e+00 
0.0000000e+00 0.0000000e+00 0.0000000e+00 
0.0000000e+00 0.0000000e+00 0.0000000e+00 
0.0000000e+00 0.0000000e+00 0.0000000e+00 
0.0000000e+00 0.0000000e+00 0.0000000e+00 
0.0000000e+00 0.0000000e+00 0.0000000e+00 
1.4548921e-05 -9.1199536e-06 -1.2003627e-05 
1.2870577e-06 1.1837398e-06 1.0020433e-06 
3.0862468e-06 1.5407660e-07 -7.0787960e-06 
2.3347580e-05 -4.8969609e-06 -6.7648386e-08 
1.9345212e-05 -1.0695868e-05 7.3154121e-07 
1.5682479e-05 -1.0452012e-05 -5.0361348e-07 
5.2332521e-06 -4.5245233e-06 4.0876330e-06 