# vtk DataFile Version 4.0
vtk output
ASCII
DATASET UNSTRUCTURED_GRID
POINTS 662 float
0.0000000e+00 0.0000000e+00 0.0000000e+00 
0.0000000e+00 0.0000000e+00 4.0000000e+01 
5.0000000e+00 0.0000000e+00 0.0000000e+00 
5.0000000e+00 0.0000000e+00 4.0000000e+01 
5.0000000e+00 1.0000000e+00 0.0000000e+00 
5.0000000e+00 1.0000000e+00 4.0000000e+01 
0.0000000e+00 1.0000000e+00 0.0000000e+00 
0.0000000e+00 1.0000000e+00 4.0000000e+01 
5.0000000e+00 2.0000000e+00 0.0000000e+00 
5.0000000e+00 2.0000000e+00 4.0000000e+01 
3.0000000e+00 2.0000000e+00 0.0000000e+00 
3.0000000e+00 2.0000000e+00 4.0000000e+01 
0.0000000e+00 2.0000000e+00 0.0000000e+00 
0.0000000e+00 2.0000000e+00 4.0000000e+01 
1.5000000e+00 3.0000000e+00 0.0000000e+00 
1.5000000e+00 3.0000000e+00 4.0000000e+01 
7.5000000e-01 3.0000000e+00 0.0000000e+00 
7.5000000e-01 3.0000000e+00 4.0000000e+01 
0.0000000e+00 3.0000000e+00 0.0000000e+00 
0.0000000e+00 3.0000000e+00 4.0000000e+01 
7.5000000e-01 3.0000000e+00 5.0000000e-01 
7.5000000e-01 3.0000000e+00 1.0000000e+00 
7.5000000e-01 3.0000000e+00 1.5000000e+00 
7.5000000e-01 3.0000000e+00 2.0000000e+00 
7.5000000e-01 3.0000000e+00 2.5000000e+00 
7.5000000e-01 3.0000000e+00 3.0000000e+00 
7.5000000e-01 3.0000000e+00 3.5000000e+00 
7.5000000e-01 3.0000000e+00 4.0000000e+00 
7.5000000e-01 3.0000000e+00 4.5000000e+00 
7.5000000e-01 3.0000000e+00 5.0000000e+00 
7.5000000e-01 3.0000000e+00 5.5000000e+00 
7.5000000e-01 3.0000000e+00 6.0000000e+00 
7.5000000e-01 3.0000000e+00 6.5000000e+00 
7.5000000e-01 3.0000000e+00 7.0000000e+00 
7.5000000e-01 3.0000000e+00 7.5000000e+00 
7.5000000e-01 3.0000000e+00 8.0000000e+00 
7.5000000e-01 3.0000000e+00 8.5000000e+00 
7.5000000e-01 3.0000000e+00 9.0000000e+00 
7.5000000e-01 3.0000000e+00 9.5000000e+00 
7.5000000e-01 3.0000000e+00 1.0000000e+01 
7.5000000e-01 3.0000000e+00 1.0500000e+01 
7.5000000e-01 3.0000000e+00 1.1000000e+01 
7.5000000e-01 3.0000000e+00 1.1500000e+01 
7.5000000e-01 3.0000000e+00 1.2000000e+01 
7.5000000e-01 3.0000000e+00 1.2500000e+01 
7.5000000e-01 3.0000000e+00 1.3000000e+01 
7.5000000e-01 3.0000000e+00 1.3500000e+01 
7.5000000e-01 3.0000000e+00 1.4000000e+01 
7.5000000e-01 3.0000000e+00 1.4500000e+01 
7.5000000e-01 3.0000000e+00 1.5000000e+01 
7.5000000e-01 3.0000000e+00 1.5500000e+01 
7.5000000e-01 3.0000000e+00 1.6000000e+01 
7.5000000e-01 3.0000000e+00 1.6500000e+01 
7.5000000e-01 3.0000000e+00 1.7000000e+01 
7.5000000e-01 3.0000000e+00 1.7500000e+01 
7.5000000e-01 3.0000000e+00 1.8000000e+01 
7.5000000e-01 3.0000000e+00 1.8500000e+01 
7.5000000e-01 3.0000000e+00 1.9000000e+01 
7.5000000e-01 3.0000000e+00 1.9500000e+01 
7.5000000e-01 3.0000000e+00 2.0000000e+01 
7.5000000e-01 3.0000000e+00 2.0500000e+01 
7.5000000e-01 3.0000000e+00 2.1000000e+01 
7.5000000e-01 3.0000000e+00 2.1500000e+01 
7.5000000e-01 3.0000000e+00 2.2000000e+01 
7.5000000e-01 3.0000000e+00 2.2500000e+01 
7.5000000e-01 3.0000000e+00 2.3000000e+01 
7.5000000e-01 3.0000000e+00 2.3500000e+01 
7.5000000e-01 3.0000000e+00 2.4000000e+01 
7.5000000e-01 3.0000000e+00 2.4500000e+01 
7.5000000e-01 3.0000000e+00 2.5000000e+01 
7.5000000e-01 3.0000000e+00 2.5500000e+01 
7.5000000e-01 3.0000000e+00 2.6000000e+01 
7.5000000e-01 3.0000000e+00 2.6500000e+01 
7.5000000e-01 3.0000000e+00 2.7000000e+01 
7.5000000e-01 3.0000000e+00 2.7500000e+01 
7.5000000e-01 3.0000000e+00 2.8000000e+01 
7.5000000e-01 3.0000000e+00 2.8500000e+01 
7.5000000e-01 3.0000000e+00 2.9000000e+01 
7.5000000e-01 3.0000000e+00 2.9500000e+01 
7.5000000e-01 3.0000000e+00 3.0000000e+01 
7.5000000e-01 3.0000000e+00 3.0500000e+01 
7.5000000e-01 3.0000000e+00 3.1000000e+01 
7.5000000e-01 3.0000000e+00 3.1500000e+01 
7.5000000e-01 3.0000000e+00 3.2000000e+01 
7.5000000e-01 3.0000000e+00 3.2500000e+01 
7.5000000e-01 3.0000000e+00 3.3000000e+01 
7.5000000e-01 3.0000000e+00 3.3500000e+01 
7.5000000e-01 3.0000000e+00 3.4000000e+01 
7.5000000e-01 3.0000000e+00 3.4500000e+01 
7.5000000e-01 3.0000000e+00 3.5000000e+01 
7.5000000e-01 3.0000000e+00 3.5500000e+01 
7.5000000e-01 3.0000000e+00 3.6000000e+01 
7.5000000e-01 3.0000000e+00 3.6500000e+01 
7.5000000e-01 3.0000000e+00 3.7000000e+01 
7.5000000e-01 3.0000000e+00 3.7500000e+01 
7.5000000e-01 3.0000000e+00 3.8000000e+01 
7.5000000e-01 3.0000000e+00 3.8500000e+01 
7.5000000e-01 3.0000000e+00 3.9000000e+01 
7.5000000e-01 3.0000000e+00 3.9500000e+01 
7.5000000e-01 3.0000000e+00 4.0500000e+01 
7.5000000e-01 3.0000000e+00 4.1000000e+01 
7.5000000e-01 3.0000000e+00 4.1500000e+01 
7.5000000e-01 3.0000000e+00 4.2000000e+01 
7.5000000e-01 3.0000000e+00 4.2500000e+01 
7.5000000e-01 3.0000000e+00 4.3000000e+01 
7.5000000e-01 3.0000000e+00 4.3500000e+01 
7.5000000e-01 3.0000000e+00 4.4000000e+01 
7.5000000e-01 3.0000000e+00 4.4500000e+01 
7.5000000e-01 3.0000000e+00 4.5000000e+01 
7.5000000e-01 3.0000000e+00 4.5500000e+01 
7.5000000e-01 3.0000000e+00 4.6000000e+01 
7.5000000e-01 3.0000000e+00 4.6500000e+01 
7.5000000e-01 3.0000000e+00 4.7000000e+01 
7.5000000e-01 3.0000000e+00 4.7500000e+01 
7.5000000e-01 3.0000000e+00 4.8000000e+01 
7.5000000e-01 3.0000000e+00 4.8500000e+01 
7.5000000e-01 3.0000000e+00 4.9000000e+01 
7.5000000e-01 3.0000000e+00 4.9500000e+01 
7.5000000e-01 3.0000000e+00 5.0000000e+01 
7.5000000e-01 3.0250001e+00 0.0000000e+00 
7.5000000e-01 3.0250001e+00 5.0000000e-01 
7.5000000e-01 3.0250001e+00 1.0000000e+00 
7.5000000e-01 3.0250001e+00 1.5000000e+00 
7.5000000e-01 3.0250001e+00 2.0000000e+00 
7.5000000e-01 3.0250001e+00 2.5000000e+00 
7.5000000e-01 3.0250001e+00 3.0000000e+00 
7.5000000e-01 3.0250001e+00 3.5000000e+00 
7.5000000e-01 3.0250001e+00 4.0000000e+00 
7.5000000e-01 3.0250001e+00 4.5000000e+00 
7.5000000e-01 3.0250001e+00 5.0000000e+00 
7.5000000e-01 3.0250001e+00 5.5000000e+00 
7.5000000e-01 3.0250001e+00 6.0000000e+00 
7.5000000e-01 3.0250001e+00 6.5000000e+00 
7.5000000e-01 3.0250001e+00 7.0000000e+00 
7.5000000e-01 3.0250001e+00 7.5000000e+00 
7.5000000e-01 3.0250001e+00 8.0000000e+00 
7.5000000e-01 3.0250001e+00 8.5000000e+00 
7.5000000e-01 3.0250001e+00 9.0000000e+00 
7.5000000e-01 3.0250001e+00 9.5000000e+00 
7.5000000e-01 3.0250001e+00 1.0000000e+01 
7.5000000e-01 3.0250001e+00 1.0500000e+01 
7.5000000e-01 3.0250001e+00 1.1000000e+01 
7.5000000e-01 3.0250001e+00 1.1500000e+01 
7.5000000e-01 3.0250001e+00 1.2000000e+01 
7.5000000e-01 3.0250001e+00 1.2500000e+01 
7.5000000e-01 3.0250001e+00 1.3000000e+01 
7.5000000e-01 3.0250001e+00 1.3500000e+01 
7.5000000e-01 3.0250001e+00 1.4000000e+01 
7.5000000e-01 3.0250001e+00 1.4500000e+01 
7.5000000e-01 3.0250001e+00 1.5000000e+01 
7.5000000e-01 3.0250001e+00 1.5500000e+01 
7.5000000e-01 3.0250001e+00 1.6000000e+01 
7.5000000e-01 3.0250001e+00 1.6500000e+01 
7.5000000e-01 3.0250001e+00 1.7000000e+01 
7.5000000e-01 3.0250001e+00 1.7500000e+01 
7.5000000e-01 3.0250001e+00 1.8000000e+01 
7.5000000e-01 3.0250001e+00 1.8500000e+01 
7.5000000e-01 3.0250001e+00 1.9000000e+01 
7.5000000e-01 3.0250001e+00 1.9500000e+01 
7.5000000e-01 3.0250001e+00 2.0000000e+01 
7.5000000e-01 3.0250001e+00 2.0500000e+01 
7.5000000e-01 3.0250001e+00 2.1000000e+01 
7.5000000e-01 3.0250001e+00 2.1500000e+01 
7.5000000e-01 3.0250001e+00 2.2000000e+01 
7.5000000e-01 3.0250001e+00 2.2500000e+01 
7.5000000e-01 3.0250001e+00 2.3000000e+01 
7.5000000e-01 3.0250001e+00 2.3500000e+01 
7.5000000e-01 3.0250001e+00 2.4000000e+01 
7.5000000e-01 3.0250001e+00 2.4500000e+01 
7.5000000e-01 3.0250001e+00 2.5000000e+01 
7.5000000e-01 3.0250001e+00 2.5500000e+01 
7.5000000e-01 3.0250001e+00 2.6000000e+01 
7.5000000e-01 3.0250001e+00 2.6500000e+01 
7.5000000e-01 3.0250001e+00 2.7000000e+01 
7.5000000e-01 3.0250001e+00 2.7500000e+01 
7.5000000e-01 3.0250001e+00 2.8000000e+01 
7.5000000e-01 3.0250001e+00 2.8500000e+01 
7.5000000e-01 3.0250001e+00 2.9000000e+01 
7.5000000e-01 3.0250001e+00 2.9500000e+01 
7.5000000e-01 3.0250001e+00 3.0000000e+01 
7.5000000e-01 3.0250001e+00 3.0500000e+01 
7.5000000e-01 3.0250001e+00 3.1000000e+01 
7.5000000e-01 3.0250001e+00 3.1500000e+01 
7.5000000e-01 3.0250001e+00 3.2000000e+01 
7.5000000e-01 3.0250001e+00 3.2500000e+01 
7.5000000e-01 3.0250001e+00 3.3000000e+01 
7.5000000e-01 3.0250001e+00 3.3500000e+01 
7.5000000e-01 3.0250001e+00 3.4000000e+01 
7.5000000e-01 3.0250001e+00 3.4500000e+01 
7.5000000e-01 3.0250001e+00 3.5000000e+01 
7.5000000e-01 3.0250001e+00 3.5500000e+01 
7.5000000e-01 3.0250001e+00 3.6000000e+01 
7.5000000e-01 3.0250001e+00 3.6500000e+01 
7.5000000e-01 3.0250001e+00 3.7000000e+01 
7.5000000e-01 3.0250001e+00 3.7500000e+01 
7.5000000e-01 3.0250001e+00 3.8000000e+01 
7.5000000e-01 3.0250001e+00 3.8500000e+01 
7.5000000e-01 3.0250001e+00 3.9000000e+01 
7.5000000e-01 3.0250001e+00 3.9500000e+01 
7.5000000e-01 3.0250001e+00 4.0000000e+01 
7.5000000e-01 3.0250001e+00 4.0500000e+01 
7.5000000e-01 3.0250001e+00 4.1000000e+01 
7.5000000e-01 3.0250001e+00 4.1500000e+01 
7.5000000e-01 3.0250001e+00 4.2000000e+01 
7.5000000e-01 3.0250001e+00 4.2500000e+01 
7.5000000e-01 3.0250001e+00 4.3000000e+01 
7.5000000e-01 3.0250001e+00 4.3500000e+01 
7.5000000e-01 3.0250001e+00 4.4000000e+01 
7.5000000e-01 3.0250001e+00 4.4500000e+01 
7.5000000e-01 3.0250001e+00 4.5000000e+01 
7.5000000e-01 3.0250001e+00 4.5500000e+01 
7.5000000e-01 3.0250001e+00 4.6000000e+01 
7.5000000e-01 3.0250001e+00 4.6500000e+01 
7.5000000e-01 3.0250001e+00 4.7000000e+01 
7.5000000e-01 3.0250001e+00 4.7500000e+01 
7.5000000e-01 3.0250001e+00 4.8000000e+01 
7.5000000e-01 3.0250001e+00 4.8500000e+01 
7.5000000e-01 3.0250001e+00 4.9000000e+01 
7.5000000e-01 3.0250001e+00 4.9500000e+01 
7.5000000e-01 3.0250001e+00 5.0000000e+01 
7.5000000e-01 3.0250001e+00 3.5750000e+01 
3.0000000e+00 2.0000000e+00 3.6000000e+01 
8.0487806e-01 3.0000000e+00 3.6000000e+01 
0.0000000e+00 0.0000000e+00 2.0000000e+00 
0.0000000e+00 0.0000000e+00 4.0000000e+00 
0.0000000e+00 0.0000000e+00 6.0000000e+00 
0.0000000e+00 0.0000000e+00 8.0000000e+00 
0.0000000e+00 0.0000000e+00 1.0000000e+01 
0.0000000e+00 0.0000000e+00 1.2000000e+01 
0.0000000e+00 0.0000000e+00 1.4000000e+01 
[...]
POINT_DATA 662
FIELD FieldData 3
DISPLACEMENT 3 662  float
0.0000000e+00 0.0000000e+00 0.0000000e+00 
0.0000000e+00 0.0000000e+00 0.0000000e+00 
0.0000000e+00 0.0000000e+00 0.0000000e+00 
0.0000000e+00 0.0000000e+00 0.0000000e+00 
6.3317416e-06 -4.9704190e-06 8.2842206e-07 
6.0523813e-05 -1.7843860e-05 -3.0068858e-07 
0.0000000e+00 -1.6052978e-05 0.0000000e+00 
0.0000000e+00 -1.2294656e-03 0.0000000e+00 
7.9098736e-06 -6.6750381e-06 -4.0928053e-06 
2.6164214e-05 1.6576578e-05 1.1343182e-05 
2.0275716e-06 -1.3214822e-05 -1.5128177e-05 
3.1015614e-05 -2.9562236e-04 1.9854671e-04 
0.0000000e+00 -2.8097393e-05 0.0000000e+00 
0.0000000e+00 -3.0768630e-03 0.0000000e+00 
-1.4235758e-05 -3.3087497e-05 -6.2070991e-05 
-1.1257210e-03 -3.3481016e-03 1.1685652e-03 
-2.1286634e-05 -5.3994654e-07 -5.0601582e-05 
-6.8072020e-04 -1.4775150e-02 2.6144821e-03 
0.0000000e+00 -4.2604406e-05 0.0000000e+00 
0.0000000e+00 -6.3891606e-03 0.0000000e+00 
-1.3244581e-05 4.6766213e-06 -4.6267938e-05 
-7.8439271e-06 1.6906177e-05 -3.8924005e-05 
-4.1410567e-06 3.0427214e-05 -2.8917955e-05 
2.4738849e-06 4.1177158e-05 -1.3575724e-05 
6.8371510e-06 4.5984667e-05 2.8075035e-06 
1.2377899e-05 4.2377029e-05 1.7294844e-05 
1.0489105e-05 3.0634161e-05 2.7523874e-05 
8.8699335e-06 1.2504734e-05 3.1870517e-05 
7.5661487e-06 -9.7948550e-06 3.1362193e-05 
9.8942628e-06 -3.3632568e-05 2.9754912e-05 
1.3908321e-05 -5.6424662e-05 3.2688440e-05 
1.3180104e-05 -7.5400836e-05 3.7099402e-05 
3.3019498e-06 -8.8173634e-05 3.8077211e-05 
-7.9119118e-06 -9.3592891e-05 3.1932934e-05 
-1.2877697e-05 -9.0954636e-05 2.3523158e-05 
-1.5300488e-05 -8.1308761e-05 8.5659194e-06 
-1.8385315e-05 -6.4906031e-05 -1.1037751e-05 
-2.0706075e-05 -4.5411758e-05 -2.3485380e-05 
-2.0545191e-05 -2.5168880e-05 -2.7687876e-05 
-1.9437573e-05 -5.4712327e-06 -2.5080799e-05 
-1.3505349e-05 1.2545420e-05 -1.9114947e-05 
-8.8079296e-06 2.8679147e-05 -1.4461157e-05 
-2.7943070e-06 4.2633779e-05 -1.9072386e-05 
7.3673077e-06 5.4812703e-05 -2.3591279e-05 
1.8125997e-05 6.5387554e-05 -2.1169344e-05 
2.6376159e-05 7.5151765e-05 -1.3772923e-05 
3.2699962e-05 8.5116029e-05 -7.3482552e-06 
3.7617338e-05 9.5960226e-05 1.3116447e-06 
4.1613184e-05 1.0723942e-04 6.5258364e-06 
4.2595875e-05 1.1360212e-04 1.4988923e-05 
3.5810379e-05 1.0431577e-04 3.2738270e-05 
2.1005162e-05 5.1351130e-05 5.2082400e-05 
-2.3086595e-05 -8.6145112e-05 8.9346169e-05 
-3.8782888e-05 -3.4996693e-04 1.2246786e-04 
-6.6759894e-05 -8.0432335e-04 1.6749435e-04 
-1.2675465e-04 -1.4946136e-03 1.0922613e-04 
-2.8222287e-04 -2.4419595e-03 1.8507299e-04 
-2.9434418e-04 -3.4664639e-03 1.6130690e-04 
-1.8836853e-04 -4.2569162e-03 9.5764721e-05 
-1.5937990e-04 -4.2479988e-03 1.0572357e-04 
-2.8852525e-04 -4.0218509e-03 3.6833546e-05 
-3.5185690e-04 -3.9561996e-03 2.0577017e-05 
-2.3820698e-04 -4.1653560e-03 -1.4316962e-05 
-8.0197307e-05 -4.1550640e-03 -5.6774457e-05 
-1.0074883e-04 -3.4433589e-03 -1.5201139e-04 
-1.8859962e-04 -2.4048851e-03 -1.7801452e-04 
-1.7887204e-04 -1.4975261e-03 -1.7395284e-04 
-5.2537791e-05 -8.0408592e-04 -1.1486109e-04 
-1.5272275e-05 -3.6086171e-04 -1.4440145e-04 
-6.0300414e-07 -1.0629477e-04 -1.0836010e-04 
1.7563160e-06 1.8638068e-05 -8.0851991e-05 
1.3369468e-05 6.3608102e-05 -5.3669373e-05 
1.1926601e-05 6.0771876e-05 -2.8291761e-05 
8.2549413e-06 3.6133981e-05 -1.0525441e-05 
-1.9879055e-06 7.2937473e-06 -3.0329568e-06 
-1.4329304e-05 -1.6642698e-05 -2.9407558e-06 
-1.7812008e-05 -2.9822031e-05 -4.3377781e-06 
-1.7995366e-05 -3.4719727e-05 -6.1298533e-06 
-2.0392285e-05 -3.5003788e-05 -6.8063878e-06 
-2.2081600e-05 -3.2230466e-05 -5.4889038e-06 
-1.9395718e-05 -2.6633510e-05 -8.0444061e-06 
-1.7601888e-05 -1.7734690e-05 -1.5944943e-05 
-4.7741801e-06 -4.0411906e-06 -3.3464537e-05 
1.0262369e-05 1.4949224e-05 -4.5211389e-05 
2.9372328e-05 4.0068793e-05 -3.6660891e-05 
4.2289754e-05 7.1221417e-05 -1.9604026e-05 
4.8945669e-05 1.0974738e-04 -6.4777132e-06 
5.4028787e-05 1.5582638e-04 1.1465941e-05 
5.7402533e-05 2.0868958e-04 2.9881072e-05 
6.0208567e-05 2.6267581e-04 5.8030266e-05 
3.4976259e-05 3.0672466e-04 1.1041631e-04 
1.5659260e-05 3.0717268e-04 1.6995998e-04 
-4.3925749e-05 2.0508138e-04 2.3364542e-04 
-6.1031045e-05 -8.3498824e-05 3.0038544e-04 
-1.4531997e-04 -6.9607451e-04 4.4190965e-04 
-3.1882865e-04 -1.8523695e-03 7.2360010e-04 
-4.2572696e-04 -3.7331793e-03 9.7744947e-04 
-3.5224290e-04 -6.4517320e-03 1.0196951e-03 
-1.5315090e-04 -9.9908840e-03 3.1518430e-04 
0.0000000e+00 -2.0332919e-02 0.0000000e+00 
0.0000000e+00 -2.5786301e-02 0.0000000e+00 
0.0000000e+00 -3.0157695e-02 0.0000000e+00 
0.0000000e+00 -3.2427024e-02 0.0000000e+00 
0.0000000e+00 -3.2026041e-02 0.0000000e+00 
0.0000000e+00 -2.9472390e-02 0.0000000e+00 
0.0000000e+00 -2.5421927e-02 0.0000000e+00 
0.0000000e+00 -2.0487957e-02 0.0000000e+00 
0.0000000e+00 -1.5218328e-02 0.0000000e+00 
0.0000000e+00 -1.0073591e-02 0.0000000e+00 
0.0000000e+00 -5.4094824e-03 0.0000000e+00 
0.0000000e+00 -1.4670433e-03 0.0000000e+00 
0.0000000e+00 1.6282345e-03 0.0000000e+00 
0.0000000e+00 3.8585535e-03 0.0000000e+00 
0.0000000e+00 5.2981135e-03 0.0000000e+00 
0.0000000e+00 6.0901814e-03 0.0000000e+00 
0.0000000e+00 6.4179921e-03 0.0000000e+00 
0.0000000e+00 6.4724907e-03 0.0000000e+00 
0.0000000e+00 6.4218780e-03 0.0000000e+00 
0.0000000e+00 6.3878498e-03 0.0000000e+00 
0.0000000e+00 -2.9771201e-07 0.0000000e+00 
0.0000000e+00 4.7757580e-06 0.0000000e+00 
0.0000000e+00 1.6814753e-05 0.0000000e+00 
0.0000000e+00 3.0383026e-05 0.0000000e+00 
0.0000000e+00 4.1150553e-05 0.0000000e+00 
0.0000000e+00 4.5851124e-05 0.0000000e+00 
0.0000000e+00 4.2318115e-05 0.0000000e+00 
0.0000000e+00 3.0627692e-05 0.0000000e+00 
0.0000000e+00 1.2487631e-05 0.0000000e+00 
0.0000000e+00 -9.7968559e-06 0.0000000e+00 
0.0000000e+00 -3.3651759e-05 0.0000000e+00 
0.0000000e+00 -5.6418085e-05 0.0000000e+00 
0.0000000e+00 -7.5360869e-05 0.0000000e+00 
0.0000000e+00 -8.8169174e-05 0.0000000e+00 
0.0000000e+00 -9.3537092e-05 0.0000000e+00 
0.0000000e+00 -9.1000700e-05 0.0000000e+00 
0.0000000e+00 -8.1134975e-05 0.0000000e+00 
0.0000000e+00 -6.4971144e-05 0.0000000e+00 
0.0000000e+00 -4.5489698e-05 0.0000000e+00 
0.0000000e+00 -2.5188192e-05 0.0000000e+00 
0.0000000e+00 -5.5206660e-06 0.0000000e+00 
0.0000000e+00 1.2546931e-05 0.0000000e+00 
0.0000000e+00 2.8659262e-05 0.0000000e+00 
0.0000000e+00 4.2657684e-05 0.0000000e+00 
0.0000000e+00 5.4791817e-05 0.0000000e+00 
0.0000000e+00 6.5392429e-05 0.0000000e+00 
0.0000000e+00 7.5191398e-05 0.0000000e+00 
0.0000000e+00 8.5175488e-05 0.0000000e+00 
0.0000000e+00 9.6173615e-05 0.0000000e+00 
0.0000000e+00 1.0753788e-04 0.0000000e+00 
0.0000000e+00 1.1457568e-04 0.0000000e+00 
0.0000000e+00 1.0502511e-04 0.0000000e+00 
0.0000000e+00 5.1509276e-05 0.0000000e+00 
0.0000000e+00 -8.4949294e-05 0.0000000e+00 
0.0000000e+00 -3.5061766e-04 0.0000000e+00 
0.0000000e+00 -8.0586475e-04 0.0000000e+00 
0.0000000e+00 -1.5042601e-03 0.0000000e+00 
0.0000000e+00 -2.4498980e-03 0.0000000e+00 
0.0000000e+00 -3.4996525e-03 0.0000000e+00 
0.0000000e+00 -4.2818277e-03 0.0000000e+00 
0.0000000e+00 -4.2795716e-03 0.0000000e+00 
0.0000000e+00 -4.0360270e-03 0.0000000e+00 
0.0000000e+00 -3.9868020e-03 0.0000000e+00 
0.0000000e+00 -4.1850163e-03 0.0000000e+00 
0.0000000e+00 -4.1891737e-03 0.0000000e+00 
0.0000000e+00 -3.4612403e-03 0.0000000e+00 
0.0000000e+00 -2.4230646e-03 0.0000000e+00 
0.0000000e+00 -1.4997006e-03 0.0000000e+00 
0.0000000e+00 -8.0827385e-04 0.0000000e+00 
0.0000000e+00 -3.6069506e-04 0.0000000e+00 
0.0000000e+00 -1.0545319e-04 0.0000000e+00 
0.0000000e+00 1.9621086e-05 0.0000000e+00 
0.0000000e+00 6.3931562e-05 0.0000000e+00 
0.0000000e+00 6.1191437e-05 0.0000000e+00 
0.0000000e+00 3.6570178e-05 0.0000000e+00 
0.0000000e+00 7.4531940e-06 0.0000000e+00 
0.0000000e+00 -1.6248789e-05 0.0000000e+00 
0.0000000e+00 -2.9774466e-05 0.0000000e+00 
0.0000000e+00 -3.4846231e-05 0.0000000e+00 
0.0000000e+00 -3.5070894e-05 0.0000000e+00 
0.0000000e+00 -3.2275482e-05 0.0000000e+00 
0.0000000e+00 -2.6701862e-05 0.0000000e+00 
0.0000000e+00 -1.7690185e-05 0.0000000e+00 
0.0000000e+00 -4.0413202e-06 0.0000000e+00 
0.0000000e+00 1.5009940e-05 0.0000000e+00 
0.0000000e+00 4.0015493e-05 0.0000000e+00 
0.0000000e+00 7.1273345e-05 0.0000000e+00 
0.0000000e+00 1.0979742e-04 0.0000000e+00 
0.0000000e+00 1.5604374e-04 0.0000000e+00 
0.0000000e+00 2.0899279e-04 0.0000000e+00 
0.0000000e+00 2.6382937e-04 0.0000000e+00 
0.0000000e+00 3.0815916e-04 0.0000000e+00 
0.0000000e+00 3.0854539e-04 0.0000000e+00 
0.0000000e+00 2.0814147e-04 0.0000000e+00 
0.0000000e+00 -7.9152960e-05 0.0000000e+00 
0.0000000e+00 -6.9851312e-04 0.0000000e+00 
0.0000000e+00 -1.8561630e-03 0.0000000e+00 
0.0000000e+00 -3.7349169e-03 0.0000000e+00 
0.0000000e+00 -6.4626462e-03 0.0000000e+00 
0.0000000e+00 -1.0112632e-02 0.0000000e+00 
0.0000000e+00 -1.4811741e-02 0.0000000e+00 
0.0000000e+00 -2.0333232e-02 0.0000000e+00 
0.0000000e+00 -2.5786649e-02 0.0000000e+00 
0.0000000e+00 -3.0157700e-02 0.0000000e+00 
0.0000000e+00 -3.2426767e-02 0.0000000e+00 
0.0000000e+00 -3.2026906e-02 0.0000000e+00 
0.0000000e+00 -2.9474324e-02 0.0000000e+00 
0.0000000e+00 -2.5424907e-02 0.0000000e+00 
0.0000000e+00 -2.0491902e-02 0.0000000e+00 
0.0000000e+00 -1.5223005e-02 0.0000000e+00 
0.0000000e+00 -1.0078660e-02 0.0000000e+00 
0.0000000e+00 -5.4145651e-03 0.0000000e+00 
0.0000000e+00 -1.4717691e-03 0.0000000e+00 
0.0000000e+00 1.6242141e-03 0.0000000e+00 
0.0000000e+00 3.8555614e-03 0.0000000e+00 
0.0000000e+00 5.2964101e-03 0.0000000e+00 
0.0000000e+00 6.0898894e-03 0.0000000e+00 
0.0000000e+00 6.4190342e-03 0.0000000e+00 
0.0000000e+00 6.4745978e-03 0.0000000e+00 
0.0000000e+00 6.4246552e-03 0.0000000e+00 
0.0000000e+00 6.3908529e-03 0.0000000e+00 
0.0000000e+00 3.1751001e-04 0.0000000e+00 
1.4097383e-05 3.9863400e-05 3.6016518e-05 
3.5149969e-06 2.7704358e-04 1.7901401e-04 
0.0000000e+00 0.0000000e+00 0.0000000e+00 
0.0000000e+00 0.0000000e+00 0.0000000e+00 
0.0000000e+00 0.0000000e+00 0.0000000e+00 
0.0000000e+00 0.0000000e+00 0.0000000e+00 
0.0000000e+00 0.0000000e+00 0.0000000e+00 
0.0000000e+00 0.0000000e+00 0.0000000e+00 
0.0000000e+00 0.0000000e+00 0.0000000e+00 
0.0000000e+00 0.0000000e+00 0.0000000e+00 
0.0000000e+00 0.0000000e+00 0.0000000e+00 
0.0000000e+00 0.0000000e+00 0.0000000e+00 
0.0000000e+00 0.0000000e+00 0.0000000e+00 
0.0000000e+00 0.0000000e+00 0.0000000e+00 
0.0000000e+00 0.0000000e+00 0.0000000e+00 
0.0000000e+00 0.0000000e+00 0.0000000e+00 
0.0000000e+00 0.0000000e+00 0.0000000e+00 
0.0000000e+00 0.0000000e+00 0.0000000e+00 
0.0000000e+00 0.0000000e+00 0.0000000e+00 
0.0000000e+00 0.0000000e+00 0.0000000e+00 
0.0000000e+00 0.0000000e+00 0.0000000e+00 
0.0000000e+00 0.0000000e+00 0.0000000e+00 
0.0000000e+00 0.0000000e+00 0.0000000e+00 
0.0000000e+00 0.0000000e+00 0.0000000e+00 
0.0000000e+00 0.0000000e+00 0.0000000e+00 
0.0000000e+00 0.0000000e+00 0.0000000e+00 
0.0000000e+00 0.0000000e+00 0.0000000e+00 
0.0000000e+00 0.0000000e+00 0.0000000e+00 
0.0000000e+00 0.0000000e+00 0.0000000e+00 
0.0000000e+00 0.0000000e+00 0.0000000e+00 
0.0000000e+00 0.0000000e+00 0.0000000e+00 
0.0000000e+00 0.0000000e+00 0.0000000e+00 
0.0000000e+00 0.0000000e+00 0.0000000e+00 
0.0000000e+00 0.0000000e+00 0.0000000e+00 
0.0000000e+00 0.0000000e+00 0.0000000e+00 
0.0000000e+00 0.0000000e+00 0.0000000e+00 
0.0000000e+00 0.0000000e+00 0.0000000e+00 
0.0000000e+00 0.0000000e+00 0.0000000e+00 
0.0000000e+00 0.0000000e+00 0.0000000e+00 
0.0000000e+00 0.0000000e+00 0.0000000e+00 
0.0000000e+00 0.0000000e+00 0.0000000e+00 
0.0000000e+00 0.0000000e+00 0.0000000e+00 
0.0000000e+00 0.0000000e+00 0.0000000e+00 
0.0000000e+00 0.0000000e+00 0.0000000e+00 
-9.5726466e-07 2.1730502e-06 5.2205633e-07 
-1.8606374e-06 2.8446825e-06 -1.8426573e-06 
2.2420013e-06 -4.8033860e-07 1.2352925e-06 
4.2755541e-06 -2.7713302e-06 3.9367965e-06 
-1.7579105e-06 -2.4993417e-06 6.6971365e-06 
-8.4403191e-06 4.9748701e-07 1.7694656e-06 
-4.1617373e-06 8.8867051e-07 -6.7786668e-06 
1.1104477e-05 -3.0393755e-06 -1.1570909e-05 
3.6262583e-05 -8.0741802e-06 -1.3101561e-05 
5.3727643e-05 -7.2805010e-06 -3.8494250e-06 
4.6335765e-05 -5.2291684e-06 8.5258580e-06 
2.2621180e-05 -2.9058460e-06 4.5433003e-06 
5.8722021e-06 -1.3094223e-06 2.5831812e-06 
6.7243184e-07 -1.2032435e-06 2.9861801e-06 
-3.5065848e-06 -4.0588611e-07 4.3397895e-06 
-1.0044044e-05 2.2775337e-06 3.0554361e-06 
-8.6406026e-06 4.7134051e-07 5.0381946e-06 
9.0444173e-06 2.8266420e-06 3.5324504e-06 
3.7347589e-05 -1.1020295e-06 -5.8795190e-06 
0.0000000e+00 1.6040934e-05 0.0000000e+00 
0.0000000e+00 6.2520849e-06 0.0000000e+00 
0.0000000e+00 -2.0821537e-05 0.0000000e+00 
0.0000000e+00 -2.7470285e-05 0.0000000e+00 
0.0000000e+00 -7.4359457e-07 0.0000000e+00 
0.0000000e+00 1.6118980e-05 0.0000000e+00 
0.0000000e+00 2.9805818e-05 0.0000000e+00 
0.0000000e+00 -2.5074144e-06 0.0000000e+00 
0.0000000e+00 -2.3158605e-04 0.0000000e+00 
0.0000000e+00 -5.6535268e-04 0.0000000e+00 
0.0000000e+00 -5.0722837e-04 0.0000000e+00 
0.0000000e+00 -1.5240441e-04 0.0000000e+00 
0.0000000e+00 -1.9583049e-06 0.0000000e+00 
0.0000000e+00 -9.4843580e-07 0.0000000e+00 
0.0000000e+00 -1.0774186e-05 0.0000000e+00 
0.0000000e+00 -6.6963867e-07 0.0000000e+00 
0.0000000e+00 4.3499989e-05 0.0000000e+00 
0.0000000e+00 4.6565769e-05 0.0000000e+00 
0.0000000e+00 -3.5491760e-04 0.0000000e+00 
3.0427402e-06 -6.1121123e-06 -2.7958358e-06 
1.6530013e-06 -1.4903940e-05 -7.1963032e-06 
1.0224593e-04 -1.0519083e-04 5.3498919e-05 
2.6869558e-04 -7.1323029e-04 8.2434090e-05 
1.1008837e-06 1.7708874e-06 -1.7840227e-06 
-2.0800978e-06 2.8727302e-06 -2.6971534e-07 
4.9378821e-07 3.1153198e-09 3.9054125e-06 
1.9772147e-06 -3.2536004e-06 6.0656557e-06 
-2.1570033e-06 -4.8914717e-06 5.8152195e-06 
-6.6839525e-06 7.7802110e-07 1.1663406e-07 
-1.9635286e-06 2.2671202e-06 -9.7130733e-06 
2.1982529e-05 -3.1228794e-06 -1.4104447e-05 
3.5086319e-05 -6.3527541e-06 -6.8027734e-06 
3.7669361e-05 -5.9271383e-06 -2.8877350e-06 
2.7962660e-05 -2.7500735e-06 7.5778903e-06 
1.3642041e-05 4.5071789e-07 -1.1638307e-06 
6.7971478e-06 -9.9285842e-07 1.1234657e-06 
-1.9544558e-07 -3.3178917e-06 4.1221251e-06 
-5.0043495e-06 -2.4105416e-06 4.1052072e-06 
-1.1661712e-05 2.4110784e-06 3.2771061e-06 
-1.7954917e-06 2.9549784e-07 2.1493038e-06 
2.0076703e-05 2.9058108e-06 7.1322543e-06 
2.0898471e-05 1.3849419e-05 2.1458760e-05 
-5.7024074e-08 -1.8999150e-05 -2.0384363e-05 
0.0000000e+00 3.1390919e-05 0.0000000e+00 
0.0000000e+00 1.2372398e-05 0.0000000e+00 
0.0000000e+00 -3.9900653e-05 0.0000000e+00 
0.0000000e+00 -5.0705301e-05 0.0000000e+00 
0.0000000e+00 6.7618299e-07 0.0000000e+00 
0.0000000e+00 2.9200517e-05 0.0000000e+00 
0.0000000e+00 5.4677683e-05 0.0000000e+00 
0.0000000e+00 7.8746552e-06 0.0000000e+00 
0.0000000e+00 -4.8453081e-04 0.0000000e+00 
0.0000000e+00 -1.2494138e-03 0.0000000e+00 
0.0000000e+00 -1.1304046e-03 0.0000000e+00 
0.0000000e+00 -2.8574519e-04 0.0000000e+00 
0.0000000e+00 1.1576024e-05 0.0000000e+00 
0.0000000e+00 -4.6984765e-06 0.0000000e+00 
0.0000000e+00 -2.0209351e-05 0.0000000e+00 
0.0000000e+00 3.8837607e-07 0.0000000e+00 
0.0000000e+00 8.4758125e-05 0.0000000e+00 
0.0000000e+00 1.1156587e-04 0.0000000e+00 
0.0000000e+00 -5.7152641e-04 0.0000000e+00 
2.8316607e-04 -1.4842562e-03 2.5269709e-04 
-1.2898216e-06 3.9594575e-05 -2.0362204e-05 
1.0069252e-05 4.9996411e-06 4.5327375e-05 
1.2873934e-05 -6.1534782e-05 4.7861286e-05 
-2.2647331e-05 -5.9133767e-05 4.5991728e-06 
-2.4402278e-05 -6.2594563e-06 -3.0652704e-05 
4.8551315e-06 4.2249052e-05 -4.6499517e-05 
5.9949733e-05 4.5489251e-05 1.0570267e-06 
4.1330353e-05 6.7748340e-05 8.2021688e-05 
-2.9034837e-04 -4.5986607e-04 3.0877523e-04 
-7.2608440e-04 -1.3910041e-03 9.7727505e-05 
-6.2566652e-04 -1.4159301e-03 -1.5005298e-04 
-1.2272764e-04 -2.4235580e-04 -2.4562387e-04 
2.9297520e-05 2.7321857e-05 -5.6554934e-05 
-1.7708540e-05 -2.2310722e-05 2.3372127e-06 
-2.8564587e-05 -2.5490919e-05 -8.7649805e-06 
5.5881078e-06 1.3188632e-05 -6.6428052e-05 
8.0295096e-05 8.1026032e-05 -6.5922709e-06 
4.7167407e-05 1.4952428e-04 2.0985171e-04 
-4.6022073e-04 -5.1673886e-04 7.9767575e-04 
0.0000000e+00 4.4782955e-05 0.0000000e+00 
0.0000000e+00 1.7835793e-05 0.0000000e+00 
0.0000000e+00 -6.8652073e-05 0.0000000e+00 
0.0000000e+00 -7.0685062e-05 0.0000000e+00 
0.0000000e+00 3.7120158e-06 0.0000000e+00 
0.0000000e+00 4.0592829e-05 0.0000000e+00 
0.0000000e+00 7.6398355e-05 0.0000000e+00 
0.0000000e+00 5.2452735e-05 0.0000000e+00 
0.0000000e+00 -9.0181397e-04 0.0000000e+00 
0.0000000e+00 -2.4170743e-03 0.0000000e+00 
0.0000000e+00 -2.1569193e-03 0.0000000e+00 
0.0000000e+00 -4.8440861e-04 0.0000000e+00 
0.0000000e+00 4.9421360e-05 0.0000000e+00 
0.0000000e+00 -8.0591135e-06 0.0000000e+00 
0.0000000e+00 -3.0090818e-05 0.0000000e+00 
0.0000000e+00 1.6637606e-06 0.0000000e+00 
0.0000000e+00 1.0364733e-04 0.0000000e+00 
0.0000000e+00 2.6126215e-04 0.0000000e+00 
0.0000000e+00 -1.0895174e-03 0.0000000e+00 
-3.5012379e-06 1.1218856e-05 -8.2173738e-06 
-1.1097253e-07 2.3123955e-06 4.4094536e-06 
3.2725873e-06 -1.5038114e-05 1.1926956e-05 
-4.1476264e-06 -1.8284654e-05 5.1341549e-06 
-1.3425367e-05 -2.5669001e-06 -6.9094590e-08 
-6.8476129e-06 1.0607039e-05 -7.4097461e-06 
1.0759874e-05 1.3859634e-05 -1.3521166e-06 
2.5822386e-05 3.1055275e-05 1.2235588e-05 
5.6638677e-05 -5.1622254e-05 2.8328977e-06 
5.3789732e-05 -1.0480764e-04 -1.0104349e-05 
3.9617356e-05 -9.7602795e-05 8.0074358e-07 
3.9228384e-05 -5.1395207e-05 -2.6361972e-06 
5.3762292e-06 5.1566080e-06 -9.6768290e-06 
-9.4811639e-06 -4.8436391e-06 -5.5939349e-06 
-1.2597951e-05 -5.2971154e-06 -2.8438806e-06 
-9.6340864e-06 -1.1021664e-06 -1.2057784e-06 
9.6219592e-06 2.4399422e-05 8.4662852e-06 
5.2417316e-05 -1.0187561e-05 5.4048443e-05 
3.0518368e-05 8.3221428e-05 1.4389267e-04 
0.0000000e+00 0.0000000e+00 0.0000000e+00 
0.0000000e+00 0.0000000e+00 0.0000000e+00 
0.0000000e+00 0.0000000e+00 0.0000000e+00 
0.0000000e+00 0.0000000e+00 0.0000000e+00 
0.0000000e+00 0.0000000e+00 0.0000000e+00 
0.0000000e+00 0.0000000e+00 0.0000000e+00 
0.0000000e+00 0.0000000e+00 0.0000000e+00 
0.0000000e+00 0.0000000e+00 0.0000000e+00 
0.0000000e+00 0.0000000e+00 0.0000000e+00 
0.0000000e+00 0.0000000e+00 0.0000000e+00 
0.0000000e+00 0.0000000e+00 0.0000000e+00 
0.0000000e+00 0.0000000e+00 0.0000000e+00 
0.0000000e+00 0.0000000e+00 0.0000000e+00 
0.0000000e+00 0.0000000e+00 0.0000000e+00 
0.0000000e+00 0.0000000e+00 0.0000000e+00 
0.0000000e+00 0.0000000e+00 0.0000000e+00 
0.0000000e+00 0.0000000e+00 0.0000000e+00 
0.0000000e+00 0.0000000e+00 0.0000000e+00 
0.0000000e+00 0.0000000e+00 0.0000000e+00 
0.0000000e+00 0.0000000e+00 0.0000000e+00 
0.0000000e+00 0.0000000e+00 0.0000000e+00 
0.0000000e+00 0.0000000e+00 0.0000000e+00 
0.0000000e+00 0.0000000e+00 0.0000000e+00 
0.0000000e+00 0.0000000e+00 0.0000000e+00 
0.0000000e+00 0.0000000e+00 0.0000000e+00 
0.0000000e+00 0.0000000e+00 0.0000000e+00 
0.0000000e+00 0.0000000e+00 0.0000000e+00 
0.0000000e+00 0.0000000e+00 0.0000000e+00 
0.0000000e+00 0.0000000e+00 0.0000000e+00 
0.0000000e+00 0.0000000e+00 0.0000000e+00 
0.0000000e+00 0.0000000e+00 0.0000000e+00 
0.0000000e+00 0.0000000e+00 0.0000000e+00 
0.0000000e+00 0.0000000e+00 0.0000000e+00 
0.0000000e+00 0.0000000e+00 0.0000000e+00 
0.0000000e+00 0.0000000e+00 0.0000000e+00 
0.0000000e+00 0.0000000e+00 0.0000000e+00 
0.0000000e+00 0.0000000e+00 0.0000000e+00 
0.0000000e+00 0.0000000e+00 0.0000000e+00 
0.0000000e+00 0.0000000e+00 0.0000000e+00 
0.0000000e+00 0.0000000e+00 0.0000000e+00 
0.0000000e+00 0.0000000e+00 0.0000000e+00 
0.0000000e+00 0.0000000e+00 0.0000000e+00 
6.7582829e-07 -3.2715937e-07 1.6205634e-06 
-3.5635485e-06 -9.1928833e-08 -1.4381445e-06 
1.2314374e-06 -2.3142407e-07 -3.1232007e-06 
2.0855656e-05 -8.1963572e-06 3.5230541e-06 
6.4277533e-06 -2.9438424e-06 1.4142564e-06 
1.2399179e-06 -5.9308877e-07 5.4154447e-07 
-1.5244886e-07 4.2993310e-08 3.1870320e-06 
-3.5855237e-06 8.5911302e-07 1.3282871e-06 