# vtk DataFile Version 4.0
vtk output
ASCII
DATASET UNSTRUCTURED_GRID
POINTS 662 float
0.0000000e+00 0.0000000e+00 0.0000000e+00 
0.0000000e+00 0.0000000e+00 4.0000000e+01 
5.0000000e+00 0.0000000e+00 0.0000000e+00 
5.0000000e+00 0.0000000e+00 4.0000000e+01 
5.0000000e+00 1.0000000e+00 0.0000000e+00 
5.0000000e+00 1.0000000e+00 4.0000000e+01 
0.0000000e+00 1.0000000e+00 0.0000000e+00 
0.0000000e+00 1.0000000e+00 4.0000000e+01 
5.0000000e+00 2.0000000e+00 0.0000000e+00 
5.0000000e+00 2.0000000e+00 4.0000000e+01 
3.0000000e+00 2.0000000e+00 0.0000000e+00 
3.0000000e+00 2.0000000e+00 4.0000000e+01 
0.0000000e+00 2.0000000e+00 0.0000000e+00 
0.0000000e+00 2.0000000e+00 4.0000000e+01 
1.5000000e+00 3.0000000e+00 0.0000000e+00 
1.5000000e+00 3.0000000e+00 4.0000000e+01 
7.5000000e-01 3.0000000e+00 0.0000000e+00 
7.5000000e-01 3.0000000e+00 4.0000000e+01 
0.0000000e+00 3.0000000e+00 0.0000000e+00 
0.0000000e+00 3.0000000e+00 4.0000000e+01 
7.5000000e-01 3.0000000e+00 5.0000000e-01 
7.5000000e-01 3.0000000e+00 1.0000000e+00 
7.5000000e-01 3.0000000e+00 1.5000000e+00 
7.5000000e-01 3.0000000e+00 2.0000000e+00 
7.5000000e-01 3.0000000e+00 2.5000000e+00 
7.5000000e-01 3.0000000e+00 3.0000000e+00 
7.5000000e-01 3.0000000e+00 3.5000000e+00 
7.5000000e-01 3.0000000e+00 4.0000000e+00 
7.5000000e-01 3.0000000e+00 4.5000000e+00 
7.5000000e-01 3.0000000e+00 5.0000000e+00 
7.5000000e-01 3.0000000e+00 5.5000000e+00 
7.5000000e-01 3.0000000e+00 6.0000000e+00 
7.5000000e-01 3.0000000e+00 6.5000000e+00 
7.5000000e-01 3.0000000e+00 7.0000000e+00 
7.5000000e-01 3.0000000e+00 7.5000000e+00 
7.5000000e-01 3.0000000e+00 8.0000000e+00 
7.5000000e-01 3.0000000e+00 8.5000000e+00 
7.5000000e-01 3.0000000e+00 9.0000000e+00 
7.5000000e-01 3.0000000e+00 9.5000000e+00 
7.5000000e-01 3.0000000e+00 1.0000000e+01 
7.5000000e-01 3.0000000e+00 1.0500000e+01 
7.5000000e-01 3.0000000e+00 1.1000000e+01 
7.5000000e-01 3.0000000e+00 1.1500000e+01 
7.5000000e-01 3.0000000e+00 1.2000000e+01 
7.5000000e-01 3.0000000e+00 1.2500000e+01 
7.5000000e-01 3.0000000e+00 1.3000000e+01 
7.5000000e-01 3.0000000e+00 1.3500000e+01 
7.5000000e-01 3.0000000e+00 1.4000000e+01 
7.5000000e-01 3.0000000e+00 1.4500000e+01 
7.5000000e-01 3.0000000e+00 1.5000000e+01 
7.5000000e-01 3.0000000e+00 1.5500000e+01 
7.5000000e-01 3.0000000e+00 1.6000000e+01 
7.5000000e-01 3.0000000e+00 1.6500000e+01 
7.5000000e-01 3.0000000e+00 1.7000000e+01 
7.5000000e-01 3.0000000e+00 1.7500000e+01 
7.5000000e-01 3.0000000e+00 1.8000000e+01 
7.5000000e-01 3.0000000e+00 1.8500000e+01 
7.5000000e-01 3.0000000e+00 1.9000000e+01 
7.5000000e-01 3.0000000e+00 1.9500000e+01 
7.5000000e-01 3.0000000e+00 2.0000000e+01 
7.5000000e-01 3.0000000e+00 2.0500000e+01 
7.5000000e-01 3.0000000e+00 2.1000000e+01 
7.5000000e-01 3.0000000e+00 2.1500000e+01 
7.5000000e-01 3.0000000e+00 2.2000000e+01 
7.5000000e-01 3.0000000e+00 2.2500000e+01 
7.5000000e-01 3.0000000e+00 2.3000000e+01 
7.5000000e-01 3.0000000e+00 2.3500000e+01 
7.5000000e-01 3.0000000e+00 2.4000000e+01 
7.5000000e-01 3.0000000e+00 2.4500000e+01 
7.5000000e-01 3.0000000e+00 2.5000000e+01 
7.5000000e-01 3.0000000e+00 2.5500000e+01 
7.5000000e-01 3.0000000e+00 2.6000000e+01 
7.5000000e-01 3.0000000e+00 2.6500000e+01 
7.5000000e-01 3.0000000e+00 2.7000000e+01 
7.5000000e-01 3.0000000e+00 2.7500000e+01 
7.5000000e-01 3.0000000e+00 2.8000000e+01 
7.5000000e-01 3.0000000e+00 2.8500000e+01 
7.5000000e-01 3.0000000e+00 2.9000000e+01 
7.5000000e-01 3.0000000e+00 2.9500000e+01 
7.5000000e-01 3.0000000e+00 3.0000000e+01 
7.5000000e-01 3.0000000e+00 3.0500000e+01 
7.5000000e-01 3.0000000e+00 3.1000000e+01 
7.5000000e-01 3.0000000e+00 3.1500000e+01 
7.5000000e-01 3.0000000e+00 3.2000000e+01 
7.5000000e-01 3.0000000e+00 3.2500000e+01 
7.5000000e-01 3.0000000e+00 3.3000000e+01 
7.5000000e-01 3.0000000e+00 3.3500000e+01 
7.5000000e-01 3.0000000e+00 3.4000000e+01 
7.5000000e-01 3.0000000e+00 3.4500000e+01 
7.5000000e-01 3.0000000e+00 3.5000000e+01 
7.5000000e-01 3.0000000e+00 3.5500000e+01 
7.5000000e-01 3.0000000e+00 3.6000000e+01 
7.5000000e-01 3.0000000e+00 3.6500000e+01 
7.5000000e-01 3.0000000e+00 3.7000000e+01 
7.5000000e-01 3.0000000e+00 3.7500000e+01 
7.5000000e-01 3.0000000e+00 3.8000000e+01 
7.5000000e-01 3.0000000e+00 3.8500000e+01 
7.5000000e-01 3.0000000e+00 3.9000000e+01 
7.5000000e-01 3.0000000e+00 3.9500000e+01 
7.5000000e-01 3.0000000e+00 4.0500000e+01 
7.5000000e-01 3.0000000e+00 4.1000000e+01 
7.5000000e-01 3.0000000e+00 4.1500000e+01 
7.5000000e-01 3.0000000e+00 4.2000000e+01 
7.5000000e-01 3.0000000e+00 4.2500000e+01 
7.5000000e-01 3.0000000e+00 4.3000000e+01 
7.5000000e-01 3.0000000e+00 4.3500000e+01 
7.5000000e-01 3.0000000e+00 4.4000000e+01 
7.5000000e-01 3.0000000e+00 4.4500000e+01 
7.5000000e-01 3.0000000e+00 4.5000000e+01 
7.5000000e-01 3.0000000e+00 4.5500000e+01 
7.5000000e-01 3.0000000e+00 4.6000000e+01 
7.5000000e-01 3.0000000e+00 4.6500000e+01 
7.5000000e-01 3.0000000e+00 4.7000000e+01 
7.5000000e-01 3.0000000e+00 4.7500000e+01 
7.5000000e-01 3.0000000e+00 4.8000000e+01 
7.5000000e-01 3.0000000e+00 4.8500000e+01 
7.5000000e-01 3.0000000e+00 4.9000000e+01 
7.5000000e-01 3.0000000e+00 4.9500000e+01 
7.5000000e-01 3.0000000e+00 5.0000000e+01 
7.5000000e-01 3.0250001e+00 0.0000000e+00 
7.5000000e-01 3.0250001e+00 5.0000000e-01 
7.5000000e-01 3.0250001e+00 1.0000000e+00 
7.5000000e-01 3.0250001e+00 1.5000000e+00 
7.5000000e-01 3.0250001e+00 2.0000000e+00 
7.5000000e-01 3.0250001e+00 2.5000000e+00 
7.5000000e-01 3.0250001e+00 3.0000000e+00 
7.5000000e-01 3.0250001e+00 3.5000000e+00 
7.5000000e-01 3.0250001e+00 4.0000000e+00 
7.5000000e-01 3.0250001e+00 4.5000000e+00 
7.5000000e-01 3.0250001e+00 5.0000000e+00 
7.5000000e-01 3.0250001e+00 5.5000000e+00 
7.5000000e-01 3.0250001e+00 6.0000000e+00 
7.5000000e-01 3.0250001e+00 6.5000000e+00 
7.5000000e-01 3.0250001e+00 7.0000000e+00 
7.5000000e-01 3.0250001e+00 7.5000000e+00 
7.5000000e-01 3.0250001e+00 8.0000000e+00 
7.5000000e-01 3.0250001e+00 8.5000000e+00 
7.5000000e-01 3.0250001e+00 9.0000000e+00 
7.5000000e-01 3.0250001e+00 9.5000000e+00 
7.5000000e-01 3.0250001e+00 1.0000000e+01 
7.5000000e-01 3.0250001e+00 1.0500000e+01 
7.5000000e-01 3.0250001e+00 1.1000000e+01 
7.5000000e-01 3.0250001e+00 1.1500000e+01 
7.5000000e-01 3.0250001e+00 1.2000000e+01 
7.5000000e-01 3.0250001e+00 1.2500000e+01 
7.5000000e-01 3.0250001e+00 1.3000000e+01 
7.5000000e-01 3.0250001e+00 1.3500000e+01 
7.5000000e-01 3.0250001e+00 1.4000000e+01 
7.5000000e-01 3.0250001e+00 1.4500000e+01 
7.5000000e-01 3.0250001e+00 1.5000000e+01 
7.5000000e-01 3.0250001e+00 1.5500000e+01 
7.5000000e-01 3.0250001e+00 1.6000000e+01 
7.5000000e-01 3.0250001e+00 1.6500000e+01 
7.5000000e-01 3.0250001e+00 1.7000000e+01 
7.5000000e-01 3.0250001e+00 1.7500000e+01 
7.5000000e-01 3.0250001e+00 1.8000000e+01 
7.5000000e-01 3.0250001e+00 1.8500000e+01 
7.5000000e-01 3.0250001e+00 1.9000000e+01 
7.5000000e-01 3.0250001e+00 1.9500000e+01 
7.5000000e-01 3.0250001e+00 2.0000000e+01 
7.5000000e-01 3.0250001e+00 2.0500000e+01 
7.5000000e-01 3.0250001e+00 2.1000000e+01 
7.5000000e-01 3.0250001e+00 2.1500000e+01 
7.5000000e-01 3.0250001e+00 2.2000000e+01 
7.5000000e-01 3.0250001e+00 2.2500000e+01 
7.5000000e-01 3.0250001e+00 2.3000000e+01 
7.5000000e-01 3.0250001e+00 2.3500000e+01 
7.5000000e-01 3.0250001e+00 2.4000000e+01 
7.5000000e-01 3.0250001e+00 2.4500000e+01 
7.5000000e-01 3.0250001e+00 2.5000000e+01 
7.5000000e-01 3.0250001e+00 2.5500000e+01 
7.5000000e-01 3.0250001e+00 2.6000000e+01 
7.5000000e-01 3.0250001e+00 2.6500000e+01 
7.5000000e-01 3.0250001e+00 2.7000000e+01 
7.5000000e-01 3.0250001e+00 2.7500000e+01 
7.5000000e-01 3.0250001e+00 2.8000000e+01 
7.5000000e-01 3.0250001e+00 2.8500000e+01 
7.5000000e-01 3.0250001e+00 2.9000000e+01 
7.5000000e-01 3.0250001e+00 2.9500000e+01 
7.5000000e-01 3.0250001e+00 3.0000000e+01 
7.5000000e-01 3.0250001e+00 3.0500000e+01 
7.5000000e-01 3.0250001e+00 3.1000000e+01 
7.5000000e-01 3.0250001e+00 3.1500000e+01 
7.5000000e-01 3.0250001e+00 3.2000000e+01 
7.5000000e-01 3.0250001e+00 3.2500000e+01 
7.5000000e-01 3.0250001e+00 3.3000000e+01 
7.5000000e-01 3.0250001e+00 3.3500000e+01 
7.5000000e-01 3.0250001e+00 3.4000000e+01 
7.5000000e-01 3.0250001e+00 3.4500000e+01 
7.5000000e-01 3.0250001e+00 3.5000000e+01 
7.5000000e-01 3.0250001e+00 3.5500000e+01 
7.5000000e-01 3.0250001e+00 3.6000000e+01 
7.5000000e-01 3.0250001e+00 3.6500000e+01 
7.5000000e-01 3.0250001e+00 3.7000000e+01 
7.5000000e-01 3.0250001e+00 3.7500000e+01 
7.5000000e-01 3.0250001e+00 3.8000000e+01 
7.5000000e-01 3.0250001e+00 3.8500000e+01 
7.5000000e-01 3.0250001e+00 3.9000000e+01 
7.5000000e-01 3.0250001e+00 3.9500000e+01 
7.5000000e-01 3.0250001e+00 4.0000000e+01 
7.5000000e-01 3.0250001e+00 4.0500000e+01 
7.5000000e-01 3.0250001e+00 4.1000000e+01 
7.5000000e-01 3.0250001e+00 4.1500000e+01 
7.5000000e-01 3.0250001e+00 4.2000000e+01 
7.5000000e-01 3.0250001e+00 4.2500000e+01 
7.5000000e-01 3.0250001e+00 4.3000000e+01 
7.5000000e-01 3.0250001e+00 4.3500000e+01 
7.5000000e-01 3.0250001e+00 4.4000000e+01 
7.5000000e-01 3.0250001e+00 4.4500000e+01 
7.5000000e-01 3.0250001e+00 4.5000000e+01 
7.5000000e-01 3.0250001e+00 4.5500000e+01 
7.5000000e-01 3.0250001e+00 4.6000000e+01 
7.5000000e-01 3.0250001e+00 4.6500000e+01 
7.5000000e-01 3.0250001e+00 4.7000000e+01 
7.5000000e-01 3.0250001e+00 4.7500000e+01 
7.5000000e-01 3.0250001e+00 4.8000000e+01 
7.5000000e-01 3.0250001e+00 4.8500000e+01 
7.5000000e-01 3.0250001e+00 4.9000000e+01 
7.5000000e-01 3.0250001e+00 4.9500000e+01 
7.5000000e-01 3.0250001e+00 5.0000000e+01 
7.5000000e-01 3.0250001e+00 3.5750000e+01 
3.0000000e+00 2.0000000e+00 3.6000000e+01 
8.0487806e-01 3.0000000e+00 3.6000000e+01 
0.0000000e+00 0.0000000e+00 2.0000000e+00 
0.0000000e+00 0.0000000e+00 4.0000000e+00 
0.0000000e+00 0.0000000e+00 6.0000000e+00 
0.0000000e+00 0.0000000e+00 8.0000000e+00 
0.0000000e+00 0.0000000e+00 1.0000000e+01 
0.0000000e+00 0.0000000e+00 1.2000000e+01 
0.0000000e+00 0.0000000e+00 1.4000000e+01 
[...]
POINT_DATA 662
FIELD FieldData 3
DISPLACEMENT 3 662  float
0.0000000e+00 0.0000000e+00 0.0000000e+00 
0.0000000e+00 0.0000000e+00 0.0000000e+00 
0.0000000e+00 0.0000000e+00 0.0000000e+00 
0.0000000e+00 0.0000000e+00 0.0000000e+00 
2.0067337e-05 -2.4105504e-05 -3.2081491e-05 
-1.5226566e-07 -6.7803660e-07 -2.6323642e-08 
0.0000000e+00 -9.2986542e-05 0.0000000e+00 
0.0000000e+00 -1.6016985e-06 0.0000000e+00 
2.5151134e-05 -3.2017004e-05 -5.6710265e-05 
-3.8295929e-07 -8.4974027e-07 9.1980257e-07 
6.2592508e-06 -2.8726481e-05 -3.9322942e-05 
-5.6628630e-07 -2.0327354e-06 3.2832105e-07 
0.0000000e+00 -1.1646628e-04 0.0000000e+00 
0.0000000e+00 -3.5596588e-06 0.0000000e+00 
3.5055298e-05 3.8621984e-06 7.6270953e-05 
-4.3031619e-07 -8.3141067e-06 -2.2660647e-06 
1.9612480e-05 3.5953351e-05 2.2657003e-04 
4.1529825e-07 -7.6532333e-06 -7.9806279e-07 
0.0000000e+00 -5.0501687e-05 0.0000000e+00 
0.0000000e+00 -6.6859361e-06 0.0000000e+00 
-4.3039418e-05 -4.4516884e-05 1.8801710e-04 
-6.7185370e-05 -2.8580407e-04 1.2497038e-04 
-9.0180103e-05 -7.1580365e-04 2.1265200e-04 
-1.0665786e-04 -1.3737414e-03 2.3878414e-04 
-1.8657495e-04 -2.2492397e-03 1.2620199e-04 
-2.1945895e-04 -3.2443060e-03 1.3528782e-04 
-1.1856456e-04 -4.0381239e-03 9.9971177e-05 
-8.5506595e-05 -4.0679332e-03 1.1974163e-04 
-2.2935345e-04 -3.9001752e-03 5.3569885e-05 
-3.0217113e-04 -3.8994704e-03 4.2213123e-05 
-2.0697332e-04 -4.1687600e-03 1.1306060e-05 
-6.4860789e-05 -4.2024888e-03 -4.8632814e-05 
-1.0004773e-04 -3.5089960e-03 -1.5862528e-04 
-2.0257806e-04 -2.4792564e-03 -1.9673217e-04 
-1.9394611e-04 -1.5889215e-03 -1.8850437e-04 
-7.2203889e-05 -9.2114520e-04 -1.1811320e-04 
-4.5962832e-05 -5.0715089e-04 -1.5526025e-04 
-4.0354604e-05 -2.7401396e-04 -1.3912740e-04 
-3.1591531e-05 -1.5038573e-04 -1.3573169e-04 
-3.9891356e-06 -7.6713215e-05 -1.2233685e-04 
1.7931119e-05 -1.5465026e-05 -8.8816596e-05 
3.1943313e-05 4.4557924e-05 -4.9341190e-05 
2.1889295e-05 1.0048890e-04 -1.5338828e-05 
5.0634412e-06 1.4092815e-04 1.6158285e-05 
1.1869979e-06 1.5493247e-04 1.7722112e-05 
-3.6386180e-06 1.4633707e-04 1.3640677e-05 
-3.4835723e-06 1.2304350e-04 -1.0260455e-06 
2.3094897e-06 9.3656789e-05 -2.6017851e-05 
2.5963152e-07 6.6091154e-05 -4.0922248e-05 
5.8451169e-06 4.1009822e-05 -4.2822241e-05 
6.7008600e-06 1.7342089e-05 -3.2688971e-05 
6.3375801e-06 -5.2765304e-06 -1.4977110e-05 
4.9569762e-06 -2.7670792e-05 1.3264156e-05 
9.2201290e-06 -4.9464055e-05 3.1809468e-05 
7.5527764e-06 -7.0949573e-05 4.6521447e-05 
-7.0103220e-06 -8.6876040e-05 6.0962477e-05 
-2.4582041e-05 -9.2081878e-05 4.9645878e-05 
-2.9144947e-05 -8.8135697e-05 3.8857641e-05 
-1.9876728e-05 -8.1660328e-05 2.9140796e-05 
-2.2289437e-06 -1.0311897e-04 1.3509775e-05 
-3.6563721e-05 -1.9795720e-04 3.1263626e-05 
-5.7376128e-05 -4.1973285e-04 5.6169287e-05 
-7.8359990e-05 -8.4049569e-04 9.2409457e-05 
-1.1837925e-04 -1.5001193e-03 4.2866352e-05 
-2.2807359e-04 -2.4066577e-03 1.5933064e-04 
-2.1751932e-04 -3.3468823e-03 1.6367156e-04 
-1.2633196e-04 -3.9641876e-03 1.3683987e-04 
-1.0897819e-04 -3.8625638e-03 1.8422648e-04 
-2.6089136e-04 -3.7094650e-03 1.1332763e-04 
-3.2211072e-04 -3.7804958e-03 9.4812771e-05 
-2.1287508e-04 -4.0981974e-03 4.3808948e-05 
-7.8428362e-05 -4.0623536e-03 -1.3380168e-05 
-1.0620231e-04 -3.3197850e-03 -1.4645883e-04 
-2.0167178e-04 -2.3377400e-03 -1.9946060e-04 
-1.8863252e-04 -1.5024423e-03 -2.1363447e-04 
-8.2630511e-05 -8.7062747e-04 -1.5725609e-04 
-4.6787529e-05 -4.6250242e-04 -1.8042387e-04 
-2.7227416e-05 -2.1693661e-04 -1.4390078e-04 
-1.7865608e-05 -7.8244782e-05 -1.2114619e-04 
9.5379601e-06 -1.7794439e-07 -9.4506737e-05 
2.4419862e-05 4.5190358e-05 -6.1520790e-05 
3.5781108e-05 7.3879768e-05 -2.4155892e-05 
2.3279074e-05 9.1092246e-05 8.6120835e-06 
6.4022242e-06 9.6049749e-05 3.3048877e-05 
-1.3877684e-06 8.5383625e-05 3.8626269e-05 
-8.0206710e-06 6.2618637e-05 3.2825941e-05 
-8.4142976e-06 3.3807490e-05 2.0002755e-05 
-5.1558536e-06 5.6432755e-06 3.4230418e-06 
-4.1920616e-06 -1.5112967e-05 -5.7260040e-06 
-2.2734482e-06 -2.7309363e-05 -1.2559884e-05 
2.3121665e-06 -2.9739740e-05 -1.5680314e-05 
1.1826138e-06 -2.2904140e-05 -1.0352375e-05 
1.6769336e-06 -8.8162715e-06 -3.9401102e-06 
1.7473272e-06 6.7396504e-06 2.5471068e-06 
-7.1781386e-07 1.5934598e-05 6.4487799e-06 
-6.3997970e-07 1.5975145e-05 5.0981698e-06 
-7.0629739e-07 8.6333930e-06 2.1005794e-06 
-5.5816179e-07 -9.4740705e-07 -1.3209670e-06 
-6.9384370e-08 -6.8131940e-06 -2.9996995e-06 
0.0000000e+00 -4.7050639e-06 0.0000000e+00 
0.0000000e+00 -5.4992495e-07 0.0000000e+00 
0.0000000e+00 2.3404750e-06 0.0000000e+00 
0.0000000e+00 3.0731162e-06 0.0000000e+00 
0.0000000e+00 2.3581354e-06 0.0000000e+00 
0.0000000e+00 1.4164366e-06 0.0000000e+00 
0.0000000e+00 8.5290861e-07 0.0000000e+00 
0.0000000e+00 4.3761040e-07 0.0000000e+00 
0.0000000e+00 -2.4475446e-07 0.0000000e+00 
0.0000000e+00 -1.1134860e-06 0.0000000e+00 
0.0000000e+00 -1.5973624e-06 0.0000000e+00 
0.0000000e+00 -1.2421997e-06 0.0000000e+00 
0.0000000e+00 -2.2285111e-07 0.0000000e+00 
0.0000000e+00 7.7228094e-07 0.0000000e+00 
0.0000000e+00 1.1334002e-06 0.0000000e+00 
0.0000000e+00 7.9631980e-07 0.0000000e+00 
0.0000000e+00 1.7854686e-07 0.0000000e+00 
0.0000000e+00 -2.6672268e-07 0.0000000e+00 
0.0000000e+00 -4.0803931e-07 0.0000000e+00 
0.0000000e+00 -4.0816798e-07 0.0000000e+00 
0.0000000e+00 3.6031175e-05 0.0000000e+00 
0.0000000e+00 -4.2924941e-05 0.0000000e+00 
0.0000000e+00 -2.8518980e-04 0.0000000e+00 
0.0000000e+00 -7.1817148e-04 0.0000000e+00 
0.0000000e+00 -1.3775628e-03 0.0000000e+00 
0.0000000e+00 -2.2617769e-03 0.0000000e+00 
0.0000000e+00 -3.2770135e-03 0.0000000e+00 
0.0000000e+00 -4.0625096e-03 0.0000000e+00 
0.0000000e+00 -4.0991162e-03 0.0000000e+00 
0.0000000e+00 -3.9142757e-03 0.0000000e+00 
0.0000000e+00 -3.9300299e-03 0.0000000e+00 
0.0000000e+00 -4.1888896e-03 0.0000000e+00 
0.0000000e+00 -4.2376430e-03 0.0000000e+00 
0.0000000e+00 -3.5274993e-03 0.0000000e+00 
0.0000000e+00 -2.4983243e-03 0.0000000e+00 
0.0000000e+00 -1.5913717e-03 0.0000000e+00 
0.0000000e+00 -9.2559605e-04 0.0000000e+00 
0.0000000e+00 -5.0705345e-04 0.0000000e+00 
0.0000000e+00 -2.7314323e-04 0.0000000e+00 
0.0000000e+00 -1.4921803e-04 0.0000000e+00 
0.0000000e+00 -7.5395939e-05 0.0000000e+00 
0.0000000e+00 -1.4789418e-05 0.0000000e+00 
0.0000000e+00 4.4959776e-05 0.0000000e+00 
0.0000000e+00 1.0044514e-04 0.0000000e+00 
0.0000000e+00 1.4016684e-04 0.0000000e+00 
0.0000000e+00 1.5475742e-04 0.0000000e+00 
0.0000000e+00 1.4637769e-04 0.0000000e+00 
0.0000000e+00 1.2314015e-04 0.0000000e+00 
0.0000000e+00 9.4086019e-05 0.0000000e+00 
0.0000000e+00 6.6238361e-05 0.0000000e+00 
0.0000000e+00 4.1024770e-05 0.0000000e+00 
0.0000000e+00 1.7339271e-05 0.0000000e+00 
0.0000000e+00 -5.4278594e-06 0.0000000e+00 
0.0000000e+00 -2.7745831e-05 0.0000000e+00 
0.0000000e+00 -4.9817663e-05 0.0000000e+00 
0.0000000e+00 -7.0921509e-05 0.0000000e+00 
0.0000000e+00 -8.6471067e-05 0.0000000e+00 
0.0000000e+00 -9.1761860e-05 0.0000000e+00 
0.0000000e+00 -8.6932458e-05 0.0000000e+00 
0.0000000e+00 -8.0934515e-05 0.0000000e+00 
0.0000000e+00 -1.0265500e-04 0.0000000e+00 
0.0000000e+00 -1.9697512e-04 0.0000000e+00 
0.0000000e+00 -4.2103976e-04 0.0000000e+00 
0.0000000e+00 -8.4243977e-04 0.0000000e+00 
0.0000000e+00 -1.5108063e-03 0.0000000e+00 
0.0000000e+00 -2.4155278e-03 0.0000000e+00 
0.0000000e+00 -3.3820057e-03 0.0000000e+00 
0.0000000e+00 -3.9881822e-03 0.0000000e+00 
0.0000000e+00 -3.8928124e-03 0.0000000e+00 
0.0000000e+00 -3.7230859e-03 0.0000000e+00 
0.0000000e+00 -3.8121569e-03 0.0000000e+00 
0.0000000e+00 -4.1195140e-03 0.0000000e+00 
0.0000000e+00 -4.0960899e-03 0.0000000e+00 
0.0000000e+00 -3.3359986e-03 0.0000000e+00 
0.0000000e+00 -2.3535388e-03 0.0000000e+00 
0.0000000e+00 -1.5041474e-03 0.0000000e+00 
0.0000000e+00 -8.7410450e-04 0.0000000e+00 
0.0000000e+00 -4.6224828e-04 0.0000000e+00 
0.0000000e+00 -2.1621604e-04 0.0000000e+00 
0.0000000e+00 -7.7253469e-05 0.0000000e+00 
0.0000000e+00 4.7223023e-07 0.0000000e+00 
0.0000000e+00 4.5721365e-05 0.0000000e+00 
0.0000000e+00 7.4152013e-05 0.0000000e+00 
0.0000000e+00 9.1193819e-05 0.0000000e+00 
0.0000000e+00 9.5708914e-05 0.0000000e+00 
0.0000000e+00 8.5296910e-05 0.0000000e+00 
0.0000000e+00 6.2640567e-05 0.0000000e+00 
0.0000000e+00 3.3822234e-05 0.0000000e+00 
0.0000000e+00 5.9064755e-06 0.0000000e+00 
0.0000000e+00 -1.5112954e-05 0.0000000e+00 
0.0000000e+00 -2.7192174e-05 0.0000000e+00 
0.0000000e+00 -2.9666910e-05 0.0000000e+00 
0.0000000e+00 -2.2744880e-05 0.0000000e+00 
0.0000000e+00 -8.7465733e-06 0.0000000e+00 
0.0000000e+00 6.4270698e-06 0.0000000e+00 
0.0000000e+00 1.5701005e-05 0.0000000e+00 
0.0000000e+00 1.5849721e-05 0.0000000e+00 
0.0000000e+00 8.6535210e-06 0.0000000e+00 
0.0000000e+00 -6.8403170e-07 0.0000000e+00 
0.0000000e+00 -6.7037408e-06 0.0000000e+00 
0.0000000e+00 -7.6302613e-06 0.0000000e+00 
0.0000000e+00 -4.7356539e-06 0.0000000e+00 
0.0000000e+00 -6.2645574e-07 0.0000000e+00 
0.0000000e+00 2.2819816e-06 0.0000000e+00 
0.0000000e+00 3.0690076e-06 0.0000000e+00 
0.0000000e+00 2.3923221e-06 0.0000000e+00 
0.0000000e+00 1.4449487e-06 0.0000000e+00 
0.0000000e+00 8.4941149e-07 0.0000000e+00 
0.0000000e+00 4.1438878e-07 0.0000000e+00 
0.0000000e+00 -2.5682110e-07 0.0000000e+00 
0.0000000e+00 -1.0999247e-06 0.0000000e+00 
0.0000000e+00 -1.5725822e-06 0.0000000e+00 
0.0000000e+00 -1.2303968e-06 0.0000000e+00 
0.0000000e+00 -2.3234603e-07 0.0000000e+00 
0.0000000e+00 7.5376744e-07 0.0000000e+00 
0.0000000e+00 1.1222678e-06 0.0000000e+00 
0.0000000e+00 7.9732058e-07 0.0000000e+00 
0.0000000e+00 1.8513390e-07 0.0000000e+00 
0.0000000e+00 -2.6196793e-07 0.0000000e+00 
0.0000000e+00 -4.0705177e-07 0.0000000e+00 
0.0000000e+00 -4.0878325e-07 0.0000000e+00 
0.0000000e+00 -2.7377853e-05 0.0000000e+00 
-1.2253543e-06 -4.0310915e-06 -7.7973880e-07 
8.7590638e-07 -2.4630299e-05 -1.1228632e-05 
0.0000000e+00 0.0000000e+00 0.0000000e+00 
0.0000000e+00 0.0000000e+00 0.0000000e+00 
0.0000000e+00 0.0000000e+00 0.0000000e+00 
0.0000000e+00 0.0000000e+00 0.0000000e+00 
0.0000000e+00 0.0000000e+00 0.0000000e+00 
0.0000000e+00 0.0000000e+00 0.0000000e+00 
0.0000000e+00 0.0000000e+00 0.0000000e+00 
0.0000000e+00 0.0000000e+00 0.0000000e+00 
0.0000000e+00 0.0000000e+00 0.0000000e+00 
0.0000000e+00 0.0000000e+00 0.0000000e+00 
0.0000000e+00 0.0000000e+00 0.0000000e+00 
0.0000000e+00 0.0000000e+00 0.0000000e+00 
0.0000000e+00 0.0000000e+00 0.0000000e+00 
0.0000000e+00 0.0000000e+00 0.0000000e+00 
0.0000000e+00 0.0000000e+00 0.0000000e+00 
0.0000000e+00 0.0000000e+00 0.0000000e+00 
0.0000000e+00 0.0000000e+00 0.0000000e+00 
0.0000000e+00 0.0000000e+00 0.0000000e+00 
0.0000000e+00 0.0000000e+00 0.0000000e+00 
0.0000000e+00 0.0000000e+00 0.0000000e+00 
0.0000000e+00 0.0000000e+00 0.0000000e+00 
0.0000000e+00 0.0000000e+00 0.0000000e+00 
0.0000000e+00 0.0000000e+00 0.0000000e+00 
0.0000000e+00 0.0000000e+00 0.0000000e+00 
0.0000000e+00 0.0000000e+00 0.0000000e+00 
0.0000000e+00 0.0000000e+00 0.0000000e+00 
0.0000000e+00 0.0000000e+00 0.0000000e+00 
0.0000000e+00 0.0000000e+00 0.0000000e+00 
0.0000000e+00 0.0000000e+00 0.0000000e+00 
0.0000000e+00 0.0000000e+00 0.0000000e+00 
0.0000000e+00 0.0000000e+00 0.0000000e+00 
0.0000000e+00 0.0000000e+00 0.0000000e+00 
0.0000000e+00 0.0000000e+00 0.0000000e+00 
0.0000000e+00 0.0000000e+00 0.0000000e+00 
0.0000000e+00 0.0000000e+00 0.0000000e+00 
0.0000000e+00 0.0000000e+00 0.0000000e+00 
0.0000000e+00 0.0000000e+00 0.0000000e+00 
0.0000000e+00 0.0000000e+00 0.0000000e+00 
0.0000000e+00 0.0000000e+00 0.0000000e+00 
0.0000000e+00 0.0000000e+00 0.0000000e+00 
0.0000000e+00 0.0000000e+00 0.0000000e+00 
0.0000000e+00 0.0000000e+00 0.0000000e+00 
3.2095078e-05 -9.7155123e-07 -2.4346074e-05 
5.9416972e-05 -4.5963875e-06 -1.4574656e-05 
3.9538936e-05 -7.7906770e-06 -4.9737417e-07 
1.0812219e-05 -9.8667024e-06 3.6001660e-07 
4.2223287e-06 -8.2676252e-06 1.1575588e-05 
-7.2162828e-07 4.4643753e-06 8.7482204e-06 
7.9950214e-06 6.2566446e-06 -6.4973988e-06 
3.4166028e-06 -2.7885817e-06 -1.2770834e-05 
1.4240144e-06 -6.0879852e-06 -3.5013788e-06 
1.2453946e-05 -9.9897479e-06 -4.3657110e-06 
3.4288791e-05 -2.1161425e-06 -3.8961521e-06 
4.8310751e-05 -1.0790250e-06 4.9270591e-07 
3.6729514e-05 -7.1663262e-06 1.6185757e-06 
1.1802665e-05 -1.4486102e-05 2.7511028e-06 
6.8217305e-06 -8.6963070e-07 8.4200628e-06 
2.2689565e-06 3.4579964e-06 9.3155959e-06 
1.5478086e-07 -1.1701654e-06 1.6359187e-06 
-6.1664872e-07 -1.7019413e-06 -1.3121804e-06 
3.5488952e-07 1.0628264e-06 3.0271184e-07 
0.0000000e+00 -2.1411946e-04 0.0000000e+00 
0.0000000e+00 -4.8730019e-04 0.0000000e+00 
0.0000000e+00 -5.1132258e-04 0.0000000e+00 
0.0000000e+00 -1.8460810e-04 0.0000000e+00 
0.0000000e+00 -2.7284537e-05 0.0000000e+00 
0.0000000e+00 3.8375463e-05 0.0000000e+00 
0.0000000e+00 1.6190055e-05 0.0000000e+00 
0.0000000e+00 3.0283049e-05 0.0000000e+00 
0.0000000e+00 -2.3981351e-05 0.0000000e+00 
0.0000000e+00 -3.6754253e-05 0.0000000e+00 
0.0000000e+00 -1.9878762e-04 0.0000000e+00 
0.0000000e+00 -4.7007808e-04 0.0000000e+00 
0.0000000e+00 -5.2543462e-04 0.0000000e+00 
0.0000000e+00 -1.8938012e-04 0.0000000e+00 
0.0000000e+00 -3.0168915e-06 0.0000000e+00 
0.0000000e+00 3.0670650e-05 0.0000000e+00 
0.0000000e+00 -4.4437870e-06 0.0000000e+00 
0.0000000e+00 -2.8775794e-06 0.0000000e+00 
0.0000000e+00 1.4009953e-06 0.0000000e+00 
2.5549714e-05 -1.9249035e-05 -2.7567310e-05 
2.4265688e-05 -5.7479403e-05 -4.6038978e-05 
-2.1239966e-07 -8.5057650e-07 -2.3500006e-07 
-2.7418966e-07 -1.4394258e-06 -5.0180563e-07 
3.1309584e-05 4.9008199e-06 -3.5357381e-05 
5.3570860e-05 7.2749076e-06 -1.3161338e-05 
3.3598972e-05 -1.1387402e-06 -4.6088331e-07 
4.5815373e-06 -6.6793691e-06 -1.0865936e-06 
2.7516995e-07 -1.3522369e-05 6.7642236e-06 
3.7436448e-06 7.5719950e-06 2.8194777e-06 
1.3678227e-05 1.0913245e-05 -2.1614890e-06 
-1.1604062e-06 -4.9952564e-06 -7.2872854e-06 
-6.2307672e-06 -8.6034106e-06 -6.4751343e-06 
1.7876671e-05 -1.1807037e-05 -9.5095747e-06 
3.6174111e-05 5.0462216e-07 -4.0701902e-06 
4.7676273e-05 1.9784395e-06 2.9383511e-06 
2.6580186e-05 -3.3796216e-06 1.1150280e-05 
-6.2211438e-07 -1.7799057e-05 -7.8087396e-08 
1.9232298e-06 -2.9266496e-06 2.8443679e-07 
4.3678688e-06 4.1221715e-06 1.0183059e-05 
2.2317076e-06 -3.6980964e-07 4.1355797e-06 
-7.7588146e-07 -1.9253043e-06 -4.6864645e-07 
8.0376239e-08 1.0371930e-06 -4.7913034e-07 
7.9827287e-06 -8.6767206e-05 -4.2528372e-05 
0.0000000e+00 -4.6424737e-04 0.0000000e+00 
0.0000000e+00 -1.1074507e-03 0.0000000e+00 
0.0000000e+00 -1.1495006e-03 0.0000000e+00 
0.0000000e+00 -3.5027461e-04 0.0000000e+00 
0.0000000e+00 -5.0884137e-05 0.0000000e+00 
0.0000000e+00 8.0202997e-05 0.0000000e+00 
0.0000000e+00 3.4024219e-05 0.0000000e+00 
0.0000000e+00 4.3807333e-05 0.0000000e+00 
0.0000000e+00 -5.2751049e-05 0.0000000e+00 
0.0000000e+00 -6.3049418e-05 0.0000000e+00 
0.0000000e+00 -4.4529617e-04 0.0000000e+00 
0.0000000e+00 -1.0551190e-03 0.0000000e+00 
0.0000000e+00 -1.1443034e-03 0.0000000e+00 
0.0000000e+00 -3.5272632e-04 0.0000000e+00 
0.0000000e+00 -8.8513679e-07 0.0000000e+00 
0.0000000e+00 5.8694812e-05 0.0000000e+00 
0.0000000e+00 -9.3906483e-06 0.0000000e+00 
0.0000000e+00 -9.0094372e-06 0.0000000e+00 
0.0000000e+00 6.4916367e-06 0.0000000e+00 
-2.9440719e-07 -2.3768735e-06 -5.1235367e-07 
-3.2830771e-04 -4.3562244e-04 2.7090497e-04 
-6.2944187e-04 -1.3424499e-03 1.1640644e-04 
-6.0587953e-04 -1.3835818e-03 -1.0690728e-04 
-1.7541382e-04 -3.0062580e-04 -2.2403314e-04 
3.4531047e-06 -7.1040406e-05 -1.4419224e-04 
1.9950186e-05 8.9325324e-05 3.0678559e-06 
3.8758685e-06 7.3679352e-05 -8.5133815e-06 
5.6153244e-06 -2.6011861e-05 9.8535411e-06 
8.4664089e-06 -1.0063712e-04 6.1637365e-05 
-1.4973650e-06 -3.9002382e-05 3.4936143e-05 
-2.7619349e-04 -4.3669061e-04 2.1115347e-04 
-6.5259740e-04 -1.1444961e-03 1.5654357e-04 
-6.0572178e-04 -1.3320531e-03 -4.8636346e-05 
-1.6599908e-04 -3.2817124e-04 -2.7481932e-04 
1.4802151e-05 -9.2818918e-06 -1.3072183e-04 
1.7487399e-05 5.5630517e-05 4.5513829e-05 
-9.1595775e-06 7.9236397e-06 2.1700831e-05 
2.3031999e-08 -1.9820669e-05 -1.3836487e-05 
1.3517982e-06 1.3709789e-05 7.1320687e-06 
0.0000000e+00 -8.1329717e-04 0.0000000e+00 
0.0000000e+00 -2.2341290e-03 0.0000000e+00 
0.0000000e+00 -2.1809163e-03 0.0000000e+00 
0.0000000e+00 -5.9090735e-04 0.0000000e+00 
0.0000000e+00 -6.5115237e-05 0.0000000e+00 
0.0000000e+00 1.3203535e-04 0.0000000e+00 
0.0000000e+00 6.7632682e-05 0.0000000e+00 
0.0000000e+00 4.0917890e-05 0.0000000e+00 
0.0000000e+00 -9.9946890e-05 0.0000000e+00 
0.0000000e+00 -6.8602109e-05 0.0000000e+00 
0.0000000e+00 -8.7243045e-04 0.0000000e+00 
0.0000000e+00 -2.1274476e-03 0.0000000e+00 
0.0000000e+00 -2.1383082e-03 0.0000000e+00 
0.0000000e+00 -5.7600852e-04 0.0000000e+00 
0.0000000e+00 1.4460699e-05 0.0000000e+00 
0.0000000e+00 8.9818699e-05 0.0000000e+00 
0.0000000e+00 -1.0750819e-06 0.0000000e+00 
0.0000000e+00 -1.9946447e-05 0.0000000e+00 
0.0000000e+00 1.3048217e-05 0.0000000e+00 
3.1711032e-05 -1.8027415e-05 -1.3814923e-05 
7.2382936e-05 -1.1479494e-04 1.4423477e-05 
6.9005509e-05 -9.0883819e-05 1.0870838e-05 
2.4880726e-05 -5.7542169e-05 -1.1362040e-05 
-1.3384128e-05 -1.2092958e-05 -1.5685511e-05 
1.1897559e-05 2.1476242e-05 -4.1358435e-06 
9.0086542e-06 1.6793461e-05 -7.5875923e-06 
-4.3444752e-06 -2.0568290e-05 5.9295775e-07 
-7.3742713e-06 -3.8418264e-05 1.1660595e-05 
1.5604091e-05 -3.5645410e-06 6.6491334e-06 
5.9809972e-05 -3.0582214e-05 -1.3080436e-06 
7.6511031e-05 -3.9460330e-05 5.8349774e-06 
4.1314968e-05 -7.1166003e-05 1.6964021e-05 
2.1291729e-05 -6.6752036e-05 -1.6509097e-05 
-1.0953278e-05 -6.6451857e-06 -1.5855176e-05 
5.3484846e-06 1.3566571e-05 7.7954583e-06 
9.1632847e-07 2.8215309e-06 9.6965523e-06 
9.2148605e-07 2.9720111e-06 -9.0016107e-07 
2.1346984e-06 -1.4625550e-05 -7.7307577e-06 
0.0000000e+00 0.0000000e+00 0.0000000e+00 
0.0000000e+00 0.0000000e+00 0.0000000e+00 
0.0000000e+00 0.0000000e+00 0.0000000e+00 
0.0000000e+00 0.0000000e+00 0.0000000e+00 
0.0000000e+00 0.0000000e+00 0.0000000e+00 
0.0000000e+00 0.0000000e+00 0.0000000e+00 
0.0000000e+00 0.0000000e+00 0.0000000e+00 
0.0000000e+00 0.0000000e+00 0.0000000e+00 
0.0000000e+00 0.0000000e+00 0.0000000e+00 
0.0000000e+00 0.0000000e+00 0.0000000e+00 
0.0000000e+00 0.0000000e+00 0.0000000e+00 
0.0000000e+00 0.0000000e+00 0.0000000e+00 
0.0000000e+00 0.0000000e+00 0.0000000e+00 
0.0000000e+00 0.0000000e+00 0.0000000e+00 
0.0000000e+00 0.0000000e+00 0.0000000e+00 
0.0000000e+00 0.0000000e+00 0.0000000e+00 
0.0000000e+00 0.0000000e+00 0.0000000e+00 
0.0000000e+00 0.0000000e+00 0.0000000e+00 
0.0000000e+00 0.0000000e+00 0.0000000e+00 
0.0000000e+00 0.0000000e+00 0.0000000e+00 
0.0000000e+00 0.0000000e+00 0.0000000e+00 
0.0000000e+00 0.0000000e+00 0.0000000e+00 
0.0000000e+00 0.0000000e+00 0.0000000e+00 
0.0000000e+00 0.0000000e+00 0.0000000e+00 
0.0000000e+00 0.0000000e+00 0.0000000e+00 
0.0000000e+00 0.0000000e+00 0.0000000e+00 
0.0000000e+00 0.0000000e+00 0.0000000e+00 
0.0000000e+00 0.0000000e+00 0.0000000e+00 
0.0000000e+00 0.0000000e+00 0.0000000e+00 
0.0000000e+00 0.0000000e+00 0.0000000e+00 
0.0000000e+00 0.0000000e+00 0.0000000e+00 
0.0000000e+00 0.0000000e+00 0.0000000e+00 
0.0000000e+00 0.0000000e+00 0.0000000e+00 
0.0000000e+00 0.0000000e+00 0.0000000e+00 
0.0000000e+00 0.0000000e+00 0.0000000e+00 
0.0000000e+00 0.0000000e+00 0.0000000e+00 
0.0000000e+00 0.0000000e+00 0.0000000e+00 
0.0000000e+00 0.0000000e+00 0.0000000e+00 
0.0000000e+00 0.0000000e+00 0.0000000e+00 
0.0000000e+00 0.0000000e+00 0.0000000e+00 
0.0000000e+00 0.0000000e+00 0.0000000e+00 
0.0000000e+00 0.0000000e+00 0.0000000e+00 
1.4638540e-05 -9.1502534e-06 -1.2065606e-05 
1.2773198e-06 1.1534638e-06 9.9614203e-07 
3.1049972e-06 1.4888137e-07 -7.0470710e-06 
2.3345910e-05 -4.9025284e-06 -8.1844696e-08 
1.9332563e-05 -1.0744640e-05 6.9905320e-07 
1.5667400e-05 -1.0485622e-05 -5.3002134e-07 
5.2439686e-06 -4.5000393e-06 4.1147568e-06 