# vtk DataFile Version 4.0
vtk output
ASCII
DATASET UNSTRUCTURED_GRID
POINTS 662 float
0.0000000e+00 0.0000000e+00 0.0000000e+00 
0.0000000e+00 0.0000000e+00 4.0000000e+01 
5.0000000e+00 0.0000000e+00 0.0000000e+00 
5.0000000e+00 0.0000000e+00 4.0000000e+01 
5.0000000e+00 1.0000000e+00 0.0000000e+00 
5.0000000e+00 1.0000000e+00 4.0000000e+01 
0.0000000e+00 1.0000000e+00 0.0000000e+00 
0.0000000e+00 1.0000000e+00 4.0000000e+01 
5.0000000e+00 2.0000000e+00 0.0000000e+00 
5.0000000e+00 2.0000000e+00 4.0000000e+01 
3.0000000e+00 2.0000000e+00 0.0000000e+00 
3.0000000e+00 2.0000000e+00 4.0000000e+01 
0.0000000e+00 2.0000000e+00 0.0000000e+00 
0.0000000e+00 2.0000000e+00 4.0000000e+01 
1.5000000e+00 3.0000000e+00 0.0000000e+00 
1.5000000e+00 3.0000000e+00 4.0000000e+01 
7.5000000e-01 3.0000000e+00 0.0000000e+00 
7.5000000e-01 3.0000000e+00 4.0000000e+01 
0.0000000e+00 3.0000000e+00 0.0000000e+00 
0.0000000e+00 3.0000000e+00 4.0000000e+01 
7.5000000e-01 3.0000000e+00 5.0000000e-01 
7.5000000e-01 3.0000000e+00 1.0000000e+00 
7.5000000e-01 3.0000000e+00 1.5000000e+00 
7.5000000e-01 3.0000000e+00 2.0000000e+00 
7.5000000e-01 3.0000000e+00 2.5000000e+00 
7.5000000e-01 3.0000000e+00 3.0000000e+00 
7.5000000e-01 3.0000000e+00 3.5000000e+00 
7.5000000e-01 3.0000000e+00 4.0000000e+00 
7.5000000e-01 3.0000000e+00 4.5000000e+00 
7.5000000e-01 3.0000000e+00 5.0000000e+00 
7.5000000e-01 3.0000000e+00 5.5000000e+00 
7.5000000e-01 3.0000000e+00 6.0000000e+00 
7.5000000e-01 3.0000000e+00 6.5000000e+00 
7.5000000e-01 3.0000000e+00 7.0000000e+00 
7.5000000e-01 3.0000000e+00 7.5000000e+00 
7.5000000e-01 3.0000000e+00 8.0000000e+00 
7.5000000e-01 3.0000000e+00 8.5000000e+00 
7.5000000e-01 3.0000000e+00 9.0000000e+00 
7.5000000e-01 3.0000000e+00 9.5000000e+00 
7.5000000e-01 3.0000000e+00 1.0000000e+01 
7.5000000e-01 3.0000000e+00 1.0500000e+01 
7.5000000e-01 3.0000000e+00 1.1000000e+01 
7.5000000e-01 3.0000000e+00 1.1500000e+01 
7.5000000e-01 3.0000000e+00 1.2000000e+01 
7.5000000e-01 3.0000000e+00 1.2500000e+01 
7.5000000e-01 3.0000000e+00 1.3000000e+01 
7.5000000e-01 3.0000000e+00 1.3500000e+01 
7.5000000e-01 3.0000000e+00 1.4000000e+01 
7.5000000e-01 3.0000000e+00 1.4500000e+01 
7.5000000e-01 3.0000000e+00 1.5000000e+01 
7.5000000e-01 3.0000000e+00 1.5500000e+01 
7.5000000e-01 3.0000000e+00 1.6000000e+01 
7.5000000e-01 3.0000000e+00 1.6500000e+01 
7.5000000e-01 3.0000000e+00 1.7000000e+01 
7.5000000e-01 3.0000000e+00 1.7500000e+01 
7.5000000e-01 3.0000000e+00 1.8000000e+01 
7.5000000e-01 3.0000000e+00 1.8500000e+01 
7.5000000e-01 3.0000000e+00 1.9000000e+01 
7.5000000e-01 3.0000000e+00 1.9500000e+01 
7.5000000e-01 3.0000000e+00 2.0000000e+01 
7.5000000e-01 3.0000000e+00 2.0500000e+01 
7.5000000e-01 3.0000000e+00 2.1000000e+01 
7.5000000e-01 3.0000000e+00 2.1500000e+01 
7.5000000e-01 3.0000000e+00 2.2000000e+01 
7.5000000e-01 3.0000000e+00 2.2500000e+01 
7.5000000e-01 3.0000000e+00 2.3000000e+01 
7.5000000e-01 3.0000000e+00 2.3500000e+01 
7.5000000e-01 3.0000000e+00 2.4000000e+01 
7.5000000e-01 3.0000000e+00 2.4500000e+01 
7.5000000e-01 3.0000000e+00 2.5000000e+01 
7.5000000e-01 3.0000000e+00 2.5500000e+01 
7.5000000e-01 3.0000000e+00 2.6000000e+01 
7.5000000e-01 3.0000000e+00 2.6500000e+01 
7.5000000e-01 3.0000000e+00 2.7000000e+01 
7.5000000e-01 3.0000000e+00 2.7500000e+01 
7.5000000e-01 3.0000000e+00 2.8000000e+01 
7.5000000e-01 3.0000000e+00 2.8500000e+01 
7.5000000e-01 3.0000000e+00 2.9000000e+01 
7.5000000e-01 3.0000000e+00 2.9500000e+01 
7.5000000e-01 3.0000000e+00 3.0000000e+01 
7.5000000e-01 3.0000000e+00 3.0500000e+01 
7.5000000e-01 3.0000000e+00 3.1000000e+01 
7.5000000e-01 3.0000000e+00 3.1500000e+01 
7.5000000e-01 3.0000000e+00 3.2000000e+01 
7.5000000e-01 3.0000000e+00 3.2500000e+01 
7.5000000e-01 3.0000000e+00 3.3000000e+01 
7.5000000e-01 3.0000000e+00 3.3500000e+01 
7.5000000e-01 3.0000000e+00 3.4000000e+01 
7.5000000e-01 3.0000000e+00 3.4500000e+01 
7.5000000e-01 3.0000000e+00 3.5000000e+01 
7.5000000e-01 3.0000000e+00 3.5500000e+01 
7.5000000e-01 3.0000000e+00 3.6000000e+01 
7.5000000e-01 3.0000000e+00 3.6500000e+01 
7.5000000e-01 3.0000000e+00 3.7000000e+01 
7.5000000e-01 3.0000000e+00 3.7500000e+01 
7.5000000e-01 3.0000000e+00 3.8000000e+01 
7.5000000e-01 3.0000000e+00 3.8500000e+01 
7.5000000e-01 3.0000000e+00 3.9000000e+01 
7.5000000e-01 3.0000000e+00 3.9500000e+01 
7.5000000e-01 3.0000000e+00 4.0500000e+01 
7.5000000e-01 3.0000000e+00 4.1000000e+01 
7.5000000e-01 3.0000000e+00 4.1500000e+01 
7.5000000e-01 3.0000000e+00 4.2000000e+01 
7.5000000e-01 3.0000000e+00 4.2500000e+01 
7.5000000e-01 3.0000000e+00 4.3000000e+01 
7.5000000e-01 3.0000000e+00 4.3500000e+01 
7.5000000e-01 3.0000000e+00 4.4000000e+01 
7.5000000e-01 3.0000000e+00 4.4500000e+01 
7.5000000e-01 3.0000000e+00 4.5000000e+01 
7.5000000e-01 3.0000000e+00 4.5500000e+01 
7.5000000e-01 3.0000000e+00 4.6000000e+01 
7.5000000e-01 3.0000000e+00 4.6500000e+01 
7.5000000e-01 3.0000000e+00 4.7000000e+01 
7.5000000e-01 3.0000000e+00 4.7500000e+01 
7.5000000e-01 3.0000000e+00 4.8000000e+01 
7.5000000e-01 3.0000000e+00 4.8500000e+01 
7.5000000e-01 3.0000000e+00 4.9000000e+01 
7.5000000e-01 3.0000000e+00 4.9500000e+01 
7.5000000e-01 3.0000000e+00 5.0000000e+01 
7.5000000e-01 3.0250001e+00 0.0000000e+00 
7.5000000e-01 3.0250001e+00 5.0000000e-01 
7.5000000e-01 3.0250001e+00 1.0000000e+00 
7.5000000e-01 3.0250001e+00 1.5000000e+00 
7.5000000e-01 3.0250001e+00 2.0000000e+00 
7.5000000e-01 3.0250001e+00 2.5000000e+00 
7.5000000e-01 3.0250001e+00 3.0000000e+00 
7.5000000e-01 3.0250001e+00 3.5000000e+00 
7.5000000e-01 3.0250001e+00 4.0000000e+00 
7.5000000e-01 3.0250001e+00 4.5000000e+00 
7.5000000e-01 3.0250001e+00 5.0000000e+00 
7.5000000e-01 3.0250001e+00 5.5000000e+00 
7.5000000e-01 3.0250001e+00 6.0000000e+00 
7.5000000e-01 3.0250001e+00 6.5000000e+00 
7.5000000e-01 3.0250001e+00 7.0000000e+00 
7.5000000e-01 3.0250001e+00 7.5000000e+00 
7.5000000e-01 3.0250001e+00 8.0000000e+00 
7.5000000e-01 3.0250001e+00 8.5000000e+00 
7.5000000e-01 3.0250001e+00 9.0000000e+00 
7.5000000e-01 3.0250001e+00 9.5000000e+00 
7.5000000e-01 3.0250001e+00 1.0000000e+01 
7.5000000e-01 3.0250001e+00 1.0500000e+01 
7.5000000e-01 3.0250001e+00 1.1000000e+01 
7.5000000e-01 3.0250001e+00 1.1500000e+01 
7.5000000e-01 3.0250001e+00 1.2000000e+01 
7.5000000e-01 3.0250001e+00 1.2500000e+01 
7.5000000e-01 3.0250001e+00 1.3000000e+01 
7.5000000e-01 3.0250001e+00 1.3500000e+01 
7.5000000e-01 3.0250001e+00 1.4000000e+01 
7.5000000e-01 3.0250001e+00 1.4500000e+01 
7.5000000e-01 3.0250001e+00 1.5000000e+01 
7.5000000e-01 3.0250001e+00 1.5500000e+01 
7.5000000e-01 3.0250001e+00 1.6000000e+01 
7.5000000e-01 3.0250001e+00 1.6500000e+01 
7.5000000e-01 3.0250001e+00 1.7000000e+01 
7.5000000e-01 3.0250001e+00 1.7500000e+01 
7.5000000e-01 3.0250001e+00 1.8000000e+01 
7.5000000e-01 3.0250001e+00 1.8500000e+01 
7.5000000e-01 3.0250001e+00 1.9000000e+01 
7.5000000e-01 3.0250001e+00 1.9500000e+01 
7.5000000e-01 3.0250001e+00 2.0000000e+01 
7.5000000e-01 3.0250001e+00 2.0500000e+01 
7.5000000e-01 3.0250001e+00 2.1000000e+01 
7.5000000e-01 3.0250001e+00 2.1500000e+01 
7.5000000e-01 3.0250001e+00 2.2000000e+01 
7.5000000e-01 3.0250001e+00 2.2500000e+01 
7.5000000e-01 3.0250001e+00 2.3000000e+01 
7.5000000e-01 3.0250001e+00 2.3500000e+01 
7.5000000e-01 3.0250001e+00 2.4000000e+01 
7.5000000e-01 3.0250001e+00 2.4500000e+01 
7.5000000e-01 3.0250001e+00 2.5000000e+01 
7.5000000e-01 3.0250001e+00 2.5500000e+01 
7.5000000e-01 3.0250001e+00 2.6000000e+01 
7.5000000e-01 3.0250001e+00 2.6500000e+01 
7.5000000e-01 3.0250001e+00 2.7000000e+01 
7.5000000e-01 3.0250001e+00 2.7500000e+01 
7.5000000e-01 3.0250001e+00 2.8000000e+01 
7.5000000e-01 3.0250001e+00 2.8500000e+01 
7.5000000e-01 3.0250001e+00 2.9000000e+01 
7.5000000e-01 3.0250001e+00 2.9500000e+01 
7.5000000e-01 3.0250001e+00 3.0000000e+01 
7.5000000e-01 3.0250001e+00 3.0500000e+01 
7.5000000e-01 3.0250001e+00 3.1000000e+01 
7.5000000e-01 3.0250001e+00 3.1500000e+01 
7.5000000e-01 3.0250001e+00 3.2000000e+01 
7.5000000e-01 3.0250001e+00 3.2500000e+01 
7.5000000e-01 3.0250001e+00 3.3000000e+01 
7.5000000e-01 3.0250001e+00 3.3500000e+01 
7.5000000e-01 3.0250001e+00 3.4000000e+01 
7.5000000e-01 3.0250001e+00 3.4500000e+01 
7.5000000e-01 3.0250001e+00 3.5000000e+01 
7.5000000e-01 3.0250001e+00 3.5500000e+01 
7.5000000e-01 3.0250001e+00 3.6000000e+01 
7.5000000e-01 3.0250001e+00 3.6500000e+01 
7.5000000e-01 3.0250001e+00 3.7000000e+01 
7.5000000e-01 3.0250001e+00 3.7500000e+01 
7.5000000e-01 3.0250001e+00 3.8000000e+01 
7.5000000e-01 3.0250001e+00 3.8500000e+01 
7.5000000e-01 3.0250001e+00 3.9000000e+01 
7.5000000e-01 3.0250001e+00 3.9500000e+01 
7.5000000e-01 3.0250001e+00 4.0000000e+01 
7.5000000e-01 3.0250001e+00 4.0500000e+01 
7.5000000e-01 3.0250001e+00 4.1000000e+01 
7.5000000e-01 3.0250001e+00 4.1500000e+01 
7.5000000e-01 3.0250001e+00 4.2000000e+01 
7.5000000e-01 3.0250001e+00 4.2500000e+01 
7.5000000e-01 3.0250001e+00 4.3000000e+01 
7.5000000e-01 3.0250001e+00 4.3500000e+01 
7.5000000e-01 3.0250001e+00 4.4000000e+01 
7.5000000e-01 3.0250001e+00 4.4500000e+01 
7.5000000e-01 3.0250001e+00 4.5000000e+01 
7.5000000e-01 3.0250001e+00 4.5500000e+01 
7.5000000e-01 3.0250001e+00 4.6000000e+01 
7.5000000e-01 3.0250001e+00 4.6500000e+01 
7.5000000e-01 3.0250001e+00 4.7000000e+01 
7.5000000e-01 3.0250001e+00 4.7500000e+01 
7.5000000e-01 3.0250001e+00 4.8000000e+01 
7.5000000e-01 3.0250001e+00 4.8500000e+01 
7.5000000e-01 3.0250001e+00 4.9000000e+01 
7.5000000e-01 3.0250001e+00 4.9500000e+01 
7.5000000e-01 3.0250001e+00 5.0000000e+01 
7.5000000e-01 3.0250001e+00 3.5750000e+01 
3.0000000e+00 2.0000000e+00 3.6000000e+01 
8.0487806e-01 3.0000000e+00 3.6000000e+01 
0.0000000e+00 0.0000000e+00 2.0000000e+00 
0.0000000e+00 0.0000000e+00 4.0000000e+00 
0.0000000e+00 0.0000000e+00 6.0000000e+00 
0.0000000e+00 0.0000000e+00 8.0000000e+00 
0.0000000e+00 0.0000000e+00 1.0000000e+01 
0.0000000e+00 0.0000000e+00 1.2000000e+01 
0.0000000e+00 0.0000000e+00 1.4000000e+01 
[...]
POINT_DATA 662
FIELD FieldData 3
DISPLACEMENT 3 662  float
0.0000000e+00 0.0000000e+00 0.0000000e+00 
0.0000000e+00 0.0000000e+00 0.0000000e+00 
0.0000000e+00 0.0000000e+00 0.0000000e+00 
0.0000000e+00 0.0000000e+00 0.0000000e+00 
4.1343279e-07 -1.4978043e-06 2.2952352e-06 
6.2781924e-05 -1.6789263e-05 2.1871883e-06 
0.0000000e+00 1.5654318e-06 0.0000000e+00 
0.0000000e+00 -1.2371597e-03 0.0000000e+00 
2.0168782e-06 -2.7318963e-06 4.3567958e-08 
2.1870135e-05 1.4100361e-05 9.6120202e-06 
1.0628468e-06 -5.3137376e-07 -2.3489001e-06 
3.3779877e-05 -2.9044278e-04 2.0252338e-04 
0.0000000e+00 1.3648903e-05 0.0000000e+00 
0.0000000e+00 -3.1637216e-03 0.0000000e+00 
1.5830202e-06 1.0472712e-05 -2.5346746e-05 
-1.1522539e-03 -3.4525874e-03 1.1857599e-03 
-5.2283217e-06 5.3066069e-05 -1.9630341e-05 
-6.8796944e-04 -1.5510870e-02 2.7285023e-03 
0.0000000e+00 8.7651688e-06 0.0000000e+00 
0.0000000e+00 -6.5869731e-03 0.0000000e+00 
-5.4412335e-06 4.8762719e-05 -2.2959468e-05 
-4.6811147e-06 4.1571773e-05 -2.4348010e-05 
-6.6575791e-07 3.9048409e-05 -1.4583610e-05 
2.6650937e-06 4.5111585e-05 -8.0503423e-06 
7.4355539e-06 5.2448788e-05 4.0497775e-06 
8.1411326e-06 4.8016307e-05 1.5387377e-05 
9.8973314e-06 2.6897613e-05 2.9176294e-05 
5.7701104e-06 -2.0373836e-06 2.8029050e-05 
2.6984071e-07 -2.4695486e-05 3.5934587e-05 
9.8479040e-06 -3.6102268e-05 2.9652827e-05 
1.1298555e-05 -4.1669846e-05 2.7117831e-05 
1.2821066e-05 -5.2038118e-05 3.7920865e-05 
8.6398059e-06 -7.0891103e-05 3.3358690e-05 
-7.0563524e-06 -8.4842330e-05 2.5383715e-05 
1.2074056e-06 -7.7985154e-05 3.0264957e-05 
-1.3904933e-05 -5.5116438e-05 1.2233177e-05 
-1.4155311e-06 -2.7805714e-05 -2.2818986e-05 
-1.2100148e-05 -8.7830676e-06 -1.3283908e-05 
-1.8844856e-05 4.1063458e-06 -1.9014713e-05 
-7.5931184e-06 1.3512740e-05 -3.6773188e-05 
-2.8085862e-05 2.7999871e-05 -4.4498609e-07 
1.1092783e-06 5.1144532e-05 -2.0511143e-05 
-1.2328735e-05 7.1050148e-05 -4.2926909e-05 
9.5695505e-06 9.5146577e-05 -1.5683405e-05 
4.2623236e-05 1.1630138e-04 -3.3823580e-05 
4.7329927e-06 1.2377453e-04 -1.7194576e-05 
6.7503875e-05 1.1656781e-04 1.2713117e-05 
2.0357969e-05 1.1451108e-04 1.3468485e-05 
5.4026998e-05 1.3448040e-04 1.3719670e-05 
5.8870457e-05 1.6437136e-04 4.3129603e-05 
4.0516534e-05 1.8573500e-04 7.5810785e-05 
3.7547899e-05 1.1360671e-04 7.9741250e-05 
-4.7674825e-05 -9.1704067e-05 1.4447627e-04 
-8.5832653e-06 -4.0395901e-04 1.5388295e-04 
-9.8507109e-05 -8.3983416e-04 1.7920218e-04 
-1.0767939e-04 -1.4525516e-03 1.5187389e-04 
-2.5840357e-04 -2.3242331e-03 1.8849410e-04 
-3.1773836e-04 -3.3401763e-03 1.7799351e-04 
-1.9656307e-04 -4.2023575e-03 1.0157878e-04 
-1.9643128e-04 -4.2816373e-03 7.2520386e-05 
-3.0390150e-04 -4.0719416e-03 6.8284467e-06 
-3.8827959e-04 -3.9814152e-03 -3.5765028e-05 
-2.5898861e-04 -4.1845613e-03 -9.2688402e-05 
-1.0270276e-04 -4.1824169e-03 -1.3991231e-04 
-1.0266138e-04 -3.4481348e-03 -2.2319971e-04 
-1.7435946e-04 -2.3570040e-03 -2.3825992e-04 
-1.6138553e-04 -1.3963151e-03 -2.2282187e-04 
-2.1960122e-05 -6.7657762e-04 -1.4584497e-04 
1.8931074e-05 -2.3376166e-04 -1.4228956e-04 
4.7200228e-05 1.4904390e-05 -8.2087448e-05 
3.9095070e-05 1.3060561e-04 -2.3382514e-05 
3.6951478e-05 1.5025372e-04 2.6222744e-05 
2.4588926e-05 9.7031763e-05 3.6759255e-05 
-5.3653876e-06 1.3306979e-05 4.9836446e-05 
-1.8188342e-05 -6.0247989e-05 4.5436835e-05 
-4.1940839e-05 -1.0769611e-04 2.4172114e-05 
-6.1059778e-05 -1.2303898e-04 1.3051475e-05 
-3.7589347e-05 -1.1584137e-04 -1.0635408e-05 
-5.6413341e-05 -9.7546115e-05 -3.8070571e-05 
-1.7521192e-05 -7.4670133e-05 -4.1121431e-05 
-1.6364207e-05 -4.9434882e-05 -2.5137821e-05 
-1.5585997e-06 -1.4776645e-05 -4.2443095e-05 
2.1368356e-05 2.5994043e-05 -4.6865491e-05 
1.2309623e-05 7.2161769e-05 -3.4241828e-05 
6.9786496e-05 1.0744052e-04 -5.9356753e-05 
2.7214151e-05 1.2262679e-04 -9.4010056e-06 
7.7912155e-05 1.3153891e-04 3.9683331e-05 
4.5944205e-05 1.3487021e-04 2.8094686e-05 
1.7099683e-05 1.5223939e-04 5.8356767e-05 
7.6888318e-05 1.9853050e-04 8.8719462e-05 
-2.6481803e-05 2.7211805e-04 9.8297707e-05 
3.7371512e-05 2.8666374e-04 1.6949982e-04 
-4.8114118e-05 1.5844544e-04 2.2846539e-04 
-8.4280116e-05 -1.6850962e-04 2.7530460e-04 
-1.4180626e-04 -7.9227559e-04 4.0950056e-04 
-3.4583767e-04 -1.8979132e-03 7.7423867e-04 
-4.0847619e-04 -3.7326762e-03 9.6322212e-04 
-3.6518296e-04 -6.5091769e-03 1.0346429e-03 
-1.4989110e-04 -1.0298687e-02 3.5057386e-04 
0.0000000e+00 -2.1488754e-02 0.0000000e+00 
0.0000000e+00 -2.7310712e-02 0.0000000e+00 
0.0000000e+00 -3.1975262e-02 0.0000000e+00 
0.0000000e+00 -3.4430105e-02 0.0000000e+00 
0.0000000e+00 -3.3984255e-02 0.0000000e+00 
0.0000000e+00 -3.1173166e-02 0.0000000e+00 
0.0000000e+00 -2.6790965e-02 0.0000000e+00 
0.0000000e+00 -2.1536477e-02 0.0000000e+00 
0.0000000e+00 -1.5981454e-02 0.0000000e+00 
0.0000000e+00 -1.0580332e-02 0.0000000e+00 
0.0000000e+00 -5.6947675e-03 0.0000000e+00 
0.0000000e+00 -1.5892261e-03 0.0000000e+00 
0.0000000e+00 1.6005990e-03 0.0000000e+00 
0.0000000e+00 3.8814612e-03 0.0000000e+00 
0.0000000e+00 5.3673428e-03 0.0000000e+00 
0.0000000e+00 6.2171952e-03 0.0000000e+00 
0.0000000e+00 6.5940917e-03 0.0000000e+00 
0.0000000e+00 6.6631059e-03 0.0000000e+00 
0.0000000e+00 6.5965946e-03 0.0000000e+00 
0.0000000e+00 6.5495241e-03 0.0000000e+00 
0.0000000e+00 5.2816438e-05 0.0000000e+00 
0.0000000e+00 4.8748490e-05 0.0000000e+00 
0.0000000e+00 4.1669977e-05 0.0000000e+00 
0.0000000e+00 3.9575058e-05 0.0000000e+00 
0.0000000e+00 4.5435892e-05 0.0000000e+00 
0.0000000e+00 5.2113857e-05 0.0000000e+00 
0.0000000e+00 4.7429574e-05 0.0000000e+00 
0.0000000e+00 2.6546266e-05 0.0000000e+00 
0.0000000e+00 -1.7710189e-06 0.0000000e+00 
0.0000000e+00 -2.4181838e-05 0.0000000e+00 
0.0000000e+00 -3.5644833e-05 0.0000000e+00 
0.0000000e+00 -4.1892781e-05 0.0000000e+00 
0.0000000e+00 -5.2969841e-05 0.0000000e+00 
0.0000000e+00 -7.1209310e-05 0.0000000e+00 
0.0000000e+00 -8.3992207e-05 0.0000000e+00 
0.0000000e+00 -7.7571516e-05 0.0000000e+00 
0.0000000e+00 -5.4827669e-05 0.0000000e+00 
0.0000000e+00 -2.8425704e-05 0.0000000e+00 
0.0000000e+00 -9.0894755e-06 0.0000000e+00 
0.0000000e+00 3.7528878e-06 0.0000000e+00 
0.0000000e+00 1.3884096e-05 0.0000000e+00 
0.0000000e+00 2.8758426e-05 0.0000000e+00 
0.0000000e+00 5.0046216e-05 0.0000000e+00 
0.0000000e+00 7.1763658e-05 0.0000000e+00 
0.0000000e+00 9.5509437e-05 0.0000000e+00 
0.0000000e+00 1.1594781e-04 0.0000000e+00 
0.0000000e+00 1.2314321e-04 0.0000000e+00 
0.0000000e+00 1.1620338e-04 0.0000000e+00 
0.0000000e+00 1.1507370e-04 0.0000000e+00 
0.0000000e+00 1.3514132e-04 0.0000000e+00 
0.0000000e+00 1.6881013e-04 0.0000000e+00 
0.0000000e+00 1.8418148e-04 0.0000000e+00 
0.0000000e+00 1.0991198e-04 0.0000000e+00 
0.0000000e+00 -9.0460853e-05 0.0000000e+00 
0.0000000e+00 -4.0284375e-04 0.0000000e+00 
0.0000000e+00 -8.3798252e-04 0.0000000e+00 
0.0000000e+00 -1.4601653e-03 0.0000000e+00 
0.0000000e+00 -2.3340497e-03 0.0000000e+00 
0.0000000e+00 -3.3773833e-03 0.0000000e+00 
0.0000000e+00 -4.2240969e-03 0.0000000e+00 
0.0000000e+00 -4.3054060e-03 0.0000000e+00 
0.0000000e+00 -4.0846718e-03 0.0000000e+00 
0.0000000e+00 -4.0145069e-03 0.0000000e+00 
0.0000000e+00 -4.2066742e-03 0.0000000e+00 
0.0000000e+00 -4.2148950e-03 0.0000000e+00 
0.0000000e+00 -3.4645509e-03 0.0000000e+00 
0.0000000e+00 -2.3762810e-03 0.0000000e+00 
0.0000000e+00 -1.3999409e-03 0.0000000e+00 
0.0000000e+00 -6.8128202e-04 0.0000000e+00 
0.0000000e+00 -2.3266691e-04 0.0000000e+00 
0.0000000e+00 1.6013890e-05 0.0000000e+00 
0.0000000e+00 1.3134645e-04 0.0000000e+00 
0.0000000e+00 1.4990034e-04 0.0000000e+00 
0.0000000e+00 9.7331715e-05 0.0000000e+00 
0.0000000e+00 1.4153238e-05 0.0000000e+00 
0.0000000e+00 -6.0061018e-05 0.0000000e+00 
0.0000000e+00 -1.0677073e-04 0.0000000e+00 
0.0000000e+00 -1.2268196e-04 0.0000000e+00 
0.0000000e+00 -1.1618199e-04 0.0000000e+00 
0.0000000e+00 -9.7820484e-05 0.0000000e+00 
0.0000000e+00 -7.5180942e-05 0.0000000e+00 
0.0000000e+00 -4.9083341e-05 0.0000000e+00 
0.0000000e+00 -1.4929861e-05 0.0000000e+00 
0.0000000e+00 2.6673835e-05 0.0000000e+00 
0.0000000e+00 7.1818678e-05 0.0000000e+00 
0.0000000e+00 1.0660184e-04 0.0000000e+00 
0.0000000e+00 1.2372698e-04 0.0000000e+00 
0.0000000e+00 1.3032775e-04 0.0000000e+00 
0.0000000e+00 1.3428443e-04 0.0000000e+00 
0.0000000e+00 1.5307788e-04 0.0000000e+00 
0.0000000e+00 2.0289434e-04 0.0000000e+00 
0.0000000e+00 2.7322976e-04 0.0000000e+00 
0.0000000e+00 2.8607852e-04 0.0000000e+00 
0.0000000e+00 1.6000842e-04 0.0000000e+00 
0.0000000e+00 -1.6548243e-04 0.0000000e+00 
0.0000000e+00 -7.8990037e-04 0.0000000e+00 
0.0000000e+00 -1.8987732e-03 0.0000000e+00 
0.0000000e+00 -3.7349472e-03 0.0000000e+00 
0.0000000e+00 -6.5186713e-03 0.0000000e+00 
0.0000000e+00 -1.0426995e-02 0.0000000e+00 
0.0000000e+00 -1.5547528e-02 0.0000000e+00 
0.0000000e+00 -2.1487650e-02 0.0000000e+00 
0.0000000e+00 -2.7311796e-02 0.0000000e+00 
0.0000000e+00 -3.1977221e-02 0.0000000e+00 
0.0000000e+00 -3.4431580e-02 0.0000000e+00 
0.0000000e+00 -3.3986788e-02 0.0000000e+00 
0.0000000e+00 -3.1177558e-02 0.0000000e+00 
0.0000000e+00 -2.6796237e-02 0.0000000e+00 
0.0000000e+00 -2.1541165e-02 0.0000000e+00 
0.0000000e+00 -1.5985556e-02 0.0000000e+00 
0.0000000e+00 -1.0585091e-02 0.0000000e+00 
0.0000000e+00 -5.7007251e-03 0.0000000e+00 
0.0000000e+00 -1.5952211e-03 0.0000000e+00 
0.0000000e+00 1.5963446e-03 0.0000000e+00 
0.0000000e+00 3.8795567e-03 0.0000000e+00 
0.0000000e+00 5.3668395e-03 0.0000000e+00 
0.0000000e+00 6.2169256e-03 0.0000000e+00 
0.0000000e+00 6.5940493e-03 0.0000000e+00 
0.0000000e+00 6.6643017e-03 0.0000000e+00 
0.0000000e+00 6.5996340e-03 0.0000000e+00 
0.0000000e+00 6.5535042e-03 0.0000000e+00 
0.0000000e+00 2.9335075e-04 0.0000000e+00 
1.9375027e-05 1.4712600e-05 3.4949473e-05 
1.2516765e-05 2.6954783e-04 1.6609156e-04 
0.0000000e+00 0.0000000e+00 0.0000000e+00 
0.0000000e+00 0.0000000e+00 0.0000000e+00 
0.0000000e+00 0.0000000e+00 0.0000000e+00 
0.0000000e+00 0.0000000e+00 0.0000000e+00 
0.0000000e+00 0.0000000e+00 0.0000000e+00 
0.0000000e+00 0.0000000e+00 0.0000000e+00 
0.0000000e+00 0.0000000e+00 0.0000000e+00 
0.0000000e+00 0.0000000e+00 0.0000000e+00 
0.0000000e+00 0.0000000e+00 0.0000000e+00 
0.0000000e+00 0.0000000e+00 0.0000000e+00 
0.0000000e+00 0.0000000e+00 0.0000000e+00 
0.0000000e+00 0.0000000e+00 0.0000000e+00 
0.0000000e+00 0.0000000e+00 0.0000000e+00 
0.0000000e+00 0.0000000e+00 0.0000000e+00 
0.0000000e+00 0.0000000e+00 0.0000000e+00 
0.0000000e+00 0.0000000e+00 0.0000000e+00 
0.0000000e+00 0.0000000e+00 0.0000000e+00 
0.0000000e+00 0.0000000e+00 0.0000000e+00 
0.0000000e+00 0.0000000e+00 0.0000000e+00 
0.0000000e+00 0.0000000e+00 0.0000000e+00 
0.0000000e+00 0.0000000e+00 0.0000000e+00 
0.0000000e+00 0.0000000e+00 0.0000000e+00 
0.0000000e+00 0.0000000e+00 0.0000000e+00 
0.0000000e+00 0.0000000e+00 0.0000000e+00 
0.0000000e+00 0.0000000e+00 0.0000000e+00 
0.0000000e+00 0.0000000e+00 0.0000000e+00 
0.0000000e+00 0.0000000e+00 0.0000000e+00 
0.0000000e+00 0.0000000e+00 0.0000000e+00 
0.0000000e+00 0.0000000e+00 0.0000000e+00 
0.0000000e+00 0.0000000e+00 0.0000000e+00 
0.0000000e+00 0.0000000e+00 0.0000000e+00 
0.0000000e+00 0.0000000e+00 0.0000000e+00 
0.0000000e+00 0.0000000e+00 0.0000000e+00 
0.0000000e+00 0.0000000e+00 0.0000000e+00 
0.0000000e+00 0.0000000e+00 0.0000000e+00 
0.0000000e+00 0.0000000e+00 0.0000000e+00 
0.0000000e+00 0.0000000e+00 0.0000000e+00 
0.0000000e+00 0.0000000e+00 0.0000000e+00 
0.0000000e+00 0.0000000e+00 0.0000000e+00 
0.0000000e+00 0.0000000e+00 0.0000000e+00 
0.0000000e+00 0.0000000e+00 0.0000000e+00 
0.0000000e+00 0.0000000e+00 0.0000000e+00 
-2.4744966e-06 2.1385956e-06 1.3196643e-06 
-3.6338470e-06 3.4794512e-06 -6.8229065e-07 
1.5038011e-06 -4.7629007e-07 1.6998880e-06 
3.1795907e-06 -8.6732319e-07 5.2974001e-06 
-2.2840827e-06 -9.0086940e-07 6.9952107e-06 
-1.0130628e-05 1.9322931e-06 2.6962307e-06 
-4.2151978e-06 1.1935945e-06 -5.8734167e-06 
1.3153844e-05 -2.4738208e-06 -1.0313163e-05 
3.5998728e-05 -1.0218436e-05 -1.6442009e-05 
5.1585994e-05 -1.0028464e-05 -6.2556064e-06 
4.3838518e-05 -2.9878802e-06 7.1918043e-06 
1.7551936e-05 1.8162374e-06 5.3021372e-06 
3.8006713e-06 -3.1197060e-06 5.7156467e-06 
3.0703834e-06 -4.7286112e-06 2.4544427e-06 
-1.3752606e-06 8.4948596e-07 5.8769078e-06 
-1.1582496e-05 4.7288663e-06 3.1409113e-06 
-6.1816559e-06 3.8759208e-06 5.6101662e-06 
9.2140826e-06 1.0041394e-06 1.3671309e-06 
3.7124533e-05 -9.5324327e-07 -6.5495083e-06 
0.0000000e+00 2.0967211e-05 0.0000000e+00 
0.0000000e+00 4.8228490e-06 0.0000000e+00 
0.0000000e+00 -1.6055343e-05 0.0000000e+00 
0.0000000e+00 -2.0588277e-05 0.0000000e+00 
0.0000000e+00 -9.1020223e-07 0.0000000e+00 
0.0000000e+00 4.2186344e-05 0.0000000e+00 
0.0000000e+00 4.5902565e-05 0.0000000e+00 
0.0000000e+00 -2.3619245e-05 0.0000000e+00 
0.0000000e+00 -2.2755106e-04 0.0000000e+00 
0.0000000e+00 -5.8372738e-04 0.0000000e+00 
0.0000000e+00 -5.2743370e-04 0.0000000e+00 
0.0000000e+00 -1.0776021e-04 0.0000000e+00 
0.0000000e+00 3.3673306e-05 0.0000000e+00 
0.0000000e+00 -4.0090228e-05 0.0000000e+00 
0.0000000e+00 -2.0848469e-05 0.0000000e+00 
0.0000000e+00 3.4354569e-05 0.0000000e+00 
0.0000000e+00 2.5179264e-05 0.0000000e+00 
0.0000000e+00 7.5990315e-06 0.0000000e+00 
0.0000000e+00 -3.5293816e-04 0.0000000e+00 
-9.2248297e-07 -2.3736175e-07 1.7493838e-06 
-1.6820280e-06 4.3859677e-06 2.2518088e-06 
1.0304493e-04 -1.0240456e-04 5.2582978e-05 
2.7613819e-04 -7.2894112e-04 8.2641280e-05 
-1.4093076e-06 7.6078862e-07 1.1765891e-06 
-3.3116155e-06 2.5623190e-06 1.3983284e-06 
-1.1265652e-06 1.4482221e-06 3.4400346e-06 
4.1326331e-07 -4.3950731e-06 5.8946316e-06 
-2.1215742e-06 -4.5852153e-06 5.9065478e-06 
2.0478321e-06 2.4970643e-06 2.6376970e-06 
-1.5421220e-06 3.3917959e-06 -6.0038301e-06 
1.6089829e-05 -1.0960989e-06 -1.4561870e-05 
3.0366593e-05 -7.2118573e-06 -6.7105907e-06 
3.0980784e-05 -1.0074380e-05 -8.7167300e-06 
2.3137141e-05 -8.1284031e-07 1.8987733e-06 
1.3550305e-05 5.0227791e-06 -4.3042539e-07 
9.4585175e-06 -3.1179529e-06 7.7620762e-06 
-5.4768370e-06 -5.1694051e-06 7.9023748e-06 
-6.4016035e-06 -1.0884484e-06 1.8271986e-06 
-8.8145644e-06 1.5682241e-06 3.4990853e-06 
7.1438461e-07 -3.6548629e-06 -1.5895547e-07 
2.1672764e-05 5.1274847e-06 7.0166984e-06 
2.0119496e-05 1.4652101e-05 2.0209078e-05 
-1.2459473e-07 8.8100696e-06 -4.6188125e-06 
0.0000000e+00 2.9146617e-05 0.0000000e+00 
0.0000000e+00 8.0298787e-06 0.0000000e+00 
0.0000000e+00 -3.9092392e-05 0.0000000e+00 
0.0000000e+00 -2.9307099e-05 0.0000000e+00 
0.0000000e+00 2.4848188e-05 0.0000000e+00 
0.0000000e+00 2.4742732e-05 0.0000000e+00 
0.0000000e+00 1.0160626e-04 0.0000000e+00 
0.0000000e+00 6.4929853e-05 0.0000000e+00 
0.0000000e+00 -5.3794129e-04 0.0000000e+00 
0.0000000e+00 -1.3066644e-03 0.0000000e+00 
0.0000000e+00 -1.1538104e-03 0.0000000e+00 
0.0000000e+00 -1.9167614e-04 0.0000000e+00 
0.0000000e+00 6.4599320e-05 0.0000000e+00 
0.0000000e+00 -7.0966526e-05 0.0000000e+00 
0.0000000e+00 -6.4582127e-05 0.0000000e+00 
0.0000000e+00 2.6672516e-05 0.0000000e+00 
0.0000000e+00 1.1203089e-04 0.0000000e+00 
0.0000000e+00 6.6352412e-05 0.0000000e+00 
0.0000000e+00 -6.0587638e-04 0.0000000e+00 
2.8746322e-04 -1.5067596e-03 2.4126093e-04 
-2.0373786e-07 3.6984969e-05 -1.0250095e-05 
6.2216545e-06 2.3718783e-06 4.2629967e-05 
1.1538136e-05 -5.7503257e-05 4.4249056e-05 
-1.5236173e-05 -4.5862562e-05 6.1672854e-06 
-1.2545231e-05 1.3335651e-05 -2.9518887e-05 
7.8851535e-06 6.2453677e-05 -5.1309908e-05 
7.1292103e-05 8.5921332e-05 1.2094632e-05 
3.8315666e-05 8.2361359e-05 1.2740301e-04 
-2.8081692e-04 -4.8483128e-04 3.4052192e-04 
-7.3104934e-04 -1.4314079e-03 8.6500200e-05 
-6.4648170e-04 -1.4331902e-03 -2.6736339e-04 
-7.8731660e-05 -1.4205791e-04 -2.8391418e-04 
5.1775514e-05 6.7582303e-05 4.9204456e-05 
-4.3133903e-05 -8.6520762e-05 4.2003274e-05 
-4.4993158e-05 -4.5571760e-05 -6.2827494e-05 
2.3037750e-05 3.8267775e-05 -7.0227077e-05 
7.7679673e-05 8.3059051e-05 3.5008539e-05 
3.0426223e-05 7.3402080e-05 2.0426368e-04 
-4.6914423e-04 -5.3097715e-04 7.8436983e-04 
0.0000000e+00 4.4988516e-05 0.0000000e+00 
0.0000000e+00 7.2859220e-06 0.0000000e+00 
0.0000000e+00 -3.8354472e-05 0.0000000e+00 
0.0000000e+00 -6.2274962e-06 0.0000000e+00 
0.0000000e+00 -4.7932367e-06 0.0000000e+00 
0.0000000e+00 1.6580952e-05 0.0000000e+00 
0.0000000e+00 1.7556394e-04 0.0000000e+00 
0.0000000e+00 1.2445486e-04 0.0000000e+00 
0.0000000e+00 -9.6650276e-04 0.0000000e+00 
0.0000000e+00 -2.5098969e-03 0.0000000e+00 
0.0000000e+00 -2.2259250e-03 0.0000000e+00 
0.0000000e+00 -3.4609964e-04 0.0000000e+00 
0.0000000e+00 1.3930236e-04 0.0000000e+00 
0.0000000e+00 -1.1836990e-04 0.0000000e+00 
0.0000000e+00 -8.4257408e-05 0.0000000e+00 
0.0000000e+00 8.8533670e-05 0.0000000e+00 
0.0000000e+00 1.9243090e-04 0.0000000e+00 
0.0000000e+00 1.6633826e-04 0.0000000e+00 
0.0000000e+00 -1.1824996e-03 0.0000000e+00 
-3.0837662e-06 1.0779841e-05 -3.1854825e-06 
-1.9823860e-06 1.8945158e-07 5.0146500e-06 
2.9403295e-06 -1.0825937e-05 1.2614603e-05 
-1.6415838e-06 -1.5238162e-05 8.0312457e-06 
-1.1352474e-05 -6.4993528e-06 3.1123645e-06 
-8.5625261e-06 1.9324219e-05 -7.0310621e-06 
8.3484938e-06 3.1776461e-05 3.8241560e-06 
2.7043812e-05 3.4786306e-05 2.0947964e-05 
5.4457054e-05 -6.8422240e-05 7.0324359e-06 
4.5364566e-05 -1.2791454e-04 -1.9365538e-05 
3.3600674e-05 -9.8094555e-05 -1.9166915e-05 
4.0481125e-05 -3.1735159e-05 -6.8257200e-06 
8.7473563e-06 1.6642500e-05 3.1954373e-06 
-8.3752275e-06 -2.1109963e-05 2.9539640e-06 
-1.2682924e-05 -1.0523868e-05 -4.1396620e-06 
-5.9976655e-06 1.0037593e-05 -2.6220521e-06 
7.0092760e-06 1.8643505e-05 1.1226529e-05 
4.8385817e-05 -1.3739455e-05 4.5920260e-05 
-5.2650826e-06 1.3289207e-05 1.3213104e-04 
0.0000000e+00 0.0000000e+00 0.0000000e+00 
0.0000000e+00 0.0000000e+00 0.0000000e+00 
0.0000000e+00 0.0000000e+00 0.0000000e+00 
0.0000000e+00 0.0000000e+00 0.0000000e+00 
0.0000000e+00 0.0000000e+00 0.0000000e+00 
0.0000000e+00 0.0000000e+00 0.0000000e+00 
0.0000000e+00 0.0000000e+00 0.0000000e+00 
0.0000000e+00 0.0000000e+00 0.0000000e+00 
0.0000000e+00 0.0000000e+00 0.0000000e+00 
0.0000000e+00 0.0000000e+00 0.0000000e+00 
0.0000000e+00 0.0000000e+00 0.0000000e+00 
0.0000000e+00 0.0000000e+00 0.0000000e+00 
0.0000000e+00 0.0000000e+00 0.0000000e+00 
0.0000000e+00 0.0000000e+00 0.0000000e+00 
0.0000000e+00 0.0000000e+00 0.0000000e+00 
0.0000000e+00 0.0000000e+00 0.0000000e+00 
0.0000000e+00 0.0000000e+00 0.0000000e+00 
0.0000000e+00 0.0000000e+00 0.0000000e+00 
0.0000000e+00 0.0000000e+00 0.0000000e+00 
0.0000000e+00 0.0000000e+00 0.0000000e+00 
0.0000000e+00 0.0000000e+00 0.0000000e+00 
0.0000000e+00 0.0000000e+00 0.0000000e+00 
0.0000000e+00 0.0000000e+00 0.0000000e+00 
0.0000000e+00 0.0000000e+00 0.0000000e+00 
0.0000000e+00 0.0000000e+00 0.0000000e+00 
0.0000000e+00 0.0000000e+00 0.0000000e+00 
0.0000000e+00 0.0000000e+00 0.0000000e+00 
0.0000000e+00 0.0000000e+00 0.0000000e+00 
0.0000000e+00 0.0000000e+00 0.0000000e+00 
0.0000000e+00 0.0000000e+00 0.0000000e+00 
0.0000000e+00 0.0000000e+00 0.0000000e+00 
0.0000000e+00 0.0000000e+00 0.0000000e+00 
0.0000000e+00 0.0000000e+00 0.0000000e+00 
0.0000000e+00 0.0000000e+00 0.0000000e+00 
0.0000000e+00 0.0000000e+00 0.0000000e+00 
0.0000000e+00 0.0000000e+00 0.0000000e+00 
0.0000000e+00 0.0000000e+00 0.0000000e+00 
0.0000000e+00 0.0000000e+00 0.0000000e+00 
0.0000000e+00 0.0000000e+00 0.0000000e+00 
0.0000000e+00 0.0000000e+00 0.0000000e+00 
0.0000000e+00 0.0000000e+00 0.0000000e+00 
0.0000000e+00 0.0000000e+00 0.0000000e+00 
-1.7500930e-06 7.5150103e-07 1.7441108e-06 
-2.9060018e-06 6.6397644e-07 -1.3717344e-06 
1.2152137e-06 1.3946287e-06 -2.2767315e-06 
1.8474386e-05 -5.7038587e-06 2.8889372e-06 
3.4781335e-06 -2.4547196e-06 1.8377965e-06 
1.3780380e-07 -2.0151763e-06 1.8879443e-06 
1.3786178e-06 -7.0309403e-07 3.2856144e-06 
-3.5604257e-06 1.0580848e-06 1.2052718e-06 
-5.7795100e-06 4.8967436e-06 2.7602809e-06 