# vtk DataFile Version 4.0
vtk output
ASCII
DATASET UNSTRUCTURED_GRID
POINTS 662 float
0.0000000e+00 0.0000000e+00 0.0000000e+00 
0.0000000e+00 0.0000000e+00 4.0000000e+01 
5.0000000e+00 0.0000000e+00 0.0000000e+00 
5.0000000e+00 0.0000000e+00 4.0000000e+01 
5.0000000e+00 1.0000000e+00 0.0000000e+00 
5.0000000e+00 1.0000000e+00 4.0000000e+01 
0.0000000e+00 1.0000000e+00 0.0000000e+00 
0.0000000e+00 1.0000000e+00 4.0000000e+01 
5.0000000e+00 2.0000000e+00 0.0000000e+00 
5.0000000e+00 2.0000000e+00 4.0000000e+01 
3.0000000e+00 2.0000000e+00 0.0000000e+00 
3.0000000e+00 2.0000000e+00 4.0000000e+01 
0.0000000e+00 2.0000000e+00 0.0000000e+00 
0.0000000e+00 2.0000000e+00 4.0000000e+01 
1.5000000e+00 3.0000000e+00 0.0000000e+00 
1.5000000e+00 3.0000000e+00 4.0000000e+01 
7.5000000e-01 3.0000000e+00 0.0000000e+00 
7.5000000e-01 3.0000000e+00 4.0000000e+01 
0.0000000e+00 3.0000000e+00 0.0000000e+00 
0.0000000e+00 3.0000000e+00 4.0000000e+01 
7.5000000e-01 3.0000000e+00 5.0000000e-01 
7.5000000e-01 3.0000000e+00 1.0000000e+00 
7.5000000e-01 3.0000000e+00 1.5000000e+00 
7.5000000e-01 3.0000000e+00 2.0000000e+00 
7.5000000e-01 3.0000000e+00 2.5000000e+00 
7.5000000e-01 3.0000000e+00 3.0000000e+00 
7.5000000e-01 3.0000000e+00 3.5000000e+00 
7.5000000e-01 3.0000000e+00 4.0000000e+00 
7.5000000e-01 3.0000000e+00 4.5000000e+00 
7.5000000e-01 3.0000000e+00 5.0000000e+00 
7.5000000e-01 3.0000000e+00 5.5000000e+00 
7.5000000e-01 3.0000000e+00 6.0000000e+00 
7.5000000e-01 3.0000000e+00 6.5000000e+00 
7.5000000e-01 3.0000000e+00 7.0000000e+00 
7.5000000e-01 3.0000000e+00 7.5000000e+00 
7.5000000e-01 3.0000000e+00 8.0000000e+00 
7.5000000e-01 3.0000000e+00 8.5000000e+00 
7.5000000e-01 3.0000000e+00 9.0000000e+00 
7.5000000e-01 3.0000000e+00 9.5000000e+00 
7.5000000e-01 3.0000000e+00 1.0000000e+01 
7.5000000e-01 3.0000000e+00 1.0500000e+01 
7.5000000e-01 3.0000000e+00 1.1000000e+01 
7.5000000e-01 3.0000000e+00 1.1500000e+01 
7.5000000e-01 3.0000000e+00 1.2000000e+01 
7.5000000e-01 3.0000000e+00 1.2500000e+01 
7.5000000e-01 3.0000000e+00 1.3000000e+01 
7.5000000e-01 3.0000000e+00 1.3500000e+01 
7.5000000e-01 3.0000000e+00 1.4000000e+01 
7.5000000e-01 3.0000000e+00 1.4500000e+01 
7.5000000e-01 3.0000000e+00 1.5000000e+01 
7.5000000e-01 3.0000000e+00 1.5500000e+01 
7.5000000e-01 3.0000000e+00 1.6000000e+01 
7.5000000e-01 3.0000000e+00 1.6500000e+01 
7.5000000e-01 3.0000000e+00 1.7000000e+01 
7.5000000e-01 3.0000000e+00 1.7500000e+01 
7.5000000e-01 3.0000000e+00 1.8000000e+01 
7.5000000e-01 3.0000000e+00 1.8500000e+01 
7.5000000e-01 3.0000000e+00 1.9000000e+01 
7.5000000e-01 3.0000000e+00 1.9500000e+01 
7.5000000e-01 3.0000000e+00 2.0000000e+01 
7.5000000e-01 3.0000000e+00 2.0500000e+01 
7.5000000e-01 3.0000000e+00 2.1000000e+01 
7.5000000e-01 3.0000000e+00 2.1500000e+01 
7.5000000e-01 3.0000000e+00 2.2000000e+01 
7.5000000e-01 3.0000000e+00 2.2500000e+01 
7.5000000e-01 3.0000000e+00 2.3000000e+01 
7.5000000e-01 3.0000000e+00 2.3500000e+01 
7.5000000e-01 3.0000000e+00 2.4000000e+01 
7.5000000e-01 3.0000000e+00 2.4500000e+01 
7.5000000e-01 3.0000000e+00 2.5000000e+01 
7.5000000e-01 3.0000000e+00 2.5500000e+01 
7.5000000e-01 3.0000000e+00 2.6000000e+01 
7.5000000e-01 3.0000000e+00 2.6500000e+01 
7.5000000e-01 3.0000000e+00 2.7000000e+01 
7.5000000e-01 3.0000000e+00 2.7500000e+01 
7.5000000e-01 3.0000000e+00 2.8000000e+01 
7.5000000e-01 3.0000000e+00 2.8500000e+01 
7.5000000e-01 3.0000000e+00 2.9000000e+01 
7.5000000e-01 3.0000000e+00 2.9500000e+01 
7.5000000e-01 3.0000000e+00 3.0000000e+01 
7.5000000e-01 3.0000000e+00 3.0500000e+01 
7.5000000e-01 3.0000000e+00 3.1000000e+01 
7.5000000e-01 3.0000000e+00 3.1500000e+01 
7.5000000e-01 3.0000000e+00 3.2000000e+01 
7.5000000e-01 3.0000000e+00 3.2500000e+01 
7.5000000e-01 3.0000000e+00 3.3000000e+01 
7.5000000e-01 3.0000000e+00 3.3500000e+01 
7.5000000e-01 3.0000000e+00 3.4000000e+01 
7.5000000e-01 3.0000000e+00 3.4500000e+01 
7.5000000e-01 3.0000000e+00 3.5000000e+01 
7.5000000e-01 3.0000000e+00 3.5500000e+01 
7.5000000e-01 3.0000000e+00 3.6000000e+01 
7.5000000e-01 3.0000000e+00 3.6500000e+01 
7.5000000e-01 3.0000000e+00 3.7000000e+01 
7.5000000e-01 3.0000000e+00 3.7500000e+01 
7.5000000e-01 3.0000000e+00 3.8000000e+01 
7.5000000e-01 3.0000000e+00 3.8500000e+01 
7.5000000e-01 3.0000000e+00 3.9000000e+01 
7.5000000e-01 3.0000000e+00 3.9500000e+01 
7.5000000e-01 3.0000000e+00 4.0500000e+01 
7.5000000e-01 3.0000000e+00 4.1000000e+01 
7.5000000e-01 3.0000000e+00 4.1500000e+01 
7.5000000e-01 3.0000000e+00 4.2000000e+01 
7.5000000e-01 3.0000000e+00 4.2500000e+01 
7.5000000e-01 3.0000000e+00 4.3000000e+01 
7.5000000e-01 3.0000000e+00 4.3500000e+01 
7.5000000e-01 3.0000000e+00 4.4000000e+01 
7.5000000e-01 3.0000000e+00 4.4500000e+01 
7.5000000e-01 3.0000000e+00 4.5000000e+01 
7.5000000e-01 3.0000000e+00 4.5500000e+01 
7.5000000e-01 3.0000000e+00 4.6000000e+01 
7.5000000e-01 3.0000000e+00 4.6500000e+01 
7.5000000e-01 3.0000000e+00 4.7000000e+01 
7.5000000e-01 3.0000000e+00 4.7500000e+01 
7.5000000e-01 3.0000000e+00 4.8000000e+01 
7.5000000e-01 3.0000000e+00 4.8500000e+01 
7.5000000e-01 3.0000000e+00 4.9000000e+01 
7.5000000e-01 3.0000000e+00 4.9500000e+01 
7.5000000e-01 3.0000000e+00 5.0000000e+01 
7.5000000e-01 3.0250001e+00 0.0000000e+00 
7.5000000e-01 3.0250001e+00 5.0000000e-01 
7.5000000e-01 3.0250001e+00 1.0000000e+00 
7.5000000e-01 3.0250001e+00 1.5000000e+00 
7.5000000e-01 3.0250001e+00 2.0000000e+00 
7.5000000e-01 3.0250001e+00 2.5000000e+00 
7.5000000e-01 3.0250001e+00 3.0000000e+00 
7.5000000e-01 3.0250001e+00 3.5000000e+00 
7.5000000e-01 3.0250001e+00 4.0000000e+00 
7.5000000e-01 3.0250001e+00 4.5000000e+00 
7.5000000e-01 3.0250001e+00 5.0000000e+00 
7.5000000e-01 3.0250001e+00 5.5000000e+00 
7.5000000e-01 3.0250001e+00 6.0000000e+00 
7.5000000e-01 3.0250001e+00 6.5000000e+00 
7.5000000e-01 3.0250001e+00 7.0000000e+00 
7.5000000e-01 3.0250001e+00 7.5000000e+00 
7.5000000e-01 3.0250001e+00 8.0000000e+00 
7.5000000e-01 3.0250001e+00 8.5000000e+00 
7.5000000e-01 3.0250001e+00 9.0000000e+00 
7.5000000e-01 3.0250001e+00 9.5000000e+00 
7.5000000e-01 3.0250001e+00 1.0000000e+01 
7.5000000e-01 3.0250001e+00 1.0500000e+01 
7.5000000e-01 3.0250001e+00 1.1000000e+01 
7.5000000e-01 3.0250001e+00 1.1500000e+01 
7.5000000e-01 3.0250001e+00 1.2000000e+01 
7.5000000e-01 3.0250001e+00 1.2500000e+01 
7.5000000e-01 3.0250001e+00 1.3000000e+01 
7.5000000e-01 3.0250001e+00 1.3500000e+01 
7.5000000e-01 3.0250001e+00 1.4000000e+01 
7.5000000e-01 3.0250001e+00 1.4500000e+01 
7.5000000e-01 3.0250001e+00 1.5000000e+01 
7.5000000e-01 3.0250001e+00 1.5500000e+01 
7.5000000e-01 3.0250001e+00 1.6000000e+01 
7.5000000e-01 3.0250001e+00 1.6500000e+01 
7.5000000e-01 3.0250001e+00 1.7000000e+01 
7.5000000e-01 3.0250001e+00 1.7500000e+01 
7.5000000e-01 3.0250001e+00 1.8000000e+01 
7.5000000e-01 3.0250001e+00 1.8500000e+01 
7.5000000e-01 3.0250001e+00 1.9000000e+01 
7.5000000e-01 3.0250001e+00 1.9500000e+01 
7.5000000e-01 3.0250001e+00 2.0000000e+01 
7.5000000e-01 3.0250001e+00 2.0500000e+01 
7.5000000e-01 3.0250001e+00 2.1000000e+01 
7.5000000e-01 3.0250001e+00 2.1500000e+01 
7.5000000e-01 3.0250001e+00 2.2000000e+01 
7.5000000e-01 3.0250001e+00 2.2500000e+01 
7.5000000e-01 3.0250001e+00 2.3000000e+01 
7.5000000e-01 3.0250001e+00 2.3500000e+01 
7.5000000e-01 3.0250001e+00 2.4000000e+01 
7.5000000e-01 3.0250001e+00 2.4500000e+01 
7.5000000e-01 3.0250001e+00 2.5000000e+01 
7.5000000e-01 3.0250001e+00 2.5500000e+01 
7.5000000e-01 3.0250001e+00 2.6000000e+01 
7.5000000e-01 3.0250001e+00 2.6500000e+01 
7.5000000e-01 3.0250001e+00 2.7000000e+01 
7.5000000e-01 3.0250001e+00 2.7500000e+01 
7.5000000e-01 3.0250001e+00 2.8000000e+01 
7.5000000e-01 3.0250001e+00 2.8500000e+01 
7.5000000e-01 3.0250001e+00 2.9000000e+01 
7.5000000e-01 3.0250001e+00 2.9500000e+01 
7.5000000e-01 3.0250001e+00 3.0000000e+01 
7.5000000e-01 3.0250001e+00 3.0500000e+01 
7.5000000e-01 3.0250001e+00 3.1000000e+01 
7.5000000e-01 3.0250001e+00 3.1500000e+01 
7.5000000e-01 3.0250001e+00 3.2000000e+01 
7.5000000e-01 3.0250001e+00 3.2500000e+01 
7.5000000e-01 3.0250001e+00 3.3000000e+01 
7.5000000e-01 3.0250001e+00 3.3500000e+01 
7.5000000e-01 3.0250001e+00 3.4000000e+01 
7.5000000e-01 3.0250001e+00 3.4500000e+01 
7.5000000e-01 3.0250001e+00 3.5000000e+01 
7.5000000e-01 3.0250001e+00 3.5500000e+01 
7.5000000e-01 3.0250001e+00 3.6000000e+01 
7.5000000e-01 3.0250001e+00 3.6500000e+01 
7.5000000e-01 3.0250001e+00 3.7000000e+01 
7.5000000e-01 3.0250001e+00 3.7500000e+01 
7.5000000e-01 3.0250001e+00 3.8000000e+01 
7.5000000e-01 3.0250001e+00 3.8500000e+01 
7.5000000e-01 3.0250001e+00 3.9000000e+01 
7.5000000e-01 3.0250001e+00 3.9500000e+01 
7.5000000e-01 3.0250001e+00 4.0000000e+01 
7.5000000e-01 3.0250001e+00 4.0500000e+01 
7.5000000e-01 3.0250001e+00 4.1000000e+01 
7.5000000e-01 3.0250001e+00 4.1500000e+01 
7.5000000e-01 3.0250001e+00 4.2000000e+01 
7.5000000e-01 3.0250001e+00 4.2500000e+01 
7.5000000e-01 3.0250001e+00 4.3000000e+01 
7.5000000e-01 3.0250001e+00 4.3500000e+01 
7.5000000e-01 3.0250001e+00 4.4000000e+01 
7.5000000e-01 3.0250001e+00 4.4500000e+01 
7.5000000e-01 3.0250001e+00 4.5000000e+01 
7.5000000e-01 3.0250001e+00 4.5500000e+01 
7.5000000e-01 3.0250001e+00 4.6000000e+01 
7.5000000e-01 3.0250001e+00 4.6500000e+01 
7.5000000e-01 3.0250001e+00 4.7000000e+01 
7.5000000e-01 3.0250001e+00 4.7500000e+01 
7.5000000e-01 3.0250001e+00 4.8000000e+01 
7.5000000e-01 3.0250001e+00 4.8500000e+01 
7.5000000e-01 3.0250001e+00 4.9000000e+01 
7.5000000e-01 3.0250001e+00 4.9500000e+01 
7.5000000e-01 3.0250001e+00 5.0000000e+01 
7.5000000e-01 3.0250001e+00 3.5750000e+01 
3.0000000e+00 2.0000000e+00 3.6000000e+01 
8.0487806e-01 3.0000000e+00 3.6000000e+01 
0.0000000e+00 0.0000000e+00 2.0000000e+00 
0.0000000e+00 0.0000000e+00 4.0000000e+00 
0.0000000e+00 0.0000000e+00 6.0000000e+00 
0.0000000e+00 0.0000000e+00 8.0000000e+00 
0.0000000e+00 0.0000000e+00 1.0000000e+01 
0.0000000e+00 0.0000000e+00 1.2000000e+01 
0.0000000e+00 0.0000000e+00 1.4000000e+01 
[...]
POINT_DATA 662
FIELD FieldData 3
DISPLACEMENT 3 662  float
0.0000000e+00 0.0000000e+00 0.0000000e+00 
0.0000000e+00 0.0000000e+00 0.0000000e+00 
0.0000000e+00 0.0000000e+00 0.0000000e+00 
0.0000000e+00 0.0000000e+00 0.0000000e+00 
6.2084600e-06 -5.0140166e-06 1.0141702e-06 
6.1107850e-05 -1.9790878e-05 -1.9812344e-06 
0.0000000e+00 -1.4665025e-05 0.0000000e+00 
0.0000000e+00 -1.2302967e-03 0.0000000e+00 
7.8221783e-06 -6.7573333e-06 -4.0865530e-06 
2.7446555e-05 1.4038105e-05 1.2850907e-05 
2.1296041e-06 -1.3297212e-05 -1.5229418e-05 
3.1013467e-05 -3.0187043e-04 2.0854668e-04 
0.0000000e+00 -2.5537953e-05 0.0000000e+00 
0.0000000e+00 -3.0934357e-03 0.0000000e+00 
-1.3539066e-05 -3.0921350e-05 -6.5117871e-05 
-1.1393140e-03 -3.3947534e-03 1.2460309e-03 
-2.1710144e-05 6.3018415e-06 -5.2820051e-05 
-6.9276610e-04 -1.5331905e-02 2.8081615e-03 
0.0000000e+00 -3.8856502e-05 0.0000000e+00 
0.0000000e+00 -6.4831460e-03 0.0000000e+00 
-1.2528746e-05 1.1796275e-05 -4.7873440e-05 
-6.6265825e-06 2.4625895e-05 -3.9904004e-05 
-2.6664002e-06 3.8629347e-05 -2.9477220e-05 
4.2537281e-06 4.9305210e-05 -1.3680214e-05 
8.5676020e-06 5.3272419e-05 2.8827756e-06 
1.3805276e-05 4.8053433e-05 1.7491600e-05 
1.1544838e-05 3.4105433e-05 2.7728202e-05 
9.3234894e-06 1.3431815e-05 3.1976939e-05 
7.3166175e-06 -1.1495410e-05 3.1631327e-05 
9.0708700e-06 -3.7632068e-05 3.0071611e-05 
1.2661910e-05 -6.1863524e-05 3.3202745e-05 
1.1275593e-05 -8.1025188e-05 3.7690239e-05 
1.9160152e-06 -9.2417569e-05 3.8414786e-05 
-8.9474233e-06 -9.5250478e-05 3.1878517e-05 
-1.3510574e-05 -8.9233668e-05 2.2852364e-05 
-1.4959892e-05 -7.5985474e-05 8.0860318e-06 
-1.7133629e-05 -5.6270419e-05 -1.0411964e-05 
-1.8471783e-05 -3.4231252e-05 -2.1272735e-05 
-1.8689232e-05 -1.2856610e-05 -2.2628250e-05 
-1.8039813e-05 6.0649222e-06 -1.6920392e-05 
-1.1914936e-05 2.0639924e-05 -8.7038970e-06 
-7.0750361e-06 3.0800638e-05 -1.7762867e-06 
-1.7524039e-06 3.6404537e-05 -3.2148810e-06 
6.9587800e-06 3.8342063e-05 -6.7817605e-06 
1.4150247e-05 3.7222788e-05 -5.0212907e-06 
2.0552998e-05 3.4514047e-05 -6.5146435e-07 
2.5410842e-05 3.1705695e-05 3.3438732e-06 
2.8824641e-05 3.0298639e-05 7.7561826e-06 
2.8881925e-05 3.1117554e-05 7.3316833e-06 
2.6711008e-05 2.9950868e-05 8.6864366e-06 
2.0897553e-05 1.7759558e-05 1.8339044e-05 
6.0530874e-06 -3.1449854e-05 3.0288040e-05 
-3.5424797e-05 -1.5641448e-04 6.1794562e-05 
-5.0625753e-05 -3.9942039e-04 9.1152746e-05 
-7.3587813e-05 -8.2406157e-04 1.2956320e-04 
-1.2688211e-04 -1.4762280e-03 7.0412265e-05 
-2.7185137e-04 -2.3780752e-03 1.4974034e-04 
-2.7695295e-04 -3.3561210e-03 1.3517105e-04 
-1.7083618e-04 -4.1090734e-03 7.9002806e-05 
-1.3712810e-04 -4.0854188e-03 1.0066164e-04 
-2.6400457e-04 -3.8690967e-03 4.6223777e-05 
-3.2363657e-04 -3.8332664e-03 4.4656881e-05 
-2.1488145e-04 -4.0886640e-03 2.3287957e-05 
-6.6013010e-05 -4.1290433e-03 -1.3921182e-05 
-9.8083598e-05 -3.4602541e-03 -1.0846721e-04 
-1.9438131e-04 -2.4557195e-03 -1.4159725e-04 
-1.8842860e-04 -1.5750880e-03 -1.4130576e-04 
-6.7884052e-05 -9.0023963e-04 -8.8763576e-05 
-3.4336805e-05 -4.6526926e-04 -1.2885501e-04 
-2.2717659e-05 -2.0998529e-04 -1.0400630e-04 
-1.6944256e-05 -7.6891418e-05 -8.5623651e-05 
-7.0096769e-07 -1.8652248e-05 -6.5188011e-05 
2.1206436e-06 -4.3973923e-06 -4.3950826e-05 
1.0383899e-06 -9.9354702e-06 -2.7399288e-05 
-6.1925684e-06 -1.9463376e-05 -2.1871123e-05 
-1.4083838e-05 -2.5916443e-05 -2.0870375e-05 
-1.4557761e-05 -2.5503290e-05 -1.9199355e-05 
-1.2948412e-05 -2.0852422e-05 -1.5524187e-05 
-1.5653182e-05 -1.5959313e-05 -1.1485449e-05 
-1.7674498e-05 -1.2432868e-05 -5.6418762e-06 
-1.6004160e-05 -1.1208188e-05 -4.4140502e-06 
-1.5205560e-05 -1.0780346e-05 -9.4912366e-06 
-4.2446486e-06 -8.4258709e-06 -2.5362015e-05 
8.2612869e-06 -1.7253426e-06 -3.8159160e-05 
2.3915531e-05 1.2355610e-05 -3.1475472e-05 
3.4953184e-05 3.5421774e-05 -1.9283680e-05 
4.1232721e-05 7.0377326e-05 -1.1977557e-05 
4.5896675e-05 1.1761054e-04 6.1753093e-07 
5.0637820e-05 1.7753271e-04 1.3916244e-05 
5.4511002e-05 2.4530347e-04 3.8767535e-05 
3.2954224e-05 3.1151754e-04 8.7572167e-05 
1.8771871e-05 3.4384889e-04 1.4695068e-04 
-3.2491793e-05 2.8204554e-04 2.1662159e-04 
-4.6488967e-05 3.6597514e-05 2.9340075e-04 
-1.3650733e-04 -5.3526211e-04 4.5069514e-04 
-3.0215332e-04 -1.6638375e-03 7.4642687e-04 
-4.0965123e-04 -3.5520073e-03 1.0263955e-03 
-3.2915472e-04 -6.3534724e-03 1.0896889e-03 
-1.3018472e-04 -1.0110525e-02 3.4665395e-04 
0.0000000e+00 -2.1461520e-02 0.0000000e+00 
0.0000000e+00 -2.7494282e-02 0.0000000e+00 
0.0000000e+00 -3.2324228e-02 0.0000000e+00 
0.0000000e+00 -3.4801848e-02 0.0000000e+00 
0.0000000e+00 -3.4293048e-02 0.0000000e+00 
0.0000000e+00 -3.1400904e-02 0.0000000e+00 
0.0000000e+00 -2.6882961e-02 0.0000000e+00 
0.0000000e+00 -2.1440495e-02 0.0000000e+00 
0.0000000e+00 -1.5689049e-02 0.0000000e+00 
0.0000000e+00 -1.0135689e-02 0.0000000e+00 
0.0000000e+00 -5.1650787e-03 0.0000000e+00 
0.0000000e+00 -1.0325817e-03 0.0000000e+00 
0.0000000e+00 2.1365448e-03 0.0000000e+00 
0.0000000e+00 4.3394379e-03 0.0000000e+00 
0.0000000e+00 5.6766900e-03 0.0000000e+00 
0.0000000e+00 6.3231592e-03 0.0000000e+00 
0.0000000e+00 6.4934040e-03 0.0000000e+00 
0.0000000e+00 6.4071724e-03 0.0000000e+00 
0.0000000e+00 6.2582409e-03 0.0000000e+00 
0.0000000e+00 6.1884089e-03 0.0000000e+00 
0.0000000e+00 6.5606750e-06 0.0000000e+00 
0.0000000e+00 1.1906288e-05 0.0000000e+00 
0.0000000e+00 2.4536654e-05 0.0000000e+00 
0.0000000e+00 3.8575512e-05 0.0000000e+00 
0.0000000e+00 4.9269169e-05 0.0000000e+00 
0.0000000e+00 5.3129894e-05 0.0000000e+00 
0.0000000e+00 4.7991201e-05 0.0000000e+00 
0.0000000e+00 3.4101220e-05 0.0000000e+00 
0.0000000e+00 1.3407895e-05 0.0000000e+00 
0.0000000e+00 -1.1504439e-05 0.0000000e+00 
0.0000000e+00 -3.7648584e-05 0.0000000e+00 
0.0000000e+00 -6.1854807e-05 0.0000000e+00 
0.0000000e+00 -8.0953156e-05 0.0000000e+00 
0.0000000e+00 -9.2409275e-05 0.0000000e+00 
0.0000000e+00 -9.5186573e-05 0.0000000e+00 
0.0000000e+00 -8.9281486e-05 0.0000000e+00 
0.0000000e+00 -7.5812561e-05 0.0000000e+00 
0.0000000e+00 -5.6327055e-05 0.0000000e+00 
0.0000000e+00 -3.4311186e-05 0.0000000e+00 
0.0000000e+00 -1.2860474e-05 0.0000000e+00 
0.0000000e+00 5.9748118e-06 0.0000000e+00 
0.0000000e+00 2.0640933e-05 0.0000000e+00 
0.0000000e+00 3.0766168e-05 0.0000000e+00 
0.0000000e+00 3.6426765e-05 0.0000000e+00 
0.0000000e+00 3.8307138e-05 0.0000000e+00 
0.0000000e+00 3.7232570e-05 0.0000000e+00 
0.0000000e+00 3.4523880e-05 0.0000000e+00 
0.0000000e+00 3.1736410e-05 0.0000000e+00 
0.0000000e+00 3.0515872e-05 0.0000000e+00 
0.0000000e+00 3.1371837e-05 0.0000000e+00 
0.0000000e+00 3.0873045e-05 0.0000000e+00 
0.0000000e+00 1.8446310e-05 0.0000000e+00 
0.0000000e+00 -3.1171217e-05 0.0000000e+00 
0.0000000e+00 -1.5527662e-04 0.0000000e+00 
0.0000000e+00 -4.0003177e-04 0.0000000e+00 
0.0000000e+00 -8.2558003e-04 0.0000000e+00 
0.0000000e+00 -1.4856213e-03 0.0000000e+00 
0.0000000e+00 -2.3858047e-03 0.0000000e+00 
0.0000000e+00 -3.3888298e-03 0.0000000e+00 
0.0000000e+00 -4.1336422e-03 0.0000000e+00 
0.0000000e+00 -4.1170428e-03 0.0000000e+00 
0.0000000e+00 -3.8832224e-03 0.0000000e+00 
0.0000000e+00 -3.8642997e-03 0.0000000e+00 
0.0000000e+00 -4.1085891e-03 0.0000000e+00 
0.0000000e+00 -4.1634962e-03 0.0000000e+00 
0.0000000e+00 -3.4782821e-03 0.0000000e+00 
0.0000000e+00 -2.4740924e-03 0.0000000e+00 
0.0000000e+00 -1.5773410e-03 0.0000000e+00 
0.0000000e+00 -9.0424088e-04 0.0000000e+00 
0.0000000e+00 -4.6511463e-04 0.0000000e+00 
0.0000000e+00 -2.0916000e-04 0.0000000e+00 
0.0000000e+00 -7.5982774e-05 0.0000000e+00 
0.0000000e+00 -1.8307730e-05 0.0000000e+00 
0.0000000e+00 -3.9861175e-06 0.0000000e+00 
0.0000000e+00 -9.5058194e-06 0.0000000e+00 
0.0000000e+00 -1.9311248e-05 0.0000000e+00 
0.0000000e+00 -2.5611960e-05 0.0000000e+00 
0.0000000e+00 -2.5444715e-05 0.0000000e+00 
0.0000000e+00 -2.0987365e-05 0.0000000e+00 
0.0000000e+00 -1.5996236e-05 0.0000000e+00 
0.0000000e+00 -1.2551674e-05 0.0000000e+00 
0.0000000e+00 -1.1274596e-05 0.0000000e+00 
0.0000000e+00 -1.0759886e-05 0.0000000e+00 
0.0000000e+00 -8.4485464e-06 0.0000000e+00 
0.0000000e+00 -1.6538309e-06 0.0000000e+00 
0.0000000e+00 1.2307534e-05 0.0000000e+00 
0.0000000e+00 3.5541772e-05 0.0000000e+00 
0.0000000e+00 7.0388996e-05 0.0000000e+00 
0.0000000e+00 1.1784216e-04 0.0000000e+00 
0.0000000e+00 1.7777015e-04 0.0000000e+00 
0.0000000e+00 2.4644259e-04 0.0000000e+00 
0.0000000e+00 3.1307142e-04 0.0000000e+00 
0.0000000e+00 3.4544134e-04 0.0000000e+00 
0.0000000e+00 2.8514198e-04 0.0000000e+00 
0.0000000e+00 4.1247640e-05 0.0000000e+00 
0.0000000e+00 -5.3714961e-04 0.0000000e+00 
0.0000000e+00 -1.6668115e-03 0.0000000e+00 
0.0000000e+00 -3.5523633e-03 0.0000000e+00 
0.0000000e+00 -6.3612256e-03 0.0000000e+00 
0.0000000e+00 -1.0236750e-02 0.0000000e+00 
0.0000000e+00 -1.5370466e-02 0.0000000e+00 
0.0000000e+00 -2.1461826e-02 0.0000000e+00 
0.0000000e+00 -2.7494669e-02 0.0000000e+00 
0.0000000e+00 -3.2324240e-02 0.0000000e+00 
0.0000000e+00 -3.4801595e-02 0.0000000e+00 
0.0000000e+00 -3.4294229e-02 0.0000000e+00 
0.0000000e+00 -3.1403527e-02 0.0000000e+00 
0.0000000e+00 -2.6886867e-02 0.0000000e+00 
0.0000000e+00 -2.1445330e-02 0.0000000e+00 
0.0000000e+00 -1.5694443e-02 0.0000000e+00 
0.0000000e+00 -1.0141380e-02 0.0000000e+00 
0.0000000e+00 -5.1708058e-03 0.0000000e+00 
0.0000000e+00 -1.0379396e-03 0.0000000e+00 
0.0000000e+00 2.1320677e-03 0.0000000e+00 
0.0000000e+00 4.3362686e-03 0.0000000e+00 
0.0000000e+00 5.6750225e-03 0.0000000e+00 
0.0000000e+00 6.3229729e-03 0.0000000e+00 
0.0000000e+00 6.4945733e-03 0.0000000e+00 
0.0000000e+00 6.4095077e-03 0.0000000e+00 
0.0000000e+00 6.2614176e-03 0.0000000e+00 
0.0000000e+00 6.1919042e-03 0.0000000e+00 
0.0000000e+00 3.3714145e-04 0.0000000e+00 
1.2208530e-05 4.4720789e-05 3.2269967e-05 
5.2032360e-06 3.0957104e-04 1.5738334e-04 
0.0000000e+00 0.0000000e+00 0.0000000e+00 
0.0000000e+00 0.0000000e+00 0.0000000e+00 
0.0000000e+00 0.0000000e+00 0.0000000e+00 
0.0000000e+00 0.0000000e+00 0.0000000e+00 
0.0000000e+00 0.0000000e+00 0.0000000e+00 
0.0000000e+00 0.0000000e+00 0.0000000e+00 
0.0000000e+00 0.0000000e+00 0.0000000e+00 
0.0000000e+00 0.0000000e+00 0.0000000e+00 
0.0000000e+00 0.0000000e+00 0.0000000e+00 
0.0000000e+00 0.0000000e+00 0.0000000e+00 
0.0000000e+00 0.0000000e+00 0.0000000e+00 
0.0000000e+00 0.0000000e+00 0.0000000e+00 
0.0000000e+00 0.0000000e+00 0.0000000e+00 
0.0000000e+00 0.0000000e+00 0.0000000e+00 
0.0000000e+00 0.0000000e+00 0.0000000e+00 
0.0000000e+00 0.0000000e+00 0.0000000e+00 
0.0000000e+00 0.0000000e+00 0.0000000e+00 
0.0000000e+00 0.0000000e+00 0.0000000e+00 
0.0000000e+00 0.0000000e+00 0.0000000e+00 
0.0000000e+00 0.0000000e+00 0.0000000e+00 
0.0000000e+00 0.0000000e+00 0.0000000e+00 
0.0000000e+00 0.0000000e+00 0.0000000e+00 
0.0000000e+00 0.0000000e+00 0.0000000e+00 
0.0000000e+00 0.0000000e+00 0.0000000e+00 
0.0000000e+00 0.0000000e+00 0.0000000e+00 
0.0000000e+00 0.0000000e+00 0.0000000e+00 
0.0000000e+00 0.0000000e+00 0.0000000e+00 
0.0000000e+00 0.0000000e+00 0.0000000e+00 
0.0000000e+00 0.0000000e+00 0.0000000e+00 
0.0000000e+00 0.0000000e+00 0.0000000e+00 
0.0000000e+00 0.0000000e+00 0.0000000e+00 
0.0000000e+00 0.0000000e+00 0.0000000e+00 
0.0000000e+00 0.0000000e+00 0.0000000e+00 
0.0000000e+00 0.0000000e+00 0.0000000e+00 
0.0000000e+00 0.0000000e+00 0.0000000e+00 
0.0000000e+00 0.0000000e+00 0.0000000e+00 
0.0000000e+00 0.0000000e+00 0.0000000e+00 
0.0000000e+00 0.0000000e+00 0.0000000e+00 
0.0000000e+00 0.0000000e+00 0.0000000e+00 
0.0000000e+00 0.0000000e+00 0.0000000e+00 
0.0000000e+00 0.0000000e+00 0.0000000e+00 
0.0000000e+00 0.0000000e+00 0.0000000e+00 
-1.0216008e-06 2.2865875e-06 7.3724260e-07 
-1.7316136e-06 2.8946022e-06 -1.7669640e-06 
2.4011581e-06 -6.8269264e-07 1.3699984e-06 
4.0493687e-06 -2.7324836e-06 4.2960778e-06 
-2.1734031e-06 -2.2649440e-06 6.7620067e-06 
-7.7274353e-06 4.1607279e-07 1.1514101e-06 
-2.5637073e-06 -5.1421620e-07 -7.2451990e-06 
1.1615737e-05 -3.8631279e-06 -1.1578891e-05 
3.4604764e-05 -6.0125280e-06 -1.2249957e-05 
5.0586870e-05 -5.0318254e-06 -3.4035743e-06 
4.5635716e-05 -6.0921857e-06 7.7445993e-06 
2.5767024e-05 -5.0978324e-06 4.4360054e-06 
8.3674640e-06 -2.0228247e-06 3.2301634e-06 
5.9993249e-07 -6.7128269e-07 3.1240390e-06 
-4.0173968e-06 -8.6966899e-08 4.0609957e-06 
-9.8569890e-06 1.6601180e-06 2.5785941e-06 
-8.5529582e-06 -3.1205776e-08 5.1777342e-06 
7.3289680e-06 4.4975950e-06 4.1350504e-06 
3.4643606e-05 1.8357047e-06 -6.5102045e-06 
0.0000000e+00 1.8786886e-05 0.0000000e+00 
0.0000000e+00 6.6435405e-06 0.0000000e+00 
0.0000000e+00 -2.2879018e-05 0.0000000e+00 
0.0000000e+00 -2.6087540e-05 0.0000000e+00 
0.0000000e+00 3.5589348e-06 0.0000000e+00 
0.0000000e+00 1.0887626e-05 0.0000000e+00 
0.0000000e+00 8.4035764e-06 0.0000000e+00 
0.0000000e+00 -2.8234212e-05 0.0000000e+00 
0.0000000e+00 -2.2702567e-04 0.0000000e+00 
0.0000000e+00 -5.1593792e-04 0.0000000e+00 
0.0000000e+00 -4.8840040e-04 0.0000000e+00 
0.0000000e+00 -1.8236499e-04 0.0000000e+00 
0.0000000e+00 -2.8966317e-05 0.0000000e+00 
0.0000000e+00 -3.1363170e-06 0.0000000e+00 
0.0000000e+00 -4.3505629e-06 0.0000000e+00 
0.0000000e+00 -7.3311357e-06 0.0000000e+00 
0.0000000e+00 2.8524861e-05 0.0000000e+00 
0.0000000e+00 5.5393768e-05 0.0000000e+00 
0.0000000e+00 -3.1642339e-04 0.0000000e+00 
2.8500706e-06 -6.1335081e-06 -2.4788690e-06 
1.3574323e-06 -1.4279604e-05 -6.6368311e-06 
1.0100996e-04 -1.0801099e-04 5.5182718e-05 
2.6639062e-04 -7.1440084e-04 7.5281197e-05 
1.3921423e-06 1.8362319e-06 -1.5801336e-06 
-1.7241430e-06 2.8873192e-06 8.4016278e-08 
7.1557309e-07 -2.5448006e-07 4.1960011e-06 
1.9152776e-06 -3.3459166e-06 6.3986618e-06 
-2.4284234e-06 -4.6406021e-06 6.2168115e-06 
-7.1035261e-06 8.1459285e-07 6.6404954e-07 
-3.3185206e-06 1.0712929e-06 -9.5300757e-06 
1.9194735e-05 -3.6793722e-06 -1.6089407e-05 
3.4459172e-05 -4.3621362e-06 -9.3122017e-06 
4.0475334e-05 -4.1191624e-06 -2.0152072e-06 
3.0366193e-05 -4.1265262e-06 1.0839696e-05 
1.3966676e-05 -1.8460464e-06 3.7910280e-07 
5.4791185e-06 -1.2444890e-06 1.9086526e-07 
-1.1201986e-06 -2.5445117e-06 2.8224367e-06 
-4.7002477e-06 -2.3079322e-06 4.1823700e-06 
-1.2270086e-05 1.7100601e-06 3.5917615e-06 
-3.7539403e-06 -1.2466381e-07 1.5408777e-06 
1.8324463e-05 5.0778413e-06 5.5807996e-06 
1.9899560e-05 1.6251151e-05 2.1695152e-05 
1.1816735e-07 -1.7344120e-05 -2.0374349e-05 
0.0000000e+00 3.6927988e-05 0.0000000e+00 
0.0000000e+00 1.2937992e-05 0.0000000e+00 
0.0000000e+00 -4.3859025e-05 0.0000000e+00 
0.0000000e+00 -4.7835336e-05 0.0000000e+00 
0.0000000e+00 8.5880265e-06 0.0000000e+00 
0.0000000e+00 2.0580206e-05 0.0000000e+00 
0.0000000e+00 1.5547044e-05 0.0000000e+00 
0.0000000e+00 -4.2561624e-05 0.0000000e+00 
0.0000000e+00 -4.7716085e-04 0.0000000e+00 
0.0000000e+00 -1.1534427e-03 0.0000000e+00 
0.0000000e+00 -1.0970652e-03 0.0000000e+00 
0.0000000e+00 -3.4469762e-04 0.0000000e+00 
0.0000000e+00 -3.8794144e-05 0.0000000e+00 
0.0000000e+00 -7.9235042e-06 0.0000000e+00 
0.0000000e+00 -6.9342859e-06 0.0000000e+00 
0.0000000e+00 -1.1227639e-05 0.0000000e+00 
0.0000000e+00 5.6446701e-05 0.0000000e+00 
0.0000000e+00 1.2558751e-04 0.0000000e+00 
0.0000000e+00 -4.9077580e-04 0.0000000e+00 
2.8762917e-04 -1.4849465e-03 2.5767219e-04 
1.4056932e-06 4.5632380e-05 -2.0272277e-05 
1.0554902e-05 5.6149961e-06 4.6561814e-05 
1.0221491e-05 -6.5766028e-05 4.8584428e-05 
-2.2064545e-05 -5.5953307e-05 3.0708113e-06 
-2.2210383e-05 2.0644627e-06 -2.1261101e-05 
3.5201092e-06 3.2646734e-05 -2.3904146e-05 
4.5308283e-05 2.7672147e-06 1.2527321e-05 
1.9233345e-05 1.2236499e-05 5.4346427e-05 
-2.8889833e-04 -4.5398143e-04 2.5011948e-04 
-6.8759237e-04 -1.2899425e-03 8.9454064e-05 
-6.0986471e-04 -1.3888102e-03 -8.4198233e-05 
-1.4773430e-04 -3.0296971e-04 -2.1250937e-04 
7.5452967e-06 -2.4497163e-05 -7.4789539e-05 
-1.8211744e-05 -2.7020404e-05 -2.2950719e-05 
-2.2151082e-05 -1.1479746e-05 -9.0392641e-06 
1.6408543e-06 3.6698034e-06 -5.4515702e-05 
6.8162379e-05 5.3571966e-05 -2.1313961e-05 
5.0528994e-05 1.6927253e-04 1.7774370e-04 
-4.2928127e-04 -4.3395351e-04 8.1059494e-04 
0.0000000e+00 5.2810887e-05 0.0000000e+00 
0.0000000e+00 1.8608640e-05 0.0000000e+00 
0.0000000e+00 -7.4976480e-05 0.0000000e+00 
0.0000000e+00 -6.6507702e-05 0.0000000e+00 
0.0000000e+00 1.5981475e-05 0.0000000e+00 
0.0000000e+00 2.8051752e-05 0.0000000e+00 
0.0000000e+00 1.9904704e-05 0.0000000e+00 
0.0000000e+00 -2.2650749e-05 0.0000000e+00 
0.0000000e+00 -8.9408125e-04 0.0000000e+00 
0.0000000e+00 -2.2684091e-03 0.0000000e+00 
0.0000000e+00 -2.1131041e-03 0.0000000e+00 
0.0000000e+00 -5.7594408e-04 0.0000000e+00 
0.0000000e+00 -2.3873568e-05 0.0000000e+00 
0.0000000e+00 -1.2162443e-05 0.0000000e+00 
0.0000000e+00 -9.9199797e-06 0.0000000e+00 
0.0000000e+00 -1.4144768e-05 0.0000000e+00 
0.0000000e+00 6.2878767e-05 0.0000000e+00 
0.0000000e+00 2.8323007e-04 0.0000000e+00 
0.0000000e+00 -9.4712665e-04 0.0000000e+00 
-2.9992889e-06 1.2423921e-05 -8.1774670e-06 
1.2359841e-07 2.5955378e-06 4.5737970e-06 
2.8664899e-06 -1.5728107e-05 1.2495563e-05 
-4.6141431e-06 -1.7579747e-05 6.3294447e-06 
-1.3687899e-05 -7.3906773e-07 2.3146556e-06 
-6.7512119e-06 8.9735977e-06 -4.1498652e-06 
1.0421818e-05 3.1423656e-06 -1.4298460e-06 
2.3802622e-05 1.8920273e-05 5.9126751e-06 
5.4797736e-05 -4.5935543e-05 -4.3445825e-06 
5.5893906e-05 -8.4593928e-05 -9.8708433e-06 
4.2757893e-05 -9.1259019e-05 8.0256523e-06 
3.8679318e-05 -6.2473504e-05 2.4696708e-06 
3.9425340e-06 -6.1361961e-06 -1.0313031e-05 
-9.6085778e-06 -6.8733725e-06 -8.6797700e-06 
-1.2349768e-05 -2.1196945e-06 -3.9909896e-06 
-1.0555606e-05 -2.8907973e-06 -1.5017964e-06 
8.2701054e-06 1.8299383e-05 5.8970204e-06 
5.2467181e-05 3.3486283e-06 5.3392007e-05 
3.1186497e-05 9.8742938e-05 1.2518514e-04 
0.0000000e+00 0.0000000e+00 0.0000000e+00 
0.0000000e+00 0.0000000e+00 0.0000000e+00 
0.0000000e+00 0.0000000e+00 0.0000000e+00 
0.0000000e+00 0.0000000e+00 0.0000000e+00 
0.0000000e+00 0.0000000e+00 0.0000000e+00 
0.0000000e+00 0.0000000e+00 0.0000000e+00 
0.0000000e+00 0.0000000e+00 0.0000000e+00 
0.0000000e+00 0.0000000e+00 0.0000000e+00 
0.0000000e+00 0.0000000e+00 0.0000000e+00 
0.0000000e+00 0.0000000e+00 0.0000000e+00 
0.0000000e+00 0.0000000e+00 0.0000000e+00 
0.0000000e+00 0.0000000e+00 0.0000000e+00 
0.0000000e+00 0.0000000e+00 0.0000000e+00 
0.0000000e+00 0.0000000e+00 0.0000000e+00 
0.0000000e+00 0.0000000e+00 0.0000000e+00 
0.0000000e+00 0.0000000e+00 0.0000000e+00 
0.0000000e+00 0.0000000e+00 0.0000000e+00 
0.0000000e+00 0.0000000e+00 0.0000000e+00 
0.0000000e+00 0.0000000e+00 0.0000000e+00 
0.0000000e+00 0.0000000e+00 0.0000000e+00 
0.0000000e+00 0.0000000e+00 0.0000000e+00 
0.0000000e+00 0.0000000e+00 0.0000000e+00 
0.0000000e+00 0.0000000e+00 0.0000000e+00 
0.0000000e+00 0.0000000e+00 0.0000000e+00 
0.0000000e+00 0.0000000e+00 0.0000000e+00 
0.0000000e+00 0.0000000e+00 0.0000000e+00 
0.0000000e+00 0.0000000e+00 0.0000000e+00 
0.0000000e+00 0.0000000e+00 0.0000000e+00 
0.0000000e+00 0.0000000e+00 0.0000000e+00 
0.0000000e+00 0.0000000e+00 0.0000000e+00 
0.0000000e+00 0.0000000e+00 0.0000000e+00 
0.0000000e+00 0.0000000e+00 0.0000000e+00 
0.0000000e+00 0.0000000e+00 0.0000000e+00 
0.0000000e+00 0.0000000e+00 0.0000000e+00 
0.0000000e+00 0.0000000e+00 0.0000000e+00 
0.0000000e+00 0.0000000e+00 0.0000000e+00 
0.0000000e+00 0.0000000e+00 0.0000000e+00 
0.0000000e+00 0.0000000e+00 0.0000000e+00 
0.0000000e+00 0.0000000e+00 0.0000000e+00 
0.0000000e+00 0.0000000e+00 0.0000000e+00 
0.0000000e+00 0.0000000e+00 0.0000000e+00 
0.0000000e+00 0.0000000e+00 0.0000000e+00 
5.5139611e-07 -2.6048241e-07 1.7662968e-06 
-2.7677534e-06 -5.2471864e-07 -1.8024081e-06 
2.4420137e-06 -1.4819632e-06 -3.3918786e-06 
2.1880369e-05 -9.1289612e-06 3.2650337e-06 
8.5938582e-06 -3.7196962e-06 1.6511779e-06 
2.1345952e-06 -1.0840959e-06 8.7086386e-07 
-4.9651715e-07 2.5045424e-07 3.1358636e-06 
-3.6979711e-06 8.2035780e-07 9.1939518e-07 