# vtk DataFile Version 4.0
vtk output
ASCII
DATASET UNSTRUCTURED_GRID
POINTS 662 float
0.0000000e+00 0.0000000e+00 0.0000000e+00 
0.0000000e+00 0.0000000e+00 4.0000000e+01 
5.0000000e+00 0.0000000e+00 0.0000000e+00 
5.0000000e+00 0.0000000e+00 4.0000000e+01 
5.0000000e+00 1.0000000e+00 0.0000000e+00 
5.0000000e+00 1.0000000e+00 4.0000000e+01 
0.0000000e+00 1.0000000e+00 0.0000000e+00 
0.0000000e+00 1.0000000e+00 4.0000000e+01 
5.0000000e+00 2.0000000e+00 0.0000000e+00 
5.0000000e+00 2.0000000e+00 4.0000000e+01 
3.0000000e+00 2.0000000e+00 0.0000000e+00 
3.0000000e+00 2.0000000e+00 4.0000000e+01 
0.0000000e+00 2.0000000e+00 0.0000000e+00 
0.0000000e+00 2.0000000e+00 4.0000000e+01 
1.5000000e+00 3.0000000e+00 0.0000000e+00 
1.5000000e+00 3.0000000e+00 4.0000000e+01 
7.5000000e-01 3.0000000e+00 0.0000000e+00 
7.5000000e-01 3.0000000e+00 4.0000000e+01 
0.0000000e+00 3.0000000e+00 0.0000000e+00 
0.0000000e+00 3.0000000e+00 4.0000000e+01 
7.5000000e-01 3.0000000e+00 5.0000000e-01 
7.5000000e-01 3.0000000e+00 1.0000000e+00 
7.5000000e-01 3.0000000e+00 1.5000000e+00 
7.5000000e-01 3.0000000e+00 2.0000000e+00 
7.5000000e-01 3.0000000e+00 2.5000000e+00 
7.5000000e-01 3.0000000e+00 3.0000000e+00 
7.5000000e-01 3.0000000e+00 3.5000000e+00 
7.5000000e-01 3.0000000e+00 4.0000000e+00 
7.5000000e-01 3.0000000e+00 4.5000000e+00 
7.5000000e-01 3.0000000e+00 5.0000000e+00 
7.5000000e-01 3.0000000e+00 5.5000000e+00 
7.5000000e-01 3.0000000e+00 6.0000000e+00 
7.5000000e-01 3.0000000e+00 6.5000000e+00 
7.5000000e-01 3.0000000e+00 7.0000000e+00 
7.5000000e-01 3.0000000e+00 7.5000000e+00 
7.5000000e-01 3.0000000e+00 8.0000000e+00 
7.5000000e-01 3.0000000e+00 8.5000000e+00 
7.5000000e-01 3.0000000e+00 9.0000000e+00 
7.5000000e-01 3.0000000e+00 9.5000000e+00 
7.5000000e-01 3.0000000e+00 1.0000000e+01 
7.5000000e-01 3.0000000e+00 1.0500000e+01 
7.5000000e-01 3.0000000e+00 1.1000000e+01 
7.5000000e-01 3.0000000e+00 1.1500000e+01 
7.5000000e-01 3.0000000e+00 1.2000000e+01 
7.5000000e-01 3.0000000e+00 1.2500000e+01 
7.5000000e-01 3.0000000e+00 1.3000000e+01 
7.5000000e-01 3.0000000e+00 1.3500000e+01 
7.5000000e-01 3.0000000e+00 1.4000000e+01 
7.5000000e-01 3.0000000e+00 1.4500000e+01 
7.5000000e-01 3.0000000e+00 1.5000000e+01 
7.5000000e-01 3.0000000e+00 1.5500000e+01 
7.5000000e-01 3.0000000e+00 1.6000000e+01 
7.5000000e-01 3.0000000e+00 1.6500000e+01 
7.5000000e-01 3.0000000e+00 1.7000000e+01 
7.5000000e-01 3.0000000e+00 1.7500000e+01 
7.5000000e-01 3.0000000e+00 1.8000000e+01 
7.5000000e-01 3.0000000e+00 1.8500000e+01 
7.5000000e-01 3.0000000e+00 1.9000000e+01 
7.5000000e-01 3.0000000e+00 1.9500000e+01 
7.5000000e-01 3.0000000e+00 2.0000000e+01 
7.5000000e-01 3.0000000e+00 2.0500000e+01 
7.5000000e-01 3.0000000e+00 2.1000000e+01 
7.5000000e-01 3.0000000e+00 2.1500000e+01 
7.5000000e-01 3.0000000e+00 2.2000000e+01 
7.5000000e-01 3.0000000e+00 2.2500000e+01 
7.5000000e-01 3.0000000e+00 2.3000000e+01 
7.5000000e-01 3.0000000e+00 2.3500000e+01 
7.5000000e-01 3.0000000e+00 2.4000000e+01 
7.5000000e-01 3.0000000e+00 2.4500000e+01 
7.5000000e-01 3.0000000e+00 2.5000000e+01 
7.5000000e-01 3.0000000e+00 2.5500000e+01 
7.5000000e-01 3.0000000e+00 2.6000000e+01 
7.5000000e-01 3.0000000e+00 2.6500000e+01 
7.5000000e-01 3.0000000e+00 2.7000000e+01 
7.5000000e-01 3.0000000e+00 2.7500000e+01 
7.5000000e-01 3.0000000e+00 2.8000000e+01 
7.5000000e-01 3.0000000e+00 2.8500000e+01 
7.5000000e-01 3.0000000e+00 2.9000000e+01 
7.5000000e-01 3.0000000e+00 2.9500000e+01 
7.5000000e-01 3.0000000e+00 3.0000000e+01 
7.5000000e-01 3.0000000e+00 3.0500000e+01 
7.5000000e-01 3.0000000e+00 3.1000000e+01 
7.5000000e-01 3.0000000e+00 3.1500000e+01 
7.5000000e-01 3.0000000e+00 3.2000000e+01 
7.5000000e-01 3.0000000e+00 3.2500000e+01 
7.5000000e-01 3.0000000e+00 3.3000000e+01 
7.5000000e-01 3.0000000e+00 3.3500000e+01 
7.5000000e-01 3.0000000e+00 3.4000000e+01 
7.5000000e-01 3.0000000e+00 3.4500000e+01 
7.5000000e-01 3.0000000e+00 3.5000000e+01 
7.5000000e-01 3.0000000e+00 3.5500000e+01 
7.5000000e-01 3.0000000e+00 3.6000000e+01 
7.5000000e-01 3.0000000e+00 3.6500000e+01 
7.5000000e-01 3.0000000e+00 3.7000000e+01 
7.5000000e-01 3.0000000e+00 3.7500000e+01 
7.5000000e-01 3.0000000e+00 3.8000000e+01 
7.5000000e-01 3.0000000e+00 3.8500000e+01 
7.5000000e-01 3.0000000e+00 3.9000000e+01 
7.5000000e-01 3.0000000e+00 3.9500000e+01 
7.5000000e-01 3.0000000e+00 4.0500000e+01 
7.5000000e-01 3.0000000e+00 4.1000000e+01 
7.5000000e-01 3.0000000e+00 4.1500000e+01 
7.5000000e-01 3.0000000e+00 4.2000000e+01 
7.5000000e-01 3.0000000e+00 4.2500000e+01 
7.5000000e-01 3.0000000e+00 4.3000000e+01 
7.5000000e-01 3.0000000e+00 4.3500000e+01 
7.5000000e-01 3.0000000e+00 4.4000000e+01 
7.5000000e-01 3.0000000e+00 4.4500000e+01 
7.5000000e-01 3.0000000e+00 4.5000000e+01 
7.5000000e-01 3.0000000e+00 4.5500000e+01 
7.5000000e-01 3.0000000e+00 4.6000000e+01 
7.5000000e-01 3.0000000e+00 4.6500000e+01 
7.5000000e-01 3.0000000e+00 4.7000000e+01 
7.5000000e-01 3.0000000e+00 4.7500000e+01 
7.5000000e-01 3.0000000e+00 4.8000000e+01 
7.5000000e-01 3.0000000e+00 4.8500000e+01 
7.5000000e-01 3.0000000e+00 4.9000000e+01 
7.5000000e-01 3.0000000e+00 4.9500000e+01 
7.5000000e-01 3.0000000e+00 5.0000000e+01 
7.5000000e-01 3.0250001e+00 0.0000000e+00 
7.5000000e-01 3.0250001e+00 5.0000000e-01 
7.5000000e-01 3.0250001e+00 1.0000000e+00 
7.5000000e-01 3.0250001e+00 1.5000000e+00 
7.5000000e-01 3.0250001e+00 2.0000000e+00 
7.5000000e-01 3.0250001e+00 2.5000000e+00 
7.5000000e-01 3.0250001e+00 3.0000000e+00 
7.5000000e-01 3.0250001e+00 3.5000000e+00 
7.5000000e-01 3.0250001e+00 4.0000000e+00 
7.5000000e-01 3.0250001e+00 4.5000000e+00 
7.5000000e-01 3.0250001e+00 5.0000000e+00 
7.5000000e-01 3.0250001e+00 5.5000000e+00 
7.5000000e-01 3.0250001e+00 6.0000000e+00 
7.5000000e-01 3.0250001e+00 6.5000000e+00 
7.5000000e-01 3.0250001e+00 7.0000000e+00 
7.5000000e-01 3.0250001e+00 7.5000000e+00 
7.5000000e-01 3.0250001e+00 8.0000000e+00 
7.5000000e-01 3.0250001e+00 8.5000000e+00 
7.5000000e-01 3.0250001e+00 9.0000000e+00 
7.5000000e-01 3.0250001e+00 9.5000000e+00 
7.5000000e-01 3.0250001e+00 1.0000000e+01 
7.5000000e-01 3.0250001e+00 1.0500000e+01 
7.5000000e-01 3.0250001e+00 1.1000000e+01 
7.5000000e-01 3.0250001e+00 1.1500000e+01 
7.5000000e-01 3.0250001e+00 1.2000000e+01 
7.5000000e-01 3.0250001e+00 1.2500000e+01 
7.5000000e-01 3.0250001e+00 1.3000000e+01 
7.5000000e-01 3.0250001e+00 1.3500000e+01 
7.5000000e-01 3.0250001e+00 1.4000000e+01 
7.5000000e-01 3.0250001e+00 1.4500000e+01 
7.5000000e-01 3.0250001e+00 1.5000000e+01 
7.5000000e-01 3.0250001e+00 1.5500000e+01 
7.5000000e-01 3.0250001e+00 1.6000000e+01 
7.5000000e-01 3.0250001e+00 1.6500000e+01 
7.5000000e-01 3.0250001e+00 1.7000000e+01 
7.5000000e-01 3.0250001e+00 1.7500000e+01 
7.5000000e-01 3.0250001e+00 1.8000000e+01 
7.5000000e-01 3.0250001e+00 1.8500000e+01 
7.5000000e-01 3.0250001e+00 1.9000000e+01 
7.5000000e-01 3.0250001e+00 1.9500000e+01 
7.5000000e-01 3.0250001e+00 2.0000000e+01 
7.5000000e-01 3.0250001e+00 2.0500000e+01 
7.5000000e-01 3.0250001e+00 2.1000000e+01 
7.5000000e-01 3.0250001e+00 2.1500000e+01 
7.5000000e-01 3.0250001e+00 2.2000000e+01 
7.5000000e-01 3.0250001e+00 2.2500000e+01 
7.5000000e-01 3.0250001e+00 2.3000000e+01 
7.5000000e-01 3.0250001e+00 2.3500000e+01 
7.5000000e-01 3.0250001e+00 2.4000000e+01 
7.5000000e-01 3.0250001e+00 2.4500000e+01 
7.5000000e-01 3.0250001e+00 2.5000000e+01 
7.5000000e-01 3.0250001e+00 2.5500000e+01 
7.5000000e-01 3.0250001e+00 2.6000000e+01 
7.5000000e-01 3.0250001e+00 2.6500000e+01 
7.5000000e-01 3.0250001e+00 2.7000000e+01 
7.5000000e-01 3.0250001e+00 2.7500000e+01 
7.5000000e-01 3.0250001e+00 2.8000000e+01 
7.5000000e-01 3.0250001e+00 2.8500000e+01 
7.5000000e-01 3.0250001e+00 2.9000000e+01 
7.5000000e-01 3.0250001e+00 2.9500000e+01 
7.5000000e-01 3.0250001e+00 3.0000000e+01 
7.5000000e-01 3.0250001e+00 3.0500000e+01 
7.5000000e-01 3.0250001e+00 3.1000000e+01 
7.5000000e-01 3.0250001e+00 3.1500000e+01 
7.5000000e-01 3.0250001e+00 3.2000000e+01 
7.5000000e-01 3.0250001e+00 3.2500000e+01 
7.5000000e-01 3.0250001e+00 3.3000000e+01 
7.5000000e-01 3.0250001e+00 3.3500000e+01 
7.5000000e-01 3.0250001e+00 3.4000000e+01 
7.5000000e-01 3.0250001e+00 3.4500000e+01 
7.5000000e-01 3.0250001e+00 3.5000000e+01 
7.5000000e-01 3.0250001e+00 3.5500000e+01 
7.5000000e-01 3.0250001e+00 3.6000000e+01 
7.5000000e-01 3.0250001e+00 3.6500000e+01 
7.5000000e-01 3.0250001e+00 3.7000000e+01 
7.5000000e-01 3.0250001e+00 3.7500000e+01 
7.5000000e-01 3.0250001e+00 3.8000000e+01 
7.5000000e-01 3.0250001e+00 3.8500000e+01 
7.5000000e-01 3.0250001e+00 3.9000000e+01 
7.5000000e-01 3.0250001e+00 3.9500000e+01 
7.5000000e-01 3.0250001e+00 4.0000000e+01 
7.5000000e-01 3.0250001e+00 4.0500000e+01 
7.5000000e-01 3.0250001e+00 4.1000000e+01 
7.5000000e-01 3.0250001e+00 4.1500000e+01 
7.5000000e-01 3.0250001e+00 4.2000000e+01 
7.5000000e-01 3.0250001e+00 4.2500000e+01 
7.5000000e-01 3.0250001e+00 4.3000000e+01 
7.5000000e-01 3.0250001e+00 4.3500000e+01 
7.5000000e-01 3.0250001e+00 4.4000000e+01 
7.5000000e-01 3.0250001e+00 4.4500000e+01 
7.5000000e-01 3.0250001e+00 4.5000000e+01 
7.5000000e-01 3.0250001e+00 4.5500000e+01 
7.5000000e-01 3.0250001e+00 4.6000000e+01 
7.5000000e-01 3.0250001e+00 4.6500000e+01 
7.5000000e-01 3.0250001e+00 4.7000000e+01 
7.5000000e-01 3.0250001e+00 4.7500000e+01 
7.5000000e-01 3.0250001e+00 4.8000000e+01 
7.5000000e-01 3.0250001e+00 4.8500000e+01 
7.5000000e-01 3.0250001e+00 4.9000000e+01 
7.5000000e-01 3.0250001e+00 4.9500000e+01 
7.5000000e-01 3.0250001e+00 5.0000000e+01 
7.5000000e-01 3.0250001e+00 3.5750000e+01 
3.0000000e+00 2.0000000e+00 3.6000000e+01 
8.0487806e-01 3.0000000e+00 3.6000000e+01 
0.0000000e+00 0.0000000e+00 2.0000000e+00 
0.0000000e+00 0.0000000e+00 4.0000000e+00 
0.0000000e+00 0.0000000e+00 6.0000000e+00 
0.0000000e+00 0.0000000e+00 8.0000000e+00 
0.0000000e+00 0.0000000e+00 1.0000000e+01 
0.0000000e+00 0.0000000e+00 1.2000000e+01 
0.0000000e+00 0.0000000e+00 1.4000000e+01 
[...]
POINT_DATA 662
FIELD FieldData 3
DISPLACEMENT 3 662  float
0.0000000e+00 0.0000000e+00 0.0000000e+00 
0.0000000e+00 0.0000000e+00 0.0000000e+00 
0.0000000e+00 0.0000000e+00 0.0000000e+00 
0.0000000e+00 0.0000000e+00 0.0000000e+00 
2.0133923e-05 -2.4104014e-05 -3.1878688e-05 
-1.5326691e-07 -6.8295458e-07 -2.7125166e-08 
0.0000000e+00 -9.3707975e-05 0.0000000e+00 
0.0000000e+00 -1.6078955e-06 0.0000000e+00 
2.5226131e-05 -3.2074753e-05 -5.6426237e-05 
-3.8362271e-07 -8.5641830e-07 9.2456128e-07 
6.0812017e-06 -2.8776460e-05 -3.9300139e-05 
-5.6851837e-07 -2.0372458e-06 3.3208832e-07 
0.0000000e+00 -1.1707121e-04 0.0000000e+00 
0.0000000e+00 -3.5716428e-06 0.0000000e+00 
3.4809800e-05 2.1883482e-06 7.5648139e-05 
-4.3233538e-07 -8.3494779e-06 -2.2714432e-06 
1.8561386e-05 3.5640249e-05 2.2667764e-04 
4.1769812e-07 -7.6937631e-06 -8.0178927e-07 
0.0000000e+00 -5.2180971e-05 0.0000000e+00 
0.0000000e+00 -6.7126489e-06 0.0000000e+00 
-4.2412419e-05 -4.5477744e-05 1.8708970e-04 
-6.7163717e-05 -2.8783819e-04 1.2513711e-04 
-8.9835303e-05 -7.1800611e-04 2.1335979e-04 
-1.0716137e-04 -1.3751338e-03 2.3867072e-04 
-1.8693958e-04 -2.2496935e-03 1.2617822e-04 
-2.2005485e-04 -3.2445828e-03 1.3498336e-04 
-1.1839385e-04 -4.0388349e-03 9.9936056e-05 
-8.5229520e-05 -4.0689413e-03 1.1846599e-04 
-2.2953744e-04 -3.9014677e-03 5.2811229e-05 
-3.0289713e-04 -3.9006707e-03 4.1443080e-05 
-2.0744873e-04 -4.1690860e-03 1.0224093e-05 
-6.4433501e-05 -4.2017088e-03 -4.9288305e-05 
-9.9736615e-05 -3.5075629e-03 -1.5902855e-04 
-2.0202291e-04 -2.4777034e-03 -1.9669152e-04 
-1.9409343e-04 -1.5870531e-03 -1.8799496e-04 
-7.2700539e-05 -9.1878162e-04 -1.1750573e-04 
-4.6267844e-05 -5.0481642e-04 -1.5469106e-04 
-4.0511077e-05 -2.7235868e-04 -1.3846951e-04 
-3.1240910e-05 -1.4956683e-04 -1.3516724e-04 
-3.5650148e-06 -7.6535543e-05 -1.2208470e-04 
1.8343733e-05 -1.5733200e-05 -8.8677138e-05 
3.1880205e-05 4.3858876e-05 -4.9593822e-05 
2.1654874e-05 9.9571051e-05 -1.5762183e-05 
4.7520052e-06 1.4029517e-04 1.5797305e-05 
8.3053180e-07 1.5507675e-04 1.7420811e-05 
-3.4499342e-06 1.4711225e-04 1.3567609e-05 
-3.4393020e-06 1.2372698e-04 -9.4202744e-07 
2.5817524e-06 9.3804301e-05 -2.5916042e-05 
4.6418074e-07 6.5768865e-05 -4.0720388e-05 
5.7915654e-06 4.0532112e-05 -4.2644508e-05 
6.7665724e-06 1.6898319e-05 -3.2558924e-05 
6.1158157e-06 -5.5730497e-06 -1.4606537e-05 
5.0187705e-06 -2.7882386e-05 1.3352350e-05 
9.0229169e-06 -4.9811570e-05 3.1923501e-05 
7.6321066e-06 -7.1551258e-05 4.6798104e-05 
-7.1159166e-06 -8.7840548e-05 6.0842409e-05 
-2.5013056e-05 -9.3234092e-05 4.9810686e-05 
-2.8969376e-05 -8.9089808e-05 3.8872120e-05 
-2.0324846e-05 -8.2133527e-05 2.8925802e-05 
-2.2640147e-06 -1.0343092e-04 1.3445153e-05 
-3.6707464e-05 -1.9880250e-04 3.1008702e-05 
-5.7902987e-05 -4.2142684e-04 5.5957760e-05 
-7.8517682e-05 -8.4284908e-04 9.2113558e-05 
-1.1868158e-04 -1.5023118e-03 4.2676485e-05 
-2.2827742e-04 -2.4080887e-03 1.5908752e-04 
-2.1802448e-04 -3.3478069e-03 1.6347997e-04 
-1.2636749e-04 -3.9650523e-03 1.3656789e-04 
-1.0876819e-04 -3.8631803e-03 1.8375122e-04 
-2.6062038e-04 -3.7094406e-03 1.1313125e-04 
-3.2162803e-04 -3.7791429e-03 9.4627816e-05 
-2.1274158e-04 -4.0950743e-03 4.3937009e-05 
-7.8276884e-05 -4.0583364e-03 -1.2866524e-05 
-1.0605112e-04 -3.3165566e-03 -1.4595831e-04 
-2.0151467e-04 -2.3356297e-03 -1.9884274e-04 
-1.8852908e-04 -1.5007468e-03 -2.1300840e-04 
-8.2700259e-05 -8.6924859e-04 -1.5683688e-04 
-4.7006059e-05 -4.6207101e-04 -1.8020814e-04 
-2.7504091e-05 -2.1751552e-04 -1.4395123e-04 
-1.7997801e-05 -7.9109283e-05 -1.2139721e-04 
9.5088180e-06 -8.6607434e-07 -9.4977811e-05 
2.4537438e-05 4.4540338e-05 -6.1865780e-05 
3.5946243e-05 7.3216186e-05 -2.4383364e-05 
2.3400764e-05 9.0749185e-05 8.5410447e-06 
6.4753035e-06 9.6225209e-05 3.3154483e-05 
-1.3713646e-06 8.5821142e-05 3.8756203e-05 
-8.0469617e-06 6.2990577e-05 3.2960757e-05 
-8.4608582e-06 3.4013836e-05 2.0103605e-05 
-5.1873626e-06 5.7483276e-06 3.4525237e-06 
-4.2159777e-06 -1.5084346e-05 -5.7299721e-06 
-2.2785196e-06 -2.7400672e-05 -1.2603798e-05 
2.3150869e-06 -2.9923351e-05 -1.5745665e-05 
1.1464811e-06 -2.3059540e-05 -1.0408007e-05 
1.6777398e-06 -8.8555707e-06 -3.9636329e-06 
1.7618479e-06 6.7953565e-06 2.5538709e-06 
-7.2563051e-07 1.5993952e-05 6.4738488e-06 
-6.4255590e-07 1.6001575e-05 5.1148986e-06 
-7.1103597e-07 8.6483551e-06 2.1128710e-06 
-5.5982503e-07 -9.3071571e-07 -1.3252122e-06 
-6.9409012e-08 -6.8178051e-06 -3.0146161e-06 
0.0000000e+00 -4.7548215e-06 0.0000000e+00 
0.0000000e+00 -5.6600982e-07 0.0000000e+00 
0.0000000e+00 2.3689661e-06 0.0000000e+00 
0.0000000e+00 3.1140373e-06 0.0000000e+00 
0.0000000e+00 2.3733280e-06 0.0000000e+00 
0.0000000e+00 1.4012232e-06 0.0000000e+00 
0.0000000e+00 8.3418195e-07 0.0000000e+00 
0.0000000e+00 4.3855178e-07 0.0000000e+00 
0.0000000e+00 -2.2931239e-07 0.0000000e+00 
0.0000000e+00 -1.1057236e-06 0.0000000e+00 
0.0000000e+00 -1.6079213e-06 0.0000000e+00 
0.0000000e+00 -1.2591569e-06 0.0000000e+00 
0.0000000e+00 -2.2772331e-07 0.0000000e+00 
0.0000000e+00 7.8337717e-07 0.0000000e+00 
0.0000000e+00 1.1473135e-06 0.0000000e+00 
0.0000000e+00 7.9892823e-07 0.0000000e+00 
0.0000000e+00 1.6952791e-07 0.0000000e+00 
0.0000000e+00 -2.7565844e-07 0.0000000e+00 
0.0000000e+00 -4.0739647e-07 0.0000000e+00 
0.0000000e+00 -4.0146026e-07 0.0000000e+00 
0.0000000e+00 3.5660632e-05 0.0000000e+00 
0.0000000e+00 -4.3901706e-05 0.0000000e+00 
0.0000000e+00 -2.8715818e-04 0.0000000e+00 
0.0000000e+00 -7.2031486e-04 0.0000000e+00 
0.0000000e+00 -1.3789467e-03 0.0000000e+00 
0.0000000e+00 -2.2622882e-03 0.0000000e+00 
0.0000000e+00 -3.2773467e-03 0.0000000e+00 
0.0000000e+00 -4.0632575e-03 0.0000000e+00 
0.0000000e+00 -4.1001611e-03 0.0000000e+00 
0.0000000e+00 -3.9155539e-03 0.0000000e+00 
0.0000000e+00 -3.9311643e-03 0.0000000e+00 
0.0000000e+00 -4.1892142e-03 0.0000000e+00 
0.0000000e+00 -4.2369566e-03 0.0000000e+00 
0.0000000e+00 -3.5261002e-03 0.0000000e+00 
0.0000000e+00 -2.4967045e-03 0.0000000e+00 
0.0000000e+00 -1.5894719e-03 0.0000000e+00 
0.0000000e+00 -9.2328730e-04 0.0000000e+00 
0.0000000e+00 -5.0475047e-04 0.0000000e+00 
0.0000000e+00 -2.7145891e-04 0.0000000e+00 
0.0000000e+00 -1.4837708e-04 0.0000000e+00 
0.0000000e+00 -7.5224641e-05 0.0000000e+00 
0.0000000e+00 -1.5079215e-05 0.0000000e+00 
0.0000000e+00 4.4268541e-05 0.0000000e+00 
0.0000000e+00 9.9545803e-05 0.0000000e+00 
0.0000000e+00 1.3955396e-04 0.0000000e+00 
0.0000000e+00 1.5489224e-04 0.0000000e+00 
0.0000000e+00 1.4711500e-04 0.0000000e+00 
0.0000000e+00 1.2381934e-04 0.0000000e+00 
0.0000000e+00 9.4247276e-05 0.0000000e+00 
0.0000000e+00 6.5928514e-05 0.0000000e+00 
0.0000000e+00 4.0542021e-05 0.0000000e+00 
0.0000000e+00 1.6902355e-05 0.0000000e+00 
0.0000000e+00 -5.7229668e-06 0.0000000e+00 
0.0000000e+00 -2.7969858e-05 0.0000000e+00 
0.0000000e+00 -5.0159200e-05 0.0000000e+00 
0.0000000e+00 -7.1537281e-05 0.0000000e+00 
0.0000000e+00 -8.7436078e-05 0.0000000e+00 
0.0000000e+00 -9.2902337e-05 0.0000000e+00 
0.0000000e+00 -8.7865781e-05 0.0000000e+00 
0.0000000e+00 -8.1408085e-05 0.0000000e+00 
0.0000000e+00 -1.0299138e-04 0.0000000e+00 
0.0000000e+00 -1.9783454e-04 0.0000000e+00 
0.0000000e+00 -4.2275814e-04 0.0000000e+00 
0.0000000e+00 -8.4475672e-04 0.0000000e+00 
0.0000000e+00 -1.5129526e-03 0.0000000e+00 
0.0000000e+00 -2.4169770e-03 0.0000000e+00 
0.0000000e+00 -3.3829992e-03 0.0000000e+00 
0.0000000e+00 -3.9891079e-03 0.0000000e+00 
0.0000000e+00 -3.8934299e-03 0.0000000e+00 
0.0000000e+00 -3.7230279e-03 0.0000000e+00 
0.0000000e+00 -3.8107599e-03 0.0000000e+00 
0.0000000e+00 -4.1163675e-03 0.0000000e+00 
0.0000000e+00 -4.0920507e-03 0.0000000e+00 
0.0000000e+00 -3.3327213e-03 0.0000000e+00 
0.0000000e+00 -2.3513674e-03 0.0000000e+00 
0.0000000e+00 -1.5024636e-03 0.0000000e+00 
0.0000000e+00 -8.7277999e-04 0.0000000e+00 
0.0000000e+00 -4.6181280e-04 0.0000000e+00 
0.0000000e+00 -2.1674439e-04 0.0000000e+00 
0.0000000e+00 -7.8112069e-05 0.0000000e+00 
0.0000000e+00 -2.5380189e-07 0.0000000e+00 
0.0000000e+00 4.5063418e-05 0.0000000e+00 
0.0000000e+00 7.3520037e-05 0.0000000e+00 
0.0000000e+00 9.0862304e-05 0.0000000e+00 
0.0000000e+00 9.5857926e-05 0.0000000e+00 
0.0000000e+00 8.5720974e-05 0.0000000e+00 
0.0000000e+00 6.3022453e-05 0.0000000e+00 
0.0000000e+00 3.4039331e-05 0.0000000e+00 
0.0000000e+00 6.0084126e-06 0.0000000e+00 
0.0000000e+00 -1.5092055e-05 0.0000000e+00 
0.0000000e+00 -2.7281241e-05 0.0000000e+00 
0.0000000e+00 -2.9843643e-05 0.0000000e+00 
0.0000000e+00 -2.2899036e-05 0.0000000e+00 
0.0000000e+00 -8.7896960e-06 0.0000000e+00 
0.0000000e+00 6.4774727e-06 0.0000000e+00 
0.0000000e+00 1.5761994e-05 0.0000000e+00 
0.0000000e+00 1.5879208e-05 0.0000000e+00 
0.0000000e+00 8.6683785e-06 0.0000000e+00 
0.0000000e+00 -6.6968414e-07 0.0000000e+00 
0.0000000e+00 -6.7089850e-06 0.0000000e+00 
0.0000000e+00 -7.6689885e-06 0.0000000e+00 
0.0000000e+00 -4.7835888e-06 0.0000000e+00 
0.0000000e+00 -6.4293442e-07 0.0000000e+00 
0.0000000e+00 2.3084626e-06 0.0000000e+00 
0.0000000e+00 3.1086934e-06 0.0000000e+00 
0.0000000e+00 2.4082970e-06 0.0000000e+00 
0.0000000e+00 1.4313675e-06 0.0000000e+00 
0.0000000e+00 8.3124513e-07 0.0000000e+00 
0.0000000e+00 4.1440140e-07 0.0000000e+00 
0.0000000e+00 -2.4250377e-07 0.0000000e+00 
0.0000000e+00 -1.0922130e-06 0.0000000e+00 
0.0000000e+00 -1.5822568e-06 0.0000000e+00 
0.0000000e+00 -1.2466550e-06 0.0000000e+00 
0.0000000e+00 -2.3740253e-07 0.0000000e+00 
0.0000000e+00 7.6416154e-07 0.0000000e+00 
0.0000000e+00 1.1357682e-06 0.0000000e+00 
0.0000000e+00 8.0014138e-07 0.0000000e+00 
0.0000000e+00 1.7662002e-07 0.0000000e+00 
0.0000000e+00 -2.7061779e-07 0.0000000e+00 
0.0000000e+00 -4.0654041e-07 0.0000000e+00 
0.0000000e+00 -4.0241079e-07 0.0000000e+00 
0.0000000e+00 -2.7559488e-05 0.0000000e+00 
-1.2349500e-06 -4.0456521e-06 -7.7902860e-07 
9.6059296e-07 -2.4673765e-05 -1.1261583e-05 
0.0000000e+00 0.0000000e+00 0.0000000e+00 
0.0000000e+00 0.0000000e+00 0.0000000e+00 
0.0000000e+00 0.0000000e+00 0.0000000e+00 
0.0000000e+00 0.0000000e+00 0.0000000e+00 
0.0000000e+00 0.0000000e+00 0.0000000e+00 
0.0000000e+00 0.0000000e+00 0.0000000e+00 
0.0000000e+00 0.0000000e+00 0.0000000e+00 
0.0000000e+00 0.0000000e+00 0.0000000e+00 
0.0000000e+00 0.0000000e+00 0.0000000e+00 
0.0000000e+00 0.0000000e+00 0.0000000e+00 
0.0000000e+00 0.0000000e+00 0.0000000e+00 
0.0000000e+00 0.0000000e+00 0.0000000e+00 
0.0000000e+00 0.0000000e+00 0.0000000e+00 
0.0000000e+00 0.0000000e+00 0.0000000e+00 
0.0000000e+00 0.0000000e+00 0.0000000e+00 
0.0000000e+00 0.0000000e+00 0.0000000e+00 
0.0000000e+00 0.0000000e+00 0.0000000e+00 
0.0000000e+00 0.0000000e+00 0.0000000e+00 
0.0000000e+00 0.0000000e+00 0.0000000e+00 
0.0000000e+00 0.0000000e+00 0.0000000e+00 
0.0000000e+00 0.0000000e+00 0.0000000e+00 
0.0000000e+00 0.0000000e+00 0.0000000e+00 
0.0000000e+00 0.0000000e+00 0.0000000e+00 
0.0000000e+00 0.0000000e+00 0.0000000e+00 
0.0000000e+00 0.0000000e+00 0.0000000e+00 
0.0000000e+00 0.0000000e+00 0.0000000e+00 
0.0000000e+00 0.0000000e+00 0.0000000e+00 
0.0000000e+00 0.0000000e+00 0.0000000e+00 
0.0000000e+00 0.0000000e+00 0.0000000e+00 
0.0000000e+00 0.0000000e+00 0.0000000e+00 
0.0000000e+00 0.0000000e+00 0.0000000e+00 
0.0000000e+00 0.0000000e+00 0.0000000e+00 
0.0000000e+00 0.0000000e+00 0.0000000e+00 
0.0000000e+00 0.0000000e+00 0.0000000e+00 
0.0000000e+00 0.0000000e+00 0.0000000e+00 
0.0000000e+00 0.0000000e+00 0.0000000e+00 
0.0000000e+00 0.0000000e+00 0.0000000e+00 
0.0000000e+00 0.0000000e+00 0.0000000e+00 
0.0000000e+00 0.0000000e+00 0.0000000e+00 
0.0000000e+00 0.0000000e+00 0.0000000e+00 
0.0000000e+00 0.0000000e+00 0.0000000e+00 
0.0000000e+00 0.0000000e+00 0.0000000e+00 
3.1889926e-05 -9.6966096e-07 -2.4287887e-05 
5.9233858e-05 -4.8314646e-06 -1.4613065e-05 
3.9710427e-05 -8.0100554e-06 -1.7381808e-07 
1.0901741e-05 -9.6295371e-06 6.8633983e-07 
4.1358994e-06 -8.3166869e-06 1.1341201e-05 
-7.2274293e-07 4.4141957e-06 8.6528908e-06 
8.0159889e-06 6.3511948e-06 -6.4584492e-06 
3.4061941e-06 -2.8642439e-06 -1.2790108e-05 
1.4587121e-06 -6.0818811e-06 -3.5045541e-06 
1.2462494e-05 -1.0022102e-05 -4.3712339e-06 
3.4317356e-05 -2.1436044e-06 -3.8889552e-06 
4.8332262e-05 -1.0677140e-06 5.2355466e-07 
3.6769070e-05 -7.0651249e-06 1.6912483e-06 
1.1801353e-05 -1.4454756e-05 2.7688129e-06 
6.7978476e-06 -9.2609383e-07 8.3431178e-06 
2.2594229e-06 3.4643174e-06 9.3071576e-06 
1.6243256e-07 -1.1543718e-06 1.6567492e-06 
-6.2387005e-07 -1.7201185e-06 -1.3216219e-06 
3.5796580e-07 1.0711460e-06 3.0480771e-07 
0.0000000e+00 -2.1467640e-04 0.0000000e+00 
0.0000000e+00 -4.8755275e-04 0.0000000e+00 
0.0000000e+00 -5.1077735e-04 0.0000000e+00 
0.0000000e+00 -1.8421796e-04 0.0000000e+00 
0.0000000e+00 -2.7411617e-05 0.0000000e+00 
0.0000000e+00 3.8336373e-05 0.0000000e+00 
0.0000000e+00 1.6276266e-05 0.0000000e+00 
0.0000000e+00 3.0353616e-05 0.0000000e+00 
0.0000000e+00 -2.4347015e-05 0.0000000e+00 
0.0000000e+00 -3.7122325e-05 0.0000000e+00 
0.0000000e+00 -1.9874262e-04 0.0000000e+00 
0.0000000e+00 -4.6997625e-04 0.0000000e+00 
0.0000000e+00 -5.2469748e-04 0.0000000e+00 
0.0000000e+00 -1.8926071e-04 0.0000000e+00 
0.0000000e+00 -3.2420667e-06 0.0000000e+00 
0.0000000e+00 3.0803709e-05 0.0000000e+00 
0.0000000e+00 -4.4655262e-06 0.0000000e+00 
0.0000000e+00 -2.8854276e-06 0.0000000e+00 
0.0000000e+00 1.3971113e-06 0.0000000e+00 
2.5403791e-05 -1.9337494e-05 -2.7593707e-05 
2.4376361e-05 -5.7597706e-05 -4.6221310e-05 
-2.1374868e-07 -8.5227578e-07 -2.3527394e-07 
-2.7559753e-07 -1.4427661e-06 -5.0418168e-07 
3.1187843e-05 4.7458043e-06 -3.5111600e-05 
5.3659605e-05 6.8410691e-06 -1.3203141e-05 
3.3720244e-05 -1.4688136e-06 -2.0651073e-07 
4.5591810e-06 -6.3102225e-06 -7.2299247e-07 
3.8635588e-07 -1.3554022e-05 6.6868506e-06 
3.6499712e-06 7.4980640e-06 2.7461508e-06 
1.3701273e-05 1.0971254e-05 -2.1709743e-06 
-1.1589607e-06 -5.0840326e-06 -7.2547359e-06 
-6.2203139e-06 -8.6111986e-06 -6.5098843e-06 
1.7883920e-05 -1.1810613e-05 -9.5161786e-06 
3.6175305e-05 4.8025089e-07 -4.0855298e-06 
4.7683432e-05 1.9784929e-06 2.9202681e-06 
2.6634374e-05 -3.2398275e-06 1.1209352e-05 
-6.0687677e-07 -1.7737453e-05 -2.1419821e-08 
1.8960974e-06 -3.0037575e-06 2.2156986e-07 
4.3450855e-06 4.1245626e-06 1.0136971e-05 
2.2500496e-06 -3.5346875e-07 4.1694275e-06 
-7.7749985e-07 -1.9432471e-06 -4.6555965e-07 
8.0687840e-08 1.0454891e-06 -4.8286626e-07 
7.8635530e-06 -8.7201879e-05 -4.2621185e-05 
0.0000000e+00 -4.6633699e-04 0.0000000e+00 
0.0000000e+00 -1.1083410e-03 0.0000000e+00 
0.0000000e+00 -1.1489181e-03 0.0000000e+00 
0.0000000e+00 -3.4901706e-04 0.0000000e+00 
0.0000000e+00 -5.1080511e-05 0.0000000e+00 
0.0000000e+00 8.0210928e-05 0.0000000e+00 
0.0000000e+00 3.4159519e-05 0.0000000e+00 
0.0000000e+00 4.3265620e-05 0.0000000e+00 
0.0000000e+00 -5.2560586e-05 0.0000000e+00 
0.0000000e+00 -6.3530068e-05 0.0000000e+00 
0.0000000e+00 -4.4619528e-04 0.0000000e+00 
0.0000000e+00 -1.0547155e-03 0.0000000e+00 
0.0000000e+00 -1.1430357e-03 0.0000000e+00 
0.0000000e+00 -3.5260577e-04 0.0000000e+00 
0.0000000e+00 -1.4010287e-06 0.0000000e+00 
0.0000000e+00 5.8966361e-05 0.0000000e+00 
0.0000000e+00 -9.4136831e-06 0.0000000e+00 
0.0000000e+00 -9.0266285e-06 0.0000000e+00 
0.0000000e+00 6.5216709e-06 0.0000000e+00 
-2.9513467e-07 -2.3807436e-06 -5.1574511e-07 
-3.2880224e-04 -4.3629334e-04 2.7138856e-04 
-6.2985468e-04 -1.3437066e-03 1.1572986e-04 
-6.0568401e-04 -1.3850876e-03 -1.0882157e-04 
-1.7498435e-04 -2.9847884e-04 -2.2292562e-04 
2.8301451e-06 -7.1262672e-05 -1.4336419e-04 
2.0390047e-05 8.9133915e-05 2.3079699e-06 
3.6553724e-06 7.3929274e-05 -8.1531025e-06 
5.6434906e-06 -2.6727379e-05 1.0059120e-05 
8.3475779e-06 -1.0061027e-04 6.1603772e-05 
-1.9039607e-06 -3.9643011e-05 3.4878634e-05 
-2.7640932e-04 -4.3750880e-04 2.1090388e-04 
-6.5253431e-04 -1.1451124e-03 1.5566540e-04 
-6.0513057e-04 -1.3303721e-03 -4.8363563e-05 
-1.6606183e-04 -3.2747438e-04 -2.7393707e-04 
1.4714834e-05 -1.0009648e-05 -1.3118729e-04 
1.7551434e-05 5.5780783e-05 4.5491171e-05 
-9.1832362e-06 8.0067039e-06 2.1837335e-05 
2.4795568e-09 -1.9927013e-05 -1.3888685e-05 
1.3585244e-06 1.3760391e-05 7.1526383e-06 
0.0000000e+00 -8.1574294e-04 0.0000000e+00 
0.0000000e+00 -2.2364783e-03 0.0000000e+00 
0.0000000e+00 -2.1808513e-03 0.0000000e+00 
0.0000000e+00 -5.8904581e-04 0.0000000e+00 
0.0000000e+00 -6.4809865e-05 0.0000000e+00 
0.0000000e+00 1.3166624e-04 0.0000000e+00 
0.0000000e+00 6.7562920e-05 0.0000000e+00 
0.0000000e+00 4.1057785e-05 0.0000000e+00 
0.0000000e+00 -1.0023884e-04 0.0000000e+00 
0.0000000e+00 -6.9746187e-05 0.0000000e+00 
0.0000000e+00 -8.7445875e-04 0.0000000e+00 
0.0000000e+00 -2.1277154e-03 0.0000000e+00 
0.0000000e+00 -2.1357001e-03 0.0000000e+00 
0.0000000e+00 -5.7546125e-04 0.0000000e+00 
0.0000000e+00 1.3578320e-05 0.0000000e+00 
0.0000000e+00 9.0228110e-05 0.0000000e+00 
0.0000000e+00 -1.0697552e-06 0.0000000e+00 
0.0000000e+00 -2.0006706e-05 0.0000000e+00 
0.0000000e+00 1.3095761e-05 0.0000000e+00 
3.1564443e-05 -1.8087192e-05 -1.4071745e-05 
7.1924609e-05 -1.1508488e-04 1.4314106e-05 
6.8634232e-05 -9.1394788e-05 1.0621044e-05 
2.5129057e-05 -5.7464345e-05 -1.1141904e-05 
-1.3483418e-05 -1.1675602e-05 -1.5448719e-05 
1.1878419e-05 2.1233494e-05 -4.3237119e-06 
9.0553976e-06 1.6856478e-05 -7.5680409e-06 
-4.3934501e-06 -2.0711090e-05 6.0155531e-07 
-7.4158438e-06 -3.8539434e-05 1.1687566e-05 
1.5547483e-05 -3.7615246e-06 6.5572272e-06 
5.9794711e-05 -3.0784126e-05 -1.3243326e-06 
7.6569224e-05 -3.9562510e-05 5.8615137e-06 
4.1414121e-05 -7.0995746e-05 1.7018940e-05 
2.1341742e-05 -6.6574088e-05 -1.6431059e-05 
-1.1024068e-05 -6.7118726e-06 -1.5911031e-05 
5.3392246e-06 1.3545774e-05 7.7454633e-06 
9.3959198e-07 2.8540596e-06 9.7311295e-06 
9.2448761e-07 2.9785765e-06 -9.0669482e-07 
2.1275146e-06 -1.4683213e-05 -7.7652376e-06 
0.0000000e+00 0.0000000e+00 0.0000000e+00 
0.0000000e+00 0.0000000e+00 0.0000000e+00 
0.0000000e+00 0.0000000e+00 0.0000000e+00 
0.0000000e+00 0.0000000e+00 0.0000000e+00 
0.0000000e+00 0.0000000e+00 0.0000000e+00 
0.0000000e+00 0.0000000e+00 0.0000000e+00 
0.0000000e+00 0.0000000e+00 0.0000000e+00 
0.0000000e+00 0.0000000e+00 0.0000000e+00 
0.0000000e+00 0.0000000e+00 0.0000000e+00 
0.0000000e+00 0.0000000e+00 0.0000000e+00 
0.0000000e+00 0.0000000e+00 0.0000000e+00 
0.0000000e+00 0.0000000e+00 0.0000000e+00 
0.0000000e+00 0.0000000e+00 0.0000000e+00 
0.0000000e+00 0.0000000e+00 0.0000000e+00 
0.0000000e+00 0.0000000e+00 0.0000000e+00 
0.0000000e+00 0.0000000e+00 0.0000000e+00 
0.0000000e+00 0.0000000e+00 0.0000000e+00 
0.0000000e+00 0.0000000e+00 0.0000000e+00 
0.0000000e+00 0.0000000e+00 0.0000000e+00 
0.0000000e+00 0.0000000e+00 0.0000000e+00 
0.0000000e+00 0.0000000e+00 0.0000000e+00 
0.0000000e+00 0.0000000e+00 0.0000000e+00 
0.0000000e+00 0.0000000e+00 0.0000000e+00 
0.0000000e+00 0.0000000e+00 0.0000000e+00 
0.0000000e+00 0.0000000e+00 0.0000000e+00 
0.0000000e+00 0.0000000e+00 0.0000000e+00 
0.0000000e+00 0.0000000e+00 0.0000000e+00 
0.0000000e+00 0.0000000e+00 0.0000000e+00 
0.0000000e+00 0.0000000e+00 0.0000000e+00 
0.0000000e+00 0.0000000e+00 0.0000000e+00 
0.0000000e+00 0.0000000e+00 0.0000000e+00 
0.0000000e+00 0.0000000e+00 0.0000000e+00 
0.0000000e+00 0.0000000e+00 0.0000000e+00 
0.0000000e+00 0.0000000e+00 0.0000000e+00 
0.0000000e+00 0.0000000e+00 0.0000000e+00 
0.0000000e+00 0.0000000e+00 0.0000000e+00 
0.0000000e+00 0.0000000e+00 0.0000000e+00 
0.0000000e+00 0.0000000e+00 0.0000000e+00 
0.0000000e+00 0.0000000e+00 0.0000000e+00 
0.0000000e+00 0.0000000e+00 0.0000000e+00 
0.0000000e+00 0.0000000e+00 0.0000000e+00 
0.0000000e+00 0.0000000e+00 0.0000000e+00 
1.4547046e-05 -9.1201073e-06 -1.2003149e-05 
1.2865584e-06 1.1835658e-06 1.0017252e-06 
3.0855804e-06 1.5378129e-07 -7.0802466e-06 
2.3347511e-05 -4.8970478e-06 -6.6066846e-08 
1.9344756e-05 -1.0696088e-05 7.3161692e-07 
1.5683419e-05 -1.0452147e-05 -5.0440053e-07 
5.2335154e-06 -4.5243546e-06 4.0886007e-06 