# vtk DataFile Version 4.0
vtk output
ASCII
DATASET UNSTRUCTURED_GRID
POINTS 622 float
0.0000000e+00 0.0000000e+00 0.0000000e+00 
0.0000000e+00 0.0000000e+00 4.0000000e+01 
5.0000000e+00 0.0000000e+00 0.0000000e+00 
5.0000000e+00 0.0000000e+00 4.0000000e+01 
5.0000000e+00 1.0000000e+00 0.0000000e+00 
5.0000000e+00 1.0000000e+00 4.0000000e+01 
0.0000000e+00 1.0000000e+00 0.0000000e+00 
0.0000000e+00 1.0000000e+00 4.0000000e+01 
5.0000000e+00 2.0000000e+00 0.0000000e+00 
5.0000000e+00 2.0000000e+00 4.0000000e+01 
3.0000000e+00 2.0000000e+00 0.0000000e+00 
3.0000000e+00 2.0000000e+00 4.0000000e+01 
0.0000000e+00 2.0000000e+00 0.0000000e+00 
0.0000000e+00 2.0000000e+00 4.0000000e+01 
1.5000000e+00 3.0000000e+00 0.0000000e+00 
1.5000000e+00 3.0000000e+00 4.0000000e+01 
7.5000000e-01 3.0000000e+00 0.0000000e+00 
7.5000000e-01 3.0000000e+00 4.0000000e+01 
0.0000000e+00 3.0000000e+00 0.0000000e+00 
0.0000000e+00 3.0000000e+00 4.0000000e+01 
7.5000000e-01 3.0000000e+00 5.0000000e-01 
7.5000000e-01 3.0000000e+00 1.0000000e+00 
7.5000000e-01 3.0000000e+00 1.5000000e+00 
7.5000000e-01 3.0000000e+00 2.0000000e+00 
7.5000000e-01 3.0000000e+00 2.5000000e+00 
7.5000000e-01 3.0000000e+00 3.0000000e+00 
7.5000000e-01 3.0000000e+00 3.5000000e+00 
7.5000000e-01 3.0000000e+00 4.0000000e+00 
7.5000000e-01 3.0000000e+00 4.5000000e+00 
7.5000000e-01 3.0000000e+00 5.0000000e+00 
7.5000000e-01 3.0000000e+00 5.5000000e+00 
7.5000000e-01 3.0000000e+00 6.0000000e+00 
7.5000000e-01 3.0000000e+00 6.5000000e+00 
7.5000000e-01 3.0000000e+00 7.0000000e+00 
7.5000000e-01 3.0000000e+00 7.5000000e+00 
7.5000000e-01 3.0000000e+00 8.0000000e+00 
7.5000000e-01 3.0000000e+00 8.5000000e+00 
7.5000000e-01 3.0000000e+00 9.0000000e+00 
7.5000000e-01 3.0000000e+00 9.5000000e+00 
7.5000000e-01 3.0000000e+00 1.0000000e+01 
7.5000000e-01 3.0000000e+00 1.0500000e+01 
7.5000000e-01 3.0000000e+00 1.1000000e+01 
7.5000000e-01 3.0000000e+00 1.1500000e+01 
7.5000000e-01 3.0000000e+00 1.2000000e+01 
7.5000000e-01 3.0000000e+00 1.2500000e+01 
7.5000000e-01 3.0000000e+00 1.3000000e+01 
7.5000000e-01 3.0000000e+00 1.3500000e+01 
7.5000000e-01 3.0000000e+00 1.4000000e+01 
7.5000000e-01 3.0000000e+00 1.4500000e+01 
7.5000000e-01 3.0000000e+00 1.5000000e+01 
7.5000000e-01 3.0000000e+00 1.5500000e+01 
7.5000000e-01 3.0000000e+00 1.6000000e+01 
7.5000000e-01 3.0000000e+00 1.6500000e+01 
7.5000000e-01 3.0000000e+00 1.7000000e+01 
7.5000000e-01 3.0000000e+00 1.7500000e+01 
7.5000000e-01 3.0000000e+00 1.8000000e+01 
7.5000000e-01 3.0000000e+00 1.8500000e+01 
7.5000000e-01 3.0000000e+00 1.9000000e+01 
7.5000000e-01 3.0000000e+00 1.9500000e+01 
7.5000000e-01 3.0000000e+00 2.0000000e+01 
7.5000000e-01 3.0000000e+00 2.0500000e+01 
7.5000000e-01 3.0000000e+00 2.1000000e+01 
7.5000000e-01 3.0000000e+00 2.1500000e+01 
7.5000000e-01 3.0000000e+00 2.2000000e+01 
7.5000000e-01 3.0000000e+00 2.2500000e+01 
7.5000000e-01 3.0000000e+00 2.3000000e+01 
7.5000000e-01 3.0000000e+00 2.3500000e+01 
7.5000000e-01 3.0000000e+00 2.4000000e+01 
7.5000000e-01 3.0000000e+00 2.4500000e+01 
7.5000000e-01 3.0000000e+00 2.5000000e+01 
7.5000000e-01 3.0000000e+00 2.5500000e+01 
7.5000000e-01 3.0000000e+00 2.6000000e+01 
7.5000000e-01 3.0000000e+00 2.6500000e+01 
7.5000000e-01 3.0000000e+00 2.7000000e+01 
7.5000000e-01 3.0000000e+00 2.7500000e+01 
7.5000000e-01 3.0000000e+00 2.8000000e+01 
7.5000000e-01 3.0000000e+00 2.8500000e+01 
7.5000000e-01 3.0000000e+00 2.9000000e+01 
7.5000000e-01 3.0000000e+00 2.9500000e+01 
7.5000000e-01 3.0000000e+00 3.0000000e+01 
7.5000000e-01 3.0000000e+00 3.0500000e+01 
7.5000000e-01 3.0000000e+00 3.1000000e+01 
7.5000000e-01 3.0000000e+00 3.1500000e+01 
7.5000000e-01 3.0000000e+00 3.2000000e+01 
7.5000000e-01 3.0000000e+00 3.2500000e+01 
7.5000000e-01 3.0000000e+00 3.3000000e+01 
7.5000000e-01 3.0000000e+00 3.3500000e+01 
7.5000000e-01 3.0000000e+00 3.4000000e+01 
7.5000000e-01 3.0000000e+00 3.4500000e+01 
7.5000000e-01 3.0000000e+00 3.5000000e+01 
7.5000000e-01 3.0000000e+00 3.5500000e+01 
7.5000000e-01 3.0000000e+00 3.6000000e+01 
7.5000000e-01 3.0000000e+00 3.6500000e+01 
7.5000000e-01 3.0000000e+00 3.7000000e+01 
7.5000000e-01 3.0000000e+00 3.7500000e+01 
7.5000000e-01 3.0000000e+00 3.8000000e+01 
7.5000000e-01 3.0000000e+00 3.8500000e+01 
7.5000000e-01 3.0000000e+00 3.9000000e+01 
7.5000000e-01 3.0000000e+00 3.9500000e+01 
7.5000000e-01 3.0250001e+00 0.0000000e+00 
7.5000000e-01 3.0250001e+00 5.0000000e-01 
7.5000000e-01 3.0250001e+00 1.0000000e+00 
7.5000000e-01 3.0250001e+00 1.5000000e+00 
7.5000000e-01 3.0250001e+00 2.0000000e+00 
7.5000000e-01 3.0250001e+00 2.5000000e+00 
7.5000000e-01 3.0250001e+00 3.0000000e+00 
7.5000000e-01 3.0250001e+00 3.5000000e+00 
7.5000000e-01 3.0250001e+00 4.0000000e+00 
7.5000000e-01 3.0250001e+00 4.5000000e+00 
7.5000000e-01 3.0250001e+00 5.0000000e+00 
7.5000000e-01 3.0250001e+00 5.5000000e+00 
7.5000000e-01 3.0250001e+00 6.0000000e+00 
7.5000000e-01 3.0250001e+00 6.5000000e+00 
7.5000000e-01 3.0250001e+00 7.0000000e+00 
7.5000000e-01 3.0250001e+00 7.5000000e+00 
7.5000000e-01 3.0250001e+00 8.0000000e+00 
7.5000000e-01 3.0250001e+00 8.5000000e+00 
7.5000000e-01 3.0250001e+00 9.0000000e+00 
7.5000000e-01 3.0250001e+00 9.5000000e+00 
7.5000000e-01 3.0250001e+00 1.0000000e+01 
7.5000000e-01 3.0250001e+00 1.0500000e+01 
7.5000000e-01 3.0250001e+00 1.1000000e+01 
7.5000000e-01 3.0250001e+00 1.1500000e+01 
7.5000000e-01 3.0250001e+00 1.2000000e+01 
7.5000000e-01 3.0250001e+00 1.2500000e+01 
7.5000000e-01 3.0250001e+00 1.3000000e+01 
7.5000000e-01 3.0250001e+00 1.3500000e+01 
7.5000000e-01 3.0250001e+00 1.4000000e+01 
7.5000000e-01 3.0250001e+00 1.4500000e+01 
7.5000000e-01 3.0250001e+00 1.5000000e+01 
7.5000000e-01 3.0250001e+00 1.5500000e+01 
7.5000000e-01 3.0250001e+00 1.6000000e+01 
7.5000000e-01 3.0250001e+00 1.6500000e+01 
7.5000000e-01 3.0250001e+00 1.7000000e+01 
7.5000000e-01 3.0250001e+00 1.7500000e+01 
7.5000000e-01 3.0250001e+00 1.8000000e+01 
7.5000000e-01 3.0250001e+00 1.8500000e+01 
7.5000000e-01 3.0250001e+00 1.9000000e+01 
7.5000000e-01 3.0250001e+00 1.9500000e+01 
7.5000000e-01 3.0250001e+00 2.0000000e+01 
7.5000000e-01 3.0250001e+00 2.0500000e+01 
7.5000000e-01 3.0250001e+00 2.1000000e+01 
7.5000000e-01 3.0250001e+00 2.1500000e+01 
7.5000000e-01 3.0250001e+00 2.2000000e+01 
7.5000000e-01 3.0250001e+00 2.2500000e+01 
7.5000000e-01 3.0250001e+00 2.3000000e+01 
7.5000000e-01 3.0250001e+00 2.3500000e+01 
7.5000000e-01 3.0250001e+00 2.4000000e+01 
7.5000000e-01 3.0250001e+00 2.4500000e+01 
7.5000000e-01 3.0250001e+00 2.5000000e+01 
7.5000000e-01 3.0250001e+00 2.5500000e+01 
7.5000000e-01 3.0250001e+00 2.6000000e+01 
7.5000000e-01 3.0250001e+00 2.6500000e+01 
7.5000000e-01 3.0250001e+00 2.7000000e+01 
7.5000000e-01 3.0250001e+00 2.7500000e+01 
7.5000000e-01 3.0250001e+00 2.8000000e+01 
7.5000000e-01 3.0250001e+00 2.8500000e+01 
7.5000000e-01 3.0250001e+00 2.9000000e+01 
7.5000000e-01 3.0250001e+00 2.9500000e+01 
7.5000000e-01 3.0250001e+00 3.0000000e+01 
7.5000000e-01 3.0250001e+00 3.0500000e+01 
7.5000000e-01 3.0250001e+00 3.1000000e+01 
7.5000000e-01 3.0250001e+00 3.1500000e+01 
7.5000000e-01 3.0250001e+00 3.2000000e+01 
7.5000000e-01 3.0250001e+00 3.2500000e+01 
7.5000000e-01 3.0250001e+00 3.3000000e+01 
7.5000000e-01 3.0250001e+00 3.3500000e+01 
7.5000000e-01 3.0250001e+00 3.4000000e+01 
7.5000000e-01 3.0250001e+00 3.4500000e+01 
7.5000000e-01 3.0250001e+00 3.5000000e+01 
7.5000000e-01 3.0250001e+00 3.5500000e+01 
7.5000000e-01 3.0250001e+00 3.6000000e+01 
7.5000000e-01 3.0250001e+00 3.6500000e+01 
7.5000000e-01 3.0250001e+00 3.7000000e+01 
7.5000000e-01 3.0250001e+00 3.7500000e+01 
7.5000000e-01 3.0250001e+00 3.8000000e+01 
7.5000000e-01 3.0250001e+00 3.8500000e+01 
7.5000000e-01 3.0250001e+00 3.9000000e+01 
7.5000000e-01 3.0250001e+00 3.9500000e+01 
7.5000000e-01 3.0250001e+00 4.0000000e+01 
7.5000000e-01 3.0250001e+00 3.5750000e+01 
3.0000000e+00 2.0000000e+00 3.6000000e+01 
8.0487806e-01 3.0000000e+00 3.6000000e+01 
0.0000000e+00 0.0000000e+00 2.0000000e+00 
0.0000000e+00 0.0000000e+00 4.0000000e+00 
0.0000000e+00 0.0000000e+00 6.0000000e+00 
0.0000000e+00 0.0000000e+00 8.0000000e+00 
0.0000000e+00 0.0000000e+00 1.0000000e+01 
0.0000000e+00 0.0000000e+00 1.2000000e+01 
0.0000000e+00 0.0000000e+00 1.4000000e+01 
0.0000000e+00 0.0000000e+00 1.6000000e+01 
0.0000000e+00 0.0000000e+00 1.8000000e+01 
0.0000000e+00 0.0000000e+00 2.0000000e+01 
0.0000000e+00 0.0000000e+00 2.2000000e+01 
0.0000000e+00 0.0000000e+00 2.4000000e+01 
0.0000000e+00 0.0000000e+00 2.6000000e+01 
0.0000000e+00 0.0000000e+00 2.8000000e+01 
0.0000000e+00 0.0000000e+00 3.0000000e+01 
0.0000000e+00 0.0000000e+00 3.2000000e+01 
0.0000000e+00 0.0000000e+00 3.4000000e+01 
0.0000000e+00 0.0000000e+00 3.6000000e+01 
0.0000000e+00 0.0000000e+00 3.8000000e+01 
5.0000000e+00 0.0000000e+00 2.0000000e+00 
5.0000000e+00 0.0000000e+00 4.0000000e+00 
5.0000000e+00 0.0000000e+00 6.0000000e+00 
5.0000000e+00 0.0000000e+00 8.0000000e+00 
5.0000000e+00 0.0000000e+00 1.0000000e+01 
5.0000000e+00 0.0000000e+00 1.2000000e+01 
5.0000000e+00 0.0000000e+00 1.4000000e+01 
5.0000000e+00 0.0000000e+00 1.6000000e+01 
5.0000000e+00 0.0000000e+00 1.8000000e+01 
5.0000000e+00 0.0000000e+00 2.0000000e+01 
5.0000000e+00 0.0000000e+00 2.2000000e+01 
5.0000000e+00 0.0000000e+00 2.4000000e+01 
5.0000000e+00 0.0000000e+00 2.6000000e+01 
5.0000000e+00 0.0000000e+00 2.8000000e+01 
5.0000000e+00 0.0000000e+00 3.0000000e+01 
5.0000000e+00 0.0000000e+00 3.2000000e+01 
5.0000000e+00 0.0000000e+00 3.4000000e+01 
5.0000000e+00 0.0000000e+00 3.6000000e+01 
5.0000000e+00 0.0000000e+00 3.8000000e+01 
1.6666666e+00 0.0000000e+00 0.0000000e+00 
3.3333333e+00 0.0000000e+00 0.0000000e+00 
1.6666666e+00 0.0000000e+00 4.0000000e+01 
3.3333333e+00 0.0000000e+00 4.0000000e+01 
5.0000000e+00 1.0000000e+00 2.0000000e+00 
5.0000000e+00 1.0000000e+00 4.0000000e+00 
5.0000000e+00 1.0000000e+00 6.0000000e+00 
5.0000000e+00 1.0000000e+00 8.0000000e+00 
5.0000000e+00 1.0000000e+00 1.0000000e+01 
[...]
POINT_DATA 622
FIELD FieldData 3
DISPLACEMENT 3 622  float
0.0000000e+00 0.0000000e+00 0.0000000e+00 
0.0000000e+00 0.0000000e+00 0.0000000e+00 
0.0000000e+00 0.0000000e+00 0.0000000e+00 
0.0000000e+00 0.0000000e+00 0.0000000e+00 
5.8975161e-07 -1.3014144e-06 1.5660543e-06 
-1.2249686e-07 -2.7403212e-06 -2.1793642e-06 
0.0000000e+00 1.3819784e-05 0.0000000e+00 
0.0000000e+00 2.5617319e-05 0.0000000e+00 
2.6976920e-06 -3.0372134e-06 -9.0168562e-08 
1.2992170e-06 -7.1666800e-06 5.5999508e-06 
-3.7608802e-07 5.1265083e-06 3.8387689e-06 
-2.0083676e-06 -2.8812122e-08 2.9170824e-06 
0.0000000e+00 2.6480078e-05 0.0000000e+00 
0.0000000e+00 5.4033011e-05 0.0000000e+00 
6.6358375e-06 3.2423974e-05 2.7202062e-05 
2.2425816e-05 4.5120792e-05 1.8368974e-05 
3.0015928e-05 5.4278247e-05 3.5237630e-05 
1.8273273e-05 1.4419516e-04 7.7529066e-06 
0.0000000e+00 3.6815785e-05 0.0000000e+00 
0.0000000e+00 8.8319452e-05 0.0000000e+00 
-6.5982799e-06 5.2307689e-05 5.7286775e-06 
-1.5177438e-05 4.7940615e-05 -6.4575629e-06 
-1.6938506e-05 4.2630312e-05 -1.4775517e-05 
-1.4959482e-05 3.7616319e-05 -2.4376828e-05 
-8.9895748e-06 3.4840512e-05 -3.1307674e-05 
-5.2725854e-06 3.5752233e-05 -3.5261404e-05 
5.3263607e-06 4.1686551e-05 -4.9472248e-05 
1.7505254e-05 5.4159755e-05 -6.0163955e-05 
2.4566825e-05 7.4115240e-05 -5.5774020e-05 
3.0395417e-05 9.9642246e-05 -4.4426906e-05 
3.5450386e-05 1.2891731e-04 -3.5990233e-05 
4.5672932e-05 1.6047183e-04 -2.3679653e-05 
5.8537880e-05 1.9173023e-04 -1.0605634e-05 
6.3137224e-05 2.1554576e-04 7.6566057e-06 
4.9473878e-05 2.1909081e-04 3.6651276e-05 
2.7246148e-05 1.7376771e-04 6.7983230e-05 
-1.6092203e-05 3.7825354e-05 1.0922635e-04 
-2.7549146e-05 -2.2992474e-04 1.4900925e-04 
-5.5185559e-05 -6.9304445e-04 2.0748742e-04 
-1.1418213e-04 -1.3952357e-03 1.6284603e-04 
-2.6839817e-04 -2.3565730e-03 2.4674964e-04 
-2.8211490e-04 -3.3969127e-03 2.2507671e-04 
-1.8081184e-04 -4.2081154e-03 1.6409936e-04 
-1.5653903e-04 -4.2326269e-03 1.6823161e-04 
-2.9139459e-04 -4.0368140e-03 8.4099440e-05 
-3.5934438e-04 -3.9909799e-03 4.9656690e-05 
-2.4766373e-04 -4.2074705e-03 5.2094324e-06 
-9.5693133e-05 -4.2035654e-03 -4.2893214e-05 
-1.2168953e-04 -3.5077501e-03 -1.4370003e-04 
-2.1275756e-04 -2.4869742e-03 -1.7704658e-04 
-2.0353512e-04 -1.5882024e-03 -1.8170531e-04 
-7.9591824e-05 -8.9279818e-04 -1.3246437e-04 
-4.1359272e-05 -4.3634858e-04 -1.7180668e-04 
-2.6841442e-05 -1.6063219e-04 -1.4333590e-04 
-1.7463593e-05 -1.0449647e-05 -1.2393321e-04 
5.6100034e-06 6.0414914e-05 -9.8920136e-05 
1.9640422e-05 8.0646372e-05 -6.5370506e-05 
2.6113850e-05 7.4844742e-05 -3.6190333e-05 
1.8451470e-05 5.9514823e-05 -2.9215267e-05 
1.0385793e-05 4.2293766e-05 -3.3066553e-05 
2.0964349e-06 2.7332448e-05 -3.8894417e-05 
3.0757141e-07 1.2503119e-05 -3.9363778e-05 
-6.8723793e-06 -4.9672185e-06 -2.7609076e-05 
-1.8011333e-05 -2.4030791e-05 -8.6012806e-06 
-1.7729049e-05 -4.2107058e-05 1.0507597e-05 
-1.7978968e-05 -5.3948788e-05 2.0403781e-05 
-1.5404428e-05 -5.3920685e-05 2.1933070e-05 
-1.0144885e-05 -3.8630085e-05 1.7003351e-05 
2.7937454e-06 -5.0780327e-06 -6.9460366e-06 
7.8261246e-06 4.1818825e-05 -3.0705047e-05 
2.5720636e-05 9.6673029e-05 -5.7127443e-05 
4.7437294e-05 1.5135002e-04 -7.3758820e-05 
5.7617010e-05 1.9851555e-04 -6.4712716e-05 
6.6252869e-05 2.2900704e-04 -3.8674803e-05 
5.2766980e-05 2.2959641e-04 -5.4109996e-06 
3.1504132e-05 1.7376161e-04 3.4295575e-05 
-1.1666513e-05 1.8180732e-05 9.1956223e-05 
-2.2413908e-05 -2.7886959e-04 1.4394992e-04 
-4.6963611e-05 -7.8147108e-04 2.0306776e-04 
-1.0849881e-04 -1.5243677e-03 1.5009382e-04 
-2.6080114e-04 -2.5108270e-03 2.3132903e-04 
-2.7511717e-04 -3.5229072e-03 1.9884059e-04 
-1.7388762e-04 -4.1947342e-03 1.3074857e-04 
-1.3307230e-04 -4.1233771e-03 1.3748422e-04 
-2.7089583e-04 -3.9682118e-03 6.2636784e-05 
-3.2912259e-04 -4.0089609e-03 3.9148599e-05 
-2.1505587e-04 -4.2738016e-03 -1.0577099e-06 
-7.7801866e-05 -4.1698990e-03 -2.2182163e-05 
-1.1798889e-04 -3.3525750e-03 -1.4660550e-04 
-2.1829433e-04 -2.2975784e-03 -1.8716672e-04 
-2.1937695e-04 -1.3997012e-03 -1.9893618e-04 
-1.3086792e-04 -7.2339358e-04 -1.7278700e-04 
-5.5262466e-05 -2.9085064e-04 -1.6938883e-04 
-3.3082866e-05 -3.7695339e-05 -1.4076394e-04 
-2.4870003e-05 9.5957716e-05 -1.2645950e-04 
6.5356275e-08 1.5454977e-04 -1.0758352e-04 
1.5736268e-05 1.6860000e-04 -7.4560485e-05 
2.7782142e-05 1.6110338e-04 -4.2792672e-05 
2.2841865e-05 1.4930643e-04 -1.8229463e-05 
0.0000000e+00 5.4213728e-05 0.0000000e+00 
0.0000000e+00 5.2351032e-05 0.0000000e+00 
0.0000000e+00 4.7963324e-05 0.0000000e+00 
0.0000000e+00 4.2586846e-05 0.0000000e+00 
0.0000000e+00 3.7625461e-05 0.0000000e+00 
0.0000000e+00 3.4841778e-05 0.0000000e+00 
0.0000000e+00 3.5743273e-05 0.0000000e+00 
0.0000000e+00 4.1726096e-05 0.0000000e+00 
0.0000000e+00 5.4312321e-05 0.0000000e+00 
0.0000000e+00 7.4121024e-05 0.0000000e+00 
0.0000000e+00 9.9632416e-05 0.0000000e+00 
0.0000000e+00 1.2898185e-04 0.0000000e+00 
0.0000000e+00 1.6070224e-04 0.0000000e+00 
0.0000000e+00 1.9206581e-04 0.0000000e+00 
0.0000000e+00 2.1646848e-04 0.0000000e+00 
0.0000000e+00 2.1982839e-04 0.0000000e+00 
0.0000000e+00 1.7385784e-04 0.0000000e+00 
0.0000000e+00 3.9033599e-05 0.0000000e+00 
0.0000000e+00 -2.3058917e-04 0.0000000e+00 
0.0000000e+00 -6.9452258e-04 0.0000000e+00 
0.0000000e+00 -1.4048284e-03 0.0000000e+00 
0.0000000e+00 -2.3643237e-03 0.0000000e+00 
0.0000000e+00 -3.4294724e-03 0.0000000e+00 
0.0000000e+00 -4.2325323e-03 0.0000000e+00 
0.0000000e+00 -4.2633773e-03 0.0000000e+00 
0.0000000e+00 -4.0507191e-03 0.0000000e+00 
0.0000000e+00 -4.0209317e-03 0.0000000e+00 
0.0000000e+00 -4.2267526e-03 0.0000000e+00 
0.0000000e+00 -4.2369254e-03 0.0000000e+00 
0.0000000e+00 -3.5253204e-03 0.0000000e+00 
0.0000000e+00 -2.5047068e-03 0.0000000e+00 
0.0000000e+00 -1.5903584e-03 0.0000000e+00 
0.0000000e+00 -8.9682674e-04 0.0000000e+00 
0.0000000e+00 -4.3618909e-04 0.0000000e+00 
0.0000000e+00 -1.5985216e-04 0.0000000e+00 
0.0000000e+00 -9.4870138e-06 0.0000000e+00 
0.0000000e+00 6.0635652e-05 0.0000000e+00 
0.0000000e+00 8.1064311e-05 0.0000000e+00 
0.0000000e+00 7.5338903e-05 0.0000000e+00 
0.0000000e+00 5.9706126e-05 0.0000000e+00 
0.0000000e+00 4.2576175e-05 0.0000000e+00 
0.0000000e+00 2.7346521e-05 0.0000000e+00 
0.0000000e+00 1.2297938e-05 0.0000000e+00 
0.0000000e+00 -5.0324570e-06 0.0000000e+00 
0.0000000e+00 -2.4138350e-05 0.0000000e+00 
0.0000000e+00 -4.2130421e-05 0.0000000e+00 
0.0000000e+00 -5.3849279e-05 0.0000000e+00 
0.0000000e+00 -5.3904976e-05 0.0000000e+00 
0.0000000e+00 -3.8254602e-05 0.0000000e+00 
0.0000000e+00 -5.0499561e-06 0.0000000e+00 
0.0000000e+00 4.1948260e-05 0.0000000e+00 
0.0000000e+00 9.6648619e-05 0.0000000e+00 
0.0000000e+00 1.5143014e-04 0.0000000e+00 
0.0000000e+00 1.9874873e-04 0.0000000e+00 
0.0000000e+00 2.2977139e-04 0.0000000e+00 
0.0000000e+00 2.3051853e-04 0.0000000e+00 
0.0000000e+00 1.7388808e-04 0.0000000e+00 
0.0000000e+00 1.9419558e-05 0.0000000e+00 
0.0000000e+00 -2.8001479e-04 0.0000000e+00 
0.0000000e+00 -7.8342465e-04 0.0000000e+00 
0.0000000e+00 -1.5350594e-03 0.0000000e+00 
0.0000000e+00 -2.5199393e-03 0.0000000e+00 
0.0000000e+00 -3.5580136e-03 0.0000000e+00 
0.0000000e+00 -4.2188438e-03 0.0000000e+00 
0.0000000e+00 -4.1530030e-03 0.0000000e+00 
0.0000000e+00 -3.9817491e-03 0.0000000e+00 
0.0000000e+00 -4.0406361e-03 0.0000000e+00 
0.0000000e+00 -4.2951931e-03 0.0000000e+00 
0.0000000e+00 -4.2037768e-03 0.0000000e+00 
0.0000000e+00 -3.3688431e-03 0.0000000e+00 
0.0000000e+00 -2.3137627e-03 0.0000000e+00 
0.0000000e+00 -1.4013432e-03 0.0000000e+00 
0.0000000e+00 -7.2676659e-04 0.0000000e+00 
0.0000000e+00 -2.9088373e-04 0.0000000e+00 
0.0000000e+00 -3.6638889e-05 0.0000000e+00 
0.0000000e+00 9.6739241e-05 0.0000000e+00 
0.0000000e+00 1.5493618e-04 0.0000000e+00 
0.0000000e+00 1.6891911e-04 0.0000000e+00 
0.0000000e+00 1.6146869e-04 0.0000000e+00 
0.0000000e+00 1.4967639e-04 0.0000000e+00 
0.0000000e+00 1.4442782e-04 0.0000000e+00 
0.0000000e+00 -1.0308563e-03 0.0000000e+00 
2.4293309e-05 -4.3039970e-05 -4.2026969e-07 
-1.0742798e-04 -6.5127562e-04 -1.4939487e-04 
0.0000000e+00 0.0000000e+00 0.0000000e+00 
0.0000000e+00 0.0000000e+00 0.0000000e+00 
0.0000000e+00 0.0000000e+00 0.0000000e+00 
0.0000000e+00 0.0000000e+00 0.0000000e+00 
0.0000000e+00 0.0000000e+00 0.0000000e+00 
0.0000000e+00 0.0000000e+00 0.0000000e+00 
0.0000000e+00 0.0000000e+00 0.0000000e+00 
0.0000000e+00 0.0000000e+00 0.0000000e+00 
0.0000000e+00 0.0000000e+00 0.0000000e+00 
0.0000000e+00 0.0000000e+00 0.0000000e+00 
0.0000000e+00 0.0000000e+00 0.0000000e+00 
0.0000000e+00 0.0000000e+00 0.0000000e+00 
0.0000000e+00 0.0000000e+00 0.0000000e+00 
0.0000000e+00 0.0000000e+00 0.0000000e+00 
0.0000000e+00 0.0000000e+00 0.0000000e+00 
0.0000000e+00 0.0000000e+00 0.0000000e+00 
0.0000000e+00 0.0000000e+00 0.0000000e+00 
0.0000000e+00 0.0000000e+00 0.0000000e+00 
0.0000000e+00 0.0000000e+00 0.0000000e+00 
0.0000000e+00 0.0000000e+00 0.0000000e+00 
0.0000000e+00 0.0000000e+00 0.0000000e+00 
0.0000000e+00 0.0000000e+00 0.0000000e+00 
0.0000000e+00 0.0000000e+00 0.0000000e+00 
0.0000000e+00 0.0000000e+00 0.0000000e+00 
0.0000000e+00 0.0000000e+00 0.0000000e+00 
0.0000000e+00 0.0000000e+00 0.0000000e+00 
0.0000000e+00 0.0000000e+00 0.0000000e+00 
0.0000000e+00 0.0000000e+00 0.0000000e+00 
0.0000000e+00 0.0000000e+00 0.0000000e+00 
0.0000000e+00 0.0000000e+00 0.0000000e+00 
0.0000000e+00 0.0000000e+00 0.0000000e+00 
0.0000000e+00 0.0000000e+00 0.0000000e+00 
0.0000000e+00 0.0000000e+00 0.0000000e+00 
0.0000000e+00 0.0000000e+00 0.0000000e+00 
0.0000000e+00 0.0000000e+00 0.0000000e+00 
0.0000000e+00 0.0000000e+00 0.0000000e+00 
0.0000000e+00 0.0000000e+00 0.0000000e+00 
0.0000000e+00 0.0000000e+00 0.0000000e+00 
0.0000000e+00 0.0000000e+00 0.0000000e+00 
0.0000000e+00 0.0000000e+00 0.0000000e+00 
0.0000000e+00 0.0000000e+00 0.0000000e+00 
0.0000000e+00 0.0000000e+00 0.0000000e+00 
-3.1759791e-06 3.1151609e-07 3.8227836e-07 
-7.2184757e-06 3.3107298e-07 -3.9943566e-06 
-2.4701621e-06 3.4761013e-07 -9.8310593e-06 
8.2161214e-06 -1.1973736e-06 -9.1611628e-06 
3.0943367e-05 -5.2508335e-06 -1.1100473e-05 
5.1985568e-05 -6.3499215e-06 -1.6805872e-08 
4.5768014e-05 -5.4286124e-06 1.2181803e-05 
2.2399392e-05 -4.4985586e-06 7.9265683e-06 
8.0105674e-06 -1.0843446e-06 3.0111564e-06 
2.0101279e-06 2.2018146e-07 2.1387557e-06 
-2.8964007e-06 -3.7769585e-06 4.1960661e-06 
-6.4154196e-06 -1.9513946e-06 9.8257249e-07 
-6.4064939e-06 4.3350205e-06 -1.1255981e-06 
5.5576138e-06 -5.7738487e-07 -8.2858023e-06 
3.2633918e-05 -9.6078656e-06 -1.1067417e-05 
5.4762182e-05 -1.0168292e-05 8.8777296e-07 
5.6361547e-05 -1.1256737e-05 1.3969448e-05 
2.2072240e-05 -6.7832812e-06 1.2965314e-05 
-5.2485834e-06 5.9878530e-06 -4.9137776e-07 
0.0000000e+00 1.4540250e-05 0.0000000e+00 
0.0000000e+00 2.0767156e-05 0.0000000e+00 
0.0000000e+00 5.6083580e-05 0.0000000e+00 
0.0000000e+00 3.6293477e-05 0.0000000e+00 
0.0000000e+00 -2.0152314e-04 0.0000000e+00 
0.0000000e+00 -5.7587976e-04 0.0000000e+00 
0.0000000e+00 -5.4199621e-04 0.0000000e+00 
0.0000000e+00 -1.8395661e-04 0.0000000e+00 
0.0000000e+00 4.6106838e-06 0.0000000e+00 
0.0000000e+00 7.5354505e-06 0.0000000e+00 
0.0000000e+00 -6.8249151e-06 0.0000000e+00 
0.0000000e+00 -1.7239632e-05 0.0000000e+00 
0.0000000e+00 5.4908069e-05 0.0000000e+00 
0.0000000e+00 3.9158542e-05 0.0000000e+00 
0.0000000e+00 -2.1069730e-04 0.0000000e+00 
0.0000000e+00 -5.6170946e-04 0.0000000e+00 
0.0000000e+00 -5.3373678e-04 0.0000000e+00 
0.0000000e+00 -1.6234595e-04 0.0000000e+00 
0.0000000e+00 3.4831450e-05 0.0000000e+00 
-2.1660717e-06 1.7794874e-06 -1.3343239e-07 
-1.6905528e-06 8.7873377e-06 2.5066047e-06 
-2.4414205e-06 -1.5661191e-06 1.6798818e-06 
-6.7747042e-06 1.5742613e-05 -1.0018125e-05 
-2.1022781e-06 -4.7699717e-07 5.9773043e-07 
-6.1736464e-06 7.6044086e-07 -5.2977539e-06 
1.4846637e-06 3.8445685e-07 -1.4244639e-05 
2.2384240e-05 -3.6373588e-06 -1.5050279e-05 
3.2718406e-05 -3.9954894e-06 -7.6501840e-07 
3.1662348e-05 -3.8798994e-06 6.5311528e-06 
1.7663606e-05 -8.3229315e-07 1.3355488e-05 
6.3660150e-06 4.0571184e-08 3.0361716e-07 
8.2445540e-06 -4.2229760e-07 -9.6808492e-07 
2.4313292e-06 -1.3002987e-06 4.0619348e-06 
-3.6843012e-06 -7.1841464e-06 6.4224064e-06 
-7.3951151e-06 -2.5396264e-06 -3.3015542e-06 
-2.3013331e-06 5.4520524e-06 -7.2823150e-06 
2.2524162e-05 -1.8001983e-06 -8.1847511e-06 
3.5359459e-05 -9.1760730e-06 -5.0416514e-07 
3.9496921e-05 -8.6733917e-06 7.0640135e-06 
3.1749205e-05 -8.4314261e-06 1.6438860e-05 
1.0142536e-05 -6.6470204e-07 -6.2757661e-09 
-4.7815297e-06 5.6061685e-06 -2.1437618e-06 
-1.3862707e-06 1.7429082e-05 6.4931905e-06 
0.0000000e+00 2.7839187e-05 0.0000000e+00 
0.0000000e+00 3.4276440e-05 0.0000000e+00 
0.0000000e+00 9.5769654e-05 0.0000000e+00 
0.0000000e+00 8.1549857e-05 0.0000000e+00 
0.0000000e+00 -4.2827797e-04 0.0000000e+00 
0.0000000e+00 -1.2655259e-03 0.0000000e+00 
0.0000000e+00 -1.1900144e-03 0.0000000e+00 
0.0000000e+00 -3.4580156e-04 0.0000000e+00 
0.0000000e+00 2.2822314e-05 0.0000000e+00 
0.0000000e+00 1.2037861e-05 0.0000000e+00 
0.0000000e+00 -9.7647853e-06 0.0000000e+00 
0.0000000e+00 -3.4573663e-05 0.0000000e+00 
0.0000000e+00 1.0497808e-04 0.0000000e+00 
0.0000000e+00 8.3418869e-05 0.0000000e+00 
0.0000000e+00 -4.6015417e-04 0.0000000e+00 
0.0000000e+00 -1.2385263e-03 0.0000000e+00 
0.0000000e+00 -1.1549710e-03 0.0000000e+00 
0.0000000e+00 -2.9497617e-04 0.0000000e+00 
0.0000000e+00 7.8192206e-05 0.0000000e+00 
-2.0335942e-06 3.2982334e-05 -1.6162692e-05 
-1.2461839e-05 2.2891869e-05 -1.0820249e-05 
1.7863758e-05 2.8163471e-05 -8.4336483e-05 
7.0555259e-05 9.2114169e-05 -3.1284217e-05 
5.4055454e-05 1.4612571e-04 1.1104312e-04 
-2.7028625e-04 -4.0562710e-04 3.7590152e-04 
-7.1717374e-04 -1.4124688e-03 1.8343223e-04 
-6.3403969e-04 -1.4764870e-03 -1.1420423e-04 
-1.6180307e-04 -2.9956331e-04 -2.6090353e-04 
1.6120832e-05 3.3896002e-05 -1.2130899e-04 
1.4877872e-05 2.2172646e-05 -2.6644357e-05 
-2.4061997e-05 -2.4340410e-05 1.2848906e-05 
-1.4980526e-05 -3.3891334e-05 2.2401604e-08 
7.4267984e-05 7.2380521e-05 -1.0107463e-04 
5.7158672e-05 1.6052560e-04 8.4383850e-05 
-2.8429148e-04 -4.4515170e-04 3.6591667e-04 
-6.7426887e-04 -1.3433761e-03 1.3324150e-04 
-6.2095310e-04 -1.4347021e-03 -9.6677912e-05 
-1.4025386e-04 -2.9687473e-04 -2.4129778e-04 
8.9694067e-06 8.9078385e-05 -1.3819325e-04 
0.0000000e+00 4.3715048e-05 0.0000000e+00 
0.0000000e+00 4.0891675e-05 0.0000000e+00 
0.0000000e+00 1.3577365e-04 0.0000000e+00 
0.0000000e+00 1.6641979e-04 0.0000000e+00 
0.0000000e+00 -8.1401959e-04 0.0000000e+00 
0.0000000e+00 -2.4342535e-03 0.0000000e+00 
0.0000000e+00 -2.2314037e-03 0.0000000e+00 
0.0000000e+00 -5.7400845e-04 0.0000000e+00 
0.0000000e+00 6.4604545e-05 0.0000000e+00 
0.0000000e+00 2.0328098e-05 0.0000000e+00 
0.0000000e+00 -1.2600442e-05 0.0000000e+00 
0.0000000e+00 -5.7363526e-05 0.0000000e+00 
0.0000000e+00 1.5339436e-04 0.0000000e+00 
0.0000000e+00 1.6049738e-04 0.0000000e+00 
0.0000000e+00 -8.9813315e-04 0.0000000e+00 
0.0000000e+00 -2.4032160e-03 0.0000000e+00 
0.0000000e+00 -2.1805849e-03 0.0000000e+00 
0.0000000e+00 -4.5561884e-04 0.0000000e+00 
0.0000000e+00 1.4433909e-04 0.0000000e+00 
-7.3438378e-06 1.8157523e-06 -3.0556262e-06 
-4.1100557e-06 7.0016363e-06 -1.6816886e-05 
1.1091857e-05 2.3474942e-05 -6.0410994e-06 
2.5530271e-05 5.1689247e-05 2.1422584e-05 
5.4881988e-05 -4.0353865e-05 1.6948203e-05 
5.1547071e-05 -1.1159234e-04 5.9576450e-06 
3.9723040e-05 -1.2005083e-04 1.0866788e-05 
3.1393160e-05 -6.7246583e-05 -3.9479355e-06 
5.1147545e-06 7.5847993e-06 -2.5607818e-05 
-2.7781306e-07 2.5669990e-06 -1.5472928e-05 
-1.6858190e-05 -6.5246227e-06 -1.0691762e-06 
-9.9892377e-06 -7.4655386e-06 -5.8978444e-06 
9.5987125e-06 1.9671234e-05 -8.6622513e-06 
1.7628678e-05 5.2705400e-05 1.2403358e-05 
5.9834081e-05 -4.3231797e-05 1.3882564e-05 
6.5454216e-05 -1.0118062e-04 8.7056806e-06 
4.8923055e-05 -1.1158971e-04 2.3209763e-05 
-6.8691470e-06 1.4682745e-05 -2.3439650e-05 
-3.0400026e-05 -2.3438978e-04 -1.1362533e-04 
0.0000000e+00 0.0000000e+00 0.0000000e+00 
0.0000000e+00 0.0000000e+00 0.0000000e+00 
0.0000000e+00 0.0000000e+00 0.0000000e+00 
0.0000000e+00 0.0000000e+00 0.0000000e+00 
0.0000000e+00 0.0000000e+00 0.0000000e+00 
0.0000000e+00 0.0000000e+00 0.0000000e+00 
0.0000000e+00 0.0000000e+00 0.0000000e+00 
0.0000000e+00 0.0000000e+00 0.0000000e+00 
0.0000000e+00 0.0000000e+00 0.0000000e+00 
0.0000000e+00 0.0000000e+00 0.0000000e+00 
0.0000000e+00 0.0000000e+00 0.0000000e+00 
0.0000000e+00 0.0000000e+00 0.0000000e+00 
0.0000000e+00 0.0000000e+00 0.0000000e+00 
0.0000000e+00 0.0000000e+00 0.0000000e+00 
0.0000000e+00 0.0000000e+00 0.0000000e+00 
0.0000000e+00 0.0000000e+00 0.0000000e+00 
0.0000000e+00 0.0000000e+00 0.0000000e+00 
0.0000000e+00 0.0000000e+00 0.0000000e+00 
0.0000000e+00 0.0000000e+00 0.0000000e+00 
0.0000000e+00 0.0000000e+00 0.0000000e+00 
0.0000000e+00 0.0000000e+00 0.0000000e+00 
0.0000000e+00 0.0000000e+00 0.0000000e+00 
0.0000000e+00 0.0000000e+00 0.0000000e+00 
0.0000000e+00 0.0000000e+00 0.0000000e+00 
0.0000000e+00 0.0000000e+00 0.0000000e+00 
0.0000000e+00 0.0000000e+00 0.0000000e+00 
0.0000000e+00 0.0000000e+00 0.0000000e+00 
0.0000000e+00 0.0000000e+00 0.0000000e+00 
0.0000000e+00 0.0000000e+00 0.0000000e+00 
0.0000000e+00 0.0000000e+00 0.0000000e+00 
0.0000000e+00 0.0000000e+00 0.0000000e+00 
0.0000000e+00 0.0000000e+00 0.0000000e+00 
0.0000000e+00 0.0000000e+00 0.0000000e+00 
0.0000000e+00 0.0000000e+00 0.0000000e+00 
0.0000000e+00 0.0000000e+00 0.0000000e+00 
0.0000000e+00 0.0000000e+00 0.0000000e+00 
0.0000000e+00 0.0000000e+00 0.0000000e+00 
0.0000000e+00 0.0000000e+00 0.0000000e+00 
0.0000000e+00 0.0000000e+00 0.0000000e+00 
0.0000000e+00 0.0000000e+00 0.0000000e+00 
0.0000000e+00 0.0000000e+00 0.0000000e+00 
0.0000000e+00 0.0000000e+00 0.0000000e+00 
-9.1552175e-07 1.6912622e-08 6.7829609e-07 
2.5543030e-05 -8.0325954e-06 4.1919466e-06 
7.5780977e-06 -3.2541329e-06 2.9954376e-06 
-2.8366742e-06 -1.2973910e-06 1.1465562e-06 
-3.9854385e-06 9.7538111e-07 6.0744031e-07 
-2.4968704e-06 2.2518773e-06 -1.2451283e-06 
7.3693932e-06 -6.9907946e-06 -6.7381234e-06 
2.7098704e-05 -1.0731554e-05 -2.4406625e-06 
2.8886094e-05 -1.1959630e-05 3.7561663e-06 
2.6594031e-05 -1.0300915e-05 7.6294600e-06 
4.7546609e-06 -1.7918763e-06 5.4879620e-06 
-3.1121131e-06 1.9077095e-06 -2.1519174e-06 
-2.8302186e-06 6.7079117e-07 -2.1645049e-07 
-3.8101364e-06 1.7364218e-07 -3.4280135e-06 
-1.0115731e-06 1.8561946e-06 -3.1085535e-06 
7.0064707e-06 -5.9629124e-06 -6.9814441e-06 
2.5759364e-05 -9.0099447e-06 -2.7795897e-06 
2.2387898e-05 -9.8848304e-06 5.3235849e-06 
2.1210724e-06 -2.5050457e-07 -5.1024068e-07 
7.9036522e-07 -7.4031567e-07 2.6997420e-06 
-6.7944547e-06 3.7768016e-06 -1.9749129e-06 
-5.5822493e-06 1.6846450e-05 -2.4146250e-06 
-3.3890799e-06 7.5639955e-06 -3.4477453e-06 
3.1426709e-05 1.8731085e-05 -1.1659991e-05 
8.9901354e-05 -3.1284111e-05 3.2698210e-06 
2.1464235e-05 -4.9761138e-06 1.1081712e-05 
-5.0592053e-06 -5.5625787e-07 -4.4259750e-06 
-3.8195503e-06 1.4570958e-06 1.4535166e-06 
2.9167873e-05 1.8062930e-05 -1.4529170e-05 
9.7095566e-05 -2.6243999e-05 7.3248680e-06 
9.7249485e-06 4.1709078e-05 5.5024725e-07 
1.1469050e-04 -2.3426708e-04 -3.3622837e-05 
9.3572628e-05 -2.2112211e-04 4.5521178e-05 
5.1612287e-06 5.0496351e-06 -8.4970497e-06 
-7.8586563e-06 -9.9017370e-06 2.1863391e-06 
6.7654832e-06 4.1186293e-05 -5.5865871e-06 
1.2340996e-04 -2.3542701e-04 -3.6203848e-05 
1.1868336e-04 -2.3364574e-04 6.1057966e-05 
1.0827370e-05 -2.2370545e-05 2.9969378e-05 
-8.4401245e-06 3.6194785e-07 -4.8939642e-06 
4.6034879e-06 6.3450040e-07 1.1069835e-06 
-8.5950169e-06 7.6732449e-06 -6.6808047e-06 
4.0775458e-06 1.6242391e-05 -7.1691454e-07 
5.2116851e-05 -1.8266011e-05 -5.5477540e-06 
4.2663611e-05 -2.8421431e-05 1.0395425e-05 
4.0838381e-06 1.7391686e-06 -4.9436107e-06 
-8.4477060e-06 -3.4037241e-06 1.3640848e-09 