# vtk DataFile Version 4.0
vtk output
ASCII
DATASET UNSTRUCTURED_GRID
POINTS 662 float
0.0000000e+00 0.0000000e+00 0.0000000e+00 
0.0000000e+00 0.0000000e+00 4.0000000e+01 
5.0000000e+00 0.0000000e+00 0.0000000e+00 
5.0000000e+00 0.0000000e+00 4.0000000e+01 
5.0000000e+00 1.0000000e+00 0.0000000e+00 
5.0000000e+00 1.0000000e+00 4.0000000e+01 
0.0000000e+00 1.0000000e+00 0.0000000e+00 
0.0000000e+00 1.0000000e+00 4.0000000e+01 
5.0000000e+00 2.0000000e+00 0.0000000e+00 
5.0000000e+00 2.0000000e+00 4.0000000e+01 
3.0000000e+00 2.0000000e+00 0.0000000e+00 
3.0000000e+00 2.0000000e+00 4.0000000e+01 
0.0000000e+00 2.0000000e+00 0.0000000e+00 
0.0000000e+00 2.0000000e+00 4.0000000e+01 
1.5000000e+00 3.0000000e+00 0.0000000e+00 
1.5000000e+00 3.0000000e+00 4.0000000e+01 
7.5000000e-01 3.0000000e+00 0.0000000e+00 
7.5000000e-01 3.0000000e+00 4.0000000e+01 
0.0000000e+00 3.0000000e+00 0.0000000e+00 
0.0000000e+00 3.0000000e+00 4.0000000e+01 
7.5000000e-01 3.0000000e+00 5.0000000e-01 
7.5000000e-01 3.0000000e+00 1.0000000e+00 
7.5000000e-01 3.0000000e+00 1.5000000e+00 
7.5000000e-01 3.0000000e+00 2.0000000e+00 
7.5000000e-01 3.0000000e+00 2.5000000e+00 
7.5000000e-01 3.0000000e+00 3.0000000e+00 
7.5000000e-01 3.0000000e+00 3.5000000e+00 
7.5000000e-01 3.0000000e+00 4.0000000e+00 
7.5000000e-01 3.0000000e+00 4.5000000e+00 
7.5000000e-01 3.0000000e+00 5.0000000e+00 
7.5000000e-01 3.0000000e+00 5.5000000e+00 
7.5000000e-01 3.0000000e+00 6.0000000e+00 
7.5000000e-01 3.0000000e+00 6.5000000e+00 
7.5000000e-01 3.0000000e+00 7.0000000e+00 
7.5000000e-01 3.0000000e+00 7.5000000e+00 
7.5000000e-01 3.0000000e+00 8.0000000e+00 
7.5000000e-01 3.0000000e+00 8.5000000e+00 
7.5000000e-01 3.0000000e+00 9.0000000e+00 
7.5000000e-01 3.0000000e+00 9.5000000e+00 
7.5000000e-01 3.0000000e+00 1.0000000e+01 
7.5000000e-01 3.0000000e+00 1.0500000e+01 
7.5000000e-01 3.0000000e+00 1.1000000e+01 
7.5000000e-01 3.0000000e+00 1.1500000e+01 
7.5000000e-01 3.0000000e+00 1.2000000e+01 
7.5000000e-01 3.0000000e+00 1.2500000e+01 
7.5000000e-01 3.0000000e+00 1.3000000e+01 
7.5000000e-01 3.0000000e+00 1.3500000e+01 
7.5000000e-01 3.0000000e+00 1.4000000e+01 
7.5000000e-01 3.0000000e+00 1.4500000e+01 
7.5000000e-01 3.0000000e+00 1.5000000e+01 
7.5000000e-01 3.0000000e+00 1.5500000e+01 
7.5000000e-01 3.0000000e+00 1.6000000e+01 
7.5000000e-01 3.0000000e+00 1.6500000e+01 
7.5000000e-01 3.0000000e+00 1.7000000e+01 
7.5000000e-01 3.0000000e+00 1.7500000e+01 
7.5000000e-01 3.0000000e+00 1.8000000e+01 
7.5000000e-01 3.0000000e+00 1.8500000e+01 
7.5000000e-01 3.0000000e+00 1.9000000e+01 
7.5000000e-01 3.0000000e+00 1.9500000e+01 
7.5000000e-01 3.0000000e+00 2.0000000e+01 
7.5000000e-01 3.0000000e+00 2.0500000e+01 
7.5000000e-01 3.0000000e+00 2.1000000e+01 
7.5000000e-01 3.0000000e+00 2.1500000e+01 
7.5000000e-01 3.0000000e+00 2.2000000e+01 
7.5000000e-01 3.0000000e+00 2.2500000e+01 
7.5000000e-01 3.0000000e+00 2.3000000e+01 
7.5000000e-01 3.0000000e+00 2.3500000e+01 
7.5000000e-01 3.0000000e+00 2.4000000e+01 
7.5000000e-01 3.0000000e+00 2.4500000e+01 
7.5000000e-01 3.0000000e+00 2.5000000e+01 
7.5000000e-01 3.0000000e+00 2.5500000e+01 
7.5000000e-01 3.0000000e+00 2.6000000e+01 
7.5000000e-01 3.0000000e+00 2.6500000e+01 
7.5000000e-01 3.0000000e+00 2.7000000e+01 
7.5000000e-01 3.0000000e+00 2.7500000e+01 
7.5000000e-01 3.0000000e+00 2.8000000e+01 
7.5000000e-01 3.0000000e+00 2.8500000e+01 
7.5000000e-01 3.0000000e+00 2.9000000e+01 
7.5000000e-01 3.0000000e+00 2.9500000e+01 
7.5000000e-01 3.0000000e+00 3.0000000e+01 
7.5000000e-01 3.0000000e+00 3.0500000e+01 
7.5000000e-01 3.0000000e+00 3.1000000e+01 
7.5000000e-01 3.0000000e+00 3.1500000e+01 
7.5000000e-01 3.0000000e+00 3.2000000e+01 
7.5000000e-01 3.0000000e+00 3.2500000e+01 
7.5000000e-01 3.0000000e+00 3.3000000e+01 
7.5000000e-01 3.0000000e+00 3.3500000e+01 
7.5000000e-01 3.0000000e+00 3.4000000e+01 
7.5000000e-01 3.0000000e+00 3.4500000e+01 
7.5000000e-01 3.0000000e+00 3.5000000e+01 
7.5000000e-01 3.0000000e+00 3.5500000e+01 
7.5000000e-01 3.0000000e+00 3.6000000e+01 
7.5000000e-01 3.0000000e+00 3.6500000e+01 
7.5000000e-01 3.0000000e+00 3.7000000e+01 
7.5000000e-01 3.0000000e+00 3.7500000e+01 
7.5000000e-01 3.0000000e+00 3.8000000e+01 
7.5000000e-01 3.0000000e+00 3.8500000e+01 
7.5000000e-01 3.0000000e+00 3.9000000e+01 
7.5000000e-01 3.0000000e+00 3.9500000e+01 
7.5000000e-01 3.0000000e+00 4.0500000e+01 
7.5000000e-01 3.0000000e+00 4.1000000e+01 
7.5000000e-01 3.0000000e+00 4.1500000e+01 
7.5000000e-01 3.0000000e+00 4.2000000e+01 
7.5000000e-01 3.0000000e+00 4.2500000e+01 
7.5000000e-01 3.0000000e+00 4.3000000e+01 
7.5000000e-01 3.0000000e+00 4.3500000e+01 
7.5000000e-01 3.0000000e+00 4.4000000e+01 
7.5000000e-01 3.0000000e+00 4.4500000e+01 
7.5000000e-01 3.0000000e+00 4.5000000e+01 
7.5000000e-01 3.0000000e+00 4.5500000e+01 
7.5000000e-01 3.0000000e+00 4.6000000e+01 
7.5000000e-01 3.0000000e+00 4.6500000e+01 
7.5000000e-01 3.0000000e+00 4.7000000e+01 
7.5000000e-01 3.0000000e+00 4.7500000e+01 
7.5000000e-01 3.0000000e+00 4.8000000e+01 
7.5000000e-01 3.0000000e+00 4.8500000e+01 
7.5000000e-01 3.0000000e+00 4.9000000e+01 
7.5000000e-01 3.0000000e+00 4.9500000e+01 
7.5000000e-01 3.0000000e+00 5.0000000e+01 
7.5000000e-01 3.0250001e+00 0.0000000e+00 
7.5000000e-01 3.0250001e+00 5.0000000e-01 
7.5000000e-01 3.0250001e+00 1.0000000e+00 
7.5000000e-01 3.0250001e+00 1.5000000e+00 
7.5000000e-01 3.0250001e+00 2.0000000e+00 
7.5000000e-01 3.0250001e+00 2.5000000e+00 
7.5000000e-01 3.0250001e+00 3.0000000e+00 
7.5000000e-01 3.0250001e+00 3.5000000e+00 
7.5000000e-01 3.0250001e+00 4.0000000e+00 
7.5000000e-01 3.0250001e+00 4.5000000e+00 
7.5000000e-01 3.0250001e+00 5.0000000e+00 
7.5000000e-01 3.0250001e+00 5.5000000e+00 
7.5000000e-01 3.0250001e+00 6.0000000e+00 
7.5000000e-01 3.0250001e+00 6.5000000e+00 
7.5000000e-01 3.0250001e+00 7.0000000e+00 
7.5000000e-01 3.0250001e+00 7.5000000e+00 
7.5000000e-01 3.0250001e+00 8.0000000e+00 
7.5000000e-01 3.0250001e+00 8.5000000e+00 
7.5000000e-01 3.0250001e+00 9.0000000e+00 
7.5000000e-01 3.0250001e+00 9.5000000e+00 
7.5000000e-01 3.0250001e+00 1.0000000e+01 
7.5000000e-01 3.0250001e+00 1.0500000e+01 
7.5000000e-01 3.0250001e+00 1.1000000e+01 
7.5000000e-01 3.0250001e+00 1.1500000e+01 
7.5000000e-01 3.0250001e+00 1.2000000e+01 
7.5000000e-01 3.0250001e+00 1.2500000e+01 
7.5000000e-01 3.0250001e+00 1.3000000e+01 
7.5000000e-01 3.0250001e+00 1.3500000e+01 
7.5000000e-01 3.0250001e+00 1.4000000e+01 
7.5000000e-01 3.0250001e+00 1.4500000e+01 
7.5000000e-01 3.0250001e+00 1.5000000e+01 
7.5000000e-01 3.0250001e+00 1.5500000e+01 
7.5000000e-01 3.0250001e+00 1.6000000e+01 
7.5000000e-01 3.0250001e+00 1.6500000e+01 
7.5000000e-01 3.0250001e+00 1.7000000e+01 
7.5000000e-01 3.0250001e+00 1.7500000e+01 
7.5000000e-01 3.0250001e+00 1.8000000e+01 
7.5000000e-01 3.0250001e+00 1.8500000e+01 
7.5000000e-01 3.0250001e+00 1.9000000e+01 
7.5000000e-01 3.0250001e+00 1.9500000e+01 
7.5000000e-01 3.0250001e+00 2.0000000e+01 
7.5000000e-01 3.0250001e+00 2.0500000e+01 
7.5000000e-01 3.0250001e+00 2.1000000e+01 
7.5000000e-01 3.0250001e+00 2.1500000e+01 
7.5000000e-01 3.0250001e+00 2.2000000e+01 
7.5000000e-01 3.0250001e+00 2.2500000e+01 
7.5000000e-01 3.0250001e+00 2.3000000e+01 
7.5000000e-01 3.0250001e+00 2.3500000e+01 
7.5000000e-01 3.0250001e+00 2.4000000e+01 
7.5000000e-01 3.0250001e+00 2.4500000e+01 
7.5000000e-01 3.0250001e+00 2.5000000e+01 
7.5000000e-01 3.0250001e+00 2.5500000e+01 
7.5000000e-01 3.0250001e+00 2.6000000e+01 
7.5000000e-01 3.0250001e+00 2.6500000e+01 
7.5000000e-01 3.0250001e+00 2.7000000e+01 
7.5000000e-01 3.0250001e+00 2.7500000e+01 
7.5000000e-01 3.0250001e+00 2.8000000e+01 
7.5000000e-01 3.0250001e+00 2.8500000e+01 
7.5000000e-01 3.0250001e+00 2.9000000e+01 
7.5000000e-01 3.0250001e+00 2.9500000e+01 
7.5000000e-01 3.0250001e+00 3.0000000e+01 
7.5000000e-01 3.0250001e+00 3.0500000e+01 
7.5000000e-01 3.0250001e+00 3.1000000e+01 
7.5000000e-01 3.0250001e+00 3.1500000e+01 
7.5000000e-01 3.0250001e+00 3.2000000e+01 
7.5000000e-01 3.0250001e+00 3.2500000e+01 
7.5000000e-01 3.0250001e+00 3.3000000e+01 
7.5000000e-01 3.0250001e+00 3.3500000e+01 
7.5000000e-01 3.0250001e+00 3.4000000e+01 
7.5000000e-01 3.0250001e+00 3.4500000e+01 
7.5000000e-01 3.0250001e+00 3.5000000e+01 
7.5000000e-01 3.0250001e+00 3.5500000e+01 
7.5000000e-01 3.0250001e+00 3.6000000e+01 
7.5000000e-01 3.0250001e+00 3.6500000e+01 
7.5000000e-01 3.0250001e+00 3.7000000e+01 
7.5000000e-01 3.0250001e+00 3.7500000e+01 
7.5000000e-01 3.0250001e+00 3.8000000e+01 
7.5000000e-01 3.0250001e+00 3.8500000e+01 
7.5000000e-01 3.0250001e+00 3.9000000e+01 
7.5000000e-01 3.0250001e+00 3.9500000e+01 
7.5000000e-01 3.0250001e+00 4.0000000e+01 
7.5000000e-01 3.0250001e+00 4.0500000e+01 
7.5000000e-01 3.0250001e+00 4.1000000e+01 
7.5000000e-01 3.0250001e+00 4.1500000e+01 
7.5000000e-01 3.0250001e+00 4.2000000e+01 
7.5000000e-01 3.0250001e+00 4.2500000e+01 
7.5000000e-01 3.0250001e+00 4.3000000e+01 
7.5000000e-01 3.0250001e+00 4.3500000e+01 
7.5000000e-01 3.0250001e+00 4.4000000e+01 
7.5000000e-01 3.0250001e+00 4.4500000e+01 
7.5000000e-01 3.0250001e+00 4.5000000e+01 
7.5000000e-01 3.0250001e+00 4.5500000e+01 
7.5000000e-01 3.0250001e+00 4.6000000e+01 
7.5000000e-01 3.0250001e+00 4.6500000e+01 
7.5000000e-01 3.0250001e+00 4.7000000e+01 
7.5000000e-01 3.0250001e+00 4.7500000e+01 
7.5000000e-01 3.0250001e+00 4.8000000e+01 
7.5000000e-01 3.0250001e+00 4.8500000e+01 
7.5000000e-01 3.0250001e+00 4.9000000e+01 
7.5000000e-01 3.0250001e+00 4.9500000e+01 
7.5000000e-01 3.0250001e+00 5.0000000e+01 
7.5000000e-01 3.0250001e+00 3.5750000e+01 
3.0000000e+00 2.0000000e+00 3.6000000e+01 
8.0487806e-01 3.0000000e+00 3.6000000e+01 
0.0000000e+00 0.0000000e+00 2.0000000e+00 
0.0000000e+00 0.0000000e+00 4.0000000e+00 
0.0000000e+00 0.0000000e+00 6.0000000e+00 
0.0000000e+00 0.0000000e+00 8.0000000e+00 
0.0000000e+00 0.0000000e+00 1.0000000e+01 
0.0000000e+00 0.0000000e+00 1.2000000e+01 
0.0000000e+00 0.0000000e+00 1.4000000e+01 
[...]
POINT_DATA 662
FIELD FieldData 3
DISPLACEMENT 3 662  float
0.0000000e+00 0.0000000e+00 0.0000000e+00 
0.0000000e+00 0.0000000e+00 0.0000000e+00 
0.0000000e+00 0.0000000e+00 0.0000000e+00 
0.0000000e+00 0.0000000e+00 0.0000000e+00 
6.6961461e-06 -4.8785309e-06 -2.0974302e-07 
1.1823879e-07 -3.0321335e-06 -2.4451660e-06 
0.0000000e+00 -7.0792712e-06 0.0000000e+00 
0.0000000e+00 2.9349558e-05 0.0000000e+00 
8.7720309e-06 -6.8834479e-06 -4.4933026e-06 
1.4904683e-06 -7.7242157e-06 5.3127415e-06 
1.1986099e-06 -7.4245254e-06 -9.9469535e-06 
-2.6879618e-06 3.1954229e-07 3.9697652e-06 
0.0000000e+00 -9.6741978e-06 0.0000000e+00 
0.0000000e+00 5.7233759e-05 0.0000000e+00 
-5.0822514e-06 -8.6712953e-06 -1.0845854e-05 
2.2745440e-05 4.4474124e-05 1.9468509e-05 
1.6671904e-05 1.7230992e-05 3.8184062e-06 
2.0683223e-05 8.3993626e-05 2.2520489e-05 
0.0000000e+00 -1.7029830e-05 0.0000000e+00 
0.0000000e+00 8.1785802e-05 0.0000000e+00 
-1.2551822e-05 1.8363378e-05 -1.7745051e-05 
-1.7533257e-05 2.1075000e-05 -2.3577053e-05 
-1.8577539e-05 2.3757460e-05 -2.8342443e-05 
-1.5660249e-05 2.6075350e-05 -3.4215023e-05 
-8.7991157e-06 2.8948320e-05 -3.7881371e-05 
-4.8472575e-06 3.3459426e-05 -4.0023864e-05 
5.4233378e-06 4.1558491e-05 -5.2903473e-05 
1.7587483e-05 5.5225955e-05 -6.2988875e-05 
2.4722296e-05 7.5866548e-05 -5.7656147e-05 
3.1017360e-05 1.0195134e-04 -4.5524248e-05 
3.5569064e-05 1.3183930e-04 -3.7018563e-05 
4.6221281e-05 1.6400032e-04 -2.4282561e-05 
5.9155176e-05 1.9565757e-04 -1.0892626e-05 
6.3832427e-05 2.1961684e-04 7.5012435e-06 
5.0482875e-05 2.2312305e-04 3.6784197e-05 
2.8144461e-05 1.7813989e-04 6.8576242e-05 
-1.4606490e-05 4.2924992e-05 1.0979427e-04 
-2.6613165e-05 -2.2433506e-04 1.5007786e-04 
-5.3885989e-05 -6.8752072e-04 2.0889670e-04 
-1.1334301e-04 -1.3901081e-03 1.6399827e-04 
-2.6758431e-04 -2.3514736e-03 2.4847905e-04 
-2.8072600e-04 -3.3912419e-03 2.2672505e-04 
-1.8024063e-04 -4.2018746e-03 1.6618484e-04 
-1.5602377e-04 -4.2273658e-03 1.7100945e-04 
-2.9121272e-04 -4.0332051e-03 8.6464977e-05 
-3.5939959e-04 -3.9892914e-03 5.1954339e-05 
-2.4765413e-04 -4.2078802e-03 7.2608227e-06 
-9.5795607e-05 -4.2057196e-03 -4.1563653e-05 
-1.2187332e-04 -3.5107953e-03 -1.4261961e-04 
-2.1316577e-04 -2.4898998e-03 -1.7650756e-04 
-2.0396791e-04 -1.5906100e-03 -1.8159127e-04 
-8.0257436e-05 -8.9456007e-04 -1.3253423e-04 
-4.1967851e-05 -4.3693694e-04 -1.7276223e-04 
-2.7512693e-05 -1.5963431e-04 -1.4492942e-04 
-1.7536084e-05 -8.0860245e-06 -1.2655374e-04 
6.3184616e-06 6.3438027e-05 -1.0243671e-04 
2.0538329e-05 8.3633335e-05 -6.8374036e-05 
2.7305801e-05 7.7554963e-05 -3.8445181e-05 
1.9158668e-05 6.1824321e-05 -3.0578267e-05 
1.0581197e-05 4.3966524e-05 -3.3490625e-05 
2.4195431e-06 2.8086057e-05 -3.8864426e-05 
4.1239844e-07 1.2459589e-05 -3.9073835e-05 
-6.5514064e-06 -5.3079930e-06 -2.7253349e-05 
-1.8125986e-05 -2.4274801e-05 -8.5354086e-06 
-1.7681685e-05 -4.2019808e-05 1.0049960e-05 
-1.7882125e-05 -5.3366384e-05 1.9820864e-05 
-1.5108229e-05 -5.2538533e-05 2.1122192e-05 
-9.2354367e-06 -3.6401892e-05 1.6487300e-05 
3.6730173e-06 -2.2661225e-06 -6.1358160e-06 
9.3358949e-06 4.4911205e-05 -2.9339821e-05 
2.6094658e-05 9.9659548e-05 -5.5222907e-05 
4.7619549e-05 1.5431570e-04 -7.1400580e-05 
5.7387693e-05 2.0170311e-04 -6.4161883e-05 
6.5067245e-05 2.3242363e-04 -3.9534843e-05 
5.2736224e-05 2.3315560e-04 -7.3958040e-06 
3.1589152e-05 1.7770198e-04 3.1067404e-05 
-1.0592077e-05 2.3054692e-05 8.9512359e-05 
-2.0256131e-05 -2.7284402e-04 1.4265854e-04 
-4.4921391e-05 -7.7448657e-04 2.0283651e-04 
-1.0650588e-04 -1.5173010e-03 1.5109210e-04 
-2.5955518e-04 -2.5044447e-03 2.3270086e-04 
-2.7375799e-04 -3.5171751e-03 2.0044137e-04 
-1.7323623e-04 -4.1896855e-03 1.3320152e-04 
-1.3195173e-04 -4.1198628e-03 1.4003989e-04 
-2.7051830e-04 -3.9672609e-03 6.5217748e-05 
-3.2954529e-04 -4.0113828e-03 4.2216107e-05 
-2.1593169e-04 -4.2797490e-03 2.1549749e-06 
-7.9915313e-05 -4.1784029e-03 -1.9231709e-05 
-1.1979855e-04 -3.3616116e-03 -1.4451364e-04 
-2.2042749e-04 -2.3054511e-03 -1.8680604e-04 
-2.2123769e-04 -1.4047031e-03 -2.0039199e-04 
-1.3198394e-04 -7.2354288e-04 -1.7557632e-04 
-5.4865490e-05 -2.8432102e-04 -1.7292298e-04 
-3.1860727e-05 -2.4210556e-05 -1.4423107e-04 
-2.3239854e-05 1.1465121e-04 -1.2961069e-04 
2.5404008e-06 1.7465734e-04 -1.0976192e-04 
1.8345969e-05 1.8457562e-04 -7.4611737e-05 
3.1673309e-05 1.6517271e-04 -4.1406627e-05 
2.7718605e-05 1.3056476e-04 -2.1982602e-05 
0.0000000e+00 3.2280157e-05 0.0000000e+00 
0.0000000e+00 -1.9308225e-05 0.0000000e+00 
0.0000000e+00 -6.4519387e-05 0.0000000e+00 
0.0000000e+00 -9.7461168e-05 0.0000000e+00 
0.0000000e+00 -1.1369876e-04 0.0000000e+00 
0.0000000e+00 -1.1138989e-04 0.0000000e+00 
0.0000000e+00 -9.1849521e-05 0.0000000e+00 
0.0000000e+00 -5.9309124e-05 0.0000000e+00 
0.0000000e+00 -2.0009373e-05 0.0000000e+00 
0.0000000e+00 1.9034087e-05 0.0000000e+00 
0.0000000e+00 5.1288298e-05 0.0000000e+00 
0.0000000e+00 7.1784751e-05 0.0000000e+00 
0.0000000e+00 7.7866709e-05 0.0000000e+00 
0.0000000e+00 6.9471185e-05 0.0000000e+00 
0.0000000e+00 4.8927312e-05 0.0000000e+00 
0.0000000e+00 2.0410052e-05 0.0000000e+00 
0.0000000e+00 -1.0754901e-05 0.0000000e+00 
0.0000000e+00 -3.8834081e-05 0.0000000e+00 
0.0000000e+00 -5.8491409e-05 0.0000000e+00 
0.0000000e+00 -6.5640314e-05 0.0000000e+00 
0.0000000e+00 1.7314320e-05 0.0000000e+00 
0.0000000e+00 1.8428877e-05 0.0000000e+00 
0.0000000e+00 2.1011849e-05 0.0000000e+00 
0.0000000e+00 2.3681685e-05 0.0000000e+00 
0.0000000e+00 2.6051441e-05 0.0000000e+00 
0.0000000e+00 2.8897404e-05 0.0000000e+00 
0.0000000e+00 3.3456919e-05 0.0000000e+00 
0.0000000e+00 4.1599022e-05 0.0000000e+00 
0.0000000e+00 5.5383163e-05 0.0000000e+00 
0.0000000e+00 7.5883858e-05 0.0000000e+00 
0.0000000e+00 1.0195134e-04 0.0000000e+00 
0.0000000e+00 1.3191438e-04 0.0000000e+00 
0.0000000e+00 1.6422961e-04 0.0000000e+00 
0.0000000e+00 1.9598479e-04 0.0000000e+00 
0.0000000e+00 2.2050783e-04 0.0000000e+00 
0.0000000e+00 2.2388357e-04 0.0000000e+00 
0.0000000e+00 1.7826747e-04 0.0000000e+00 
0.0000000e+00 4.4128563e-05 0.0000000e+00 
0.0000000e+00 -2.2501823e-04 0.0000000e+00 
0.0000000e+00 -6.8903022e-04 0.0000000e+00 
0.0000000e+00 -1.3996961e-03 0.0000000e+00 
0.0000000e+00 -2.3591809e-03 0.0000000e+00 
0.0000000e+00 -3.4236987e-03 0.0000000e+00 
0.0000000e+00 -4.2262343e-03 0.0000000e+00 
0.0000000e+00 -4.2580510e-03 0.0000000e+00 
0.0000000e+00 -4.0471074e-03 0.0000000e+00 
0.0000000e+00 -4.0192842e-03 0.0000000e+00 
0.0000000e+00 -4.2271409e-03 0.0000000e+00 
0.0000000e+00 -4.2389408e-03 0.0000000e+00 
0.0000000e+00 -3.5283167e-03 0.0000000e+00 
0.0000000e+00 -2.5076792e-03 0.0000000e+00 
0.0000000e+00 -1.5927951e-03 0.0000000e+00 
0.0000000e+00 -8.9853955e-04 0.0000000e+00 
0.0000000e+00 -4.3675196e-04 0.0000000e+00 
0.0000000e+00 -1.5888124e-04 0.0000000e+00 
0.0000000e+00 -7.1513568e-06 0.0000000e+00 
0.0000000e+00 6.3652442e-05 0.0000000e+00 
0.0000000e+00 8.4071726e-05 0.0000000e+00 
0.0000000e+00 7.8048623e-05 0.0000000e+00 
0.0000000e+00 6.2007639e-05 0.0000000e+00 
0.0000000e+00 4.4235552e-05 0.0000000e+00 
0.0000000e+00 2.8107566e-05 0.0000000e+00 
0.0000000e+00 1.2276166e-05 0.0000000e+00 
0.0000000e+00 -5.3759827e-06 0.0000000e+00 
0.0000000e+00 -2.4385703e-05 0.0000000e+00 
0.0000000e+00 -4.2047861e-05 0.0000000e+00 
0.0000000e+00 -5.3246698e-05 0.0000000e+00 
0.0000000e+00 -5.2523668e-05 0.0000000e+00 
0.0000000e+00 -3.6042515e-05 0.0000000e+00 
0.0000000e+00 -2.2353890e-06 0.0000000e+00 
0.0000000e+00 4.5013985e-05 0.0000000e+00 
0.0000000e+00 9.9650773e-05 0.0000000e+00 
0.0000000e+00 1.5441760e-04 0.0000000e+00 
0.0000000e+00 2.0193441e-04 0.0000000e+00 
0.0000000e+00 2.3317532e-04 0.0000000e+00 
0.0000000e+00 2.3406968e-04 0.0000000e+00 
0.0000000e+00 1.7784545e-04 0.0000000e+00 
0.0000000e+00 2.4303856e-05 0.0000000e+00 
0.0000000e+00 -2.7395744e-04 0.0000000e+00 
0.0000000e+00 -7.7647105e-04 0.0000000e+00 
0.0000000e+00 -1.5280383e-03 0.0000000e+00 
0.0000000e+00 -2.5135258e-03 0.0000000e+00 
0.0000000e+00 -3.5522105e-03 0.0000000e+00 
0.0000000e+00 -4.2137415e-03 0.0000000e+00 
0.0000000e+00 -4.1495166e-03 0.0000000e+00 
0.0000000e+00 -3.9808303e-03 0.0000000e+00 
0.0000000e+00 -4.0430687e-03 0.0000000e+00 
0.0000000e+00 -4.3011531e-03 0.0000000e+00 
0.0000000e+00 -4.2122845e-03 0.0000000e+00 
0.0000000e+00 -3.3779270e-03 0.0000000e+00 
0.0000000e+00 -2.3216363e-03 0.0000000e+00 
0.0000000e+00 -1.4063042e-03 0.0000000e+00 
0.0000000e+00 -7.2685123e-04 0.0000000e+00 
0.0000000e+00 -2.8434448e-04 0.0000000e+00 
0.0000000e+00 -2.3153239e-05 0.0000000e+00 
0.0000000e+00 1.1543996e-04 0.0000000e+00 
0.0000000e+00 1.7507414e-04 0.0000000e+00 
0.0000000e+00 1.8497113e-04 0.0000000e+00 
0.0000000e+00 1.6575704e-04 0.0000000e+00 
0.0000000e+00 1.3040719e-04 0.0000000e+00 
0.0000000e+00 8.4061197e-05 0.0000000e+00 
0.0000000e+00 3.2245265e-05 0.0000000e+00 
0.0000000e+00 -1.9297253e-05 0.0000000e+00 
0.0000000e+00 -6.4452084e-05 0.0000000e+00 
0.0000000e+00 -9.7344855e-05 0.0000000e+00 
0.0000000e+00 -1.1356058e-04 0.0000000e+00 
0.0000000e+00 -1.1126474e-04 0.0000000e+00 
0.0000000e+00 -9.1765447e-05 0.0000000e+00 
0.0000000e+00 -5.9280450e-05 0.0000000e+00 
0.0000000e+00 -2.0037387e-05 0.0000000e+00 
0.0000000e+00 1.8958744e-05 0.0000000e+00 
0.0000000e+00 5.1183746e-05 0.0000000e+00 
0.0000000e+00 7.1673778e-05 0.0000000e+00 
0.0000000e+00 7.7769510e-05 0.0000000e+00 
0.0000000e+00 6.9399342e-05 0.0000000e+00 
0.0000000e+00 4.8884121e-05 0.0000000e+00 
0.0000000e+00 2.0396286e-05 0.0000000e+00 
0.0000000e+00 -1.0736622e-05 0.0000000e+00 
0.0000000e+00 -3.8781640e-05 0.0000000e+00 
0.0000000e+00 -5.8410180e-05 0.0000000e+00 
0.0000000e+00 -6.5547290e-05 0.0000000e+00 
0.0000000e+00 -1.0336499e-03 0.0000000e+00 
2.3547063e-05 -4.4756558e-05 -1.3886580e-07 
-1.0822576e-04 -6.5177516e-04 -1.5185225e-04 
0.0000000e+00 0.0000000e+00 0.0000000e+00 
0.0000000e+00 0.0000000e+00 0.0000000e+00 
0.0000000e+00 0.0000000e+00 0.0000000e+00 
0.0000000e+00 0.0000000e+00 0.0000000e+00 
0.0000000e+00 0.0000000e+00 0.0000000e+00 
0.0000000e+00 0.0000000e+00 0.0000000e+00 
0.0000000e+00 0.0000000e+00 0.0000000e+00 
0.0000000e+00 0.0000000e+00 0.0000000e+00 
0.0000000e+00 0.0000000e+00 0.0000000e+00 
0.0000000e+00 0.0000000e+00 0.0000000e+00 
0.0000000e+00 0.0000000e+00 0.0000000e+00 
0.0000000e+00 0.0000000e+00 0.0000000e+00 
0.0000000e+00 0.0000000e+00 0.0000000e+00 
0.0000000e+00 0.0000000e+00 0.0000000e+00 
0.0000000e+00 0.0000000e+00 0.0000000e+00 
0.0000000e+00 0.0000000e+00 0.0000000e+00 
0.0000000e+00 0.0000000e+00 0.0000000e+00 
0.0000000e+00 0.0000000e+00 0.0000000e+00 
0.0000000e+00 0.0000000e+00 0.0000000e+00 
0.0000000e+00 0.0000000e+00 0.0000000e+00 
0.0000000e+00 0.0000000e+00 0.0000000e+00 
0.0000000e+00 0.0000000e+00 0.0000000e+00 
0.0000000e+00 0.0000000e+00 0.0000000e+00 
0.0000000e+00 0.0000000e+00 0.0000000e+00 
0.0000000e+00 0.0000000e+00 0.0000000e+00 
0.0000000e+00 0.0000000e+00 0.0000000e+00 
0.0000000e+00 0.0000000e+00 0.0000000e+00 
0.0000000e+00 0.0000000e+00 0.0000000e+00 
0.0000000e+00 0.0000000e+00 0.0000000e+00 
0.0000000e+00 0.0000000e+00 0.0000000e+00 
0.0000000e+00 0.0000000e+00 0.0000000e+00 
0.0000000e+00 0.0000000e+00 0.0000000e+00 
0.0000000e+00 0.0000000e+00 0.0000000e+00 
0.0000000e+00 0.0000000e+00 0.0000000e+00 
0.0000000e+00 0.0000000e+00 0.0000000e+00 
0.0000000e+00 0.0000000e+00 0.0000000e+00 
0.0000000e+00 0.0000000e+00 0.0000000e+00 
0.0000000e+00 0.0000000e+00 0.0000000e+00 
0.0000000e+00 0.0000000e+00 0.0000000e+00 
0.0000000e+00 0.0000000e+00 0.0000000e+00 
0.0000000e+00 0.0000000e+00 0.0000000e+00 
0.0000000e+00 0.0000000e+00 0.0000000e+00 
-1.2105364e-06 1.5769609e-07 -6.6325742e-07 
-6.2782160e-06 3.8340704e-07 -4.3974896e-06 
-2.2468380e-06 3.4857419e-07 -9.7515367e-06 
8.1495300e-06 -1.1107795e-06 -9.0187996e-06 
3.0896983e-05 -5.2494279e-06 -1.1009904e-05 
5.2069365e-05 -6.3338916e-06 -4.4221036e-08 
4.5918554e-05 -5.5680166e-06 1.1953132e-05 
2.2932909e-05 -4.6926912e-06 7.4799473e-06 
8.8008092e-06 -1.3068360e-06 2.5504189e-06 
3.3142555e-06 3.8887258e-09 1.8740748e-06 
-1.4478343e-06 -4.4300841e-06 4.4015824e-06 
-5.4931352e-06 -2.2672748e-06 1.4119670e-06 
-5.9752851e-06 4.3107125e-06 -1.0554025e-06 
5.8607679e-06 -8.1548922e-07 -8.0679056e-06 
3.2540549e-05 -9.6859221e-06 -1.0879032e-05 
5.4688917e-05 -9.9121271e-06 7.8998227e-07 
5.6589059e-05 -1.1196141e-05 1.3547720e-05 
2.2136855e-05 -7.2418370e-06 1.2980394e-05 
-5.7295601e-06 5.8725359e-06 -2.5585680e-07 
0.0000000e+00 1.3165060e-05 0.0000000e+00 
0.0000000e+00 2.1296319e-05 0.0000000e+00 
0.0000000e+00 5.7660760e-05 0.0000000e+00 
0.0000000e+00 3.8253129e-05 0.0000000e+00 
0.0000000e+00 -2.0031742e-04 0.0000000e+00 
0.0000000e+00 -5.7509571e-04 0.0000000e+00 
0.0000000e+00 -5.4270640e-04 0.0000000e+00 
0.0000000e+00 -1.8456687e-04 0.0000000e+00 
0.0000000e+00 6.0193188e-06 0.0000000e+00 
0.0000000e+00 7.9128777e-06 0.0000000e+00 
0.0000000e+00 -6.8476497e-06 0.0000000e+00 
0.0000000e+00 -1.6525732e-05 0.0000000e+00 
0.0000000e+00 5.5962111e-05 0.0000000e+00 
0.0000000e+00 4.0626670e-05 0.0000000e+00 
0.0000000e+00 -2.0943601e-04 0.0000000e+00 
0.0000000e+00 -5.5976748e-04 0.0000000e+00 
0.0000000e+00 -5.3695252e-04 0.0000000e+00 
0.0000000e+00 -1.6355826e-04 0.0000000e+00 
0.0000000e+00 4.0885723e-05 0.0000000e+00 
2.1884086e-06 -3.9478236e-06 -5.3320323e-06 
1.3718451e-06 -8.8235593e-06 -6.9584830e-06 
-3.2288717e-06 -1.7029167e-06 2.3532359e-06 
-8.2158440e-06 1.8037299e-05 -1.0728939e-05 
-3.0916507e-08 -9.3143854e-07 -2.1440412e-06 
-4.7986814e-06 6.9343156e-07 -6.1126098e-06 
2.0097939e-06 3.3277442e-07 -1.4371728e-05 
2.2614464e-05 -3.6136817e-06 -1.4871267e-05 
3.2960481e-05 -4.0156606e-06 -5.9341664e-07 
3.1860374e-05 -3.8317544e-06 6.6727307e-06 
1.7882026e-05 -9.6749034e-07 1.3103711e-05 
6.9904709e-06 -1.6445135e-07 -3.3379530e-07 
9.5566065e-06 -8.1652649e-07 -1.6919537e-06 
4.3091063e-06 -1.7561986e-06 3.8730550e-06 
-1.5785140e-06 -8.1584094e-06 6.6971115e-06 
-5.8569317e-06 -2.9886908e-06 -2.8831876e-06 
-1.5238726e-06 5.4393427e-06 -7.1317536e-06 
2.3073968e-05 -2.1738342e-06 -7.8384810e-06 
3.5533059e-05 -9.3512444e-06 -4.8102459e-07 
3.9715753e-05 -8.3931382e-06 7.0313231e-06 
3.1454547e-05 -8.2932902e-06 1.6525239e-05 
9.6293406e-06 -1.2267615e-06 -8.6308397e-08 
-5.4094808e-06 5.0375411e-06 -2.0977561e-06 
-2.6709370e-07 -9.7422944e-06 -1.0485828e-05 
0.0000000e+00 2.4576555e-05 0.0000000e+00 
0.0000000e+00 3.5517933e-05 0.0000000e+00 
0.0000000e+00 9.7991513e-05 0.0000000e+00 
0.0000000e+00 8.4365507e-05 0.0000000e+00 
0.0000000e+00 -4.2510702e-04 0.0000000e+00 
0.0000000e+00 -1.2637631e-03 0.0000000e+00 
0.0000000e+00 -1.1914771e-03 0.0000000e+00 
0.0000000e+00 -3.4707232e-04 0.0000000e+00 
0.0000000e+00 2.5522006e-05 0.0000000e+00 
0.0000000e+00 1.2428740e-05 0.0000000e+00 
0.0000000e+00 -9.6857566e-06 0.0000000e+00 
0.0000000e+00 -3.2720385e-05 0.0000000e+00 
0.0000000e+00 1.0575230e-04 0.0000000e+00 
0.0000000e+00 8.6276821e-05 0.0000000e+00 
0.0000000e+00 -4.5707889e-04 0.0000000e+00 
0.0000000e+00 -1.2354748e-03 0.0000000e+00 
0.0000000e+00 -1.1611618e-03 0.0000000e+00 
0.0000000e+00 -2.9670875e-04 0.0000000e+00 
0.0000000e+00 8.9902554e-05 0.0000000e+00 
-1.6653225e-06 3.6814981e-05 -1.7477167e-05 
-1.3668457e-05 1.9569541e-05 -2.2335473e-05 
1.8157218e-05 2.8696908e-05 -8.7616165e-05 
7.1416034e-05 9.3981718e-05 -3.2414104e-05 
5.5567354e-05 1.4899271e-04 1.1130831e-04 
-2.6904975e-04 -4.0232422e-04 3.7724312e-04 
-7.1590004e-04 -1.4102667e-03 1.8692753e-04 
-6.3427415e-04 -1.4778570e-03 -1.1190163e-04 
-1.6243230e-04 -3.0110375e-04 -2.6182129e-04 
1.6785265e-05 3.6672125e-05 -1.2571558e-04 
1.5737938e-05 2.2746777e-05 -2.6893465e-05 
-2.4369128e-05 -2.4708834e-05 1.3269199e-05 
-1.3723543e-05 -3.2564400e-05 -1.2207029e-06 
7.4878102e-05 7.4269992e-05 -9.7916243e-05 
5.7778467e-05 1.6223799e-04 8.0612510e-05 
-2.8148881e-04 -4.4127463e-04 3.6667820e-04 
-6.7356532e-04 -1.3394929e-03 1.3833436e-04 
-6.2307448e-04 -1.4430045e-03 -9.1745533e-05 
-1.4136454e-04 -2.9794246e-04 -2.4530696e-04 
1.2834612e-05 1.0189503e-04 -1.4227994e-04 
0.0000000e+00 3.9336501e-05 0.0000000e+00 
0.0000000e+00 4.2534604e-05 0.0000000e+00 
0.0000000e+00 1.3843027e-04 0.0000000e+00 
0.0000000e+00 1.7076888e-04 0.0000000e+00 
0.0000000e+00 -8.0930209e-04 0.0000000e+00 
0.0000000e+00 -2.4305871e-03 0.0000000e+00 
0.0000000e+00 -2.2336338e-03 0.0000000e+00 
0.0000000e+00 -5.7561335e-04 0.0000000e+00 
0.0000000e+00 6.8466630e-05 0.0000000e+00 
0.0000000e+00 2.0834845e-05 0.0000000e+00 
0.0000000e+00 -1.2428054e-05 0.0000000e+00 
0.0000000e+00 -5.5851986e-05 0.0000000e+00 
0.0000000e+00 1.5504524e-04 0.0000000e+00 
0.0000000e+00 1.6595625e-04 0.0000000e+00 
0.0000000e+00 -8.9343049e-04 0.0000000e+00 
0.0000000e+00 -2.3987133e-03 0.0000000e+00 
0.0000000e+00 -2.1899750e-03 0.0000000e+00 
0.0000000e+00 -4.5690674e-04 0.0000000e+00 
0.0000000e+00 1.6159679e-04 0.0000000e+00 
-6.6970160e-06 1.6371522e-06 -8.2127017e-06 
-3.6860965e-06 7.3853344e-06 -1.8513543e-05 
1.1341700e-05 2.3934514e-05 -6.4944779e-06 
2.5756801e-05 5.2523279e-05 2.1706679e-05 
5.5076871e-05 -3.9624101e-05 1.7557286e-05 
5.1778356e-05 -1.1129590e-04 6.7175215e-06 
3.9875576e-05 -1.2029846e-04 1.1350587e-05 
3.1584157e-05 -6.7770277e-05 -4.2740480e-06 
5.7620759e-06 8.2390316e-06 -2.6558120e-05 
3.2523866e-07 2.8128511e-06 -1.5876569e-05 
-1.6179902e-05 -6.6353341e-06 -9.6002623e-07 
-9.4406769e-06 -6.9090756e-06 -6.0460065e-06 
1.0317856e-05 2.0093152e-05 -8.2074866e-06 
1.7622100e-05 5.2826501e-05 1.2475110e-05 
5.9948296e-05 -4.2548218e-05 1.3823174e-05 
6.5526772e-05 -9.9918034e-05 9.2150476e-06 
4.8881946e-05 -1.1328077e-04 2.4087049e-05 
-7.0922824e-06 1.6032860e-05 -2.3775277e-05 
-3.1555192e-05 -2.3537908e-04 -1.1555023e-04 
0.0000000e+00 0.0000000e+00 0.0000000e+00 
0.0000000e+00 0.0000000e+00 0.0000000e+00 
0.0000000e+00 0.0000000e+00 0.0000000e+00 
0.0000000e+00 0.0000000e+00 0.0000000e+00 
0.0000000e+00 0.0000000e+00 0.0000000e+00 
0.0000000e+00 0.0000000e+00 0.0000000e+00 
0.0000000e+00 0.0000000e+00 0.0000000e+00 
0.0000000e+00 0.0000000e+00 0.0000000e+00 
0.0000000e+00 0.0000000e+00 0.0000000e+00 
0.0000000e+00 0.0000000e+00 0.0000000e+00 
0.0000000e+00 0.0000000e+00 0.0000000e+00 
0.0000000e+00 0.0000000e+00 0.0000000e+00 
0.0000000e+00 0.0000000e+00 0.0000000e+00 
0.0000000e+00 0.0000000e+00 0.0000000e+00 
0.0000000e+00 0.0000000e+00 0.0000000e+00 
0.0000000e+00 0.0000000e+00 0.0000000e+00 
0.0000000e+00 0.0000000e+00 0.0000000e+00 
0.0000000e+00 0.0000000e+00 0.0000000e+00 
0.0000000e+00 0.0000000e+00 0.0000000e+00 
0.0000000e+00 0.0000000e+00 0.0000000e+00 
0.0000000e+00 0.0000000e+00 0.0000000e+00 
0.0000000e+00 0.0000000e+00 0.0000000e+00 
0.0000000e+00 0.0000000e+00 0.0000000e+00 
0.0000000e+00 0.0000000e+00 0.0000000e+00 
0.0000000e+00 0.0000000e+00 0.0000000e+00 
0.0000000e+00 0.0000000e+00 0.0000000e+00 
0.0000000e+00 0.0000000e+00 0.0000000e+00 
0.0000000e+00 0.0000000e+00 0.0000000e+00 
0.0000000e+00 0.0000000e+00 0.0000000e+00 
0.0000000e+00 0.0000000e+00 0.0000000e+00 
0.0000000e+00 0.0000000e+00 0.0000000e+00 
0.0000000e+00 0.0000000e+00 0.0000000e+00 
0.0000000e+00 0.0000000e+00 0.0000000e+00 
0.0000000e+00 0.0000000e+00 0.0000000e+00 
0.0000000e+00 0.0000000e+00 0.0000000e+00 
0.0000000e+00 0.0000000e+00 0.0000000e+00 
0.0000000e+00 0.0000000e+00 0.0000000e+00 
0.0000000e+00 0.0000000e+00 0.0000000e+00 
0.0000000e+00 0.0000000e+00 0.0000000e+00 
0.0000000e+00 0.0000000e+00 0.0000000e+00 
0.0000000e+00 0.0000000e+00 0.0000000e+00 
0.0000000e+00 0.0000000e+00 0.0000000e+00 
1.2492588e-06 -1.0300442e-06 4.1306450e-07 
2.5594034e-05 -8.0938480e-06 4.0550021e-06 
2.2541102e-05 -9.9983345e-06 5.1865427e-06 
-2.2660138e-06 -1.5297821e-06 1.3506575e-06 
-3.5669857e-06 7.8044042e-07 8.2544773e-07 
-2.3618647e-06 2.2168142e-06 -1.1881582e-06 
7.4207060e-06 -7.0735132e-06 -6.5797640e-06 
2.7003243e-05 -1.0672433e-05 -2.3592795e-06 