# vtk DataFile Version 4.0
vtk output
ASCII
DATASET UNSTRUCTURED_GRID
POINTS 662 float
0.0000000e+00 0.0000000e+00 0.0000000e+00 
0.0000000e+00 0.0000000e+00 4.0000000e+01 
5.0000000e+00 0.0000000e+00 0.0000000e+00 
5.0000000e+00 0.0000000e+00 4.0000000e+01 
5.0000000e+00 1.0000000e+00 0.0000000e+00 
5.0000000e+00 1.0000000e+00 4.0000000e+01 
0.0000000e+00 1.0000000e+00 0.0000000e+00 
0.0000000e+00 1.0000000e+00 4.0000000e+01 
5.0000000e+00 2.0000000e+00 0.0000000e+00 
5.0000000e+00 2.0000000e+00 4.0000000e+01 
3.0000000e+00 2.0000000e+00 0.0000000e+00 
3.0000000e+00 2.0000000e+00 4.0000000e+01 
0.0000000e+00 2.0000000e+00 0.0000000e+00 
0.0000000e+00 2.0000000e+00 4.0000000e+01 
1.5000000e+00 3.0000000e+00 0.0000000e+00 
1.5000000e+00 3.0000000e+00 4.0000000e+01 
7.5000000e-01 3.0000000e+00 0.0000000e+00 
7.5000000e-01 3.0000000e+00 4.0000000e+01 
0.0000000e+00 3.0000000e+00 0.0000000e+00 
0.0000000e+00 3.0000000e+00 4.0000000e+01 
7.5000000e-01 3.0000000e+00 5.0000000e-01 
7.5000000e-01 3.0000000e+00 1.0000000e+00 
7.5000000e-01 3.0000000e+00 1.5000000e+00 
7.5000000e-01 3.0000000e+00 2.0000000e+00 
7.5000000e-01 3.0000000e+00 2.5000000e+00 
7.5000000e-01 3.0000000e+00 3.0000000e+00 
7.5000000e-01 3.0000000e+00 3.5000000e+00 
7.5000000e-01 3.0000000e+00 4.0000000e+00 
7.5000000e-01 3.0000000e+00 4.5000000e+00 
7.5000000e-01 3.0000000e+00 5.0000000e+00 
7.5000000e-01 3.0000000e+00 5.5000000e+00 
7.5000000e-01 3.0000000e+00 6.0000000e+00 
7.5000000e-01 3.0000000e+00 6.5000000e+00 
7.5000000e-01 3.0000000e+00 7.0000000e+00 
7.5000000e-01 3.0000000e+00 7.5000000e+00 
7.5000000e-01 3.0000000e+00 8.0000000e+00 
7.5000000e-01 3.0000000e+00 8.5000000e+00 
7.5000000e-01 3.0000000e+00 9.0000000e+00 
7.5000000e-01 3.0000000e+00 9.5000000e+00 
7.5000000e-01 3.0000000e+00 1.0000000e+01 
7.5000000e-01 3.0000000e+00 1.0500000e+01 
7.5000000e-01 3.0000000e+00 1.1000000e+01 
7.5000000e-01 3.0000000e+00 1.1500000e+01 
7.5000000e-01 3.0000000e+00 1.2000000e+01 
7.5000000e-01 3.0000000e+00 1.2500000e+01 
7.5000000e-01 3.0000000e+00 1.3000000e+01 
7.5000000e-01 3.0000000e+00 1.3500000e+01 
7.5000000e-01 3.0000000e+00 1.4000000e+01 
7.5000000e-01 3.0000000e+00 1.4500000e+01 
7.5000000e-01 3.0000000e+00 1.5000000e+01 
7.5000000e-01 3.0000000e+00 1.5500000e+01 
7.5000000e-01 3.0000000e+00 1.6000000e+01 
7.5000000e-01 3.0000000e+00 1.6500000e+01 
7.5000000e-01 3.0000000e+00 1.7000000e+01 
7.5000000e-01 3.0000000e+00 1.7500000e+01 
7.5000000e-01 3.0000000e+00 1.8000000e+01 
7.5000000e-01 3.0000000e+00 1.8500000e+01 
7.5000000e-01 3.0000000e+00 1.9000000e+01 
7.5000000e-01 3.0000000e+00 1.9500000e+01 
7.5000000e-01 3.0000000e+00 2.0000000e+01 
7.5000000e-01 3.0000000e+00 2.0500000e+01 
7.5000000e-01 3.0000000e+00 2.1000000e+01 
7.5000000e-01 3.0000000e+00 2.1500000e+01 
7.5000000e-01 3.0000000e+00 2.2000000e+01 
7.5000000e-01 3.0000000e+00 2.2500000e+01 
7.5000000e-01 3.0000000e+00 2.3000000e+01 
7.5000000e-01 3.0000000e+00 2.3500000e+01 
7.5000000e-01 3.0000000e+00 2.4000000e+01 
7.5000000e-01 3.0000000e+00 2.4500000e+01 
7.5000000e-01 3.0000000e+00 2.5000000e+01 
7.5000000e-01 3.0000000e+00 2.5500000e+01 
7.5000000e-01 3.0000000e+00 2.6000000e+01 
7.5000000e-01 3.0000000e+00 2.6500000e+01 
7.5000000e-01 3.0000000e+00 2.7000000e+01 
7.5000000e-01 3.0000000e+00 2.7500000e+01 
7.5000000e-01 3.0000000e+00 2.8000000e+01 
7.5000000e-01 3.0000000e+00 2.8500000e+01 
7.5000000e-01 3.0000000e+00 2.9000000e+01 
7.5000000e-01 3.0000000e+00 2.9500000e+01 
7.5000000e-01 3.0000000e+00 3.0000000e+01 
7.5000000e-01 3.0000000e+00 3.0500000e+01 
7.5000000e-01 3.0000000e+00 3.1000000e+01 
7.5000000e-01 3.0000000e+00 3.1500000e+01 
7.5000000e-01 3.0000000e+00 3.2000000e+01 
7.5000000e-01 3.0000000e+00 3.2500000e+01 
7.5000000e-01 3.0000000e+00 3.3000000e+01 
7.5000000e-01 3.0000000e+00 3.3500000e+01 
7.5000000e-01 3.0000000e+00 3.4000000e+01 
7.5000000e-01 3.0000000e+00 3.4500000e+01 
7.5000000e-01 3.0000000e+00 3.5000000e+01 
7.5000000e-01 3.0000000e+00 3.5500000e+01 
7.5000000e-01 3.0000000e+00 3.6000000e+01 
7.5000000e-01 3.0000000e+00 3.6500000e+01 
7.5000000e-01 3.0000000e+00 3.7000000e+01 
7.5000000e-01 3.0000000e+00 3.7500000e+01 
7.5000000e-01 3.0000000e+00 3.8000000e+01 
7.5000000e-01 3.0000000e+00 3.8500000e+01 
7.5000000e-01 3.0000000e+00 3.9000000e+01 
7.5000000e-01 3.0000000e+00 3.9500000e+01 
7.5000000e-01 3.0000000e+00 4.0500000e+01 
7.5000000e-01 3.0000000e+00 4.1000000e+01 
7.5000000e-01 3.0000000e+00 4.1500000e+01 
7.5000000e-01 3.0000000e+00 4.2000000e+01 
7.5000000e-01 3.0000000e+00 4.2500000e+01 
7.5000000e-01 3.0000000e+00 4.3000000e+01 
7.5000000e-01 3.0000000e+00 4.3500000e+01 
7.5000000e-01 3.0000000e+00 4.4000000e+01 
7.5000000e-01 3.0000000e+00 4.4500000e+01 
7.5000000e-01 3.0000000e+00 4.5000000e+01 
7.5000000e-01 3.0000000e+00 4.5500000e+01 
7.5000000e-01 3.0000000e+00 4.6000000e+01 
7.5000000e-01 3.0000000e+00 4.6500000e+01 
7.5000000e-01 3.0000000e+00 4.7000000e+01 
7.5000000e-01 3.0000000e+00 4.7500000e+01 
7.5000000e-01 3.0000000e+00 4.8000000e+01 
7.5000000e-01 3.0000000e+00 4.8500000e+01 
7.5000000e-01 3.0000000e+00 4.9000000e+01 
7.5000000e-01 3.0000000e+00 4.9500000e+01 
7.5000000e-01 3.0000000e+00 5.0000000e+01 
7.5000000e-01 3.0250001e+00 0.0000000e+00 
7.5000000e-01 3.0250001e+00 5.0000000e-01 
7.5000000e-01 3.0250001e+00 1.0000000e+00 
7.5000000e-01 3.0250001e+00 1.5000000e+00 
7.5000000e-01 3.0250001e+00 2.0000000e+00 
7.5000000e-01 3.0250001e+00 2.5000000e+00 
7.5000000e-01 3.0250001e+00 3.0000000e+00 
7.5000000e-01 3.0250001e+00 3.5000000e+00 
7.5000000e-01 3.0250001e+00 4.0000000e+00 
7.5000000e-01 3.0250001e+00 4.5000000e+00 
7.5000000e-01 3.0250001e+00 5.0000000e+00 
7.5000000e-01 3.0250001e+00 5.5000000e+00 
7.5000000e-01 3.0250001e+00 6.0000000e+00 
7.5000000e-01 3.0250001e+00 6.5000000e+00 
7.5000000e-01 3.0250001e+00 7.0000000e+00 
7.5000000e-01 3.0250001e+00 7.5000000e+00 
7.5000000e-01 3.0250001e+00 8.0000000e+00 
7.5000000e-01 3.0250001e+00 8.5000000e+00 
7.5000000e-01 3.0250001e+00 9.0000000e+00 
7.5000000e-01 3.0250001e+00 9.5000000e+00 
7.5000000e-01 3.0250001e+00 1.0000000e+01 
7.5000000e-01 3.0250001e+00 1.0500000e+01 
7.5000000e-01 3.0250001e+00 1.1000000e+01 
7.5000000e-01 3.0250001e+00 1.1500000e+01 
7.5000000e-01 3.0250001e+00 1.2000000e+01 
7.5000000e-01 3.0250001e+00 1.2500000e+01 
7.5000000e-01 3.0250001e+00 1.3000000e+01 
7.5000000e-01 3.0250001e+00 1.3500000e+01 
7.5000000e-01 3.0250001e+00 1.4000000e+01 
7.5000000e-01 3.0250001e+00 1.4500000e+01 
7.5000000e-01 3.0250001e+00 1.5000000e+01 
7.5000000e-01 3.0250001e+00 1.5500000e+01 
7.5000000e-01 3.0250001e+00 1.6000000e+01 
7.5000000e-01 3.0250001e+00 1.6500000e+01 
7.5000000e-01 3.0250001e+00 1.7000000e+01 
7.5000000e-01 3.0250001e+00 1.7500000e+01 
7.5000000e-01 3.0250001e+00 1.8000000e+01 
7.5000000e-01 3.0250001e+00 1.8500000e+01 
7.5000000e-01 3.0250001e+00 1.9000000e+01 
7.5000000e-01 3.0250001e+00 1.9500000e+01 
7.5000000e-01 3.0250001e+00 2.0000000e+01 
7.5000000e-01 3.0250001e+00 2.0500000e+01 
7.5000000e-01 3.0250001e+00 2.1000000e+01 
7.5000000e-01 3.0250001e+00 2.1500000e+01 
7.5000000e-01 3.0250001e+00 2.2000000e+01 
7.5000000e-01 3.0250001e+00 2.2500000e+01 
7.5000000e-01 3.0250001e+00 2.3000000e+01 
7.5000000e-01 3.0250001e+00 2.3500000e+01 
7.5000000e-01 3.0250001e+00 2.4000000e+01 
7.5000000e-01 3.0250001e+00 2.4500000e+01 
7.5000000e-01 3.0250001e+00 2.5000000e+01 
7.5000000e-01 3.0250001e+00 2.5500000e+01 
7.5000000e-01 3.0250001e+00 2.6000000e+01 
7.5000000e-01 3.0250001e+00 2.6500000e+01 
7.5000000e-01 3.0250001e+00 2.7000000e+01 
7.5000000e-01 3.0250001e+00 2.7500000e+01 
7.5000000e-01 3.0250001e+00 2.8000000e+01 
7.5000000e-01 3.0250001e+00 2.8500000e+01 
7.5000000e-01 3.0250001e+00 2.9000000e+01 
7.5000000e-01 3.0250001e+00 2.9500000e+01 
7.5000000e-01 3.0250001e+00 3.0000000e+01 
7.5000000e-01 3.0250001e+00 3.0500000e+01 
7.5000000e-01 3.0250001e+00 3.1000000e+01 
7.5000000e-01 3.0250001e+00 3.1500000e+01 
7.5000000e-01 3.0250001e+00 3.2000000e+01 
7.5000000e-01 3.0250001e+00 3.2500000e+01 
7.5000000e-01 3.0250001e+00 3.3000000e+01 
7.5000000e-01 3.0250001e+00 3.3500000e+01 
7.5000000e-01 3.0250001e+00 3.4000000e+01 
7.5000000e-01 3.0250001e+00 3.4500000e+01 
7.5000000e-01 3.0250001e+00 3.5000000e+01 
7.5000000e-01 3.0250001e+00 3.5500000e+01 
7.5000000e-01 3.0250001e+00 3.6000000e+01 
7.5000000e-01 3.0250001e+00 3.6500000e+01 
7.5000000e-01 3.0250001e+00 3.7000000e+01 
7.5000000e-01 3.0250001e+00 3.7500000e+01 
7.5000000e-01 3.0250001e+00 3.8000000e+01 
7.5000000e-01 3.0250001e+00 3.8500000e+01 
7.5000000e-01 3.0250001e+00 3.9000000e+01 
7.5000000e-01 3.0250001e+00 3.9500000e+01 
7.5000000e-01 3.0250001e+00 4.0000000e+01 
7.5000000e-01 3.0250001e+00 4.0500000e+01 
7.5000000e-01 3.0250001e+00 4.1000000e+01 
7.5000000e-01 3.0250001e+00 4.1500000e+01 
7.5000000e-01 3.0250001e+00 4.2000000e+01 
7.5000000e-01 3.0250001e+00 4.2500000e+01 
7.5000000e-01 3.0250001e+00 4.3000000e+01 
7.5000000e-01 3.0250001e+00 4.3500000e+01 
7.5000000e-01 3.0250001e+00 4.4000000e+01 
7.5000000e-01 3.0250001e+00 4.4500000e+01 
7.5000000e-01 3.0250001e+00 4.5000000e+01 
7.5000000e-01 3.0250001e+00 4.5500000e+01 
7.5000000e-01 3.0250001e+00 4.6000000e+01 
7.5000000e-01 3.0250001e+00 4.6500000e+01 
7.5000000e-01 3.0250001e+00 4.7000000e+01 
7.5000000e-01 3.0250001e+00 4.7500000e+01 
7.5000000e-01 3.0250001e+00 4.8000000e+01 
7.5000000e-01 3.0250001e+00 4.8500000e+01 
7.5000000e-01 3.0250001e+00 4.9000000e+01 
7.5000000e-01 3.0250001e+00 4.9500000e+01 
7.5000000e-01 3.0250001e+00 5.0000000e+01 
7.5000000e-01 3.0250001e+00 3.5750000e+01 
3.0000000e+00 2.0000000e+00 3.6000000e+01 
8.0487806e-01 3.0000000e+00 3.6000000e+01 
0.0000000e+00 0.0000000e+00 2.0000000e+00 
0.0000000e+00 0.0000000e+00 4.0000000e+00 
0.0000000e+00 0.0000000e+00 6.0000000e+00 
0.0000000e+00 0.0000000e+00 8.0000000e+00 
0.0000000e+00 0.0000000e+00 1.0000000e+01 
0.0000000e+00 0.0000000e+00 1.2000000e+01 
0.0000000e+00 0.0000000e+00 1.4000000e+01 
[...]
POINT_DATA 662
FIELD FieldData 3
DISPLACEMENT 3 662  float
0.0000000e+00 0.0000000e+00 0.0000000e+00 
0.0000000e+00 0.0000000e+00 0.0000000e+00 
0.0000000e+00 0.0000000e+00 0.0000000e+00 
0.0000000e+00 0.0000000e+00 0.0000000e+00 
9.7026266e-08 -1.4986801e-06 2.7877647e-06 
6.1117527e-05 -1.9799023e-05 -1.9925467e-06 
0.0000000e+00 6.7708775e-06 0.0000000e+00 
0.0000000e+00 -1.2304601e-03 0.0000000e+00 
1.7662436e-06 -3.0027063e-06 2.8591543e-07 
2.7432430e-05 1.4052767e-05 1.2853034e-05 
5.1783087e-07 -6.6938287e-07 -1.4194563e-06 
3.0985000e-05 -3.0195087e-04 2.0866888e-04 
0.0000000e+00 1.1609067e-05 0.0000000e+00 
0.0000000e+00 -3.0937609e-03 0.0000000e+00 
-1.6554840e-06 1.0930856e-05 -2.7127884e-05 
-1.1395796e-03 -3.3949167e-03 1.2465100e-03 
-7.6802717e-06 4.4904977e-05 -2.1278967e-05 
-6.9306989e-04 -1.5332043e-02 2.8083744e-03 
0.0000000e+00 1.6328748e-05 0.0000000e+00 
0.0000000e+00 -6.4836810e-03 0.0000000e+00 
-6.3790831e-06 4.7210608e-05 -2.4388277e-05 
-4.0495875e-06 5.2820837e-05 -2.2626933e-05 
-7.9734627e-07 5.8788417e-05 -1.5889427e-05 
5.1631064e-06 6.2221879e-05 -3.8446424e-06 
8.4312233e-06 6.0685463e-05 9.3346325e-06 
1.3478942e-05 5.1963085e-05 2.1826278e-05 
1.1583114e-05 3.6020294e-05 3.0867355e-05 
9.3979825e-06 1.4317769e-05 3.4072571e-05 
7.2573262e-06 -1.1043743e-05 3.3111839e-05 
8.9175628e-06 -3.7309339e-05 3.1047934e-05 
1.2595344e-05 -6.1534556e-05 3.3956385e-05 
1.1274896e-05 -8.0639620e-05 3.8278726e-05 
1.9117110e-06 -9.1975882e-05 3.8890346e-05 
-8.9594914e-06 -9.4766525e-05 3.2272710e-05 
-1.3503653e-05 -8.8725719e-05 2.3231338e-05 
-1.4925634e-05 -7.5472548e-05 8.4568519e-06 
-1.7064191e-05 -5.5775250e-05 -1.0028633e-05 
-1.8379644e-05 -3.3776898e-05 -2.0869928e-05 
-1.8618970e-05 -1.2471030e-05 -2.2153612e-05 
-1.8017061e-05 6.3507591e-06 -1.6394210e-05 
-1.1960628e-05 2.0789976e-05 -8.2197994e-06 
-7.1572881e-06 3.0786847e-05 -1.3625671e-06 
-1.8247235e-06 3.6206275e-05 -2.8332795e-06 
6.8979598e-06 3.7947324e-05 -6.4584256e-06 
1.4039800e-05 3.6628575e-05 -4.7290223e-06 
2.0389291e-05 3.3726727e-05 -4.1739330e-07 
2.5206684e-05 3.0740965e-05 3.5430587e-06 
2.8563929e-05 2.9180565e-05 7.8752400e-06 
2.8575967e-05 2.9885286e-05 7.3301298e-06 
2.6372862e-05 2.8642913e-05 8.5539186e-06 
2.0593961e-05 1.6415812e-05 1.8073359e-05 
5.7733560e-06 -3.2803426e-05 2.9913223e-05 
-3.5715864e-05 -1.5776700e-04 6.1422055e-05 
-5.0917934e-05 -4.0078032e-04 9.0798669e-05 
-7.3844065e-05 -8.2545256e-04 1.2915203e-04 
-1.2707562e-04 -1.4776693e-03 6.9894042e-05 
-2.7203356e-04 -2.3795525e-03 1.4914390e-04 
-2.7710953e-04 -3.3575140e-03 1.3447521e-04 
-1.7081914e-04 -4.1100811e-03 7.8110963e-05 
-1.3691676e-04 -4.0854821e-03 9.9775913e-05 
-2.6366059e-04 -3.8679205e-03 4.5368648e-05 
-3.2327327e-04 -3.8308429e-03 4.4004839e-05 
-2.1463099e-04 -4.0852265e-03 2.2866858e-05 
-6.5802931e-05 -4.1251285e-03 -1.4090372e-05 
-9.7946344e-05 -3.4566757e-03 -1.0845443e-04 
-1.9423454e-04 -2.4529835e-03 -1.4143919e-04 
-1.8836977e-04 -1.5733556e-03 -1.4105820e-04 
-6.8007495e-05 -8.9950929e-04 -8.8536828e-05 
-3.4590161e-05 -4.6541615e-04 -1.2855053e-04 
-2.3052846e-05 -2.1083535e-04 -1.0374732e-04 
-1.7348842e-05 -7.8226389e-05 -8.5428415e-05 
-1.2173786e-06 -2.0239822e-05 -6.5094893e-05 
1.6532450e-06 -5.9732752e-06 -4.4009830e-05 
6.2249438e-07 -1.1284348e-05 -2.7603865e-05 
-6.4499723e-06 -2.0412808e-05 -2.2198459e-05 
-1.4125806e-05 -2.6373718e-05 -2.1171856e-05 
-1.4278497e-05 -2.5461939e-05 -1.9226716e-05 
-1.2413584e-05 -2.0378848e-05 -1.5185949e-05 
-1.5043001e-05 -1.5192410e-05 -1.0800150e-05 
-1.6980062e-05 -1.1525771e-05 -4.6550795e-06 
-1.5541567e-05 -1.0329194e-05 -3.4469667e-06 
-1.4993610e-05 -1.0044051e-05 -8.6593718e-06 
-4.2462448e-06 -7.8995208e-06 -2.4598623e-05 
8.0157533e-06 -1.4331522e-06 -3.7589394e-05 
2.3455141e-05 1.2435602e-05 -3.1281190e-05 
3.4352975e-05 3.5316691e-05 -1.9456977e-05 
4.0657767e-05 7.0126574e-05 -1.2467628e-05 
4.5364461e-05 1.1724985e-04 -1.5979913e-07 
5.0335955e-05 1.7711284e-04 1.3121014e-05 
5.4437765e-05 2.4488827e-04 3.8020302e-05 
3.3116616e-05 3.1119955e-04 8.6743996e-05 
1.9183613e-05 3.4373289e-04 1.4615590e-04 
-3.2033829e-05 2.8221635e-04 2.1612957e-04 
-4.6032772e-05 3.7070284e-05 2.9326996e-04 
-1.3626146e-04 -5.3456868e-04 4.5101537e-04 
-3.0204351e-04 -1.6630922e-03 7.4707245e-04 
-4.0968572e-04 -3.5513751e-03 1.0272680e-03 
-3.2927562e-04 -6.3530845e-03 1.0905985e-03 
-1.3036242e-04 -1.0110443e-02 3.4742086e-04 
0.0000000e+00 -2.1461682e-02 0.0000000e+00 
0.0000000e+00 -2.7494222e-02 0.0000000e+00 
0.0000000e+00 -3.2323718e-02 0.0000000e+00 
0.0000000e+00 -3.4800742e-02 0.0000000e+00 
0.0000000e+00 -3.4291331e-02 0.0000000e+00 
0.0000000e+00 -3.1398684e-02 0.0000000e+00 
0.0000000e+00 -2.6880465e-02 0.0000000e+00 
0.0000000e+00 -2.1438040e-02 0.0000000e+00 
0.0000000e+00 -1.5686970e-02 0.0000000e+00 
0.0000000e+00 -1.0134275e-02 0.0000000e+00 
0.0000000e+00 -5.1644929e-03 0.0000000e+00 
0.0000000e+00 -1.0328271e-03 0.0000000e+00 
0.0000000e+00 2.1356328e-03 0.0000000e+00 
0.0000000e+00 4.3381541e-03 0.0000000e+00 
0.0000000e+00 5.6753862e-03 0.0000000e+00 
0.0000000e+00 6.3221585e-03 0.0000000e+00 
0.0000000e+00 6.4929184e-03 0.0000000e+00 
0.0000000e+00 6.4072497e-03 0.0000000e+00 
0.0000000e+00 6.2587545e-03 0.0000000e+00 
0.0000000e+00 6.1890893e-03 0.0000000e+00 
0.0000000e+00 4.5007531e-05 0.0000000e+00 
0.0000000e+00 4.7297235e-05 0.0000000e+00 
0.0000000e+00 5.2824464e-05 0.0000000e+00 
0.0000000e+00 5.8774825e-05 0.0000000e+00 
0.0000000e+00 6.2220897e-05 0.0000000e+00 
0.0000000e+00 6.0583356e-05 0.0000000e+00 
0.0000000e+00 5.1903389e-05 0.0000000e+00 
0.0000000e+00 3.6005145e-05 0.0000000e+00 
0.0000000e+00 1.4288987e-05 0.0000000e+00 
0.0000000e+00 -1.1058714e-05 0.0000000e+00 
0.0000000e+00 -3.7330254e-05 0.0000000e+00 
0.0000000e+00 -6.1527477e-05 0.0000000e+00 
0.0000000e+00 -8.0569371e-05 0.0000000e+00 
0.0000000e+00 -9.1968010e-05 0.0000000e+00 
0.0000000e+00 -9.4702678e-05 0.0000000e+00 
0.0000000e+00 -8.8773311e-05 0.0000000e+00 
0.0000000e+00 -7.5299686e-05 0.0000000e+00 
0.0000000e+00 -5.5831555e-05 0.0000000e+00 
0.0000000e+00 -3.3856770e-05 0.0000000e+00 
0.0000000e+00 -1.2474744e-05 0.0000000e+00 
0.0000000e+00 6.2600157e-06 0.0000000e+00 
0.0000000e+00 2.0790978e-05 0.0000000e+00 
0.0000000e+00 3.0752311e-05 0.0000000e+00 
0.0000000e+00 3.6228448e-05 0.0000000e+00 
0.0000000e+00 3.7912345e-05 0.0000000e+00 
0.0000000e+00 3.6638310e-05 0.0000000e+00 
0.0000000e+00 3.3736454e-05 0.0000000e+00 
0.0000000e+00 3.0771153e-05 0.0000000e+00 
0.0000000e+00 2.9398308e-05 0.0000000e+00 
0.0000000e+00 3.0139234e-05 0.0000000e+00 
0.0000000e+00 2.9565552e-05 0.0000000e+00 
0.0000000e+00 1.7102429e-05 0.0000000e+00 
0.0000000e+00 -3.2524757e-05 0.0000000e+00 
0.0000000e+00 -1.5662953e-04 0.0000000e+00 
0.0000000e+00 -4.0139287e-04 0.0000000e+00 
0.0000000e+00 -8.2697277e-04 0.0000000e+00 
0.0000000e+00 -1.4870662e-03 0.0000000e+00 
0.0000000e+00 -2.3872864e-03 0.0000000e+00 
0.0000000e+00 -3.3902358e-03 0.0000000e+00 
0.0000000e+00 -4.1346592e-03 0.0000000e+00 
0.0000000e+00 -4.1171145e-03 0.0000000e+00 
0.0000000e+00 -3.8820482e-03 0.0000000e+00 
0.0000000e+00 -3.8618718e-03 0.0000000e+00 
0.0000000e+00 -4.1051423e-03 0.0000000e+00 
0.0000000e+00 -4.1595707e-03 0.0000000e+00 
0.0000000e+00 -3.4746940e-03 0.0000000e+00 
0.0000000e+00 -2.4713466e-03 0.0000000e+00 
0.0000000e+00 -1.5756063e-03 0.0000000e+00 
0.0000000e+00 -9.0350694e-04 0.0000000e+00 
0.0000000e+00 -4.6526126e-04 0.0000000e+00 
0.0000000e+00 -2.1000915e-04 0.0000000e+00 
0.0000000e+00 -7.7318902e-05 0.0000000e+00 
0.0000000e+00 -1.9891682e-05 0.0000000e+00 
0.0000000e+00 -5.5625392e-06 0.0000000e+00 
0.0000000e+00 -1.0853340e-05 0.0000000e+00 
0.0000000e+00 -2.0260550e-05 0.0000000e+00 
0.0000000e+00 -2.6070118e-05 0.0000000e+00 
0.0000000e+00 -2.5403471e-05 0.0000000e+00 
0.0000000e+00 -2.0516492e-05 0.0000000e+00 
0.0000000e+00 -1.5229326e-05 0.0000000e+00 
0.0000000e+00 -1.1647874e-05 0.0000000e+00 
0.0000000e+00 -1.0395167e-05 0.0000000e+00 
0.0000000e+00 -1.0023034e-05 0.0000000e+00 
0.0000000e+00 -7.9220754e-06 0.0000000e+00 
0.0000000e+00 -1.3592477e-06 0.0000000e+00 
0.0000000e+00 1.2387400e-05 0.0000000e+00 
0.0000000e+00 3.5437406e-05 0.0000000e+00 
0.0000000e+00 7.0137292e-05 0.0000000e+00 
0.0000000e+00 1.1748126e-04 0.0000000e+00 
0.0000000e+00 1.7734930e-04 0.0000000e+00 
0.0000000e+00 2.4602807e-04 0.0000000e+00 
0.0000000e+00 3.1275491e-04 0.0000000e+00 
0.0000000e+00 3.4532780e-04 0.0000000e+00 
0.0000000e+00 2.8531457e-04 0.0000000e+00 
0.0000000e+00 4.1719813e-05 0.0000000e+00 
0.0000000e+00 -5.3646095e-04 0.0000000e+00 
0.0000000e+00 -1.6660676e-03 0.0000000e+00 
0.0000000e+00 -3.5517327e-03 0.0000000e+00 
0.0000000e+00 -6.3608410e-03 0.0000000e+00 
0.0000000e+00 -1.0236665e-02 0.0000000e+00 
0.0000000e+00 -1.5370600e-02 0.0000000e+00 
0.0000000e+00 -2.1461984e-02 0.0000000e+00 
0.0000000e+00 -2.7494607e-02 0.0000000e+00 
0.0000000e+00 -3.2323726e-02 0.0000000e+00 
0.0000000e+00 -3.4800489e-02 0.0000000e+00 
0.0000000e+00 -3.4292508e-02 0.0000000e+00 
0.0000000e+00 -3.1401306e-02 0.0000000e+00 
0.0000000e+00 -2.6884373e-02 0.0000000e+00 
0.0000000e+00 -2.1442879e-02 0.0000000e+00 
0.0000000e+00 -1.5692368e-02 0.0000000e+00 
0.0000000e+00 -1.0139968e-02 0.0000000e+00 
0.0000000e+00 -5.1702205e-03 0.0000000e+00 
0.0000000e+00 -1.0381832e-03 0.0000000e+00 
0.0000000e+00 2.1311592e-03 0.0000000e+00 
0.0000000e+00 4.3349890e-03 0.0000000e+00 
0.0000000e+00 5.6737228e-03 0.0000000e+00 
0.0000000e+00 6.3219746e-03 0.0000000e+00 
0.0000000e+00 6.4940881e-03 0.0000000e+00 
0.0000000e+00 6.4095836e-03 0.0000000e+00 
0.0000000e+00 6.2619280e-03 0.0000000e+00 
0.0000000e+00 6.1925808e-03 0.0000000e+00 
0.0000000e+00 3.3691284e-04 0.0000000e+00 
1.2251254e-05 4.4729746e-05 3.2076452e-05 
5.6097297e-06 3.0941662e-04 1.5657255e-04 
0.0000000e+00 0.0000000e+00 0.0000000e+00 
0.0000000e+00 0.0000000e+00 0.0000000e+00 
0.0000000e+00 0.0000000e+00 0.0000000e+00 
0.0000000e+00 0.0000000e+00 0.0000000e+00 
0.0000000e+00 0.0000000e+00 0.0000000e+00 
0.0000000e+00 0.0000000e+00 0.0000000e+00 
0.0000000e+00 0.0000000e+00 0.0000000e+00 
0.0000000e+00 0.0000000e+00 0.0000000e+00 
0.0000000e+00 0.0000000e+00 0.0000000e+00 
0.0000000e+00 0.0000000e+00 0.0000000e+00 
0.0000000e+00 0.0000000e+00 0.0000000e+00 
0.0000000e+00 0.0000000e+00 0.0000000e+00 
0.0000000e+00 0.0000000e+00 0.0000000e+00 
0.0000000e+00 0.0000000e+00 0.0000000e+00 
0.0000000e+00 0.0000000e+00 0.0000000e+00 
0.0000000e+00 0.0000000e+00 0.0000000e+00 
0.0000000e+00 0.0000000e+00 0.0000000e+00 
0.0000000e+00 0.0000000e+00 0.0000000e+00 
0.0000000e+00 0.0000000e+00 0.0000000e+00 
0.0000000e+00 0.0000000e+00 0.0000000e+00 
0.0000000e+00 0.0000000e+00 0.0000000e+00 
0.0000000e+00 0.0000000e+00 0.0000000e+00 
0.0000000e+00 0.0000000e+00 0.0000000e+00 
0.0000000e+00 0.0000000e+00 0.0000000e+00 
0.0000000e+00 0.0000000e+00 0.0000000e+00 
0.0000000e+00 0.0000000e+00 0.0000000e+00 
0.0000000e+00 0.0000000e+00 0.0000000e+00 
0.0000000e+00 0.0000000e+00 0.0000000e+00 
0.0000000e+00 0.0000000e+00 0.0000000e+00 
0.0000000e+00 0.0000000e+00 0.0000000e+00 
0.0000000e+00 0.0000000e+00 0.0000000e+00 
0.0000000e+00 0.0000000e+00 0.0000000e+00 
0.0000000e+00 0.0000000e+00 0.0000000e+00 
0.0000000e+00 0.0000000e+00 0.0000000e+00 
0.0000000e+00 0.0000000e+00 0.0000000e+00 
0.0000000e+00 0.0000000e+00 0.0000000e+00 
0.0000000e+00 0.0000000e+00 0.0000000e+00 
0.0000000e+00 0.0000000e+00 0.0000000e+00 
0.0000000e+00 0.0000000e+00 0.0000000e+00 
0.0000000e+00 0.0000000e+00 0.0000000e+00 
0.0000000e+00 0.0000000e+00 0.0000000e+00 
0.0000000e+00 0.0000000e+00 0.0000000e+00 
-3.0604604e-06 2.4773110e-06 1.8047889e-06 
-2.7752062e-06 2.9285020e-06 -1.2386737e-06 
2.0643470e-06 -6.0500264e-07 1.4083920e-06 
4.0356645e-06 -2.7168198e-06 4.3063701e-06 
-2.1554465e-06 -2.2770651e-06 6.7453898e-06 
-7.7089207e-06 4.0598877e-07 1.1456478e-06 
-2.6278938e-06 -4.9802048e-07 -7.2187677e-06 
1.1204109e-05 -3.7342595e-06 -1.1470024e-05 
3.3710639e-05 -5.7003595e-06 -1.2077734e-05 
4.9140934e-05 -4.5655747e-06 -3.3368167e-06 
4.4151744e-05 -5.6254285e-06 7.6547885e-06 
2.4788307e-05 -4.7907329e-06 4.2027013e-06 
7.8727435e-06 -1.8662155e-06 3.0771805e-06 
4.5057908e-07 -6.1810050e-07 3.0717194e-06 
-4.0395466e-06 -9.4954068e-08 4.0421414e-06 
-9.8524742e-06 1.6540985e-06 2.5263446e-06 
-8.5530492e-06 -2.7411106e-08 5.0997123e-06 
7.3194128e-06 4.5136867e-06 4.1200296e-06 
3.4641587e-05 1.8619570e-06 -6.4697092e-06 
0.0000000e+00 2.0944139e-05 0.0000000e+00 
0.0000000e+00 6.7564356e-06 0.0000000e+00 
0.0000000e+00 -2.2752383e-05 0.0000000e+00 
0.0000000e+00 -2.5923486e-05 0.0000000e+00 
0.0000000e+00 3.6712127e-06 0.0000000e+00 
0.0000000e+00 1.0737405e-05 0.0000000e+00 
0.0000000e+00 8.0136169e-06 0.0000000e+00 
0.0000000e+00 -2.8703529e-05 0.0000000e+00 
0.0000000e+00 -2.2744681e-04 0.0000000e+00 
0.0000000e+00 -5.1572721e-04 0.0000000e+00 
0.0000000e+00 -4.8751495e-04 0.0000000e+00 
0.0000000e+00 -1.8226844e-04 0.0000000e+00 
0.0000000e+00 -2.9560677e-05 0.0000000e+00 
0.0000000e+00 -3.2684666e-06 0.0000000e+00 
0.0000000e+00 -3.9516954e-06 0.0000000e+00 
0.0000000e+00 -7.3298052e-06 0.0000000e+00 
0.0000000e+00 2.8367869e-05 0.0000000e+00 
0.0000000e+00 5.5401531e-05 0.0000000e+00 
0.0000000e+00 -3.1601189e-04 0.0000000e+00 
-1.6052624e-06 -3.7394770e-07 2.7617812e-06 
-1.8140092e-06 3.6707968e-06 2.9701441e-06 
1.0099327e-04 -1.0804785e-04 5.5215609e-05 
2.6635214e-04 -7.1449473e-04 7.5211115e-05 
-6.8921656e-07 2.2533454e-06 1.1617111e-06 
-3.0759691e-06 2.9886544e-06 1.0168429e-06 
2.4169017e-07 -9.0477243e-08 4.4304957e-06 
1.8784423e-06 -3.3321144e-06 6.4135829e-06 
-2.3936714e-06 -4.6525024e-06 6.2153676e-06 
-7.1091126e-06 8.0734804e-07 6.6699033e-07 
-3.4885873e-06 1.1061870e-06 -9.4963889e-06 
1.8519200e-05 -3.4761085e-06 -1.5985910e-05 
3.3130098e-05 -3.8856833e-06 -9.1785168e-06 
3.8504109e-05 -3.4077786e-06 -1.9555932e-06 
2.8405921e-05 -3.4350996e-06 1.0735075e-05 
1.2592525e-05 -1.3950835e-06 1.7317890e-07 
4.6936907e-06 -1.0176667e-06 1.4117443e-08 
-1.3449470e-06 -2.4812950e-06 2.7451119e-06 
-4.6871032e-06 -2.3110792e-06 4.1720009e-06 
-1.2279281e-05 1.7211562e-06 3.5314577e-06 
-3.8077289e-06 -1.1351670e-07 1.4346301e-06 
1.8319031e-05 5.0882868e-06 5.5289456e-06 
1.9928759e-05 1.6265089e-05 2.1736667e-05 
-9.6851500e-07 1.0435446e-05 -3.2907783e-06 
0.0000000e+00 4.1341606e-05 0.0000000e+00 
0.0000000e+00 1.3392175e-05 0.0000000e+00 
0.0000000e+00 -4.3608663e-05 0.0000000e+00 
0.0000000e+00 -4.7496444e-05 0.0000000e+00 
0.0000000e+00 8.7860926e-06 0.0000000e+00 
0.0000000e+00 2.0322337e-05 0.0000000e+00 
0.0000000e+00 1.4858068e-05 0.0000000e+00 
0.0000000e+00 -4.3420663e-05 0.0000000e+00 
0.0000000e+00 -4.7793571e-04 0.0000000e+00 
0.0000000e+00 -1.1531165e-03 0.0000000e+00 
0.0000000e+00 -1.0952121e-03 0.0000000e+00 
0.0000000e+00 -3.4447885e-04 0.0000000e+00 
0.0000000e+00 -3.9912713e-05 0.0000000e+00 
0.0000000e+00 -8.1380340e-06 0.0000000e+00 
0.0000000e+00 -6.2188383e-06 0.0000000e+00 
0.0000000e+00 -1.1201581e-05 0.0000000e+00 
0.0000000e+00 5.6159330e-05 0.0000000e+00 
0.0000000e+00 1.2553250e-04 0.0000000e+00 
0.0000000e+00 -4.9007440e-04 0.0000000e+00 
2.8761255e-04 -1.4850176e-03 2.5776090e-04 
2.9714358e-06 4.9865605e-05 -8.5866814e-06 
1.0642020e-05 6.1375208e-06 4.9166480e-05 
1.0208149e-05 -6.5436259e-05 4.9307433e-05 
-2.1994427e-05 -5.5636108e-05 3.5068549e-06 
-2.2142698e-05 2.2376373e-06 -2.0602667e-05 
3.4493871e-06 3.2387288e-05 -2.3528140e-05 
4.4933116e-05 2.0329956e-06 1.2624775e-05 
1.8811053e-05 1.1399412e-05 5.3821586e-05 
-2.8932176e-04 -4.5464415e-04 2.4948962e-04 
-6.8750605e-04 -1.2897083e-03 8.8094115e-05 
-6.0930901e-04 -1.3867184e-03 -8.4472624e-05 
-1.4789359e-04 -3.0262992e-04 -2.1203962e-04 
6.7944302e-06 -2.5598189e-05 -7.4623342e-05 
-1.8338320e-05 -2.7327058e-05 -2.3540391e-05 
-2.1225627e-05 -1.0947129e-05 -7.9293632e-06 
1.3764303e-06 3.8809299e-06 -5.3710031e-05 
6.7499146e-05 5.3382028e-05 -2.2248538e-05 
5.1022114e-05 1.6906938e-04 1.7673330e-04 
-4.2918159e-04 -4.3321293e-04 8.1125734e-04 
0.0000000e+00 5.9095713e-05 0.0000000e+00 
0.0000000e+00 1.9452120e-05 0.0000000e+00 
0.0000000e+00 -7.4614531e-05 0.0000000e+00 
0.0000000e+00 -6.6021261e-05 0.0000000e+00 
0.0000000e+00 1.6283471e-05 0.0000000e+00 
0.0000000e+00 2.7700733e-05 0.0000000e+00 
0.0000000e+00 1.8943771e-05 0.0000000e+00 
0.0000000e+00 -2.3846746e-05 0.0000000e+00 
0.0000000e+00 -8.9531770e-04 0.0000000e+00 
0.0000000e+00 -2.2681367e-03 0.0000000e+00 
0.0000000e+00 -2.1100224e-03 0.0000000e+00 
0.0000000e+00 -5.7550304e-04 0.0000000e+00 
0.0000000e+00 -2.5486303e-05 0.0000000e+00 
0.0000000e+00 -1.2556109e-05 0.0000000e+00 
0.0000000e+00 -8.9865371e-06 0.0000000e+00 
0.0000000e+00 -1.3924055e-05 0.0000000e+00 
0.0000000e+00 6.2632440e-05 0.0000000e+00 
0.0000000e+00 2.8293609e-04 0.0000000e+00 
0.0000000e+00 -9.4617665e-04 0.0000000e+00 
-3.5373948e-06 1.2846679e-05 -2.8817715e-06 
-3.6450447e-07 2.4198141e-06 6.3967823e-06 
2.6592581e-06 -1.5702062e-05 1.3160378e-05 
-4.6585387e-06 -1.7517934e-05 6.6229281e-06 
-1.3674631e-05 -7.1524084e-07 2.4914932e-06 
-6.7612732e-06 8.9212926e-06 -4.0758437e-06 
1.0326691e-05 2.9716186e-06 -1.5171477e-06 
2.3533579e-05 1.8739507e-05 5.6749568e-06 
5.4320320e-05 -4.6040368e-05 -4.6533046e-06 
5.5263739e-05 -8.4471205e-05 -1.0147041e-05 
4.2057745e-05 -9.0897600e-05 7.9047622e-06 
3.8077626e-05 -6.2350009e-05 2.4887320e-06 
3.5607604e-06 -6.3442913e-06 -1.0247603e-05 
-9.7218172e-06 -6.9425946e-06 -8.5832407e-06 
-1.2249073e-05 -2.0173961e-06 -3.7098625e-06 
-1.0567994e-05 -2.8992606e-06 -1.3350025e-06 
8.1662565e-06 1.8206380e-05 5.7097272e-06 
5.2526782e-05 3.5414168e-06 5.3464322e-05 
3.1520227e-05 9.8648503e-05 1.2449878e-04 
0.0000000e+00 0.0000000e+00 0.0000000e+00 
0.0000000e+00 0.0000000e+00 0.0000000e+00 
0.0000000e+00 0.0000000e+00 0.0000000e+00 
0.0000000e+00 0.0000000e+00 0.0000000e+00 
0.0000000e+00 0.0000000e+00 0.0000000e+00 
0.0000000e+00 0.0000000e+00 0.0000000e+00 
0.0000000e+00 0.0000000e+00 0.0000000e+00 
0.0000000e+00 0.0000000e+00 0.0000000e+00 
0.0000000e+00 0.0000000e+00 0.0000000e+00 
0.0000000e+00 0.0000000e+00 0.0000000e+00 
0.0000000e+00 0.0000000e+00 0.0000000e+00 
0.0000000e+00 0.0000000e+00 0.0000000e+00 
0.0000000e+00 0.0000000e+00 0.0000000e+00 
0.0000000e+00 0.0000000e+00 0.0000000e+00 
0.0000000e+00 0.0000000e+00 0.0000000e+00 
0.0000000e+00 0.0000000e+00 0.0000000e+00 
0.0000000e+00 0.0000000e+00 0.0000000e+00 
0.0000000e+00 0.0000000e+00 0.0000000e+00 
0.0000000e+00 0.0000000e+00 0.0000000e+00 
0.0000000e+00 0.0000000e+00 0.0000000e+00 
0.0000000e+00 0.0000000e+00 0.0000000e+00 
0.0000000e+00 0.0000000e+00 0.0000000e+00 
0.0000000e+00 0.0000000e+00 0.0000000e+00 
0.0000000e+00 0.0000000e+00 0.0000000e+00 
0.0000000e+00 0.0000000e+00 0.0000000e+00 
0.0000000e+00 0.0000000e+00 0.0000000e+00 
0.0000000e+00 0.0000000e+00 0.0000000e+00 
0.0000000e+00 0.0000000e+00 0.0000000e+00 
0.0000000e+00 0.0000000e+00 0.0000000e+00 
0.0000000e+00 0.0000000e+00 0.0000000e+00 
0.0000000e+00 0.0000000e+00 0.0000000e+00 
0.0000000e+00 0.0000000e+00 0.0000000e+00 
0.0000000e+00 0.0000000e+00 0.0000000e+00 
0.0000000e+00 0.0000000e+00 0.0000000e+00 
0.0000000e+00 0.0000000e+00 0.0000000e+00 
0.0000000e+00 0.0000000e+00 0.0000000e+00 
0.0000000e+00 0.0000000e+00 0.0000000e+00 
0.0000000e+00 0.0000000e+00 0.0000000e+00 
0.0000000e+00 0.0000000e+00 0.0000000e+00 
0.0000000e+00 0.0000000e+00 0.0000000e+00 
0.0000000e+00 0.0000000e+00 0.0000000e+00 
0.0000000e+00 0.0000000e+00 0.0000000e+00 
-1.6702061e-06 7.9299156e-07 2.0508223e-06 
-2.7788119e-06 -5.1894835e-07 -1.7853879e-06 
2.3575981e-06 -1.4510107e-06 -3.3766823e-06 
2.1264046e-05 -8.9093310e-06 3.1759598e-06 
8.1364551e-06 -3.5369810e-06 1.4871407e-06 
2.0056200e-06 -1.0290915e-06 8.3969445e-07 
-5.5131926e-07 2.6826550e-07 3.0819795e-06 
-3.6994782e-06 8.1420541e-07 9.2245853e-07 