# vtk DataFile Version 4.0
vtk output
ASCII
DATASET UNSTRUCTURED_GRID
POINTS 662 float
0.0000000e+00 0.0000000e+00 0.0000000e+00 
0.0000000e+00 0.0000000e+00 4.0000000e+01 
5.0000000e+00 0.0000000e+00 0.0000000e+00 
5.0000000e+00 0.0000000e+00 4.0000000e+01 
5.0000000e+00 1.0000000e+00 0.0000000e+00 
5.0000000e+00 1.0000000e+00 4.0000000e+01 
0.0000000e+00 1.0000000e+00 0.0000000e+00 
0.0000000e+00 1.0000000e+00 4.0000000e+01 
5.0000000e+00 2.0000000e+00 0.0000000e+00 
5.0000000e+00 2.0000000e+00 4.0000000e+01 
3.0000000e+00 2.0000000e+00 0.0000000e+00 
3.0000000e+00 2.0000000e+00 4.0000000e+01 
0.0000000e+00 2.0000000e+00 0.0000000e+00 
0.0000000e+00 2.0000000e+00 4.0000000e+01 
1.5000000e+00 3.0000000e+00 0.0000000e+00 
1.5000000e+00 3.0000000e+00 4.0000000e+01 
7.5000000e-01 3.0000000e+00 0.0000000e+00 
7.5000000e-01 3.0000000e+00 4.0000000e+01 
0.0000000e+00 3.0000000e+00 0.0000000e+00 
0.0000000e+00 3.0000000e+00 4.0000000e+01 
7.5000000e-01 3.0000000e+00 5.0000000e-01 
7.5000000e-01 3.0000000e+00 1.0000000e+00 
7.5000000e-01 3.0000000e+00 1.5000000e+00 
7.5000000e-01 3.0000000e+00 2.0000000e+00 
7.5000000e-01 3.0000000e+00 2.5000000e+00 
7.5000000e-01 3.0000000e+00 3.0000000e+00 
7.5000000e-01 3.0000000e+00 3.5000000e+00 
7.5000000e-01 3.0000000e+00 4.0000000e+00 
7.5000000e-01 3.0000000e+00 4.5000000e+00 
7.5000000e-01 3.0000000e+00 5.0000000e+00 
7.5000000e-01 3.0000000e+00 5.5000000e+00 
7.5000000e-01 3.0000000e+00 6.0000000e+00 
7.5000000e-01 3.0000000e+00 6.5000000e+00 
7.5000000e-01 3.0000000e+00 7.0000000e+00 
7.5000000e-01 3.0000000e+00 7.5000000e+00 
7.5000000e-01 3.0000000e+00 8.0000000e+00 
7.5000000e-01 3.0000000e+00 8.5000000e+00 
7.5000000e-01 3.0000000e+00 9.0000000e+00 
7.5000000e-01 3.0000000e+00 9.5000000e+00 
7.5000000e-01 3.0000000e+00 1.0000000e+01 
7.5000000e-01 3.0000000e+00 1.0500000e+01 
7.5000000e-01 3.0000000e+00 1.1000000e+01 
7.5000000e-01 3.0000000e+00 1.1500000e+01 
7.5000000e-01 3.0000000e+00 1.2000000e+01 
7.5000000e-01 3.0000000e+00 1.2500000e+01 
7.5000000e-01 3.0000000e+00 1.3000000e+01 
7.5000000e-01 3.0000000e+00 1.3500000e+01 
7.5000000e-01 3.0000000e+00 1.4000000e+01 
7.5000000e-01 3.0000000e+00 1.4500000e+01 
7.5000000e-01 3.0000000e+00 1.5000000e+01 
7.5000000e-01 3.0000000e+00 1.5500000e+01 
7.5000000e-01 3.0000000e+00 1.6000000e+01 
7.5000000e-01 3.0000000e+00 1.6500000e+01 
7.5000000e-01 3.0000000e+00 1.7000000e+01 
7.5000000e-01 3.0000000e+00 1.7500000e+01 
7.5000000e-01 3.0000000e+00 1.8000000e+01 
7.5000000e-01 3.0000000e+00 1.8500000e+01 
7.5000000e-01 3.0000000e+00 1.9000000e+01 
7.5000000e-01 3.0000000e+00 1.9500000e+01 
7.5000000e-01 3.0000000e+00 2.0000000e+01 
7.5000000e-01 3.0000000e+00 2.0500000e+01 
7.5000000e-01 3.0000000e+00 2.1000000e+01 
7.5000000e-01 3.0000000e+00 2.1500000e+01 
7.5000000e-01 3.0000000e+00 2.2000000e+01 
7.5000000e-01 3.0000000e+00 2.2500000e+01 
7.5000000e-01 3.0000000e+00 2.3000000e+01 
7.5000000e-01 3.0000000e+00 2.3500000e+01 
7.5000000e-01 3.0000000e+00 2.4000000e+01 
7.5000000e-01 3.0000000e+00 2.4500000e+01 
7.5000000e-01 3.0000000e+00 2.5000000e+01 
7.5000000e-01 3.0000000e+00 2.5500000e+01 
7.5000000e-01 3.0000000e+00 2.6000000e+01 
7.5000000e-01 3.0000000e+00 2.6500000e+01 
7.5000000e-01 3.0000000e+00 2.7000000e+01 
7.5000000e-01 3.0000000e+00 2.7500000e+01 
7.5000000e-01 3.0000000e+00 2.8000000e+01 
7.5000000e-01 3.0000000e+00 2.8500000e+01 
7.5000000e-01 3.0000000e+00 2.9000000e+01 
7.5000000e-01 3.0000000e+00 2.9500000e+01 
7.5000000e-01 3.0000000e+00 3.0000000e+01 
7.5000000e-01 3.0000000e+00 3.0500000e+01 
7.5000000e-01 3.0000000e+00 3.1000000e+01 
7.5000000e-01 3.0000000e+00 3.1500000e+01 
7.5000000e-01 3.0000000e+00 3.2000000e+01 
7.5000000e-01 3.0000000e+00 3.2500000e+01 
7.5000000e-01 3.0000000e+00 3.3000000e+01 
7.5000000e-01 3.0000000e+00 3.3500000e+01 
7.5000000e-01 3.0000000e+00 3.4000000e+01 
7.5000000e-01 3.0000000e+00 3.4500000e+01 
7.5000000e-01 3.0000000e+00 3.5000000e+01 
7.5000000e-01 3.0000000e+00 3.5500000e+01 
7.5000000e-01 3.0000000e+00 3.6000000e+01 
7.5000000e-01 3.0000000e+00 3.6500000e+01 
7.5000000e-01 3.0000000e+00 3.7000000e+01 
7.5000000e-01 3.0000000e+00 3.7500000e+01 
7.5000000e-01 3.0000000e+00 3.8000000e+01 
7.5000000e-01 3.0000000e+00 3.8500000e+01 
7.5000000e-01 3.0000000e+00 3.9000000e+01 
7.5000000e-01 3.0000000e+00 3.9500000e+01 
7.5000000e-01 3.0000000e+00 4.0500000e+01 
7.5000000e-01 3.0000000e+00 4.1000000e+01 
7.5000000e-01 3.0000000e+00 4.1500000e+01 
7.5000000e-01 3.0000000e+00 4.2000000e+01 
7.5000000e-01 3.0000000e+00 4.2500000e+01 
7.5000000e-01 3.0000000e+00 4.3000000e+01 
7.5000000e-01 3.0000000e+00 4.3500000e+01 
7.5000000e-01 3.0000000e+00 4.4000000e+01 
7.5000000e-01 3.0000000e+00 4.4500000e+01 
7.5000000e-01 3.0000000e+00 4.5000000e+01 
7.5000000e-01 3.0000000e+00 4.5500000e+01 
7.5000000e-01 3.0000000e+00 4.6000000e+01 
7.5000000e-01 3.0000000e+00 4.6500000e+01 
7.5000000e-01 3.0000000e+00 4.7000000e+01 
7.5000000e-01 3.0000000e+00 4.7500000e+01 
7.5000000e-01 3.0000000e+00 4.8000000e+01 
7.5000000e-01 3.0000000e+00 4.8500000e+01 
7.5000000e-01 3.0000000e+00 4.9000000e+01 
7.5000000e-01 3.0000000e+00 4.9500000e+01 
7.5000000e-01 3.0000000e+00 5.0000000e+01 
7.5000000e-01 3.0250001e+00 0.0000000e+00 
7.5000000e-01 3.0250001e+00 5.0000000e-01 
7.5000000e-01 3.0250001e+00 1.0000000e+00 
7.5000000e-01 3.0250001e+00 1.5000000e+00 
7.5000000e-01 3.0250001e+00 2.0000000e+00 
7.5000000e-01 3.0250001e+00 2.5000000e+00 
7.5000000e-01 3.0250001e+00 3.0000000e+00 
7.5000000e-01 3.0250001e+00 3.5000000e+00 
7.5000000e-01 3.0250001e+00 4.0000000e+00 
7.5000000e-01 3.0250001e+00 4.5000000e+00 
7.5000000e-01 3.0250001e+00 5.0000000e+00 
7.5000000e-01 3.0250001e+00 5.5000000e+00 
7.5000000e-01 3.0250001e+00 6.0000000e+00 
7.5000000e-01 3.0250001e+00 6.5000000e+00 
7.5000000e-01 3.0250001e+00 7.0000000e+00 
7.5000000e-01 3.0250001e+00 7.5000000e+00 
7.5000000e-01 3.0250001e+00 8.0000000e+00 
7.5000000e-01 3.0250001e+00 8.5000000e+00 
7.5000000e-01 3.0250001e+00 9.0000000e+00 
7.5000000e-01 3.0250001e+00 9.5000000e+00 
7.5000000e-01 3.0250001e+00 1.0000000e+01 
7.5000000e-01 3.0250001e+00 1.0500000e+01 
7.5000000e-01 3.0250001e+00 1.1000000e+01 
7.5000000e-01 3.0250001e+00 1.1500000e+01 
7.5000000e-01 3.0250001e+00 1.2000000e+01 
7.5000000e-01 3.0250001e+00 1.2500000e+01 
7.5000000e-01 3.0250001e+00 1.3000000e+01 
7.5000000e-01 3.0250001e+00 1.3500000e+01 
7.5000000e-01 3.0250001e+00 1.4000000e+01 
7.5000000e-01 3.0250001e+00 1.4500000e+01 
7.5000000e-01 3.0250001e+00 1.5000000e+01 
7.5000000e-01 3.0250001e+00 1.5500000e+01 
7.5000000e-01 3.0250001e+00 1.6000000e+01 
7.5000000e-01 3.0250001e+00 1.6500000e+01 
7.5000000e-01 3.0250001e+00 1.7000000e+01 
7.5000000e-01 3.0250001e+00 1.7500000e+01 
7.5000000e-01 3.0250001e+00 1.8000000e+01 
7.5000000e-01 3.0250001e+00 1.8500000e+01 
7.5000000e-01 3.0250001e+00 1.9000000e+01 
7.5000000e-01 3.0250001e+00 1.9500000e+01 
7.5000000e-01 3.0250001e+00 2.0000000e+01 
7.5000000e-01 3.0250001e+00 2.0500000e+01 
7.5000000e-01 3.0250001e+00 2.1000000e+01 
7.5000000e-01 3.0250001e+00 2.1500000e+01 
7.5000000e-01 3.0250001e+00 2.2000000e+01 
7.5000000e-01 3.0250001e+00 2.2500000e+01 
7.5000000e-01 3.0250001e+00 2.3000000e+01 
7.5000000e-01 3.0250001e+00 2.3500000e+01 
7.5000000e-01 3.0250001e+00 2.4000000e+01 
7.5000000e-01 3.0250001e+00 2.4500000e+01 
7.5000000e-01 3.0250001e+00 2.5000000e+01 
7.5000000e-01 3.0250001e+00 2.5500000e+01 
7.5000000e-01 3.0250001e+00 2.6000000e+01 
7.5000000e-01 3.0250001e+00 2.6500000e+01 
7.5000000e-01 3.0250001e+00 2.7000000e+01 
7.5000000e-01 3.0250001e+00 2.7500000e+01 
7.5000000e-01 3.0250001e+00 2.8000000e+01 
7.5000000e-01 3.0250001e+00 2.8500000e+01 
7.5000000e-01 3.0250001e+00 2.9000000e+01 
7.5000000e-01 3.0250001e+00 2.9500000e+01 
7.5000000e-01 3.0250001e+00 3.0000000e+01 
7.5000000e-01 3.0250001e+00 3.0500000e+01 
7.5000000e-01 3.0250001e+00 3.1000000e+01 
7.5000000e-01 3.0250001e+00 3.1500000e+01 
7.5000000e-01 3.0250001e+00 3.2000000e+01 
7.5000000e-01 3.0250001e+00 3.2500000e+01 
7.5000000e-01 3.0250001e+00 3.3000000e+01 
7.5000000e-01 3.0250001e+00 3.3500000e+01 
7.5000000e-01 3.0250001e+00 3.4000000e+01 
7.5000000e-01 3.0250001e+00 3.4500000e+01 
7.5000000e-01 3.0250001e+00 3.5000000e+01 
7.5000000e-01 3.0250001e+00 3.5500000e+01 
7.5000000e-01 3.0250001e+00 3.6000000e+01 
7.5000000e-01 3.0250001e+00 3.6500000e+01 
7.5000000e-01 3.0250001e+00 3.7000000e+01 
7.5000000e-01 3.0250001e+00 3.7500000e+01 
7.5000000e-01 3.0250001e+00 3.8000000e+01 
7.5000000e-01 3.0250001e+00 3.8500000e+01 
7.5000000e-01 3.0250001e+00 3.9000000e+01 
7.5000000e-01 3.0250001e+00 3.9500000e+01 
7.5000000e-01 3.0250001e+00 4.0000000e+01 
7.5000000e-01 3.0250001e+00 4.0500000e+01 
7.5000000e-01 3.0250001e+00 4.1000000e+01 
7.5000000e-01 3.0250001e+00 4.1500000e+01 
7.5000000e-01 3.0250001e+00 4.2000000e+01 
7.5000000e-01 3.0250001e+00 4.2500000e+01 
7.5000000e-01 3.0250001e+00 4.3000000e+01 
7.5000000e-01 3.0250001e+00 4.3500000e+01 
7.5000000e-01 3.0250001e+00 4.4000000e+01 
7.5000000e-01 3.0250001e+00 4.4500000e+01 
7.5000000e-01 3.0250001e+00 4.5000000e+01 
7.5000000e-01 3.0250001e+00 4.5500000e+01 
7.5000000e-01 3.0250001e+00 4.6000000e+01 
7.5000000e-01 3.0250001e+00 4.6500000e+01 
7.5000000e-01 3.0250001e+00 4.7000000e+01 
7.5000000e-01 3.0250001e+00 4.7500000e+01 
7.5000000e-01 3.0250001e+00 4.8000000e+01 
7.5000000e-01 3.0250001e+00 4.8500000e+01 
7.5000000e-01 3.0250001e+00 4.9000000e+01 
7.5000000e-01 3.0250001e+00 4.9500000e+01 
7.5000000e-01 3.0250001e+00 5.0000000e+01 
7.5000000e-01 3.0250001e+00 3.5750000e+01 
3.0000000e+00 2.0000000e+00 3.6000000e+01 
8.0487806e-01 3.0000000e+00 3.6000000e+01 
0.0000000e+00 0.0000000e+00 2.0000000e+00 
0.0000000e+00 0.0000000e+00 4.0000000e+00 
0.0000000e+00 0.0000000e+00 6.0000000e+00 
0.0000000e+00 0.0000000e+00 8.0000000e+00 
0.0000000e+00 0.0000000e+00 1.0000000e+01 
0.0000000e+00 0.0000000e+00 1.2000000e+01 
0.0000000e+00 0.0000000e+00 1.4000000e+01 
[...]
POINT_DATA 662
FIELD FieldData 3
DISPLACEMENT 3 662  float
0.0000000e+00 0.0000000e+00 0.0000000e+00 
0.0000000e+00 0.0000000e+00 0.0000000e+00 
0.0000000e+00 0.0000000e+00 0.0000000e+00 
0.0000000e+00 0.0000000e+00 0.0000000e+00 
6.4210353e-06 -4.9902014e-06 -1.6695681e-07 
-3.0271889e-07 -2.5195270e-06 -2.4099015e-06 
0.0000000e+00 -4.0143536e-06 0.0000000e+00 
0.0000000e+00 3.0381179e-05 0.0000000e+00 
8.7833932e-06 -7.1900877e-06 -4.7329495e-06 
1.1219746e-06 -7.3577553e-06 4.4902254e-06 
1.2325173e-06 -6.6478788e-06 -9.8989985e-06 
-2.9883815e-06 2.3964189e-06 9.2118125e-07 
0.0000000e+00 -3.6580491e-06 0.0000000e+00 
0.0000000e+00 5.9375536e-05 0.0000000e+00 
-3.3161073e-06 -2.6163561e-06 -1.1355934e-05 
2.3485651e-05 4.7435202e-05 4.2406427e-06 
1.7660695e-05 2.6991103e-05 3.1290760e-06 
2.5440209e-05 8.1502352e-05 1.0241832e-05 
0.0000000e+00 -7.2080106e-06 0.0000000e+00 
0.0000000e+00 8.5975873e-05 0.0000000e+00 
-1.0833646e-05 2.7954999e-05 -1.6982627e-05 
-1.5844107e-05 3.0222169e-05 -2.2325497e-05 
-1.6826778e-05 3.2299613e-05 -2.7106180e-05 
-1.3954381e-05 3.4024710e-05 -3.3305118e-05 
-7.2554380e-06 3.6536290e-05 -3.7478472e-05 
-3.7264870e-06 4.1150848e-05 -4.0422914e-05 
6.5261520e-06 4.9947233e-05 -5.3971231e-05 
1.8648961e-05 6.4823704e-05 -6.4420346e-05 
2.5973281e-05 8.7039822e-05 -5.8838876e-05 
3.2519714e-05 1.1469777e-04 -4.5910059e-05 
3.6729409e-05 1.4574737e-04 -3.5743196e-05 
4.7031917e-05 1.7818382e-04 -2.0734233e-05 
6.0641967e-05 2.0853562e-04 -4.4804483e-06 
6.6130320e-05 2.2921650e-04 1.6735341e-05 
5.1608666e-05 2.2671075e-04 5.0224349e-05 
2.7558075e-05 1.7222676e-04 8.4937390e-05 
-1.8803648e-05 2.3017838e-05 1.2769247e-04 
-3.2905798e-05 -2.6262860e-04 1.6778639e-04 
-6.2614607e-05 -7.4879441e-04 2.2722455e-04 
-1.2641904e-04 -1.4779893e-03 1.7835642e-04 
-2.8705806e-04 -2.4675857e-03 2.5754550e-04 
-3.0345761e-04 -3.5322872e-03 2.2639583e-04 
-1.9821883e-04 -4.3572253e-03 1.5356918e-04 
-1.7073413e-04 -4.3768701e-03 1.4803451e-04 
-3.0376759e-04 -4.1628475e-03 5.6767625e-05 
-3.7045198e-04 -4.0932591e-03 1.9305577e-05 
-2.5156190e-04 -4.2853644e-03 -2.9130026e-05 
-8.8902627e-05 -4.2507919e-03 -7.5612625e-05 
-1.0888309e-04 -3.5132302e-03 -1.7007563e-04 
-1.9685918e-04 -2.4516189e-03 -1.9099984e-04 
-1.8994232e-04 -1.5268367e-03 -1.8305006e-04 
-6.5697430e-05 -8.2154339e-04 -1.2109290e-04 
-3.0638646e-05 -3.7085122e-04 -1.5456507e-04 
-1.8388782e-05 -1.1087459e-04 -1.2217120e-04 
-1.3270879e-05 1.8179506e-05 -9.9091318e-05 
3.7344109e-06 6.6732224e-05 -7.4672913e-05 
1.3742299e-05 6.7646819e-05 -4.5413926e-05 
1.7355127e-05 4.7795169e-05 -2.4032561e-05 
1.0442847e-05 2.5292418e-05 -2.3655564e-05 
2.6602743e-06 7.1488789e-06 -3.3879413e-05 
-3.5661328e-06 -2.8545533e-06 -4.4718479e-05 
-4.2816123e-06 -8.9789255e-06 -4.8658356e-05 
-8.0871969e-06 -1.5898884e-05 -4.0066046e-05 
-1.5719848e-05 -2.4837547e-05 -2.2164535e-05 
-1.3740750e-05 -3.5386998e-05 -2.8820409e-07 
-1.2621938e-05 -4.2940464e-05 1.4790087e-05 
-1.1462728e-05 -4.2165411e-05 2.1429256e-05 
-7.3525121e-06 -2.9267127e-05 2.1548773e-05 
3.6817291e-06 -1.0537851e-06 1.3650671e-06 
7.9567872e-06 3.8895912e-05 -2.1221884e-05 
2.3242490e-05 8.6227767e-05 -4.6890586e-05 
4.2873511e-05 1.3408338e-04 -6.4459360e-05 
5.1278108e-05 1.7600384e-04 -6.0106708e-05 
5.8010195e-05 2.0244747e-04 -3.8961494e-05 
4.6496571e-05 1.9985301e-04 -9.8011415e-06 
2.5849204e-05 1.4152032e-04 2.5791780e-05 
-1.6967231e-05 -1.5864616e-05 8.3828389e-05 
-2.6753480e-05 -3.1441246e-04 1.3690365e-04 
-5.0821258e-05 -8.1831106e-04 1.9606194e-04 
-1.1191393e-04 -1.5618121e-03 1.4308994e-04 
-2.6379101e-04 -2.5463067e-03 2.2399024e-04 
-2.7727036e-04 -3.5508899e-03 1.9033480e-04 
-1.7348793e-04 -4.2065834e-03 1.1958778e-04 
-1.2695792e-04 -4.1095433e-03 1.2721858e-04 
-2.5928888e-04 -3.9241137e-03 5.2797652e-05 
-3.1553779e-04 -3.9352267e-03 3.4818400e-05 
-2.0379301e-04 -4.1760183e-03 2.0439118e-06 
-6.7868044e-05 -4.0628067e-03 -1.1053507e-05 
-1.0845190e-04 -3.2564444e-03 -1.3022863e-04 
-2.0846285e-04 -2.2233808e-03 -1.6824366e-04 
-2.1228504e-04 -1.3497565e-03 -1.7794872e-04 
-1.2800437e-04 -6.9522945e-04 -1.5337896e-04 
-5.6387213e-05 -2.7838891e-04 -1.5576117e-04 
-3.6184392e-05 -3.4956058e-05 -1.3433614e-04 
-2.6488950e-05 9.3947143e-05 -1.2657575e-04 
-1.3096624e-06 1.5059178e-04 -1.1219706e-04 
1.5229946e-05 1.6239974e-04 -8.2304367e-05 
2.8963095e-05 1.4845777e-04 -5.2278334e-05 
2.6745569e-05 1.2104653e-04 -3.4043864e-05 
0.0000000e+00 3.5351619e-05 0.0000000e+00 
0.0000000e+00 -1.2575112e-05 0.0000000e+00 
0.0000000e+00 -5.6208337e-05 0.0000000e+00 
0.0000000e+00 -8.9502515e-05 0.0000000e+00 
0.0000000e+00 -1.0759908e-04 0.0000000e+00 
0.0000000e+00 -1.0804778e-04 0.0000000e+00 
0.0000000e+00 -9.1494847e-05 0.0000000e+00 
0.0000000e+00 -6.1573148e-05 0.0000000e+00 
0.0000000e+00 -2.4100269e-05 0.0000000e+00 
0.0000000e+00 1.4101158e-05 0.0000000e+00 
0.0000000e+00 4.6464844e-05 0.0000000e+00 
0.0000000e+00 6.7813984e-05 0.0000000e+00 
0.0000000e+00 7.5187032e-05 0.0000000e+00 
0.0000000e+00 6.8204019e-05 0.0000000e+00 
0.0000000e+00 4.8936530e-05 0.0000000e+00 
0.0000000e+00 2.1405458e-05 0.0000000e+00 
0.0000000e+00 -9.1060147e-06 0.0000000e+00 
0.0000000e+00 -3.6820420e-05 0.0000000e+00 
0.0000000e+00 -5.6315756e-05 0.0000000e+00 
0.0000000e+00 -6.3423468e-05 0.0000000e+00 
0.0000000e+00 2.7073049e-05 0.0000000e+00 
0.0000000e+00 2.8020955e-05 0.0000000e+00 
0.0000000e+00 3.0157982e-05 0.0000000e+00 
0.0000000e+00 3.2222186e-05 0.0000000e+00 
0.0000000e+00 3.4000168e-05 0.0000000e+00 
0.0000000e+00 3.6491030e-05 0.0000000e+00 
0.0000000e+00 4.1160016e-05 0.0000000e+00 
0.0000000e+00 4.9992934e-05 0.0000000e+00 
0.0000000e+00 6.4993808e-05 0.0000000e+00 
0.0000000e+00 8.7061228e-05 0.0000000e+00 
0.0000000e+00 1.1470379e-04 0.0000000e+00 
0.0000000e+00 1.4583446e-04 0.0000000e+00 
0.0000000e+00 1.7840011e-04 0.0000000e+00 
0.0000000e+00 2.0888390e-04 0.0000000e+00 
0.0000000e+00 2.3011524e-04 0.0000000e+00 
0.0000000e+00 2.2748350e-04 0.0000000e+00 
0.0000000e+00 1.7230109e-04 0.0000000e+00 
0.0000000e+00 2.4233703e-05 0.0000000e+00 
0.0000000e+00 -2.6337133e-04 0.0000000e+00 
0.0000000e+00 -7.5037085e-04 0.0000000e+00 
0.0000000e+00 -1.4877346e-03 0.0000000e+00 
0.0000000e+00 -2.4754568e-03 0.0000000e+00 
0.0000000e+00 -3.5651766e-03 0.0000000e+00 
0.0000000e+00 -4.3819281e-03 0.0000000e+00 
0.0000000e+00 -4.4077695e-03 0.0000000e+00 
0.0000000e+00 -4.1769492e-03 0.0000000e+00 
0.0000000e+00 -4.1237860e-03 0.0000000e+00 
0.0000000e+00 -4.3050419e-03 0.0000000e+00 
0.0000000e+00 -4.2849206e-03 0.0000000e+00 
0.0000000e+00 -3.5311759e-03 0.0000000e+00 
0.0000000e+00 -2.4699557e-03 0.0000000e+00 
0.0000000e+00 -1.5290508e-03 0.0000000e+00 
0.0000000e+00 -8.2576112e-04 0.0000000e+00 
0.0000000e+00 -3.7062250e-04 0.0000000e+00 
0.0000000e+00 -1.1006882e-04 0.0000000e+00 
0.0000000e+00 1.9150197e-05 0.0000000e+00 
0.0000000e+00 6.7067034e-05 0.0000000e+00 
0.0000000e+00 6.8101443e-05 0.0000000e+00 
0.0000000e+00 4.8372571e-05 0.0000000e+00 
0.0000000e+00 2.5460182e-05 0.0000000e+00 
0.0000000e+00 7.5155435e-06 0.0000000e+00 
0.0000000e+00 -2.8521865e-06 0.0000000e+00 
0.0000000e+00 -9.1781194e-06 0.0000000e+00 
0.0000000e+00 -1.5978641e-05 0.0000000e+00 
0.0000000e+00 -2.5022680e-05 0.0000000e+00 
0.0000000e+00 -3.5422439e-05 0.0000000e+00 
0.0000000e+00 -4.2868152e-05 0.0000000e+00 
0.0000000e+00 -4.2140884e-05 0.0000000e+00 
0.0000000e+00 -2.8945917e-05 0.0000000e+00 
0.0000000e+00 -1.0084954e-06 0.0000000e+00 
0.0000000e+00 3.9015842e-05 0.0000000e+00 
0.0000000e+00 8.6221757e-05 0.0000000e+00 
0.0000000e+00 1.3422531e-04 0.0000000e+00 
0.0000000e+00 1.7623586e-04 0.0000000e+00 
0.0000000e+00 2.0320347e-04 0.0000000e+00 
0.0000000e+00 2.0074999e-04 0.0000000e+00 
0.0000000e+00 1.4164329e-04 0.0000000e+00 
0.0000000e+00 -1.4641861e-05 0.0000000e+00 
0.0000000e+00 -3.1557915e-04 0.0000000e+00 
0.0000000e+00 -8.2033098e-04 0.0000000e+00 
0.0000000e+00 -1.5725688e-03 0.0000000e+00 
0.0000000e+00 -2.5554465e-03 0.0000000e+00 
0.0000000e+00 -3.5860382e-03 0.0000000e+00 
0.0000000e+00 -4.2307335e-03 0.0000000e+00 
0.0000000e+00 -4.1392278e-03 0.0000000e+00 
0.0000000e+00 -3.9376537e-03 0.0000000e+00 
0.0000000e+00 -3.9666272e-03 0.0000000e+00 
0.0000000e+00 -4.1970825e-03 0.0000000e+00 
0.0000000e+00 -4.0963553e-03 0.0000000e+00 
0.0000000e+00 -3.2725071e-03 0.0000000e+00 
0.0000000e+00 -2.2393337e-03 0.0000000e+00 
0.0000000e+00 -1.3513109e-03 0.0000000e+00 
0.0000000e+00 -6.9842464e-04 0.0000000e+00 
0.0000000e+00 -2.7838667e-04 0.0000000e+00 
0.0000000e+00 -3.3849486e-05 0.0000000e+00 
0.0000000e+00 9.4790659e-05 0.0000000e+00 
0.0000000e+00 1.5101557e-04 0.0000000e+00 
0.0000000e+00 1.6279420e-04 0.0000000e+00 
0.0000000e+00 1.4904022e-04 0.0000000e+00 
0.0000000e+00 1.2085207e-04 0.0000000e+00 
0.0000000e+00 8.1523431e-05 0.0000000e+00 
0.0000000e+00 3.5304663e-05 0.0000000e+00 
0.0000000e+00 -1.2577845e-05 0.0000000e+00 
0.0000000e+00 -5.6152759e-05 0.0000000e+00 
0.0000000e+00 -8.9393303e-05 0.0000000e+00 
0.0000000e+00 -1.0746193e-04 0.0000000e+00 
0.0000000e+00 -1.0791765e-04 0.0000000e+00 
0.0000000e+00 -9.1401380e-05 0.0000000e+00 
0.0000000e+00 -6.1533232e-05 0.0000000e+00 
0.0000000e+00 -2.4117900e-05 0.0000000e+00 
0.0000000e+00 1.4033224e-05 0.0000000e+00 
0.0000000e+00 4.6363592e-05 0.0000000e+00 
0.0000000e+00 6.7702102e-05 0.0000000e+00 
0.0000000e+00 7.5085569e-05 0.0000000e+00 
0.0000000e+00 6.8126123e-05 0.0000000e+00 
0.0000000e+00 4.8887385e-05 0.0000000e+00 
0.0000000e+00 2.1387441e-05 0.0000000e+00 
0.0000000e+00 -9.0893818e-06 0.0000000e+00 
0.0000000e+00 -3.6767007e-05 0.0000000e+00 
0.0000000e+00 -5.6231667e-05 0.0000000e+00 
0.0000000e+00 -6.3326886e-05 0.0000000e+00 
0.0000000e+00 -9.9229626e-04 0.0000000e+00 
2.3120196e-05 -4.3225435e-05 2.9517330e-06 
-1.0507979e-04 -6.2601239e-04 -1.3007995e-04 
0.0000000e+00 0.0000000e+00 0.0000000e+00 
0.0000000e+00 0.0000000e+00 0.0000000e+00 
0.0000000e+00 0.0000000e+00 0.0000000e+00 
0.0000000e+00 0.0000000e+00 0.0000000e+00 
0.0000000e+00 0.0000000e+00 0.0000000e+00 
0.0000000e+00 0.0000000e+00 0.0000000e+00 
0.0000000e+00 0.0000000e+00 0.0000000e+00 
0.0000000e+00 0.0000000e+00 0.0000000e+00 
0.0000000e+00 0.0000000e+00 0.0000000e+00 
0.0000000e+00 0.0000000e+00 0.0000000e+00 
0.0000000e+00 0.0000000e+00 0.0000000e+00 
0.0000000e+00 0.0000000e+00 0.0000000e+00 
0.0000000e+00 0.0000000e+00 0.0000000e+00 
0.0000000e+00 0.0000000e+00 0.0000000e+00 
0.0000000e+00 0.0000000e+00 0.0000000e+00 
0.0000000e+00 0.0000000e+00 0.0000000e+00 
0.0000000e+00 0.0000000e+00 0.0000000e+00 
0.0000000e+00 0.0000000e+00 0.0000000e+00 
0.0000000e+00 0.0000000e+00 0.0000000e+00 
0.0000000e+00 0.0000000e+00 0.0000000e+00 
0.0000000e+00 0.0000000e+00 0.0000000e+00 
0.0000000e+00 0.0000000e+00 0.0000000e+00 
0.0000000e+00 0.0000000e+00 0.0000000e+00 
0.0000000e+00 0.0000000e+00 0.0000000e+00 
0.0000000e+00 0.0000000e+00 0.0000000e+00 
0.0000000e+00 0.0000000e+00 0.0000000e+00 
0.0000000e+00 0.0000000e+00 0.0000000e+00 
0.0000000e+00 0.0000000e+00 0.0000000e+00 
0.0000000e+00 0.0000000e+00 0.0000000e+00 
0.0000000e+00 0.0000000e+00 0.0000000e+00 
0.0000000e+00 0.0000000e+00 0.0000000e+00 
0.0000000e+00 0.0000000e+00 0.0000000e+00 
0.0000000e+00 0.0000000e+00 0.0000000e+00 
0.0000000e+00 0.0000000e+00 0.0000000e+00 
0.0000000e+00 0.0000000e+00 0.0000000e+00 
0.0000000e+00 0.0000000e+00 0.0000000e+00 
0.0000000e+00 0.0000000e+00 0.0000000e+00 
0.0000000e+00 0.0000000e+00 0.0000000e+00 
0.0000000e+00 0.0000000e+00 0.0000000e+00 
0.0000000e+00 0.0000000e+00 0.0000000e+00 
0.0000000e+00 0.0000000e+00 0.0000000e+00 
0.0000000e+00 0.0000000e+00 0.0000000e+00 
-1.2974963e-06 2.5241391e-07 -7.6017437e-07 
-6.1345850e-06 3.6312770e-07 -4.5171369e-06 
-2.0218072e-06 4.5048824e-07 -1.0231301e-05 
9.0225349e-06 -1.1109720e-06 -1.0136097e-05 
3.2933880e-05 -6.2669219e-06 -1.2214906e-05 
5.3823329e-05 -7.0210308e-06 4.2552657e-08 
4.5909914e-05 -3.9300148e-06 1.3162395e-05 
2.1992344e-05 -3.5858784e-06 8.0560676e-06 
9.0192998e-06 -2.4045089e-06 2.3814273e-06 
4.0086943e-06 -8.3976693e-07 1.8696663e-06 
-1.6555955e-06 -3.8726243e-06 4.3584732e-06 
-5.4518750e-06 -1.8623899e-06 9.1374807e-07 
-5.1575912e-06 3.9170268e-06 -1.3607568e-06 
6.4737978e-06 -9.9867407e-07 -8.1177377e-06 
3.2591757e-05 -9.3294020e-06 -1.0160182e-05 
5.3359403e-05 -9.2583450e-06 1.9818010e-06 
5.4419896e-05 -1.0453603e-05 1.3887821e-05 
2.1607280e-05 -7.4217032e-06 1.2124936e-05 
-5.3864874e-06 4.9542055e-06 -6.0223954e-07 
0.0000000e+00 1.5685728e-05 0.0000000e+00 
0.0000000e+00 2.4161578e-05 0.0000000e+00 
0.0000000e+00 6.2011022e-05 0.0000000e+00 
0.0000000e+00 3.5988396e-05 0.0000000e+00 
0.0000000e+00 -2.2634285e-04 0.0000000e+00 
0.0000000e+00 -6.1143661e-04 0.0000000e+00 
0.0000000e+00 -5.3681538e-04 0.0000000e+00 
0.0000000e+00 -1.5756872e-04 0.0000000e+00 
0.0000000e+00 5.4285370e-06 0.0000000e+00 
0.0000000e+00 -5.4334187e-06 0.0000000e+00 
0.0000000e+00 -6.1254618e-06 0.0000000e+00 
0.0000000e+00 -1.3446541e-05 0.0000000e+00 
0.0000000e+00 4.8628859e-05 0.0000000e+00 
0.0000000e+00 2.9453038e-05 0.0000000e+00 
0.0000000e+00 -2.2109352e-04 0.0000000e+00 
0.0000000e+00 -5.5441301e-04 0.0000000e+00 
0.0000000e+00 -5.1039882e-04 0.0000000e+00 
0.0000000e+00 -1.5666771e-04 0.0000000e+00 
0.0000000e+00 3.1776653e-05 0.0000000e+00 
1.7877425e-06 -3.6748909e-06 -5.1467769e-06 
8.2261670e-07 -6.9261546e-06 -6.3622365e-06 
-3.3251908e-06 -7.6175166e-07 1.5047810e-06 
-7.5766920e-06 1.8725534e-05 -9.6585627e-06 
1.7130706e-07 -8.6948558e-07 -2.2650254e-06 
-4.1814137e-06 6.0825857e-07 -6.3695475e-06 
2.6699431e-06 3.5455915e-07 -1.4781908e-05 
2.2860482e-05 -3.8872199e-06 -1.5609985e-05 
3.1804109e-05 -4.7386206e-06 -1.3084203e-06 
3.0375480e-05 -4.0418099e-06 4.6610330e-06 
1.9715269e-05 5.3359440e-07 1.2227334e-05 
9.7358070e-06 5.5662241e-07 1.8008379e-06 
1.0034845e-05 -1.9318929e-06 2.0888832e-07 
3.4019797e-06 -2.3810758e-06 3.3335371e-06 
-2.1109215e-06 -7.4877930e-06 5.6731246e-06 
-5.5854371e-06 -2.6083196e-06 -2.9958910e-06 
-1.5853717e-06 5.0941590e-06 -6.8212130e-06 
2.1939290e-05 -2.2651882e-06 -7.9586907e-06 
3.4258519e-05 -8.9015357e-06 -5.5009764e-07 
3.9181490e-05 -7.5615239e-06 7.4075851e-06 
3.2179916e-05 -7.6171668e-06 1.7158722e-05 
9.9369208e-06 -1.7239305e-06 5.7346341e-07 
-5.7770917e-06 4.3634368e-06 -2.5593590e-06 
-2.7371766e-07 -6.0002048e-06 -9.9997324e-06 
0.0000000e+00 2.9480041e-05 0.0000000e+00 
0.0000000e+00 4.0666371e-05 0.0000000e+00 
0.0000000e+00 1.0624404e-04 0.0000000e+00 
0.0000000e+00 8.1503204e-05 0.0000000e+00 
0.0000000e+00 -4.7324557e-04 0.0000000e+00 
0.0000000e+00 -1.3372115e-03 0.0000000e+00 
0.0000000e+00 -1.1841517e-03 0.0000000e+00 
0.0000000e+00 -2.9528525e-04 0.0000000e+00 
0.0000000e+00 2.3727587e-05 0.0000000e+00 
0.0000000e+00 -1.2869357e-05 0.0000000e+00 
0.0000000e+00 -7.6876804e-06 0.0000000e+00 
0.0000000e+00 -2.6819815e-05 0.0000000e+00 
0.0000000e+00 9.2279159e-05 0.0000000e+00 
0.0000000e+00 6.5469350e-05 0.0000000e+00 
0.0000000e+00 -4.8071382e-04 0.0000000e+00 
0.0000000e+00 -1.2270012e-03 0.0000000e+00 
0.0000000e+00 -1.1072148e-03 0.0000000e+00 
0.0000000e+00 -2.8383496e-04 0.0000000e+00 
0.0000000e+00 7.2796181e-05 0.0000000e+00 
-2.0896475e-06 3.6514419e-05 -1.9512423e-05 
-1.0982974e-05 2.4401072e-05 -2.1066833e-05 
2.0187066e-05 3.4303419e-05 -8.9649249e-05 
7.3116986e-05 1.0392808e-04 -2.8621303e-05 
5.4131968e-05 1.4801329e-04 1.3372788e-04 
-2.9061807e-04 -4.5168676e-04 4.0196013e-04 
-7.4660429e-04 -1.4899878e-03 1.5429106e-04 
-6.3572091e-04 -1.4745813e-03 -1.6319314e-04 
-1.4103777e-04 -2.4443780e-04 -2.4516546e-04 
1.4739739e-05 3.4285764e-05 -8.5898231e-05 
4.5397433e-06 -4.1608091e-06 -2.9573843e-05 
-2.1996881e-05 -2.2501637e-05 -5.9564741e-06 
-1.0932401e-05 -2.6738437e-05 6.9830444e-06 
6.8264562e-05 6.0583319e-05 -8.8471104e-05 
4.8720649e-05 1.3999593e-04 7.5060634e-05 
-2.9206907e-04 -4.6589502e-04 3.5728194e-04 
-6.6750840e-04 -1.3321377e-03 1.1444603e-04 
-5.9739157e-04 -1.3824967e-03 -8.2826329e-05 
-1.3672968e-04 -2.8390516e-04 -2.1622275e-04 
7.9220281e-06 8.3430947e-05 -1.4433279e-04 
0.0000000e+00 4.6221623e-05 0.0000000e+00 
0.0000000e+00 5.0189068e-05 0.0000000e+00 
0.0000000e+00 1.5101291e-04 0.0000000e+00 
0.0000000e+00 1.6849204e-04 0.0000000e+00 
0.0000000e+00 -8.8060059e-04 0.0000000e+00 
0.0000000e+00 -2.5517845e-03 0.0000000e+00 
0.0000000e+00 -2.2343923e-03 0.0000000e+00 
0.0000000e+00 -4.9973128e-04 0.0000000e+00 
0.0000000e+00 6.6510809e-05 0.0000000e+00 
0.0000000e+00 -1.5929290e-05 0.0000000e+00 
0.0000000e+00 -9.5547612e-06 0.0000000e+00 
0.0000000e+00 -4.7755468e-05 0.0000000e+00 
0.0000000e+00 1.3613196e-04 0.0000000e+00 
0.0000000e+00 1.3606237e-04 0.0000000e+00 
0.0000000e+00 -9.3288126e-04 0.0000000e+00 
0.0000000e+00 -2.3896366e-03 0.0000000e+00 
0.0000000e+00 -2.1021827e-03 0.0000000e+00 
0.0000000e+00 -4.3630230e-04 0.0000000e+00 
0.0000000e+00 1.3593186e-04 0.0000000e+00 
-6.2422841e-06 2.3992970e-06 -8.1732996e-06 
-3.3975841e-06 8.6611708e-06 -1.8520255e-05 
1.1074516e-05 2.6266203e-05 -5.6964004e-06 
2.5271687e-05 5.2744777e-05 2.4629519e-05 
5.4878958e-05 -5.1579955e-05 1.7964714e-05 
5.2187879e-05 -1.2517108e-04 9.4911275e-07 
4.1452240e-05 -1.1307843e-04 6.4498158e-06 
3.3948880e-05 -5.4833676e-05 -1.2015861e-06 
5.9660315e-06 6.5716595e-06 -2.1125321e-05 
-5.1196008e-07 -3.6167394e-06 -1.5517955e-05 
-1.6218610e-05 -5.8893384e-06 -3.2835092e-06 
-9.1614793e-06 -4.9442201e-06 -5.8694695e-06 
1.0263659e-05 1.6627944e-05 -8.0939490e-06 
1.6439100e-05 4.7642257e-05 1.0699488e-05 
5.8973928e-05 -4.6486261e-05 1.1979625e-05 
6.6400964e-05 -9.8147568e-05 8.6783675e-06 
4.9374084e-05 -1.0341842e-04 2.5772930e-05 
-7.5139483e-06 1.1370967e-05 -2.3389915e-05 
-3.0556184e-05 -2.2518323e-04 -9.8101438e-05 
0.0000000e+00 0.0000000e+00 0.0000000e+00 
0.0000000e+00 0.0000000e+00 0.0000000e+00 
0.0000000e+00 0.0000000e+00 0.0000000e+00 
0.0000000e+00 0.0000000e+00 0.0000000e+00 
0.0000000e+00 0.0000000e+00 0.0000000e+00 
0.0000000e+00 0.0000000e+00 0.0000000e+00 
0.0000000e+00 0.0000000e+00 0.0000000e+00 
0.0000000e+00 0.0000000e+00 0.0000000e+00 
0.0000000e+00 0.0000000e+00 0.0000000e+00 
0.0000000e+00 0.0000000e+00 0.0000000e+00 
0.0000000e+00 0.0000000e+00 0.0000000e+00 
0.0000000e+00 0.0000000e+00 0.0000000e+00 
0.0000000e+00 0.0000000e+00 0.0000000e+00 
0.0000000e+00 0.0000000e+00 0.0000000e+00 
0.0000000e+00 0.0000000e+00 0.0000000e+00 
0.0000000e+00 0.0000000e+00 0.0000000e+00 
0.0000000e+00 0.0000000e+00 0.0000000e+00 
0.0000000e+00 0.0000000e+00 0.0000000e+00 
0.0000000e+00 0.0000000e+00 0.0000000e+00 
0.0000000e+00 0.0000000e+00 0.0000000e+00 
0.0000000e+00 0.0000000e+00 0.0000000e+00 
0.0000000e+00 0.0000000e+00 0.0000000e+00 
0.0000000e+00 0.0000000e+00 0.0000000e+00 
0.0000000e+00 0.0000000e+00 0.0000000e+00 
0.0000000e+00 0.0000000e+00 0.0000000e+00 
0.0000000e+00 0.0000000e+00 0.0000000e+00 
0.0000000e+00 0.0000000e+00 0.0000000e+00 
0.0000000e+00 0.0000000e+00 0.0000000e+00 
0.0000000e+00 0.0000000e+00 0.0000000e+00 
0.0000000e+00 0.0000000e+00 0.0000000e+00 
0.0000000e+00 0.0000000e+00 0.0000000e+00 
0.0000000e+00 0.0000000e+00 0.0000000e+00 
0.0000000e+00 0.0000000e+00 0.0000000e+00 
0.0000000e+00 0.0000000e+00 0.0000000e+00 
0.0000000e+00 0.0000000e+00 0.0000000e+00 
0.0000000e+00 0.0000000e+00 0.0000000e+00 
0.0000000e+00 0.0000000e+00 0.0000000e+00 
0.0000000e+00 0.0000000e+00 0.0000000e+00 
0.0000000e+00 0.0000000e+00 0.0000000e+00 
0.0000000e+00 0.0000000e+00 0.0000000e+00 
0.0000000e+00 0.0000000e+00 0.0000000e+00 
0.0000000e+00 0.0000000e+00 0.0000000e+00 
1.0569128e-06 -9.9065517e-07 4.4417160e-07 
2.5795198e-05 -7.8358662e-06 4.5681895e-06 
2.1550941e-05 -8.7386261e-06 5.5393548e-06 
-2.4742610e-06 -1.2235080e-06 1.1621430e-06 
-3.3248632e-06 7.4481051e-07 6.1819105e-07 
-1.7511954e-06 1.7999295e-06 -1.3676034e-06 
7.6934703e-06 -6.8915256e-06 -6.1843543e-06 
2.6743912e-05 -1.0435152e-05 -1.8474111e-06 