# vtk DataFile Version 4.0
vtk output
ASCII
DATASET UNSTRUCTURED_GRID
POINTS 622 float
0.0000000e+00 0.0000000e+00 0.0000000e+00 
0.0000000e+00 0.0000000e+00 4.0000000e+01 
5.0000000e+00 0.0000000e+00 0.0000000e+00 
5.0000000e+00 0.0000000e+00 4.0000000e+01 
5.0000000e+00 1.0000000e+00 0.0000000e+00 
5.0000000e+00 1.0000000e+00 4.0000000e+01 
0.0000000e+00 1.0000000e+00 0.0000000e+00 
0.0000000e+00 1.0000000e+00 4.0000000e+01 
5.0000000e+00 2.0000000e+00 0.0000000e+00 
5.0000000e+00 2.0000000e+00 4.0000000e+01 
3.0000000e+00 2.0000000e+00 0.0000000e+00 
3.0000000e+00 2.0000000e+00 4.0000000e+01 
0.0000000e+00 2.0000000e+00 0.0000000e+00 
0.0000000e+00 2.0000000e+00 4.0000000e+01 
1.5000000e+00 3.0000000e+00 0.0000000e+00 
1.5000000e+00 3.0000000e+00 4.0000000e+01 
7.5000000e-01 3.0000000e+00 0.0000000e+00 
7.5000000e-01 3.0000000e+00 4.0000000e+01 
0.0000000e+00 3.0000000e+00 0.0000000e+00 
0.0000000e+00 3.0000000e+00 4.0000000e+01 
7.5000000e-01 3.0000000e+00 5.0000000e-01 
7.5000000e-01 3.0000000e+00 1.0000000e+00 
7.5000000e-01 3.0000000e+00 1.5000000e+00 
7.5000000e-01 3.0000000e+00 2.0000000e+00 
7.5000000e-01 3.0000000e+00 2.5000000e+00 
7.5000000e-01 3.0000000e+00 3.0000000e+00 
7.5000000e-01 3.0000000e+00 3.5000000e+00 
7.5000000e-01 3.0000000e+00 4.0000000e+00 
7.5000000e-01 3.0000000e+00 4.5000000e+00 
7.5000000e-01 3.0000000e+00 5.0000000e+00 
7.5000000e-01 3.0000000e+00 5.5000000e+00 
7.5000000e-01 3.0000000e+00 6.0000000e+00 
7.5000000e-01 3.0000000e+00 6.5000000e+00 
7.5000000e-01 3.0000000e+00 7.0000000e+00 
7.5000000e-01 3.0000000e+00 7.5000000e+00 
7.5000000e-01 3.0000000e+00 8.0000000e+00 
7.5000000e-01 3.0000000e+00 8.5000000e+00 
7.5000000e-01 3.0000000e+00 9.0000000e+00 
7.5000000e-01 3.0000000e+00 9.5000000e+00 
7.5000000e-01 3.0000000e+00 1.0000000e+01 
7.5000000e-01 3.0000000e+00 1.0500000e+01 
7.5000000e-01 3.0000000e+00 1.1000000e+01 
7.5000000e-01 3.0000000e+00 1.1500000e+01 
7.5000000e-01 3.0000000e+00 1.2000000e+01 
7.5000000e-01 3.0000000e+00 1.2500000e+01 
7.5000000e-01 3.0000000e+00 1.3000000e+01 
7.5000000e-01 3.0000000e+00 1.3500000e+01 
7.5000000e-01 3.0000000e+00 1.4000000e+01 
7.5000000e-01 3.0000000e+00 1.4500000e+01 
7.5000000e-01 3.0000000e+00 1.5000000e+01 
7.5000000e-01 3.0000000e+00 1.5500000e+01 
7.5000000e-01 3.0000000e+00 1.6000000e+01 
7.5000000e-01 3.0000000e+00 1.6500000e+01 
7.5000000e-01 3.0000000e+00 1.7000000e+01 
7.5000000e-01 3.0000000e+00 1.7500000e+01 
7.5000000e-01 3.0000000e+00 1.8000000e+01 
7.5000000e-01 3.0000000e+00 1.8500000e+01 
7.5000000e-01 3.0000000e+00 1.9000000e+01 
7.5000000e-01 3.0000000e+00 1.9500000e+01 
7.5000000e-01 3.0000000e+00 2.0000000e+01 
7.5000000e-01 3.0000000e+00 2.0500000e+01 
7.5000000e-01 3.0000000e+00 2.1000000e+01 
7.5000000e-01 3.0000000e+00 2.1500000e+01 
7.5000000e-01 3.0000000e+00 2.2000000e+01 
7.5000000e-01 3.0000000e+00 2.2500000e+01 
7.5000000e-01 3.0000000e+00 2.3000000e+01 
7.5000000e-01 3.0000000e+00 2.3500000e+01 
7.5000000e-01 3.0000000e+00 2.4000000e+01 
7.5000000e-01 3.0000000e+00 2.4500000e+01 
7.5000000e-01 3.0000000e+00 2.5000000e+01 
7.5000000e-01 3.0000000e+00 2.5500000e+01 
7.5000000e-01 3.0000000e+00 2.6000000e+01 
7.5000000e-01 3.0000000e+00 2.6500000e+01 
7.5000000e-01 3.0000000e+00 2.7000000e+01 
7.5000000e-01 3.0000000e+00 2.7500000e+01 
7.5000000e-01 3.0000000e+00 2.8000000e+01 
7.5000000e-01 3.0000000e+00 2.8500000e+01 
7.5000000e-01 3.0000000e+00 2.9000000e+01 
7.5000000e-01 3.0000000e+00 2.9500000e+01 
7.5000000e-01 3.0000000e+00 3.0000000e+01 
7.5000000e-01 3.0000000e+00 3.0500000e+01 
7.5000000e-01 3.0000000e+00 3.1000000e+01 
7.5000000e-01 3.0000000e+00 3.1500000e+01 
7.5000000e-01 3.0000000e+00 3.2000000e+01 
7.5000000e-01 3.0000000e+00 3.2500000e+01 
7.5000000e-01 3.0000000e+00 3.3000000e+01 
7.5000000e-01 3.0000000e+00 3.3500000e+01 
7.5000000e-01 3.0000000e+00 3.4000000e+01 
7.5000000e-01 3.0000000e+00 3.4500000e+01 
7.5000000e-01 3.0000000e+00 3.5000000e+01 
7.5000000e-01 3.0000000e+00 3.5500000e+01 
7.5000000e-01 3.0000000e+00 3.6000000e+01 
7.5000000e-01 3.0000000e+00 3.6500000e+01 
7.5000000e-01 3.0000000e+00 3.7000000e+01 
7.5000000e-01 3.0000000e+00 3.7500000e+01 
7.5000000e-01 3.0000000e+00 3.8000000e+01 
7.5000000e-01 3.0000000e+00 3.8500000e+01 
7.5000000e-01 3.0000000e+00 3.9000000e+01 
7.5000000e-01 3.0000000e+00 3.9500000e+01 
7.5000000e-01 3.0250001e+00 0.0000000e+00 
7.5000000e-01 3.0250001e+00 5.0000000e-01 
7.5000000e-01 3.0250001e+00 1.0000000e+00 
7.5000000e-01 3.0250001e+00 1.5000000e+00 
7.5000000e-01 3.0250001e+00 2.0000000e+00 
7.5000000e-01 3.0250001e+00 2.5000000e+00 
7.5000000e-01 3.0250001e+00 3.0000000e+00 
7.5000000e-01 3.0250001e+00 3.5000000e+00 
7.5000000e-01 3.0250001e+00 4.0000000e+00 
7.5000000e-01 3.0250001e+00 4.5000000e+00 
7.5000000e-01 3.0250001e+00 5.0000000e+00 
7.5000000e-01 3.0250001e+00 5.5000000e+00 
7.5000000e-01 3.0250001e+00 6.0000000e+00 
7.5000000e-01 3.0250001e+00 6.5000000e+00 
7.5000000e-01 3.0250001e+00 7.0000000e+00 
7.5000000e-01 3.0250001e+00 7.5000000e+00 
7.5000000e-01 3.0250001e+00 8.0000000e+00 
7.5000000e-01 3.0250001e+00 8.5000000e+00 
7.5000000e-01 3.0250001e+00 9.0000000e+00 
7.5000000e-01 3.0250001e+00 9.5000000e+00 
7.5000000e-01 3.0250001e+00 1.0000000e+01 
7.5000000e-01 3.0250001e+00 1.0500000e+01 
7.5000000e-01 3.0250001e+00 1.1000000e+01 
7.5000000e-01 3.0250001e+00 1.1500000e+01 
7.5000000e-01 3.0250001e+00 1.2000000e+01 
7.5000000e-01 3.0250001e+00 1.2500000e+01 
7.5000000e-01 3.0250001e+00 1.3000000e+01 
7.5000000e-01 3.0250001e+00 1.3500000e+01 
7.5000000e-01 3.0250001e+00 1.4000000e+01 
7.5000000e-01 3.0250001e+00 1.4500000e+01 
7.5000000e-01 3.0250001e+00 1.5000000e+01 
7.5000000e-01 3.0250001e+00 1.5500000e+01 
7.5000000e-01 3.0250001e+00 1.6000000e+01 
7.5000000e-01 3.0250001e+00 1.6500000e+01 
7.5000000e-01 3.0250001e+00 1.7000000e+01 
7.5000000e-01 3.0250001e+00 1.7500000e+01 
7.5000000e-01 3.0250001e+00 1.8000000e+01 
7.5000000e-01 3.0250001e+00 1.8500000e+01 
7.5000000e-01 3.0250001e+00 1.9000000e+01 
7.5000000e-01 3.0250001e+00 1.9500000e+01 
7.5000000e-01 3.0250001e+00 2.0000000e+01 
7.5000000e-01 3.0250001e+00 2.0500000e+01 
7.5000000e-01 3.0250001e+00 2.1000000e+01 
7.5000000e-01 3.0250001e+00 2.1500000e+01 
7.5000000e-01 3.0250001e+00 2.2000000e+01 
7.5000000e-01 3.0250001e+00 2.2500000e+01 
7.5000000e-01 3.0250001e+00 2.3000000e+01 
7.5000000e-01 3.0250001e+00 2.3500000e+01 
7.5000000e-01 3.0250001e+00 2.4000000e+01 
7.5000000e-01 3.0250001e+00 2.4500000e+01 
7.5000000e-01 3.0250001e+00 2.5000000e+01 
7.5000000e-01 3.0250001e+00 2.5500000e+01 
7.5000000e-01 3.0250001e+00 2.6000000e+01 
7.5000000e-01 3.0250001e+00 2.6500000e+01 
7.5000000e-01 3.0250001e+00 2.7000000e+01 
7.5000000e-01 3.0250001e+00 2.7500000e+01 
7.5000000e-01 3.0250001e+00 2.8000000e+01 
7.5000000e-01 3.0250001e+00 2.8500000e+01 
7.5000000e-01 3.0250001e+00 2.9000000e+01 
7.5000000e-01 3.0250001e+00 2.9500000e+01 
7.5000000e-01 3.0250001e+00 3.0000000e+01 
7.5000000e-01 3.0250001e+00 3.0500000e+01 
7.5000000e-01 3.0250001e+00 3.1000000e+01 
7.5000000e-01 3.0250001e+00 3.1500000e+01 
7.5000000e-01 3.0250001e+00 3.2000000e+01 
7.5000000e-01 3.0250001e+00 3.2500000e+01 
7.5000000e-01 3.0250001e+00 3.3000000e+01 
7.5000000e-01 3.0250001e+00 3.3500000e+01 
7.5000000e-01 3.0250001e+00 3.4000000e+01 
7.5000000e-01 3.0250001e+00 3.4500000e+01 
7.5000000e-01 3.0250001e+00 3.5000000e+01 
7.5000000e-01 3.0250001e+00 3.5500000e+01 
7.5000000e-01 3.0250001e+00 3.6000000e+01 
7.5000000e-01 3.0250001e+00 3.6500000e+01 
7.5000000e-01 3.0250001e+00 3.7000000e+01 
7.5000000e-01 3.0250001e+00 3.7500000e+01 
7.5000000e-01 3.0250001e+00 3.8000000e+01 
7.5000000e-01 3.0250001e+00 3.8500000e+01 
7.5000000e-01 3.0250001e+00 3.9000000e+01 
7.5000000e-01 3.0250001e+00 3.9500000e+01 
7.5000000e-01 3.0250001e+00 4.0000000e+01 
7.5000000e-01 3.0250001e+00 3.5750000e+01 
3.0000000e+00 2.0000000e+00 3.6000000e+01 
8.0487806e-01 3.0000000e+00 3.6000000e+01 
0.0000000e+00 0.0000000e+00 2.0000000e+00 
0.0000000e+00 0.0000000e+00 4.0000000e+00 
0.0000000e+00 0.0000000e+00 6.0000000e+00 
0.0000000e+00 0.0000000e+00 8.0000000e+00 
0.0000000e+00 0.0000000e+00 1.0000000e+01 
0.0000000e+00 0.0000000e+00 1.2000000e+01 
0.0000000e+00 0.0000000e+00 1.4000000e+01 
0.0000000e+00 0.0000000e+00 1.6000000e+01 
0.0000000e+00 0.0000000e+00 1.8000000e+01 
0.0000000e+00 0.0000000e+00 2.0000000e+01 
0.0000000e+00 0.0000000e+00 2.2000000e+01 
0.0000000e+00 0.0000000e+00 2.4000000e+01 
0.0000000e+00 0.0000000e+00 2.6000000e+01 
0.0000000e+00 0.0000000e+00 2.8000000e+01 
0.0000000e+00 0.0000000e+00 3.0000000e+01 
0.0000000e+00 0.0000000e+00 3.2000000e+01 
0.0000000e+00 0.0000000e+00 3.4000000e+01 
0.0000000e+00 0.0000000e+00 3.6000000e+01 
0.0000000e+00 0.0000000e+00 3.8000000e+01 
5.0000000e+00 0.0000000e+00 2.0000000e+00 
5.0000000e+00 0.0000000e+00 4.0000000e+00 
5.0000000e+00 0.0000000e+00 6.0000000e+00 
5.0000000e+00 0.0000000e+00 8.0000000e+00 
5.0000000e+00 0.0000000e+00 1.0000000e+01 
5.0000000e+00 0.0000000e+00 1.2000000e+01 
5.0000000e+00 0.0000000e+00 1.4000000e+01 
5.0000000e+00 0.0000000e+00 1.6000000e+01 
5.0000000e+00 0.0000000e+00 1.8000000e+01 
5.0000000e+00 0.0000000e+00 2.0000000e+01 
5.0000000e+00 0.0000000e+00 2.2000000e+01 
5.0000000e+00 0.0000000e+00 2.4000000e+01 
5.0000000e+00 0.0000000e+00 2.6000000e+01 
5.0000000e+00 0.0000000e+00 2.8000000e+01 
5.0000000e+00 0.0000000e+00 3.0000000e+01 
5.0000000e+00 0.0000000e+00 3.2000000e+01 
5.0000000e+00 0.0000000e+00 3.4000000e+01 
5.0000000e+00 0.0000000e+00 3.6000000e+01 
5.0000000e+00 0.0000000e+00 3.8000000e+01 
1.6666666e+00 0.0000000e+00 0.0000000e+00 
3.3333333e+00 0.0000000e+00 0.0000000e+00 
1.6666666e+00 0.0000000e+00 4.0000000e+01 
3.3333333e+00 0.0000000e+00 4.0000000e+01 
5.0000000e+00 1.0000000e+00 2.0000000e+00 
5.0000000e+00 1.0000000e+00 4.0000000e+00 
5.0000000e+00 1.0000000e+00 6.0000000e+00 
5.0000000e+00 1.0000000e+00 8.0000000e+00 
5.0000000e+00 1.0000000e+00 1.0000000e+01 
[...]
POINT_DATA 622
FIELD FieldData 3
DISPLACEMENT 3 622  float
0.0000000e+00 0.0000000e+00 0.0000000e+00 
0.0000000e+00 0.0000000e+00 0.0000000e+00 
0.0000000e+00 0.0000000e+00 0.0000000e+00 
0.0000000e+00 0.0000000e+00 0.0000000e+00 
-1.5643509e-06 -2.1184192e-06 1.1960756e-07 
2.6256279e-07 7.5884111e-07 1.1374466e-06 
0.0000000e+00 1.8509429e-05 0.0000000e+00 
0.0000000e+00 -1.1849968e-05 0.0000000e+00 
-6.1362734e-06 -2.0118223e-06 7.7827480e-08 
-2.5357431e-06 1.9753536e-06 -1.4184617e-06 
-2.0455611e-06 -1.0719000e-05 -1.2592322e-05 
-1.7461721e-06 -2.9683813e-06 -4.9182786e-06 
0.0000000e+00 3.2576940e-05 0.0000000e+00 
0.0000000e+00 -2.3285082e-05 0.0000000e+00 
8.9782770e-06 2.0558855e-05 -5.8955640e-05 
-8.8121496e-06 -1.7645994e-05 -3.2395626e-05 
4.2592133e-06 7.4634474e-05 -1.8560722e-05 
1.7853130e-06 -3.9051505e-05 -3.5970352e-05 
0.0000000e+00 4.6192879e-05 0.0000000e+00 
0.0000000e+00 -3.7308182e-05 0.0000000e+00 
2.8312712e-05 7.8164499e-05 -4.7071244e-05 
3.7408736e-05 8.8507702e-05 -3.8604940e-05 
4.2929740e-05 1.0295524e-04 -3.4075536e-05 
4.5899120e-05 1.2156875e-04 -2.1856134e-05 
4.7591195e-05 1.4349727e-04 6.3484356e-09 
4.3419172e-05 1.6378873e-04 1.3982466e-05 
2.9765024e-05 1.7074861e-04 3.4630622e-05 
1.9101610e-05 1.3390783e-04 5.3337928e-05 
-1.3801529e-05 1.1215077e-05 8.9413807e-05 
-2.5046766e-05 -2.3784296e-04 1.2466159e-04 
-5.8716490e-05 -6.7399413e-04 1.7095038e-04 
-1.1445820e-04 -1.3387499e-03 1.1309507e-04 
-2.5083637e-04 -2.2499363e-03 1.9048952e-04 
-2.5201461e-04 -3.2368295e-03 1.7295507e-04 
-1.3650734e-04 -4.0050433e-03 1.0284516e-04 
-1.0113041e-04 -4.0197922e-03 1.0111768e-04 
-2.4372550e-04 -3.8444640e-03 3.1789536e-05 
-3.1531323e-04 -3.8385033e-03 1.0004491e-05 
-2.0247206e-04 -4.1051432e-03 -3.1463722e-05 
-4.7003508e-05 -4.1389749e-03 -8.0833233e-05 
-8.0950340e-05 -3.4481834e-03 -1.5966756e-04 
-1.8017605e-04 -2.4165879e-03 -1.7194264e-04 
-1.8969861e-04 -1.5137768e-03 -1.4909846e-04 
-7.9916812e-05 -8.2599255e-04 -7.7732409e-05 
-4.3645705e-05 -3.9128494e-04 -1.0960968e-04 
-2.9819887e-05 -1.4654220e-04 -7.6938173e-05 
-2.9915735e-05 -3.0575531e-05 -5.6455130e-05 
-2.0909312e-05 7.2791668e-06 -3.9499144e-05 
-1.2742781e-05 6.1040254e-07 -2.4803585e-05 
-4.9716828e-06 -2.5704878e-05 -1.5498592e-05 
-3.4654183e-06 -5.4456308e-05 -1.5859077e-05 
-9.8471919e-06 -7.8692152e-05 -1.4447021e-05 
-1.2804770e-05 -9.4797360e-05 5.2638679e-06 
-1.4812546e-05 -1.0472212e-04 2.5189389e-05 
-3.3216929e-05 -1.1184753e-04 5.7955640e-05 
-5.1711504e-05 -1.1610954e-04 8.3217623e-05 
-5.1720333e-05 -1.1618607e-04 6.2291059e-05 
-5.5050714e-05 -1.1146669e-04 2.8957922e-05 
-3.9392497e-05 -1.0028265e-04 -1.5270329e-05 
-1.6654074e-05 -8.1069411e-05 -6.1228398e-05 
2.6968169e-06 -5.0574519e-05 -7.5791009e-05 
1.6657534e-05 -1.1622079e-05 -7.6158001e-05 
3.1585696e-05 3.4254135e-05 -7.8482240e-05 
4.1001440e-05 8.2797786e-05 -6.7202767e-05 
4.9843376e-05 1.2899187e-04 -4.4182281e-05 
5.3793803e-05 1.6591561e-04 -1.7658316e-05 
4.1533858e-05 1.8065640e-04 1.0532573e-05 
2.9532008e-05 1.4369457e-04 3.8067112e-05 
-1.3083853e-05 9.9064782e-06 6.9371185e-05 
-2.2247767e-05 -2.6496602e-04 1.0039518e-04 
-3.7013553e-05 -7.4605091e-04 1.3717258e-04 
-8.4307809e-05 -1.4687174e-03 6.8627836e-05 
-2.2913367e-04 -2.4370719e-03 1.6807333e-04 
-2.3322580e-04 -3.4338974e-03 1.6701563e-04 
-1.3427062e-04 -4.0953220e-03 1.3584095e-04 
-1.0297369e-04 -4.0200008e-03 1.8407266e-04 
-2.5281232e-04 -3.8756602e-03 1.2943803e-04 
-3.2102680e-04 -3.9404221e-03 1.1189139e-04 
-2.1286853e-04 -4.2409990e-03 7.2966970e-05 
-7.6854922e-05 -4.1739964e-03 4.0457493e-05 
-1.2383082e-04 -3.3862079e-03 -1.0231409e-04 
-2.3013967e-04 -2.3558214e-03 -1.6289741e-04 
-2.2267096e-04 -1.4786556e-03 -1.9053434e-04 
-1.0176609e-04 -8.1384479e-04 -1.6747539e-04 
-5.4463610e-05 -3.8327571e-04 -2.1020847e-04 
-2.9751696e-05 -1.2591702e-04 -1.8087331e-04 
-1.7956761e-05 1.5629592e-05 -1.6609220e-04 
2.3810451e-06 8.5946114e-05 -1.4092248e-04 
2.3919400e-05 1.1195745e-04 -9.3125520e-05 
4.1529347e-05 1.1433559e-04 -4.4552500e-05 
3.4760080e-05 1.0450788e-04 -8.1080298e-06 
2.5428160e-05 8.6887361e-05 2.7357701e-05 
2.0300007e-05 6.3155574e-05 4.9675360e-05 
1.3376476e-05 3.6783302e-05 5.9795570e-05 
3.4689742e-06 1.1071993e-05 6.8246380e-05 
-5.5478067e-06 -1.0048021e-05 6.3582251e-05 
-1.0130208e-05 -2.4863208e-05 4.6806905e-05 
-1.4257448e-05 -3.3776694e-05 2.3737894e-05 
-9.8409773e-06 -3.8065991e-05 1.9631409e-07 
0.0000000e+00 7.4686308e-05 0.0000000e+00 
0.0000000e+00 7.8307530e-05 0.0000000e+00 
0.0000000e+00 8.8383640e-05 0.0000000e+00 
0.0000000e+00 1.0297465e-04 0.0000000e+00 
0.0000000e+00 1.2173998e-04 0.0000000e+00 
0.0000000e+00 1.4386392e-04 0.0000000e+00 
0.0000000e+00 1.6484306e-04 0.0000000e+00 
0.0000000e+00 1.7139986e-04 0.0000000e+00 
0.0000000e+00 1.3394865e-04 0.0000000e+00 
0.0000000e+00 1.2322909e-05 0.0000000e+00 
0.0000000e+00 -2.3850397e-04 0.0000000e+00 
0.0000000e+00 -6.7546684e-04 0.0000000e+00 
0.0000000e+00 -1.3477787e-03 0.0000000e+00 
0.0000000e+00 -2.2574109e-03 0.0000000e+00 
0.0000000e+00 -3.2684230e-03 0.0000000e+00 
0.0000000e+00 -4.0288670e-03 0.0000000e+00 
0.0000000e+00 -4.0503629e-03 0.0000000e+00 
0.0000000e+00 -3.8582550e-03 0.0000000e+00 
0.0000000e+00 -3.8691564e-03 0.0000000e+00 
0.0000000e+00 -4.1251415e-03 0.0000000e+00 
0.0000000e+00 -4.1736136e-03 0.0000000e+00 
0.0000000e+00 -3.4663691e-03 0.0000000e+00 
0.0000000e+00 -2.4351850e-03 0.0000000e+00 
0.0000000e+00 -1.5160420e-03 0.0000000e+00 
0.0000000e+00 -8.3032984e-04 0.0000000e+00 
0.0000000e+00 -3.9114041e-04 0.0000000e+00 
0.0000000e+00 -1.4563398e-04 0.0000000e+00 
0.0000000e+00 -2.9613711e-05 0.0000000e+00 
0.0000000e+00 7.6948918e-06 0.0000000e+00 
0.0000000e+00 9.8397413e-07 0.0000000e+00 
0.0000000e+00 -2.5185420e-05 0.0000000e+00 
0.0000000e+00 -5.4280583e-05 0.0000000e+00 
0.0000000e+00 -7.8432095e-05 0.0000000e+00 
0.0000000e+00 -9.4741277e-05 0.0000000e+00 
0.0000000e+00 -1.0492169e-04 0.0000000e+00 
0.0000000e+00 -1.1194239e-04 0.0000000e+00 
0.0000000e+00 -1.1610681e-04 0.0000000e+00 
0.0000000e+00 -1.1626990e-04 0.0000000e+00 
0.0000000e+00 -1.1147690e-04 0.0000000e+00 
0.0000000e+00 -1.0034682e-04 0.0000000e+00 
0.0000000e+00 -8.0743455e-05 0.0000000e+00 
0.0000000e+00 -5.0625895e-05 0.0000000e+00 
0.0000000e+00 -1.1501124e-05 0.0000000e+00 
0.0000000e+00 3.4284982e-05 0.0000000e+00 
0.0000000e+00 8.2835395e-05 0.0000000e+00 
0.0000000e+00 1.2930880e-04 0.0000000e+00 
0.0000000e+00 1.6684353e-04 0.0000000e+00 
0.0000000e+00 1.8151163e-04 0.0000000e+00 
0.0000000e+00 1.4384849e-04 0.0000000e+00 
0.0000000e+00 1.1065128e-05 0.0000000e+00 
0.0000000e+00 -2.6614766e-04 0.0000000e+00 
0.0000000e+00 -7.4798753e-04 0.0000000e+00 
0.0000000e+00 -1.4794068e-03 0.0000000e+00 
0.0000000e+00 -2.4461143e-03 0.0000000e+00 
0.0000000e+00 -3.4691310e-03 0.0000000e+00 
0.0000000e+00 -4.1194395e-03 0.0000000e+00 
0.0000000e+00 -4.0501547e-03 0.0000000e+00 
0.0000000e+00 -3.8892177e-03 0.0000000e+00 
0.0000000e+00 -3.9725509e-03 0.0000000e+00 
0.0000000e+00 -4.2626080e-03 0.0000000e+00 
0.0000000e+00 -4.2080353e-03 0.0000000e+00 
0.0000000e+00 -3.4026487e-03 0.0000000e+00 
0.0000000e+00 -2.3720099e-03 0.0000000e+00 
0.0000000e+00 -1.4803768e-03 0.0000000e+00 
0.0000000e+00 -8.1733655e-04 0.0000000e+00 
0.0000000e+00 -3.8305347e-04 0.0000000e+00 
0.0000000e+00 -1.2498024e-04 0.0000000e+00 
0.0000000e+00 1.6601645e-05 0.0000000e+00 
0.0000000e+00 8.6307140e-05 0.0000000e+00 
0.0000000e+00 1.1245146e-04 0.0000000e+00 
0.0000000e+00 1.1469773e-04 0.0000000e+00 
0.0000000e+00 1.0463039e-04 0.0000000e+00 
0.0000000e+00 8.6788372e-05 0.0000000e+00 
0.0000000e+00 6.3157400e-05 0.0000000e+00 
0.0000000e+00 3.6785863e-05 0.0000000e+00 
0.0000000e+00 1.1197505e-05 0.0000000e+00 
0.0000000e+00 -9.9506015e-06 0.0000000e+00 
0.0000000e+00 -2.4835705e-05 0.0000000e+00 
0.0000000e+00 -3.3776410e-05 0.0000000e+00 
0.0000000e+00 -3.8064067e-05 0.0000000e+00 
0.0000000e+00 -3.9149250e-05 0.0000000e+00 
0.0000000e+00 9.6613367e-05 0.0000000e+00 
3.0074475e-06 2.6411311e-05 3.5477401e-06 
2.6675512e-05 8.8940476e-05 2.7294176e-05 
0.0000000e+00 0.0000000e+00 0.0000000e+00 
0.0000000e+00 0.0000000e+00 0.0000000e+00 
0.0000000e+00 0.0000000e+00 0.0000000e+00 
0.0000000e+00 0.0000000e+00 0.0000000e+00 
0.0000000e+00 0.0000000e+00 0.0000000e+00 
0.0000000e+00 0.0000000e+00 0.0000000e+00 
0.0000000e+00 0.0000000e+00 0.0000000e+00 
0.0000000e+00 0.0000000e+00 0.0000000e+00 
0.0000000e+00 0.0000000e+00 0.0000000e+00 
0.0000000e+00 0.0000000e+00 0.0000000e+00 
0.0000000e+00 0.0000000e+00 0.0000000e+00 
0.0000000e+00 0.0000000e+00 0.0000000e+00 
0.0000000e+00 0.0000000e+00 0.0000000e+00 
0.0000000e+00 0.0000000e+00 0.0000000e+00 
0.0000000e+00 0.0000000e+00 0.0000000e+00 
0.0000000e+00 0.0000000e+00 0.0000000e+00 
0.0000000e+00 0.0000000e+00 0.0000000e+00 
0.0000000e+00 0.0000000e+00 0.0000000e+00 
0.0000000e+00 0.0000000e+00 0.0000000e+00 
0.0000000e+00 0.0000000e+00 0.0000000e+00 
0.0000000e+00 0.0000000e+00 0.0000000e+00 
0.0000000e+00 0.0000000e+00 0.0000000e+00 
0.0000000e+00 0.0000000e+00 0.0000000e+00 
0.0000000e+00 0.0000000e+00 0.0000000e+00 
0.0000000e+00 0.0000000e+00 0.0000000e+00 
0.0000000e+00 0.0000000e+00 0.0000000e+00 
0.0000000e+00 0.0000000e+00 0.0000000e+00 
0.0000000e+00 0.0000000e+00 0.0000000e+00 
0.0000000e+00 0.0000000e+00 0.0000000e+00 
0.0000000e+00 0.0000000e+00 0.0000000e+00 
0.0000000e+00 0.0000000e+00 0.0000000e+00 
0.0000000e+00 0.0000000e+00 0.0000000e+00 
0.0000000e+00 0.0000000e+00 0.0000000e+00 
0.0000000e+00 0.0000000e+00 0.0000000e+00 
0.0000000e+00 0.0000000e+00 0.0000000e+00 
0.0000000e+00 0.0000000e+00 0.0000000e+00 
0.0000000e+00 0.0000000e+00 0.0000000e+00 
0.0000000e+00 0.0000000e+00 0.0000000e+00 
0.0000000e+00 0.0000000e+00 0.0000000e+00 
0.0000000e+00 0.0000000e+00 0.0000000e+00 
0.0000000e+00 0.0000000e+00 0.0000000e+00 
0.0000000e+00 0.0000000e+00 0.0000000e+00 
-4.1045055e-06 -2.6602488e-06 -4.0281261e-06 
6.7971200e-06 9.3785638e-07 -1.0784326e-05 
3.0436362e-05 -3.2430894e-06 -1.3976658e-05 
4.5353303e-05 -1.3707623e-05 -7.5379494e-06 
4.5147819e-05 -8.7754852e-06 2.1150547e-06 
1.8926585e-05 -7.8007315e-07 -1.7453777e-06 
5.3288913e-06 2.2782053e-06 4.3568516e-06 
5.2076857e-06 1.2996684e-06 8.0220989e-06 
1.9862321e-06 -5.2921878e-06 5.0582821e-06 
-3.4013765e-06 -4.7050835e-06 2.2744093e-06 
-5.9189169e-06 3.9213078e-06 -1.4123906e-06 
6.5346176e-06 -2.0772998e-06 -6.9524140e-06 
2.7828824e-05 -5.5246437e-06 -7.2771804e-06 
4.8544804e-05 -9.0104750e-06 -2.9690775e-06 
4.7381018e-05 -1.2491711e-05 3.7917619e-06 
2.1273296e-05 -5.3719004e-06 3.9536621e-06 
1.3078221e-06 6.2770387e-06 8.8293236e-06 
-3.0101235e-06 2.4496960e-06 4.7886128e-06 
1.3884662e-06 -4.6768691e-06 2.8885211e-06 
0.0000000e+00 4.3769120e-05 0.0000000e+00 
0.0000000e+00 3.0856798e-05 0.0000000e+00 
0.0000000e+00 -1.8872875e-04 0.0000000e+00 
0.0000000e+00 -5.1432039e-04 0.0000000e+00 
0.0000000e+00 -4.7620069e-04 0.0000000e+00 
0.0000000e+00 -1.6068977e-04 0.0000000e+00 
0.0000000e+00 -2.9661303e-05 0.0000000e+00 
0.0000000e+00 -3.2675391e-05 0.0000000e+00 
0.0000000e+00 -4.1017087e-05 0.0000000e+00 
0.0000000e+00 -3.9866252e-05 0.0000000e+00 
0.0000000e+00 2.9530547e-05 0.0000000e+00 
0.0000000e+00 3.1839867e-05 0.0000000e+00 
0.0000000e+00 -1.8754555e-04 0.0000000e+00 
0.0000000e+00 -4.9835799e-04 0.0000000e+00 
0.0000000e+00 -5.1164464e-04 0.0000000e+00 
0.0000000e+00 -1.8456820e-04 0.0000000e+00 
0.0000000e+00 9.2612818e-06 0.0000000e+00 
0.0000000e+00 3.8569739e-05 0.0000000e+00 
0.0000000e+00 -9.6913382e-06 0.0000000e+00 
-3.6202077e-06 -6.7678548e-06 -1.5879282e-06 
-6.9668240e-06 2.2806016e-06 1.2921896e-06 
-2.0241923e-07 -1.1567051e-06 -1.7704537e-06 
1.4075907e-06 -7.2991152e-06 1.8355960e-06 
1.7389334e-06 -2.1091373e-06 -8.0867667e-06 
1.8876586e-05 1.1001210e-06 -1.7100736e-05 
3.7704660e-05 1.0602967e-06 -5.9159829e-06 
4.8926209e-05 -2.2427282e-06 -4.9689797e-06 
3.3745015e-05 -8.5400634e-06 -7.7842145e-07 
1.1583123e-05 1.5009610e-06 -1.0031383e-05 
1.7567189e-06 3.4773091e-06 4.4428957e-06 
4.6311525e-06 -4.1837561e-07 1.2306703e-05 
-2.4503115e-06 -7.3932642e-06 9.4441293e-06 
-1.0901038e-05 -4.7209996e-06 -1.8048360e-06 
-4.0092177e-06 5.0095855e-06 -8.6961390e-06 
2.2371236e-05 -2.7592555e-06 -8.5333604e-06 
3.0163921e-05 -3.0155124e-06 -4.4415458e-07 
3.9498867e-05 -8.5365964e-06 4.5234319e-06 
2.5901292e-05 -1.0036168e-05 4.8944139e-06 
4.9484552e-06 -1.3177216e-06 -7.8096764e-06 
3.6142244e-06 6.5006825e-06 3.0524880e-06 
1.9377562e-06 2.9854942e-07 7.2414728e-06 
3.3200365e-06 -4.3211885e-06 4.9584878e-06 
8.6292836e-08 1.3843070e-05 -1.3643143e-05 
0.0000000e+00 8.3055202e-05 0.0000000e+00 
0.0000000e+00 6.5732922e-05 0.0000000e+00 
0.0000000e+00 -4.0519275e-04 0.0000000e+00 
0.0000000e+00 -1.1453796e-03 0.0000000e+00 
0.0000000e+00 -1.0803723e-03 0.0000000e+00 
0.0000000e+00 -3.0131821e-04 0.0000000e+00 
0.0000000e+00 -3.6836936e-05 0.0000000e+00 
0.0000000e+00 -5.9148591e-05 0.0000000e+00 
0.0000000e+00 -7.1077295e-05 0.0000000e+00 
0.0000000e+00 -6.9432710e-05 0.0000000e+00 
0.0000000e+00 5.6597262e-05 0.0000000e+00 
0.0000000e+00 6.7291148e-05 0.0000000e+00 
0.0000000e+00 -4.1993288e-04 0.0000000e+00 
0.0000000e+00 -1.1291039e-03 0.0000000e+00 
0.0000000e+00 -1.1363392e-03 0.0000000e+00 
0.0000000e+00 -3.3705033e-04 0.0000000e+00 
0.0000000e+00 2.4395436e-05 0.0000000e+00 
0.0000000e+00 6.4551845e-05 0.0000000e+00 
0.0000000e+00 -1.5439060e-05 0.0000000e+00 
-2.6196378e-06 -1.2212176e-05 1.6239517e-06 
6.5879147e-05 7.6014046e-05 -1.6515936e-05 
4.8322996e-05 1.1605075e-04 7.2570314e-05 
-2.6274167e-04 -3.9554908e-04 3.1917437e-04 
-6.4331177e-04 -1.2935700e-03 1.0200354e-04 
-5.7905383e-04 -1.3969237e-03 -1.8241603e-04 
-1.7356826e-04 -2.2967695e-04 -2.0765752e-04 
1.9497293e-06 -1.6533744e-05 -4.5906687e-05 
-2.1408197e-05 -5.4962708e-05 -2.0909065e-05 
-7.1898445e-05 -8.1942737e-05 9.8301542e-05 
-2.3767019e-05 -6.0101880e-05 -9.5656971e-05 
5.7578120e-05 3.4448411e-05 -9.1110080e-05 
5.6534023e-05 1.4843825e-04 7.2548755e-05 
-2.5000548e-04 -4.0427505e-04 2.7324425e-04 
-6.4263825e-04 -1.2543366e-03 1.7959606e-04 
-6.1901932e-04 -1.4378463e-03 -4.0424246e-05 
-1.8102431e-04 -2.7812843e-04 -3.0515934e-04 
2.6032170e-05 4.3294327e-05 -1.7239012e-04 
3.2528718e-05 6.7038869e-05 3.6753914e-05 
-2.6714306e-06 -9.0759349e-06 7.4199081e-05 
0.0000000e+00 1.0782880e-04 0.0000000e+00 
0.0000000e+00 1.2874874e-04 0.0000000e+00 
0.0000000e+00 -7.7757781e-04 0.0000000e+00 
0.0000000e+00 -2.2542363e-03 0.0000000e+00 
0.0000000e+00 -2.1083462e-03 0.0000000e+00 
0.0000000e+00 -5.0977693e-04 0.0000000e+00 
0.0000000e+00 -9.6182634e-07 0.0000000e+00 
0.0000000e+00 -8.7164459e-05 0.0000000e+00 
0.0000000e+00 -8.3437677e-05 0.0000000e+00 
0.0000000e+00 -8.3016486e-05 0.0000000e+00 
0.0000000e+00 6.8189402e-05 0.0000000e+00 
0.0000000e+00 1.3262477e-04 0.0000000e+00 
0.0000000e+00 -8.5043738e-04 0.0000000e+00 
0.0000000e+00 -2.2775624e-03 0.0000000e+00 
0.0000000e+00 -2.1590972e-03 0.0000000e+00 
0.0000000e+00 -5.2381784e-04 0.0000000e+00 
0.0000000e+00 6.5497690e-05 0.0000000e+00 
0.0000000e+00 8.0718964e-05 0.0000000e+00 
0.0000000e+00 -1.8321483e-05 0.0000000e+00 
9.4475690e-06 1.9160656e-05 -1.0514651e-05 
2.9037563e-05 3.5512563e-05 4.4729354e-06 
5.1058920e-05 -2.5860008e-05 5.3103272e-06 
5.3197160e-05 -1.0357592e-04 -2.1951682e-05 
4.7454971e-05 -8.3078594e-05 -8.3938530e-06 
3.3549601e-05 -4.0574992e-05 -2.7882431e-06 
7.6642791e-06 -6.5811496e-06 -8.6823575e-06 
-6.8024715e-06 -4.1264957e-06 3.3791198e-06 
-1.7544950e-05 -1.7454964e-05 1.3465138e-05 
-8.0936761e-06 -2.3076878e-05 -1.2193658e-05 
2.8056722e-06 1.5065722e-05 -1.5206236e-05 
2.7463224e-05 4.5168465e-05 4.6852069e-06 
6.4964464e-05 -3.4593904e-05 4.6505188e-06 
6.1602528e-05 -7.9264762e-05 9.7628181e-06 
3.5304511e-05 -1.0986471e-04 2.0969655e-05 
2.5521451e-05 -7.1392591e-05 -1.4644314e-05 
-2.8335259e-07 2.0627018e-05 -3.7122438e-05 
1.5777684e-06 -3.9752013e-06 1.4322523e-05 
2.0886089e-05 5.3713833e-05 2.1829637e-05 
0.0000000e+00 0.0000000e+00 0.0000000e+00 
0.0000000e+00 0.0000000e+00 0.0000000e+00 
0.0000000e+00 0.0000000e+00 0.0000000e+00 
0.0000000e+00 0.0000000e+00 0.0000000e+00 
0.0000000e+00 0.0000000e+00 0.0000000e+00 
0.0000000e+00 0.0000000e+00 0.0000000e+00 
0.0000000e+00 0.0000000e+00 0.0000000e+00 
0.0000000e+00 0.0000000e+00 0.0000000e+00 
0.0000000e+00 0.0000000e+00 0.0000000e+00 
0.0000000e+00 0.0000000e+00 0.0000000e+00 
0.0000000e+00 0.0000000e+00 0.0000000e+00 
0.0000000e+00 0.0000000e+00 0.0000000e+00 
0.0000000e+00 0.0000000e+00 0.0000000e+00 
0.0000000e+00 0.0000000e+00 0.0000000e+00 
0.0000000e+00 0.0000000e+00 0.0000000e+00 
0.0000000e+00 0.0000000e+00 0.0000000e+00 
0.0000000e+00 0.0000000e+00 0.0000000e+00 
0.0000000e+00 0.0000000e+00 0.0000000e+00 
0.0000000e+00 0.0000000e+00 0.0000000e+00 
0.0000000e+00 0.0000000e+00 0.0000000e+00 
0.0000000e+00 0.0000000e+00 0.0000000e+00 
0.0000000e+00 0.0000000e+00 0.0000000e+00 
0.0000000e+00 0.0000000e+00 0.0000000e+00 
0.0000000e+00 0.0000000e+00 0.0000000e+00 
0.0000000e+00 0.0000000e+00 0.0000000e+00 
0.0000000e+00 0.0000000e+00 0.0000000e+00 
0.0000000e+00 0.0000000e+00 0.0000000e+00 
0.0000000e+00 0.0000000e+00 0.0000000e+00 
0.0000000e+00 0.0000000e+00 0.0000000e+00 
0.0000000e+00 0.0000000e+00 0.0000000e+00 
0.0000000e+00 0.0000000e+00 0.0000000e+00 
0.0000000e+00 0.0000000e+00 0.0000000e+00 
0.0000000e+00 0.0000000e+00 0.0000000e+00 
0.0000000e+00 0.0000000e+00 0.0000000e+00 
0.0000000e+00 0.0000000e+00 0.0000000e+00 
0.0000000e+00 0.0000000e+00 0.0000000e+00 
0.0000000e+00 0.0000000e+00 0.0000000e+00 
0.0000000e+00 0.0000000e+00 0.0000000e+00 
0.0000000e+00 0.0000000e+00 0.0000000e+00 
0.0000000e+00 0.0000000e+00 0.0000000e+00 
0.0000000e+00 0.0000000e+00 0.0000000e+00 
0.0000000e+00 0.0000000e+00 0.0000000e+00 
-1.8487908e-06 -5.5391911e-07 -7.2301378e-07 
3.9862416e-06 -8.2606698e-07 9.5840289e-07 
3.4419384e-06 -1.5956105e-06 3.4010845e-06 
-1.3448681e-06 1.6253421e-06 -1.5318237e-06 
6.0267862e-06 -5.7125999e-06 -4.0667201e-06 
2.3659226e-05 -8.5534402e-06 -2.9154116e-06 
2.5728023e-05 -1.1688580e-05 -7.2819927e-07 
2.2319344e-05 -1.1480498e-05 2.7993738e-06 
3.8802405e-06 -4.9131404e-07 5.1677353e-06 
-3.5204216e-06 3.0543542e-06 3.4491993e-06 
-7.7646297e-07 -6.1769106e-07 1.5752886e-06 
1.2238992e-06 -1.4267243e-06 1.5971269e-06 
-2.6541356e-06 -1.1826008e-06 -3.6078534e-06 
8.3594250e-06 -3.4407030e-06 -8.6888822e-06 
2.6546995e-05 -1.0464896e-05 -6.6468810e-06 
2.2859933e-05 -1.1948481e-05 -4.5090192e-07 
1.9080611e-05 -7.4877557e-06 4.3946335e-07 
2.2280378e-06 4.0396023e-07 2.4832036e-06 
2.8138265e-07 -3.6741071e-06 1.6775264e-06 
-2.3405805e-06 1.0242415e-07 1.1219678e-06 
-1.7786740e-06 1.4697564e-05 -2.1307260e-06 
6.4282695e-08 -7.5149951e-06 3.3801548e-06 
3.8572289e-05 1.1254276e-05 -1.5882519e-05 
8.3222170e-05 -1.5913585e-05 -5.9714475e-06 
2.3753113e-05 -1.0943331e-06 6.6838488e-06 
6.6157007e-08 -1.1612644e-06 4.7349822e-06 
-1.8156535e-06 -3.6695023e-06 8.8985291e-07 
2.9972496e-05 1.5129062e-05 -1.3775453e-05 
8.1514641e-05 -2.0194260e-05 4.6528135e-06 
2.2014498e-05 -5.5812707e-06 7.5037246e-06 
1.1335858e-04 -2.3358496e-04 -5.3152715e-05 
9.0618487e-05 -1.8343388e-04 4.0191990e-05 
9.1903412e-06 -1.9375399e-05 2.4859862e-06 
-3.0980980e-06 -3.3848133e-05 7.6228548e-06 
1.0080478e-05 3.5124940e-05 -2.3063476e-06 
1.1720829e-04 -2.0460473e-04 -3.4333636e-05 
8.3053215e-05 -2.1580367e-04 4.4218021e-05 
6.3529187e-06 2.4232642e-05 5.2675441e-06 
-7.6410163e-07 1.6460459e-05 4.8380239e-06 
1.2908960e-06 1.6132886e-05 -2.9163939e-06 
-1.3528238e-06 1.2510104e-06 3.6195413e-06 
1.2125602e-06 3.9917104e-05 2.7696381e-06 
5.6257013e-05 -1.7074351e-05 -1.2469856e-05 
3.8876453e-05 -1.3846383e-05 9.2127284e-09 
5.6139697e-06 -8.3737081e-07 3.9869715e-06 
-3.9928000e-06 -1.0775079e-05 1.8791975e-06 
3.5965963e-06 1.2554368e-05 -1.2825126e-06 