# vtk DataFile Version 4.0
vtk output
ASCII
DATASET UNSTRUCTURED_GRID
POINTS 662 float
0.0000000e+00 0.0000000e+00 0.0000000e+00 
0.0000000e+00 0.0000000e+00 4.0000000e+01 
5.0000000e+00 0.0000000e+00 0.0000000e+00 
5.0000000e+00 0.0000000e+00 4.0000000e+01 
5.0000000e+00 1.0000000e+00 0.0000000e+00 
5.0000000e+00 1.0000000e+00 4.0000000e+01 
0.0000000e+00 1.0000000e+00 0.0000000e+00 
0.0000000e+00 1.0000000e+00 4.0000000e+01 
5.0000000e+00 2.0000000e+00 0.0000000e+00 
5.0000000e+00 2.0000000e+00 4.0000000e+01 
3.0000000e+00 2.0000000e+00 0.0000000e+00 
3.0000000e+00 2.0000000e+00 4.0000000e+01 
0.0000000e+00 2.0000000e+00 0.0000000e+00 
0.0000000e+00 2.0000000e+00 4.0000000e+01 
1.5000000e+00 3.0000000e+00 0.0000000e+00 
1.5000000e+00 3.0000000e+00 4.0000000e+01 
7.5000000e-01 3.0000000e+00 0.0000000e+00 
7.5000000e-01 3.0000000e+00 4.0000000e+01 
0.0000000e+00 3.0000000e+00 0.0000000e+00 
0.0000000e+00 3.0000000e+00 4.0000000e+01 
7.5000000e-01 3.0000000e+00 5.0000000e-01 
7.5000000e-01 3.0000000e+00 1.0000000e+00 
7.5000000e-01 3.0000000e+00 1.5000000e+00 
7.5000000e-01 3.0000000e+00 2.0000000e+00 
7.5000000e-01 3.0000000e+00 2.5000000e+00 
7.5000000e-01 3.0000000e+00 3.0000000e+00 
7.5000000e-01 3.0000000e+00 3.5000000e+00 
7.5000000e-01 3.0000000e+00 4.0000000e+00 
7.5000000e-01 3.0000000e+00 4.5000000e+00 
7.5000000e-01 3.0000000e+00 5.0000000e+00 
7.5000000e-01 3.0000000e+00 5.5000000e+00 
7.5000000e-01 3.0000000e+00 6.0000000e+00 
7.5000000e-01 3.0000000e+00 6.5000000e+00 
7.5000000e-01 3.0000000e+00 7.0000000e+00 
7.5000000e-01 3.0000000e+00 7.5000000e+00 
7.5000000e-01 3.0000000e+00 8.0000000e+00 
7.5000000e-01 3.0000000e+00 8.5000000e+00 
7.5000000e-01 3.0000000e+00 9.0000000e+00 
7.5000000e-01 3.0000000e+00 9.5000000e+00 
7.5000000e-01 3.0000000e+00 1.0000000e+01 
7.5000000e-01 3.0000000e+00 1.0500000e+01 
7.5000000e-01 3.0000000e+00 1.1000000e+01 
7.5000000e-01 3.0000000e+00 1.1500000e+01 
7.5000000e-01 3.0000000e+00 1.2000000e+01 
7.5000000e-01 3.0000000e+00 1.2500000e+01 
7.5000000e-01 3.0000000e+00 1.3000000e+01 
7.5000000e-01 3.0000000e+00 1.3500000e+01 
7.5000000e-01 3.0000000e+00 1.4000000e+01 
7.5000000e-01 3.0000000e+00 1.4500000e+01 
7.5000000e-01 3.0000000e+00 1.5000000e+01 
7.5000000e-01 3.0000000e+00 1.5500000e+01 
7.5000000e-01 3.0000000e+00 1.6000000e+01 
7.5000000e-01 3.0000000e+00 1.6500000e+01 
7.5000000e-01 3.0000000e+00 1.7000000e+01 
7.5000000e-01 3.0000000e+00 1.7500000e+01 
7.5000000e-01 3.0000000e+00 1.8000000e+01 
7.5000000e-01 3.0000000e+00 1.8500000e+01 
7.5000000e-01 3.0000000e+00 1.9000000e+01 
7.5000000e-01 3.0000000e+00 1.9500000e+01 
7.5000000e-01 3.0000000e+00 2.0000000e+01 
7.5000000e-01 3.0000000e+00 2.0500000e+01 
7.5000000e-01 3.0000000e+00 2.1000000e+01 
7.5000000e-01 3.0000000e+00 2.1500000e+01 
7.5000000e-01 3.0000000e+00 2.2000000e+01 
7.5000000e-01 3.0000000e+00 2.2500000e+01 
7.5000000e-01 3.0000000e+00 2.3000000e+01 
7.5000000e-01 3.0000000e+00 2.3500000e+01 
7.5000000e-01 3.0000000e+00 2.4000000e+01 
7.5000000e-01 3.0000000e+00 2.4500000e+01 
7.5000000e-01 3.0000000e+00 2.5000000e+01 
7.5000000e-01 3.0000000e+00 2.5500000e+01 
7.5000000e-01 3.0000000e+00 2.6000000e+01 
7.5000000e-01 3.0000000e+00 2.6500000e+01 
7.5000000e-01 3.0000000e+00 2.7000000e+01 
7.5000000e-01 3.0000000e+00 2.7500000e+01 
7.5000000e-01 3.0000000e+00 2.8000000e+01 
7.5000000e-01 3.0000000e+00 2.8500000e+01 
7.5000000e-01 3.0000000e+00 2.9000000e+01 
7.5000000e-01 3.0000000e+00 2.9500000e+01 
7.5000000e-01 3.0000000e+00 3.0000000e+01 
7.5000000e-01 3.0000000e+00 3.0500000e+01 
7.5000000e-01 3.0000000e+00 3.1000000e+01 
7.5000000e-01 3.0000000e+00 3.1500000e+01 
7.5000000e-01 3.0000000e+00 3.2000000e+01 
7.5000000e-01 3.0000000e+00 3.2500000e+01 
7.5000000e-01 3.0000000e+00 3.3000000e+01 
7.5000000e-01 3.0000000e+00 3.3500000e+01 
7.5000000e-01 3.0000000e+00 3.4000000e+01 
7.5000000e-01 3.0000000e+00 3.4500000e+01 
7.5000000e-01 3.0000000e+00 3.5000000e+01 
7.5000000e-01 3.0000000e+00 3.5500000e+01 
7.5000000e-01 3.0000000e+00 3.6000000e+01 
7.5000000e-01 3.0000000e+00 3.6500000e+01 
7.5000000e-01 3.0000000e+00 3.7000000e+01 
7.5000000e-01 3.0000000e+00 3.7500000e+01 
7.5000000e-01 3.0000000e+00 3.8000000e+01 
7.5000000e-01 3.0000000e+00 3.8500000e+01 
7.5000000e-01 3.0000000e+00 3.9000000e+01 
7.5000000e-01 3.0000000e+00 3.9500000e+01 
7.5000000e-01 3.0000000e+00 4.0500000e+01 
7.5000000e-01 3.0000000e+00 4.1000000e+01 
7.5000000e-01 3.0000000e+00 4.1500000e+01 
7.5000000e-01 3.0000000e+00 4.2000000e+01 
7.5000000e-01 3.0000000e+00 4.2500000e+01 
7.5000000e-01 3.0000000e+00 4.3000000e+01 
7.5000000e-01 3.0000000e+00 4.3500000e+01 
7.5000000e-01 3.0000000e+00 4.4000000e+01 
7.5000000e-01 3.0000000e+00 4.4500000e+01 
7.5000000e-01 3.0000000e+00 4.5000000e+01 
7.5000000e-01 3.0000000e+00 4.5500000e+01 
7.5000000e-01 3.0000000e+00 4.6000000e+01 
7.5000000e-01 3.0000000e+00 4.6500000e+01 
7.5000000e-01 3.0000000e+00 4.7000000e+01 
7.5000000e-01 3.0000000e+00 4.7500000e+01 
7.5000000e-01 3.0000000e+00 4.8000000e+01 
7.5000000e-01 3.0000000e+00 4.8500000e+01 
7.5000000e-01 3.0000000e+00 4.9000000e+01 
7.5000000e-01 3.0000000e+00 4.9500000e+01 
7.5000000e-01 3.0000000e+00 5.0000000e+01 
7.5000000e-01 3.0250001e+00 0.0000000e+00 
7.5000000e-01 3.0250001e+00 5.0000000e-01 
7.5000000e-01 3.0250001e+00 1.0000000e+00 
7.5000000e-01 3.0250001e+00 1.5000000e+00 
7.5000000e-01 3.0250001e+00 2.0000000e+00 
7.5000000e-01 3.0250001e+00 2.5000000e+00 
7.5000000e-01 3.0250001e+00 3.0000000e+00 
7.5000000e-01 3.0250001e+00 3.5000000e+00 
7.5000000e-01 3.0250001e+00 4.0000000e+00 
7.5000000e-01 3.0250001e+00 4.5000000e+00 
7.5000000e-01 3.0250001e+00 5.0000000e+00 
7.5000000e-01 3.0250001e+00 5.5000000e+00 
7.5000000e-01 3.0250001e+00 6.0000000e+00 
7.5000000e-01 3.0250001e+00 6.5000000e+00 
7.5000000e-01 3.0250001e+00 7.0000000e+00 
7.5000000e-01 3.0250001e+00 7.5000000e+00 
7.5000000e-01 3.0250001e+00 8.0000000e+00 
7.5000000e-01 3.0250001e+00 8.5000000e+00 
7.5000000e-01 3.0250001e+00 9.0000000e+00 
7.5000000e-01 3.0250001e+00 9.5000000e+00 
7.5000000e-01 3.0250001e+00 1.0000000e+01 
7.5000000e-01 3.0250001e+00 1.0500000e+01 
7.5000000e-01 3.0250001e+00 1.1000000e+01 
7.5000000e-01 3.0250001e+00 1.1500000e+01 
7.5000000e-01 3.0250001e+00 1.2000000e+01 
7.5000000e-01 3.0250001e+00 1.2500000e+01 
7.5000000e-01 3.0250001e+00 1.3000000e+01 
7.5000000e-01 3.0250001e+00 1.3500000e+01 
7.5000000e-01 3.0250001e+00 1.4000000e+01 
7.5000000e-01 3.0250001e+00 1.4500000e+01 
7.5000000e-01 3.0250001e+00 1.5000000e+01 
7.5000000e-01 3.0250001e+00 1.5500000e+01 
7.5000000e-01 3.0250001e+00 1.6000000e+01 
7.5000000e-01 3.0250001e+00 1.6500000e+01 
7.5000000e-01 3.0250001e+00 1.7000000e+01 
7.5000000e-01 3.0250001e+00 1.7500000e+01 
7.5000000e-01 3.0250001e+00 1.8000000e+01 
7.5000000e-01 3.0250001e+00 1.8500000e+01 
7.5000000e-01 3.0250001e+00 1.9000000e+01 
7.5000000e-01 3.0250001e+00 1.9500000e+01 
7.5000000e-01 3.0250001e+00 2.0000000e+01 
7.5000000e-01 3.0250001e+00 2.0500000e+01 
7.5000000e-01 3.0250001e+00 2.1000000e+01 
7.5000000e-01 3.0250001e+00 2.1500000e+01 
7.5000000e-01 3.0250001e+00 2.2000000e+01 
7.5000000e-01 3.0250001e+00 2.2500000e+01 
7.5000000e-01 3.0250001e+00 2.3000000e+01 
7.5000000e-01 3.0250001e+00 2.3500000e+01 
7.5000000e-01 3.0250001e+00 2.4000000e+01 
7.5000000e-01 3.0250001e+00 2.4500000e+01 
7.5000000e-01 3.0250001e+00 2.5000000e+01 
7.5000000e-01 3.0250001e+00 2.5500000e+01 
7.5000000e-01 3.0250001e+00 2.6000000e+01 
7.5000000e-01 3.0250001e+00 2.6500000e+01 
7.5000000e-01 3.0250001e+00 2.7000000e+01 
7.5000000e-01 3.0250001e+00 2.7500000e+01 
7.5000000e-01 3.0250001e+00 2.8000000e+01 
7.5000000e-01 3.0250001e+00 2.8500000e+01 
7.5000000e-01 3.0250001e+00 2.9000000e+01 
7.5000000e-01 3.0250001e+00 2.9500000e+01 
7.5000000e-01 3.0250001e+00 3.0000000e+01 
7.5000000e-01 3.0250001e+00 3.0500000e+01 
7.5000000e-01 3.0250001e+00 3.1000000e+01 
7.5000000e-01 3.0250001e+00 3.1500000e+01 
7.5000000e-01 3.0250001e+00 3.2000000e+01 
7.5000000e-01 3.0250001e+00 3.2500000e+01 
7.5000000e-01 3.0250001e+00 3.3000000e+01 
7.5000000e-01 3.0250001e+00 3.3500000e+01 
7.5000000e-01 3.0250001e+00 3.4000000e+01 
7.5000000e-01 3.0250001e+00 3.4500000e+01 
7.5000000e-01 3.0250001e+00 3.5000000e+01 
7.5000000e-01 3.0250001e+00 3.5500000e+01 
7.5000000e-01 3.0250001e+00 3.6000000e+01 
7.5000000e-01 3.0250001e+00 3.6500000e+01 
7.5000000e-01 3.0250001e+00 3.7000000e+01 
7.5000000e-01 3.0250001e+00 3.7500000e+01 
7.5000000e-01 3.0250001e+00 3.8000000e+01 
7.5000000e-01 3.0250001e+00 3.8500000e+01 
7.5000000e-01 3.0250001e+00 3.9000000e+01 
7.5000000e-01 3.0250001e+00 3.9500000e+01 
7.5000000e-01 3.0250001e+00 4.0000000e+01 
7.5000000e-01 3.0250001e+00 4.0500000e+01 
7.5000000e-01 3.0250001e+00 4.1000000e+01 
7.5000000e-01 3.0250001e+00 4.1500000e+01 
7.5000000e-01 3.0250001e+00 4.2000000e+01 
7.5000000e-01 3.0250001e+00 4.2500000e+01 
7.5000000e-01 3.0250001e+00 4.3000000e+01 
7.5000000e-01 3.0250001e+00 4.3500000e+01 
7.5000000e-01 3.0250001e+00 4.4000000e+01 
7.5000000e-01 3.0250001e+00 4.4500000e+01 
7.5000000e-01 3.0250001e+00 4.5000000e+01 
7.5000000e-01 3.0250001e+00 4.5500000e+01 
7.5000000e-01 3.0250001e+00 4.6000000e+01 
7.5000000e-01 3.0250001e+00 4.6500000e+01 
7.5000000e-01 3.0250001e+00 4.7000000e+01 
7.5000000e-01 3.0250001e+00 4.7500000e+01 
7.5000000e-01 3.0250001e+00 4.8000000e+01 
7.5000000e-01 3.0250001e+00 4.8500000e+01 
7.5000000e-01 3.0250001e+00 4.9000000e+01 
7.5000000e-01 3.0250001e+00 4.9500000e+01 
7.5000000e-01 3.0250001e+00 5.0000000e+01 
7.5000000e-01 3.0250001e+00 3.5750000e+01 
3.0000000e+00 2.0000000e+00 3.6000000e+01 
8.0487806e-01 3.0000000e+00 3.6000000e+01 
0.0000000e+00 0.0000000e+00 2.0000000e+00 
0.0000000e+00 0.0000000e+00 4.0000000e+00 
0.0000000e+00 0.0000000e+00 6.0000000e+00 
0.0000000e+00 0.0000000e+00 8.0000000e+00 
0.0000000e+00 0.0000000e+00 1.0000000e+01 
0.0000000e+00 0.0000000e+00 1.2000000e+01 
0.0000000e+00 0.0000000e+00 1.4000000e+01 
[...]
POINT_DATA 662
FIELD FieldData 3
DISPLACEMENT 3 662  float
0.0000000e+00 0.0000000e+00 0.0000000e+00 
0.0000000e+00 0.0000000e+00 0.0000000e+00 
0.0000000e+00 0.0000000e+00 0.0000000e+00 
0.0000000e+00 0.0000000e+00 0.0000000e+00 
4.5555471e-06 -5.9764143e-06 -2.1575104e-06 
3.7310232e-07 8.7280574e-07 1.2917557e-06 
0.0000000e+00 1.3924273e-06 0.0000000e+00 
0.0000000e+00 -1.1348289e-05 0.0000000e+00 
1.1893172e-07 -6.3984203e-06 -5.1961551e-06 
-2.7541091e-06 2.3265006e-06 -1.3551368e-06 
-5.4213118e-08 -2.2986113e-05 -2.6857129e-05 
-1.4169731e-06 -3.6059278e-06 -5.1819361e-06 
0.0000000e+00 3.6925794e-06 0.0000000e+00 
0.0000000e+00 -2.0272526e-05 0.0000000e+00 
2.8807159e-07 -1.4462613e-05 -9.9418459e-05 
-9.9614344e-06 -1.6384556e-05 -3.2759486e-05 
-7.4604113e-06 5.0971626e-05 -5.1212563e-05 
1.8516082e-06 -3.3347504e-05 -3.8329796e-05 
0.0000000e+00 3.7237994e-06 0.0000000e+00 
0.0000000e+00 -2.8096734e-05 0.0000000e+00 
2.4434594e-05 5.8387577e-05 -7.1820104e-05 
3.8034908e-05 7.7909732e-05 -5.6875597e-05 
4.5027256e-05 1.0342849e-04 -4.8766127e-05 
4.9597984e-05 1.3311394e-04 -3.2174969e-05 
5.2958992e-05 1.6488988e-04 -5.9350396e-06 
4.9006554e-05 1.9323481e-04 1.1380374e-05 
3.5266785e-05 2.0600816e-04 3.5065332e-05 
2.4608193e-05 1.7255022e-04 5.8629521e-05 
-7.4769805e-06 4.9408918e-05 9.8496530e-05 
-1.8429959e-05 -2.0507886e-04 1.3780333e-04 
-5.5007175e-05 -6.5290718e-04 1.8974961e-04 
-1.1506183e-04 -1.3355215e-03 1.3341055e-04 
-2.5761826e-04 -2.2698620e-03 2.0938457e-04 
-2.6202007e-04 -3.2824234e-03 1.8685206e-04 
-1.4779846e-04 -4.0761307e-03 1.1135029e-04 
-1.1550644e-04 -4.1130842e-03 1.0110051e-04 
-2.6030824e-04 -3.9496124e-03 2.4449884e-05 
-3.3339878e-04 -3.9427355e-03 -6.2082922e-06 
-2.1458868e-04 -4.1943258e-03 -5.7674715e-05 
-5.1467214e-05 -4.1999174e-03 -1.1109005e-04 
-7.7597324e-05 -3.4703983e-03 -1.8902947e-04 
-1.7216026e-04 -2.3992003e-03 -1.9416903e-04 
-1.8057374e-04 -1.4655314e-03 -1.6432285e-04 
-6.7131950e-05 -7.5890886e-04 -8.3513289e-05 
-3.1040505e-05 -3.1898456e-04 -1.0786876e-04 
-1.7379054e-05 -7.9372192e-05 -6.7284280e-05 
-2.1864924e-05 2.3685427e-05 -4.0075960e-05 
-1.8429648e-05 4.4256805e-05 -2.0494961e-05 
-1.4047515e-05 1.9441810e-05 -7.3798496e-06 
-8.4267749e-06 -2.2894401e-05 -3.3495303e-06 
-6.4956907e-06 -6.3323248e-05 -8.4969570e-06 
-1.3252966e-05 -9.4611991e-05 -1.2409829e-05 
-1.5516191e-05 -1.1270992e-04 3.8687140e-06 
-1.7388649e-05 -1.2064508e-04 2.1081025e-05 
-3.3851269e-05 -1.2274629e-04 5.2099862e-05 
-5.0706618e-05 -1.2073657e-04 7.7096942e-05 
-4.9808445e-05 -1.1510669e-04 5.7390695e-05 
-5.2615444e-05 -1.0623376e-04 2.6669994e-05 
-3.7824473e-05 -9.3044517e-05 -1.5497812e-05 
-1.5253594e-05 -7.3935000e-05 -5.9941638e-05 
3.0046294e-06 -4.5398305e-05 -7.3799689e-05 
1.7011727e-05 -9.1558677e-06 -7.4861389e-05 
3.1676453e-05 3.4190281e-05 -7.8188539e-05 
4.1428866e-05 8.1116297e-05 -6.7481531e-05 
5.0456678e-05 1.2676824e-04 -4.5441164e-05 
5.3602926e-05 1.6370660e-04 -1.9296791e-05 
4.2060703e-05 1.7879078e-04 8.7418102e-06 
2.9775649e-05 1.4301224e-04 3.5687790e-05 
-1.2677754e-05 1.1865510e-05 6.6993030e-05 
-2.1605629e-05 -2.5877263e-04 9.7849676e-05 
-3.6848553e-05 -7.3374523e-04 1.3430872e-04 
-8.3825216e-05 -1.4483451e-03 6.6634180e-05 
-2.2664455e-04 -2.4058786e-03 1.6489456e-04 
-2.2988979e-04 -3.3898486e-03 1.6344096e-04 
-1.3107405e-04 -4.0390105e-03 1.3135072e-04 
-9.8287288e-05 -3.9559295e-03 1.7919051e-04 
-2.4372216e-04 -3.7997137e-03 1.2436425e-04 
-3.1092312e-04 -3.8477951e-03 1.0811602e-04 
-2.0515831e-04 -4.1301125e-03 7.2149116e-05 
-7.0945112e-05 -4.0576146e-03 4.3000135e-05 
-1.1705475e-04 -3.2856516e-03 -9.4648050e-05 
-2.2130938e-04 -2.2809666e-03 -1.5266397e-04 
-2.1569153e-04 -1.4293679e-03 -1.7855303e-04 
-1.0043367e-04 -7.8635698e-04 -1.5618444e-04 
-5.6236087e-05 -3.7117611e-04 -2.0092326e-04 
-3.3243767e-05 -1.2423740e-04 -1.7599443e-04 
-2.1027596e-05 1.0259699e-05 -1.6539282e-04 
5.6657012e-07 7.6310505e-05 -1.4460407e-04 
2.3036187e-05 1.0108923e-04 -9.7389500e-05 
4.0957289e-05 1.0447246e-04 -4.8673697e-05 
3.4497163e-05 9.6748488e-05 -1.1520488e-05 
2.5169076e-05 8.1550454e-05 2.5345640e-05 
1.9903115e-05 6.0327657e-05 4.7683199e-05 
1.4040459e-05 3.6223395e-05 5.9382935e-05 
3.1697982e-06 1.2086558e-05 7.0446600e-05 
-7.0940728e-06 -8.4360454e-06 6.5549968e-05 
-1.0615632e-05 -2.3271106e-05 4.7816138e-05 
-1.4433313e-05 -3.2079381e-05 2.3375373e-05 
-1.0699832e-05 -3.5317200e-05 -1.3741352e-06 
0.0000000e+00 -2.7120195e-05 0.0000000e+00 
0.0000000e+00 -1.6366921e-05 0.0000000e+00 
0.0000000e+00 -2.3767441e-06 0.0000000e+00 
0.0000000e+00 1.2473140e-05 0.0000000e+00 
0.0000000e+00 2.5210058e-05 0.0000000e+00 
0.0000000e+00 3.3113425e-05 0.0000000e+00 
0.0000000e+00 3.4473647e-05 0.0000000e+00 
0.0000000e+00 2.9005390e-05 0.0000000e+00 
0.0000000e+00 1.7817069e-05 0.0000000e+00 
0.0000000e+00 3.0384404e-06 0.0000000e+00 
0.0000000e+00 -1.2659363e-05 0.0000000e+00 
0.0000000e+00 -2.6451002e-05 0.0000000e+00 
0.0000000e+00 -3.5638041e-05 0.0000000e+00 
0.0000000e+00 -3.7989161e-05 0.0000000e+00 
0.0000000e+00 -3.2286349e-05 0.0000000e+00 
0.0000000e+00 -1.8983861e-05 0.0000000e+00 
0.0000000e+00 -6.1847550e-07 0.0000000e+00 
0.0000000e+00 1.8432956e-05 0.0000000e+00 
0.0000000e+00 3.2979231e-05 0.0000000e+00 
0.0000000e+00 3.8518752e-05 0.0000000e+00 
0.0000000e+00 5.1186282e-05 0.0000000e+00 
0.0000000e+00 5.8557001e-05 0.0000000e+00 
0.0000000e+00 7.7701028e-05 0.0000000e+00 
0.0000000e+00 1.0341752e-04 0.0000000e+00 
0.0000000e+00 1.3326482e-04 0.0000000e+00 
0.0000000e+00 1.6525036e-04 0.0000000e+00 
0.0000000e+00 1.9427664e-04 0.0000000e+00 
0.0000000e+00 2.0671885e-04 0.0000000e+00 
0.0000000e+00 1.7259270e-04 0.0000000e+00 
0.0000000e+00 5.0541836e-05 0.0000000e+00 
0.0000000e+00 -2.0578444e-04 0.0000000e+00 
0.0000000e+00 -6.5443083e-04 0.0000000e+00 
0.0000000e+00 -1.3446735e-03 0.0000000e+00 
0.0000000e+00 -2.2773540e-03 0.0000000e+00 
0.0000000e+00 -3.3140129e-03 0.0000000e+00 
0.0000000e+00 -4.0999451e-03 0.0000000e+00 
0.0000000e+00 -4.1433889e-03 0.0000000e+00 
0.0000000e+00 -3.9633787e-03 0.0000000e+00 
0.0000000e+00 -3.9733057e-03 0.0000000e+00 
0.0000000e+00 -4.2143166e-03 0.0000000e+00 
0.0000000e+00 -4.2345235e-03 0.0000000e+00 
0.0000000e+00 -3.4886773e-03 0.0000000e+00 
0.0000000e+00 -2.4181020e-03 0.0000000e+00 
0.0000000e+00 -1.4678532e-03 0.0000000e+00 
0.0000000e+00 -7.6343340e-04 0.0000000e+00 
0.0000000e+00 -3.1878788e-04 0.0000000e+00 
0.0000000e+00 -7.8493911e-05 0.0000000e+00 
0.0000000e+00 2.4653065e-05 0.0000000e+00 
0.0000000e+00 4.4729124e-05 0.0000000e+00 
0.0000000e+00 1.9865021e-05 0.0000000e+00 
0.0000000e+00 -2.2295868e-05 0.0000000e+00 
0.0000000e+00 -6.3161307e-05 0.0000000e+00 
0.0000000e+00 -9.4275274e-05 0.0000000e+00 
0.0000000e+00 -1.1265901e-04 0.0000000e+00 
0.0000000e+00 -1.2081781e-04 0.0000000e+00 
0.0000000e+00 -1.2285174e-04 0.0000000e+00 
0.0000000e+00 -1.2077983e-04 0.0000000e+00 
0.0000000e+00 -1.1520507e-04 0.0000000e+00 
0.0000000e+00 -1.0626771e-04 0.0000000e+00 
0.0000000e+00 -9.3118360e-05 0.0000000e+00 
0.0000000e+00 -7.3648844e-05 0.0000000e+00 
0.0000000e+00 -4.5440200e-05 0.0000000e+00 
0.0000000e+00 -9.0247886e-06 0.0000000e+00 
0.0000000e+00 3.4249919e-05 0.0000000e+00 
0.0000000e+00 8.1190381e-05 0.0000000e+00 
0.0000000e+00 1.2707361e-04 0.0000000e+00 
0.0000000e+00 1.6460015e-04 0.0000000e+00 
0.0000000e+00 1.7962970e-04 0.0000000e+00 
0.0000000e+00 1.4317631e-04 0.0000000e+00 
0.0000000e+00 1.3022581e-05 0.0000000e+00 
0.0000000e+00 -2.5993236e-04 0.0000000e+00 
0.0000000e+00 -7.3570950e-04 0.0000000e+00 
0.0000000e+00 -1.4589813e-03 0.0000000e+00 
0.0000000e+00 -2.4148305e-03 0.0000000e+00 
0.0000000e+00 -3.4246147e-03 0.0000000e+00 
0.0000000e+00 -4.0627550e-03 0.0000000e+00 
0.0000000e+00 -3.9855773e-03 0.0000000e+00 
0.0000000e+00 -3.8130675e-03 0.0000000e+00 
0.0000000e+00 -3.8793364e-03 0.0000000e+00 
0.0000000e+00 -4.1512563e-03 0.0000000e+00 
0.0000000e+00 -4.0909988e-03 0.0000000e+00 
0.0000000e+00 -3.3017588e-03 0.0000000e+00 
0.0000000e+00 -2.2968177e-03 0.0000000e+00 
0.0000000e+00 -1.4310159e-03 0.0000000e+00 
0.0000000e+00 -7.8965968e-04 0.0000000e+00 
0.0000000e+00 -3.7095323e-04 0.0000000e+00 
0.0000000e+00 -1.2335429e-04 0.0000000e+00 
0.0000000e+00 1.1195145e-05 0.0000000e+00 
0.0000000e+00 7.6712458e-05 0.0000000e+00 
0.0000000e+00 1.0158588e-04 0.0000000e+00 
0.0000000e+00 1.0481368e-04 0.0000000e+00 
0.0000000e+00 9.6850614e-05 0.0000000e+00 
0.0000000e+00 8.1459228e-05 0.0000000e+00 
0.0000000e+00 6.0330462e-05 0.0000000e+00 
0.0000000e+00 3.6207446e-05 0.0000000e+00 
0.0000000e+00 1.2188634e-05 0.0000000e+00 
0.0000000e+00 -8.3414361e-06 0.0000000e+00 
0.0000000e+00 -2.3244698e-05 0.0000000e+00 
0.0000000e+00 -3.2096865e-05 0.0000000e+00 
0.0000000e+00 -3.5314111e-05 0.0000000e+00 
0.0000000e+00 -3.3434793e-05 0.0000000e+00 
0.0000000e+00 -2.7055414e-05 0.0000000e+00 
0.0000000e+00 -1.6307398e-05 0.0000000e+00 
0.0000000e+00 -2.3446239e-06 0.0000000e+00 
0.0000000e+00 1.2463918e-05 0.0000000e+00 
0.0000000e+00 2.5161871e-05 0.0000000e+00 
0.0000000e+00 3.3044529e-05 0.0000000e+00 
0.0000000e+00 3.4409048e-05 0.0000000e+00 
0.0000000e+00 2.8963568e-05 0.0000000e+00 
0.0000000e+00 1.7801185e-05 0.0000000e+00 
0.0000000e+00 3.0390020e-06 0.0000000e+00 
0.0000000e+00 -1.2652030e-05 0.0000000e+00 
0.0000000e+00 -2.6435202e-05 0.0000000e+00 
0.0000000e+00 -3.5601202e-05 0.0000000e+00 
0.0000000e+00 -3.7921294e-05 0.0000000e+00 
0.0000000e+00 -3.2195407e-05 0.0000000e+00 
0.0000000e+00 -1.8899267e-05 0.0000000e+00 
0.0000000e+00 -5.7809621e-07 0.0000000e+00 
0.0000000e+00 1.8404540e-05 0.0000000e+00 
0.0000000e+00 3.2887361e-05 0.0000000e+00 
0.0000000e+00 3.8400514e-05 0.0000000e+00 
0.0000000e+00 9.0038171e-05 0.0000000e+00 
3.4104894e-06 2.6475876e-05 2.4416784e-06 
2.6042759e-05 8.2845865e-05 2.5318495e-05 
0.0000000e+00 0.0000000e+00 0.0000000e+00 
0.0000000e+00 0.0000000e+00 0.0000000e+00 
0.0000000e+00 0.0000000e+00 0.0000000e+00 
0.0000000e+00 0.0000000e+00 0.0000000e+00 
0.0000000e+00 0.0000000e+00 0.0000000e+00 
0.0000000e+00 0.0000000e+00 0.0000000e+00 
0.0000000e+00 0.0000000e+00 0.0000000e+00 
0.0000000e+00 0.0000000e+00 0.0000000e+00 
0.0000000e+00 0.0000000e+00 0.0000000e+00 
0.0000000e+00 0.0000000e+00 0.0000000e+00 
0.0000000e+00 0.0000000e+00 0.0000000e+00 
0.0000000e+00 0.0000000e+00 0.0000000e+00 
0.0000000e+00 0.0000000e+00 0.0000000e+00 
0.0000000e+00 0.0000000e+00 0.0000000e+00 
0.0000000e+00 0.0000000e+00 0.0000000e+00 
0.0000000e+00 0.0000000e+00 0.0000000e+00 
0.0000000e+00 0.0000000e+00 0.0000000e+00 
0.0000000e+00 0.0000000e+00 0.0000000e+00 
0.0000000e+00 0.0000000e+00 0.0000000e+00 
0.0000000e+00 0.0000000e+00 0.0000000e+00 
0.0000000e+00 0.0000000e+00 0.0000000e+00 
0.0000000e+00 0.0000000e+00 0.0000000e+00 
0.0000000e+00 0.0000000e+00 0.0000000e+00 
0.0000000e+00 0.0000000e+00 0.0000000e+00 
0.0000000e+00 0.0000000e+00 0.0000000e+00 
0.0000000e+00 0.0000000e+00 0.0000000e+00 
0.0000000e+00 0.0000000e+00 0.0000000e+00 
0.0000000e+00 0.0000000e+00 0.0000000e+00 
0.0000000e+00 0.0000000e+00 0.0000000e+00 
0.0000000e+00 0.0000000e+00 0.0000000e+00 
0.0000000e+00 0.0000000e+00 0.0000000e+00 
0.0000000e+00 0.0000000e+00 0.0000000e+00 
0.0000000e+00 0.0000000e+00 0.0000000e+00 
0.0000000e+00 0.0000000e+00 0.0000000e+00 
0.0000000e+00 0.0000000e+00 0.0000000e+00 
0.0000000e+00 0.0000000e+00 0.0000000e+00 
0.0000000e+00 0.0000000e+00 0.0000000e+00 
0.0000000e+00 0.0000000e+00 0.0000000e+00 
0.0000000e+00 0.0000000e+00 0.0000000e+00 
0.0000000e+00 0.0000000e+00 0.0000000e+00 
0.0000000e+00 0.0000000e+00 0.0000000e+00 
0.0000000e+00 0.0000000e+00 0.0000000e+00 
-2.5763752e-06 -2.8110458e-06 -5.1441029e-06 
7.7620634e-06 1.1384064e-06 -1.1451349e-05 
3.1200540e-05 -3.7202126e-06 -1.4807074e-05 
4.6411104e-05 -1.4727998e-05 -8.2970973e-06 
4.5314129e-05 -8.5471038e-06 3.2675255e-06 
1.7015931e-05 5.7668888e-07 -1.3934249e-06 
4.4658527e-06 2.2419786e-06 3.6473375e-06 
5.9314893e-06 5.7386058e-07 7.5479657e-06 
2.8989141e-06 -5.5254500e-06 4.8676329e-06 
-2.1527071e-06 -5.0186695e-06 2.0709051e-06 
-4.5532424e-06 3.2610355e-06 -1.4055939e-06 
7.4128284e-06 -2.3494381e-06 -6.5932318e-06 
2.7869572e-05 -5.5984092e-06 -6.6665148e-06 
4.7755711e-05 -8.4517987e-06 -2.4395085e-06 
4.6175624e-05 -1.2247750e-05 3.6595322e-06 
2.0857946e-05 -5.6139806e-06 3.7440452e-06 
1.3285947e-06 5.9561116e-06 8.4408830e-06 
-2.6928119e-06 2.9191499e-06 4.5367874e-06 
1.9071274e-06 -4.4405283e-06 2.5515074e-06 
0.0000000e+00 4.8343802e-05 0.0000000e+00 
0.0000000e+00 4.3266911e-05 0.0000000e+00 
0.0000000e+00 -1.8962238e-04 0.0000000e+00 
0.0000000e+00 -5.4454902e-04 0.0000000e+00 
0.0000000e+00 -4.8990466e-04 0.0000000e+00 
0.0000000e+00 -1.3791969e-04 0.0000000e+00 
0.0000000e+00 -1.9242034e-05 0.0000000e+00 
0.0000000e+00 -3.8778711e-05 0.0000000e+00 
0.0000000e+00 -4.1894855e-05 0.0000000e+00 
0.0000000e+00 -3.7624759e-05 0.0000000e+00 
0.0000000e+00 2.9148237e-05 0.0000000e+00 
0.0000000e+00 3.2013813e-05 0.0000000e+00 
0.0000000e+00 -1.8466140e-04 0.0000000e+00 
0.0000000e+00 -4.8878189e-04 0.0000000e+00 
0.0000000e+00 -4.9078267e-04 0.0000000e+00 
0.0000000e+00 -1.7971963e-04 0.0000000e+00 
0.0000000e+00 6.8873960e-06 0.0000000e+00 
0.0000000e+00 3.6340440e-05 0.0000000e+00 
0.0000000e+00 -8.8930456e-06 0.0000000e+00 
1.3922221e-07 -1.2399122e-05 -6.5997492e-06 
-4.7741473e-06 -1.2947850e-05 -7.0904744e-06 
4.3575076e-07 -1.4450345e-06 -2.1754981e-06 
1.2259360e-06 -8.2514907e-06 2.0992404e-06 
4.3544114e-06 -2.8133888e-06 -1.1445686e-05 
2.1169360e-05 7.1885967e-07 -1.8328226e-05 
3.8693379e-05 3.9203169e-07 -5.9629219e-06 
4.7757432e-05 -2.4604919e-06 -5.6888621e-06 
3.2503616e-05 -8.2676843e-06 -1.9446579e-06 
1.1875967e-05 2.8177774e-06 -1.0120277e-05 
2.2522986e-06 3.4092488e-06 5.0943931e-06 
5.0466915e-06 -1.1854493e-06 1.2019736e-05 
-1.4872739e-06 -7.7269997e-06 8.7558301e-06 
-8.9518016e-06 -5.2832665e-06 -2.0044533e-06 
-2.1486453e-06 4.1471881e-06 -8.5710835e-06 
2.3554354e-05 -3.2422256e-06 -8.2480246e-06 
3.0758096e-05 -3.2446510e-06 -1.7787424e-07 
3.9811413e-05 -7.9660058e-06 4.8269294e-06 
2.6377627e-05 -9.9799217e-06 5.1759716e-06 
4.9263685e-06 -1.6961638e-06 -7.3534479e-06 
3.0935480e-06 6.3829361e-06 2.3910823e-06 
2.1031265e-06 9.4707133e-07 6.7026886e-06 
3.5473163e-06 -3.8496341e-06 4.8047918e-06 
1.4340567e-06 -8.6017562e-06 -3.0063677e-05 
0.0000000e+00 9.1914553e-05 0.0000000e+00 
0.0000000e+00 8.8051223e-05 0.0000000e+00 
0.0000000e+00 -4.0202579e-04 0.0000000e+00 
0.0000000e+00 -1.2045625e-03 0.0000000e+00 
0.0000000e+00 -1.1084935e-03 0.0000000e+00 
0.0000000e+00 -2.5598233e-04 0.0000000e+00 
0.0000000e+00 -1.7167837e-05 0.0000000e+00 
0.0000000e+00 -7.1636110e-05 0.0000000e+00 
0.0000000e+00 -7.2408162e-05 0.0000000e+00 
0.0000000e+00 -6.4508378e-05 0.0000000e+00 
0.0000000e+00 5.4429747e-05 0.0000000e+00 
0.0000000e+00 6.7508561e-05 0.0000000e+00 
0.0000000e+00 -4.1313883e-04 0.0000000e+00 
0.0000000e+00 -1.1099497e-03 0.0000000e+00 
0.0000000e+00 -1.0930158e-03 0.0000000e+00 
0.0000000e+00 -3.2677912e-04 0.0000000e+00 
0.0000000e+00 1.9191793e-05 0.0000000e+00 
0.0000000e+00 6.0469927e-05 0.0000000e+00 
0.0000000e+00 -1.3722436e-05 0.0000000e+00 
-3.1419229e-06 -1.2927041e-05 2.5127240e-06 
7.1417162e-05 8.6306827e-05 -2.9738505e-05 
5.7288969e-05 1.4233663e-04 7.7745804e-05 
-2.6283698e-04 -3.9194225e-04 3.5008384e-04 
-6.6600094e-04 -1.3547875e-03 1.0708239e-04 
-5.9111492e-04 -1.4258700e-03 -2.3037932e-04 
-1.5461732e-04 -1.8131755e-04 -2.1615582e-04 
8.2503639e-06 4.2383408e-06 -1.7559476e-05 
-2.6517419e-05 -6.8327907e-05 -1.8593773e-05 
-7.1038332e-05 -8.3826075e-05 8.8791392e-05 
-2.1816577e-05 -5.4598157e-05 -9.3065675e-05 
5.7718142e-05 3.2567048e-05 -9.1156646e-05 
5.6890935e-05 1.4887148e-04 7.0002381e-05 
-2.4805014e-04 -3.9883697e-04 2.6901893e-04 
-6.2947121e-04 -1.2330543e-03 1.7061287e-04 
-5.9882982e-04 -1.3883791e-03 -3.6796249e-05 
-1.7708131e-04 -2.6845394e-04 -2.8737789e-04 
2.2873988e-05 4.0146733e-05 -1.7708115e-04 
3.1814823e-05 6.0627903e-05 3.4202174e-05 
-3.2310356e-06 -8.7597082e-06 7.6349083e-05 
0.0000000e+00 1.1954018e-04 0.0000000e+00 
0.0000000e+00 1.6215346e-04 0.0000000e+00 
0.0000000e+00 -7.6792104e-04 0.0000000e+00 
0.0000000e+00 -2.3450700e-03 0.0000000e+00 
0.0000000e+00 -2.1571266e-03 0.0000000e+00 
0.0000000e+00 -4.3975306e-04 0.0000000e+00 
0.0000000e+00 2.9958475e-05 0.0000000e+00 
0.0000000e+00 -1.0618995e-04 0.0000000e+00 
0.0000000e+00 -8.6056476e-05 0.0000000e+00 
0.0000000e+00 -7.6005803e-05 0.0000000e+00 
0.0000000e+00 6.4528118e-05 0.0000000e+00 
0.0000000e+00 1.3324375e-04 0.0000000e+00 
0.0000000e+00 -8.3707680e-04 0.0000000e+00 
0.0000000e+00 -2.2429600e-03 0.0000000e+00 
0.0000000e+00 -2.0841735e-03 0.0000000e+00 
0.0000000e+00 -5.0621328e-04 0.0000000e+00 
0.0000000e+00 5.6347693e-05 0.0000000e+00 
0.0000000e+00 7.4916687e-05 0.0000000e+00 
0.0000000e+00 -1.3298728e-05 0.0000000e+00 
1.0814707e-05 2.1725102e-05 -1.5277179e-05 
3.0399491e-05 4.1712639e-05 4.6450018e-06 
5.1820360e-05 -2.6639564e-05 7.6114675e-06 
5.2132720e-05 -1.1609630e-04 -2.4167377e-05 
4.6644069e-05 -8.5743777e-05 -1.2825566e-05 
3.4119297e-05 -3.1603591e-05 -2.8133070e-06 
8.2013212e-06 -3.2492426e-06 -5.8438723e-06 
-7.0167039e-06 -6.8005229e-06 3.6338972e-06 
-1.7173677e-05 -1.7934355e-05 1.2411537e-05 
-7.3567571e-06 -2.2191753e-05 -1.2198620e-05 
3.6472097e-06 1.4662621e-05 -1.5465457e-05 
2.8044398e-05 4.4847286e-05 4.3854534e-06 
6.4608554e-05 -3.3902477e-05 4.4485578e-06 
6.1484730e-05 -7.6514189e-05 9.6976573e-06 
3.4924375e-05 -1.0389786e-04 2.2174539e-05 
2.4441148e-05 -6.9678179e-05 -1.3608307e-05 
2.2594651e-08 1.9736746e-05 -3.7663158e-05 
1.3384712e-06 -4.8103257e-06 1.4623967e-05 
2.0614398e-05 4.9454407e-05 2.0053865e-05 
0.0000000e+00 0.0000000e+00 0.0000000e+00 
0.0000000e+00 0.0000000e+00 0.0000000e+00 
0.0000000e+00 0.0000000e+00 0.0000000e+00 
0.0000000e+00 0.0000000e+00 0.0000000e+00 
0.0000000e+00 0.0000000e+00 0.0000000e+00 
0.0000000e+00 0.0000000e+00 0.0000000e+00 
0.0000000e+00 0.0000000e+00 0.0000000e+00 
0.0000000e+00 0.0000000e+00 0.0000000e+00 
0.0000000e+00 0.0000000e+00 0.0000000e+00 
0.0000000e+00 0.0000000e+00 0.0000000e+00 
0.0000000e+00 0.0000000e+00 0.0000000e+00 
0.0000000e+00 0.0000000e+00 0.0000000e+00 
0.0000000e+00 0.0000000e+00 0.0000000e+00 
0.0000000e+00 0.0000000e+00 0.0000000e+00 
0.0000000e+00 0.0000000e+00 0.0000000e+00 
0.0000000e+00 0.0000000e+00 0.0000000e+00 
0.0000000e+00 0.0000000e+00 0.0000000e+00 
0.0000000e+00 0.0000000e+00 0.0000000e+00 
0.0000000e+00 0.0000000e+00 0.0000000e+00 
0.0000000e+00 0.0000000e+00 0.0000000e+00 
0.0000000e+00 0.0000000e+00 0.0000000e+00 
0.0000000e+00 0.0000000e+00 0.0000000e+00 
0.0000000e+00 0.0000000e+00 0.0000000e+00 
0.0000000e+00 0.0000000e+00 0.0000000e+00 
0.0000000e+00 0.0000000e+00 0.0000000e+00 
0.0000000e+00 0.0000000e+00 0.0000000e+00 
0.0000000e+00 0.0000000e+00 0.0000000e+00 
0.0000000e+00 0.0000000e+00 0.0000000e+00 
0.0000000e+00 0.0000000e+00 0.0000000e+00 
0.0000000e+00 0.0000000e+00 0.0000000e+00 
0.0000000e+00 0.0000000e+00 0.0000000e+00 
0.0000000e+00 0.0000000e+00 0.0000000e+00 
0.0000000e+00 0.0000000e+00 0.0000000e+00 
0.0000000e+00 0.0000000e+00 0.0000000e+00 
0.0000000e+00 0.0000000e+00 0.0000000e+00 
0.0000000e+00 0.0000000e+00 0.0000000e+00 
0.0000000e+00 0.0000000e+00 0.0000000e+00 
0.0000000e+00 0.0000000e+00 0.0000000e+00 
0.0000000e+00 0.0000000e+00 0.0000000e+00 
0.0000000e+00 0.0000000e+00 0.0000000e+00 
0.0000000e+00 0.0000000e+00 0.0000000e+00 
0.0000000e+00 0.0000000e+00 0.0000000e+00 
5.1831957e-08 -1.4852831e-06 -1.0537465e-06 
2.9938412e-06 -5.0680683e-07 6.6681116e-07 
2.2727361e-06 2.2045282e-07 2.1593241e-06 
-7.7249882e-07 1.3848702e-06 -1.4329336e-06 
6.3199145e-06 -5.7922748e-06 -3.7069153e-06 
2.3315386e-05 -8.3146715e-06 -2.5482302e-06 
2.5119813e-05 -1.1435800e-05 -7.4861055e-07 
2.1675825e-05 -1.1195816e-05 2.6848693e-06 