# vtk DataFile Version 4.0
vtk output
ASCII
DATASET UNSTRUCTURED_GRID
POINTS 662 float
0.0000000e+00 0.0000000e+00 0.0000000e+00 
0.0000000e+00 0.0000000e+00 4.0000000e+01 
5.0000000e+00 0.0000000e+00 0.0000000e+00 
5.0000000e+00 0.0000000e+00 4.0000000e+01 
5.0000000e+00 1.0000000e+00 0.0000000e+00 
5.0000000e+00 1.0000000e+00 4.0000000e+01 
0.0000000e+00 1.0000000e+00 0.0000000e+00 
0.0000000e+00 1.0000000e+00 4.0000000e+01 
5.0000000e+00 2.0000000e+00 0.0000000e+00 
5.0000000e+00 2.0000000e+00 4.0000000e+01 
3.0000000e+00 2.0000000e+00 0.0000000e+00 
3.0000000e+00 2.0000000e+00 4.0000000e+01 
0.0000000e+00 2.0000000e+00 0.0000000e+00 
0.0000000e+00 2.0000000e+00 4.0000000e+01 
1.5000000e+00 3.0000000e+00 0.0000000e+00 
1.5000000e+00 3.0000000e+00 4.0000000e+01 
7.5000000e-01 3.0000000e+00 0.0000000e+00 
7.5000000e-01 3.0000000e+00 4.0000000e+01 
0.0000000e+00 3.0000000e+00 0.0000000e+00 
0.0000000e+00 3.0000000e+00 4.0000000e+01 
7.5000000e-01 3.0000000e+00 5.0000000e-01 
7.5000000e-01 3.0000000e+00 1.0000000e+00 
7.5000000e-01 3.0000000e+00 1.5000000e+00 
7.5000000e-01 3.0000000e+00 2.0000000e+00 
7.5000000e-01 3.0000000e+00 2.5000000e+00 
7.5000000e-01 3.0000000e+00 3.0000000e+00 
7.5000000e-01 3.0000000e+00 3.5000000e+00 
7.5000000e-01 3.0000000e+00 4.0000000e+00 
7.5000000e-01 3.0000000e+00 4.5000000e+00 
7.5000000e-01 3.0000000e+00 5.0000000e+00 
7.5000000e-01 3.0000000e+00 5.5000000e+00 
7.5000000e-01 3.0000000e+00 6.0000000e+00 
7.5000000e-01 3.0000000e+00 6.5000000e+00 
7.5000000e-01 3.0000000e+00 7.0000000e+00 
7.5000000e-01 3.0000000e+00 7.5000000e+00 
7.5000000e-01 3.0000000e+00 8.0000000e+00 
7.5000000e-01 3.0000000e+00 8.5000000e+00 
7.5000000e-01 3.0000000e+00 9.0000000e+00 
7.5000000e-01 3.0000000e+00 9.5000000e+00 
7.5000000e-01 3.0000000e+00 1.0000000e+01 
7.5000000e-01 3.0000000e+00 1.0500000e+01 
7.5000000e-01 3.0000000e+00 1.1000000e+01 
7.5000000e-01 3.0000000e+00 1.1500000e+01 
7.5000000e-01 3.0000000e+00 1.2000000e+01 
7.5000000e-01 3.0000000e+00 1.2500000e+01 
7.5000000e-01 3.0000000e+00 1.3000000e+01 
7.5000000e-01 3.0000000e+00 1.3500000e+01 
7.5000000e-01 3.0000000e+00 1.4000000e+01 
7.5000000e-01 3.0000000e+00 1.4500000e+01 
7.5000000e-01 3.0000000e+00 1.5000000e+01 
7.5000000e-01 3.0000000e+00 1.5500000e+01 
7.5000000e-01 3.0000000e+00 1.6000000e+01 
7.5000000e-01 3.0000000e+00 1.6500000e+01 
7.5000000e-01 3.0000000e+00 1.7000000e+01 
7.5000000e-01 3.0000000e+00 1.7500000e+01 
7.5000000e-01 3.0000000e+00 1.8000000e+01 
7.5000000e-01 3.0000000e+00 1.8500000e+01 
7.5000000e-01 3.0000000e+00 1.9000000e+01 
7.5000000e-01 3.0000000e+00 1.9500000e+01 
7.5000000e-01 3.0000000e+00 2.0000000e+01 
7.5000000e-01 3.0000000e+00 2.0500000e+01 
7.5000000e-01 3.0000000e+00 2.1000000e+01 
7.5000000e-01 3.0000000e+00 2.1500000e+01 
7.5000000e-01 3.0000000e+00 2.2000000e+01 
7.5000000e-01 3.0000000e+00 2.2500000e+01 
7.5000000e-01 3.0000000e+00 2.3000000e+01 
7.5000000e-01 3.0000000e+00 2.3500000e+01 
7.5000000e-01 3.0000000e+00 2.4000000e+01 
7.5000000e-01 3.0000000e+00 2.4500000e+01 
7.5000000e-01 3.0000000e+00 2.5000000e+01 
7.5000000e-01 3.0000000e+00 2.5500000e+01 
7.5000000e-01 3.0000000e+00 2.6000000e+01 
7.5000000e-01 3.0000000e+00 2.6500000e+01 
7.5000000e-01 3.0000000e+00 2.7000000e+01 
7.5000000e-01 3.0000000e+00 2.7500000e+01 
7.5000000e-01 3.0000000e+00 2.8000000e+01 
7.5000000e-01 3.0000000e+00 2.8500000e+01 
7.5000000e-01 3.0000000e+00 2.9000000e+01 
7.5000000e-01 3.0000000e+00 2.9500000e+01 
7.5000000e-01 3.0000000e+00 3.0000000e+01 
7.5000000e-01 3.0000000e+00 3.0500000e+01 
7.5000000e-01 3.0000000e+00 3.1000000e+01 
7.5000000e-01 3.0000000e+00 3.1500000e+01 
7.5000000e-01 3.0000000e+00 3.2000000e+01 
7.5000000e-01 3.0000000e+00 3.2500000e+01 
7.5000000e-01 3.0000000e+00 3.3000000e+01 
7.5000000e-01 3.0000000e+00 3.3500000e+01 
7.5000000e-01 3.0000000e+00 3.4000000e+01 
7.5000000e-01 3.0000000e+00 3.4500000e+01 
7.5000000e-01 3.0000000e+00 3.5000000e+01 
7.5000000e-01 3.0000000e+00 3.5500000e+01 
7.5000000e-01 3.0000000e+00 3.6000000e+01 
7.5000000e-01 3.0000000e+00 3.6500000e+01 
7.5000000e-01 3.0000000e+00 3.7000000e+01 
7.5000000e-01 3.0000000e+00 3.7500000e+01 
7.5000000e-01 3.0000000e+00 3.8000000e+01 
7.5000000e-01 3.0000000e+00 3.8500000e+01 
7.5000000e-01 3.0000000e+00 3.9000000e+01 
7.5000000e-01 3.0000000e+00 3.9500000e+01 
7.5000000e-01 3.0000000e+00 4.0500000e+01 
7.5000000e-01 3.0000000e+00 4.1000000e+01 
7.5000000e-01 3.0000000e+00 4.1500000e+01 
7.5000000e-01 3.0000000e+00 4.2000000e+01 
7.5000000e-01 3.0000000e+00 4.2500000e+01 
7.5000000e-01 3.0000000e+00 4.3000000e+01 
7.5000000e-01 3.0000000e+00 4.3500000e+01 
7.5000000e-01 3.0000000e+00 4.4000000e+01 
7.5000000e-01 3.0000000e+00 4.4500000e+01 
7.5000000e-01 3.0000000e+00 4.5000000e+01 
7.5000000e-01 3.0000000e+00 4.5500000e+01 
7.5000000e-01 3.0000000e+00 4.6000000e+01 
7.5000000e-01 3.0000000e+00 4.6500000e+01 
7.5000000e-01 3.0000000e+00 4.7000000e+01 
7.5000000e-01 3.0000000e+00 4.7500000e+01 
7.5000000e-01 3.0000000e+00 4.8000000e+01 
7.5000000e-01 3.0000000e+00 4.8500000e+01 
7.5000000e-01 3.0000000e+00 4.9000000e+01 
7.5000000e-01 3.0000000e+00 4.9500000e+01 
7.5000000e-01 3.0000000e+00 5.0000000e+01 
7.5000000e-01 3.0250001e+00 0.0000000e+00 
7.5000000e-01 3.0250001e+00 5.0000000e-01 
7.5000000e-01 3.0250001e+00 1.0000000e+00 
7.5000000e-01 3.0250001e+00 1.5000000e+00 
7.5000000e-01 3.0250001e+00 2.0000000e+00 
7.5000000e-01 3.0250001e+00 2.5000000e+00 
7.5000000e-01 3.0250001e+00 3.0000000e+00 
7.5000000e-01 3.0250001e+00 3.5000000e+00 
7.5000000e-01 3.0250001e+00 4.0000000e+00 
7.5000000e-01 3.0250001e+00 4.5000000e+00 
7.5000000e-01 3.0250001e+00 5.0000000e+00 
7.5000000e-01 3.0250001e+00 5.5000000e+00 
7.5000000e-01 3.0250001e+00 6.0000000e+00 
7.5000000e-01 3.0250001e+00 6.5000000e+00 
7.5000000e-01 3.0250001e+00 7.0000000e+00 
7.5000000e-01 3.0250001e+00 7.5000000e+00 
7.5000000e-01 3.0250001e+00 8.0000000e+00 
7.5000000e-01 3.0250001e+00 8.5000000e+00 
7.5000000e-01 3.0250001e+00 9.0000000e+00 
7.5000000e-01 3.0250001e+00 9.5000000e+00 
7.5000000e-01 3.0250001e+00 1.0000000e+01 
7.5000000e-01 3.0250001e+00 1.0500000e+01 
7.5000000e-01 3.0250001e+00 1.1000000e+01 
7.5000000e-01 3.0250001e+00 1.1500000e+01 
7.5000000e-01 3.0250001e+00 1.2000000e+01 
7.5000000e-01 3.0250001e+00 1.2500000e+01 
7.5000000e-01 3.0250001e+00 1.3000000e+01 
7.5000000e-01 3.0250001e+00 1.3500000e+01 
7.5000000e-01 3.0250001e+00 1.4000000e+01 
7.5000000e-01 3.0250001e+00 1.4500000e+01 
7.5000000e-01 3.0250001e+00 1.5000000e+01 
7.5000000e-01 3.0250001e+00 1.5500000e+01 
7.5000000e-01 3.0250001e+00 1.6000000e+01 
7.5000000e-01 3.0250001e+00 1.6500000e+01 
7.5000000e-01 3.0250001e+00 1.7000000e+01 
7.5000000e-01 3.0250001e+00 1.7500000e+01 
7.5000000e-01 3.0250001e+00 1.8000000e+01 
7.5000000e-01 3.0250001e+00 1.8500000e+01 
7.5000000e-01 3.0250001e+00 1.9000000e+01 
7.5000000e-01 3.0250001e+00 1.9500000e+01 
7.5000000e-01 3.0250001e+00 2.0000000e+01 
7.5000000e-01 3.0250001e+00 2.0500000e+01 
7.5000000e-01 3.0250001e+00 2.1000000e+01 
7.5000000e-01 3.0250001e+00 2.1500000e+01 
7.5000000e-01 3.0250001e+00 2.2000000e+01 
7.5000000e-01 3.0250001e+00 2.2500000e+01 
7.5000000e-01 3.0250001e+00 2.3000000e+01 
7.5000000e-01 3.0250001e+00 2.3500000e+01 
7.5000000e-01 3.0250001e+00 2.4000000e+01 
7.5000000e-01 3.0250001e+00 2.4500000e+01 
7.5000000e-01 3.0250001e+00 2.5000000e+01 
7.5000000e-01 3.0250001e+00 2.5500000e+01 
7.5000000e-01 3.0250001e+00 2.6000000e+01 
7.5000000e-01 3.0250001e+00 2.6500000e+01 
7.5000000e-01 3.0250001e+00 2.7000000e+01 
7.5000000e-01 3.0250001e+00 2.7500000e+01 
7.5000000e-01 3.0250001e+00 2.8000000e+01 
7.5000000e-01 3.0250001e+00 2.8500000e+01 
7.5000000e-01 3.0250001e+00 2.9000000e+01 
7.5000000e-01 3.0250001e+00 2.9500000e+01 
7.5000000e-01 3.0250001e+00 3.0000000e+01 
7.5000000e-01 3.0250001e+00 3.0500000e+01 
7.5000000e-01 3.0250001e+00 3.1000000e+01 
7.5000000e-01 3.0250001e+00 3.1500000e+01 
7.5000000e-01 3.0250001e+00 3.2000000e+01 
7.5000000e-01 3.0250001e+00 3.2500000e+01 
7.5000000e-01 3.0250001e+00 3.3000000e+01 
7.5000000e-01 3.0250001e+00 3.3500000e+01 
7.5000000e-01 3.0250001e+00 3.4000000e+01 
7.5000000e-01 3.0250001e+00 3.4500000e+01 
7.5000000e-01 3.0250001e+00 3.5000000e+01 
7.5000000e-01 3.0250001e+00 3.5500000e+01 
7.5000000e-01 3.0250001e+00 3.6000000e+01 
7.5000000e-01 3.0250001e+00 3.6500000e+01 
7.5000000e-01 3.0250001e+00 3.7000000e+01 
7.5000000e-01 3.0250001e+00 3.7500000e+01 
7.5000000e-01 3.0250001e+00 3.8000000e+01 
7.5000000e-01 3.0250001e+00 3.8500000e+01 
7.5000000e-01 3.0250001e+00 3.9000000e+01 
7.5000000e-01 3.0250001e+00 3.9500000e+01 
7.5000000e-01 3.0250001e+00 4.0000000e+01 
7.5000000e-01 3.0250001e+00 4.0500000e+01 
7.5000000e-01 3.0250001e+00 4.1000000e+01 
7.5000000e-01 3.0250001e+00 4.1500000e+01 
7.5000000e-01 3.0250001e+00 4.2000000e+01 
7.5000000e-01 3.0250001e+00 4.2500000e+01 
7.5000000e-01 3.0250001e+00 4.3000000e+01 
7.5000000e-01 3.0250001e+00 4.3500000e+01 
7.5000000e-01 3.0250001e+00 4.4000000e+01 
7.5000000e-01 3.0250001e+00 4.4500000e+01 
7.5000000e-01 3.0250001e+00 4.5000000e+01 
7.5000000e-01 3.0250001e+00 4.5500000e+01 
7.5000000e-01 3.0250001e+00 4.6000000e+01 
7.5000000e-01 3.0250001e+00 4.6500000e+01 
7.5000000e-01 3.0250001e+00 4.7000000e+01 
7.5000000e-01 3.0250001e+00 4.7500000e+01 
7.5000000e-01 3.0250001e+00 4.8000000e+01 
7.5000000e-01 3.0250001e+00 4.8500000e+01 
7.5000000e-01 3.0250001e+00 4.9000000e+01 
7.5000000e-01 3.0250001e+00 4.9500000e+01 
7.5000000e-01 3.0250001e+00 5.0000000e+01 
7.5000000e-01 3.0250001e+00 3.5750000e+01 
3.0000000e+00 2.0000000e+00 3.6000000e+01 
8.0487806e-01 3.0000000e+00 3.6000000e+01 
0.0000000e+00 0.0000000e+00 2.0000000e+00 
0.0000000e+00 0.0000000e+00 4.0000000e+00 
0.0000000e+00 0.0000000e+00 6.0000000e+00 
0.0000000e+00 0.0000000e+00 8.0000000e+00 
0.0000000e+00 0.0000000e+00 1.0000000e+01 
0.0000000e+00 0.0000000e+00 1.2000000e+01 
0.0000000e+00 0.0000000e+00 1.4000000e+01 
[...]
POINT_DATA 662
FIELD FieldData 3
DISPLACEMENT 3 662  float
0.0000000e+00 0.0000000e+00 0.0000000e+00 
0.0000000e+00 0.0000000e+00 0.0000000e+00 
0.0000000e+00 0.0000000e+00 0.0000000e+00 
0.0000000e+00 0.0000000e+00 0.0000000e+00 
1.2741457e-05 -2.0680847e-05 -2.9909201e-05 
-1.5241029e-07 -6.7921047e-07 -2.7502240e-08 
0.0000000e+00 -6.0608523e-05 0.0000000e+00 
0.0000000e+00 -1.6045179e-06 0.0000000e+00 
1.8601506e-05 -2.8699365e-05 -5.2089235e-05 
-3.8301201e-07 -8.4956105e-07 9.1805811e-07 
4.4917924e-06 -1.3572013e-05 -2.4310119e-05 
-5.6648082e-07 -2.0364562e-06 3.2640850e-07 
0.0000000e+00 -6.0955826e-05 0.0000000e+00 
0.0000000e+00 -3.5657233e-06 0.0000000e+00 
5.2882151e-05 5.8604852e-05 1.1101107e-04 
-4.3025327e-07 -8.3231889e-06 -2.2697750e-06 
3.8390554e-05 9.8926292e-05 2.5497912e-04 
4.1586196e-07 -7.6593533e-06 -7.9917339e-07 
0.0000000e+00 2.6387435e-05 0.0000000e+00 
0.0000000e+00 -6.6965495e-06 0.0000000e+00 
-3.1483127e-05 1.8901161e-05 2.0701643e-04 
-5.7418158e-05 -2.1878285e-04 1.3903488e-04 
-8.1175669e-05 -6.3819950e-04 2.2077534e-04 
-9.8843244e-05 -1.2771460e-03 2.4368906e-04 
-1.7761350e-04 -2.1270150e-03 1.3300459e-04 
-2.1000164e-04 -3.0961088e-03 1.4104237e-04 
-1.1447754e-04 -3.8794591e-03 1.0857339e-04 
-8.5702079e-05 -3.9383769e-03 1.2520514e-04 
-2.3055982e-04 -3.8203455e-03 6.3777828e-05 
-3.0130384e-04 -3.8718439e-03 5.1168161e-05 
-2.0492835e-04 -4.1839951e-03 1.6597420e-05 
-6.6170003e-05 -4.2455653e-03 -4.8916056e-05 
-1.0206526e-04 -3.5600630e-03 -1.5887436e-04 
-2.0529605e-04 -2.5245103e-03 -1.9786066e-04 
-1.9614294e-04 -1.6217609e-03 -1.8877511e-04 
-7.2460993e-05 -9.4007695e-04 -1.1597545e-04 
-4.6171896e-05 -5.1477033e-04 -1.5444795e-04 
-4.0963918e-05 -2.7399190e-04 -1.3863108e-04 
-3.2175732e-05 -1.4670980e-04 -1.3551649e-04 
-3.8850590e-06 -7.2237053e-05 -1.2260415e-04 
1.8137463e-05 -1.1965338e-05 -8.9171597e-05 
3.2190172e-05 4.6483830e-05 -4.9612918e-05 
2.2170689e-05 1.0117798e-04 -1.5473279e-05 
5.0591343e-06 1.4094285e-04 1.6244765e-05 
1.1533538e-06 1.5485098e-04 1.7948805e-05 
-3.6643607e-06 1.4640887e-04 1.3832532e-05 
-3.5388973e-06 1.2318979e-04 -9.1085519e-07 
2.3334837e-06 9.3721406e-05 -2.6056940e-05 
3.2810593e-07 6.5940789e-05 -4.0948176e-05 
5.9613126e-06 4.0655461e-05 -4.2777621e-05 
6.8601107e-06 1.6920952e-05 -3.2530421e-05 
6.5126883e-06 -5.6554782e-06 -1.4686619e-05 
5.1225288e-06 -2.7961269e-05 1.3567554e-05 
9.3250874e-06 -4.9692193e-05 3.2058630e-05 
7.6639599e-06 -7.1179536e-05 4.6716716e-05 
-6.8825489e-06 -8.7111912e-05 6.1107581e-05 
-2.4472087e-05 -9.2259957e-05 4.9741182e-05 
-2.9040142e-05 -8.8197172e-05 3.8952559e-05 
-1.9733643e-05 -8.1600156e-05 2.9320887e-05 
-2.0596372e-06 -1.0311553e-04 1.3776081e-05 
-3.6638128e-05 -1.9843114e-04 3.1616513e-05 
-5.7566940e-05 -4.2132966e-04 5.6625213e-05 
-7.8713347e-05 -8.4415899e-04 9.3039336e-05 
-1.1902703e-04 -1.5069724e-03 4.3234402e-05 
-2.2945435e-04 -2.4179330e-03 1.5996743e-04 
-2.1903423e-04 -3.3632938e-03 1.6414936e-04 
-1.2735573e-04 -3.9856788e-03 1.3681610e-04 
-1.0995501e-04 -3.8882399e-03 1.8329175e-04 
-2.6293730e-04 -3.7400662e-03 1.1270388e-04 
-3.2407505e-04 -3.8167962e-03 9.4146184e-05 
-2.1307346e-04 -4.1398401e-03 4.2625164e-05 
-7.7100594e-05 -4.1025043e-03 -1.4327482e-05 
-1.0527384e-04 -3.3485964e-03 -1.4816201e-04 
-2.0185571e-04 -2.3526037e-03 -2.0068932e-04 
-1.8926486e-04 -1.5066656e-03 -2.1380000e-04 
-8.2257153e-05 -8.6834328e-04 -1.5619505e-04 
-4.6585908e-05 -4.5792392e-04 -1.7974847e-04 
-2.7173150e-05 -2.1277367e-04 -1.4330292e-04 
-1.7836224e-05 -7.5734606e-05 -1.2085750e-04 
9.3545896e-06 5.2295246e-07 -9.4694064e-05 
2.4336923e-05 4.4687746e-05 -6.1682804e-05 
3.5765130e-05 7.2865965e-05 -2.4365518e-05 
2.3315635e-05 9.0167639e-05 8.4467338e-06 
6.4592627e-06 9.5508723e-05 3.3022348e-05 
-1.3558141e-06 8.5252861e-05 3.8632461e-05 
-8.0059308e-06 6.2780113e-05 3.2875501e-05 
-8.4283620e-06 3.4065219e-05 2.0069081e-05 
-5.1643406e-06 5.8604569e-06 3.4683167e-06 
-4.2021429e-06 -1.5001820e-05 -5.7068619e-06 
-2.2826698e-06 -2.7301969e-05 -1.2563872e-05 
2.3148496e-06 -2.9786357e-05 -1.5699161e-05 
1.1847320e-06 -2.2959262e-05 -1.0371421e-05 
1.6782645e-06 -8.8485067e-06 -3.9494153e-06 
1.7491558e-06 6.7376463e-06 2.5471224e-06 
-7.1902616e-07 1.5950576e-05 6.4554383e-06 
-6.4115261e-07 1.5993552e-05 5.1021566e-06 
-7.0660798e-07 8.6443279e-06 2.1018382e-06 
-5.5870481e-07 -9.4615973e-07 -1.3221691e-06 
-6.8999697e-08 -6.8177592e-06 -3.0033063e-06 
0.0000000e+00 -4.7100029e-06 0.0000000e+00 
0.0000000e+00 -5.5236598e-07 0.0000000e+00 
0.0000000e+00 2.3407194e-06 0.0000000e+00 
0.0000000e+00 3.0754115e-06 0.0000000e+00 
0.0000000e+00 2.3612338e-06 0.0000000e+00 
0.0000000e+00 1.4189242e-06 0.0000000e+00 
0.0000000e+00 8.5386790e-07 0.0000000e+00 
0.0000000e+00 4.3705890e-07 0.0000000e+00 
0.0000000e+00 -2.4603068e-07 0.0000000e+00 
0.0000000e+00 -1.1145670e-06 0.0000000e+00 
0.0000000e+00 -1.5977705e-06 0.0000000e+00 
0.0000000e+00 -1.2420181e-06 0.0000000e+00 
0.0000000e+00 -2.2243984e-07 0.0000000e+00 
0.0000000e+00 7.7262581e-07 0.0000000e+00 
0.0000000e+00 1.1335808e-06 0.0000000e+00 
0.0000000e+00 7.9636891e-07 0.0000000e+00 
0.0000000e+00 1.7851723e-07 0.0000000e+00 
0.0000000e+00 -2.6680499e-07 0.0000000e+00 
0.0000000e+00 -4.0816079e-07 0.0000000e+00 
0.0000000e+00 -4.0830548e-07 0.0000000e+00 
0.0000000e+00 9.8849509e-05 0.0000000e+00 
0.0000000e+00 2.0433474e-05 0.0000000e+00 
0.0000000e+00 -2.1802993e-04 0.0000000e+00 
0.0000000e+00 -6.4039731e-04 0.0000000e+00 
0.0000000e+00 -1.2807513e-03 0.0000000e+00 
0.0000000e+00 -2.1390028e-03 0.0000000e+00 
0.0000000e+00 -3.1276112e-03 0.0000000e+00 
0.0000000e+00 -3.9030048e-03 0.0000000e+00 
0.0000000e+00 -3.9687078e-03 0.0000000e+00 
0.0000000e+00 -3.8341060e-03 0.0000000e+00 
0.0000000e+00 -3.9021389e-03 0.0000000e+00 
0.0000000e+00 -4.2042276e-03 0.0000000e+00 
0.0000000e+00 -4.2806892e-03 0.0000000e+00 
0.0000000e+00 -3.5786671e-03 0.0000000e+00 
0.0000000e+00 -2.5437183e-03 0.0000000e+00 
0.0000000e+00 -1.6242813e-03 0.0000000e+00 
0.0000000e+00 -9.4468490e-04 0.0000000e+00 
0.0000000e+00 -5.1471579e-04 0.0000000e+00 
0.0000000e+00 -2.7318488e-04 0.0000000e+00 
0.0000000e+00 -1.4553420e-04 0.0000000e+00 
0.0000000e+00 -7.0916678e-05 0.0000000e+00 
0.0000000e+00 -1.1273625e-05 0.0000000e+00 
0.0000000e+00 4.6923866e-05 0.0000000e+00 
0.0000000e+00 1.0114475e-04 0.0000000e+00 
0.0000000e+00 1.4019583e-04 0.0000000e+00 
0.0000000e+00 1.5467423e-04 0.0000000e+00 
0.0000000e+00 1.4643495e-04 0.0000000e+00 
0.0000000e+00 1.2328142e-04 0.0000000e+00 
0.0000000e+00 9.4146017e-05 0.0000000e+00 
0.0000000e+00 6.6089793e-05 0.0000000e+00 
0.0000000e+00 4.0678566e-05 0.0000000e+00 
0.0000000e+00 1.6919528e-05 0.0000000e+00 
0.0000000e+00 -5.8073060e-06 0.0000000e+00 
0.0000000e+00 -2.8038525e-05 0.0000000e+00 
0.0000000e+00 -5.0050923e-05 0.0000000e+00 
0.0000000e+00 -7.1151699e-05 0.0000000e+00 
0.0000000e+00 -8.6702988e-05 0.0000000e+00 
0.0000000e+00 -9.1937327e-05 0.0000000e+00 
0.0000000e+00 -8.6987340e-05 0.0000000e+00 
0.0000000e+00 -8.0871279e-05 0.0000000e+00 
0.0000000e+00 -1.0265183e-04 0.0000000e+00 
0.0000000e+00 -1.9744497e-04 0.0000000e+00 
0.0000000e+00 -4.2264158e-04 0.0000000e+00 
0.0000000e+00 -8.4610825e-04 0.0000000e+00 
0.0000000e+00 -1.5176907e-03 0.0000000e+00 
0.0000000e+00 -2.4268210e-03 0.0000000e+00 
0.0000000e+00 -3.3984992e-03 0.0000000e+00 
0.0000000e+00 -4.0097330e-03 0.0000000e+00 
0.0000000e+00 -3.9185910e-03 0.0000000e+00 
0.0000000e+00 -3.7537534e-03 0.0000000e+00 
0.0000000e+00 -3.8487331e-03 0.0000000e+00 
0.0000000e+00 -4.1614007e-03 0.0000000e+00 
0.0000000e+00 -4.1366625e-03 0.0000000e+00 
0.0000000e+00 -3.3650235e-03 0.0000000e+00 
0.0000000e+00 -2.3686411e-03 0.0000000e+00 
0.0000000e+00 -1.5084012e-03 0.0000000e+00 
0.0000000e+00 -8.7188493e-04 0.0000000e+00 
0.0000000e+00 -4.5766443e-04 0.0000000e+00 
0.0000000e+00 -2.1202740e-04 0.0000000e+00 
0.0000000e+00 -7.4725271e-05 0.0000000e+00 
0.0000000e+00 1.2062826e-06 0.0000000e+00 
0.0000000e+00 4.5227043e-05 0.0000000e+00 
0.0000000e+00 7.3146446e-05 0.0000000e+00 
0.0000000e+00 9.0266098e-05 0.0000000e+00 
0.0000000e+00 9.5160525e-05 0.0000000e+00 
0.0000000e+00 8.5162523e-05 0.0000000e+00 
0.0000000e+00 6.2795734e-05 0.0000000e+00 
0.0000000e+00 3.4079814e-05 0.0000000e+00 
0.0000000e+00 6.1244800e-06 0.0000000e+00 
0.0000000e+00 -1.5000613e-05 0.0000000e+00 
0.0000000e+00 -2.7182166e-05 0.0000000e+00 
0.0000000e+00 -2.9713179e-05 0.0000000e+00 
0.0000000e+00 -2.2799792e-05 0.0000000e+00 
0.0000000e+00 -8.7790750e-06 0.0000000e+00 
0.0000000e+00 6.4242008e-06 0.0000000e+00 
0.0000000e+00 1.5716581e-05 0.0000000e+00 
0.0000000e+00 1.5868114e-05 0.0000000e+00 
0.0000000e+00 8.6645923e-06 0.0000000e+00 
0.0000000e+00 -6.8249733e-07 0.0000000e+00 
0.0000000e+00 -6.7082437e-06 0.0000000e+00 
0.0000000e+00 -7.6364122e-06 0.0000000e+00 
0.0000000e+00 -4.7406052e-06 0.0000000e+00 
0.0000000e+00 -6.2890467e-07 0.0000000e+00 
0.0000000e+00 2.2822146e-06 0.0000000e+00 
0.0000000e+00 3.0712770e-06 0.0000000e+00 
0.0000000e+00 2.3953903e-06 0.0000000e+00 
0.0000000e+00 1.4474240e-06 0.0000000e+00 
0.0000000e+00 8.5038670e-07 0.0000000e+00 
0.0000000e+00 4.1386733e-07 0.0000000e+00 
0.0000000e+00 -2.5807716e-07 0.0000000e+00 
0.0000000e+00 -1.1010067e-06 0.0000000e+00 
0.0000000e+00 -1.5730042e-06 0.0000000e+00 
0.0000000e+00 -1.2302276e-06 0.0000000e+00 
0.0000000e+00 -2.3193833e-07 0.0000000e+00 
0.0000000e+00 7.5411464e-07 0.0000000e+00 
0.0000000e+00 1.1224514e-06 0.0000000e+00 
0.0000000e+00 7.9737191e-07 0.0000000e+00 
0.0000000e+00 1.8510617e-07 0.0000000e+00 
0.0000000e+00 -2.6204918e-07 0.0000000e+00 
0.0000000e+00 -4.0717413e-07 0.0000000e+00 
0.0000000e+00 -4.0892292e-07 0.0000000e+00 
0.0000000e+00 -2.7433940e-05 0.0000000e+00 
-1.2306405e-06 -4.0635109e-06 -7.7949846e-07 
8.7447836e-07 -2.4693421e-05 -1.1251234e-05 
0.0000000e+00 0.0000000e+00 0.0000000e+00 
0.0000000e+00 0.0000000e+00 0.0000000e+00 
0.0000000e+00 0.0000000e+00 0.0000000e+00 
0.0000000e+00 0.0000000e+00 0.0000000e+00 
0.0000000e+00 0.0000000e+00 0.0000000e+00 
0.0000000e+00 0.0000000e+00 0.0000000e+00 
0.0000000e+00 0.0000000e+00 0.0000000e+00 
0.0000000e+00 0.0000000e+00 0.0000000e+00 
0.0000000e+00 0.0000000e+00 0.0000000e+00 
0.0000000e+00 0.0000000e+00 0.0000000e+00 
0.0000000e+00 0.0000000e+00 0.0000000e+00 
0.0000000e+00 0.0000000e+00 0.0000000e+00 
0.0000000e+00 0.0000000e+00 0.0000000e+00 
0.0000000e+00 0.0000000e+00 0.0000000e+00 
0.0000000e+00 0.0000000e+00 0.0000000e+00 
0.0000000e+00 0.0000000e+00 0.0000000e+00 
0.0000000e+00 0.0000000e+00 0.0000000e+00 
0.0000000e+00 0.0000000e+00 0.0000000e+00 
0.0000000e+00 0.0000000e+00 0.0000000e+00 
0.0000000e+00 0.0000000e+00 0.0000000e+00 
0.0000000e+00 0.0000000e+00 0.0000000e+00 
0.0000000e+00 0.0000000e+00 0.0000000e+00 
0.0000000e+00 0.0000000e+00 0.0000000e+00 
0.0000000e+00 0.0000000e+00 0.0000000e+00 
0.0000000e+00 0.0000000e+00 0.0000000e+00 
0.0000000e+00 0.0000000e+00 0.0000000e+00 
0.0000000e+00 0.0000000e+00 0.0000000e+00 
0.0000000e+00 0.0000000e+00 0.0000000e+00 
0.0000000e+00 0.0000000e+00 0.0000000e+00 
0.0000000e+00 0.0000000e+00 0.0000000e+00 
0.0000000e+00 0.0000000e+00 0.0000000e+00 
0.0000000e+00 0.0000000e+00 0.0000000e+00 
0.0000000e+00 0.0000000e+00 0.0000000e+00 
0.0000000e+00 0.0000000e+00 0.0000000e+00 
0.0000000e+00 0.0000000e+00 0.0000000e+00 
0.0000000e+00 0.0000000e+00 0.0000000e+00 
0.0000000e+00 0.0000000e+00 0.0000000e+00 
0.0000000e+00 0.0000000e+00 0.0000000e+00 
0.0000000e+00 0.0000000e+00 0.0000000e+00 
0.0000000e+00 0.0000000e+00 0.0000000e+00 
0.0000000e+00 0.0000000e+00 0.0000000e+00 
0.0000000e+00 0.0000000e+00 0.0000000e+00 
2.8678684e-05 -4.8672928e-07 -2.3111208e-05 
5.7454119e-05 -4.4216440e-06 -1.4641100e-05 
3.9466850e-05 -7.5824460e-06 -5.9001701e-07 
1.1000322e-05 -9.7835473e-06 8.0467981e-07 
4.1492763e-06 -8.5302509e-06 1.1634466e-05 
-7.2732541e-07 4.4744838e-06 8.7797353e-06 
7.8567700e-06 6.3675425e-06 -6.3808052e-06 
3.0059400e-06 -2.6713212e-06 -1.2603138e-05 
5.6497447e-07 -5.7923021e-06 -3.2778580e-06 
1.1175604e-05 -9.5967762e-06 -4.3216155e-06 
3.3069799e-05 -1.7000842e-06 -3.9950028e-06 
4.7554993e-05 -7.0932379e-07 3.5506088e-07 
3.6260837e-05 -6.8392965e-06 1.5806428e-06 
1.1542405e-05 -1.4419375e-05 2.5867141e-06 
6.7438136e-06 -9.5105156e-07 8.2528741e-06 
2.2665652e-06 3.5016078e-06 9.2974342e-06 
1.4532391e-07 -1.1754531e-06 1.6298769e-06 
-6.1680379e-07 -1.7060800e-06 -1.3189630e-06 
3.5610668e-07 1.0664564e-06 3.0144378e-07 
0.0000000e+00 -1.9495562e-04 0.0000000e+00 
0.0000000e+00 -4.7214399e-04 0.0000000e+00 
0.0000000e+00 -5.2236213e-04 0.0000000e+00 
0.0000000e+00 -1.8699684e-04 0.0000000e+00 
0.0000000e+00 -2.5828356e-05 0.0000000e+00 
0.0000000e+00 3.8077655e-05 0.0000000e+00 
0.0000000e+00 1.6299444e-05 0.0000000e+00 
0.0000000e+00 3.0183224e-05 0.0000000e+00 
0.0000000e+00 -2.4085073e-05 0.0000000e+00 
0.0000000e+00 -3.6878908e-05 0.0000000e+00 
0.0000000e+00 -2.0034586e-04 0.0000000e+00 
0.0000000e+00 -4.7451729e-04 0.0000000e+00 
0.0000000e+00 -5.2821694e-04 0.0000000e+00 
0.0000000e+00 -1.8754782e-04 0.0000000e+00 
0.0000000e+00 -3.2249868e-06 0.0000000e+00 
0.0000000e+00 3.0588097e-05 0.0000000e+00 
0.0000000e+00 -4.3753075e-06 0.0000000e+00 
0.0000000e+00 -2.9065902e-06 0.0000000e+00 
0.0000000e+00 1.4097263e-06 0.0000000e+00 
1.9070527e-05 -1.2202171e-05 -2.1209105e-05 
1.8891176e-05 -3.3039192e-05 -3.2898955e-05 
-2.1228522e-07 -8.5150185e-07 -2.3651728e-07 
-2.7411389e-07 -1.4407450e-06 -5.0237020e-07 
2.8790681e-05 5.1045972e-06 -3.2516000e-05 
5.1617386e-05 7.1036243e-06 -1.2511352e-05 
3.3315751e-05 -6.2383822e-07 -2.5312610e-07 
5.1159627e-06 -6.4446735e-06 -5.4709045e-07 
5.2291875e-07 -1.3812965e-05 7.1079871e-06 
3.6034439e-06 7.6008737e-06 2.7508283e-06 
1.3571711e-05 1.1024388e-05 -1.9939996e-06 
-1.7917743e-06 -4.8018919e-06 -7.0524379e-06 
-7.4908821e-06 -8.1544586e-06 -6.2251520e-06 
1.6038697e-05 -1.1177369e-05 -9.4140878e-06 
3.4222794e-05 1.1995642e-06 -4.1850562e-06 
4.6287994e-05 2.6186794e-06 2.6434052e-06 
2.6087044e-05 -2.9194109e-06 1.1000475e-05 
-6.7218230e-07 -1.7726250e-05 -1.3293669e-07 
1.7722124e-06 -2.9969485e-06 1.5307023e-07 
4.3291698e-06 4.1659396e-06 1.0095506e-05 
2.2561944e-06 -3.8024311e-07 4.1577414e-06 
-7.7965257e-07 -1.9283989e-06 -4.7647259e-07 
8.0635637e-08 1.0388021e-06 -4.8157983e-07 
7.0173646e-06 -4.6741774e-05 -2.2181044e-05 
0.0000000e+00 -4.2408225e-04 0.0000000e+00 
0.0000000e+00 -1.0705182e-03 0.0000000e+00 
0.0000000e+00 -1.1737613e-03 0.0000000e+00 
0.0000000e+00 -3.5537162e-04 0.0000000e+00 
0.0000000e+00 -4.8191938e-05 0.0000000e+00 
0.0000000e+00 7.9608537e-05 0.0000000e+00 
0.0000000e+00 3.4197939e-05 0.0000000e+00 
0.0000000e+00 4.3635107e-05 0.0000000e+00 
0.0000000e+00 -5.2960630e-05 0.0000000e+00 
0.0000000e+00 -6.3138861e-05 0.0000000e+00 
0.0000000e+00 -4.4812990e-04 0.0000000e+00 
0.0000000e+00 -1.0646776e-03 0.0000000e+00 
0.0000000e+00 -1.1518318e-03 0.0000000e+00 
0.0000000e+00 -3.4894957e-04 0.0000000e+00 
0.0000000e+00 -1.3559453e-06 0.0000000e+00 
0.0000000e+00 5.8534442e-05 0.0000000e+00 
0.0000000e+00 -9.2619130e-06 0.0000000e+00 
0.0000000e+00 -9.0600170e-06 0.0000000e+00 
0.0000000e+00 6.5081049e-06 0.0000000e+00 
-2.9451928e-07 -2.3794134e-06 -5.1337742e-07 
-3.0801655e-04 -3.9501907e-04 2.7650970e-04 
-6.1144296e-04 -1.2971886e-03 1.3116178e-04 
-6.1156123e-04 -1.4144171e-03 -1.0384159e-04 
-1.7869269e-04 -3.0474801e-04 -2.2468898e-04 
3.9841184e-06 -6.7386267e-05 -1.4361137e-04 
2.0091540e-05 8.8153378e-05 2.9329101e-06 
3.8802959e-06 7.4116724e-05 -8.4071926e-06 
5.7226075e-06 -2.6468055e-05 1.0011908e-05 
8.7032267e-06 -1.0101828e-04 6.1812418e-05 
-1.3010864e-06 -3.9028066e-05 3.5207158e-05 
-2.7740834e-04 -4.3980326e-04 2.1259868e-04 
-6.5647147e-04 -1.1544774e-03 1.5613654e-04 
-6.1041641e-04 -1.3422713e-03 -5.1478797e-05 
-1.6557486e-04 -3.2306192e-04 -2.7384315e-04 
1.4909060e-05 -1.0031188e-05 -1.3043996e-04 
1.7444423e-05 5.5378157e-05 4.5260982e-05 
-9.1483735e-06 8.1219532e-06 2.1839205e-05 
2.2600695e-08 -1.9901952e-05 -1.3873876e-05 
1.3535324e-06 1.3736106e-05 7.1431391e-06 
0.0000000e+00 -7.4719364e-04 0.0000000e+00 
0.0000000e+00 -2.1569990e-03 0.0000000e+00 
0.0000000e+00 -2.2232272e-03 0.0000000e+00 
0.0000000e+00 -6.0136418e-04 0.0000000e+00 
0.0000000e+00 -6.0234448e-05 0.0000000e+00 
0.0000000e+00 1.3122796e-04 0.0000000e+00 
0.0000000e+00 6.7733054e-05 0.0000000e+00 
0.0000000e+00 4.0668885e-05 0.0000000e+00 
0.0000000e+00 -1.0033782e-04 0.0000000e+00 
0.0000000e+00 -6.8508700e-05 0.0000000e+00 
0.0000000e+00 -8.7679835e-04 0.0000000e+00 
0.0000000e+00 -2.1455053e-03 0.0000000e+00 
0.0000000e+00 -2.1560350e-03 0.0000000e+00 
0.0000000e+00 -5.7031511e-04 0.0000000e+00 
0.0000000e+00 1.3756687e-05 0.0000000e+00 
0.0000000e+00 8.9562389e-05 0.0000000e+00 
0.0000000e+00 -8.7084197e-07 0.0000000e+00 
0.0000000e+00 -2.0022151e-05 0.0000000e+00 
0.0000000e+00 1.3071565e-05 0.0000000e+00 
3.0925705e-05 -1.3030198e-05 -7.4134668e-06 
7.0174472e-05 -1.1243871e-04 1.4978688e-05 
6.9053916e-05 -9.4543284e-05 1.0895601e-05 
2.5877345e-05 -5.7598660e-05 -1.0283713e-05 
-1.3349162e-05 -1.1127977e-05 -1.5177073e-05 
1.1661198e-05 2.1007178e-05 -4.1484172e-06 
9.0242856e-06 1.7038114e-05 -7.6019410e-06 
-4.5952497e-06 -2.0718460e-05 5.6166908e-07 
-7.7893710e-06 -3.8511083e-05 1.1612095e-05 
1.5006498e-05 -3.6336990e-06 6.5776317e-06 
5.9379840e-05 -3.1343756e-05 -1.4516908e-06 
7.6588716e-05 -4.0578991e-05 5.5529345e-06 
4.1668012e-05 -7.0603019e-05 1.7180655e-05 
2.1441405e-05 -6.5801476e-05 -1.6067776e-05 
-1.1078548e-05 -6.9002367e-06 -1.5901460e-05 
5.3302615e-06 1.3469746e-05 7.7126442e-06 
9.3193222e-07 2.9079845e-06 9.7161083e-06 
9.2424563e-07 2.9826815e-06 -9.0159779e-07 
2.1292713e-06 -1.4684868e-05 -7.7511531e-06 
0.0000000e+00 0.0000000e+00 0.0000000e+00 
0.0000000e+00 0.0000000e+00 0.0000000e+00 
0.0000000e+00 0.0000000e+00 0.0000000e+00 
0.0000000e+00 0.0000000e+00 0.0000000e+00 
0.0000000e+00 0.0000000e+00 0.0000000e+00 
0.0000000e+00 0.0000000e+00 0.0000000e+00 
0.0000000e+00 0.0000000e+00 0.0000000e+00 
0.0000000e+00 0.0000000e+00 0.0000000e+00 
0.0000000e+00 0.0000000e+00 0.0000000e+00 
0.0000000e+00 0.0000000e+00 0.0000000e+00 
0.0000000e+00 0.0000000e+00 0.0000000e+00 
0.0000000e+00 0.0000000e+00 0.0000000e+00 
0.0000000e+00 0.0000000e+00 0.0000000e+00 
0.0000000e+00 0.0000000e+00 0.0000000e+00 
0.0000000e+00 0.0000000e+00 0.0000000e+00 
0.0000000e+00 0.0000000e+00 0.0000000e+00 
0.0000000e+00 0.0000000e+00 0.0000000e+00 
0.0000000e+00 0.0000000e+00 0.0000000e+00 
0.0000000e+00 0.0000000e+00 0.0000000e+00 
0.0000000e+00 0.0000000e+00 0.0000000e+00 
0.0000000e+00 0.0000000e+00 0.0000000e+00 
0.0000000e+00 0.0000000e+00 0.0000000e+00 
0.0000000e+00 0.0000000e+00 0.0000000e+00 
0.0000000e+00 0.0000000e+00 0.0000000e+00 
0.0000000e+00 0.0000000e+00 0.0000000e+00 
0.0000000e+00 0.0000000e+00 0.0000000e+00 
0.0000000e+00 0.0000000e+00 0.0000000e+00 
0.0000000e+00 0.0000000e+00 0.0000000e+00 
0.0000000e+00 0.0000000e+00 0.0000000e+00 
0.0000000e+00 0.0000000e+00 0.0000000e+00 
0.0000000e+00 0.0000000e+00 0.0000000e+00 
0.0000000e+00 0.0000000e+00 0.0000000e+00 
0.0000000e+00 0.0000000e+00 0.0000000e+00 
0.0000000e+00 0.0000000e+00 0.0000000e+00 
0.0000000e+00 0.0000000e+00 0.0000000e+00 
0.0000000e+00 0.0000000e+00 0.0000000e+00 
0.0000000e+00 0.0000000e+00 0.0000000e+00 
0.0000000e+00 0.0000000e+00 0.0000000e+00 
0.0000000e+00 0.0000000e+00 0.0000000e+00 
0.0000000e+00 0.0000000e+00 0.0000000e+00 
0.0000000e+00 0.0000000e+00 0.0000000e+00 
0.0000000e+00 0.0000000e+00 0.0000000e+00 
1.1367249e-05 -7.7780378e-06 -1.1546034e-05 
1.2240894e-06 1.2066184e-06 1.0541726e-06 
2.9820806e-06 2.1034475e-07 -7.0064016e-06 
2.2933453e-05 -4.7644089e-06 -1.4211628e-07 
1.8858615e-05 -1.0535659e-05 5.6474346e-07 
1.5443222e-05 -1.0347998e-05 -5.6280072e-07 
5.1438883e-06 -4.5000725e-06 3.9889296e-06 