# vtk DataFile Version 4.0
vtk output
ASCII
DATASET UNSTRUCTURED_GRID
POINTS 662 float
0.0000000e+00 0.0000000e+00 0.0000000e+00 
0.0000000e+00 0.0000000e+00 4.0000000e+01 
5.0000000e+00 0.0000000e+00 0.0000000e+00 
5.0000000e+00 0.0000000e+00 4.0000000e+01 
5.0000000e+00 1.0000000e+00 0.0000000e+00 
5.0000000e+00 1.0000000e+00 4.0000000e+01 
0.0000000e+00 1.0000000e+00 0.0000000e+00 
0.0000000e+00 1.0000000e+00 4.0000000e+01 
5.0000000e+00 2.0000000e+00 0.0000000e+00 
5.0000000e+00 2.0000000e+00 4.0000000e+01 
3.0000000e+00 2.0000000e+00 0.0000000e+00 
3.0000000e+00 2.0000000e+00 4.0000000e+01 
0.0000000e+00 2.0000000e+00 0.0000000e+00 
0.0000000e+00 2.0000000e+00 4.0000000e+01 
1.5000000e+00 3.0000000e+00 0.0000000e+00 
1.5000000e+00 3.0000000e+00 4.0000000e+01 
7.5000000e-01 3.0000000e+00 0.0000000e+00 
7.5000000e-01 3.0000000e+00 4.0000000e+01 
0.0000000e+00 3.0000000e+00 0.0000000e+00 
0.0000000e+00 3.0000000e+00 4.0000000e+01 
7.5000000e-01 3.0000000e+00 5.0000000e-01 
7.5000000e-01 3.0000000e+00 1.0000000e+00 
7.5000000e-01 3.0000000e+00 1.5000000e+00 
7.5000000e-01 3.0000000e+00 2.0000000e+00 
7.5000000e-01 3.0000000e+00 2.5000000e+00 
7.5000000e-01 3.0000000e+00 3.0000000e+00 
7.5000000e-01 3.0000000e+00 3.5000000e+00 
7.5000000e-01 3.0000000e+00 4.0000000e+00 
7.5000000e-01 3.0000000e+00 4.5000000e+00 
7.5000000e-01 3.0000000e+00 5.0000000e+00 
7.5000000e-01 3.0000000e+00 5.5000000e+00 
7.5000000e-01 3.0000000e+00 6.0000000e+00 
7.5000000e-01 3.0000000e+00 6.5000000e+00 
7.5000000e-01 3.0000000e+00 7.0000000e+00 
7.5000000e-01 3.0000000e+00 7.5000000e+00 
7.5000000e-01 3.0000000e+00 8.0000000e+00 
7.5000000e-01 3.0000000e+00 8.5000000e+00 
7.5000000e-01 3.0000000e+00 9.0000000e+00 
7.5000000e-01 3.0000000e+00 9.5000000e+00 
7.5000000e-01 3.0000000e+00 1.0000000e+01 
7.5000000e-01 3.0000000e+00 1.0500000e+01 
7.5000000e-01 3.0000000e+00 1.1000000e+01 
7.5000000e-01 3.0000000e+00 1.1500000e+01 
7.5000000e-01 3.0000000e+00 1.2000000e+01 
7.5000000e-01 3.0000000e+00 1.2500000e+01 
7.5000000e-01 3.0000000e+00 1.3000000e+01 
7.5000000e-01 3.0000000e+00 1.3500000e+01 
7.5000000e-01 3.0000000e+00 1.4000000e+01 
7.5000000e-01 3.0000000e+00 1.4500000e+01 
7.5000000e-01 3.0000000e+00 1.5000000e+01 
7.5000000e-01 3.0000000e+00 1.5500000e+01 
7.5000000e-01 3.0000000e+00 1.6000000e+01 
7.5000000e-01 3.0000000e+00 1.6500000e+01 
7.5000000e-01 3.0000000e+00 1.7000000e+01 
7.5000000e-01 3.0000000e+00 1.7500000e+01 
7.5000000e-01 3.0000000e+00 1.8000000e+01 
7.5000000e-01 3.0000000e+00 1.8500000e+01 
7.5000000e-01 3.0000000e+00 1.9000000e+01 
7.5000000e-01 3.0000000e+00 1.9500000e+01 
7.5000000e-01 3.0000000e+00 2.0000000e+01 
7.5000000e-01 3.0000000e+00 2.0500000e+01 
7.5000000e-01 3.0000000e+00 2.1000000e+01 
7.5000000e-01 3.0000000e+00 2.1500000e+01 
7.5000000e-01 3.0000000e+00 2.2000000e+01 
7.5000000e-01 3.0000000e+00 2.2500000e+01 
7.5000000e-01 3.0000000e+00 2.3000000e+01 
7.5000000e-01 3.0000000e+00 2.3500000e+01 
7.5000000e-01 3.0000000e+00 2.4000000e+01 
7.5000000e-01 3.0000000e+00 2.4500000e+01 
7.5000000e-01 3.0000000e+00 2.5000000e+01 
7.5000000e-01 3.0000000e+00 2.5500000e+01 
7.5000000e-01 3.0000000e+00 2.6000000e+01 
7.5000000e-01 3.0000000e+00 2.6500000e+01 
7.5000000e-01 3.0000000e+00 2.7000000e+01 
7.5000000e-01 3.0000000e+00 2.7500000e+01 
7.5000000e-01 3.0000000e+00 2.8000000e+01 
7.5000000e-01 3.0000000e+00 2.8500000e+01 
7.5000000e-01 3.0000000e+00 2.9000000e+01 
7.5000000e-01 3.0000000e+00 2.9500000e+01 
7.5000000e-01 3.0000000e+00 3.0000000e+01 
7.5000000e-01 3.0000000e+00 3.0500000e+01 
7.5000000e-01 3.0000000e+00 3.1000000e+01 
7.5000000e-01 3.0000000e+00 3.1500000e+01 
7.5000000e-01 3.0000000e+00 3.2000000e+01 
7.5000000e-01 3.0000000e+00 3.2500000e+01 
7.5000000e-01 3.0000000e+00 3.3000000e+01 
7.5000000e-01 3.0000000e+00 3.3500000e+01 
7.5000000e-01 3.0000000e+00 3.4000000e+01 
7.5000000e-01 3.0000000e+00 3.4500000e+01 
7.5000000e-01 3.0000000e+00 3.5000000e+01 
7.5000000e-01 3.0000000e+00 3.5500000e+01 
7.5000000e-01 3.0000000e+00 3.6000000e+01 
7.5000000e-01 3.0000000e+00 3.6500000e+01 
7.5000000e-01 3.0000000e+00 3.7000000e+01 
7.5000000e-01 3.0000000e+00 3.7500000e+01 
7.5000000e-01 3.0000000e+00 3.8000000e+01 
7.5000000e-01 3.0000000e+00 3.8500000e+01 
7.5000000e-01 3.0000000e+00 3.9000000e+01 
7.5000000e-01 3.0000000e+00 3.9500000e+01 
7.5000000e-01 3.0000000e+00 4.0500000e+01 
7.5000000e-01 3.0000000e+00 4.1000000e+01 
7.5000000e-01 3.0000000e+00 4.1500000e+01 
7.5000000e-01 3.0000000e+00 4.2000000e+01 
7.5000000e-01 3.0000000e+00 4.2500000e+01 
7.5000000e-01 3.0000000e+00 4.3000000e+01 
7.5000000e-01 3.0000000e+00 4.3500000e+01 
7.5000000e-01 3.0000000e+00 4.4000000e+01 
7.5000000e-01 3.0000000e+00 4.4500000e+01 
7.5000000e-01 3.0000000e+00 4.5000000e+01 
7.5000000e-01 3.0000000e+00 4.5500000e+01 
7.5000000e-01 3.0000000e+00 4.6000000e+01 
7.5000000e-01 3.0000000e+00 4.6500000e+01 
7.5000000e-01 3.0000000e+00 4.7000000e+01 
7.5000000e-01 3.0000000e+00 4.7500000e+01 
7.5000000e-01 3.0000000e+00 4.8000000e+01 
7.5000000e-01 3.0000000e+00 4.8500000e+01 
7.5000000e-01 3.0000000e+00 4.9000000e+01 
7.5000000e-01 3.0000000e+00 4.9500000e+01 
7.5000000e-01 3.0000000e+00 5.0000000e+01 
7.5000000e-01 3.0250001e+00 0.0000000e+00 
7.5000000e-01 3.0250001e+00 5.0000000e-01 
7.5000000e-01 3.0250001e+00 1.0000000e+00 
7.5000000e-01 3.0250001e+00 1.5000000e+00 
7.5000000e-01 3.0250001e+00 2.0000000e+00 
7.5000000e-01 3.0250001e+00 2.5000000e+00 
7.5000000e-01 3.0250001e+00 3.0000000e+00 
7.5000000e-01 3.0250001e+00 3.5000000e+00 
7.5000000e-01 3.0250001e+00 4.0000000e+00 
7.5000000e-01 3.0250001e+00 4.5000000e+00 
7.5000000e-01 3.0250001e+00 5.0000000e+00 
7.5000000e-01 3.0250001e+00 5.5000000e+00 
7.5000000e-01 3.0250001e+00 6.0000000e+00 
7.5000000e-01 3.0250001e+00 6.5000000e+00 
7.5000000e-01 3.0250001e+00 7.0000000e+00 
7.5000000e-01 3.0250001e+00 7.5000000e+00 
7.5000000e-01 3.0250001e+00 8.0000000e+00 
7.5000000e-01 3.0250001e+00 8.5000000e+00 
7.5000000e-01 3.0250001e+00 9.0000000e+00 
7.5000000e-01 3.0250001e+00 9.5000000e+00 
7.5000000e-01 3.0250001e+00 1.0000000e+01 
7.5000000e-01 3.0250001e+00 1.0500000e+01 
7.5000000e-01 3.0250001e+00 1.1000000e+01 
7.5000000e-01 3.0250001e+00 1.1500000e+01 
7.5000000e-01 3.0250001e+00 1.2000000e+01 
7.5000000e-01 3.0250001e+00 1.2500000e+01 
7.5000000e-01 3.0250001e+00 1.3000000e+01 
7.5000000e-01 3.0250001e+00 1.3500000e+01 
7.5000000e-01 3.0250001e+00 1.4000000e+01 
7.5000000e-01 3.0250001e+00 1.4500000e+01 
7.5000000e-01 3.0250001e+00 1.5000000e+01 
7.5000000e-01 3.0250001e+00 1.5500000e+01 
7.5000000e-01 3.0250001e+00 1.6000000e+01 
7.5000000e-01 3.0250001e+00 1.6500000e+01 
7.5000000e-01 3.0250001e+00 1.7000000e+01 
7.5000000e-01 3.0250001e+00 1.7500000e+01 
7.5000000e-01 3.0250001e+00 1.8000000e+01 
7.5000000e-01 3.0250001e+00 1.8500000e+01 
7.5000000e-01 3.0250001e+00 1.9000000e+01 
7.5000000e-01 3.0250001e+00 1.9500000e+01 
7.5000000e-01 3.0250001e+00 2.0000000e+01 
7.5000000e-01 3.0250001e+00 2.0500000e+01 
7.5000000e-01 3.0250001e+00 2.1000000e+01 
7.5000000e-01 3.0250001e+00 2.1500000e+01 
7.5000000e-01 3.0250001e+00 2.2000000e+01 
7.5000000e-01 3.0250001e+00 2.2500000e+01 
7.5000000e-01 3.0250001e+00 2.3000000e+01 
7.5000000e-01 3.0250001e+00 2.3500000e+01 
7.5000000e-01 3.0250001e+00 2.4000000e+01 
7.5000000e-01 3.0250001e+00 2.4500000e+01 
7.5000000e-01 3.0250001e+00 2.5000000e+01 
7.5000000e-01 3.0250001e+00 2.5500000e+01 
7.5000000e-01 3.0250001e+00 2.6000000e+01 
7.5000000e-01 3.0250001e+00 2.6500000e+01 
7.5000000e-01 3.0250001e+00 2.7000000e+01 
7.5000000e-01 3.0250001e+00 2.7500000e+01 
7.5000000e-01 3.0250001e+00 2.8000000e+01 
7.5000000e-01 3.0250001e+00 2.8500000e+01 
7.5000000e-01 3.0250001e+00 2.9000000e+01 
7.5000000e-01 3.0250001e+00 2.9500000e+01 
7.5000000e-01 3.0250001e+00 3.0000000e+01 
7.5000000e-01 3.0250001e+00 3.0500000e+01 
7.5000000e-01 3.0250001e+00 3.1000000e+01 
7.5000000e-01 3.0250001e+00 3.1500000e+01 
7.5000000e-01 3.0250001e+00 3.2000000e+01 
7.5000000e-01 3.0250001e+00 3.2500000e+01 
7.5000000e-01 3.0250001e+00 3.3000000e+01 
7.5000000e-01 3.0250001e+00 3.3500000e+01 
7.5000000e-01 3.0250001e+00 3.4000000e+01 
7.5000000e-01 3.0250001e+00 3.4500000e+01 
7.5000000e-01 3.0250001e+00 3.5000000e+01 
7.5000000e-01 3.0250001e+00 3.5500000e+01 
7.5000000e-01 3.0250001e+00 3.6000000e+01 
7.5000000e-01 3.0250001e+00 3.6500000e+01 
7.5000000e-01 3.0250001e+00 3.7000000e+01 
7.5000000e-01 3.0250001e+00 3.7500000e+01 
7.5000000e-01 3.0250001e+00 3.8000000e+01 
7.5000000e-01 3.0250001e+00 3.8500000e+01 
7.5000000e-01 3.0250001e+00 3.9000000e+01 
7.5000000e-01 3.0250001e+00 3.9500000e+01 
7.5000000e-01 3.0250001e+00 4.0000000e+01 
7.5000000e-01 3.0250001e+00 4.0500000e+01 
7.5000000e-01 3.0250001e+00 4.1000000e+01 
7.5000000e-01 3.0250001e+00 4.1500000e+01 
7.5000000e-01 3.0250001e+00 4.2000000e+01 
7.5000000e-01 3.0250001e+00 4.2500000e+01 
7.5000000e-01 3.0250001e+00 4.3000000e+01 
7.5000000e-01 3.0250001e+00 4.3500000e+01 
7.5000000e-01 3.0250001e+00 4.4000000e+01 
7.5000000e-01 3.0250001e+00 4.4500000e+01 
7.5000000e-01 3.0250001e+00 4.5000000e+01 
7.5000000e-01 3.0250001e+00 4.5500000e+01 
7.5000000e-01 3.0250001e+00 4.6000000e+01 
7.5000000e-01 3.0250001e+00 4.6500000e+01 
7.5000000e-01 3.0250001e+00 4.7000000e+01 
7.5000000e-01 3.0250001e+00 4.7500000e+01 
7.5000000e-01 3.0250001e+00 4.8000000e+01 
7.5000000e-01 3.0250001e+00 4.8500000e+01 
7.5000000e-01 3.0250001e+00 4.9000000e+01 
7.5000000e-01 3.0250001e+00 4.9500000e+01 
7.5000000e-01 3.0250001e+00 5.0000000e+01 
7.5000000e-01 3.0250001e+00 3.5750000e+01 
3.0000000e+00 2.0000000e+00 3.6000000e+01 
8.0487806e-01 3.0000000e+00 3.6000000e+01 
0.0000000e+00 0.0000000e+00 2.0000000e+00 
0.0000000e+00 0.0000000e+00 4.0000000e+00 
0.0000000e+00 0.0000000e+00 6.0000000e+00 
0.0000000e+00 0.0000000e+00 8.0000000e+00 
0.0000000e+00 0.0000000e+00 1.0000000e+01 
0.0000000e+00 0.0000000e+00 1.2000000e+01 
0.0000000e+00 0.0000000e+00 1.4000000e+01 
[...]
POINT_DATA 662
FIELD FieldData 3
DISPLACEMENT 3 662  float
0.0000000e+00 0.0000000e+00 0.0000000e+00 
0.0000000e+00 0.0000000e+00 0.0000000e+00 
0.0000000e+00 0.0000000e+00 0.0000000e+00 
0.0000000e+00 0.0000000e+00 0.0000000e+00 
2.1815952e-06 -6.1774324e-07 -5.2131400e-06 
8.7935332e-06 5.5189548e-06 1.3339052e-05 
0.0000000e+00 9.4672822e-07 0.0000000e+00 
0.0000000e+00 -1.5245353e-04 0.0000000e+00 
7.2950218e-07 -1.4300670e-07 -4.7942854e-06 
3.0656982e-05 4.9311138e-06 3.8722183e-06 
4.7810486e-06 -3.4431903e-06 -7.8139356e-06 
3.6211233e-05 7.6281249e-05 -2.7169133e-06 
0.0000000e+00 -1.0598923e-05 0.0000000e+00 
0.0000000e+00 -2.9070216e-04 0.0000000e+00 
1.1569676e-06 -1.7164108e-05 -1.3811296e-05 
-7.3281852e-05 -6.1776300e-05 -1.9769001e-04 
-2.0528294e-07 -3.4059092e-05 -1.0313271e-05 
-5.7910016e-05 -5.6706922e-04 -2.3472881e-04 
0.0000000e+00 -1.2763251e-05 0.0000000e+00 
0.0000000e+00 -1.4504715e-04 0.0000000e+00 
3.6792103e-06 -2.4219091e-05 -1.1632862e-05 
1.0397124e-05 -3.6343267e-06 -9.3266399e-06 
1.2079575e-05 1.4082369e-05 -1.7973125e-05 
1.5348529e-05 1.9150346e-05 -2.7364392e-06 
1.7785987e-05 1.8019004e-05 2.1742001e-06 
1.4471196e-05 2.6249683e-05 2.5708578e-06 
1.7369033e-05 5.3702301e-05 4.6879477e-06 
9.0340818e-06 8.8777051e-05 4.4733174e-06 
1.6027614e-05 1.1292852e-04 -1.6948366e-05 
1.1420403e-05 1.1698154e-04 -2.4225737e-06 
-3.4551015e-06 1.1021392e-04 3.8907456e-06 
7.5829830e-06 1.0124354e-04 -1.1450521e-06 
-1.0036434e-05 9.9790872e-05 3.5921574e-05 
1.2126114e-05 1.0514593e-04 2.3007604e-05 
-1.0816740e-06 1.0141746e-04 9.3366662e-06 
1.1342611e-05 9.6777774e-05 3.2706906e-05 
3.4517081e-05 8.9193491e-05 1.4660385e-05 
-1.6875750e-06 7.2852417e-05 1.9964027e-05 
5.4988166e-05 4.9101218e-05 3.9560098e-05 
1.1585525e-05 4.1147989e-05 4.0326606e-05 
3.7040383e-05 6.4790394e-05 2.9014052e-05 
3.9546259e-05 1.0283168e-04 4.5965211e-05 
2.3194885e-05 1.3463493e-04 7.4193478e-05 
2.2926022e-05 7.3124582e-05 7.3328214e-05 
-5.4998203e-05 -1.2098678e-04 1.3479593e-04 
-1.4672030e-05 -4.2327883e-04 1.4701721e-04 
-1.0104644e-04 -8.5432717e-04 1.7504099e-04 
-1.0979856e-04 -1.4727133e-03 1.4774226e-04 
-2.6148025e-04 -2.3649323e-03 1.9078222e-04 
-3.1813455e-04 -3.4115589e-03 1.8768788e-04 
-2.0018852e-04 -4.3057618e-03 1.1769179e-04 
-2.0288155e-04 -4.4025360e-03 9.6557342e-05 
-3.1942752e-04 -4.2160037e-03 3.0410278e-05 
-4.1028549e-04 -4.1644643e-03 -1.5698137e-05 
-2.7370639e-04 -4.4192462e-03 -7.9842124e-05 
-1.1429962e-04 -4.4491780e-03 -1.4149999e-04 
-1.1476442e-04 -3.6964824e-03 -2.3395065e-04 
-1.9216770e-04 -2.5558218e-03 -2.5856987e-04 
-1.7574409e-04 -1.5403794e-03 -2.4591011e-04 
-3.1019339e-05 -7.6845480e-04 -1.6587932e-04 
9.0962540e-06 -2.7906080e-04 -1.7260588e-04 
3.6860245e-05 1.0404953e-05 -1.1780026e-04 
3.0140705e-05 1.6087737e-04 -6.5884349e-05 
3.3517710e-05 2.0715398e-04 -1.5350408e-05 
3.0799929e-05 1.7266956e-04 1.7164775e-06 
1.1249998e-05 1.0189482e-04 3.3463635e-05 
-2.4905230e-06 3.3940436e-05 4.0992734e-05 
-1.8301562e-05 -1.8730740e-05 2.5834417e-05 
-4.0922925e-05 -5.2351374e-05 2.2543718e-05 
-2.1675285e-05 -6.8966299e-05 -3.1298837e-06 
-4.3098047e-05 -7.4609023e-05 -3.6257072e-05 
-1.4780358e-05 -7.2763585e-05 -3.7335249e-05 
-1.7587814e-05 -6.6929533e-05 -2.5879197e-05 
-1.5799760e-05 -5.0997660e-05 -5.2619485e-05 
1.5677555e-05 -2.4751202e-05 -4.1302053e-05 
2.4984317e-06 1.6576292e-05 -3.0164161e-05 
5.8272533e-05 6.0436480e-05 -6.2879219e-05 
2.0140313e-05 9.1966693e-05 -1.4214913e-05 
5.9778635e-05 1.1815487e-04 2.0893469e-05 
2.6815300e-05 1.2379242e-04 -1.0632476e-05 
1.6500788e-05 1.2509686e-04 2.2620108e-05 
6.7565561e-05 1.4782844e-04 2.3155577e-05 
1.3510222e-05 1.9152222e-04 1.0414301e-05 
3.7271289e-05 1.6615351e-04 5.8960133e-05 
-3.1771346e-05 -2.4645988e-05 8.9979643e-05 
-5.8720158e-05 -3.9837143e-04 1.2283982e-04 
-1.0213343e-04 -9.6520479e-04 1.7457826e-04 
-1.6350985e-04 -1.6771012e-03 1.2600840e-04 
-2.4964439e-04 -2.5438322e-03 1.9131669e-04 
-3.0698668e-04 -3.4557600e-03 1.6082426e-04 
-1.7405773e-04 -4.1615749e-03 5.1562733e-05 
-4.0195015e-04 -4.1752681e-03 8.3299463e-05 
-2.7263458e-04 -3.9889705e-03 7.4365533e-05 
-2.8183934e-04 -3.9724805e-03 -1.5523317e-05 
-1.0148575e-04 -4.1929819e-03 -1.3966217e-04 
-1.7164816e-04 -4.1914829e-03 -2.2213858e-04 
-1.6726222e-04 -3.4132765e-03 -3.4299452e-04 
-1.9581667e-04 -2.3227909e-03 -3.3985419e-04 
-1.4369094e-04 -1.3684110e-03 -1.1417729e-04 
0.0000000e+00 6.6929519e-05 0.0000000e+00 
0.0000000e+00 5.4534501e-04 0.0000000e+00 
0.0000000e+00 8.6537912e-04 0.0000000e+00 
0.0000000e+00 1.0296525e-03 0.0000000e+00 
0.0000000e+00 1.0636487e-03 0.0000000e+00 
0.0000000e+00 1.0097360e-03 0.0000000e+00 
0.0000000e+00 9.0472738e-04 0.0000000e+00 
0.0000000e+00 7.6692208e-04 0.0000000e+00 
0.0000000e+00 6.0412672e-04 0.0000000e+00 
0.0000000e+00 4.2872957e-04 0.0000000e+00 
0.0000000e+00 2.6095656e-04 0.0000000e+00 
0.0000000e+00 1.1880178e-04 0.0000000e+00 
0.0000000e+00 8.5182919e-06 0.0000000e+00 
0.0000000e+00 -7.3991483e-05 0.0000000e+00 
0.0000000e+00 -1.3490027e-04 0.0000000e+00 
0.0000000e+00 -1.7765554e-04 0.0000000e+00 
0.0000000e+00 -2.0470585e-04 0.0000000e+00 
0.0000000e+00 -2.1997905e-04 0.0000000e+00 
0.0000000e+00 -2.2769222e-04 0.0000000e+00 
0.0000000e+00 -2.3010423e-04 0.0000000e+00 
0.0000000e+00 -3.3809800e-05 0.0000000e+00 
0.0000000e+00 -2.4150917e-05 0.0000000e+00 
0.0000000e+00 -3.5522098e-06 0.0000000e+00 
0.0000000e+00 1.3555822e-05 0.0000000e+00 
0.0000000e+00 1.8711457e-05 0.0000000e+00 
0.0000000e+00 1.8076964e-05 0.0000000e+00 
0.0000000e+00 2.7140883e-05 0.0000000e+00 
0.0000000e+00 5.4035590e-05 0.0000000e+00 
0.0000000e+00 8.8527915e-05 0.0000000e+00 
0.0000000e+00 1.1223914e-04 0.0000000e+00 
0.0000000e+00 1.1689260e-04 0.0000000e+00 
0.0000000e+00 1.1016375e-04 0.0000000e+00 
0.0000000e+00 1.0181111e-04 0.0000000e+00 
0.0000000e+00 1.0046026e-04 0.0000000e+00 
0.0000000e+00 1.0382906e-04 0.0000000e+00 
0.0000000e+00 1.0197943e-04 0.0000000e+00 
0.0000000e+00 9.7242926e-05 0.0000000e+00 
0.0000000e+00 8.8973698e-05 0.0000000e+00 
0.0000000e+00 7.2095689e-05 0.0000000e+00 
0.0000000e+00 4.8883485e-05 0.0000000e+00 
0.0000000e+00 4.1892741e-05 0.0000000e+00 
0.0000000e+00 6.5341053e-05 0.0000000e+00 
0.0000000e+00 1.0729246e-04 0.0000000e+00 
0.0000000e+00 1.3297929e-04 0.0000000e+00 
0.0000000e+00 6.9496818e-05 0.0000000e+00 
0.0000000e+00 -1.1968228e-04 0.0000000e+00 
0.0000000e+00 -4.2209643e-04 0.0000000e+00 
0.0000000e+00 -8.5251278e-04 0.0000000e+00 
0.0000000e+00 -1.4806933e-03 0.0000000e+00 
0.0000000e+00 -2.3749436e-03 0.0000000e+00 
0.0000000e+00 -3.4497024e-03 0.0000000e+00 
0.0000000e+00 -4.3279761e-03 0.0000000e+00 
0.0000000e+00 -4.4273240e-03 0.0000000e+00 
0.0000000e+00 -4.2294087e-03 0.0000000e+00 
0.0000000e+00 -4.1990066e-03 0.0000000e+00 
0.0000000e+00 -4.4421931e-03 0.0000000e+00 
0.0000000e+00 -4.4823447e-03 0.0000000e+00 
0.0000000e+00 -3.7134576e-03 0.0000000e+00 
0.0000000e+00 -2.5760522e-03 0.0000000e+00 
0.0000000e+00 -1.5443607e-03 0.0000000e+00 
0.0000000e+00 -7.7339495e-04 0.0000000e+00 
0.0000000e+00 -2.7791606e-04 0.0000000e+00 
0.0000000e+00 1.1743326e-05 0.0000000e+00 
0.0000000e+00 1.6153963e-04 0.0000000e+00 
0.0000000e+00 2.0663507e-04 0.0000000e+00 
0.0000000e+00 1.7314889e-04 0.0000000e+00 
0.0000000e+00 1.0292125e-04 0.0000000e+00 
0.0000000e+00 3.4115652e-05 0.0000000e+00 
0.0000000e+00 -1.8311273e-05 0.0000000e+00 
0.0000000e+00 -5.1955129e-05 0.0000000e+00 
0.0000000e+00 -6.9207366e-05 0.0000000e+00 
0.0000000e+00 -7.4605516e-05 0.0000000e+00 
0.0000000e+00 -7.3143958e-05 0.0000000e+00 
0.0000000e+00 -6.6767388e-05 0.0000000e+00 
0.0000000e+00 -5.1311017e-05 0.0000000e+00 
0.0000000e+00 -2.4122146e-05 0.0000000e+00 
0.0000000e+00 1.6564514e-05 0.0000000e+00 
0.0000000e+00 5.9749851e-05 0.0000000e+00 
0.0000000e+00 9.3698836e-05 0.0000000e+00 
0.0000000e+00 1.1639451e-04 0.0000000e+00 
0.0000000e+00 1.2239753e-04 0.0000000e+00 
0.0000000e+00 1.2624654e-04 0.0000000e+00 
0.0000000e+00 1.5253834e-04 0.0000000e+00 
0.0000000e+00 1.9289856e-04 0.0000000e+00 
0.0000000e+00 1.6329410e-04 0.0000000e+00 
0.0000000e+00 -2.5616895e-05 0.0000000e+00 
0.0000000e+00 -4.0263604e-04 0.0000000e+00 
0.0000000e+00 -9.6322602e-04 0.0000000e+00 
0.0000000e+00 -1.6816993e-03 0.0000000e+00 
0.0000000e+00 -2.5531142e-03 0.0000000e+00 
0.0000000e+00 -3.4927612e-03 0.0000000e+00 
0.0000000e+00 -4.1891416e-03 0.0000000e+00 
0.0000000e+00 -4.2007649e-03 0.0000000e+00 
0.0000000e+00 -4.0037977e-03 0.0000000e+00 
0.0000000e+00 -4.0011103e-03 0.0000000e+00 
0.0000000e+00 -4.2232662e-03 0.0000000e+00 
0.0000000e+00 -4.2129466e-03 0.0000000e+00 
0.0000000e+00 -3.4331009e-03 0.0000000e+00 
0.0000000e+00 -2.3444968e-03 0.0000000e+00 
0.0000000e+00 -1.3674372e-03 0.0000000e+00 
0.0000000e+00 -5.6695612e-04 0.0000000e+00 
0.0000000e+00 6.7262074e-05 0.0000000e+00 
0.0000000e+00 5.4465170e-04 0.0000000e+00 
0.0000000e+00 8.6426095e-04 0.0000000e+00 
0.0000000e+00 1.0292828e-03 0.0000000e+00 
0.0000000e+00 1.0642982e-03 0.0000000e+00 
0.0000000e+00 1.0105460e-03 0.0000000e+00 
0.0000000e+00 9.0484624e-04 0.0000000e+00 
0.0000000e+00 7.6646695e-04 0.0000000e+00 
0.0000000e+00 6.0386886e-04 0.0000000e+00 
0.0000000e+00 4.2908677e-04 0.0000000e+00 
0.0000000e+00 2.6158171e-04 0.0000000e+00 
0.0000000e+00 1.1913027e-04 0.0000000e+00 
0.0000000e+00 8.4553758e-06 0.0000000e+00 
0.0000000e+00 -7.4090785e-05 0.0000000e+00 
0.0000000e+00 -1.3480848e-04 0.0000000e+00 
0.0000000e+00 -1.7755829e-04 0.0000000e+00 
0.0000000e+00 -2.0483676e-04 0.0000000e+00 
0.0000000e+00 -2.2021146e-04 0.0000000e+00 
0.0000000e+00 -2.2773033e-04 0.0000000e+00 
0.0000000e+00 -2.2997540e-04 0.0000000e+00 
0.0000000e+00 -4.2678663e-03 0.0000000e+00 
9.2532951e-05 -1.6263007e-04 3.6929318e-06 
-1.8042701e-04 -3.6178709e-03 9.4676187e-05 
0.0000000e+00 0.0000000e+00 0.0000000e+00 
0.0000000e+00 0.0000000e+00 0.0000000e+00 
0.0000000e+00 0.0000000e+00 0.0000000e+00 
0.0000000e+00 0.0000000e+00 0.0000000e+00 
0.0000000e+00 0.0000000e+00 0.0000000e+00 
0.0000000e+00 0.0000000e+00 0.0000000e+00 
0.0000000e+00 0.0000000e+00 0.0000000e+00 
0.0000000e+00 0.0000000e+00 0.0000000e+00 
0.0000000e+00 0.0000000e+00 0.0000000e+00 
0.0000000e+00 0.0000000e+00 0.0000000e+00 
0.0000000e+00 0.0000000e+00 0.0000000e+00 
0.0000000e+00 0.0000000e+00 0.0000000e+00 
0.0000000e+00 0.0000000e+00 0.0000000e+00 
0.0000000e+00 0.0000000e+00 0.0000000e+00 
0.0000000e+00 0.0000000e+00 0.0000000e+00 
0.0000000e+00 0.0000000e+00 0.0000000e+00 
0.0000000e+00 0.0000000e+00 0.0000000e+00 
0.0000000e+00 0.0000000e+00 0.0000000e+00 
0.0000000e+00 0.0000000e+00 0.0000000e+00 
0.0000000e+00 0.0000000e+00 0.0000000e+00 
0.0000000e+00 0.0000000e+00 0.0000000e+00 
0.0000000e+00 0.0000000e+00 0.0000000e+00 
0.0000000e+00 0.0000000e+00 0.0000000e+00 
0.0000000e+00 0.0000000e+00 0.0000000e+00 
0.0000000e+00 0.0000000e+00 0.0000000e+00 
0.0000000e+00 0.0000000e+00 0.0000000e+00 
0.0000000e+00 0.0000000e+00 0.0000000e+00 
0.0000000e+00 0.0000000e+00 0.0000000e+00 
0.0000000e+00 0.0000000e+00 0.0000000e+00 
0.0000000e+00 0.0000000e+00 0.0000000e+00 
0.0000000e+00 0.0000000e+00 0.0000000e+00 
0.0000000e+00 0.0000000e+00 0.0000000e+00 
0.0000000e+00 0.0000000e+00 0.0000000e+00 
0.0000000e+00 0.0000000e+00 0.0000000e+00 
0.0000000e+00 0.0000000e+00 0.0000000e+00 
0.0000000e+00 0.0000000e+00 0.0000000e+00 
0.0000000e+00 0.0000000e+00 0.0000000e+00 
0.0000000e+00 0.0000000e+00 0.0000000e+00 
0.0000000e+00 0.0000000e+00 0.0000000e+00 
0.0000000e+00 0.0000000e+00 0.0000000e+00 
0.0000000e+00 0.0000000e+00 0.0000000e+00 
0.0000000e+00 0.0000000e+00 0.0000000e+00 
2.2807169e-06 -1.4579716e-06 -3.2723890e-06 
-1.4651701e-07 -4.4124803e-07 1.6480031e-06 
-6.7463016e-06 1.3366111e-06 2.5745592e-06 
-1.1639232e-05 2.5277486e-06 9.3895835e-07 
-4.2979318e-06 5.6773536e-07 -3.4216309e-06 
1.4251910e-05 -2.4576798e-06 -5.6673302e-06 
3.8187569e-05 -1.0222708e-05 -1.3141331e-05 
5.6814319e-05 -1.0863813e-05 -5.1324328e-06 
4.8364735e-05 -4.3497967e-06 8.4679968e-06 
1.7376073e-05 1.1780107e-06 6.4918754e-06 
2.7194919e-06 -1.9850208e-06 2.6713710e-06 
3.3573808e-06 -3.8145283e-06 2.0895503e-07 
-9.8756061e-07 -1.7416957e-06 3.4098123e-06 
-9.2880973e-06 -8.1359127e-07 1.9089744e-06 
-3.9605520e-06 3.9593888e-06 -3.2410708e-06 
4.5829993e-06 2.8435159e-06 -8.8839597e-06 
3.5979134e-05 -7.8310477e-06 -1.8364261e-05 
5.6318149e-05 -1.9650821e-05 -1.8176466e-06 
4.1941184e-05 -1.1935633e-05 1.9368270e-05 
0.0000000e+00 1.4234332e-08 0.0000000e+00 
0.0000000e+00 2.5238134e-05 0.0000000e+00 
0.0000000e+00 2.5097504e-05 0.0000000e+00 
0.0000000e+00 4.2246545e-05 0.0000000e+00 
0.0000000e+00 1.7548748e-05 0.0000000e+00 
0.0000000e+00 -3.6781948e-05 0.0000000e+00 
0.0000000e+00 -2.2654388e-04 0.0000000e+00 
0.0000000e+00 -5.9837446e-04 0.0000000e+00 
0.0000000e+00 -5.7802419e-04 0.0000000e+00 
0.0000000e+00 -1.2402567e-04 0.0000000e+00 
0.0000000e+00 3.9791328e-05 0.0000000e+00 
0.0000000e+00 -5.6037943e-06 0.0000000e+00 
0.0000000e+00 -2.7674463e-05 0.0000000e+00 
0.0000000e+00 2.7034081e-05 0.0000000e+00 
0.0000000e+00 8.9010127e-06 0.0000000e+00 
0.0000000e+00 1.2312785e-05 0.0000000e+00 
0.0000000e+00 -2.1107787e-04 0.0000000e+00 
0.0000000e+00 -5.9200701e-04 0.0000000e+00 
0.0000000e+00 -4.7988168e-04 0.0000000e+00 
2.4687001e-06 -2.3151561e-06 -5.6137019e-06 
2.0019445e-06 -2.2114971e-06 -4.3035338e-06 
4.2078816e-05 3.1946474e-05 2.0097692e-05 
7.0506634e-05 -7.9708334e-05 1.0830940e-04 
4.9290425e-06 -1.9023150e-06 -5.9005129e-06 
3.3485810e-06 -4.9122414e-06 -3.3153682e-07 
-1.7319388e-06 -2.8566828e-06 3.5467160e-06 
-7.0295350e-06 4.7130284e-06 2.0578256e-07 
-4.3694045e-06 3.5843204e-06 6.2156397e-07 
1.5906739e-05 -1.0359347e-06 -9.3294102e-06 
3.3583747e-05 -7.2433490e-06 -2.0283605e-06 
3.5379278e-05 -1.1374345e-05 -5.9935337e-06 
2.2585971e-05 -1.1963893e-06 3.4569216e-06 
1.1205670e-05 5.0414824e-06 -2.6692869e-06 
1.0073401e-05 -1.4894088e-06 2.9559035e-06 
5.9840443e-07 -5.3771964e-06 5.4880165e-06 
-6.7797005e-06 -4.9334240e-06 3.3328924e-06 
-3.6584372e-06 -4.3509522e-06 -2.8388147e-06 
2.3810901e-06 2.2697566e-06 -1.0333016e-05 
1.7396997e-05 5.0906169e-06 -9.9245435e-06 
3.1263575e-05 -7.0364501e-07 -3.4511945e-06 
4.2198171e-05 -1.6460544e-05 2.4171065e-06 
3.2822722e-05 1.1167430e-06 1.2381590e-05 
3.5521869e-06 -5.3246149e-06 -4.5785901e-06 
0.0000000e+00 3.8903349e-06 0.0000000e+00 
0.0000000e+00 5.3871867e-05 0.0000000e+00 
0.0000000e+00 8.1810504e-05 0.0000000e+00 
0.0000000e+00 1.6639317e-05 0.0000000e+00 
0.0000000e+00 5.2392243e-05 0.0000000e+00 
0.0000000e+00 4.6970486e-05 0.0000000e+00 
0.0000000e+00 -5.3723250e-04 0.0000000e+00 
0.0000000e+00 -1.3360768e-03 0.0000000e+00 
0.0000000e+00 -1.2638113e-03 0.0000000e+00 
0.0000000e+00 -2.2436213e-04 0.0000000e+00 
0.0000000e+00 8.7178443e-05 0.0000000e+00 
0.0000000e+00 -1.1181628e-05 0.0000000e+00 
0.0000000e+00 -8.3629842e-05 0.0000000e+00 
0.0000000e+00 8.4329104e-06 0.0000000e+00 
0.0000000e+00 1.2186883e-04 0.0000000e+00 
0.0000000e+00 4.4387976e-05 0.0000000e+00 
0.0000000e+00 -5.3233642e-04 0.0000000e+00 
0.0000000e+00 -1.3151650e-03 0.0000000e+00 
0.0000000e+00 -1.0755494e-03 0.0000000e+00 
6.1658073e-05 -2.1897476e-04 6.5369066e-05 
2.0336851e-05 7.5716275e-06 -9.4937914e-06 
1.5232407e-05 4.8261321e-05 -3.5500454e-07 
1.0369950e-05 8.0561607e-05 1.1546561e-05 
8.3813302e-06 6.4271066e-05 2.2034474e-05 
5.2177966e-05 3.8350136e-05 5.4710101e-05 
2.8257899e-05 5.3135376e-05 1.2583457e-04 
-2.9028975e-04 -4.8933626e-04 3.4680904e-04 
-7.4984046e-04 -1.4706353e-03 1.1936720e-04 
-6.8479107e-04 -1.5549517e-03 -2.5541638e-04 
-1.0127261e-04 -1.8634596e-04 -3.1112123e-04 
5.9311322e-05 9.9861296e-05 -5.4032503e-06 
-2.0353718e-05 -1.0300158e-05 4.3075950e-05 
-3.1345957e-05 -7.0452872e-05 -3.6084799e-05 
-1.5107993e-06 2.0107294e-05 -6.4427288e-05 
8.2876009e-05 7.0938309e-05 6.9583671e-06 
5.8935852e-06 1.1144936e-04 9.0091067e-05 
-3.2696934e-04 -4.9209554e-04 3.6173672e-04 
-5.0840178e-04 -1.7548307e-03 9.7752920e-05 
-5.9196545e-04 -1.2006299e-03 -2.2883434e-04 
0.0000000e+00 3.2186390e-06 0.0000000e+00 
0.0000000e+00 1.0551086e-04 0.0000000e+00 
0.0000000e+00 5.9030834e-05 0.0000000e+00 
0.0000000e+00 3.9305455e-06 0.0000000e+00 
0.0000000e+00 9.2544396e-05 0.0000000e+00 
0.0000000e+00 1.0067823e-04 0.0000000e+00 
0.0000000e+00 -9.7158365e-04 0.0000000e+00 
0.0000000e+00 -2.5666049e-03 0.0000000e+00 
0.0000000e+00 -2.4157099e-03 0.0000000e+00 
0.0000000e+00 -3.9874631e-04 0.0000000e+00 
0.0000000e+00 1.7914390e-04 0.0000000e+00 
0.0000000e+00 -3.5724814e-05 0.0000000e+00 
0.0000000e+00 -1.1446074e-04 0.0000000e+00 
0.0000000e+00 7.1023242e-05 0.0000000e+00 
0.0000000e+00 1.5868495e-04 0.0000000e+00 
0.0000000e+00 7.0975759e-05 0.0000000e+00 
0.0000000e+00 -1.0638551e-03 0.0000000e+00 
0.0000000e+00 -2.4886401e-03 0.0000000e+00 
0.0000000e+00 -2.1324048e-03 0.0000000e+00 
4.9327264e-06 1.3665031e-06 -1.1445416e-06 
-4.7864609e-07 1.4107652e-05 3.6669326e-06 
-1.1000225e-05 5.9892905e-06 6.8252616e-06 
-1.1527085e-05 2.0069854e-05 6.9873945e-06 
6.7067585e-06 2.0142024e-05 1.6394391e-05 
2.5649382e-05 2.7201771e-05 2.7215297e-05 
5.6384764e-05 -6.6145745e-05 1.1398650e-05 
4.8234808e-05 -1.3202940e-04 -1.5529347e-05 
3.7284546e-05 -1.1427260e-04 -1.5490023e-05 
4.0175109e-05 -3.8964208e-05 -1.0612761e-05 
6.7771603e-06 2.3355889e-05 -5.8582832e-06 
-5.4204870e-06 -4.6491487e-06 -3.5555942e-07 
-1.4592402e-05 -2.2095695e-05 -3.7092016e-06 
-5.6957997e-06 9.5329024e-06 -1.2348121e-05 
5.0809117e-06 1.2716566e-05 1.6290851e-06 
1.2721857e-05 3.5283920e-05 1.1024886e-05 
3.8970684e-05 -3.3486260e-05 8.6937443e-06 
5.3716954e-05 -1.0525426e-04 1.3142136e-05 
-8.0326790e-05 -1.1445804e-03 4.6723544e-05 
0.0000000e+00 0.0000000e+00 0.0000000e+00 
0.0000000e+00 0.0000000e+00 0.0000000e+00 
0.0000000e+00 0.0000000e+00 0.0000000e+00 
0.0000000e+00 0.0000000e+00 0.0000000e+00 
0.0000000e+00 0.0000000e+00 0.0000000e+00 
0.0000000e+00 0.0000000e+00 0.0000000e+00 
0.0000000e+00 0.0000000e+00 0.0000000e+00 
0.0000000e+00 0.0000000e+00 0.0000000e+00 
0.0000000e+00 0.0000000e+00 0.0000000e+00 
0.0000000e+00 0.0000000e+00 0.0000000e+00 
0.0000000e+00 0.0000000e+00 0.0000000e+00 
0.0000000e+00 0.0000000e+00 0.0000000e+00 
0.0000000e+00 0.0000000e+00 0.0000000e+00 
0.0000000e+00 0.0000000e+00 0.0000000e+00 
0.0000000e+00 0.0000000e+00 0.0000000e+00 
0.0000000e+00 0.0000000e+00 0.0000000e+00 
0.0000000e+00 0.0000000e+00 0.0000000e+00 
0.0000000e+00 0.0000000e+00 0.0000000e+00 
0.0000000e+00 0.0000000e+00 0.0000000e+00 
0.0000000e+00 0.0000000e+00 0.0000000e+00 
0.0000000e+00 0.0000000e+00 0.0000000e+00 
0.0000000e+00 0.0000000e+00 0.0000000e+00 
0.0000000e+00 0.0000000e+00 0.0000000e+00 
0.0000000e+00 0.0000000e+00 0.0000000e+00 
0.0000000e+00 0.0000000e+00 0.0000000e+00 
0.0000000e+00 0.0000000e+00 0.0000000e+00 
0.0000000e+00 0.0000000e+00 0.0000000e+00 
0.0000000e+00 0.0000000e+00 0.0000000e+00 
0.0000000e+00 0.0000000e+00 0.0000000e+00 
0.0000000e+00 0.0000000e+00 0.0000000e+00 
0.0000000e+00 0.0000000e+00 0.0000000e+00 
0.0000000e+00 0.0000000e+00 0.0000000e+00 
0.0000000e+00 0.0000000e+00 0.0000000e+00 
0.0000000e+00 0.0000000e+00 0.0000000e+00 
0.0000000e+00 0.0000000e+00 0.0000000e+00 
0.0000000e+00 0.0000000e+00 0.0000000e+00 
0.0000000e+00 0.0000000e+00 0.0000000e+00 
0.0000000e+00 0.0000000e+00 0.0000000e+00 
0.0000000e+00 0.0000000e+00 0.0000000e+00 
0.0000000e+00 0.0000000e+00 0.0000000e+00 
0.0000000e+00 0.0000000e+00 0.0000000e+00 
0.0000000e+00 0.0000000e+00 0.0000000e+00 
8.2338175e-07 -5.2260992e-07 -2.3795369e-06 
1.1210833e-05 -8.1271264e-06 -7.1004119e-06 
3.0190431e-05 -1.2329288e-05 -4.6724349e-06 
-5.6365207e-07 -9.6053793e-07 2.7895013e-07 
2.1055923e-06 -1.0360892e-06 1.7426755e-06 
-2.9534444e-06 -8.4972891e-07 8.0487933e-07 
-4.2832794e-06 2.0137293e-06 6.4972966e-07 
-8.2691719e-07 2.4719293e-06 -7.3607072e-07 
8.8550623e-06 -5.7842735e-06 -1.0406691e-05 