# vtk DataFile Version 4.0
vtk output
ASCII
DATASET UNSTRUCTURED_GRID
POINTS 662 float
0.0000000e+00 0.0000000e+00 0.0000000e+00 
0.0000000e+00 0.0000000e+00 4.0000000e+01 
5.0000000e+00 0.0000000e+00 0.0000000e+00 
5.0000000e+00 0.0000000e+00 4.0000000e+01 
5.0000000e+00 1.0000000e+00 0.0000000e+00 
5.0000000e+00 1.0000000e+00 4.0000000e+01 
0.0000000e+00 1.0000000e+00 0.0000000e+00 
0.0000000e+00 1.0000000e+00 4.0000000e+01 
5.0000000e+00 2.0000000e+00 0.0000000e+00 
5.0000000e+00 2.0000000e+00 4.0000000e+01 
3.0000000e+00 2.0000000e+00 0.0000000e+00 
3.0000000e+00 2.0000000e+00 4.0000000e+01 
0.0000000e+00 2.0000000e+00 0.0000000e+00 
0.0000000e+00 2.0000000e+00 4.0000000e+01 
1.5000000e+00 3.0000000e+00 0.0000000e+00 
1.5000000e+00 3.0000000e+00 4.0000000e+01 
7.5000000e-01 3.0000000e+00 0.0000000e+00 
7.5000000e-01 3.0000000e+00 4.0000000e+01 
0.0000000e+00 3.0000000e+00 0.0000000e+00 
0.0000000e+00 3.0000000e+00 4.0000000e+01 
7.5000000e-01 3.0000000e+00 5.0000000e-01 
7.5000000e-01 3.0000000e+00 1.0000000e+00 
7.5000000e-01 3.0000000e+00 1.5000000e+00 
7.5000000e-01 3.0000000e+00 2.0000000e+00 
7.5000000e-01 3.0000000e+00 2.5000000e+00 
7.5000000e-01 3.0000000e+00 3.0000000e+00 
7.5000000e-01 3.0000000e+00 3.5000000e+00 
7.5000000e-01 3.0000000e+00 4.0000000e+00 
7.5000000e-01 3.0000000e+00 4.5000000e+00 
7.5000000e-01 3.0000000e+00 5.0000000e+00 
7.5000000e-01 3.0000000e+00 5.5000000e+00 
7.5000000e-01 3.0000000e+00 6.0000000e+00 
7.5000000e-01 3.0000000e+00 6.5000000e+00 
7.5000000e-01 3.0000000e+00 7.0000000e+00 
7.5000000e-01 3.0000000e+00 7.5000000e+00 
7.5000000e-01 3.0000000e+00 8.0000000e+00 
7.5000000e-01 3.0000000e+00 8.5000000e+00 
7.5000000e-01 3.0000000e+00 9.0000000e+00 
7.5000000e-01 3.0000000e+00 9.5000000e+00 
7.5000000e-01 3.0000000e+00 1.0000000e+01 
7.5000000e-01 3.0000000e+00 1.0500000e+01 
7.5000000e-01 3.0000000e+00 1.1000000e+01 
7.5000000e-01 3.0000000e+00 1.1500000e+01 
7.5000000e-01 3.0000000e+00 1.2000000e+01 
7.5000000e-01 3.0000000e+00 1.2500000e+01 
7.5000000e-01 3.0000000e+00 1.3000000e+01 
7.5000000e-01 3.0000000e+00 1.3500000e+01 
7.5000000e-01 3.0000000e+00 1.4000000e+01 
7.5000000e-01 3.0000000e+00 1.4500000e+01 
7.5000000e-01 3.0000000e+00 1.5000000e+01 
7.5000000e-01 3.0000000e+00 1.5500000e+01 
7.5000000e-01 3.0000000e+00 1.6000000e+01 
7.5000000e-01 3.0000000e+00 1.6500000e+01 
7.5000000e-01 3.0000000e+00 1.7000000e+01 
7.5000000e-01 3.0000000e+00 1.7500000e+01 
7.5000000e-01 3.0000000e+00 1.8000000e+01 
7.5000000e-01 3.0000000e+00 1.8500000e+01 
7.5000000e-01 3.0000000e+00 1.9000000e+01 
7.5000000e-01 3.0000000e+00 1.9500000e+01 
7.5000000e-01 3.0000000e+00 2.0000000e+01 
7.5000000e-01 3.0000000e+00 2.0500000e+01 
7.5000000e-01 3.0000000e+00 2.1000000e+01 
7.5000000e-01 3.0000000e+00 2.1500000e+01 
7.5000000e-01 3.0000000e+00 2.2000000e+01 
7.5000000e-01 3.0000000e+00 2.2500000e+01 
7.5000000e-01 3.0000000e+00 2.3000000e+01 
7.5000000e-01 3.0000000e+00 2.3500000e+01 
7.5000000e-01 3.0000000e+00 2.4000000e+01 
7.5000000e-01 3.0000000e+00 2.4500000e+01 
7.5000000e-01 3.0000000e+00 2.5000000e+01 
7.5000000e-01 3.0000000e+00 2.5500000e+01 
7.5000000e-01 3.0000000e+00 2.6000000e+01 
7.5000000e-01 3.0000000e+00 2.6500000e+01 
7.5000000e-01 3.0000000e+00 2.7000000e+01 
7.5000000e-01 3.0000000e+00 2.7500000e+01 
7.5000000e-01 3.0000000e+00 2.8000000e+01 
7.5000000e-01 3.0000000e+00 2.8500000e+01 
7.5000000e-01 3.0000000e+00 2.9000000e+01 
7.5000000e-01 3.0000000e+00 2.9500000e+01 
7.5000000e-01 3.0000000e+00 3.0000000e+01 
7.5000000e-01 3.0000000e+00 3.0500000e+01 
7.5000000e-01 3.0000000e+00 3.1000000e+01 
7.5000000e-01 3.0000000e+00 3.1500000e+01 
7.5000000e-01 3.0000000e+00 3.2000000e+01 
7.5000000e-01 3.0000000e+00 3.2500000e+01 
7.5000000e-01 3.0000000e+00 3.3000000e+01 
7.5000000e-01 3.0000000e+00 3.3500000e+01 
7.5000000e-01 3.0000000e+00 3.4000000e+01 
7.5000000e-01 3.0000000e+00 3.4500000e+01 
7.5000000e-01 3.0000000e+00 3.5000000e+01 
7.5000000e-01 3.0000000e+00 3.5500000e+01 
7.5000000e-01 3.0000000e+00 3.6000000e+01 
7.5000000e-01 3.0000000e+00 3.6500000e+01 
7.5000000e-01 3.0000000e+00 3.7000000e+01 
7.5000000e-01 3.0000000e+00 3.7500000e+01 
7.5000000e-01 3.0000000e+00 3.8000000e+01 
7.5000000e-01 3.0000000e+00 3.8500000e+01 
7.5000000e-01 3.0000000e+00 3.9000000e+01 
7.5000000e-01 3.0000000e+00 3.9500000e+01 
7.5000000e-01 3.0000000e+00 4.0500000e+01 
7.5000000e-01 3.0000000e+00 4.1000000e+01 
7.5000000e-01 3.0000000e+00 4.1500000e+01 
7.5000000e-01 3.0000000e+00 4.2000000e+01 
7.5000000e-01 3.0000000e+00 4.2500000e+01 
7.5000000e-01 3.0000000e+00 4.3000000e+01 
7.5000000e-01 3.0000000e+00 4.3500000e+01 
7.5000000e-01 3.0000000e+00 4.4000000e+01 
7.5000000e-01 3.0000000e+00 4.4500000e+01 
7.5000000e-01 3.0000000e+00 4.5000000e+01 
7.5000000e-01 3.0000000e+00 4.5500000e+01 
7.5000000e-01 3.0000000e+00 4.6000000e+01 
7.5000000e-01 3.0000000e+00 4.6500000e+01 
7.5000000e-01 3.0000000e+00 4.7000000e+01 
7.5000000e-01 3.0000000e+00 4.7500000e+01 
7.5000000e-01 3.0000000e+00 4.8000000e+01 
7.5000000e-01 3.0000000e+00 4.8500000e+01 
7.5000000e-01 3.0000000e+00 4.9000000e+01 
7.5000000e-01 3.0000000e+00 4.9500000e+01 
7.5000000e-01 3.0000000e+00 5.0000000e+01 
7.5000000e-01 3.0250001e+00 0.0000000e+00 
7.5000000e-01 3.0250001e+00 5.0000000e-01 
7.5000000e-01 3.0250001e+00 1.0000000e+00 
7.5000000e-01 3.0250001e+00 1.5000000e+00 
7.5000000e-01 3.0250001e+00 2.0000000e+00 
7.5000000e-01 3.0250001e+00 2.5000000e+00 
7.5000000e-01 3.0250001e+00 3.0000000e+00 
7.5000000e-01 3.0250001e+00 3.5000000e+00 
7.5000000e-01 3.0250001e+00 4.0000000e+00 
7.5000000e-01 3.0250001e+00 4.5000000e+00 
7.5000000e-01 3.0250001e+00 5.0000000e+00 
7.5000000e-01 3.0250001e+00 5.5000000e+00 
7.5000000e-01 3.0250001e+00 6.0000000e+00 
7.5000000e-01 3.0250001e+00 6.5000000e+00 
7.5000000e-01 3.0250001e+00 7.0000000e+00 
7.5000000e-01 3.0250001e+00 7.5000000e+00 
7.5000000e-01 3.0250001e+00 8.0000000e+00 
7.5000000e-01 3.0250001e+00 8.5000000e+00 
7.5000000e-01 3.0250001e+00 9.0000000e+00 
7.5000000e-01 3.0250001e+00 9.5000000e+00 
7.5000000e-01 3.0250001e+00 1.0000000e+01 
7.5000000e-01 3.0250001e+00 1.0500000e+01 
7.5000000e-01 3.0250001e+00 1.1000000e+01 
7.5000000e-01 3.0250001e+00 1.1500000e+01 
7.5000000e-01 3.0250001e+00 1.2000000e+01 
7.5000000e-01 3.0250001e+00 1.2500000e+01 
7.5000000e-01 3.0250001e+00 1.3000000e+01 
7.5000000e-01 3.0250001e+00 1.3500000e+01 
7.5000000e-01 3.0250001e+00 1.4000000e+01 
7.5000000e-01 3.0250001e+00 1.4500000e+01 
7.5000000e-01 3.0250001e+00 1.5000000e+01 
7.5000000e-01 3.0250001e+00 1.5500000e+01 
7.5000000e-01 3.0250001e+00 1.6000000e+01 
7.5000000e-01 3.0250001e+00 1.6500000e+01 
7.5000000e-01 3.0250001e+00 1.7000000e+01 
7.5000000e-01 3.0250001e+00 1.7500000e+01 
7.5000000e-01 3.0250001e+00 1.8000000e+01 
7.5000000e-01 3.0250001e+00 1.8500000e+01 
7.5000000e-01 3.0250001e+00 1.9000000e+01 
7.5000000e-01 3.0250001e+00 1.9500000e+01 
7.5000000e-01 3.0250001e+00 2.0000000e+01 
7.5000000e-01 3.0250001e+00 2.0500000e+01 
7.5000000e-01 3.0250001e+00 2.1000000e+01 
7.5000000e-01 3.0250001e+00 2.1500000e+01 
7.5000000e-01 3.0250001e+00 2.2000000e+01 
7.5000000e-01 3.0250001e+00 2.2500000e+01 
7.5000000e-01 3.0250001e+00 2.3000000e+01 
7.5000000e-01 3.0250001e+00 2.3500000e+01 
7.5000000e-01 3.0250001e+00 2.4000000e+01 
7.5000000e-01 3.0250001e+00 2.4500000e+01 
7.5000000e-01 3.0250001e+00 2.5000000e+01 
7.5000000e-01 3.0250001e+00 2.5500000e+01 
7.5000000e-01 3.0250001e+00 2.6000000e+01 
7.5000000e-01 3.0250001e+00 2.6500000e+01 
7.5000000e-01 3.0250001e+00 2.7000000e+01 
7.5000000e-01 3.0250001e+00 2.7500000e+01 
7.5000000e-01 3.0250001e+00 2.8000000e+01 
7.5000000e-01 3.0250001e+00 2.8500000e+01 
7.5000000e-01 3.0250001e+00 2.9000000e+01 
7.5000000e-01 3.0250001e+00 2.9500000e+01 
7.5000000e-01 3.0250001e+00 3.0000000e+01 
7.5000000e-01 3.0250001e+00 3.0500000e+01 
7.5000000e-01 3.0250001e+00 3.1000000e+01 
7.5000000e-01 3.0250001e+00 3.1500000e+01 
7.5000000e-01 3.0250001e+00 3.2000000e+01 
7.5000000e-01 3.0250001e+00 3.2500000e+01 
7.5000000e-01 3.0250001e+00 3.3000000e+01 
7.5000000e-01 3.0250001e+00 3.3500000e+01 
7.5000000e-01 3.0250001e+00 3.4000000e+01 
7.5000000e-01 3.0250001e+00 3.4500000e+01 
7.5000000e-01 3.0250001e+00 3.5000000e+01 
7.5000000e-01 3.0250001e+00 3.5500000e+01 
7.5000000e-01 3.0250001e+00 3.6000000e+01 
7.5000000e-01 3.0250001e+00 3.6500000e+01 
7.5000000e-01 3.0250001e+00 3.7000000e+01 
7.5000000e-01 3.0250001e+00 3.7500000e+01 
7.5000000e-01 3.0250001e+00 3.8000000e+01 
7.5000000e-01 3.0250001e+00 3.8500000e+01 
7.5000000e-01 3.0250001e+00 3.9000000e+01 
7.5000000e-01 3.0250001e+00 3.9500000e+01 
7.5000000e-01 3.0250001e+00 4.0000000e+01 
7.5000000e-01 3.0250001e+00 4.0500000e+01 
7.5000000e-01 3.0250001e+00 4.1000000e+01 
7.5000000e-01 3.0250001e+00 4.1500000e+01 
7.5000000e-01 3.0250001e+00 4.2000000e+01 
7.5000000e-01 3.0250001e+00 4.2500000e+01 
7.5000000e-01 3.0250001e+00 4.3000000e+01 
7.5000000e-01 3.0250001e+00 4.3500000e+01 
7.5000000e-01 3.0250001e+00 4.4000000e+01 
7.5000000e-01 3.0250001e+00 4.4500000e+01 
7.5000000e-01 3.0250001e+00 4.5000000e+01 
7.5000000e-01 3.0250001e+00 4.5500000e+01 
7.5000000e-01 3.0250001e+00 4.6000000e+01 
7.5000000e-01 3.0250001e+00 4.6500000e+01 
7.5000000e-01 3.0250001e+00 4.7000000e+01 
7.5000000e-01 3.0250001e+00 4.7500000e+01 
7.5000000e-01 3.0250001e+00 4.8000000e+01 
7.5000000e-01 3.0250001e+00 4.8500000e+01 
7.5000000e-01 3.0250001e+00 4.9000000e+01 
7.5000000e-01 3.0250001e+00 4.9500000e+01 
7.5000000e-01 3.0250001e+00 5.0000000e+01 
7.5000000e-01 3.0250001e+00 3.5750000e+01 
3.0000000e+00 2.0000000e+00 3.6000000e+01 
8.0487806e-01 3.0000000e+00 3.6000000e+01 
0.0000000e+00 0.0000000e+00 2.0000000e+00 
0.0000000e+00 0.0000000e+00 4.0000000e+00 
0.0000000e+00 0.0000000e+00 6.0000000e+00 
0.0000000e+00 0.0000000e+00 8.0000000e+00 
0.0000000e+00 0.0000000e+00 1.0000000e+01 
0.0000000e+00 0.0000000e+00 1.2000000e+01 
0.0000000e+00 0.0000000e+00 1.4000000e+01 
[...]
POINT_DATA 662
FIELD FieldData 3
DISPLACEMENT 3 662  float
0.0000000e+00 0.0000000e+00 0.0000000e+00 
0.0000000e+00 0.0000000e+00 0.0000000e+00 
0.0000000e+00 0.0000000e+00 0.0000000e+00 
0.0000000e+00 0.0000000e+00 0.0000000e+00 
1.9455445e-06 -9.6944996e-07 -5.1280522e-06 
9.1634183e-06 6.3901684e-06 1.4349618e-05 
0.0000000e+00 -2.3592813e-06 0.0000000e+00 
0.0000000e+00 -1.7596757e-04 0.0000000e+00 
1.4386380e-06 5.0413576e-07 -6.1630317e-06 
2.6790631e-05 8.6276787e-06 -5.9793939e-07 
5.2635141e-06 -4.7888766e-06 -8.5843130e-06 
3.6722511e-05 7.5164557e-05 -1.0073791e-05 
0.0000000e+00 -6.8358340e-06 0.0000000e+00 
0.0000000e+00 -3.5450730e-04 0.0000000e+00 
5.1509655e-06 -1.3320812e-05 -1.8136823e-05 
-9.1840149e-05 -1.1060122e-04 -2.4323838e-04 
2.9419991e-07 -1.0967172e-05 -1.4213856e-05 
-6.1568659e-05 -6.3332444e-04 -2.8908439e-04 
0.0000000e+00 -1.1959649e-05 0.0000000e+00 
0.0000000e+00 -2.4020085e-04 0.0000000e+00 
3.6080812e-06 -1.0071009e-05 -1.7279264e-05 
1.0150628e-05 -6.7927344e-06 -1.6091812e-05 
1.3677521e-05 1.2476669e-07 -1.3435624e-05 
1.7679951e-05 1.1705621e-05 -6.2578083e-06 
1.9834932e-05 2.8172770e-05 2.6075013e-06 
1.7834771e-05 4.8489383e-05 5.0486051e-06 
1.3476079e-05 7.0000016e-05 6.0375851e-06 
1.1792663e-05 8.9553527e-05 4.3305668e-06 
9.4322904e-06 1.0470233e-04 -1.2043537e-06 
9.2075416e-06 1.1419826e-04 7.2258850e-08 
5.6669815e-06 1.1757045e-04 1.0614269e-05 
3.3227709e-06 1.1543985e-04 2.4311852e-05 
6.7491178e-06 1.0719256e-04 3.6097023e-05 
8.9202276e-06 9.3804949e-05 4.1987390e-05 
9.7275260e-06 7.5506876e-05 4.5328921e-05 
1.1576201e-05 5.3583171e-05 4.2259329e-05 
1.2129337e-05 2.9882160e-05 3.8795140e-05 
1.4831996e-05 7.3054102e-06 3.5493831e-05 
1.8785709e-05 -1.0526739e-05 3.7221700e-05 
1.8267599e-05 -2.1244803e-05 3.9704810e-05 
1.5322954e-05 -2.3688635e-05 3.3820634e-05 
1.1045333e-05 -2.4810153e-05 2.9962330e-05 
4.8035331e-06 -3.7257556e-05 4.0461015e-05 
-8.7510334e-06 -9.0938353e-05 5.2191037e-05 
-5.3262480e-05 -2.2774069e-04 8.1315717e-05 
-6.9704169e-05 -4.9017137e-04 1.0823707e-04 
-9.3229843e-05 -9.4155420e-04 1.4517071e-04 
-1.4858881e-04 -1.6245426e-03 7.9893551e-05 
-2.9633474e-04 -2.5566278e-03 1.5403080e-04 
-3.0329873e-04 -3.5561537e-03 1.2910024e-04 
-1.9070072e-04 -4.3105162e-03 5.7860299e-05 
-1.5193621e-04 -4.2537856e-03 6.9256959e-05 
-2.7305359e-04 -3.9740545e-03 -1.7807106e-06 
-3.3312116e-04 -3.8566228e-03 -1.2354951e-05 
-2.1920432e-04 -4.0226737e-03 -4.2401884e-05 
-5.7123816e-05 -3.9865891e-03 -7.6302626e-05 
-7.5777294e-05 -3.2751583e-03 -1.5927898e-04 
-1.6088980e-04 -2.2556176e-03 -1.7192088e-04 
-1.5991274e-04 -1.3783345e-03 -1.5287912e-04 
-4.6287871e-05 -7.2136422e-04 -8.5112966e-05 
-1.7768903e-05 -3.1537787e-04 -1.1806349e-04 
-8.2194165e-06 -9.3456023e-05 -9.0940746e-05 
-6.1620303e-06 7.7466402e-06 -7.0828282e-05 
2.5920472e-06 3.9933740e-05 -4.9832546e-05 
4.2280953e-06 3.6821362e-05 -2.8239818e-05 
1.9639549e-06 2.1058640e-05 -1.3794303e-05 
-4.6356090e-06 5.6427320e-06 -9.6892900e-06 
-1.0984584e-05 -6.9591920e-06 -1.3013380e-05 
-1.2721515e-05 -1.5942847e-05 -1.7776798e-05 
-1.1366018e-05 -2.2952891e-05 -2.1677542e-05 
-1.1340819e-05 -2.8684022e-05 -2.4048815e-05 
-1.3011995e-05 -3.2426797e-05 -2.3780120e-05 
-1.2145995e-05 -3.3598008e-05 -2.2759339e-05 
-1.2405239e-05 -3.2958185e-05 -2.2852550e-05 
-9.5836112e-06 -2.9865461e-05 -2.6024733e-05 
-3.1909835e-06 -2.1653301e-05 -2.8320354e-05 
1.3647524e-05 -4.5840052e-06 -2.3529114e-05 
2.4710982e-05 2.2891820e-05 -1.8549190e-05 
3.6153844e-05 6.1176768e-05 -1.9242256e-05 
4.6233257e-05 1.0662255e-04 -1.3306843e-05 
4.8909867e-05 1.5421932e-04 -1.7474951e-05 
4.7611436e-05 1.9218189e-04 -1.0714454e-05 
3.8111666e-05 2.0361440e-04 6.8601153e-06 
2.1542843e-05 1.5604262e-04 2.8018816e-05 
-2.6586275e-05 2.0885932e-06 7.5443189e-05 
-3.8522256e-05 -3.0078736e-04 1.1996993e-04 
-6.8755566e-05 -8.1572536e-04 1.7989674e-04 
-1.3112108e-04 -1.5716185e-03 1.2864401e-04 
-2.7244579e-04 -2.5649392e-03 2.1174918e-04 
-2.8104754e-04 -3.5750989e-03 1.7595987e-04 
-1.8450015e-04 -4.2345952e-03 7.5406911e-05 
-3.8266854e-04 -4.1520507e-03 1.3086239e-04 
-2.6635101e-04 -3.9729597e-03 1.0793249e-04 
-2.9721533e-04 -4.0424424e-03 2.0264626e-05 
-1.0900656e-04 -4.3759104e-03 -1.2328422e-04 
-1.8721800e-04 -4.4007595e-03 -1.9308168e-04 
-1.8778579e-04 -3.5872778e-03 -3.3787891e-04 
-2.2160700e-04 -2.4806575e-03 -3.5464889e-04 
-1.6518503e-04 -1.4912323e-03 -1.3763015e-04 
0.0000000e+00 5.3880711e-05 0.0000000e+00 
0.0000000e+00 5.7033333e-04 0.0000000e+00 
0.0000000e+00 9.2129555e-04 0.0000000e+00 
0.0000000e+00 1.1196507e-03 0.0000000e+00 
0.0000000e+00 1.1839902e-03 0.0000000e+00 
0.0000000e+00 1.1372778e-03 0.0000000e+00 
0.0000000e+00 1.0059871e-03 0.0000000e+00 
0.0000000e+00 8.1907684e-04 0.0000000e+00 
0.0000000e+00 6.0587883e-04 0.0000000e+00 
0.0000000e+00 3.9286702e-04 0.0000000e+00 
0.0000000e+00 2.0050060e-04 0.0000000e+00 
0.0000000e+00 4.1669093e-05 0.0000000e+00 
0.0000000e+00 -7.7701450e-05 0.0000000e+00 
0.0000000e+00 -1.5680748e-04 0.0000000e+00 
0.0000000e+00 -1.9846998e-04 0.0000000e+00 
0.0000000e+00 -2.0875844e-04 0.0000000e+00 
0.0000000e+00 -1.9705454e-04 0.0000000e+00 
0.0000000e+00 -1.7523709e-04 0.0000000e+00 
0.0000000e+00 -1.5548186e-04 0.0000000e+00 
0.0000000e+00 -1.4747340e-04 0.0000000e+00 
0.0000000e+00 -1.1008095e-05 0.0000000e+00 
0.0000000e+00 -1.0101717e-05 0.0000000e+00 
0.0000000e+00 -6.7786359e-06 0.0000000e+00 
0.0000000e+00 1.6550240e-07 0.0000000e+00 
0.0000000e+00 1.1769857e-05 0.0000000e+00 
0.0000000e+00 2.8259519e-05 0.0000000e+00 
0.0000000e+00 4.8526304e-05 0.0000000e+00 
0.0000000e+00 6.9979767e-05 0.0000000e+00 
0.0000000e+00 8.9519890e-05 0.0000000e+00 
0.0000000e+00 1.0468525e-04 0.0000000e+00 
0.0000000e+00 1.1416502e-04 0.0000000e+00 
0.0000000e+00 1.1765116e-04 0.0000000e+00 
0.0000000e+00 1.1538759e-04 0.0000000e+00 
0.0000000e+00 1.0725146e-04 0.0000000e+00 
0.0000000e+00 9.3783601e-05 0.0000000e+00 
0.0000000e+00 7.5493874e-05 0.0000000e+00 
0.0000000e+00 5.3532109e-05 0.0000000e+00 
0.0000000e+00 2.9856767e-05 0.0000000e+00 
0.0000000e+00 7.3668411e-06 0.0000000e+00 
0.0000000e+00 -1.0472703e-05 0.0000000e+00 
0.0000000e+00 -2.0878713e-05 0.0000000e+00 
0.0000000e+00 -2.3389814e-05 0.0000000e+00 
0.0000000e+00 -2.3880755e-05 0.0000000e+00 
0.0000000e+00 -3.6626639e-05 0.0000000e+00 
0.0000000e+00 -9.0822010e-05 0.0000000e+00 
0.0000000e+00 -2.2664490e-04 0.0000000e+00 
0.0000000e+00 -4.9093575e-04 0.0000000e+00 
0.0000000e+00 -9.4316190e-04 0.0000000e+00 
0.0000000e+00 -1.6341200e-03 0.0000000e+00 
0.0000000e+00 -2.5645799e-03 0.0000000e+00 
0.0000000e+00 -3.5894255e-03 0.0000000e+00 
0.0000000e+00 -4.3354966e-03 0.0000000e+00 
0.0000000e+00 -4.2854082e-03 0.0000000e+00 
0.0000000e+00 -3.9882716e-03 0.0000000e+00 
0.0000000e+00 -3.8871022e-03 0.0000000e+00 
0.0000000e+00 -4.0420019e-03 0.0000000e+00 
0.0000000e+00 -4.0202867e-03 0.0000000e+00 
0.0000000e+00 -3.2926982e-03 0.0000000e+00 
0.0000000e+00 -2.2736338e-03 0.0000000e+00 
0.0000000e+00 -1.3805231e-03 0.0000000e+00 
0.0000000e+00 -7.2551041e-04 0.0000000e+00 
0.0000000e+00 -3.1516180e-04 0.0000000e+00 
0.0000000e+00 -9.2540482e-05 0.0000000e+00 
0.0000000e+00 8.7472499e-06 0.0000000e+00 
0.0000000e+00 4.0507584e-05 0.0000000e+00 
0.0000000e+00 3.7302550e-05 0.0000000e+00 
0.0000000e+00 2.1588132e-05 0.0000000e+00 
0.0000000e+00 5.7306338e-06 0.0000000e+00 
0.0000000e+00 -6.8593440e-06 0.0000000e+00 
0.0000000e+00 -1.6012633e-05 0.0000000e+00 
0.0000000e+00 -2.3068937e-05 0.0000000e+00 
0.0000000e+00 -2.8676519e-05 0.0000000e+00 
0.0000000e+00 -3.2312211e-05 0.0000000e+00 
0.0000000e+00 -3.3639128e-05 0.0000000e+00 
0.0000000e+00 -3.3062308e-05 0.0000000e+00 
0.0000000e+00 -2.9942315e-05 0.0000000e+00 
0.0000000e+00 -2.1593203e-05 0.0000000e+00 
0.0000000e+00 -4.5307747e-06 0.0000000e+00 
0.0000000e+00 2.3107412e-05 0.0000000e+00 
0.0000000e+00 6.1262515e-05 0.0000000e+00 
0.0000000e+00 1.0695685e-04 0.0000000e+00 
0.0000000e+00 1.5452267e-04 0.0000000e+00 
0.0000000e+00 1.9305885e-04 0.0000000e+00 
0.0000000e+00 2.0441250e-04 0.0000000e+00 
0.0000000e+00 1.5595989e-04 0.0000000e+00 
0.0000000e+00 3.2348592e-06 0.0000000e+00 
0.0000000e+00 -3.0216118e-04 0.0000000e+00 
0.0000000e+00 -8.1773481e-04 0.0000000e+00 
0.0000000e+00 -1.5821396e-03 0.0000000e+00 
0.0000000e+00 -2.5738573e-03 0.0000000e+00 
0.0000000e+00 -3.6097476e-03 0.0000000e+00 
0.0000000e+00 -4.2617000e-03 0.0000000e+00 
0.0000000e+00 -4.1786302e-03 0.0000000e+00 
0.0000000e+00 -3.9891950e-03 0.0000000e+00 
0.0000000e+00 -4.0737269e-03 0.0000000e+00 
0.0000000e+00 -4.4075972e-03 0.0000000e+00 
0.0000000e+00 -4.4219564e-03 0.0000000e+00 
0.0000000e+00 -3.6057765e-03 0.0000000e+00 
0.0000000e+00 -2.5006889e-03 0.0000000e+00 
0.0000000e+00 -1.4895065e-03 0.0000000e+00 
0.0000000e+00 -6.3415064e-04 0.0000000e+00 
0.0000000e+00 5.3549284e-05 0.0000000e+00 
0.0000000e+00 5.7002791e-04 0.0000000e+00 
0.0000000e+00 9.2105451e-04 0.0000000e+00 
0.0000000e+00 1.1194763e-03 0.0000000e+00 
0.0000000e+00 1.1838677e-03 0.0000000e+00 
0.0000000e+00 1.1372057e-03 0.0000000e+00 
0.0000000e+00 1.0059879e-03 0.0000000e+00 
0.0000000e+00 8.1918272e-04 0.0000000e+00 
0.0000000e+00 6.0610240e-04 0.0000000e+00 
0.0000000e+00 3.9317636e-04 0.0000000e+00 
0.0000000e+00 2.0082291e-04 0.0000000e+00 
0.0000000e+00 4.1932712e-05 0.0000000e+00 
0.0000000e+00 -7.7518438e-05 0.0000000e+00 
0.0000000e+00 -1.5667448e-04 0.0000000e+00 
0.0000000e+00 -1.9835604e-04 0.0000000e+00 
0.0000000e+00 -2.0867964e-04 0.0000000e+00 
0.0000000e+00 -1.9705830e-04 0.0000000e+00 
0.0000000e+00 -1.7534687e-04 0.0000000e+00 
0.0000000e+00 -1.5567246e-04 0.0000000e+00 
0.0000000e+00 -1.4769239e-04 0.0000000e+00 
0.0000000e+00 -4.2800307e-03 0.0000000e+00 
1.0186105e-04 -1.5674374e-04 1.1588235e-05 
-1.7824046e-04 -3.6085013e-03 1.4903367e-04 
0.0000000e+00 0.0000000e+00 0.0000000e+00 
0.0000000e+00 0.0000000e+00 0.0000000e+00 
0.0000000e+00 0.0000000e+00 0.0000000e+00 
0.0000000e+00 0.0000000e+00 0.0000000e+00 
0.0000000e+00 0.0000000e+00 0.0000000e+00 
0.0000000e+00 0.0000000e+00 0.0000000e+00 
0.0000000e+00 0.0000000e+00 0.0000000e+00 
0.0000000e+00 0.0000000e+00 0.0000000e+00 
0.0000000e+00 0.0000000e+00 0.0000000e+00 
0.0000000e+00 0.0000000e+00 0.0000000e+00 
0.0000000e+00 0.0000000e+00 0.0000000e+00 
0.0000000e+00 0.0000000e+00 0.0000000e+00 
0.0000000e+00 0.0000000e+00 0.0000000e+00 
0.0000000e+00 0.0000000e+00 0.0000000e+00 
0.0000000e+00 0.0000000e+00 0.0000000e+00 
0.0000000e+00 0.0000000e+00 0.0000000e+00 
0.0000000e+00 0.0000000e+00 0.0000000e+00 
0.0000000e+00 0.0000000e+00 0.0000000e+00 
0.0000000e+00 0.0000000e+00 0.0000000e+00 
0.0000000e+00 0.0000000e+00 0.0000000e+00 
0.0000000e+00 0.0000000e+00 0.0000000e+00 
0.0000000e+00 0.0000000e+00 0.0000000e+00 
0.0000000e+00 0.0000000e+00 0.0000000e+00 
0.0000000e+00 0.0000000e+00 0.0000000e+00 
0.0000000e+00 0.0000000e+00 0.0000000e+00 
0.0000000e+00 0.0000000e+00 0.0000000e+00 
0.0000000e+00 0.0000000e+00 0.0000000e+00 
0.0000000e+00 0.0000000e+00 0.0000000e+00 
0.0000000e+00 0.0000000e+00 0.0000000e+00 
0.0000000e+00 0.0000000e+00 0.0000000e+00 
0.0000000e+00 0.0000000e+00 0.0000000e+00 
0.0000000e+00 0.0000000e+00 0.0000000e+00 
0.0000000e+00 0.0000000e+00 0.0000000e+00 
0.0000000e+00 0.0000000e+00 0.0000000e+00 
0.0000000e+00 0.0000000e+00 0.0000000e+00 
0.0000000e+00 0.0000000e+00 0.0000000e+00 
0.0000000e+00 0.0000000e+00 0.0000000e+00 
0.0000000e+00 0.0000000e+00 0.0000000e+00 
0.0000000e+00 0.0000000e+00 0.0000000e+00 
0.0000000e+00 0.0000000e+00 0.0000000e+00 
0.0000000e+00 0.0000000e+00 0.0000000e+00 
0.0000000e+00 0.0000000e+00 0.0000000e+00 
2.2682107e-06 -1.7005549e-06 -3.6790436e-06 
-4.1404587e-07 -9.5476025e-07 1.4462443e-06 
-6.6056468e-06 2.6569469e-07 3.0657714e-06 
-9.7240982e-06 2.8691654e-06 -4.0030827e-07 
-2.8524464e-06 -6.9611752e-07 -3.9971678e-06 
1.3919214e-05 -4.3410769e-06 -7.6734732e-06 
3.8259663e-05 -7.1337154e-06 -1.0482392e-05 
5.2588377e-05 -6.5878203e-06 -8.9654367e-07 
4.3414391e-05 -3.5991729e-06 9.2858627e-06 
1.9939776e-05 -1.8654032e-06 4.1612652e-06 
5.2798655e-06 -2.8794962e-06 4.7013839e-07 
2.1356420e-06 -1.3632786e-06 -1.6592885e-07 
-2.8311990e-06 -1.5690171e-06 2.6777641e-06 
-8.2111856e-06 -1.8428345e-06 1.3435617e-06 
-5.4632460e-06 2.3466231e-07 -9.2377218e-07 
2.3121308e-06 2.8908696e-06 -8.3983623e-06 
3.4550168e-05 -4.4154685e-06 -1.7911087e-05 
5.8145059e-05 -2.0321180e-05 -1.6835427e-06 
4.4899476e-05 -1.4067386e-05 2.0231017e-05 
0.0000000e+00 2.3316318e-06 0.0000000e+00 
0.0000000e+00 2.9164101e-05 0.0000000e+00 
0.0000000e+00 3.5171855e-05 0.0000000e+00 
0.0000000e+00 1.3057120e-05 0.0000000e+00 
0.0000000e+00 -1.1496910e-05 0.0000000e+00 
0.0000000e+00 -4.5422326e-05 0.0000000e+00 
0.0000000e+00 -2.6820428e-04 0.0000000e+00 
0.0000000e+00 -5.5701262e-04 0.0000000e+00 
0.0000000e+00 -4.6714451e-04 0.0000000e+00 
0.0000000e+00 -1.2560167e-04 0.0000000e+00 
0.0000000e+00 -9.4470788e-06 0.0000000e+00 
0.0000000e+00 -3.9822071e-06 0.0000000e+00 
0.0000000e+00 -1.7452474e-05 0.0000000e+00 
0.0000000e+00 -6.0069719e-06 0.0000000e+00 
0.0000000e+00 3.3977598e-05 0.0000000e+00 
0.0000000e+00 3.0871608e-05 0.0000000e+00 
0.0000000e+00 -2.2295371e-04 0.0000000e+00 
0.0000000e+00 -5.7419058e-04 0.0000000e+00 
0.0000000e+00 -5.2016013e-04 0.0000000e+00 
2.9685482e-06 -2.3992159e-06 -6.2728063e-06 
1.8008432e-06 -2.7176563e-06 -4.8522702e-06 
4.3188622e-05 3.3514356e-05 1.8176099e-05 
8.0570484e-05 -9.6300202e-05 1.1312065e-04 
3.7358666e-06 -2.6080518e-06 -5.1030838e-06 
2.8876455e-06 -3.7902223e-06 2.2267532e-08 
-4.6236805e-06 -1.5108022e-06 3.5304365e-06 
-1.1701049e-05 2.3192567e-06 9.0464550e-07 
-6.6937200e-06 1.0874930e-06 -3.5451064e-06 
1.8090825e-05 -3.6954680e-06 -9.5943178e-06 
3.2655909e-05 -4.9010409e-06 -6.0885004e-06 
3.6801230e-05 -4.8520501e-06 -1.3309922e-06 
2.8900811e-05 -9.5109232e-07 7.9575493e-06 
1.2510660e-05 1.6306373e-06 2.8036527e-07 
6.4666042e-06 -3.0112337e-06 -6.5571010e-07 
1.4635427e-06 -3.2042481e-06 -4.2179656e-07 
-5.0953195e-06 -3.7942600e-06 3.1724487e-06 
-1.0724343e-05 -2.2520871e-06 -3.3675536e-07 
-4.8208243e-08 -8.5113712e-08 -7.4826862e-06 
1.6754109e-05 3.2425239e-06 -1.0721839e-05 
3.6021258e-05 -3.2062019e-06 -8.0068548e-06 
5.0585553e-05 -1.3168727e-05 8.2929819e-06 
3.5186906e-05 -2.9357775e-06 1.2867176e-05 
4.5053243e-06 -5.1819461e-06 -7.4975619e-06 
0.0000000e+00 3.9104516e-06 0.0000000e+00 
0.0000000e+00 5.6028184e-05 0.0000000e+00 
0.0000000e+00 6.6021072e-05 0.0000000e+00 
0.0000000e+00 2.6365477e-05 0.0000000e+00 
0.0000000e+00 -2.2952923e-05 0.0000000e+00 
0.0000000e+00 -7.0924267e-05 0.0000000e+00 
0.0000000e+00 -5.5605092e-04 0.0000000e+00 
0.0000000e+00 -1.2375882e-03 0.0000000e+00 
0.0000000e+00 -1.0492858e-03 0.0000000e+00 
0.0000000e+00 -2.3570216e-04 0.0000000e+00 
0.0000000e+00 -4.8893999e-06 0.0000000e+00 
0.0000000e+00 -8.1451462e-06 0.0000000e+00 
0.0000000e+00 -2.7183025e-05 0.0000000e+00 
0.0000000e+00 -1.3946803e-05 0.0000000e+00 
0.0000000e+00 6.2565545e-05 0.0000000e+00 
0.0000000e+00 7.1745315e-05 0.0000000e+00 
0.0000000e+00 -4.7428251e-04 0.0000000e+00 
0.0000000e+00 -1.3073828e-03 0.0000000e+00 
0.0000000e+00 -1.1520642e-03 0.0000000e+00 
6.0187474e-05 -2.5384911e-04 6.5183929e-05 
2.1997799e-05 1.5122814e-06 -9.9377676e-06 
1.7049137e-05 5.7107893e-05 3.2432210e-06 
8.1359285e-06 7.4911266e-05 3.1445634e-05 
7.4427344e-06 4.3489115e-05 4.7047532e-05 
2.9682358e-05 -3.0301100e-05 6.2202751e-05 
9.6125416e-07 -2.2891008e-05 9.1523056e-05 
-3.2721288e-04 -5.3984340e-04 2.7702030e-04 
-7.1948895e-04 -1.3966091e-03 4.2706179e-05 
-5.8200792e-04 -1.3200869e-03 -1.7160115e-04 
-1.0994184e-04 -1.9353269e-04 -1.8384052e-04 
1.5596150e-05 5.9409922e-06 -4.6135028e-05 
-1.1265019e-05 -1.3753473e-05 -1.9345489e-05 
-2.2317272e-05 -2.6197662e-05 -1.5666896e-05 
-9.0035928e-06 -9.5447685e-06 -4.0588013e-05 
6.4306303e-05 4.4294913e-05 -1.9001916e-05 
5.0473238e-05 1.5823773e-04 6.4261476e-05 
-3.3443034e-04 -4.6803523e-04 3.7804633e-04 
-5.2029168e-04 -1.7571392e-03 1.4522992e-04 
-6.0911162e-04 -1.2750922e-03 -2.0210609e-04 
0.0000000e+00 -1.3898182e-06 0.0000000e+00 
0.0000000e+00 8.5875050e-05 0.0000000e+00 
0.0000000e+00 1.0158040e-04 0.0000000e+00 
0.0000000e+00 3.8242360e-05 0.0000000e+00 
0.0000000e+00 -3.7004844e-05 0.0000000e+00 
0.0000000e+00 -5.8192247e-05 0.0000000e+00 
0.0000000e+00 -1.0166714e-03 0.0000000e+00 
0.0000000e+00 -2.4059589e-03 0.0000000e+00 
0.0000000e+00 -2.0270140e-03 0.0000000e+00 
0.0000000e+00 -4.0891560e-04 0.0000000e+00 
0.0000000e+00 2.0740143e-05 0.0000000e+00 
0.0000000e+00 -5.3507874e-06 0.0000000e+00 
0.0000000e+00 -3.2623055e-05 0.0000000e+00 
0.0000000e+00 -3.1195512e-05 0.0000000e+00 
0.0000000e+00 8.4210944e-05 0.0000000e+00 
0.0000000e+00 1.6166053e-04 0.0000000e+00 
0.0000000e+00 -9.4499142e-04 0.0000000e+00 
0.0000000e+00 -2.4418887e-03 0.0000000e+00 
0.0000000e+00 -2.2629497e-03 0.0000000e+00 
5.6648596e-06 -1.6716036e-06 -1.1191579e-06 
-2.1909797e-07 1.0975184e-05 3.7779332e-06 
-1.2105004e-05 1.4471759e-05 1.1004403e-05 
-7.9055744e-06 1.0876729e-05 1.2132495e-05 
9.1804395e-06 -5.0476183e-06 1.3768054e-05 
2.1277960e-05 1.1235671e-05 1.5879325e-05 
5.4780376e-05 -6.3800275e-05 -7.2233775e-07 
5.5205772e-05 -1.0555901e-04 -1.4777643e-05 
4.2263535e-05 -8.0429301e-05 -3.5577386e-07 
3.7546244e-05 -4.0480008e-05 2.1408957e-06 
2.2033457e-06 2.3295506e-06 -1.0606332e-05 
-6.2641707e-06 -4.8469283e-06 -1.1501221e-05 
-1.3836914e-05 -8.8277020e-06 -5.1277125e-06 
-1.0245199e-05 -5.7778407e-06 -8.0833779e-06 
6.6250459e-06 1.6771706e-05 -2.9471466e-06 
1.6053349e-05 4.5693927e-05 8.4962676e-06 
4.5530160e-05 -2.9559038e-05 9.9719309e-06 
5.3556741e-05 -1.1589617e-04 1.5951617e-05 
-7.5750526e-05 -1.1500940e-03 7.6025397e-05 
0.0000000e+00 0.0000000e+00 0.0000000e+00 
0.0000000e+00 0.0000000e+00 0.0000000e+00 
0.0000000e+00 0.0000000e+00 0.0000000e+00 
0.0000000e+00 0.0000000e+00 0.0000000e+00 
0.0000000e+00 0.0000000e+00 0.0000000e+00 
0.0000000e+00 0.0000000e+00 0.0000000e+00 
0.0000000e+00 0.0000000e+00 0.0000000e+00 
0.0000000e+00 0.0000000e+00 0.0000000e+00 
0.0000000e+00 0.0000000e+00 0.0000000e+00 
0.0000000e+00 0.0000000e+00 0.0000000e+00 
0.0000000e+00 0.0000000e+00 0.0000000e+00 
0.0000000e+00 0.0000000e+00 0.0000000e+00 
0.0000000e+00 0.0000000e+00 0.0000000e+00 
0.0000000e+00 0.0000000e+00 0.0000000e+00 
0.0000000e+00 0.0000000e+00 0.0000000e+00 
0.0000000e+00 0.0000000e+00 0.0000000e+00 
0.0000000e+00 0.0000000e+00 0.0000000e+00 
0.0000000e+00 0.0000000e+00 0.0000000e+00 
0.0000000e+00 0.0000000e+00 0.0000000e+00 
0.0000000e+00 0.0000000e+00 0.0000000e+00 
0.0000000e+00 0.0000000e+00 0.0000000e+00 
0.0000000e+00 0.0000000e+00 0.0000000e+00 
0.0000000e+00 0.0000000e+00 0.0000000e+00 
0.0000000e+00 0.0000000e+00 0.0000000e+00 
0.0000000e+00 0.0000000e+00 0.0000000e+00 
0.0000000e+00 0.0000000e+00 0.0000000e+00 
0.0000000e+00 0.0000000e+00 0.0000000e+00 
0.0000000e+00 0.0000000e+00 0.0000000e+00 
0.0000000e+00 0.0000000e+00 0.0000000e+00 
0.0000000e+00 0.0000000e+00 0.0000000e+00 
0.0000000e+00 0.0000000e+00 0.0000000e+00 
0.0000000e+00 0.0000000e+00 0.0000000e+00 
0.0000000e+00 0.0000000e+00 0.0000000e+00 
0.0000000e+00 0.0000000e+00 0.0000000e+00 
0.0000000e+00 0.0000000e+00 0.0000000e+00 
0.0000000e+00 0.0000000e+00 0.0000000e+00 
0.0000000e+00 0.0000000e+00 0.0000000e+00 
0.0000000e+00 0.0000000e+00 0.0000000e+00 
0.0000000e+00 0.0000000e+00 0.0000000e+00 
0.0000000e+00 0.0000000e+00 0.0000000e+00 
0.0000000e+00 0.0000000e+00 0.0000000e+00 
0.0000000e+00 0.0000000e+00 0.0000000e+00 
1.1760503e-06 -7.9014598e-07 -2.5448073e-06 
1.1818328e-05 -7.3028250e-06 -5.8730466e-06 
2.8166605e-05 -1.0131599e-05 -3.3864249e-06 
1.2783483e-06 -1.1676398e-06 -7.6968672e-07 
7.6228775e-07 -3.3302322e-07 1.6912284e-06 
-2.9158084e-06 -6.8958315e-07 5.2533767e-07 
-3.8168073e-06 -2.6563592e-07 1.6810549e-07 
-2.7267356e-06 1.9832364e-06 -4.9931646e-07 