# vtk DataFile Version 4.0
vtk output
ASCII
DATASET UNSTRUCTURED_GRID
POINTS 662 float
0.0000000e+00 0.0000000e+00 0.0000000e+00 
0.0000000e+00 0.0000000e+00 4.0000000e+01 
5.0000000e+00 0.0000000e+00 0.0000000e+00 
5.0000000e+00 0.0000000e+00 4.0000000e+01 
5.0000000e+00 1.0000000e+00 0.0000000e+00 
5.0000000e+00 1.0000000e+00 4.0000000e+01 
0.0000000e+00 1.0000000e+00 0.0000000e+00 
0.0000000e+00 1.0000000e+00 4.0000000e+01 
5.0000000e+00 2.0000000e+00 0.0000000e+00 
5.0000000e+00 2.0000000e+00 4.0000000e+01 
3.0000000e+00 2.0000000e+00 0.0000000e+00 
3.0000000e+00 2.0000000e+00 4.0000000e+01 
0.0000000e+00 2.0000000e+00 0.0000000e+00 
0.0000000e+00 2.0000000e+00 4.0000000e+01 
1.5000000e+00 3.0000000e+00 0.0000000e+00 
1.5000000e+00 3.0000000e+00 4.0000000e+01 
7.5000000e-01 3.0000000e+00 0.0000000e+00 
7.5000000e-01 3.0000000e+00 4.0000000e+01 
0.0000000e+00 3.0000000e+00 0.0000000e+00 
0.0000000e+00 3.0000000e+00 4.0000000e+01 
7.5000000e-01 3.0000000e+00 5.0000000e-01 
7.5000000e-01 3.0000000e+00 1.0000000e+00 
7.5000000e-01 3.0000000e+00 1.5000000e+00 
7.5000000e-01 3.0000000e+00 2.0000000e+00 
7.5000000e-01 3.0000000e+00 2.5000000e+00 
7.5000000e-01 3.0000000e+00 3.0000000e+00 
7.5000000e-01 3.0000000e+00 3.5000000e+00 
7.5000000e-01 3.0000000e+00 4.0000000e+00 
7.5000000e-01 3.0000000e+00 4.5000000e+00 
7.5000000e-01 3.0000000e+00 5.0000000e+00 
7.5000000e-01 3.0000000e+00 5.5000000e+00 
7.5000000e-01 3.0000000e+00 6.0000000e+00 
7.5000000e-01 3.0000000e+00 6.5000000e+00 
7.5000000e-01 3.0000000e+00 7.0000000e+00 
7.5000000e-01 3.0000000e+00 7.5000000e+00 
7.5000000e-01 3.0000000e+00 8.0000000e+00 
7.5000000e-01 3.0000000e+00 8.5000000e+00 
7.5000000e-01 3.0000000e+00 9.0000000e+00 
7.5000000e-01 3.0000000e+00 9.5000000e+00 
7.5000000e-01 3.0000000e+00 1.0000000e+01 
7.5000000e-01 3.0000000e+00 1.0500000e+01 
7.5000000e-01 3.0000000e+00 1.1000000e+01 
7.5000000e-01 3.0000000e+00 1.1500000e+01 
7.5000000e-01 3.0000000e+00 1.2000000e+01 
7.5000000e-01 3.0000000e+00 1.2500000e+01 
7.5000000e-01 3.0000000e+00 1.3000000e+01 
7.5000000e-01 3.0000000e+00 1.3500000e+01 
7.5000000e-01 3.0000000e+00 1.4000000e+01 
7.5000000e-01 3.0000000e+00 1.4500000e+01 
7.5000000e-01 3.0000000e+00 1.5000000e+01 
7.5000000e-01 3.0000000e+00 1.5500000e+01 
7.5000000e-01 3.0000000e+00 1.6000000e+01 
7.5000000e-01 3.0000000e+00 1.6500000e+01 
7.5000000e-01 3.0000000e+00 1.7000000e+01 
7.5000000e-01 3.0000000e+00 1.7500000e+01 
7.5000000e-01 3.0000000e+00 1.8000000e+01 
7.5000000e-01 3.0000000e+00 1.8500000e+01 
7.5000000e-01 3.0000000e+00 1.9000000e+01 
7.5000000e-01 3.0000000e+00 1.9500000e+01 
7.5000000e-01 3.0000000e+00 2.0000000e+01 
7.5000000e-01 3.0000000e+00 2.0500000e+01 
7.5000000e-01 3.0000000e+00 2.1000000e+01 
7.5000000e-01 3.0000000e+00 2.1500000e+01 
7.5000000e-01 3.0000000e+00 2.2000000e+01 
7.5000000e-01 3.0000000e+00 2.2500000e+01 
7.5000000e-01 3.0000000e+00 2.3000000e+01 
7.5000000e-01 3.0000000e+00 2.3500000e+01 
7.5000000e-01 3.0000000e+00 2.4000000e+01 
7.5000000e-01 3.0000000e+00 2.4500000e+01 
7.5000000e-01 3.0000000e+00 2.5000000e+01 
7.5000000e-01 3.0000000e+00 2.5500000e+01 
7.5000000e-01 3.0000000e+00 2.6000000e+01 
7.5000000e-01 3.0000000e+00 2.6500000e+01 
7.5000000e-01 3.0000000e+00 2.7000000e+01 
7.5000000e-01 3.0000000e+00 2.7500000e+01 
7.5000000e-01 3.0000000e+00 2.8000000e+01 
7.5000000e-01 3.0000000e+00 2.8500000e+01 
7.5000000e-01 3.0000000e+00 2.9000000e+01 
7.5000000e-01 3.0000000e+00 2.9500000e+01 
7.5000000e-01 3.0000000e+00 3.0000000e+01 
7.5000000e-01 3.0000000e+00 3.0500000e+01 
7.5000000e-01 3.0000000e+00 3.1000000e+01 
7.5000000e-01 3.0000000e+00 3.1500000e+01 
7.5000000e-01 3.0000000e+00 3.2000000e+01 
7.5000000e-01 3.0000000e+00 3.2500000e+01 
7.5000000e-01 3.0000000e+00 3.3000000e+01 
7.5000000e-01 3.0000000e+00 3.3500000e+01 
7.5000000e-01 3.0000000e+00 3.4000000e+01 
7.5000000e-01 3.0000000e+00 3.4500000e+01 
7.5000000e-01 3.0000000e+00 3.5000000e+01 
7.5000000e-01 3.0000000e+00 3.5500000e+01 
7.5000000e-01 3.0000000e+00 3.6000000e+01 
7.5000000e-01 3.0000000e+00 3.6500000e+01 
7.5000000e-01 3.0000000e+00 3.7000000e+01 
7.5000000e-01 3.0000000e+00 3.7500000e+01 
7.5000000e-01 3.0000000e+00 3.8000000e+01 
7.5000000e-01 3.0000000e+00 3.8500000e+01 
7.5000000e-01 3.0000000e+00 3.9000000e+01 
7.5000000e-01 3.0000000e+00 3.9500000e+01 
7.5000000e-01 3.0000000e+00 4.0500000e+01 
7.5000000e-01 3.0000000e+00 4.1000000e+01 
7.5000000e-01 3.0000000e+00 4.1500000e+01 
7.5000000e-01 3.0000000e+00 4.2000000e+01 
7.5000000e-01 3.0000000e+00 4.2500000e+01 
7.5000000e-01 3.0000000e+00 4.3000000e+01 
7.5000000e-01 3.0000000e+00 4.3500000e+01 
7.5000000e-01 3.0000000e+00 4.4000000e+01 
7.5000000e-01 3.0000000e+00 4.4500000e+01 
7.5000000e-01 3.0000000e+00 4.5000000e+01 
7.5000000e-01 3.0000000e+00 4.5500000e+01 
7.5000000e-01 3.0000000e+00 4.6000000e+01 
7.5000000e-01 3.0000000e+00 4.6500000e+01 
7.5000000e-01 3.0000000e+00 4.7000000e+01 
7.5000000e-01 3.0000000e+00 4.7500000e+01 
7.5000000e-01 3.0000000e+00 4.8000000e+01 
7.5000000e-01 3.0000000e+00 4.8500000e+01 
7.5000000e-01 3.0000000e+00 4.9000000e+01 
7.5000000e-01 3.0000000e+00 4.9500000e+01 
7.5000000e-01 3.0000000e+00 5.0000000e+01 
7.5000000e-01 3.0250001e+00 0.0000000e+00 
7.5000000e-01 3.0250001e+00 5.0000000e-01 
7.5000000e-01 3.0250001e+00 1.0000000e+00 
7.5000000e-01 3.0250001e+00 1.5000000e+00 
7.5000000e-01 3.0250001e+00 2.0000000e+00 
7.5000000e-01 3.0250001e+00 2.5000000e+00 
7.5000000e-01 3.0250001e+00 3.0000000e+00 
7.5000000e-01 3.0250001e+00 3.5000000e+00 
7.5000000e-01 3.0250001e+00 4.0000000e+00 
7.5000000e-01 3.0250001e+00 4.5000000e+00 
7.5000000e-01 3.0250001e+00 5.0000000e+00 
7.5000000e-01 3.0250001e+00 5.5000000e+00 
7.5000000e-01 3.0250001e+00 6.0000000e+00 
7.5000000e-01 3.0250001e+00 6.5000000e+00 
7.5000000e-01 3.0250001e+00 7.0000000e+00 
7.5000000e-01 3.0250001e+00 7.5000000e+00 
7.5000000e-01 3.0250001e+00 8.0000000e+00 
7.5000000e-01 3.0250001e+00 8.5000000e+00 
7.5000000e-01 3.0250001e+00 9.0000000e+00 
7.5000000e-01 3.0250001e+00 9.5000000e+00 
7.5000000e-01 3.0250001e+00 1.0000000e+01 
7.5000000e-01 3.0250001e+00 1.0500000e+01 
7.5000000e-01 3.0250001e+00 1.1000000e+01 
7.5000000e-01 3.0250001e+00 1.1500000e+01 
7.5000000e-01 3.0250001e+00 1.2000000e+01 
7.5000000e-01 3.0250001e+00 1.2500000e+01 
7.5000000e-01 3.0250001e+00 1.3000000e+01 
7.5000000e-01 3.0250001e+00 1.3500000e+01 
7.5000000e-01 3.0250001e+00 1.4000000e+01 
7.5000000e-01 3.0250001e+00 1.4500000e+01 
7.5000000e-01 3.0250001e+00 1.5000000e+01 
7.5000000e-01 3.0250001e+00 1.5500000e+01 
7.5000000e-01 3.0250001e+00 1.6000000e+01 
7.5000000e-01 3.0250001e+00 1.6500000e+01 
7.5000000e-01 3.0250001e+00 1.7000000e+01 
7.5000000e-01 3.0250001e+00 1.7500000e+01 
7.5000000e-01 3.0250001e+00 1.8000000e+01 
7.5000000e-01 3.0250001e+00 1.8500000e+01 
7.5000000e-01 3.0250001e+00 1.9000000e+01 
7.5000000e-01 3.0250001e+00 1.9500000e+01 
7.5000000e-01 3.0250001e+00 2.0000000e+01 
7.5000000e-01 3.0250001e+00 2.0500000e+01 
7.5000000e-01 3.0250001e+00 2.1000000e+01 
7.5000000e-01 3.0250001e+00 2.1500000e+01 
7.5000000e-01 3.0250001e+00 2.2000000e+01 
7.5000000e-01 3.0250001e+00 2.2500000e+01 
7.5000000e-01 3.0250001e+00 2.3000000e+01 
7.5000000e-01 3.0250001e+00 2.3500000e+01 
7.5000000e-01 3.0250001e+00 2.4000000e+01 
7.5000000e-01 3.0250001e+00 2.4500000e+01 
7.5000000e-01 3.0250001e+00 2.5000000e+01 
7.5000000e-01 3.0250001e+00 2.5500000e+01 
7.5000000e-01 3.0250001e+00 2.6000000e+01 
7.5000000e-01 3.0250001e+00 2.6500000e+01 
7.5000000e-01 3.0250001e+00 2.7000000e+01 
7.5000000e-01 3.0250001e+00 2.7500000e+01 
7.5000000e-01 3.0250001e+00 2.8000000e+01 
7.5000000e-01 3.0250001e+00 2.8500000e+01 
7.5000000e-01 3.0250001e+00 2.9000000e+01 
7.5000000e-01 3.0250001e+00 2.9500000e+01 
7.5000000e-01 3.0250001e+00 3.0000000e+01 
7.5000000e-01 3.0250001e+00 3.0500000e+01 
7.5000000e-01 3.0250001e+00 3.1000000e+01 
7.5000000e-01 3.0250001e+00 3.1500000e+01 
7.5000000e-01 3.0250001e+00 3.2000000e+01 
7.5000000e-01 3.0250001e+00 3.2500000e+01 
7.5000000e-01 3.0250001e+00 3.3000000e+01 
7.5000000e-01 3.0250001e+00 3.3500000e+01 
7.5000000e-01 3.0250001e+00 3.4000000e+01 
7.5000000e-01 3.0250001e+00 3.4500000e+01 
7.5000000e-01 3.0250001e+00 3.5000000e+01 
7.5000000e-01 3.0250001e+00 3.5500000e+01 
7.5000000e-01 3.0250001e+00 3.6000000e+01 
7.5000000e-01 3.0250001e+00 3.6500000e+01 
7.5000000e-01 3.0250001e+00 3.7000000e+01 
7.5000000e-01 3.0250001e+00 3.7500000e+01 
7.5000000e-01 3.0250001e+00 3.8000000e+01 
7.5000000e-01 3.0250001e+00 3.8500000e+01 
7.5000000e-01 3.0250001e+00 3.9000000e+01 
7.5000000e-01 3.0250001e+00 3.9500000e+01 
7.5000000e-01 3.0250001e+00 4.0000000e+01 
7.5000000e-01 3.0250001e+00 4.0500000e+01 
7.5000000e-01 3.0250001e+00 4.1000000e+01 
7.5000000e-01 3.0250001e+00 4.1500000e+01 
7.5000000e-01 3.0250001e+00 4.2000000e+01 
7.5000000e-01 3.0250001e+00 4.2500000e+01 
7.5000000e-01 3.0250001e+00 4.3000000e+01 
7.5000000e-01 3.0250001e+00 4.3500000e+01 
7.5000000e-01 3.0250001e+00 4.4000000e+01 
7.5000000e-01 3.0250001e+00 4.4500000e+01 
7.5000000e-01 3.0250001e+00 4.5000000e+01 
7.5000000e-01 3.0250001e+00 4.5500000e+01 
7.5000000e-01 3.0250001e+00 4.6000000e+01 
7.5000000e-01 3.0250001e+00 4.6500000e+01 
7.5000000e-01 3.0250001e+00 4.7000000e+01 
7.5000000e-01 3.0250001e+00 4.7500000e+01 
7.5000000e-01 3.0250001e+00 4.8000000e+01 
7.5000000e-01 3.0250001e+00 4.8500000e+01 
7.5000000e-01 3.0250001e+00 4.9000000e+01 
7.5000000e-01 3.0250001e+00 4.9500000e+01 
7.5000000e-01 3.0250001e+00 5.0000000e+01 
7.5000000e-01 3.0250001e+00 3.5750000e+01 
3.0000000e+00 2.0000000e+00 3.6000000e+01 
8.0487806e-01 3.0000000e+00 3.6000000e+01 
0.0000000e+00 0.0000000e+00 2.0000000e+00 
0.0000000e+00 0.0000000e+00 4.0000000e+00 
0.0000000e+00 0.0000000e+00 6.0000000e+00 
0.0000000e+00 0.0000000e+00 8.0000000e+00 
0.0000000e+00 0.0000000e+00 1.0000000e+01 
0.0000000e+00 0.0000000e+00 1.2000000e+01 
0.0000000e+00 0.0000000e+00 1.4000000e+01 
[...]
POINT_DATA 662
FIELD FieldData 3
DISPLACEMENT 3 662  float
0.0000000e+00 0.0000000e+00 0.0000000e+00 
0.0000000e+00 0.0000000e+00 0.0000000e+00 
0.0000000e+00 0.0000000e+00 0.0000000e+00 
0.0000000e+00 0.0000000e+00 0.0000000e+00 
-1.5638536e-05 -5.5057417e-06 -2.1784049e-06 
5.0712509e-07 -1.3673064e-06 1.4153345e-06 
0.0000000e+00 1.1512539e-04 0.0000000e+00 
0.0000000e+00 -1.4176119e-05 0.0000000e+00 
5.8798505e-06 -1.4170256e-06 -2.0313766e-05 
-1.0759296e-06 -1.3000021e-06 -1.4049839e-06 
-7.7872764e-06 1.0265883e-05 -9.5787891e-06 
-1.5210730e-06 -4.3364043e-06 -4.0233958e-06 
0.0000000e+00 1.4630088e-04 0.0000000e+00 
0.0000000e+00 -2.2100552e-05 0.0000000e+00 
-4.5647671e-06 6.5473469e-05 3.6799262e-05 
-6.7470637e-06 -1.3367197e-05 -3.7066606e-05 
4.7468475e-05 6.5069813e-05 -1.4354910e-05 
1.9488928e-06 -3.4764493e-05 -5.4667009e-05 
0.0000000e+00 2.0361431e-04 0.0000000e+00 
0.0000000e+00 -2.4983716e-05 0.0000000e+00 
6.8280635e-05 6.5763234e-05 -3.0011801e-05 
-1.0002292e-05 6.8653855e-05 8.9916657e-06 
-3.4555846e-06 6.5607623e-05 6.6100506e-06 
2.3168717e-05 7.6106786e-05 -3.8865810e-06 
5.0933435e-05 1.0665818e-04 -2.6103537e-05 
7.9017009e-05 1.4455244e-04 -4.4887212e-05 
5.1252164e-06 1.8880023e-04 6.2711144e-05 
8.3542418e-06 1.5506471e-04 5.5021723e-05 
-1.9935733e-05 8.9198438e-06 9.0040397e-05 
-1.1289493e-05 -2.3376515e-04 1.0568423e-04 
-7.6258853e-05 -6.0933776e-04 1.2844575e-04 
-7.9582664e-05 -1.1842898e-03 1.4047466e-04 
-1.6334398e-04 -2.0547439e-03 2.6030978e-04 
-1.9591792e-04 -3.0927726e-03 2.9946631e-04 
-9.6282434e-05 -3.9832229e-03 2.4602190e-04 
-1.1989650e-04 -4.0706163e-03 2.4305274e-04 
-2.4622749e-04 -3.8731385e-03 1.6645095e-04 
-3.3335463e-04 -3.8252363e-03 1.1946301e-04 
-2.0414074e-04 -4.1155233e-03 6.0561251e-05 
-4.5173172e-05 -4.2226478e-03 -1.9308965e-05 
-1.0936954e-04 -3.5865230e-03 -1.4893746e-04 
-2.3652140e-04 -2.5673790e-03 -2.2365894e-04 
-2.2897552e-04 -1.6402396e-03 -2.4936421e-04 
-9.3432107e-05 -9.1513363e-04 -2.1100645e-04 
-2.5200172e-05 -4.2865082e-04 -2.2523609e-04 
2.0802410e-05 -1.1108161e-04 -1.7228071e-04 
2.8980205e-05 8.9097950e-05 -1.3456354e-04 
4.7039106e-05 1.9104494e-04 -1.1103869e-04 
2.2494662e-05 2.0838360e-04 -1.2796692e-04 
-5.3297549e-06 1.7830437e-04 -1.0928130e-04 
-1.0761550e-05 1.3580012e-04 -1.0103244e-04 
-1.6079089e-06 9.5887044e-05 -9.9026860e-05 
2.9664954e-05 6.1141604e-05 -3.4412995e-05 
8.3680345e-05 2.4393024e-05 1.4814204e-06 
2.6170634e-05 -2.5228052e-05 3.6024394e-05 
-4.1563617e-06 -7.1730450e-05 8.7467030e-05 
-3.4347097e-05 -1.0395380e-04 7.5404816e-05 
-6.4243308e-05 -1.1408047e-04 7.6184142e-06 
-6.9210633e-05 -1.0999056e-04 -3.0385781e-06 
-9.4923096e-05 -8.3303130e-05 -2.5322703e-05 
7.8247365e-05 -3.8592068e-05 -9.2572198e-05 
8.8017579e-05 2.0802929e-06 -8.8048924e-05 
1.1213458e-04 3.8695238e-05 -8.9446505e-05 
-2.8633945e-05 5.9743554e-05 -1.1941511e-04 
-4.4724436e-07 8.4639076e-05 -2.4082865e-05 
9.7721866e-05 1.3790239e-04 4.1254752e-05 
2.7809212e-05 2.1738214e-04 5.1975960e-05 
6.0399121e-05 2.3545026e-04 1.0585566e-04 
3.4781791e-05 9.6804921e-05 1.0828281e-04 
3.9568073e-05 -2.2267921e-04 1.1357848e-04 
1.5644529e-06 -7.4534735e-04 1.3880567e-04 
-8.7916364e-05 -1.4163085e-03 1.1539544e-04 
-2.0723767e-04 -2.2433037e-03 2.3095019e-04 
-2.6112358e-04 -3.1242224e-03 2.7059281e-04 
-1.0585522e-04 -3.8265367e-03 2.3352304e-04 
-6.9382899e-05 -3.8620916e-03 2.2144664e-04 
-2.1210415e-04 -3.7359113e-03 1.7581639e-04 
-2.5514085e-04 -3.7565331e-03 1.2271850e-04 
-1.6887007e-04 -4.0014554e-03 8.9831170e-05 
-4.4764736e-05 -3.9678160e-03 7.8293873e-05 
-1.1159353e-04 -3.2600625e-03 -5.9893282e-05 
-2.2938185e-04 -2.2737298e-03 -1.3345057e-04 
-2.2605312e-04 -1.4395296e-03 -1.7003562e-04 
-1.0943570e-04 -8.1191026e-04 -1.6574835e-04 
-6.8536749e-05 -3.9341848e-04 -2.2103360e-04 
-4.9966395e-05 -1.3645247e-04 -2.0532723e-04 
-3.6030953e-05 -5.3034664e-06 -2.1223190e-04 
-1.1738781e-05 4.8880622e-05 -2.0681033e-04 
2.1468144e-05 7.3070878e-05 -1.5140313e-04 
4.6752601e-05 9.0143170e-05 -8.4606800e-05 
4.1232684e-05 9.9100333e-05 -3.4072378e-05 
2.8194359e-05 9.2613969e-05 2.0827425e-05 
2.9468996e-05 7.1689312e-05 5.7146197e-05 
2.3228265e-05 4.5395529e-05 7.8543824e-05 
7.7573195e-06 1.7923514e-05 9.8919401e-05 
-5.8741093e-06 -7.8732764e-06 9.2948678e-05 
-1.4124900e-05 -2.8360111e-05 6.9606453e-05 
-2.0350693e-05 -3.9199484e-05 3.7282378e-05 
-1.3638833e-05 -3.9860788e-05 2.4007252e-06 
0.0000000e+00 -2.7931721e-05 0.0000000e+00 
0.0000000e+00 -1.8447314e-05 0.0000000e+00 
0.0000000e+00 -4.8061243e-06 0.0000000e+00 
0.0000000e+00 1.2204055e-05 0.0000000e+00 
0.0000000e+00 2.8451386e-05 0.0000000e+00 
0.0000000e+00 3.9024540e-05 0.0000000e+00 
0.0000000e+00 4.1306390e-05 0.0000000e+00 
0.0000000e+00 3.5511748e-05 0.0000000e+00 
0.0000000e+00 2.3094812e-05 0.0000000e+00 
0.0000000e+00 5.6934296e-06 0.0000000e+00 
0.0000000e+00 -1.4226068e-05 0.0000000e+00 
0.0000000e+00 -3.2596057e-05 0.0000000e+00 
0.0000000e+00 -4.4649918e-05 0.0000000e+00 
0.0000000e+00 -4.7022662e-05 0.0000000e+00 
0.0000000e+00 -3.9058152e-05 0.0000000e+00 
0.0000000e+00 -2.2477465e-05 0.0000000e+00 
0.0000000e+00 -5.3124660e-07 0.0000000e+00 
0.0000000e+00 2.2197924e-05 0.0000000e+00 
0.0000000e+00 3.9884388e-05 0.0000000e+00 
0.0000000e+00 4.6746052e-05 0.0000000e+00 
0.0000000e+00 6.5446664e-05 0.0000000e+00 
0.0000000e+00 6.6197746e-05 0.0000000e+00 
0.0000000e+00 6.6914123e-05 0.0000000e+00 
0.0000000e+00 6.5361106e-05 0.0000000e+00 
0.0000000e+00 7.6373224e-05 0.0000000e+00 
0.0000000e+00 1.0655025e-04 0.0000000e+00 
0.0000000e+00 1.4960112e-04 0.0000000e+00 
0.0000000e+00 1.8700118e-04 0.0000000e+00 
0.0000000e+00 1.5206565e-04 0.0000000e+00 
0.0000000e+00 1.0518104e-05 0.0000000e+00 
0.0000000e+00 -2.3302296e-04 0.0000000e+00 
0.0000000e+00 -6.0757907e-04 0.0000000e+00 
0.0000000e+00 -1.1932057e-03 0.0000000e+00 
0.0000000e+00 -2.0647401e-03 0.0000000e+00 
0.0000000e+00 -3.1309235e-03 0.0000000e+00 
0.0000000e+00 -4.0048775e-03 0.0000000e+00 
0.0000000e+00 -4.0948307e-03 0.0000000e+00 
0.0000000e+00 -3.8865083e-03 0.0000000e+00 
0.0000000e+00 -3.8601446e-03 0.0000000e+00 
0.0000000e+00 -4.1386788e-03 0.0000000e+00 
0.0000000e+00 -4.2561376e-03 0.0000000e+00 
0.0000000e+00 -3.6032838e-03 0.0000000e+00 
0.0000000e+00 -2.5860716e-03 0.0000000e+00 
0.0000000e+00 -1.6438296e-03 0.0000000e+00 
0.0000000e+00 -9.1928401e-04 0.0000000e+00 
0.0000000e+00 -4.2765270e-04 0.0000000e+00 
0.0000000e+00 -1.0953090e-04 0.0000000e+00 
0.0000000e+00 8.9473862e-05 0.0000000e+00 
0.0000000e+00 1.9039253e-04 0.0000000e+00 
0.0000000e+00 2.0866004e-04 0.0000000e+00 
0.0000000e+00 1.7893413e-04 0.0000000e+00 
0.0000000e+00 1.3613550e-04 0.0000000e+00 
0.0000000e+00 9.6719821e-05 0.0000000e+00 
0.0000000e+00 6.1620849e-05 0.0000000e+00 
0.0000000e+00 2.2848619e-05 0.0000000e+00 
0.0000000e+00 -2.5194488e-05 0.0000000e+00 
0.0000000e+00 -7.1520939e-05 0.0000000e+00 
0.0000000e+00 -1.0334174e-04 0.0000000e+00 
0.0000000e+00 -1.1508200e-04 0.0000000e+00 
0.0000000e+00 -1.0962920e-04 0.0000000e+00 
0.0000000e+00 -8.2525359e-05 0.0000000e+00 
0.0000000e+00 -3.9397564e-05 0.0000000e+00 
0.0000000e+00 3.0072522e-06 0.0000000e+00 
0.0000000e+00 3.6883455e-05 0.0000000e+00 
0.0000000e+00 5.8622816e-05 0.0000000e+00 
0.0000000e+00 8.5766165e-05 0.0000000e+00 
0.0000000e+00 1.4214475e-04 0.0000000e+00 
0.0000000e+00 2.1870107e-04 0.0000000e+00 
0.0000000e+00 2.3297883e-04 0.0000000e+00 
0.0000000e+00 9.6099924e-05 0.0000000e+00 
0.0000000e+00 -2.2780769e-04 0.0000000e+00 
0.0000000e+00 -7.4317161e-04 0.0000000e+00 
0.0000000e+00 -1.4205852e-03 0.0000000e+00 
0.0000000e+00 -2.2521464e-03 0.0000000e+00 
0.0000000e+00 -3.1617859e-03 0.0000000e+00 
0.0000000e+00 -3.8509027e-03 0.0000000e+00 
0.0000000e+00 -3.8903418e-03 0.0000000e+00 
0.0000000e+00 -3.7484178e-03 0.0000000e+00 
0.0000000e+00 -3.7863411e-03 0.0000000e+00 
0.0000000e+00 -4.0221238e-03 0.0000000e+00 
0.0000000e+00 -4.0020193e-03 0.0000000e+00 
0.0000000e+00 -3.2777984e-03 0.0000000e+00 
0.0000000e+00 -2.2915159e-03 0.0000000e+00 
0.0000000e+00 -1.4415177e-03 0.0000000e+00 
0.0000000e+00 -8.1385759e-04 0.0000000e+00 
0.0000000e+00 -3.9310864e-04 0.0000000e+00 
0.0000000e+00 -1.3693440e-04 0.0000000e+00 
0.0000000e+00 -4.8723259e-06 0.0000000e+00 
0.0000000e+00 5.0336261e-05 0.0000000e+00 
0.0000000e+00 7.4136500e-05 0.0000000e+00 
0.0000000e+00 9.0204805e-05 0.0000000e+00 
0.0000000e+00 9.8711644e-05 0.0000000e+00 
0.0000000e+00 9.2359871e-05 0.0000000e+00 
0.0000000e+00 7.1937626e-05 0.0000000e+00 
0.0000000e+00 4.5395434e-05 0.0000000e+00 
0.0000000e+00 1.7874745e-05 0.0000000e+00 
0.0000000e+00 -7.8056655e-06 0.0000000e+00 
0.0000000e+00 -2.8108607e-05 0.0000000e+00 
0.0000000e+00 -3.9033945e-05 0.0000000e+00 
0.0000000e+00 -3.9991228e-05 0.0000000e+00 
0.0000000e+00 -3.5036424e-05 0.0000000e+00 
0.0000000e+00 -2.7905004e-05 0.0000000e+00 
0.0000000e+00 -1.8279339e-05 0.0000000e+00 
0.0000000e+00 -4.6562213e-06 0.0000000e+00 
0.0000000e+00 1.2195990e-05 0.0000000e+00 
0.0000000e+00 2.8319415e-05 0.0000000e+00 
0.0000000e+00 3.8908678e-05 0.0000000e+00 
0.0000000e+00 4.1275111e-05 0.0000000e+00 
0.0000000e+00 3.5505520e-05 0.0000000e+00 
0.0000000e+00 2.3039966e-05 0.0000000e+00 
0.0000000e+00 5.6160106e-06 0.0000000e+00 
0.0000000e+00 -1.4235166e-05 0.0000000e+00 
0.0000000e+00 -3.2504700e-05 0.0000000e+00 
0.0000000e+00 -4.4526376e-05 0.0000000e+00 
0.0000000e+00 -4.6945694e-05 0.0000000e+00 
0.0000000e+00 -3.9023540e-05 0.0000000e+00 
0.0000000e+00 -2.2426853e-05 0.0000000e+00 
0.0000000e+00 -4.5831729e-07 0.0000000e+00 
0.0000000e+00 2.2215689e-05 0.0000000e+00 
0.0000000e+00 3.9781567e-05 0.0000000e+00 
0.0000000e+00 4.6574922e-05 0.0000000e+00 
0.0000000e+00 9.7707976e-05 0.0000000e+00 
5.5657365e-06 3.0947558e-05 3.5565242e-06 
2.8793727e-05 9.5103947e-05 1.9557130e-05 
0.0000000e+00 0.0000000e+00 0.0000000e+00 
0.0000000e+00 0.0000000e+00 0.0000000e+00 
0.0000000e+00 0.0000000e+00 0.0000000e+00 
0.0000000e+00 0.0000000e+00 0.0000000e+00 
0.0000000e+00 0.0000000e+00 0.0000000e+00 
0.0000000e+00 0.0000000e+00 0.0000000e+00 
0.0000000e+00 0.0000000e+00 0.0000000e+00 
0.0000000e+00 0.0000000e+00 0.0000000e+00 
0.0000000e+00 0.0000000e+00 0.0000000e+00 
0.0000000e+00 0.0000000e+00 0.0000000e+00 
0.0000000e+00 0.0000000e+00 0.0000000e+00 
0.0000000e+00 0.0000000e+00 0.0000000e+00 
0.0000000e+00 0.0000000e+00 0.0000000e+00 
0.0000000e+00 0.0000000e+00 0.0000000e+00 
0.0000000e+00 0.0000000e+00 0.0000000e+00 
0.0000000e+00 0.0000000e+00 0.0000000e+00 
0.0000000e+00 0.0000000e+00 0.0000000e+00 
0.0000000e+00 0.0000000e+00 0.0000000e+00 
0.0000000e+00 0.0000000e+00 0.0000000e+00 
0.0000000e+00 0.0000000e+00 0.0000000e+00 
0.0000000e+00 0.0000000e+00 0.0000000e+00 
0.0000000e+00 0.0000000e+00 0.0000000e+00 
0.0000000e+00 0.0000000e+00 0.0000000e+00 
0.0000000e+00 0.0000000e+00 0.0000000e+00 
0.0000000e+00 0.0000000e+00 0.0000000e+00 
0.0000000e+00 0.0000000e+00 0.0000000e+00 
0.0000000e+00 0.0000000e+00 0.0000000e+00 
0.0000000e+00 0.0000000e+00 0.0000000e+00 
0.0000000e+00 0.0000000e+00 0.0000000e+00 
0.0000000e+00 0.0000000e+00 0.0000000e+00 
0.0000000e+00 0.0000000e+00 0.0000000e+00 
0.0000000e+00 0.0000000e+00 0.0000000e+00 
0.0000000e+00 0.0000000e+00 0.0000000e+00 
0.0000000e+00 0.0000000e+00 0.0000000e+00 
0.0000000e+00 0.0000000e+00 0.0000000e+00 
0.0000000e+00 0.0000000e+00 0.0000000e+00 
0.0000000e+00 0.0000000e+00 0.0000000e+00 
0.0000000e+00 0.0000000e+00 0.0000000e+00 
0.0000000e+00 0.0000000e+00 0.0000000e+00 
0.0000000e+00 0.0000000e+00 0.0000000e+00 
0.0000000e+00 0.0000000e+00 0.0000000e+00 
0.0000000e+00 0.0000000e+00 0.0000000e+00 
3.4634256e-06 1.2544036e-05 -1.7792019e-05 
9.3562212e-06 1.5017840e-05 -8.4355588e-06 
2.6515478e-05 1.9573512e-05 -1.9065583e-05 
4.1599294e-05 -1.6233840e-05 -8.6909913e-06 
4.6598678e-05 -2.1954264e-05 1.3799983e-05 
1.1784608e-05 -1.1011842e-05 4.5612851e-06 
-6.6045914e-06 1.5324249e-06 -1.2530359e-05 
-4.3461055e-06 1.6477907e-05 1.5293339e-05 
-3.1347652e-06 1.9043608e-05 1.5363711e-06 
-2.2762817e-06 3.9626844e-05 -3.2378555e-06 
-3.9670849e-06 5.2649033e-05 3.1069624e-06 
2.0461503e-06 2.2129625e-05 -2.4490550e-06 
2.0682493e-05 1.1059551e-05 -1.0066710e-05 
3.5185865e-05 -6.7281644e-06 2.3120410e-06 
3.8730232e-05 -2.0448060e-05 -2.4246904e-06 
1.9153385e-05 -1.0575270e-05 -2.3490095e-07 
6.7601195e-06 6.4675173e-06 7.3610508e-06 
-3.4982784e-06 6.0114312e-06 3.1517386e-06 
1.0867421e-06 -2.5358336e-06 6.4474733e-07 
0.0000000e+00 1.8626527e-04 0.0000000e+00 
0.0000000e+00 8.7612185e-05 0.0000000e+00 
0.0000000e+00 -9.7384136e-06 0.0000000e+00 
0.0000000e+00 -4.8729536e-04 0.0000000e+00 
0.0000000e+00 -5.3886970e-04 0.0000000e+00 
0.0000000e+00 -2.5891716e-04 0.0000000e+00 
0.0000000e+00 3.2684711e-05 0.0000000e+00 
0.0000000e+00 9.2960072e-05 0.0000000e+00 
0.0000000e+00 1.0748470e-04 0.0000000e+00 
0.0000000e+00 1.6839572e-04 0.0000000e+00 
0.0000000e+00 1.9001651e-04 0.0000000e+00 
0.0000000e+00 1.8475219e-04 0.0000000e+00 
0.0000000e+00 -4.9522478e-05 0.0000000e+00 
0.0000000e+00 -4.5989692e-04 0.0000000e+00 
0.0000000e+00 -5.1997596e-04 0.0000000e+00 
0.0000000e+00 -1.9386077e-04 0.0000000e+00 
0.0000000e+00 5.7662633e-06 0.0000000e+00 
0.0000000e+00 5.2068241e-05 0.0000000e+00 
0.0000000e+00 -1.3783662e-05 0.0000000e+00 
2.0602142e-06 1.1684650e-05 -8.8680044e-06 
-8.5559222e-06 1.6580545e-05 3.2364831e-06 
4.1463633e-09 -2.0260040e-06 -2.2256986e-06 
1.4231672e-06 -9.8733844e-06 3.9088636e-06 
-1.3692286e-05 2.2691722e-05 -1.7620532e-05 
1.8028715e-05 2.8810668e-05 -2.2575588e-05 
3.2710293e-05 3.6277175e-05 -1.1116441e-05 
4.8835118e-05 -6.3304296e-06 1.9892066e-06 
4.0933814e-05 -2.9560282e-05 2.1319698e-05 
3.2537373e-06 -8.8596807e-06 -1.1846169e-05 
4.1058406e-06 -2.0798058e-07 -3.2085827e-05 
1.7485838e-05 1.2453527e-05 1.6889466e-05 
1.1880517e-05 2.3200728e-05 2.4430778e-06 
-5.3031940e-06 5.4135195e-05 -5.2226105e-06 
2.9593724e-07 6.7591784e-05 -1.1859292e-05 
3.2450083e-05 3.3724355e-05 3.4665345e-06 
4.3440952e-05 1.5485279e-05 8.2732158e-06 
3.7709859e-05 -8.6806522e-06 1.7585351e-05 
2.5016083e-05 -2.1407035e-05 7.7828963e-07 
2.6523492e-06 -9.6689282e-06 -1.2942223e-05 
6.3355064e-06 6.5514560e-06 -3.7441946e-06 
1.0453225e-06 4.9492151e-06 5.1006123e-06 
2.0181876e-06 -1.4524110e-06 4.2544366e-06 
1.7005317e-05 5.3808537e-05 -1.6189806e-05 
0.0000000e+00 2.8505083e-04 0.0000000e+00 
0.0000000e+00 2.4028739e-04 0.0000000e+00 
0.0000000e+00 -2.1211863e-04 0.0000000e+00 
0.0000000e+00 -1.1115395e-03 0.0000000e+00 
0.0000000e+00 -1.1755694e-03 0.0000000e+00 
0.0000000e+00 -4.5162337e-04 0.0000000e+00 
0.0000000e+00 8.0350503e-05 0.0000000e+00 
0.0000000e+00 1.5535505e-04 0.0000000e+00 
0.0000000e+00 9.9118042e-05 0.0000000e+00 
0.0000000e+00 1.7950195e-04 0.0000000e+00 
0.0000000e+00 3.6146876e-04 0.0000000e+00 
0.0000000e+00 2.8986970e-04 0.0000000e+00 
0.0000000e+00 -2.6884789e-04 0.0000000e+00 
0.0000000e+00 -1.0347285e-03 0.0000000e+00 
0.0000000e+00 -1.1161357e-03 0.0000000e+00 
0.0000000e+00 -3.4266541e-04 0.0000000e+00 
0.0000000e+00 1.2733113e-05 0.0000000e+00 
0.0000000e+00 8.2402330e-05 0.0000000e+00 
0.0000000e+00 -2.4190096e-05 0.0000000e+00 
-4.3991727e-06 -1.6276676e-05 6.0825300e-06 
4.6747446e-05 6.4237924e-05 -3.6970952e-05 
3.7626793e-05 3.3462024e-05 9.2405819e-05 
-2.4253661e-04 -3.1784736e-04 2.9253415e-04 
-6.2734040e-04 -1.2924434e-03 2.3399324e-04 
-5.9230055e-04 -1.4263260e-03 -7.4415359e-05 
-1.7722390e-04 -2.9363361e-04 -4.0578263e-04 
6.0931488e-05 7.7911238e-05 -1.2530286e-04 
-8.1999860e-06 1.8136474e-05 -6.6601111e-05 
-1.0547816e-04 -6.1592014e-05 2.3943285e-04 
-1.0568049e-04 -1.9506506e-04 -3.9670067e-05 
-2.8835708e-05 -8.3195991e-05 -1.5495482e-04 
-1.2503599e-05 1.6207277e-04 3.8579205e-05 
-2.4985772e-04 -4.1550107e-04 2.3698187e-04 
-5.5597030e-04 -1.1702277e-03 1.8323342e-04 
-5.8366958e-04 -1.3450381e-03 8.6646447e-05 
-1.8430370e-04 -2.8244537e-04 -2.7284527e-04 
1.9414629e-05 8.0302452e-06 -2.4331996e-04 
4.0052331e-05 8.1906357e-05 1.8071525e-05 
-7.5835032e-06 -1.3596758e-05 1.1486901e-04 
0.0000000e+00 3.6858610e-04 0.0000000e+00 
0.0000000e+00 3.1478508e-04 0.0000000e+00 
0.0000000e+00 -4.9563893e-04 0.0000000e+00 
0.0000000e+00 -2.2767037e-03 0.0000000e+00 
0.0000000e+00 -2.2213969e-03 0.0000000e+00 
0.0000000e+00 -6.8849133e-04 0.0000000e+00 
0.0000000e+00 1.9713251e-04 0.0000000e+00 
0.0000000e+00 2.0230391e-04 0.0000000e+00 
0.0000000e+00 1.1472345e-05 0.0000000e+00 
0.0000000e+00 1.5314807e-04 0.0000000e+00 
0.0000000e+00 2.5453133e-04 0.0000000e+00 
0.0000000e+00 2.3158743e-04 0.0000000e+00 
0.0000000e+00 -6.8720180e-04 0.0000000e+00 
0.0000000e+00 -2.1365951e-03 0.0000000e+00 
0.0000000e+00 -2.1052179e-03 0.0000000e+00 
0.0000000e+00 -5.1779719e-04 0.0000000e+00 
0.0000000e+00 3.3970722e-05 0.0000000e+00 
0.0000000e+00 9.5187752e-05 0.0000000e+00 
0.0000000e+00 -2.8213139e-05 0.0000000e+00 
2.0451667e-05 -1.8854224e-06 1.4549956e-05 
5.9173944e-05 2.3966501e-05 8.8025472e-06 
4.1124465e-05 1.0563537e-05 3.1999921e-06 
5.8129455e-05 -7.8949008e-05 1.0790473e-07 
2.9894689e-05 -1.1903440e-04 1.5615977e-05 
2.5490383e-05 -5.8993246e-05 -2.6061989e-05 
4.7694280e-06 3.3251574e-05 -5.2826894e-05 
2.6926515e-05 4.0607349e-05 -4.4345256e-06 
-5.5593141e-06 2.3360963e-05 2.0665950e-05 
4.3146905e-05 -2.8156273e-05 -4.4677654e-05 
4.3948094e-05 3.9465854e-06 1.0091751e-05 
4.2555905e-05 7.2692819e-05 1.0607851e-05 
8.5964086e-05 2.8221862e-06 1.1528816e-05 
7.2560993e-05 -5.2583411e-05 3.3802331e-05 
2.9932762e-05 -9.8607874e-05 2.4050114e-05 
1.1147214e-05 -8.3925130e-05 -2.3470433e-05 
1.5248295e-06 1.8056713e-05 -4.4901248e-05 
1.7187276e-06 -4.4268781e-06 1.7109187e-05 
2.7845572e-05 6.5587046e-05 8.4002022e-06 
0.0000000e+00 0.0000000e+00 0.0000000e+00 
0.0000000e+00 0.0000000e+00 0.0000000e+00 
0.0000000e+00 0.0000000e+00 0.0000000e+00 
0.0000000e+00 0.0000000e+00 0.0000000e+00 
0.0000000e+00 0.0000000e+00 0.0000000e+00 
0.0000000e+00 0.0000000e+00 0.0000000e+00 
0.0000000e+00 0.0000000e+00 0.0000000e+00 
0.0000000e+00 0.0000000e+00 0.0000000e+00 
0.0000000e+00 0.0000000e+00 0.0000000e+00 
0.0000000e+00 0.0000000e+00 0.0000000e+00 
0.0000000e+00 0.0000000e+00 0.0000000e+00 
0.0000000e+00 0.0000000e+00 0.0000000e+00 
0.0000000e+00 0.0000000e+00 0.0000000e+00 
0.0000000e+00 0.0000000e+00 0.0000000e+00 
0.0000000e+00 0.0000000e+00 0.0000000e+00 
0.0000000e+00 0.0000000e+00 0.0000000e+00 
0.0000000e+00 0.0000000e+00 0.0000000e+00 
0.0000000e+00 0.0000000e+00 0.0000000e+00 
0.0000000e+00 0.0000000e+00 0.0000000e+00 
0.0000000e+00 0.0000000e+00 0.0000000e+00 
0.0000000e+00 0.0000000e+00 0.0000000e+00 
0.0000000e+00 0.0000000e+00 0.0000000e+00 
0.0000000e+00 0.0000000e+00 0.0000000e+00 
0.0000000e+00 0.0000000e+00 0.0000000e+00 
0.0000000e+00 0.0000000e+00 0.0000000e+00 
0.0000000e+00 0.0000000e+00 0.0000000e+00 
0.0000000e+00 0.0000000e+00 0.0000000e+00 
0.0000000e+00 0.0000000e+00 0.0000000e+00 
0.0000000e+00 0.0000000e+00 0.0000000e+00 
0.0000000e+00 0.0000000e+00 0.0000000e+00 
0.0000000e+00 0.0000000e+00 0.0000000e+00 
0.0000000e+00 0.0000000e+00 0.0000000e+00 
0.0000000e+00 0.0000000e+00 0.0000000e+00 
0.0000000e+00 0.0000000e+00 0.0000000e+00 
0.0000000e+00 0.0000000e+00 0.0000000e+00 
0.0000000e+00 0.0000000e+00 0.0000000e+00 
0.0000000e+00 0.0000000e+00 0.0000000e+00 
0.0000000e+00 0.0000000e+00 0.0000000e+00 
0.0000000e+00 0.0000000e+00 0.0000000e+00 
0.0000000e+00 0.0000000e+00 0.0000000e+00 
0.0000000e+00 0.0000000e+00 0.0000000e+00 
0.0000000e+00 0.0000000e+00 0.0000000e+00 
-4.9066739e-06 -1.8974264e-06 -3.0959982e-06 
-8.3437737e-07 -6.2016202e-06 -7.0958066e-07 
-7.5669927e-06 8.6284326e-06 8.5179482e-07 
-3.0308829e-06 1.8267068e-05 5.4248920e-07 
-4.8358693e-06 3.4394770e-06 -4.7531394e-06 
1.4104732e-05 3.9537326e-07 -3.5024079e-06 
1.7851700e-05 -1.4285582e-05 -2.9612629e-06 
1.8921786e-05 -1.3597089e-05 3.8174740e-08 
6.8699860e-06 -1.1474051e-06 3.4061300e-06 