# vtk DataFile Version 4.0
vtk output
ASCII
DATASET UNSTRUCTURED_GRID
POINTS 662 float
0.0000000e+00 0.0000000e+00 0.0000000e+00 
0.0000000e+00 0.0000000e+00 4.0000000e+01 
5.0000000e+00 0.0000000e+00 0.0000000e+00 
5.0000000e+00 0.0000000e+00 4.0000000e+01 
5.0000000e+00 1.0000000e+00 0.0000000e+00 
5.0000000e+00 1.0000000e+00 4.0000000e+01 
0.0000000e+00 1.0000000e+00 0.0000000e+00 
0.0000000e+00 1.0000000e+00 4.0000000e+01 
5.0000000e+00 2.0000000e+00 0.0000000e+00 
5.0000000e+00 2.0000000e+00 4.0000000e+01 
3.0000000e+00 2.0000000e+00 0.0000000e+00 
3.0000000e+00 2.0000000e+00 4.0000000e+01 
0.0000000e+00 2.0000000e+00 0.0000000e+00 
0.0000000e+00 2.0000000e+00 4.0000000e+01 
1.5000000e+00 3.0000000e+00 0.0000000e+00 
1.5000000e+00 3.0000000e+00 4.0000000e+01 
7.5000000e-01 3.0000000e+00 0.0000000e+00 
7.5000000e-01 3.0000000e+00 4.0000000e+01 
0.0000000e+00 3.0000000e+00 0.0000000e+00 
0.0000000e+00 3.0000000e+00 4.0000000e+01 
7.5000000e-01 3.0000000e+00 5.0000000e-01 
7.5000000e-01 3.0000000e+00 1.0000000e+00 
7.5000000e-01 3.0000000e+00 1.5000000e+00 
7.5000000e-01 3.0000000e+00 2.0000000e+00 
7.5000000e-01 3.0000000e+00 2.5000000e+00 
7.5000000e-01 3.0000000e+00 3.0000000e+00 
7.5000000e-01 3.0000000e+00 3.5000000e+00 
7.5000000e-01 3.0000000e+00 4.0000000e+00 
7.5000000e-01 3.0000000e+00 4.5000000e+00 
7.5000000e-01 3.0000000e+00 5.0000000e+00 
7.5000000e-01 3.0000000e+00 5.5000000e+00 
7.5000000e-01 3.0000000e+00 6.0000000e+00 
7.5000000e-01 3.0000000e+00 6.5000000e+00 
7.5000000e-01 3.0000000e+00 7.0000000e+00 
7.5000000e-01 3.0000000e+00 7.5000000e+00 
7.5000000e-01 3.0000000e+00 8.0000000e+00 
7.5000000e-01 3.0000000e+00 8.5000000e+00 
7.5000000e-01 3.0000000e+00 9.0000000e+00 
7.5000000e-01 3.0000000e+00 9.5000000e+00 
7.5000000e-01 3.0000000e+00 1.0000000e+01 
7.5000000e-01 3.0000000e+00 1.0500000e+01 
7.5000000e-01 3.0000000e+00 1.1000000e+01 
7.5000000e-01 3.0000000e+00 1.1500000e+01 
7.5000000e-01 3.0000000e+00 1.2000000e+01 
7.5000000e-01 3.0000000e+00 1.2500000e+01 
7.5000000e-01 3.0000000e+00 1.3000000e+01 
7.5000000e-01 3.0000000e+00 1.3500000e+01 
7.5000000e-01 3.0000000e+00 1.4000000e+01 
7.5000000e-01 3.0000000e+00 1.4500000e+01 
7.5000000e-01 3.0000000e+00 1.5000000e+01 
7.5000000e-01 3.0000000e+00 1.5500000e+01 
7.5000000e-01 3.0000000e+00 1.6000000e+01 
7.5000000e-01 3.0000000e+00 1.6500000e+01 
7.5000000e-01 3.0000000e+00 1.7000000e+01 
7.5000000e-01 3.0000000e+00 1.7500000e+01 
7.5000000e-01 3.0000000e+00 1.8000000e+01 
7.5000000e-01 3.0000000e+00 1.8500000e+01 
7.5000000e-01 3.0000000e+00 1.9000000e+01 
7.5000000e-01 3.0000000e+00 1.9500000e+01 
7.5000000e-01 3.0000000e+00 2.0000000e+01 
7.5000000e-01 3.0000000e+00 2.0500000e+01 
7.5000000e-01 3.0000000e+00 2.1000000e+01 
7.5000000e-01 3.0000000e+00 2.1500000e+01 
7.5000000e-01 3.0000000e+00 2.2000000e+01 
7.5000000e-01 3.0000000e+00 2.2500000e+01 
7.5000000e-01 3.0000000e+00 2.3000000e+01 
7.5000000e-01 3.0000000e+00 2.3500000e+01 
7.5000000e-01 3.0000000e+00 2.4000000e+01 
7.5000000e-01 3.0000000e+00 2.4500000e+01 
7.5000000e-01 3.0000000e+00 2.5000000e+01 
7.5000000e-01 3.0000000e+00 2.5500000e+01 
7.5000000e-01 3.0000000e+00 2.6000000e+01 
7.5000000e-01 3.0000000e+00 2.6500000e+01 
7.5000000e-01 3.0000000e+00 2.7000000e+01 
7.5000000e-01 3.0000000e+00 2.7500000e+01 
7.5000000e-01 3.0000000e+00 2.8000000e+01 
7.5000000e-01 3.0000000e+00 2.8500000e+01 
7.5000000e-01 3.0000000e+00 2.9000000e+01 
7.5000000e-01 3.0000000e+00 2.9500000e+01 
7.5000000e-01 3.0000000e+00 3.0000000e+01 
7.5000000e-01 3.0000000e+00 3.0500000e+01 
7.5000000e-01 3.0000000e+00 3.1000000e+01 
7.5000000e-01 3.0000000e+00 3.1500000e+01 
7.5000000e-01 3.0000000e+00 3.2000000e+01 
7.5000000e-01 3.0000000e+00 3.2500000e+01 
7.5000000e-01 3.0000000e+00 3.3000000e+01 
7.5000000e-01 3.0000000e+00 3.3500000e+01 
7.5000000e-01 3.0000000e+00 3.4000000e+01 
7.5000000e-01 3.0000000e+00 3.4500000e+01 
7.5000000e-01 3.0000000e+00 3.5000000e+01 
7.5000000e-01 3.0000000e+00 3.5500000e+01 
7.5000000e-01 3.0000000e+00 3.6000000e+01 
7.5000000e-01 3.0000000e+00 3.6500000e+01 
7.5000000e-01 3.0000000e+00 3.7000000e+01 
7.5000000e-01 3.0000000e+00 3.7500000e+01 
7.5000000e-01 3.0000000e+00 3.8000000e+01 
7.5000000e-01 3.0000000e+00 3.8500000e+01 
7.5000000e-01 3.0000000e+00 3.9000000e+01 
7.5000000e-01 3.0000000e+00 3.9500000e+01 
7.5000000e-01 3.0000000e+00 4.0500000e+01 
7.5000000e-01 3.0000000e+00 4.1000000e+01 
7.5000000e-01 3.0000000e+00 4.1500000e+01 
7.5000000e-01 3.0000000e+00 4.2000000e+01 
7.5000000e-01 3.0000000e+00 4.2500000e+01 
7.5000000e-01 3.0000000e+00 4.3000000e+01 
7.5000000e-01 3.0000000e+00 4.3500000e+01 
7.5000000e-01 3.0000000e+00 4.4000000e+01 
7.5000000e-01 3.0000000e+00 4.4500000e+01 
7.5000000e-01 3.0000000e+00 4.5000000e+01 
7.5000000e-01 3.0000000e+00 4.5500000e+01 
7.5000000e-01 3.0000000e+00 4.6000000e+01 
7.5000000e-01 3.0000000e+00 4.6500000e+01 
7.5000000e-01 3.0000000e+00 4.7000000e+01 
7.5000000e-01 3.0000000e+00 4.7500000e+01 
7.5000000e-01 3.0000000e+00 4.8000000e+01 
7.5000000e-01 3.0000000e+00 4.8500000e+01 
7.5000000e-01 3.0000000e+00 4.9000000e+01 
7.5000000e-01 3.0000000e+00 4.9500000e+01 
7.5000000e-01 3.0000000e+00 5.0000000e+01 
7.5000000e-01 3.0250001e+00 0.0000000e+00 
7.5000000e-01 3.0250001e+00 5.0000000e-01 
7.5000000e-01 3.0250001e+00 1.0000000e+00 
7.5000000e-01 3.0250001e+00 1.5000000e+00 
7.5000000e-01 3.0250001e+00 2.0000000e+00 
7.5000000e-01 3.0250001e+00 2.5000000e+00 
7.5000000e-01 3.0250001e+00 3.0000000e+00 
7.5000000e-01 3.0250001e+00 3.5000000e+00 
7.5000000e-01 3.0250001e+00 4.0000000e+00 
7.5000000e-01 3.0250001e+00 4.5000000e+00 
7.5000000e-01 3.0250001e+00 5.0000000e+00 
7.5000000e-01 3.0250001e+00 5.5000000e+00 
7.5000000e-01 3.0250001e+00 6.0000000e+00 
7.5000000e-01 3.0250001e+00 6.5000000e+00 
7.5000000e-01 3.0250001e+00 7.0000000e+00 
7.5000000e-01 3.0250001e+00 7.5000000e+00 
7.5000000e-01 3.0250001e+00 8.0000000e+00 
7.5000000e-01 3.0250001e+00 8.5000000e+00 
7.5000000e-01 3.0250001e+00 9.0000000e+00 
7.5000000e-01 3.0250001e+00 9.5000000e+00 
7.5000000e-01 3.0250001e+00 1.0000000e+01 
7.5000000e-01 3.0250001e+00 1.0500000e+01 
7.5000000e-01 3.0250001e+00 1.1000000e+01 
7.5000000e-01 3.0250001e+00 1.1500000e+01 
7.5000000e-01 3.0250001e+00 1.2000000e+01 
7.5000000e-01 3.0250001e+00 1.2500000e+01 
7.5000000e-01 3.0250001e+00 1.3000000e+01 
7.5000000e-01 3.0250001e+00 1.3500000e+01 
7.5000000e-01 3.0250001e+00 1.4000000e+01 
7.5000000e-01 3.0250001e+00 1.4500000e+01 
7.5000000e-01 3.0250001e+00 1.5000000e+01 
7.5000000e-01 3.0250001e+00 1.5500000e+01 
7.5000000e-01 3.0250001e+00 1.6000000e+01 
7.5000000e-01 3.0250001e+00 1.6500000e+01 
7.5000000e-01 3.0250001e+00 1.7000000e+01 
7.5000000e-01 3.0250001e+00 1.7500000e+01 
7.5000000e-01 3.0250001e+00 1.8000000e+01 
7.5000000e-01 3.0250001e+00 1.8500000e+01 
7.5000000e-01 3.0250001e+00 1.9000000e+01 
7.5000000e-01 3.0250001e+00 1.9500000e+01 
7.5000000e-01 3.0250001e+00 2.0000000e+01 
7.5000000e-01 3.0250001e+00 2.0500000e+01 
7.5000000e-01 3.0250001e+00 2.1000000e+01 
7.5000000e-01 3.0250001e+00 2.1500000e+01 
7.5000000e-01 3.0250001e+00 2.2000000e+01 
7.5000000e-01 3.0250001e+00 2.2500000e+01 
7.5000000e-01 3.0250001e+00 2.3000000e+01 
7.5000000e-01 3.0250001e+00 2.3500000e+01 
7.5000000e-01 3.0250001e+00 2.4000000e+01 
7.5000000e-01 3.0250001e+00 2.4500000e+01 
7.5000000e-01 3.0250001e+00 2.5000000e+01 
7.5000000e-01 3.0250001e+00 2.5500000e+01 
7.5000000e-01 3.0250001e+00 2.6000000e+01 
7.5000000e-01 3.0250001e+00 2.6500000e+01 
7.5000000e-01 3.0250001e+00 2.7000000e+01 
7.5000000e-01 3.0250001e+00 2.7500000e+01 
7.5000000e-01 3.0250001e+00 2.8000000e+01 
7.5000000e-01 3.0250001e+00 2.8500000e+01 
7.5000000e-01 3.0250001e+00 2.9000000e+01 
7.5000000e-01 3.0250001e+00 2.9500000e+01 
7.5000000e-01 3.0250001e+00 3.0000000e+01 
7.5000000e-01 3.0250001e+00 3.0500000e+01 
7.5000000e-01 3.0250001e+00 3.1000000e+01 
7.5000000e-01 3.0250001e+00 3.1500000e+01 
7.5000000e-01 3.0250001e+00 3.2000000e+01 
7.5000000e-01 3.0250001e+00 3.2500000e+01 
7.5000000e-01 3.0250001e+00 3.3000000e+01 
7.5000000e-01 3.0250001e+00 3.3500000e+01 
7.5000000e-01 3.0250001e+00 3.4000000e+01 
7.5000000e-01 3.0250001e+00 3.4500000e+01 
7.5000000e-01 3.0250001e+00 3.5000000e+01 
7.5000000e-01 3.0250001e+00 3.5500000e+01 
7.5000000e-01 3.0250001e+00 3.6000000e+01 
7.5000000e-01 3.0250001e+00 3.6500000e+01 
7.5000000e-01 3.0250001e+00 3.7000000e+01 
7.5000000e-01 3.0250001e+00 3.7500000e+01 
7.5000000e-01 3.0250001e+00 3.8000000e+01 
7.5000000e-01 3.0250001e+00 3.8500000e+01 
7.5000000e-01 3.0250001e+00 3.9000000e+01 
7.5000000e-01 3.0250001e+00 3.9500000e+01 
7.5000000e-01 3.0250001e+00 4.0000000e+01 
7.5000000e-01 3.0250001e+00 4.0500000e+01 
7.5000000e-01 3.0250001e+00 4.1000000e+01 
7.5000000e-01 3.0250001e+00 4.1500000e+01 
7.5000000e-01 3.0250001e+00 4.2000000e+01 
7.5000000e-01 3.0250001e+00 4.2500000e+01 
7.5000000e-01 3.0250001e+00 4.3000000e+01 
7.5000000e-01 3.0250001e+00 4.3500000e+01 
7.5000000e-01 3.0250001e+00 4.4000000e+01 
7.5000000e-01 3.0250001e+00 4.4500000e+01 
7.5000000e-01 3.0250001e+00 4.5000000e+01 
7.5000000e-01 3.0250001e+00 4.5500000e+01 
7.5000000e-01 3.0250001e+00 4.6000000e+01 
7.5000000e-01 3.0250001e+00 4.6500000e+01 
7.5000000e-01 3.0250001e+00 4.7000000e+01 
7.5000000e-01 3.0250001e+00 4.7500000e+01 
7.5000000e-01 3.0250001e+00 4.8000000e+01 
7.5000000e-01 3.0250001e+00 4.8500000e+01 
7.5000000e-01 3.0250001e+00 4.9000000e+01 
7.5000000e-01 3.0250001e+00 4.9500000e+01 
7.5000000e-01 3.0250001e+00 5.0000000e+01 
7.5000000e-01 3.0250001e+00 3.5750000e+01 
3.0000000e+00 2.0000000e+00 3.6000000e+01 
8.0487806e-01 3.0000000e+00 3.6000000e+01 
0.0000000e+00 0.0000000e+00 2.0000000e+00 
0.0000000e+00 0.0000000e+00 4.0000000e+00 
0.0000000e+00 0.0000000e+00 6.0000000e+00 
0.0000000e+00 0.0000000e+00 8.0000000e+00 
0.0000000e+00 0.0000000e+00 1.0000000e+01 
0.0000000e+00 0.0000000e+00 1.2000000e+01 
0.0000000e+00 0.0000000e+00 1.4000000e+01 
[...]
POINT_DATA 662
FIELD FieldData 3
DISPLACEMENT 3 662  float
0.0000000e+00 0.0000000e+00 0.0000000e+00 
0.0000000e+00 0.0000000e+00 0.0000000e+00 
0.0000000e+00 0.0000000e+00 0.0000000e+00 
0.0000000e+00 0.0000000e+00 0.0000000e+00 
4.5518591e-06 -5.7056463e-06 -1.6902300e-06 
3.4724994e-07 9.3426951e-07 1.3174819e-06 
0.0000000e+00 -2.5586901e-06 0.0000000e+00 
0.0000000e+00 -1.1051497e-05 0.0000000e+00 
-1.2115244e-07 -5.8932828e-06 -4.3869518e-06 
-2.7518884e-06 2.3697125e-06 -1.4492366e-06 
-4.2738949e-07 -2.3478155e-05 -2.6533700e-05 
-1.4363662e-06 -3.2870003e-06 -5.3876734e-06 
0.0000000e+00 -3.7379154e-06 0.0000000e+00 
0.0000000e+00 -1.9580322e-05 0.0000000e+00 
-2.1773660e-06 -2.0631622e-05 -9.7875258e-05 
-9.7292677e-06 -1.5580670e-05 -3.3927037e-05 
-9.7375632e-06 3.8589824e-05 -5.1105177e-05 
2.1729472e-06 -3.3077788e-05 -3.8864964e-05 
0.0000000e+00 -7.6716733e-06 0.0000000e+00 
0.0000000e+00 -2.6811091e-05 0.0000000e+00 
2.2728593e-05 4.5395765e-05 -7.1079216e-05 
3.5672008e-05 6.3207095e-05 -5.6055178e-05 
4.2030009e-05 8.6069937e-05 -4.7799556e-05 
4.5955912e-05 1.1239837e-04 -3.1862306e-05 
4.8596285e-05 1.4035957e-04 -6.6444773e-06 
4.4549510e-05 1.6470006e-04 9.2965038e-06 
3.0683299e-05 1.7415620e-04 3.1189960e-05 
2.0264735e-05 1.3873581e-04 5.1245148e-05 
-1.2143907e-05 1.6704267e-05 8.8613546e-05 
-2.3141667e-05 -2.3209557e-04 1.2497180e-04 
-5.7201592e-05 -6.6815439e-04 1.7196694e-04 
-1.1336313e-04 -1.3328717e-03 1.1462313e-04 
-2.5012618e-04 -2.2440506e-03 1.9195306e-04 
-2.5145334e-04 -3.2310924e-03 1.7440060e-04 
-1.3603957e-04 -3.9998498e-03 1.0472744e-04 
-1.0075982e-04 -4.0159170e-03 1.0333031e-04 
-2.4352522e-04 -3.8424013e-03 3.4322737e-05 
-3.1530269e-04 -3.8383629e-03 1.2438813e-05 
-2.0270681e-04 -4.1067353e-03 -2.9041272e-05 
-4.7661539e-05 -4.1417582e-03 -7.8812445e-05 
-8.1851009e-05 -3.4512572e-03 -1.5863213e-04 
-1.8124505e-04 -2.4193421e-03 -1.7194639e-04 
-1.9043116e-04 -1.5158941e-03 -1.5002955e-04 
-8.0254278e-05 -8.2733523e-04 -7.9434089e-05 
-4.3988177e-05 -3.9185144e-04 -1.1185008e-04 
-3.0148643e-05 -1.4645237e-04 -7.9399673e-05 
-3.0010762e-05 -3.0026038e-05 -5.9173508e-05 
-2.0675794e-05 8.0548816e-06 -4.2172083e-05 
-1.2153417e-05 1.3283413e-06 -2.6489235e-05 
-4.0594373e-06 -2.5258794e-05 -1.6055215e-05 
-2.8556929e-06 -5.4419343e-05 -1.5350566e-05 
-9.6486801e-06 -7.9047844e-05 -1.3012752e-05 
-1.2833551e-05 -9.5415962e-05 6.7317037e-06 
-1.5103910e-05 -1.0541001e-04 2.6242011e-05 
-3.3372264e-05 -1.1238661e-04 5.8421974e-05 
-5.1620860e-05 -1.1632586e-04 8.3028368e-05 
-5.1565949e-05 -1.1591448e-04 6.1651081e-05 
-5.4778746e-05 -1.1067074e-04 2.8174587e-05 
-3.9029441e-05 -9.9040401e-05 -1.6049720e-05 
-1.6177613e-05 -7.9555612e-05 -6.1849016e-05 
3.2603689e-06 -4.9004237e-05 -7.6172269e-05 
1.7273946e-05 -1.0079081e-05 -7.6282609e-05 
3.2282569e-05 3.5832411e-05 -7.8514837e-05 
4.1757598e-05 8.4574014e-05 -6.7238194e-05 
5.0545477e-05 1.3114722e-04 -4.4420522e-05 
5.4348551e-05 1.6851480e-04 -1.8122710e-05 
4.2097334e-05 1.8364492e-04 9.8468172e-06 
3.0233330e-05 1.4697255e-04 3.7200629e-05 
-1.2259762e-05 1.3389689e-05 6.8646848e-05 
-2.1160338e-05 -2.6126773e-04 9.9883044e-05 
-3.5801389e-05 -7.4200856e-04 1.3699083e-04 
-8.3115163e-05 -1.4641494e-03 6.8996342e-05 
-2.2796947e-04 -2.4318208e-03 1.6874801e-04 
-2.3227993e-04 -3.4279705e-03 1.6799697e-04 
-1.3368853e-04 -4.0889876e-03 1.3708483e-04 
-1.0246064e-04 -4.0137740e-03 1.8532209e-04 
-2.5264174e-04 -3.8700129e-03 1.3033194e-04 
-3.2093847e-04 -3.9358428e-03 1.1255791e-04 
-2.1283118e-04 -4.2381017e-03 7.3749456e-05 
-7.6936238e-05 -4.1732816e-03 4.1222189e-05 
-1.2360477e-04 -3.3878586e-03 -1.0082147e-04 
-2.2990329e-04 -2.3592676e-03 -1.6153268e-04 
-2.2243834e-04 -1.4825694e-03 -1.8957653e-04 
-1.0248379e-04 -8.1695925e-04 -1.6659730e-04 
-5.5607088e-05 -3.8458488e-04 -2.1058402e-04 
-3.1112326e-05 -1.2531299e-04 -1.8223775e-04 
-1.9069781e-05 1.7453045e-05 -1.6845738e-04 
3.0522515e-06 8.8146466e-05 -1.4455551e-04 
2.5161682e-05 1.1365566e-04 -9.5580341e-05 
4.2812600e-05 1.1509981e-04 -4.5572913e-05 
3.5530931e-05 1.0420179e-04 -7.4676677e-06 
2.5399064e-05 8.5618005e-05 2.9409410e-05 
1.9301728e-05 6.1314102e-05 5.0502658e-05 
1.3058960e-05 3.4686582e-05 6.0679668e-05 
2.6015264e-06 9.0090516e-06 7.0352347e-05 
-7.5760886e-06 -1.1861551e-05 6.4651540e-05 
-1.0785735e-05 -2.6141797e-05 4.6415127e-05 
-1.4442724e-05 -3.3941611e-05 2.1880734e-05 
-1.0591693e-05 -3.6069174e-05 -2.5484749e-06 
0.0000000e+00 -2.6047766e-05 0.0000000e+00 
0.0000000e+00 -1.4865434e-05 0.0000000e+00 
0.0000000e+00 -9.2087993e-07 0.0000000e+00 
0.0000000e+00 1.3484737e-05 0.0000000e+00 
0.0000000e+00 2.5603738e-05 0.0000000e+00 
0.0000000e+00 3.2938715e-05 0.0000000e+00 
0.0000000e+00 3.3890032e-05 0.0000000e+00 
0.0000000e+00 2.8190636e-05 0.0000000e+00 
0.0000000e+00 1.6956159e-05 0.0000000e+00 
0.0000000e+00 2.3301516e-06 0.0000000e+00 
0.0000000e+00 -1.3051043e-05 0.0000000e+00 
0.0000000e+00 -2.6475209e-05 0.0000000e+00 
0.0000000e+00 -3.5377590e-05 0.0000000e+00 
0.0000000e+00 -3.7593651e-05 0.0000000e+00 
0.0000000e+00 -3.1885982e-05 0.0000000e+00 
0.0000000e+00 -1.8662078e-05 0.0000000e+00 
0.0000000e+00 -4.3673754e-07 0.0000000e+00 
0.0000000e+00 1.8427749e-05 0.0000000e+00 
0.0000000e+00 3.2795258e-05 0.0000000e+00 
0.0000000e+00 3.8256632e-05 0.0000000e+00 
0.0000000e+00 3.8799255e-05 0.0000000e+00 
0.0000000e+00 4.5563902e-05 0.0000000e+00 
0.0000000e+00 6.2991247e-05 0.0000000e+00 
0.0000000e+00 8.6049447e-05 0.0000000e+00 
0.0000000e+00 1.1253530e-04 0.0000000e+00 
0.0000000e+00 1.4068784e-04 0.0000000e+00 
0.0000000e+00 1.6575347e-04 0.0000000e+00 
0.0000000e+00 1.7481863e-04 0.0000000e+00 
0.0000000e+00 1.3877594e-04 0.0000000e+00 
0.0000000e+00 1.7818771e-05 0.0000000e+00 
0.0000000e+00 -2.3274905e-04 0.0000000e+00 
0.0000000e+00 -6.6962122e-04 0.0000000e+00 
0.0000000e+00 -1.3418922e-03 0.0000000e+00 
0.0000000e+00 -2.2515180e-03 0.0000000e+00 
0.0000000e+00 -3.2626670e-03 0.0000000e+00 
0.0000000e+00 -4.0236604e-03 0.0000000e+00 
0.0000000e+00 -4.0464806e-03 0.0000000e+00 
0.0000000e+00 -3.8561877e-03 0.0000000e+00 
0.0000000e+00 -3.8690192e-03 0.0000000e+00 
0.0000000e+00 -4.1267443e-03 0.0000000e+00 
0.0000000e+00 -4.1764043e-03 0.0000000e+00 
0.0000000e+00 -3.4694539e-03 0.0000000e+00 
0.0000000e+00 -2.4379448e-03 0.0000000e+00 
0.0000000e+00 -1.5181615e-03 0.0000000e+00 
0.0000000e+00 -8.3167444e-04 0.0000000e+00 
0.0000000e+00 -3.9170968e-04 0.0000000e+00 
0.0000000e+00 -1.4554537e-04 0.0000000e+00 
0.0000000e+00 -2.9062687e-05 0.0000000e+00 
0.0000000e+00 8.4653302e-06 0.0000000e+00 
0.0000000e+00 1.7014131e-06 0.0000000e+00 
0.0000000e+00 -2.4743229e-05 0.0000000e+00 
0.0000000e+00 -5.4241813e-05 0.0000000e+00 
0.0000000e+00 -7.8784935e-05 0.0000000e+00 
0.0000000e+00 -9.5357565e-05 0.0000000e+00 
0.0000000e+00 -1.0560642e-04 0.0000000e+00 
0.0000000e+00 -1.1248366e-04 0.0000000e+00 
0.0000000e+00 -1.1631822e-04 0.0000000e+00 
0.0000000e+00 -1.1599904e-04 0.0000000e+00 
0.0000000e+00 -1.1068073e-04 0.0000000e+00 
0.0000000e+00 -9.9105819e-05 0.0000000e+00 
0.0000000e+00 -7.9237245e-05 0.0000000e+00 
0.0000000e+00 -4.9056893e-05 0.0000000e+00 
0.0000000e+00 -9.9572599e-06 0.0000000e+00 
0.0000000e+00 3.5866997e-05 0.0000000e+00 
0.0000000e+00 8.4619402e-05 0.0000000e+00 
0.0000000e+00 1.3146561e-04 0.0000000e+00 
0.0000000e+00 1.6944059e-04 0.0000000e+00 
0.0000000e+00 1.8449761e-04 0.0000000e+00 
0.0000000e+00 1.4712282e-04 0.0000000e+00 
0.0000000e+00 1.4547088e-05 0.0000000e+00 
0.0000000e+00 -2.6244699e-04 0.0000000e+00 
0.0000000e+00 -7.4394111e-04 0.0000000e+00 
0.0000000e+00 -1.4748314e-03 0.0000000e+00 
0.0000000e+00 -2.4408570e-03 0.0000000e+00 
0.0000000e+00 -3.4631933e-03 0.0000000e+00 
0.0000000e+00 -4.1130930e-03 0.0000000e+00 
0.0000000e+00 -4.0439176e-03 0.0000000e+00 
0.0000000e+00 -3.8835627e-03 0.0000000e+00 
0.0000000e+00 -3.9679809e-03 0.0000000e+00 
0.0000000e+00 -4.2597158e-03 0.0000000e+00 
0.0000000e+00 -4.2073308e-03 0.0000000e+00 
0.0000000e+00 -3.4042997e-03 0.0000000e+00 
0.0000000e+00 -2.3754190e-03 0.0000000e+00 
0.0000000e+00 -1.4842791e-03 0.0000000e+00 
0.0000000e+00 -8.2041358e-04 0.0000000e+00 
0.0000000e+00 -3.8436183e-04 0.0000000e+00 
0.0000000e+00 -1.2440742e-04 0.0000000e+00 
0.0000000e+00 1.8414657e-05 0.0000000e+00 
0.0000000e+00 8.8475514e-05 0.0000000e+00 
0.0000000e+00 1.1415483e-04 0.0000000e+00 
0.0000000e+00 1.1547311e-04 0.0000000e+00 
0.0000000e+00 1.0432578e-04 0.0000000e+00 
0.0000000e+00 8.5535285e-05 0.0000000e+00 
0.0000000e+00 6.1310231e-05 0.0000000e+00 
0.0000000e+00 3.4687069e-05 0.0000000e+00 
0.0000000e+00 9.1357078e-06 0.0000000e+00 
0.0000000e+00 -1.1765043e-05 0.0000000e+00 
0.0000000e+00 -2.6124280e-05 0.0000000e+00 
0.0000000e+00 -3.3965778e-05 0.0000000e+00 
0.0000000e+00 -3.6067653e-05 0.0000000e+00 
0.0000000e+00 -3.3164764e-05 0.0000000e+00 
0.0000000e+00 -2.5987139e-05 0.0000000e+00 
0.0000000e+00 -1.4814282e-05 0.0000000e+00 
0.0000000e+00 -8.9386350e-07 0.0000000e+00 
0.0000000e+00 1.3477352e-05 0.0000000e+00 
0.0000000e+00 2.5560636e-05 0.0000000e+00 
0.0000000e+00 3.2872544e-05 0.0000000e+00 
0.0000000e+00 3.3825028e-05 0.0000000e+00 
0.0000000e+00 2.8149070e-05 0.0000000e+00 
0.0000000e+00 1.6943528e-05 0.0000000e+00 
0.0000000e+00 2.3344110e-06 0.0000000e+00 
0.0000000e+00 -1.3043664e-05 0.0000000e+00 
0.0000000e+00 -2.6463302e-05 0.0000000e+00 
0.0000000e+00 -3.5344652e-05 0.0000000e+00 
0.0000000e+00 -3.7526366e-05 0.0000000e+00 
0.0000000e+00 -3.1793374e-05 0.0000000e+00 
0.0000000e+00 -1.8577117e-05 0.0000000e+00 
0.0000000e+00 -3.9846049e-07 0.0000000e+00 
0.0000000e+00 1.8397459e-05 0.0000000e+00 
0.0000000e+00 3.2704629e-05 0.0000000e+00 
0.0000000e+00 3.8141661e-05 0.0000000e+00 
0.0000000e+00 9.5798161e-05 0.0000000e+00 
3.4457953e-06 2.6910095e-05 3.1382724e-06 
2.6157790e-05 8.6700602e-05 2.9337112e-05 
0.0000000e+00 0.0000000e+00 0.0000000e+00 
0.0000000e+00 0.0000000e+00 0.0000000e+00 
0.0000000e+00 0.0000000e+00 0.0000000e+00 
0.0000000e+00 0.0000000e+00 0.0000000e+00 
0.0000000e+00 0.0000000e+00 0.0000000e+00 
0.0000000e+00 0.0000000e+00 0.0000000e+00 
0.0000000e+00 0.0000000e+00 0.0000000e+00 
0.0000000e+00 0.0000000e+00 0.0000000e+00 
0.0000000e+00 0.0000000e+00 0.0000000e+00 
0.0000000e+00 0.0000000e+00 0.0000000e+00 
0.0000000e+00 0.0000000e+00 0.0000000e+00 
0.0000000e+00 0.0000000e+00 0.0000000e+00 
0.0000000e+00 0.0000000e+00 0.0000000e+00 
0.0000000e+00 0.0000000e+00 0.0000000e+00 
0.0000000e+00 0.0000000e+00 0.0000000e+00 
0.0000000e+00 0.0000000e+00 0.0000000e+00 
0.0000000e+00 0.0000000e+00 0.0000000e+00 
0.0000000e+00 0.0000000e+00 0.0000000e+00 
0.0000000e+00 0.0000000e+00 0.0000000e+00 
0.0000000e+00 0.0000000e+00 0.0000000e+00 
0.0000000e+00 0.0000000e+00 0.0000000e+00 
0.0000000e+00 0.0000000e+00 0.0000000e+00 
0.0000000e+00 0.0000000e+00 0.0000000e+00 
0.0000000e+00 0.0000000e+00 0.0000000e+00 
0.0000000e+00 0.0000000e+00 0.0000000e+00 
0.0000000e+00 0.0000000e+00 0.0000000e+00 
0.0000000e+00 0.0000000e+00 0.0000000e+00 
0.0000000e+00 0.0000000e+00 0.0000000e+00 
0.0000000e+00 0.0000000e+00 0.0000000e+00 
0.0000000e+00 0.0000000e+00 0.0000000e+00 
0.0000000e+00 0.0000000e+00 0.0000000e+00 
0.0000000e+00 0.0000000e+00 0.0000000e+00 
0.0000000e+00 0.0000000e+00 0.0000000e+00 
0.0000000e+00 0.0000000e+00 0.0000000e+00 
0.0000000e+00 0.0000000e+00 0.0000000e+00 
0.0000000e+00 0.0000000e+00 0.0000000e+00 
0.0000000e+00 0.0000000e+00 0.0000000e+00 
0.0000000e+00 0.0000000e+00 0.0000000e+00 
0.0000000e+00 0.0000000e+00 0.0000000e+00 
0.0000000e+00 0.0000000e+00 0.0000000e+00 
0.0000000e+00 0.0000000e+00 0.0000000e+00 
0.0000000e+00 0.0000000e+00 0.0000000e+00 
-2.2239683e-06 -2.8528293e-06 -4.9864248e-06 
7.6824754e-06 9.4472620e-07 -1.1162933e-05 
3.0732532e-05 -3.3076506e-06 -1.3976810e-05 
4.5435685e-05 -1.3699353e-05 -7.6016627e-06 
4.5240096e-05 -8.8663173e-06 1.8059479e-06 
1.8916815e-05 -7.8410659e-07 -2.0851655e-06 
5.3430635e-06 2.3839061e-06 4.1239550e-06 
5.6137956e-06 1.1352480e-06 7.8012408e-06 
2.8843594e-06 -5.6787112e-06 4.8817319e-06 
-2.0796792e-06 -5.0710232e-06 2.2597244e-06 
-4.6013306e-06 3.4460998e-06 -1.3256156e-06 
7.4131676e-06 -2.3433872e-06 -6.6607195e-06 
2.8117525e-05 -5.7456268e-06 -6.9309704e-06 
4.8688136e-05 -8.8764746e-06 -2.9978273e-06 
4.7370504e-05 -1.2652475e-05 3.6595600e-06 
2.1206230e-05 -5.6066037e-06 4.1817448e-06 
1.1699008e-06 6.2158060e-06 8.8608094e-06 
-2.7324825e-06 2.8870925e-06 4.5418515e-06 
1.9737477e-06 -4.6030773e-06 2.5921888e-06 
0.0000000e+00 4.2733183e-05 0.0000000e+00 
0.0000000e+00 3.2541382e-05 0.0000000e+00 
0.0000000e+00 -1.8723354e-04 0.0000000e+00 
0.0000000e+00 -5.1343523e-04 0.0000000e+00 
0.0000000e+00 -4.7666547e-04 0.0000000e+00 
0.0000000e+00 -1.6111381e-04 0.0000000e+00 
0.0000000e+00 -2.9436538e-05 0.0000000e+00 
0.0000000e+00 -3.2803040e-05 0.0000000e+00 
0.0000000e+00 -4.1079009e-05 0.0000000e+00 
0.0000000e+00 -3.9489692e-05 0.0000000e+00 
0.0000000e+00 3.0278707e-05 0.0000000e+00 
0.0000000e+00 3.3003744e-05 0.0000000e+00 
0.0000000e+00 -1.8580463e-04 0.0000000e+00 
0.0000000e+00 -4.9657904e-04 0.0000000e+00 
0.0000000e+00 -5.1077839e-04 0.0000000e+00 
0.0000000e+00 -1.8688523e-04 0.0000000e+00 
0.0000000e+00 1.0939378e-05 0.0000000e+00 
0.0000000e+00 3.7345522e-05 0.0000000e+00 
0.0000000e+00 -1.0110038e-05 0.0000000e+00 
6.9861380e-07 -1.2585414e-05 -6.7360052e-06 
-3.9673587e-06 -1.5431660e-05 -8.1315420e-06 
4.3090023e-07 -1.3211435e-06 -2.1898952e-06 
1.2882372e-06 -8.0829032e-06 2.2959371e-06 
3.8340681e-06 -2.6009357e-06 -1.0776525e-05 
2.0269401e-05 9.8526255e-07 -1.7890336e-05 
3.8348135e-05 9.0151974e-07 -6.0516886e-06 
4.9059796e-05 -2.2982308e-06 -5.0503072e-06 
3.3776229e-05 -8.5797601e-06 -1.1356127e-06 
1.1474102e-05 1.5347621e-06 -1.0564944e-05 
1.7853774e-06 3.5575160e-06 4.0991713e-06 
5.2405817e-06 -7.0082109e-07 1.2129344e-05 
-1.1938722e-06 -7.9383817e-06 9.2399860e-06 
-9.0544736e-06 -5.2996702e-06 -1.8404606e-06 
-2.0519283e-06 4.3099917e-06 -8.6148593e-06 
2.3746306e-05 -3.1957661e-06 -8.1722437e-06 
3.0928721e-05 -3.3347437e-06 -1.6160796e-07 
3.9987586e-05 -8.4023632e-06 4.5987426e-06 
2.5871374e-05 -1.0257021e-05 4.9941900e-06 
4.5672423e-06 -1.5814632e-06 -7.6002907e-06 
3.5366802e-06 6.5917516e-06 2.7149347e-06 
2.2943882e-06 8.8033028e-07 7.0364813e-06 
3.5442242e-06 -3.9749871e-06 4.8859420e-06 
1.2336983e-06 -1.3335207e-05 -3.0775831e-05 
0.0000000e+00 8.0838232e-05 0.0000000e+00 
0.0000000e+00 6.8695306e-05 0.0000000e+00 
0.0000000e+00 -4.0244730e-04 0.0000000e+00 
0.0000000e+00 -1.1435663e-03 0.0000000e+00 
0.0000000e+00 -1.0814246e-03 0.0000000e+00 
0.0000000e+00 -3.0213676e-04 0.0000000e+00 
0.0000000e+00 -3.6291778e-05 0.0000000e+00 
0.0000000e+00 -5.9464204e-05 0.0000000e+00 
0.0000000e+00 -7.1259965e-05 0.0000000e+00 
0.0000000e+00 -6.8667578e-05 0.0000000e+00 
0.0000000e+00 5.7768004e-05 0.0000000e+00 
0.0000000e+00 6.9401161e-05 0.0000000e+00 
0.0000000e+00 -4.1681889e-04 0.0000000e+00 
0.0000000e+00 -1.1258632e-03 0.0000000e+00 
0.0000000e+00 -1.1349128e-03 0.0000000e+00 
0.0000000e+00 -3.4069052e-04 0.0000000e+00 
0.0000000e+00 2.7267406e-05 0.0000000e+00 
0.0000000e+00 6.2276580e-05 0.0000000e+00 
0.0000000e+00 -1.6036898e-05 0.0000000e+00 
-3.1821185e-06 -1.2805790e-05 2.4180915e-06 
6.5755354e-05 7.4295116e-05 -2.8407825e-05 
4.9978131e-05 1.1907616e-04 6.9821748e-05 
-2.6103802e-04 -3.9177726e-04 3.2110771e-04 
-6.4231781e-04 -1.2915927e-03 1.0510391e-04 
-5.8017398e-04 -1.3983777e-03 -1.8005278e-04 
-1.7400076e-04 -2.3055999e-04 -2.0986047e-04 
2.4165129e-06 -1.5979153e-05 -4.9260256e-05 
-2.1351736e-05 -5.5078133e-05 -1.8862565e-05 
-7.1699324e-05 -8.2261795e-05 9.7737357e-05 
-2.2964166e-05 -5.9242011e-05 -9.6088581e-05 
5.8371101e-05 3.5497571e-05 -9.1235728e-05 
5.7798628e-05 1.5067736e-04 7.1782750e-05 
-2.4857090e-04 -4.0210824e-04 2.7350360e-04 
-6.4136658e-04 -1.2495804e-03 1.8072365e-04 
-6.1931362e-04 -1.4378596e-03 -3.8667928e-05 
-1.8185760e-04 -2.8226123e-04 -3.0502075e-04 
2.6480580e-05 4.8940496e-05 -1.7742903e-04 
3.2087089e-05 6.3015053e-05 3.9662744e-05 
-3.7866903e-06 -1.1461379e-05 7.5354619e-05 
0.0000000e+00 1.0481767e-04 0.0000000e+00 
0.0000000e+00 1.3267586e-04 0.0000000e+00 
0.0000000e+00 -7.7309366e-04 0.0000000e+00 
0.0000000e+00 -2.2514879e-03 0.0000000e+00 
0.0000000e+00 -2.1100321e-03 0.0000000e+00 
0.0000000e+00 -5.1084528e-04 0.0000000e+00 
0.0000000e+00 -1.0896634e-07 0.0000000e+00 
0.0000000e+00 -8.7979155e-05 0.0000000e+00 
0.0000000e+00 -8.3570892e-05 0.0000000e+00 
0.0000000e+00 -8.1760416e-05 0.0000000e+00 
0.0000000e+00 6.9487614e-05 0.0000000e+00 
0.0000000e+00 1.3584908e-04 0.0000000e+00 
0.0000000e+00 -8.4635598e-04 0.0000000e+00 
0.0000000e+00 -2.2726986e-03 0.0000000e+00 
0.0000000e+00 -2.1571496e-03 0.0000000e+00 
0.0000000e+00 -5.2884442e-04 0.0000000e+00 
0.0000000e+00 6.9097812e-05 0.0000000e+00 
0.0000000e+00 7.7901750e-05 0.0000000e+00 
0.0000000e+00 -1.6898008e-05 0.0000000e+00 
1.0165812e-05 1.9302372e-05 -1.5698661e-05 
2.9675579e-05 3.6514004e-05 2.9541925e-06 
5.1455449e-05 -2.5055553e-05 5.4343145e-06 
5.3413052e-05 -1.0323896e-04 -2.1301510e-05 
4.7391237e-05 -8.3401159e-05 -8.2061360e-06 
3.3514672e-05 -4.0895840e-05 -3.4248326e-06 
7.6987108e-06 -6.4254541e-06 -9.4322131e-06 
-6.6167613e-06 -4.0746636e-06 3.4772145e-06 
-1.7053833e-05 -1.7636070e-05 1.3505575e-05 
-7.3830097e-06 -2.3079041e-05 -1.2122064e-05 
3.5585613e-06 1.5286401e-05 -1.5241340e-05 
2.8126089e-05 4.5377681e-05 4.6564423e-06 
6.5309556e-05 -3.3905078e-05 4.7530029e-06 
6.1884202e-05 -7.8299629e-05 9.7487527e-06 
3.5151072e-05 -1.1003051e-04 2.1270589e-05 
2.5061972e-05 -7.2654584e-05 -1.4823543e-05 
2.0203755e-07 2.2060658e-05 -3.7795995e-05 
1.3194750e-06 -5.4748211e-06 1.4767643e-05 
2.0590040e-05 5.1215335e-05 2.3477012e-05 
0.0000000e+00 0.0000000e+00 0.0000000e+00 
0.0000000e+00 0.0000000e+00 0.0000000e+00 
0.0000000e+00 0.0000000e+00 0.0000000e+00 
0.0000000e+00 0.0000000e+00 0.0000000e+00 
0.0000000e+00 0.0000000e+00 0.0000000e+00 
0.0000000e+00 0.0000000e+00 0.0000000e+00 
0.0000000e+00 0.0000000e+00 0.0000000e+00 
0.0000000e+00 0.0000000e+00 0.0000000e+00 
0.0000000e+00 0.0000000e+00 0.0000000e+00 
0.0000000e+00 0.0000000e+00 0.0000000e+00 
0.0000000e+00 0.0000000e+00 0.0000000e+00 
0.0000000e+00 0.0000000e+00 0.0000000e+00 
0.0000000e+00 0.0000000e+00 0.0000000e+00 
0.0000000e+00 0.0000000e+00 0.0000000e+00 
0.0000000e+00 0.0000000e+00 0.0000000e+00 
0.0000000e+00 0.0000000e+00 0.0000000e+00 
0.0000000e+00 0.0000000e+00 0.0000000e+00 
0.0000000e+00 0.0000000e+00 0.0000000e+00 
0.0000000e+00 0.0000000e+00 0.0000000e+00 
0.0000000e+00 0.0000000e+00 0.0000000e+00 
0.0000000e+00 0.0000000e+00 0.0000000e+00 
0.0000000e+00 0.0000000e+00 0.0000000e+00 
0.0000000e+00 0.0000000e+00 0.0000000e+00 
0.0000000e+00 0.0000000e+00 0.0000000e+00 
0.0000000e+00 0.0000000e+00 0.0000000e+00 
0.0000000e+00 0.0000000e+00 0.0000000e+00 
0.0000000e+00 0.0000000e+00 0.0000000e+00 
0.0000000e+00 0.0000000e+00 0.0000000e+00 
0.0000000e+00 0.0000000e+00 0.0000000e+00 
0.0000000e+00 0.0000000e+00 0.0000000e+00 
0.0000000e+00 0.0000000e+00 0.0000000e+00 
0.0000000e+00 0.0000000e+00 0.0000000e+00 
0.0000000e+00 0.0000000e+00 0.0000000e+00 
0.0000000e+00 0.0000000e+00 0.0000000e+00 
0.0000000e+00 0.0000000e+00 0.0000000e+00 
0.0000000e+00 0.0000000e+00 0.0000000e+00 
0.0000000e+00 0.0000000e+00 0.0000000e+00 
0.0000000e+00 0.0000000e+00 0.0000000e+00 
0.0000000e+00 0.0000000e+00 0.0000000e+00 
0.0000000e+00 0.0000000e+00 0.0000000e+00 
0.0000000e+00 0.0000000e+00 0.0000000e+00 
0.0000000e+00 0.0000000e+00 0.0000000e+00 
3.0177293e-07 -1.5803731e-06 -9.7114048e-07 
3.9698011e-06 -7.8515728e-07 8.2307787e-07 
2.2959773e-06 4.0303016e-07 2.3535054e-06 
-8.0534511e-07 1.4516828e-06 -1.4454108e-06 
6.3878006e-06 -5.8791666e-06 -3.8329717e-06 
2.3680072e-05 -8.5462252e-06 -2.8025283e-06 
2.5808113e-05 -1.1708946e-05 -7.9363599e-07 