# vtk DataFile Version 4.0
vtk output
ASCII
DATASET UNSTRUCTURED_GRID
POINTS 662 float
0.0000000e+00 0.0000000e+00 0.0000000e+00 
0.0000000e+00 0.0000000e+00 4.0000000e+01 
5.0000000e+00 0.0000000e+00 0.0000000e+00 
5.0000000e+00 0.0000000e+00 4.0000000e+01 
5.0000000e+00 1.0000000e+00 0.0000000e+00 
5.0000000e+00 1.0000000e+00 4.0000000e+01 
0.0000000e+00 1.0000000e+00 0.0000000e+00 
0.0000000e+00 1.0000000e+00 4.0000000e+01 
5.0000000e+00 2.0000000e+00 0.0000000e+00 
5.0000000e+00 2.0000000e+00 4.0000000e+01 
3.0000000e+00 2.0000000e+00 0.0000000e+00 
3.0000000e+00 2.0000000e+00 4.0000000e+01 
0.0000000e+00 2.0000000e+00 0.0000000e+00 
0.0000000e+00 2.0000000e+00 4.0000000e+01 
1.5000000e+00 3.0000000e+00 0.0000000e+00 
1.5000000e+00 3.0000000e+00 4.0000000e+01 
7.5000000e-01 3.0000000e+00 0.0000000e+00 
7.5000000e-01 3.0000000e+00 4.0000000e+01 
0.0000000e+00 3.0000000e+00 0.0000000e+00 
0.0000000e+00 3.0000000e+00 4.0000000e+01 
7.5000000e-01 3.0000000e+00 5.0000000e-01 
7.5000000e-01 3.0000000e+00 1.0000000e+00 
7.5000000e-01 3.0000000e+00 1.5000000e+00 
7.5000000e-01 3.0000000e+00 2.0000000e+00 
7.5000000e-01 3.0000000e+00 2.5000000e+00 
7.5000000e-01 3.0000000e+00 3.0000000e+00 
7.5000000e-01 3.0000000e+00 3.5000000e+00 
7.5000000e-01 3.0000000e+00 4.0000000e+00 
7.5000000e-01 3.0000000e+00 4.5000000e+00 
7.5000000e-01 3.0000000e+00 5.0000000e+00 
7.5000000e-01 3.0000000e+00 5.5000000e+00 
7.5000000e-01 3.0000000e+00 6.0000000e+00 
7.5000000e-01 3.0000000e+00 6.5000000e+00 
7.5000000e-01 3.0000000e+00 7.0000000e+00 
7.5000000e-01 3.0000000e+00 7.5000000e+00 
7.5000000e-01 3.0000000e+00 8.0000000e+00 
7.5000000e-01 3.0000000e+00 8.5000000e+00 
7.5000000e-01 3.0000000e+00 9.0000000e+00 
7.5000000e-01 3.0000000e+00 9.5000000e+00 
7.5000000e-01 3.0000000e+00 1.0000000e+01 
7.5000000e-01 3.0000000e+00 1.0500000e+01 
7.5000000e-01 3.0000000e+00 1.1000000e+01 
7.5000000e-01 3.0000000e+00 1.1500000e+01 
7.5000000e-01 3.0000000e+00 1.2000000e+01 
7.5000000e-01 3.0000000e+00 1.2500000e+01 
7.5000000e-01 3.0000000e+00 1.3000000e+01 
7.5000000e-01 3.0000000e+00 1.3500000e+01 
7.5000000e-01 3.0000000e+00 1.4000000e+01 
7.5000000e-01 3.0000000e+00 1.4500000e+01 
7.5000000e-01 3.0000000e+00 1.5000000e+01 
7.5000000e-01 3.0000000e+00 1.5500000e+01 
7.5000000e-01 3.0000000e+00 1.6000000e+01 
7.5000000e-01 3.0000000e+00 1.6500000e+01 
7.5000000e-01 3.0000000e+00 1.7000000e+01 
7.5000000e-01 3.0000000e+00 1.7500000e+01 
7.5000000e-01 3.0000000e+00 1.8000000e+01 
7.5000000e-01 3.0000000e+00 1.8500000e+01 
7.5000000e-01 3.0000000e+00 1.9000000e+01 
7.5000000e-01 3.0000000e+00 1.9500000e+01 
7.5000000e-01 3.0000000e+00 2.0000000e+01 
7.5000000e-01 3.0000000e+00 2.0500000e+01 
7.5000000e-01 3.0000000e+00 2.1000000e+01 
7.5000000e-01 3.0000000e+00 2.1500000e+01 
7.5000000e-01 3.0000000e+00 2.2000000e+01 
7.5000000e-01 3.0000000e+00 2.2500000e+01 
7.5000000e-01 3.0000000e+00 2.3000000e+01 
7.5000000e-01 3.0000000e+00 2.3500000e+01 
7.5000000e-01 3.0000000e+00 2.4000000e+01 
7.5000000e-01 3.0000000e+00 2.4500000e+01 
7.5000000e-01 3.0000000e+00 2.5000000e+01 
7.5000000e-01 3.0000000e+00 2.5500000e+01 
7.5000000e-01 3.0000000e+00 2.6000000e+01 
7.5000000e-01 3.0000000e+00 2.6500000e+01 
7.5000000e-01 3.0000000e+00 2.7000000e+01 
7.5000000e-01 3.0000000e+00 2.7500000e+01 
7.5000000e-01 3.0000000e+00 2.8000000e+01 
7.5000000e-01 3.0000000e+00 2.8500000e+01 
7.5000000e-01 3.0000000e+00 2.9000000e+01 
7.5000000e-01 3.0000000e+00 2.9500000e+01 
7.5000000e-01 3.0000000e+00 3.0000000e+01 
7.5000000e-01 3.0000000e+00 3.0500000e+01 
7.5000000e-01 3.0000000e+00 3.1000000e+01 
7.5000000e-01 3.0000000e+00 3.1500000e+01 
7.5000000e-01 3.0000000e+00 3.2000000e+01 
7.5000000e-01 3.0000000e+00 3.2500000e+01 
7.5000000e-01 3.0000000e+00 3.3000000e+01 
7.5000000e-01 3.0000000e+00 3.3500000e+01 
7.5000000e-01 3.0000000e+00 3.4000000e+01 
7.5000000e-01 3.0000000e+00 3.4500000e+01 
7.5000000e-01 3.0000000e+00 3.5000000e+01 
7.5000000e-01 3.0000000e+00 3.5500000e+01 
7.5000000e-01 3.0000000e+00 3.6000000e+01 
7.5000000e-01 3.0000000e+00 3.6500000e+01 
7.5000000e-01 3.0000000e+00 3.7000000e+01 
7.5000000e-01 3.0000000e+00 3.7500000e+01 
7.5000000e-01 3.0000000e+00 3.8000000e+01 
7.5000000e-01 3.0000000e+00 3.8500000e+01 
7.5000000e-01 3.0000000e+00 3.9000000e+01 
7.5000000e-01 3.0000000e+00 3.9500000e+01 
7.5000000e-01 3.0000000e+00 4.0500000e+01 
7.5000000e-01 3.0000000e+00 4.1000000e+01 
7.5000000e-01 3.0000000e+00 4.1500000e+01 
7.5000000e-01 3.0000000e+00 4.2000000e+01 
7.5000000e-01 3.0000000e+00 4.2500000e+01 
7.5000000e-01 3.0000000e+00 4.3000000e+01 
7.5000000e-01 3.0000000e+00 4.3500000e+01 
7.5000000e-01 3.0000000e+00 4.4000000e+01 
7.5000000e-01 3.0000000e+00 4.4500000e+01 
7.5000000e-01 3.0000000e+00 4.5000000e+01 
7.5000000e-01 3.0000000e+00 4.5500000e+01 
7.5000000e-01 3.0000000e+00 4.6000000e+01 
7.5000000e-01 3.0000000e+00 4.6500000e+01 
7.5000000e-01 3.0000000e+00 4.7000000e+01 
7.5000000e-01 3.0000000e+00 4.7500000e+01 
7.5000000e-01 3.0000000e+00 4.8000000e+01 
7.5000000e-01 3.0000000e+00 4.8500000e+01 
7.5000000e-01 3.0000000e+00 4.9000000e+01 
7.5000000e-01 3.0000000e+00 4.9500000e+01 
7.5000000e-01 3.0000000e+00 5.0000000e+01 
7.5000000e-01 3.0250001e+00 0.0000000e+00 
7.5000000e-01 3.0250001e+00 5.0000000e-01 
7.5000000e-01 3.0250001e+00 1.0000000e+00 
7.5000000e-01 3.0250001e+00 1.5000000e+00 
7.5000000e-01 3.0250001e+00 2.0000000e+00 
7.5000000e-01 3.0250001e+00 2.5000000e+00 
7.5000000e-01 3.0250001e+00 3.0000000e+00 
7.5000000e-01 3.0250001e+00 3.5000000e+00 
7.5000000e-01 3.0250001e+00 4.0000000e+00 
7.5000000e-01 3.0250001e+00 4.5000000e+00 
7.5000000e-01 3.0250001e+00 5.0000000e+00 
7.5000000e-01 3.0250001e+00 5.5000000e+00 
7.5000000e-01 3.0250001e+00 6.0000000e+00 
7.5000000e-01 3.0250001e+00 6.5000000e+00 
7.5000000e-01 3.0250001e+00 7.0000000e+00 
7.5000000e-01 3.0250001e+00 7.5000000e+00 
7.5000000e-01 3.0250001e+00 8.0000000e+00 
7.5000000e-01 3.0250001e+00 8.5000000e+00 
7.5000000e-01 3.0250001e+00 9.0000000e+00 
7.5000000e-01 3.0250001e+00 9.5000000e+00 
7.5000000e-01 3.0250001e+00 1.0000000e+01 
7.5000000e-01 3.0250001e+00 1.0500000e+01 
7.5000000e-01 3.0250001e+00 1.1000000e+01 
7.5000000e-01 3.0250001e+00 1.1500000e+01 
7.5000000e-01 3.0250001e+00 1.2000000e+01 
7.5000000e-01 3.0250001e+00 1.2500000e+01 
7.5000000e-01 3.0250001e+00 1.3000000e+01 
7.5000000e-01 3.0250001e+00 1.3500000e+01 
7.5000000e-01 3.0250001e+00 1.4000000e+01 
7.5000000e-01 3.0250001e+00 1.4500000e+01 
7.5000000e-01 3.0250001e+00 1.5000000e+01 
7.5000000e-01 3.0250001e+00 1.5500000e+01 
7.5000000e-01 3.0250001e+00 1.6000000e+01 
7.5000000e-01 3.0250001e+00 1.6500000e+01 
7.5000000e-01 3.0250001e+00 1.7000000e+01 
7.5000000e-01 3.0250001e+00 1.7500000e+01 
7.5000000e-01 3.0250001e+00 1.8000000e+01 
7.5000000e-01 3.0250001e+00 1.8500000e+01 
7.5000000e-01 3.0250001e+00 1.9000000e+01 
7.5000000e-01 3.0250001e+00 1.9500000e+01 
7.5000000e-01 3.0250001e+00 2.0000000e+01 
7.5000000e-01 3.0250001e+00 2.0500000e+01 
7.5000000e-01 3.0250001e+00 2.1000000e+01 
7.5000000e-01 3.0250001e+00 2.1500000e+01 
7.5000000e-01 3.0250001e+00 2.2000000e+01 
7.5000000e-01 3.0250001e+00 2.2500000e+01 
7.5000000e-01 3.0250001e+00 2.3000000e+01 
7.5000000e-01 3.0250001e+00 2.3500000e+01 
7.5000000e-01 3.0250001e+00 2.4000000e+01 
7.5000000e-01 3.0250001e+00 2.4500000e+01 
7.5000000e-01 3.0250001e+00 2.5000000e+01 
7.5000000e-01 3.0250001e+00 2.5500000e+01 
7.5000000e-01 3.0250001e+00 2.6000000e+01 
7.5000000e-01 3.0250001e+00 2.6500000e+01 
7.5000000e-01 3.0250001e+00 2.7000000e+01 
7.5000000e-01 3.0250001e+00 2.7500000e+01 
7.5000000e-01 3.0250001e+00 2.8000000e+01 
7.5000000e-01 3.0250001e+00 2.8500000e+01 
7.5000000e-01 3.0250001e+00 2.9000000e+01 
7.5000000e-01 3.0250001e+00 2.9500000e+01 
7.5000000e-01 3.0250001e+00 3.0000000e+01 
7.5000000e-01 3.0250001e+00 3.0500000e+01 
7.5000000e-01 3.0250001e+00 3.1000000e+01 
7.5000000e-01 3.0250001e+00 3.1500000e+01 
7.5000000e-01 3.0250001e+00 3.2000000e+01 
7.5000000e-01 3.0250001e+00 3.2500000e+01 
7.5000000e-01 3.0250001e+00 3.3000000e+01 
7.5000000e-01 3.0250001e+00 3.3500000e+01 
7.5000000e-01 3.0250001e+00 3.4000000e+01 
7.5000000e-01 3.0250001e+00 3.4500000e+01 
7.5000000e-01 3.0250001e+00 3.5000000e+01 
7.5000000e-01 3.0250001e+00 3.5500000e+01 
7.5000000e-01 3.0250001e+00 3.6000000e+01 
7.5000000e-01 3.0250001e+00 3.6500000e+01 
7.5000000e-01 3.0250001e+00 3.7000000e+01 
7.5000000e-01 3.0250001e+00 3.7500000e+01 
7.5000000e-01 3.0250001e+00 3.8000000e+01 
7.5000000e-01 3.0250001e+00 3.8500000e+01 
7.5000000e-01 3.0250001e+00 3.9000000e+01 
7.5000000e-01 3.0250001e+00 3.9500000e+01 
7.5000000e-01 3.0250001e+00 4.0000000e+01 
7.5000000e-01 3.0250001e+00 4.0500000e+01 
7.5000000e-01 3.0250001e+00 4.1000000e+01 
7.5000000e-01 3.0250001e+00 4.1500000e+01 
7.5000000e-01 3.0250001e+00 4.2000000e+01 
7.5000000e-01 3.0250001e+00 4.2500000e+01 
7.5000000e-01 3.0250001e+00 4.3000000e+01 
7.5000000e-01 3.0250001e+00 4.3500000e+01 
7.5000000e-01 3.0250001e+00 4.4000000e+01 
7.5000000e-01 3.0250001e+00 4.4500000e+01 
7.5000000e-01 3.0250001e+00 4.5000000e+01 
7.5000000e-01 3.0250001e+00 4.5500000e+01 
7.5000000e-01 3.0250001e+00 4.6000000e+01 
7.5000000e-01 3.0250001e+00 4.6500000e+01 
7.5000000e-01 3.0250001e+00 4.7000000e+01 
7.5000000e-01 3.0250001e+00 4.7500000e+01 
7.5000000e-01 3.0250001e+00 4.8000000e+01 
7.5000000e-01 3.0250001e+00 4.8500000e+01 
7.5000000e-01 3.0250001e+00 4.9000000e+01 
7.5000000e-01 3.0250001e+00 4.9500000e+01 
7.5000000e-01 3.0250001e+00 5.0000000e+01 
7.5000000e-01 3.0250001e+00 3.5750000e+01 
3.0000000e+00 2.0000000e+00 3.6000000e+01 
8.0487806e-01 3.0000000e+00 3.6000000e+01 
0.0000000e+00 0.0000000e+00 2.0000000e+00 
0.0000000e+00 0.0000000e+00 4.0000000e+00 
0.0000000e+00 0.0000000e+00 6.0000000e+00 
0.0000000e+00 0.0000000e+00 8.0000000e+00 
0.0000000e+00 0.0000000e+00 1.0000000e+01 
0.0000000e+00 0.0000000e+00 1.2000000e+01 
0.0000000e+00 0.0000000e+00 1.4000000e+01 
[...]
POINT_DATA 662
FIELD FieldData 3
DISPLACEMENT 3 662  float
0.0000000e+00 0.0000000e+00 0.0000000e+00 
0.0000000e+00 0.0000000e+00 0.0000000e+00 
0.0000000e+00 0.0000000e+00 0.0000000e+00 
0.0000000e+00 0.0000000e+00 0.0000000e+00 
8.0011750e-06 -4.4330413e-06 -6.7112233e-06 
7.6316774e-06 6.1659016e-06 1.3834105e-05 
0.0000000e+00 -2.3361214e-05 0.0000000e+00 
0.0000000e+00 -1.5770561e-04 0.0000000e+00 
7.3158144e-06 -3.1546053e-06 -1.0331300e-05 
2.6029087e-05 6.7946639e-06 -7.6106221e-07 
6.9915541e-06 -1.7650727e-05 -2.2346061e-05 
3.4801571e-05 8.0187492e-05 -1.3076939e-05 
0.0000000e+00 -4.3018150e-05 0.0000000e+00 
0.0000000e+00 -3.1843004e-04 0.0000000e+00 
-5.8723735e-06 -5.4065236e-05 -5.7406942e-05 
-8.2253726e-05 -7.9275807e-05 -2.5783564e-04 
-1.3969352e-05 -4.5772529e-05 -4.5513021e-05 
-4.7918194e-05 -5.9415738e-04 -2.9715634e-04 
0.0000000e+00 -6.5643449e-05 0.0000000e+00 
0.0000000e+00 -1.8848493e-04 0.0000000e+00 
-1.9185866e-06 -4.1699408e-05 -4.0816434e-05 
8.2577144e-06 -3.1432490e-05 -3.3708882e-05 
1.2422798e-05 -1.7350783e-05 -2.7042001e-05 
1.7217761e-05 -3.6971497e-07 -1.5655320e-05 
1.9892166e-05 1.8822253e-05 -3.3322335e-06 
1.7465840e-05 3.9210005e-05 1.3746035e-06 
1.2338387e-05 5.9193026e-05 3.5396715e-06 
9.7594884e-06 7.6673561e-05 2.3693394e-06 
6.9782163e-06 8.9988534e-05 -3.7039035e-06 
6.1453484e-06 9.8248958e-05 -3.3220458e-06 
2.5871132e-06 1.0136144e-04 5.4821885e-06 
2.5322842e-07 1.0003585e-04 1.7464190e-05 
3.5675844e-06 9.3911134e-05 2.8730359e-05 
5.9787435e-06 8.3738072e-05 3.4166398e-05 
7.0666938e-06 6.9480062e-05 3.6574434e-05 
9.7437987e-06 5.2267122e-05 3.3651671e-05 
1.2243568e-05 3.3884524e-05 3.0388199e-05 
1.5597672e-05 1.7277553e-05 2.8001074e-05 
2.1229946e-05 6.2951490e-06 2.8841914e-05 
2.2381952e-05 3.6553051e-06 3.0704086e-05 
2.1828753e-05 1.0986692e-05 2.4115630e-05 
1.8965200e-05 2.1502618e-05 2.0569210e-05 
1.4248551e-05 2.3142074e-05 3.0002553e-05 
4.0638370e-06 -1.3496607e-05 4.2881598e-05 
-3.4305445e-05 -1.2899168e-04 7.3465395e-05 
-4.6915800e-05 -3.6462914e-04 1.0363461e-04 
-7.1427588e-05 -7.8259356e-04 1.4608716e-04 
-1.2523057e-04 -1.4275993e-03 9.3167138e-05 
-2.6910851e-04 -2.3228233e-03 1.7089985e-04 
-2.7745587e-04 -3.3012885e-03 1.5578142e-04 
-1.7888997e-04 -4.0737623e-03 1.0142926e-04 
-1.5608162e-04 -4.1083340e-03 1.1122680e-04 
-2.9186773e-04 -3.9612409e-03 4.9687678e-05 
-3.5414548e-04 -3.9832876e-03 3.0992433e-05 
-2.3529735e-04 -4.2696237e-03 -1.2238502e-05 
-7.8207340e-05 -4.3038605e-03 -6.5765686e-05 
-1.0110986e-04 -3.5845598e-03 -1.6554761e-04 
-1.9372671e-04 -2.5090009e-03 -1.9492174e-04 
-1.8607262e-04 -1.5605817e-03 -1.8902861e-04 
-5.7390418e-05 -8.3162310e-04 -1.2462094e-04 
-1.9049688e-05 -3.6333469e-04 -1.5957907e-04 
-3.6355229e-06 -9.1767943e-05 -1.2467607e-04 
4.4340041e-07 4.5238954e-05 -9.8516131e-05 
1.4425330e-05 1.0054697e-04 -6.9302165e-05 
1.7665559e-05 1.0750739e-04 -3.9403469e-05 
1.6704475e-05 9.1336478e-05 -1.5714151e-05 
6.8587824e-06 6.7251429e-05 -4.3874843e-06 
-3.4713501e-06 4.1030988e-05 -3.2293876e-06 
-9.1910915e-06 1.6113325e-05 -5.8730079e-06 
-1.0056275e-05 -6.8656327e-06 -1.0603609e-05 
-1.2423356e-05 -2.6716460e-05 -1.3536392e-05 
-1.7168000e-05 -4.1209623e-05 -1.4979044e-05 
-1.6623386e-05 -4.8013499e-05 -1.6679180e-05 
-1.6975944e-05 -4.8121270e-05 -2.0965537e-05 
-1.1780713e-05 -4.1198269e-05 -2.8102166e-05 
-3.0007725e-06 -2.5571444e-05 -3.3192042e-05 
1.6625951e-05 1.4990587e-06 -3.0504307e-05 
2.8575651e-05 3.9581821e-05 -2.4953553e-05 
4.1389692e-05 8.7348453e-05 -2.4927525e-05 
5.2972715e-05 1.3982275e-04 -1.7718401e-05 
5.5911230e-05 1.9105290e-04 -1.8434182e-05 
5.5664048e-05 2.2985844e-04 -8.1679400e-06 
4.4122888e-05 2.3988438e-04 1.3509050e-05 
2.6049362e-05 1.8978943e-04 3.8929236e-05 
-2.1996875e-05 3.3708759e-05 8.7282002e-05 
-3.4506676e-05 -2.6826892e-04 1.3161595e-04 
-6.5638065e-05 -7.7620591e-04 1.9190983e-04 
-1.2823957e-04 -1.5171949e-03 1.4273394e-04 
-2.6627662e-04 -2.4879281e-03 2.2084222e-04 
-2.7612058e-04 -3.4769387e-03 1.8314918e-04 
-1.8226886e-04 -4.1307793e-03 8.3236322e-05 
-3.7420372e-04 -4.0715695e-03 1.3152912e-04 
-2.6593698e-04 -3.9176941e-03 1.0420963e-04 
-2.9698820e-04 -3.9979583e-03 1.2884792e-05 
-1.0969142e-04 -4.3241279e-03 -1.3446607e-04 
-1.8549486e-04 -4.3376833e-03 -2.0747994e-04 
-1.8333238e-04 -3.5239556e-03 -3.5231243e-04 
-2.1462762e-04 -2.4226201e-03 -3.6891931e-04 
-1.5784630e-04 -1.4400609e-03 -1.5451950e-04 
0.0000000e+00 7.5998207e-05 0.0000000e+00 
0.0000000e+00 5.7244208e-04 0.0000000e+00 
0.0000000e+00 9.0352603e-04 0.0000000e+00 
0.0000000e+00 1.0849580e-03 0.0000000e+00 
0.0000000e+00 1.1371191e-03 0.0000000e+00 
0.0000000e+00 1.0838984e-03 0.0000000e+00 
0.0000000e+00 9.5221557e-04 0.0000000e+00 
0.0000000e+00 7.7088835e-04 0.0000000e+00 
0.0000000e+00 5.6808925e-04 0.0000000e+00 
0.0000000e+00 3.6811057e-04 0.0000000e+00 
0.0000000e+00 1.8890356e-04 0.0000000e+00 
0.0000000e+00 4.1364397e-05 0.0000000e+00 
0.0000000e+00 -6.9735790e-05 0.0000000e+00 
0.0000000e+00 -1.4409702e-04 0.0000000e+00 
0.0000000e+00 -1.8456926e-04 0.0000000e+00 
0.0000000e+00 -1.9667580e-04 0.0000000e+00 
0.0000000e+00 -1.8860131e-04 0.0000000e+00 
0.0000000e+00 -1.7068877e-04 0.0000000e+00 
0.0000000e+00 -1.5379496e-04 0.0000000e+00 
0.0000000e+00 -1.4682740e-04 0.0000000e+00 
0.0000000e+00 -4.5645782e-05 0.0000000e+00 
0.0000000e+00 -4.1695414e-05 0.0000000e+00 
0.0000000e+00 -3.1511208e-05 0.0000000e+00 
0.0000000e+00 -1.7364981e-05 0.0000000e+00 
0.0000000e+00 -3.5374731e-07 0.0000000e+00 
0.0000000e+00 1.8850300e-05 0.0000000e+00 
0.0000000e+00 3.9241939e-05 0.0000000e+00 
0.0000000e+00 5.9186546e-05 0.0000000e+00 
0.0000000e+00 7.6660501e-05 0.0000000e+00 
0.0000000e+00 8.9970956e-05 0.0000000e+00 
0.0000000e+00 9.8226061e-05 0.0000000e+00 
0.0000000e+00 1.0143129e-04 0.0000000e+00 
0.0000000e+00 1.0000353e-04 0.0000000e+00 
0.0000000e+00 9.3969131e-05 0.0000000e+00 
0.0000000e+00 8.3708568e-05 0.0000000e+00 
0.0000000e+00 6.9463189e-05 0.0000000e+00 
0.0000000e+00 5.2211690e-05 0.0000000e+00 
0.0000000e+00 3.3850571e-05 0.0000000e+00 
0.0000000e+00 1.7337336e-05 0.0000000e+00 
0.0000000e+00 6.3430593e-06 0.0000000e+00 
0.0000000e+00 4.0325731e-06 0.0000000e+00 
0.0000000e+00 1.1272514e-05 0.0000000e+00 
0.0000000e+00 2.2449029e-05 0.0000000e+00 
0.0000000e+00 2.3749843e-05 0.0000000e+00 
0.0000000e+00 -1.3375323e-05 0.0000000e+00 
0.0000000e+00 -1.2788734e-04 0.0000000e+00 
0.0000000e+00 -3.6522813e-04 0.0000000e+00 
0.0000000e+00 -7.8397820e-04 0.0000000e+00 
0.0000000e+00 -1.4367108e-03 0.0000000e+00 
0.0000000e+00 -2.3302420e-03 0.0000000e+00 
0.0000000e+00 -3.3328433e-03 0.0000000e+00 
0.0000000e+00 -4.0974366e-03 0.0000000e+00 
0.0000000e+00 -4.1388273e-03 0.0000000e+00 
0.0000000e+00 -3.9750254e-03 0.0000000e+00 
0.0000000e+00 -4.0141004e-03 0.0000000e+00 
0.0000000e+00 -4.2899456e-03 0.0000000e+00 
0.0000000e+00 -4.3389047e-03 0.0000000e+00 
0.0000000e+00 -3.6031534e-03 0.0000000e+00 
0.0000000e+00 -2.5279736e-03 0.0000000e+00 
0.0000000e+00 -1.5629858e-03 0.0000000e+00 
0.0000000e+00 -8.3615782e-04 0.0000000e+00 
0.0000000e+00 -3.6321254e-04 0.0000000e+00 
0.0000000e+00 -9.0915390e-05 0.0000000e+00 
0.0000000e+00 4.6333949e-05 0.0000000e+00 
0.0000000e+00 1.0098100e-04 0.0000000e+00 
0.0000000e+00 1.0801326e-04 0.0000000e+00 
0.0000000e+00 9.1849630e-05 0.0000000e+00 
0.0000000e+00 6.7389316e-05 0.0000000e+00 
0.0000000e+00 4.1154191e-05 0.0000000e+00 
0.0000000e+00 1.6065518e-05 0.0000000e+00 
0.0000000e+00 -6.9589119e-06 0.0000000e+00 
0.0000000e+00 -2.6712843e-05 0.0000000e+00 
0.0000000e+00 -4.0999323e-05 0.0000000e+00 
0.0000000e+00 -4.8058751e-05 0.0000000e+00 
0.0000000e+00 -4.8206293e-05 0.0000000e+00 
0.0000000e+00 -4.1276107e-05 0.0000000e+00 
0.0000000e+00 -2.5462828e-05 0.0000000e+00 
0.0000000e+00 1.5433518e-06 0.0000000e+00 
0.0000000e+00 3.9781869e-05 0.0000000e+00 
0.0000000e+00 8.7415312e-05 0.0000000e+00 
0.0000000e+00 1.4007918e-04 0.0000000e+00 
0.0000000e+00 1.9136266e-04 0.0000000e+00 
0.0000000e+00 2.3071692e-04 0.0000000e+00 
0.0000000e+00 2.4067723e-04 0.0000000e+00 
0.0000000e+00 1.8966378e-04 0.0000000e+00 
0.0000000e+00 3.4831290e-05 0.0000000e+00 
0.0000000e+00 -2.6959492e-04 0.0000000e+00 
0.0000000e+00 -7.7810808e-04 0.0000000e+00 
0.0000000e+00 -1.5272830e-03 0.0000000e+00 
0.0000000e+00 -2.4965338e-03 0.0000000e+00 
0.0000000e+00 -3.5103518e-03 0.0000000e+00 
0.0000000e+00 -4.1569467e-03 0.0000000e+00 
0.0000000e+00 -4.0971707e-03 0.0000000e+00 
0.0000000e+00 -3.9333077e-03 0.0000000e+00 
0.0000000e+00 -4.0283282e-03 0.0000000e+00 
0.0000000e+00 -4.3551289e-03 0.0000000e+00 
0.0000000e+00 -4.3584988e-03 0.0000000e+00 
0.0000000e+00 -3.5421178e-03 0.0000000e+00 
0.0000000e+00 -2.4422610e-03 0.0000000e+00 
0.0000000e+00 -1.4385453e-03 0.0000000e+00 
0.0000000e+00 -5.9510831e-04 0.0000000e+00 
0.0000000e+00 7.5639749e-05 0.0000000e+00 
0.0000000e+00 5.7216414e-04 0.0000000e+00 
0.0000000e+00 9.0333127e-04 0.0000000e+00 
0.0000000e+00 1.0848138e-03 0.0000000e+00 
0.0000000e+00 1.1370159e-03 0.0000000e+00 
0.0000000e+00 1.0838615e-03 0.0000000e+00 
0.0000000e+00 9.5227186e-04 0.0000000e+00 
0.0000000e+00 7.7104010e-04 0.0000000e+00 
0.0000000e+00 5.6831940e-04 0.0000000e+00 
0.0000000e+00 3.6839113e-04 0.0000000e+00 
0.0000000e+00 1.8918958e-04 0.0000000e+00 
0.0000000e+00 4.1600728e-05 0.0000000e+00 
0.0000000e+00 -6.9579422e-05 0.0000000e+00 
0.0000000e+00 -1.4400069e-04 0.0000000e+00 
0.0000000e+00 -1.8449094e-04 0.0000000e+00 
0.0000000e+00 -1.9660765e-04 0.0000000e+00 
0.0000000e+00 -1.8858393e-04 0.0000000e+00 
0.0000000e+00 -1.7076604e-04 0.0000000e+00 
0.0000000e+00 -1.5396517e-04 0.0000000e+00 
0.0000000e+00 -1.4703648e-04 0.0000000e+00 
0.0000000e+00 -4.1846996e-03 0.0000000e+00 
9.9065350e-05 -1.6069114e-04 1.1261843e-05 
-1.7759221e-04 -3.5472254e-03 1.4795980e-04 
0.0000000e+00 0.0000000e+00 0.0000000e+00 
0.0000000e+00 0.0000000e+00 0.0000000e+00 
0.0000000e+00 0.0000000e+00 0.0000000e+00 
0.0000000e+00 0.0000000e+00 0.0000000e+00 
0.0000000e+00 0.0000000e+00 0.0000000e+00 
0.0000000e+00 0.0000000e+00 0.0000000e+00 
0.0000000e+00 0.0000000e+00 0.0000000e+00 
0.0000000e+00 0.0000000e+00 0.0000000e+00 
0.0000000e+00 0.0000000e+00 0.0000000e+00 
0.0000000e+00 0.0000000e+00 0.0000000e+00 
0.0000000e+00 0.0000000e+00 0.0000000e+00 
0.0000000e+00 0.0000000e+00 0.0000000e+00 
0.0000000e+00 0.0000000e+00 0.0000000e+00 
0.0000000e+00 0.0000000e+00 0.0000000e+00 
0.0000000e+00 0.0000000e+00 0.0000000e+00 
0.0000000e+00 0.0000000e+00 0.0000000e+00 
0.0000000e+00 0.0000000e+00 0.0000000e+00 
0.0000000e+00 0.0000000e+00 0.0000000e+00 
0.0000000e+00 0.0000000e+00 0.0000000e+00 
0.0000000e+00 0.0000000e+00 0.0000000e+00 
0.0000000e+00 0.0000000e+00 0.0000000e+00 
0.0000000e+00 0.0000000e+00 0.0000000e+00 
0.0000000e+00 0.0000000e+00 0.0000000e+00 
0.0000000e+00 0.0000000e+00 0.0000000e+00 
0.0000000e+00 0.0000000e+00 0.0000000e+00 
0.0000000e+00 0.0000000e+00 0.0000000e+00 
0.0000000e+00 0.0000000e+00 0.0000000e+00 
0.0000000e+00 0.0000000e+00 0.0000000e+00 
0.0000000e+00 0.0000000e+00 0.0000000e+00 
0.0000000e+00 0.0000000e+00 0.0000000e+00 
0.0000000e+00 0.0000000e+00 0.0000000e+00 
0.0000000e+00 0.0000000e+00 0.0000000e+00 
0.0000000e+00 0.0000000e+00 0.0000000e+00 
0.0000000e+00 0.0000000e+00 0.0000000e+00 
0.0000000e+00 0.0000000e+00 0.0000000e+00 
0.0000000e+00 0.0000000e+00 0.0000000e+00 
0.0000000e+00 0.0000000e+00 0.0000000e+00 
0.0000000e+00 0.0000000e+00 0.0000000e+00 
0.0000000e+00 0.0000000e+00 0.0000000e+00 
0.0000000e+00 0.0000000e+00 0.0000000e+00 
0.0000000e+00 0.0000000e+00 0.0000000e+00 
0.0000000e+00 0.0000000e+00 0.0000000e+00 
4.4189951e-06 -1.8493018e-06 -4.6975410e-06 
1.1332489e-06 -1.1481435e-06 6.1363136e-07 
-5.9947092e-06 -2.2351405e-07 3.0540339e-06 
-1.0598289e-05 3.0631975e-06 -1.0236087e-07 
-4.4312587e-06 1.0254619e-07 -3.1493123e-06 
1.1702400e-05 -3.6016538e-06 -6.1781348e-06 
3.6382837e-05 -7.1319050e-06 -1.0641746e-05 
5.4469310e-05 -7.9095562e-06 -2.7971560e-06 
4.7516522e-05 -5.8488549e-06 8.1325570e-06 
2.1769571e-05 -2.3450173e-06 4.4379276e-06 
5.5097248e-06 -1.6764176e-06 1.0290013e-06 
2.4544163e-06 -1.2029506e-06 1.3167418e-07 
-2.2117654e-06 -2.3936459e-06 3.1208083e-06 
-8.1109438e-06 -2.1295627e-06 2.2003940e-06 
-5.9387849e-06 9.1691555e-07 -3.3855011e-07 
1.9835340e-06 3.2209334e-06 -8.1200087e-06 
3.4155786e-05 -4.7847784e-06 -1.8031060e-05 
5.6622175e-05 -2.0560839e-05 -2.2150050e-06 
4.2540232e-05 -1.3906722e-05 1.9525167e-05 
0.0000000e+00 9.2780800e-07 0.0000000e+00 
0.0000000e+00 2.5257950e-05 0.0000000e+00 
0.0000000e+00 2.9652172e-05 0.0000000e+00 
0.0000000e+00 1.2765515e-05 0.0000000e+00 
0.0000000e+00 -2.8720681e-06 0.0000000e+00 
0.0000000e+00 -2.0781497e-05 0.0000000e+00 
0.0000000e+00 -2.2079008e-04 0.0000000e+00 
0.0000000e+00 -5.4266147e-04 0.0000000e+00 
0.0000000e+00 -5.3128856e-04 0.0000000e+00 
0.0000000e+00 -1.5257008e-04 0.0000000e+00 
0.0000000e+00 1.0555498e-05 0.0000000e+00 
0.0000000e+00 1.1736841e-05 0.0000000e+00 
0.0000000e+00 -2.0796429e-05 0.0000000e+00 
0.0000000e+00 -7.4377022e-06 0.0000000e+00 
0.0000000e+00 4.5291639e-05 0.0000000e+00 
0.0000000e+00 4.1685442e-05 0.0000000e+00 
0.0000000e+00 -2.1800725e-04 0.0000000e+00 
0.0000000e+00 -5.7861989e-04 0.0000000e+00 
0.0000000e+00 -5.1631097e-04 0.0000000e+00 
7.4036170e-06 -8.2894157e-06 -1.1296880e-05 
4.8627771e-06 -2.0574947e-05 -1.4169423e-05 
4.0453004e-05 3.5065303e-05 1.7274584e-05 
7.6179276e-05 -8.5336287e-05 1.1078209e-04 
6.0333514e-06 -2.9648124e-06 -7.7263112e-06 
4.5283800e-06 -3.9943866e-06 -9.2372653e-07 
-4.1689827e-06 -2.1950668e-06 3.1574702e-06 
-1.2555698e-05 2.5659160e-06 7.1069292e-07 
-6.9494263e-06 1.8569973e-06 -3.4971986e-06 
1.9340141e-05 -3.0122353e-06 -8.3348204e-06 
3.5514269e-05 -5.4555394e-06 -4.6276182e-06 
3.9031402e-05 -6.7812884e-06 -3.2263355e-07 
2.7012875e-05 -2.7285230e-06 6.7534738e-06 
1.1644635e-05 1.5145901e-06 -2.8514953e-06 
9.7941447e-06 -2.2565769e-06 -1.3428773e-06 
4.3433847e-06 -3.4809323e-06 1.3814407e-06 
-4.4230374e-06 -4.7634126e-06 4.4929825e-06 
-1.0368038e-05 -2.5098491e-06 -1.6276687e-07 
8.8914391e-07 6.0446496e-07 -7.1605637e-06 
1.7784085e-05 3.4486591e-06 -9.6522881e-06 
3.5208694e-05 -3.4666220e-06 -7.2345820e-06 
4.7711161e-05 -1.3187449e-05 7.7852865e-06 
3.2030042e-05 -3.0288288e-06 1.1541201e-05 
5.7515113e-06 -3.2450607e-05 -2.4539469e-05 
0.0000000e+00 1.0778424e-06 0.0000000e+00 
0.0000000e+00 4.8113583e-05 0.0000000e+00 
0.0000000e+00 5.6573193e-05 0.0000000e+00 
0.0000000e+00 2.5149331e-05 0.0000000e+00 
0.0000000e+00 -7.8015046e-06 0.0000000e+00 
0.0000000e+00 -2.5225487e-05 0.0000000e+00 
0.0000000e+00 -4.6190762e-04 0.0000000e+00 
0.0000000e+00 -1.1999855e-03 0.0000000e+00 
0.0000000e+00 -1.1828891e-03 0.0000000e+00 
0.0000000e+00 -2.8695626e-04 0.0000000e+00 
0.0000000e+00 3.4656066e-05 0.0000000e+00 
0.0000000e+00 2.0847669e-05 0.0000000e+00 
0.0000000e+00 -3.4747896e-05 0.0000000e+00 
0.0000000e+00 -1.7286429e-05 0.0000000e+00 
0.0000000e+00 8.4573978e-05 0.0000000e+00 
0.0000000e+00 9.1843118e-05 0.0000000e+00 
0.0000000e+00 -4.6221388e-04 0.0000000e+00 
0.0000000e+00 -1.3054418e-03 0.0000000e+00 
0.0000000e+00 -1.1434447e-03 0.0000000e+00 
5.6959252e-05 -2.3427997e-04 5.8750942e-05 
2.0824236e-05 -9.5380062e-07 -2.0456913e-05 
1.4068814e-05 4.8363887e-05 1.6211104e-06 
3.4777115e-06 6.4785090e-05 2.3432605e-05 
4.8830711e-06 4.2804866e-05 3.5632198e-05 
3.6000903e-05 -1.4279788e-05 4.9699316e-05 
2.0549976e-05 2.1275275e-05 7.5360083e-05 
-2.8183975e-04 -4.4308207e-04 2.8198984e-04 
-7.0294464e-04 -1.3437829e-03 1.2134233e-04 
-6.4214552e-04 -1.4800323e-03 -1.5064604e-04 
-1.3192033e-04 -2.4728707e-04 -2.4963651e-04 
3.3654997e-05 4.9461556e-05 -7.3820411e-05 
5.6862945e-07 1.8226476e-05 -1.6809524e-06 
-2.7419974e-05 -3.5088975e-05 -2.5878719e-06 
-9.0710619e-06 -1.3229717e-05 -5.0049239e-05 
7.4870535e-05 6.7989437e-05 -2.5963865e-05 
5.5976710e-05 1.7931276e-04 7.8269193e-05 
-3.2259477e-04 -4.5485442e-04 3.8992733e-04 
-5.1095663e-04 -1.7424497e-03 1.4743373e-04 
-6.0083566e-04 -1.2641537e-03 -2.2130794e-04 
0.0000000e+00 -5.3929161e-06 0.0000000e+00 
0.0000000e+00 7.4131865e-05 0.0000000e+00 
0.0000000e+00 8.7405577e-05 0.0000000e+00 
0.0000000e+00 3.6277153e-05 0.0000000e+00 
0.0000000e+00 -1.5743803e-05 0.0000000e+00 
0.0000000e+00 4.4948615e-06 0.0000000e+00 
0.0000000e+00 -8.5966132e-04 0.0000000e+00 
0.0000000e+00 -2.3240191e-03 0.0000000e+00 
0.0000000e+00 -2.2570796e-03 0.0000000e+00 
0.0000000e+00 -4.9037673e-04 0.0000000e+00 
0.0000000e+00 8.2460327e-05 0.0000000e+00 
0.0000000e+00 3.6796984e-05 0.0000000e+00 
0.0000000e+00 -4.4528442e-05 0.0000000e+00 
0.0000000e+00 -3.6368125e-05 0.0000000e+00 
0.0000000e+00 1.1663305e-04 0.0000000e+00 
0.0000000e+00 1.8865448e-04 0.0000000e+00 
0.0000000e+00 -9.1223809e-04 0.0000000e+00 
0.0000000e+00 -2.4216468e-03 0.0000000e+00 
0.0000000e+00 -2.2405952e-03 0.0000000e+00 
6.3967273e-06 -1.5970780e-06 -6.5513395e-06 
3.3702520e-07 9.3418748e-06 1.2979824e-06 
-1.2558942e-05 1.2128043e-05 8.6645914e-06 
-9.0272306e-06 1.0392529e-05 9.9884865e-06 
8.8027364e-06 -5.4180089e-07 1.3133674e-05 
2.3180246e-05 2.0390065e-05 1.6881990e-05 
5.5366218e-05 -4.7412203e-05 3.7309710e-06 
5.3392825e-05 -1.0127764e-04 -9.2254331e-06 
4.1728134e-05 -1.0403592e-04 -3.8817814e-07 
3.8732323e-05 -5.3331580e-05 -4.3980531e-06 
3.9730162e-06 1.2937944e-05 -1.5035226e-05 
-4.8251500e-06 3.0771687e-06 -1.0255428e-05 
-1.3848780e-05 -1.1101512e-05 -3.2244379e-06 
-9.7366728e-06 -6.9650632e-06 -8.2195356e-06 
7.6657207e-06 2.1950156e-05 -2.4200883e-06 
1.6247683e-05 5.0757153e-05 1.1388203e-05 
4.4930828e-05 -3.0226845e-05 1.2733596e-05 
5.0875253e-05 -1.1690029e-04 1.3354104e-05 
-7.6551980e-05 -1.1442702e-03 7.6616037e-05 
0.0000000e+00 0.0000000e+00 0.0000000e+00 
0.0000000e+00 0.0000000e+00 0.0000000e+00 
0.0000000e+00 0.0000000e+00 0.0000000e+00 
0.0000000e+00 0.0000000e+00 0.0000000e+00 
0.0000000e+00 0.0000000e+00 0.0000000e+00 
0.0000000e+00 0.0000000e+00 0.0000000e+00 
0.0000000e+00 0.0000000e+00 0.0000000e+00 
0.0000000e+00 0.0000000e+00 0.0000000e+00 
0.0000000e+00 0.0000000e+00 0.0000000e+00 
0.0000000e+00 0.0000000e+00 0.0000000e+00 
0.0000000e+00 0.0000000e+00 0.0000000e+00 
0.0000000e+00 0.0000000e+00 0.0000000e+00 
0.0000000e+00 0.0000000e+00 0.0000000e+00 
0.0000000e+00 0.0000000e+00 0.0000000e+00 
0.0000000e+00 0.0000000e+00 0.0000000e+00 
0.0000000e+00 0.0000000e+00 0.0000000e+00 
0.0000000e+00 0.0000000e+00 0.0000000e+00 
0.0000000e+00 0.0000000e+00 0.0000000e+00 
0.0000000e+00 0.0000000e+00 0.0000000e+00 
0.0000000e+00 0.0000000e+00 0.0000000e+00 
0.0000000e+00 0.0000000e+00 0.0000000e+00 
0.0000000e+00 0.0000000e+00 0.0000000e+00 
0.0000000e+00 0.0000000e+00 0.0000000e+00 
0.0000000e+00 0.0000000e+00 0.0000000e+00 
0.0000000e+00 0.0000000e+00 0.0000000e+00 
0.0000000e+00 0.0000000e+00 0.0000000e+00 
0.0000000e+00 0.0000000e+00 0.0000000e+00 
0.0000000e+00 0.0000000e+00 0.0000000e+00 
0.0000000e+00 0.0000000e+00 0.0000000e+00 
0.0000000e+00 0.0000000e+00 0.0000000e+00 
0.0000000e+00 0.0000000e+00 0.0000000e+00 
0.0000000e+00 0.0000000e+00 0.0000000e+00 
0.0000000e+00 0.0000000e+00 0.0000000e+00 
0.0000000e+00 0.0000000e+00 0.0000000e+00 
0.0000000e+00 0.0000000e+00 0.0000000e+00 
0.0000000e+00 0.0000000e+00 0.0000000e+00 
0.0000000e+00 0.0000000e+00 0.0000000e+00 
0.0000000e+00 0.0000000e+00 0.0000000e+00 
0.0000000e+00 0.0000000e+00 0.0000000e+00 
0.0000000e+00 0.0000000e+00 0.0000000e+00 
0.0000000e+00 0.0000000e+00 0.0000000e+00 
0.0000000e+00 0.0000000e+00 0.0000000e+00 
3.3702174e-06 -1.8089614e-06 -2.7418705e-06 
1.0428532e-05 -7.2163357e-06 -5.9453378e-06 
2.7571858e-05 -9.9553754e-06 -3.9138968e-06 
8.2149205e-07 -3.2638144e-07 -8.1533500e-07 
1.1184533e-06 -5.9826789e-07 1.9891136e-06 
-2.6101877e-06 -1.0438175e-06 9.3170627e-07 
-4.0367599e-06 -1.5325367e-07 5.5537788e-07 
-3.1939878e-06 2.5241382e-06 -2.4600152e-07 