# vtk DataFile Version 4.0
vtk output
ASCII
DATASET UNSTRUCTURED_GRID
POINTS 662 float
0.0000000e+00 0.0000000e+00 0.0000000e+00 
0.0000000e+00 0.0000000e+00 4.0000000e+01 
5.0000000e+00 0.0000000e+00 0.0000000e+00 
5.0000000e+00 0.0000000e+00 4.0000000e+01 
5.0000000e+00 1.0000000e+00 0.0000000e+00 
5.0000000e+00 1.0000000e+00 4.0000000e+01 
0.0000000e+00 1.0000000e+00 0.0000000e+00 
0.0000000e+00 1.0000000e+00 4.0000000e+01 
5.0000000e+00 2.0000000e+00 0.0000000e+00 
5.0000000e+00 2.0000000e+00 4.0000000e+01 
3.0000000e+00 2.0000000e+00 0.0000000e+00 
3.0000000e+00 2.0000000e+00 4.0000000e+01 
0.0000000e+00 2.0000000e+00 0.0000000e+00 
0.0000000e+00 2.0000000e+00 4.0000000e+01 
1.5000000e+00 3.0000000e+00 0.0000000e+00 
1.5000000e+00 3.0000000e+00 4.0000000e+01 
7.5000000e-01 3.0000000e+00 0.0000000e+00 
7.5000000e-01 3.0000000e+00 4.0000000e+01 
0.0000000e+00 3.0000000e+00 0.0000000e+00 
0.0000000e+00 3.0000000e+00 4.0000000e+01 
7.5000000e-01 3.0000000e+00 5.0000000e-01 
7.5000000e-01 3.0000000e+00 1.0000000e+00 
7.5000000e-01 3.0000000e+00 1.5000000e+00 
7.5000000e-01 3.0000000e+00 2.0000000e+00 
7.5000000e-01 3.0000000e+00 2.5000000e+00 
7.5000000e-01 3.0000000e+00 3.0000000e+00 
7.5000000e-01 3.0000000e+00 3.5000000e+00 
7.5000000e-01 3.0000000e+00 4.0000000e+00 
7.5000000e-01 3.0000000e+00 4.5000000e+00 
7.5000000e-01 3.0000000e+00 5.0000000e+00 
7.5000000e-01 3.0000000e+00 5.5000000e+00 
7.5000000e-01 3.0000000e+00 6.0000000e+00 
7.5000000e-01 3.0000000e+00 6.5000000e+00 
7.5000000e-01 3.0000000e+00 7.0000000e+00 
7.5000000e-01 3.0000000e+00 7.5000000e+00 
7.5000000e-01 3.0000000e+00 8.0000000e+00 
7.5000000e-01 3.0000000e+00 8.5000000e+00 
7.5000000e-01 3.0000000e+00 9.0000000e+00 
7.5000000e-01 3.0000000e+00 9.5000000e+00 
7.5000000e-01 3.0000000e+00 1.0000000e+01 
7.5000000e-01 3.0000000e+00 1.0500000e+01 
7.5000000e-01 3.0000000e+00 1.1000000e+01 
7.5000000e-01 3.0000000e+00 1.1500000e+01 
7.5000000e-01 3.0000000e+00 1.2000000e+01 
7.5000000e-01 3.0000000e+00 1.2500000e+01 
7.5000000e-01 3.0000000e+00 1.3000000e+01 
7.5000000e-01 3.0000000e+00 1.3500000e+01 
7.5000000e-01 3.0000000e+00 1.4000000e+01 
7.5000000e-01 3.0000000e+00 1.4500000e+01 
7.5000000e-01 3.0000000e+00 1.5000000e+01 
7.5000000e-01 3.0000000e+00 1.5500000e+01 
7.5000000e-01 3.0000000e+00 1.6000000e+01 
7.5000000e-01 3.0000000e+00 1.6500000e+01 
7.5000000e-01 3.0000000e+00 1.7000000e+01 
7.5000000e-01 3.0000000e+00 1.7500000e+01 
7.5000000e-01 3.0000000e+00 1.8000000e+01 
7.5000000e-01 3.0000000e+00 1.8500000e+01 
7.5000000e-01 3.0000000e+00 1.9000000e+01 
7.5000000e-01 3.0000000e+00 1.9500000e+01 
7.5000000e-01 3.0000000e+00 2.0000000e+01 
7.5000000e-01 3.0000000e+00 2.0500000e+01 
7.5000000e-01 3.0000000e+00 2.1000000e+01 
7.5000000e-01 3.0000000e+00 2.1500000e+01 
7.5000000e-01 3.0000000e+00 2.2000000e+01 
7.5000000e-01 3.0000000e+00 2.2500000e+01 
7.5000000e-01 3.0000000e+00 2.3000000e+01 
7.5000000e-01 3.0000000e+00 2.3500000e+01 
7.5000000e-01 3.0000000e+00 2.4000000e+01 
7.5000000e-01 3.0000000e+00 2.4500000e+01 
7.5000000e-01 3.0000000e+00 2.5000000e+01 
7.5000000e-01 3.0000000e+00 2.5500000e+01 
7.5000000e-01 3.0000000e+00 2.6000000e+01 
7.5000000e-01 3.0000000e+00 2.6500000e+01 
7.5000000e-01 3.0000000e+00 2.7000000e+01 
7.5000000e-01 3.0000000e+00 2.7500000e+01 
7.5000000e-01 3.0000000e+00 2.8000000e+01 
7.5000000e-01 3.0000000e+00 2.8500000e+01 
7.5000000e-01 3.0000000e+00 2.9000000e+01 
7.5000000e-01 3.0000000e+00 2.9500000e+01 
7.5000000e-01 3.0000000e+00 3.0000000e+01 
7.5000000e-01 3.0000000e+00 3.0500000e+01 
7.5000000e-01 3.0000000e+00 3.1000000e+01 
7.5000000e-01 3.0000000e+00 3.1500000e+01 
7.5000000e-01 3.0000000e+00 3.2000000e+01 
7.5000000e-01 3.0000000e+00 3.2500000e+01 
7.5000000e-01 3.0000000e+00 3.3000000e+01 
7.5000000e-01 3.0000000e+00 3.3500000e+01 
7.5000000e-01 3.0000000e+00 3.4000000e+01 
7.5000000e-01 3.0000000e+00 3.4500000e+01 
7.5000000e-01 3.0000000e+00 3.5000000e+01 
7.5000000e-01 3.0000000e+00 3.5500000e+01 
7.5000000e-01 3.0000000e+00 3.6000000e+01 
7.5000000e-01 3.0000000e+00 3.6500000e+01 
7.5000000e-01 3.0000000e+00 3.7000000e+01 
7.5000000e-01 3.0000000e+00 3.7500000e+01 
7.5000000e-01 3.0000000e+00 3.8000000e+01 
7.5000000e-01 3.0000000e+00 3.8500000e+01 
7.5000000e-01 3.0000000e+00 3.9000000e+01 
7.5000000e-01 3.0000000e+00 3.9500000e+01 
7.5000000e-01 3.0000000e+00 4.0500000e+01 
7.5000000e-01 3.0000000e+00 4.1000000e+01 
7.5000000e-01 3.0000000e+00 4.1500000e+01 
7.5000000e-01 3.0000000e+00 4.2000000e+01 
7.5000000e-01 3.0000000e+00 4.2500000e+01 
7.5000000e-01 3.0000000e+00 4.3000000e+01 
7.5000000e-01 3.0000000e+00 4.3500000e+01 
7.5000000e-01 3.0000000e+00 4.4000000e+01 
7.5000000e-01 3.0000000e+00 4.4500000e+01 
7.5000000e-01 3.0000000e+00 4.5000000e+01 
7.5000000e-01 3.0000000e+00 4.5500000e+01 
7.5000000e-01 3.0000000e+00 4.6000000e+01 
7.5000000e-01 3.0000000e+00 4.6500000e+01 
7.5000000e-01 3.0000000e+00 4.7000000e+01 
7.5000000e-01 3.0000000e+00 4.7500000e+01 
7.5000000e-01 3.0000000e+00 4.8000000e+01 
7.5000000e-01 3.0000000e+00 4.8500000e+01 
7.5000000e-01 3.0000000e+00 4.9000000e+01 
7.5000000e-01 3.0000000e+00 4.9500000e+01 
7.5000000e-01 3.0000000e+00 5.0000000e+01 
7.5000000e-01 3.0250001e+00 0.0000000e+00 
7.5000000e-01 3.0250001e+00 5.0000000e-01 
7.5000000e-01 3.0250001e+00 1.0000000e+00 
7.5000000e-01 3.0250001e+00 1.5000000e+00 
7.5000000e-01 3.0250001e+00 2.0000000e+00 
7.5000000e-01 3.0250001e+00 2.5000000e+00 
7.5000000e-01 3.0250001e+00 3.0000000e+00 
7.5000000e-01 3.0250001e+00 3.5000000e+00 
7.5000000e-01 3.0250001e+00 4.0000000e+00 
7.5000000e-01 3.0250001e+00 4.5000000e+00 
7.5000000e-01 3.0250001e+00 5.0000000e+00 
7.5000000e-01 3.0250001e+00 5.5000000e+00 
7.5000000e-01 3.0250001e+00 6.0000000e+00 
7.5000000e-01 3.0250001e+00 6.5000000e+00 
7.5000000e-01 3.0250001e+00 7.0000000e+00 
7.5000000e-01 3.0250001e+00 7.5000000e+00 
7.5000000e-01 3.0250001e+00 8.0000000e+00 
7.5000000e-01 3.0250001e+00 8.5000000e+00 
7.5000000e-01 3.0250001e+00 9.0000000e+00 
7.5000000e-01 3.0250001e+00 9.5000000e+00 
7.5000000e-01 3.0250001e+00 1.0000000e+01 
7.5000000e-01 3.0250001e+00 1.0500000e+01 
7.5000000e-01 3.0250001e+00 1.1000000e+01 
7.5000000e-01 3.0250001e+00 1.1500000e+01 
7.5000000e-01 3.0250001e+00 1.2000000e+01 
7.5000000e-01 3.0250001e+00 1.2500000e+01 
7.5000000e-01 3.0250001e+00 1.3000000e+01 
7.5000000e-01 3.0250001e+00 1.3500000e+01 
7.5000000e-01 3.0250001e+00 1.4000000e+01 
7.5000000e-01 3.0250001e+00 1.4500000e+01 
7.5000000e-01 3.0250001e+00 1.5000000e+01 
7.5000000e-01 3.0250001e+00 1.5500000e+01 
7.5000000e-01 3.0250001e+00 1.6000000e+01 
7.5000000e-01 3.0250001e+00 1.6500000e+01 
7.5000000e-01 3.0250001e+00 1.7000000e+01 
7.5000000e-01 3.0250001e+00 1.7500000e+01 
7.5000000e-01 3.0250001e+00 1.8000000e+01 
7.5000000e-01 3.0250001e+00 1.8500000e+01 
7.5000000e-01 3.0250001e+00 1.9000000e+01 
7.5000000e-01 3.0250001e+00 1.9500000e+01 
7.5000000e-01 3.0250001e+00 2.0000000e+01 
7.5000000e-01 3.0250001e+00 2.0500000e+01 
7.5000000e-01 3.0250001e+00 2.1000000e+01 
7.5000000e-01 3.0250001e+00 2.1500000e+01 
7.5000000e-01 3.0250001e+00 2.2000000e+01 
7.5000000e-01 3.0250001e+00 2.2500000e+01 
7.5000000e-01 3.0250001e+00 2.3000000e+01 
7.5000000e-01 3.0250001e+00 2.3500000e+01 
7.5000000e-01 3.0250001e+00 2.4000000e+01 
7.5000000e-01 3.0250001e+00 2.4500000e+01 
7.5000000e-01 3.0250001e+00 2.5000000e+01 
7.5000000e-01 3.0250001e+00 2.5500000e+01 
7.5000000e-01 3.0250001e+00 2.6000000e+01 
7.5000000e-01 3.0250001e+00 2.6500000e+01 
7.5000000e-01 3.0250001e+00 2.7000000e+01 
7.5000000e-01 3.0250001e+00 2.7500000e+01 
7.5000000e-01 3.0250001e+00 2.8000000e+01 
7.5000000e-01 3.0250001e+00 2.8500000e+01 
7.5000000e-01 3.0250001e+00 2.9000000e+01 
7.5000000e-01 3.0250001e+00 2.9500000e+01 
7.5000000e-01 3.0250001e+00 3.0000000e+01 
7.5000000e-01 3.0250001e+00 3.0500000e+01 
7.5000000e-01 3.0250001e+00 3.1000000e+01 
7.5000000e-01 3.0250001e+00 3.1500000e+01 
7.5000000e-01 3.0250001e+00 3.2000000e+01 
7.5000000e-01 3.0250001e+00 3.2500000e+01 
7.5000000e-01 3.0250001e+00 3.3000000e+01 
7.5000000e-01 3.0250001e+00 3.3500000e+01 
7.5000000e-01 3.0250001e+00 3.4000000e+01 
7.5000000e-01 3.0250001e+00 3.4500000e+01 
7.5000000e-01 3.0250001e+00 3.5000000e+01 
7.5000000e-01 3.0250001e+00 3.5500000e+01 
7.5000000e-01 3.0250001e+00 3.6000000e+01 
7.5000000e-01 3.0250001e+00 3.6500000e+01 
7.5000000e-01 3.0250001e+00 3.7000000e+01 
7.5000000e-01 3.0250001e+00 3.7500000e+01 
7.5000000e-01 3.0250001e+00 3.8000000e+01 
7.5000000e-01 3.0250001e+00 3.8500000e+01 
7.5000000e-01 3.0250001e+00 3.9000000e+01 
7.5000000e-01 3.0250001e+00 3.9500000e+01 
7.5000000e-01 3.0250001e+00 4.0000000e+01 
7.5000000e-01 3.0250001e+00 4.0500000e+01 
7.5000000e-01 3.0250001e+00 4.1000000e+01 
7.5000000e-01 3.0250001e+00 4.1500000e+01 
7.5000000e-01 3.0250001e+00 4.2000000e+01 
7.5000000e-01 3.0250001e+00 4.2500000e+01 
7.5000000e-01 3.0250001e+00 4.3000000e+01 
7.5000000e-01 3.0250001e+00 4.3500000e+01 
7.5000000e-01 3.0250001e+00 4.4000000e+01 
7.5000000e-01 3.0250001e+00 4.4500000e+01 
7.5000000e-01 3.0250001e+00 4.5000000e+01 
7.5000000e-01 3.0250001e+00 4.5500000e+01 
7.5000000e-01 3.0250001e+00 4.6000000e+01 
7.5000000e-01 3.0250001e+00 4.6500000e+01 
7.5000000e-01 3.0250001e+00 4.7000000e+01 
7.5000000e-01 3.0250001e+00 4.7500000e+01 
7.5000000e-01 3.0250001e+00 4.8000000e+01 
7.5000000e-01 3.0250001e+00 4.8500000e+01 
7.5000000e-01 3.0250001e+00 4.9000000e+01 
7.5000000e-01 3.0250001e+00 4.9500000e+01 
7.5000000e-01 3.0250001e+00 5.0000000e+01 
7.5000000e-01 3.0250001e+00 3.5750000e+01 
3.0000000e+00 2.0000000e+00 3.6000000e+01 
8.0487806e-01 3.0000000e+00 3.6000000e+01 
0.0000000e+00 0.0000000e+00 2.0000000e+00 
0.0000000e+00 0.0000000e+00 4.0000000e+00 
0.0000000e+00 0.0000000e+00 6.0000000e+00 
0.0000000e+00 0.0000000e+00 8.0000000e+00 
0.0000000e+00 0.0000000e+00 1.0000000e+01 
0.0000000e+00 0.0000000e+00 1.2000000e+01 
0.0000000e+00 0.0000000e+00 1.4000000e+01 
[...]
POINT_DATA 662
FIELD FieldData 3
DISPLACEMENT 3 662  float
0.0000000e+00 0.0000000e+00 0.0000000e+00 
0.0000000e+00 0.0000000e+00 0.0000000e+00 
0.0000000e+00 0.0000000e+00 0.0000000e+00 
0.0000000e+00 0.0000000e+00 0.0000000e+00 
4.5509014e-06 -5.7068969e-06 -1.6882993e-06 
3.4719605e-07 9.3466736e-07 1.3173693e-06 
0.0000000e+00 -2.5567545e-06 0.0000000e+00 
0.0000000e+00 -1.1052752e-05 0.0000000e+00 
-1.2288807e-07 -5.8965243e-06 -4.3909640e-06 
-2.7524375e-06 2.3670859e-06 -1.4486124e-06 
-4.2764017e-07 -2.3478671e-05 -2.6529449e-05 
-1.4361617e-06 -3.2846351e-06 -5.3891617e-06 
0.0000000e+00 -3.7472314e-06 0.0000000e+00 
0.0000000e+00 -1.9573303e-05 0.0000000e+00 
-2.1697115e-06 -2.0647707e-05 -9.7878779e-05 
-9.7192342e-06 -1.5573256e-05 -3.3939770e-05 
-9.7307566e-06 3.8602844e-05 -5.1090454e-05 
2.1763842e-06 -3.3055912e-05 -3.8883532e-05 
0.0000000e+00 -7.6986225e-06 0.0000000e+00 
0.0000000e+00 -2.6761976e-05 0.0000000e+00 
2.2718752e-05 4.5408171e-05 -7.1108843e-05 
3.5665329e-05 6.3217623e-05 -5.6058470e-05 
4.2035037e-05 8.6074688e-05 -4.7805570e-05 
4.5957007e-05 1.1239283e-04 -3.1871285e-05 
4.8608177e-05 1.4034561e-04 -6.6496327e-06 
4.4559180e-05 1.6468758e-04 9.3082162e-06 
3.0685176e-05 1.7415776e-04 3.1195141e-05 
2.0272113e-05 1.3875525e-04 5.1237646e-05 
-1.2134634e-05 1.6734226e-05 8.8603301e-05 
-2.3138620e-05 -2.3206508e-04 1.2496473e-04 
-5.7211084e-05 -6.6812913e-04 1.7196340e-04 
-1.1336741e-04 -1.3328550e-03 1.1461665e-04 
-2.5013663e-04 -2.2440492e-03 1.9195929e-04 
-2.5145840e-04 -3.2311149e-03 1.7442607e-04 
-1.3603231e-04 -3.9998894e-03 1.0475108e-04 
-1.0075774e-04 -4.0159398e-03 1.0335046e-04 
-2.4353006e-04 -3.8424067e-03 3.4337587e-05 
-3.1531384e-04 -3.8383706e-03 1.2447403e-05 
-2.0271887e-04 -4.1067647e-03 -2.9043969e-05 
-4.7675585e-05 -4.1418080e-03 -7.8825113e-05 
-8.1853570e-05 -3.4512964e-03 -1.5864827e-04 
-1.8124412e-04 -2.4193579e-03 -1.7196409e-04 
-1.9042747e-04 -1.5158856e-03 -1.5004278e-04 
-8.0244783e-05 -8.2731090e-04 -7.9446552e-05 
-4.3984968e-05 -3.9182452e-04 -1.1186938e-04 
-3.0144212e-05 -1.4642702e-04 -7.9416684e-05 
-3.0007623e-05 -2.9993731e-05 -5.9188351e-05 
-2.0667667e-05 8.0965656e-06 -4.2187785e-05 
-1.2142825e-05 1.3678957e-06 -2.6486292e-05 
-4.0421378e-06 -2.5232754e-05 -1.6034342e-05 
-2.8441711e-06 -5.4409662e-05 -1.5324917e-05 
-9.6464028e-06 -7.9049525e-05 -1.2982738e-05 
-1.2830733e-05 -9.5423820e-05 6.7578349e-06 
-1.5113273e-05 -1.0542235e-04 2.6254413e-05 
-3.3381551e-05 -1.1240400e-04 5.8431568e-05 
-5.1633375e-05 -1.1634880e-04 8.3039202e-05 
-5.1585790e-05 -1.1594458e-04 6.1646831e-05 
-5.4796084e-05 -1.1070866e-04 2.8162391e-05 
-3.9036171e-05 -9.9080171e-05 -1.6069072e-05 
-1.6175693e-05 -7.9586869e-05 -6.1884748e-05 
3.2685923e-06 -4.9013845e-05 -7.6199067e-05 
1.7293680e-05 -1.0062681e-05 -7.6291217e-05 
3.2291588e-05 3.5868456e-05 -7.8506790e-05 
4.1763022e-05 8.4617459e-05 -6.7214132e-05 
5.0549912e-05 1.3118447e-04 -4.4387987e-05 
5.4344586e-05 1.6854008e-04 -1.8100658e-05 
4.2099593e-05 1.8365958e-04 9.8527426e-06 
3.0234436e-05 1.4698361e-04 3.7197766e-05 
-1.2261680e-05 1.3404209e-05 6.8630266e-05 
-2.1158145e-05 -2.6125362e-04 9.9865312e-05 
-3.5803405e-05 -7.4200443e-04 1.3698284e-04 
-8.3116924e-05 -1.4641572e-03 6.8995163e-05 
-2.2797461e-04 -2.4318385e-03 1.6875951e-04 
-2.3227984e-04 -3.4279958e-03 1.6801494e-04 
-1.3368543e-04 -4.0890062e-03 1.3710003e-04 
-1.0245861e-04 -4.0137633e-03 1.8533735e-04 
-2.5264334e-04 -3.8699878e-03 1.3033792e-04 
-3.2095038e-04 -3.9358363e-03 1.1256079e-04 
-2.1284353e-04 -4.2381422e-03 7.3744202e-05 
-7.6956057e-05 -4.1733575e-03 4.1212741e-05 
-1.2361116e-04 -3.3879227e-03 -1.0083151e-04 
-2.2990254e-04 -2.3592969e-03 -1.6155309e-04 
-2.2242869e-04 -1.4825618e-03 -1.8959944e-04 
-1.0247199e-04 -8.1692531e-04 -1.6661537e-04 
-5.5600332e-05 -3.8454245e-04 -2.1060076e-04 
-3.1105566e-05 -1.2527364e-04 -1.8224069e-04 
-1.9064530e-05 1.7484828e-05 -1.6844657e-04 
3.0554024e-06 8.8170062e-05 -1.4453608e-04 
2.5167428e-05 1.1367304e-04 -9.5559408e-05 
4.2820135e-05 1.1511426e-04 -4.5550267e-05 
3.5538353e-05 1.0421375e-04 -7.4503478e-06 
2.5403710e-05 8.5621192e-05 2.9419947e-05 
1.9299507e-05 6.1299739e-05 5.0520121e-05 
1.3047589e-05 3.4654051e-05 6.0679198e-05 
2.5927723e-06 8.9707783e-06 7.0334332e-05 
-7.5787266e-06 -1.1886515e-05 6.4644773e-05 
-1.0788530e-05 -2.6141959e-05 4.6408339e-05 
-1.4448108e-05 -3.3919481e-05 2.1866108e-05 
-1.0593478e-05 -3.6038218e-05 -2.5599177e-06 
0.0000000e+00 -2.6046129e-05 0.0000000e+00 
0.0000000e+00 -1.4882422e-05 0.0000000e+00 
0.0000000e+00 -9.4447330e-07 0.0000000e+00 
0.0000000e+00 1.3468790e-05 0.0000000e+00 
0.0000000e+00 2.5601628e-05 0.0000000e+00 
0.0000000e+00 3.2943473e-05 0.0000000e+00 
0.0000000e+00 3.3886714e-05 0.0000000e+00 
0.0000000e+00 2.8168894e-05 0.0000000e+00 
0.0000000e+00 1.6920305e-05 0.0000000e+00 
0.0000000e+00 2.2980137e-06 0.0000000e+00 
0.0000000e+00 -1.3060016e-05 0.0000000e+00 
0.0000000e+00 -2.6453281e-05 0.0000000e+00 
0.0000000e+00 -3.5333462e-05 0.0000000e+00 
0.0000000e+00 -3.7546095e-05 0.0000000e+00 
0.0000000e+00 -3.1852403e-05 0.0000000e+00 
0.0000000e+00 -1.8650358e-05 0.0000000e+00 
0.0000000e+00 -4.4460600e-07 0.0000000e+00 
0.0000000e+00 1.8407763e-05 0.0000000e+00 
0.0000000e+00 3.2770171e-05 0.0000000e+00 
0.0000000e+00 3.8230410e-05 0.0000000e+00 
0.0000000e+00 3.8812297e-05 0.0000000e+00 
0.0000000e+00 4.5576508e-05 0.0000000e+00 
0.0000000e+00 6.3001855e-05 0.0000000e+00 
0.0000000e+00 8.6053864e-05 0.0000000e+00 
0.0000000e+00 1.1252953e-04 0.0000000e+00 
0.0000000e+00 1.4067386e-04 0.0000000e+00 
0.0000000e+00 1.6574119e-04 0.0000000e+00 
0.0000000e+00 1.7482041e-04 0.0000000e+00 
0.0000000e+00 1.3879535e-04 0.0000000e+00 
0.0000000e+00 1.7848528e-05 0.0000000e+00 
0.0000000e+00 -2.3271854e-04 0.0000000e+00 
0.0000000e+00 -6.6959555e-04 0.0000000e+00 
0.0000000e+00 -1.3418753e-03 0.0000000e+00 
0.0000000e+00 -2.2515166e-03 0.0000000e+00 
0.0000000e+00 -3.2626900e-03 0.0000000e+00 
0.0000000e+00 -4.0237000e-03 0.0000000e+00 
0.0000000e+00 -4.0465030e-03 0.0000000e+00 
0.0000000e+00 -3.8561928e-03 0.0000000e+00 
0.0000000e+00 -3.8690264e-03 0.0000000e+00 
0.0000000e+00 -4.1267737e-03 0.0000000e+00 
0.0000000e+00 -4.1764551e-03 0.0000000e+00 
0.0000000e+00 -3.4694928e-03 0.0000000e+00 
0.0000000e+00 -2.4379601e-03 0.0000000e+00 
0.0000000e+00 -1.5181530e-03 0.0000000e+00 
0.0000000e+00 -8.3165057e-04 0.0000000e+00 
0.0000000e+00 -3.9168267e-04 0.0000000e+00 
0.0000000e+00 -1.4551915e-04 0.0000000e+00 
0.0000000e+00 -2.9030207e-05 0.0000000e+00 
0.0000000e+00 8.5062402e-06 0.0000000e+00 
0.0000000e+00 1.7407258e-06 0.0000000e+00 
0.0000000e+00 -2.4716965e-05 0.0000000e+00 
0.0000000e+00 -5.4231874e-05 0.0000000e+00 
0.0000000e+00 -7.8786710e-05 0.0000000e+00 
0.0000000e+00 -9.5365525e-05 0.0000000e+00 
0.0000000e+00 -1.0561869e-04 0.0000000e+00 
0.0000000e+00 -1.1250096e-04 0.0000000e+00 
0.0000000e+00 -1.1634146e-04 0.0000000e+00 
0.0000000e+00 -1.1602949e-04 0.0000000e+00 
0.0000000e+00 -1.1071836e-04 0.0000000e+00 
0.0000000e+00 -9.9145400e-05 0.0000000e+00 
0.0000000e+00 -7.9268066e-05 0.0000000e+00 
0.0000000e+00 -4.9066559e-05 0.0000000e+00 
0.0000000e+00 -9.9411218e-06 0.0000000e+00 
0.0000000e+00 3.5902962e-05 0.0000000e+00 
0.0000000e+00 8.4662497e-05 0.0000000e+00 
0.0000000e+00 1.3150283e-04 0.0000000e+00 
0.0000000e+00 1.6946573e-04 0.0000000e+00 
0.0000000e+00 1.8451241e-04 0.0000000e+00 
0.0000000e+00 1.4713455e-04 0.0000000e+00 
0.0000000e+00 1.4561561e-05 0.0000000e+00 
0.0000000e+00 -2.6243340e-04 0.0000000e+00 
0.0000000e+00 -7.4393675e-04 0.0000000e+00 
0.0000000e+00 -1.4748386e-03 0.0000000e+00 
0.0000000e+00 -2.4408747e-03 0.0000000e+00 
0.0000000e+00 -3.4632192e-03 0.0000000e+00 
0.0000000e+00 -4.1131126e-03 0.0000000e+00 
0.0000000e+00 -4.0439069e-03 0.0000000e+00 
0.0000000e+00 -3.8835374e-03 0.0000000e+00 
0.0000000e+00 -3.9679753e-03 0.0000000e+00 
0.0000000e+00 -4.2597558e-03 0.0000000e+00 
0.0000000e+00 -4.2074062e-03 0.0000000e+00 
0.0000000e+00 -3.4043638e-03 0.0000000e+00 
0.0000000e+00 -2.3754488e-03 0.0000000e+00 
0.0000000e+00 -1.4842717e-03 0.0000000e+00 
0.0000000e+00 -8.2037988e-04 0.0000000e+00 
0.0000000e+00 -3.8431917e-04 0.0000000e+00 
0.0000000e+00 -1.2436803e-04 0.0000000e+00 
0.0000000e+00 1.8446410e-05 0.0000000e+00 
0.0000000e+00 8.8499335e-05 0.0000000e+00 
0.0000000e+00 1.1417242e-04 0.0000000e+00 
0.0000000e+00 1.1548745e-04 0.0000000e+00 
0.0000000e+00 1.0433740e-04 0.0000000e+00 
0.0000000e+00 8.5538173e-05 0.0000000e+00 
0.0000000e+00 6.1295934e-05 0.0000000e+00 
0.0000000e+00 3.4654899e-05 0.0000000e+00 
0.0000000e+00 9.0978574e-06 0.0000000e+00 
0.0000000e+00 -1.1789895e-05 0.0000000e+00 
0.0000000e+00 -2.6124502e-05 0.0000000e+00 
0.0000000e+00 -3.3943750e-05 0.0000000e+00 
0.0000000e+00 -3.6037134e-05 0.0000000e+00 
0.0000000e+00 -3.3143286e-05 0.0000000e+00 
0.0000000e+00 -2.5985541e-05 0.0000000e+00 
0.0000000e+00 -1.4830961e-05 0.0000000e+00 
0.0000000e+00 -9.1698820e-07 0.0000000e+00 
0.0000000e+00 1.3461655e-05 0.0000000e+00 
0.0000000e+00 2.5558333e-05 0.0000000e+00 
0.0000000e+00 3.2876829e-05 0.0000000e+00 
0.0000000e+00 3.3821365e-05 0.0000000e+00 
0.0000000e+00 2.8127395e-05 0.0000000e+00 
0.0000000e+00 1.6908096e-05 0.0000000e+00 
0.0000000e+00 2.3027430e-06 0.0000000e+00 
0.0000000e+00 -1.3052418e-05 0.0000000e+00 
0.0000000e+00 -2.6441499e-05 0.0000000e+00 
0.0000000e+00 -3.5300880e-05 0.0000000e+00 
0.0000000e+00 -3.7479193e-05 0.0000000e+00 
0.0000000e+00 -3.1760024e-05 0.0000000e+00 
0.0000000e+00 -1.8565399e-05 0.0000000e+00 
0.0000000e+00 -4.0617127e-07 0.0000000e+00 
0.0000000e+00 1.8377648e-05 0.0000000e+00 
0.0000000e+00 3.2679625e-05 0.0000000e+00 
0.0000000e+00 3.8115471e-05 0.0000000e+00 
0.0000000e+00 9.5806579e-05 0.0000000e+00 
3.4463003e-06 2.6909076e-05 3.1399657e-06 
2.6154412e-05 8.6700733e-05 2.9349743e-05 
0.0000000e+00 0.0000000e+00 0.0000000e+00 
0.0000000e+00 0.0000000e+00 0.0000000e+00 
0.0000000e+00 0.0000000e+00 0.0000000e+00 
0.0000000e+00 0.0000000e+00 0.0000000e+00 
0.0000000e+00 0.0000000e+00 0.0000000e+00 
0.0000000e+00 0.0000000e+00 0.0000000e+00 
0.0000000e+00 0.0000000e+00 0.0000000e+00 
0.0000000e+00 0.0000000e+00 0.0000000e+00 
0.0000000e+00 0.0000000e+00 0.0000000e+00 
0.0000000e+00 0.0000000e+00 0.0000000e+00 
0.0000000e+00 0.0000000e+00 0.0000000e+00 
0.0000000e+00 0.0000000e+00 0.0000000e+00 
0.0000000e+00 0.0000000e+00 0.0000000e+00 
0.0000000e+00 0.0000000e+00 0.0000000e+00 
0.0000000e+00 0.0000000e+00 0.0000000e+00 
0.0000000e+00 0.0000000e+00 0.0000000e+00 
0.0000000e+00 0.0000000e+00 0.0000000e+00 
0.0000000e+00 0.0000000e+00 0.0000000e+00 
0.0000000e+00 0.0000000e+00 0.0000000e+00 
0.0000000e+00 0.0000000e+00 0.0000000e+00 
0.0000000e+00 0.0000000e+00 0.0000000e+00 
0.0000000e+00 0.0000000e+00 0.0000000e+00 
0.0000000e+00 0.0000000e+00 0.0000000e+00 
0.0000000e+00 0.0000000e+00 0.0000000e+00 
0.0000000e+00 0.0000000e+00 0.0000000e+00 
0.0000000e+00 0.0000000e+00 0.0000000e+00 
0.0000000e+00 0.0000000e+00 0.0000000e+00 
0.0000000e+00 0.0000000e+00 0.0000000e+00 
0.0000000e+00 0.0000000e+00 0.0000000e+00 
0.0000000e+00 0.0000000e+00 0.0000000e+00 
0.0000000e+00 0.0000000e+00 0.0000000e+00 
0.0000000e+00 0.0000000e+00 0.0000000e+00 
0.0000000e+00 0.0000000e+00 0.0000000e+00 
0.0000000e+00 0.0000000e+00 0.0000000e+00 
0.0000000e+00 0.0000000e+00 0.0000000e+00 
0.0000000e+00 0.0000000e+00 0.0000000e+00 
0.0000000e+00 0.0000000e+00 0.0000000e+00 
0.0000000e+00 0.0000000e+00 0.0000000e+00 
0.0000000e+00 0.0000000e+00 0.0000000e+00 
0.0000000e+00 0.0000000e+00 0.0000000e+00 
0.0000000e+00 0.0000000e+00 0.0000000e+00 
0.0000000e+00 0.0000000e+00 0.0000000e+00 
-2.2232857e-06 -2.8518937e-06 -4.9885016e-06 
7.6816723e-06 9.4393118e-07 -1.1164745e-05 
3.0735409e-05 -3.3081010e-06 -1.3976321e-05 
4.5435452e-05 -1.3700045e-05 -7.6024212e-06 
4.5242221e-05 -8.8657371e-06 1.8057719e-06 
1.8915347e-05 -7.8623128e-07 -2.0819573e-06 
5.3434810e-06 2.3866439e-06 4.1240100e-06 
5.6140534e-06 1.1333137e-06 7.7990671e-06 
2.8869511e-06 -5.6779559e-06 4.8847915e-06 
-2.0801638e-06 -5.0710896e-06 2.2583447e-06 
-4.6017535e-06 3.4471559e-06 -1.3252187e-06 
7.4119703e-06 -2.3444306e-06 -6.6584116e-06 
2.8118186e-05 -5.7445191e-06 -6.9323801e-06 
4.8687205e-05 -8.8781762e-06 -2.9970654e-06 
4.7374255e-05 -1.2652054e-05 3.6597778e-06 
2.1203634e-05 -5.6061349e-06 4.1836720e-06 
1.1684477e-06 6.2169797e-06 8.8596516e-06 
-2.7339775e-06 2.8855748e-06 4.5416964e-06 
1.9732365e-06 -4.6033929e-06 2.5937106e-06 
0.0000000e+00 4.2741402e-05 0.0000000e+00 
0.0000000e+00 3.2541157e-05 0.0000000e+00 
0.0000000e+00 -1.8722298e-04 0.0000000e+00 
0.0000000e+00 -5.1344599e-04 0.0000000e+00 
0.0000000e+00 -4.7666993e-04 0.0000000e+00 
0.0000000e+00 -1.6111700e-04 0.0000000e+00 
0.0000000e+00 -2.9417683e-05 0.0000000e+00 
0.0000000e+00 -3.2800468e-05 0.0000000e+00 
0.0000000e+00 -4.1090985e-05 0.0000000e+00 
0.0000000e+00 -3.9510487e-05 0.0000000e+00 
0.0000000e+00 3.0309104e-05 0.0000000e+00 
0.0000000e+00 3.2991982e-05 0.0000000e+00 
0.0000000e+00 -1.8579244e-04 0.0000000e+00 
0.0000000e+00 -4.9658184e-04 0.0000000e+00 
0.0000000e+00 -5.1079050e-04 0.0000000e+00 
0.0000000e+00 -1.8689093e-04 0.0000000e+00 
0.0000000e+00 1.0958121e-05 0.0000000e+00 
0.0000000e+00 3.7350488e-05 0.0000000e+00 
0.0000000e+00 -1.0135818e-05 0.0000000e+00 
6.9922891e-07 -1.2584935e-05 -6.7387823e-06 
-3.9636548e-06 -1.5435728e-05 -8.1329554e-06 
4.3185349e-07 -1.3230944e-06 -2.1900353e-06 
1.2917682e-06 -8.0820919e-06 2.2964216e-06 
3.8341523e-06 -2.5980132e-06 -1.0770086e-05 
2.0269497e-05 9.8461589e-07 -1.7893013e-05 
3.8349328e-05 9.0308708e-07 -6.0503407e-06 
4.9059276e-05 -2.3005707e-06 -5.0555313e-06 
3.3775825e-05 -8.5786214e-06 -1.1317921e-06 
1.1472384e-05 1.5329069e-06 -1.0564828e-05 
1.7858794e-06 3.5595394e-06 4.0990749e-06 
5.2423097e-06 -7.0395777e-07 1.2130918e-05 
-1.1953422e-06 -7.9368065e-06 9.2399096e-06 
-9.0554386e-06 -5.3011677e-06 -1.8412379e-06 
-2.0501839e-06 4.3110740e-06 -8.6150967e-06 
2.3744848e-05 -3.1967636e-06 -8.1714907e-06 
3.0930179e-05 -3.3332597e-06 -1.6296842e-07 
3.9987368e-05 -8.4047915e-06 4.5981524e-06 
2.5871783e-05 -1.0255068e-05 4.9946066e-06 
4.5650477e-06 -1.5806850e-06 -7.6005758e-06 
3.5386622e-06 6.5929889e-06 2.7146955e-06 
2.2959500e-06 8.7814135e-07 7.0384231e-06 
3.5445048e-06 -3.9726074e-06 4.8855695e-06 
1.2332071e-06 -1.3339064e-05 -3.0777916e-05 
0.0000000e+00 8.0853293e-05 0.0000000e+00 
0.0000000e+00 6.8700901e-05 0.0000000e+00 
0.0000000e+00 -4.0243086e-04 0.0000000e+00 
0.0000000e+00 -1.1435950e-03 0.0000000e+00 
0.0000000e+00 -1.0814340e-03 0.0000000e+00 
0.0000000e+00 -3.0214150e-04 0.0000000e+00 
0.0000000e+00 -3.6251146e-05 0.0000000e+00 
0.0000000e+00 -5.9468242e-05 0.0000000e+00 
0.0000000e+00 -7.1279756e-05 0.0000000e+00 
0.0000000e+00 -6.8700756e-05 0.0000000e+00 
0.0000000e+00 5.7820234e-05 0.0000000e+00 
0.0000000e+00 6.9382491e-05 0.0000000e+00 
0.0000000e+00 -4.1679866e-04 0.0000000e+00 
0.0000000e+00 -1.1258645e-03 0.0000000e+00 
0.0000000e+00 -1.1349455e-03 0.0000000e+00 
0.0000000e+00 -3.4069188e-04 0.0000000e+00 
0.0000000e+00 2.7297972e-05 0.0000000e+00 
0.0000000e+00 6.2290906e-05 0.0000000e+00 
0.0000000e+00 -1.6078691e-05 0.0000000e+00 
-3.1851687e-06 -1.2802924e-05 2.4157771e-06 
6.5758119e-05 7.4308104e-05 -2.8413318e-05 
4.9962786e-05 1.1906557e-04 6.9825372e-05 
-2.6101578e-04 -3.9175403e-04 3.2110786e-04 
-6.4233301e-04 -1.2916243e-03 1.0511617e-04 
-5.8017951e-04 -1.3983882e-03 -1.8005809e-04 
-1.7401135e-04 -2.3056002e-04 -2.0987605e-04 
2.4481881e-06 -1.5951215e-05 -4.9269813e-05 
-2.1367223e-05 -5.5075485e-05 -1.8841625e-05 
-7.1712871e-05 -8.2271050e-05 9.7760632e-05 
-2.2962411e-05 -5.9288250e-05 -9.6142445e-05 
5.8378770e-05 3.5554509e-05 -9.1206268e-05 
5.7792280e-05 1.5065975e-04 7.1781673e-05 
-2.4854715e-04 -4.0209558e-04 2.7349818e-04 
-6.4138701e-04 -1.2495873e-03 1.8073857e-04 
-6.1931560e-04 -1.4378849e-03 -3.8680977e-05 
-1.8186044e-04 -2.8225497e-04 -3.0504199e-04 
2.6502585e-05 4.8959260e-05 -1.7740800e-04 
3.2076921e-05 6.3011219e-05 3.9676655e-05 
-3.7827456e-06 -1.1481506e-05 7.5339398e-05 
0.0000000e+00 1.0483836e-04 0.0000000e+00 
0.0000000e+00 1.3268154e-04 0.0000000e+00 
0.0000000e+00 -7.7305723e-04 0.0000000e+00 
0.0000000e+00 -2.2515417e-03 0.0000000e+00 
0.0000000e+00 -2.1100314e-03 0.0000000e+00 
0.0000000e+00 -5.1085575e-04 0.0000000e+00 
0.0000000e+00 -4.4977273e-08 0.0000000e+00 
0.0000000e+00 -8.7998647e-05 0.0000000e+00 
0.0000000e+00 -8.3570347e-05 0.0000000e+00 
0.0000000e+00 -8.1824452e-05 0.0000000e+00 
0.0000000e+00 6.9575828e-05 0.0000000e+00 
0.0000000e+00 1.3581435e-04 0.0000000e+00 
0.0000000e+00 -8.4634224e-04 0.0000000e+00 
0.0000000e+00 -2.2727074e-03 0.0000000e+00 
0.0000000e+00 -2.1571731e-03 0.0000000e+00 
0.0000000e+00 -5.2885758e-04 0.0000000e+00 
0.0000000e+00 6.9152207e-05 0.0000000e+00 
0.0000000e+00 7.7894707e-05 0.0000000e+00 
0.0000000e+00 -1.6939743e-05 0.0000000e+00 
1.0165706e-05 1.9299583e-05 -1.5699861e-05 
2.9678327e-05 3.6519112e-05 2.9521559e-06 
5.1447958e-05 -2.5055197e-05 5.4340512e-06 
5.3419804e-05 -1.0323818e-04 -2.1300250e-05 
4.7383972e-05 -8.3408180e-05 -8.2083288e-06 
3.3515713e-05 -4.0892442e-05 -3.4319414e-06 
7.6996166e-06 -6.4211276e-06 -9.4327679e-06 
-6.6174653e-06 -4.0704381e-06 3.4822156e-06 
-1.7059103e-05 -1.7645247e-05 1.3503793e-05 
-7.3796377e-06 -2.3078901e-05 -1.2124689e-05 
3.5526994e-06 1.5289923e-05 -1.5237553e-05 
2.8129998e-05 4.5377681e-05 4.6548198e-06 
6.5307380e-05 -3.3902634e-05 4.7544690e-06 
6.1884355e-05 -7.8298173e-05 9.7490492e-06 
3.5146728e-05 -1.1003710e-04 2.1266582e-05 
2.5066065e-05 -7.2649913e-05 -1.4827634e-05 
2.0059706e-07 2.2065218e-05 -3.7792026e-05 
1.3189426e-06 -5.4780871e-06 1.4763301e-05 
2.0579180e-05 5.1210474e-05 2.3483830e-05 
0.0000000e+00 0.0000000e+00 0.0000000e+00 
0.0000000e+00 0.0000000e+00 0.0000000e+00 
0.0000000e+00 0.0000000e+00 0.0000000e+00 
0.0000000e+00 0.0000000e+00 0.0000000e+00 
0.0000000e+00 0.0000000e+00 0.0000000e+00 
0.0000000e+00 0.0000000e+00 0.0000000e+00 
0.0000000e+00 0.0000000e+00 0.0000000e+00 
0.0000000e+00 0.0000000e+00 0.0000000e+00 
0.0000000e+00 0.0000000e+00 0.0000000e+00 
0.0000000e+00 0.0000000e+00 0.0000000e+00 
0.0000000e+00 0.0000000e+00 0.0000000e+00 
0.0000000e+00 0.0000000e+00 0.0000000e+00 
0.0000000e+00 0.0000000e+00 0.0000000e+00 
0.0000000e+00 0.0000000e+00 0.0000000e+00 
0.0000000e+00 0.0000000e+00 0.0000000e+00 
0.0000000e+00 0.0000000e+00 0.0000000e+00 
0.0000000e+00 0.0000000e+00 0.0000000e+00 
0.0000000e+00 0.0000000e+00 0.0000000e+00 
0.0000000e+00 0.0000000e+00 0.0000000e+00 
0.0000000e+00 0.0000000e+00 0.0000000e+00 
0.0000000e+00 0.0000000e+00 0.0000000e+00 
0.0000000e+00 0.0000000e+00 0.0000000e+00 
0.0000000e+00 0.0000000e+00 0.0000000e+00 
0.0000000e+00 0.0000000e+00 0.0000000e+00 
0.0000000e+00 0.0000000e+00 0.0000000e+00 
0.0000000e+00 0.0000000e+00 0.0000000e+00 
0.0000000e+00 0.0000000e+00 0.0000000e+00 
0.0000000e+00 0.0000000e+00 0.0000000e+00 
0.0000000e+00 0.0000000e+00 0.0000000e+00 
0.0000000e+00 0.0000000e+00 0.0000000e+00 
0.0000000e+00 0.0000000e+00 0.0000000e+00 
0.0000000e+00 0.0000000e+00 0.0000000e+00 
0.0000000e+00 0.0000000e+00 0.0000000e+00 
0.0000000e+00 0.0000000e+00 0.0000000e+00 
0.0000000e+00 0.0000000e+00 0.0000000e+00 
0.0000000e+00 0.0000000e+00 0.0000000e+00 
0.0000000e+00 0.0000000e+00 0.0000000e+00 
0.0000000e+00 0.0000000e+00 0.0000000e+00 
0.0000000e+00 0.0000000e+00 0.0000000e+00 
0.0000000e+00 0.0000000e+00 0.0000000e+00 
0.0000000e+00 0.0000000e+00 0.0000000e+00 
0.0000000e+00 0.0000000e+00 0.0000000e+00 
3.0170006e-07 -1.5805473e-06 -9.7109159e-07 
3.9698666e-06 -7.8544224e-07 8.2465624e-07 
2.2941438e-06 4.0379530e-07 2.3516220e-06 
-8.0493845e-07 1.4518803e-06 -1.4436255e-06 
6.3877374e-06 -5.8792989e-06 -3.8325193e-06 
2.3680879e-05 -8.5462480e-06 -2.8029772e-06 
2.5808749e-05 -1.1709416e-05 -7.9289515e-07 