# vtk DataFile Version 4.0
vtk output
ASCII
DATASET UNSTRUCTURED_GRID
POINTS 662 float
0.0000000e+00 0.0000000e+00 0.0000000e+00 
0.0000000e+00 0.0000000e+00 4.0000000e+01 
5.0000000e+00 0.0000000e+00 0.0000000e+00 
5.0000000e+00 0.0000000e+00 4.0000000e+01 
5.0000000e+00 1.0000000e+00 0.0000000e+00 
5.0000000e+00 1.0000000e+00 4.0000000e+01 
0.0000000e+00 1.0000000e+00 0.0000000e+00 
0.0000000e+00 1.0000000e+00 4.0000000e+01 
5.0000000e+00 2.0000000e+00 0.0000000e+00 
5.0000000e+00 2.0000000e+00 4.0000000e+01 
3.0000000e+00 2.0000000e+00 0.0000000e+00 
3.0000000e+00 2.0000000e+00 4.0000000e+01 
0.0000000e+00 2.0000000e+00 0.0000000e+00 
0.0000000e+00 2.0000000e+00 4.0000000e+01 
1.5000000e+00 3.0000000e+00 0.0000000e+00 
1.5000000e+00 3.0000000e+00 4.0000000e+01 
7.5000000e-01 3.0000000e+00 0.0000000e+00 
7.5000000e-01 3.0000000e+00 4.0000000e+01 
0.0000000e+00 3.0000000e+00 0.0000000e+00 
0.0000000e+00 3.0000000e+00 4.0000000e+01 
7.5000000e-01 3.0000000e+00 5.0000000e-01 
7.5000000e-01 3.0000000e+00 1.0000000e+00 
7.5000000e-01 3.0000000e+00 1.5000000e+00 
7.5000000e-01 3.0000000e+00 2.0000000e+00 
7.5000000e-01 3.0000000e+00 2.5000000e+00 
7.5000000e-01 3.0000000e+00 3.0000000e+00 
7.5000000e-01 3.0000000e+00 3.5000000e+00 
7.5000000e-01 3.0000000e+00 4.0000000e+00 
7.5000000e-01 3.0000000e+00 4.5000000e+00 
7.5000000e-01 3.0000000e+00 5.0000000e+00 
7.5000000e-01 3.0000000e+00 5.5000000e+00 
7.5000000e-01 3.0000000e+00 6.0000000e+00 
7.5000000e-01 3.0000000e+00 6.5000000e+00 
7.5000000e-01 3.0000000e+00 7.0000000e+00 
7.5000000e-01 3.0000000e+00 7.5000000e+00 
7.5000000e-01 3.0000000e+00 8.0000000e+00 
7.5000000e-01 3.0000000e+00 8.5000000e+00 
7.5000000e-01 3.0000000e+00 9.0000000e+00 
7.5000000e-01 3.0000000e+00 9.5000000e+00 
7.5000000e-01 3.0000000e+00 1.0000000e+01 
7.5000000e-01 3.0000000e+00 1.0500000e+01 
7.5000000e-01 3.0000000e+00 1.1000000e+01 
7.5000000e-01 3.0000000e+00 1.1500000e+01 
7.5000000e-01 3.0000000e+00 1.2000000e+01 
7.5000000e-01 3.0000000e+00 1.2500000e+01 
7.5000000e-01 3.0000000e+00 1.3000000e+01 
7.5000000e-01 3.0000000e+00 1.3500000e+01 
7.5000000e-01 3.0000000e+00 1.4000000e+01 
7.5000000e-01 3.0000000e+00 1.4500000e+01 
7.5000000e-01 3.0000000e+00 1.5000000e+01 
7.5000000e-01 3.0000000e+00 1.5500000e+01 
7.5000000e-01 3.0000000e+00 1.6000000e+01 
7.5000000e-01 3.0000000e+00 1.6500000e+01 
7.5000000e-01 3.0000000e+00 1.7000000e+01 
7.5000000e-01 3.0000000e+00 1.7500000e+01 
7.5000000e-01 3.0000000e+00 1.8000000e+01 
7.5000000e-01 3.0000000e+00 1.8500000e+01 
7.5000000e-01 3.0000000e+00 1.9000000e+01 
7.5000000e-01 3.0000000e+00 1.9500000e+01 
7.5000000e-01 3.0000000e+00 2.0000000e+01 
7.5000000e-01 3.0000000e+00 2.0500000e+01 
7.5000000e-01 3.0000000e+00 2.1000000e+01 
7.5000000e-01 3.0000000e+00 2.1500000e+01 
7.5000000e-01 3.0000000e+00 2.2000000e+01 
7.5000000e-01 3.0000000e+00 2.2500000e+01 
7.5000000e-01 3.0000000e+00 2.3000000e+01 
7.5000000e-01 3.0000000e+00 2.3500000e+01 
7.5000000e-01 3.0000000e+00 2.4000000e+01 
7.5000000e-01 3.0000000e+00 2.4500000e+01 
7.5000000e-01 3.0000000e+00 2.5000000e+01 
7.5000000e-01 3.0000000e+00 2.5500000e+01 
7.5000000e-01 3.0000000e+00 2.6000000e+01 
7.5000000e-01 3.0000000e+00 2.6500000e+01 
7.5000000e-01 3.0000000e+00 2.7000000e+01 
7.5000000e-01 3.0000000e+00 2.7500000e+01 
7.5000000e-01 3.0000000e+00 2.8000000e+01 
7.5000000e-01 3.0000000e+00 2.8500000e+01 
7.5000000e-01 3.0000000e+00 2.9000000e+01 
7.5000000e-01 3.0000000e+00 2.9500000e+01 
7.5000000e-01 3.0000000e+00 3.0000000e+01 
7.5000000e-01 3.0000000e+00 3.0500000e+01 
7.5000000e-01 3.0000000e+00 3.1000000e+01 
7.5000000e-01 3.0000000e+00 3.1500000e+01 
7.5000000e-01 3.0000000e+00 3.2000000e+01 
7.5000000e-01 3.0000000e+00 3.2500000e+01 
7.5000000e-01 3.0000000e+00 3.3000000e+01 
7.5000000e-01 3.0000000e+00 3.3500000e+01 
7.5000000e-01 3.0000000e+00 3.4000000e+01 
7.5000000e-01 3.0000000e+00 3.4500000e+01 
7.5000000e-01 3.0000000e+00 3.5000000e+01 
7.5000000e-01 3.0000000e+00 3.5500000e+01 
7.5000000e-01 3.0000000e+00 3.6000000e+01 
7.5000000e-01 3.0000000e+00 3.6500000e+01 
7.5000000e-01 3.0000000e+00 3.7000000e+01 
7.5000000e-01 3.0000000e+00 3.7500000e+01 
7.5000000e-01 3.0000000e+00 3.8000000e+01 
7.5000000e-01 3.0000000e+00 3.8500000e+01 
7.5000000e-01 3.0000000e+00 3.9000000e+01 
7.5000000e-01 3.0000000e+00 3.9500000e+01 
7.5000000e-01 3.0000000e+00 4.0500000e+01 
7.5000000e-01 3.0000000e+00 4.1000000e+01 
7.5000000e-01 3.0000000e+00 4.1500000e+01 
7.5000000e-01 3.0000000e+00 4.2000000e+01 
7.5000000e-01 3.0000000e+00 4.2500000e+01 
7.5000000e-01 3.0000000e+00 4.3000000e+01 
7.5000000e-01 3.0000000e+00 4.3500000e+01 
7.5000000e-01 3.0000000e+00 4.4000000e+01 
7.5000000e-01 3.0000000e+00 4.4500000e+01 
7.5000000e-01 3.0000000e+00 4.5000000e+01 
7.5000000e-01 3.0000000e+00 4.5500000e+01 
7.5000000e-01 3.0000000e+00 4.6000000e+01 
7.5000000e-01 3.0000000e+00 4.6500000e+01 
7.5000000e-01 3.0000000e+00 4.7000000e+01 
7.5000000e-01 3.0000000e+00 4.7500000e+01 
7.5000000e-01 3.0000000e+00 4.8000000e+01 
7.5000000e-01 3.0000000e+00 4.8500000e+01 
7.5000000e-01 3.0000000e+00 4.9000000e+01 
7.5000000e-01 3.0000000e+00 4.9500000e+01 
7.5000000e-01 3.0000000e+00 5.0000000e+01 
7.5000000e-01 3.0250001e+00 0.0000000e+00 
7.5000000e-01 3.0250001e+00 5.0000000e-01 
7.5000000e-01 3.0250001e+00 1.0000000e+00 
7.5000000e-01 3.0250001e+00 1.5000000e+00 
7.5000000e-01 3.0250001e+00 2.0000000e+00 
7.5000000e-01 3.0250001e+00 2.5000000e+00 
7.5000000e-01 3.0250001e+00 3.0000000e+00 
7.5000000e-01 3.0250001e+00 3.5000000e+00 
7.5000000e-01 3.0250001e+00 4.0000000e+00 
7.5000000e-01 3.0250001e+00 4.5000000e+00 
7.5000000e-01 3.0250001e+00 5.0000000e+00 
7.5000000e-01 3.0250001e+00 5.5000000e+00 
7.5000000e-01 3.0250001e+00 6.0000000e+00 
7.5000000e-01 3.0250001e+00 6.5000000e+00 
7.5000000e-01 3.0250001e+00 7.0000000e+00 
7.5000000e-01 3.0250001e+00 7.5000000e+00 
7.5000000e-01 3.0250001e+00 8.0000000e+00 
7.5000000e-01 3.0250001e+00 8.5000000e+00 
7.5000000e-01 3.0250001e+00 9.0000000e+00 
7.5000000e-01 3.0250001e+00 9.5000000e+00 
7.5000000e-01 3.0250001e+00 1.0000000e+01 
7.5000000e-01 3.0250001e+00 1.0500000e+01 
7.5000000e-01 3.0250001e+00 1.1000000e+01 
7.5000000e-01 3.0250001e+00 1.1500000e+01 
7.5000000e-01 3.0250001e+00 1.2000000e+01 
7.5000000e-01 3.0250001e+00 1.2500000e+01 
7.5000000e-01 3.0250001e+00 1.3000000e+01 
7.5000000e-01 3.0250001e+00 1.3500000e+01 
7.5000000e-01 3.0250001e+00 1.4000000e+01 
7.5000000e-01 3.0250001e+00 1.4500000e+01 
7.5000000e-01 3.0250001e+00 1.5000000e+01 
7.5000000e-01 3.0250001e+00 1.5500000e+01 
7.5000000e-01 3.0250001e+00 1.6000000e+01 
7.5000000e-01 3.0250001e+00 1.6500000e+01 
7.5000000e-01 3.0250001e+00 1.7000000e+01 
7.5000000e-01 3.0250001e+00 1.7500000e+01 
7.5000000e-01 3.0250001e+00 1.8000000e+01 
7.5000000e-01 3.0250001e+00 1.8500000e+01 
7.5000000e-01 3.0250001e+00 1.9000000e+01 
7.5000000e-01 3.0250001e+00 1.9500000e+01 
7.5000000e-01 3.0250001e+00 2.0000000e+01 
7.5000000e-01 3.0250001e+00 2.0500000e+01 
7.5000000e-01 3.0250001e+00 2.1000000e+01 
7.5000000e-01 3.0250001e+00 2.1500000e+01 
7.5000000e-01 3.0250001e+00 2.2000000e+01 
7.5000000e-01 3.0250001e+00 2.2500000e+01 
7.5000000e-01 3.0250001e+00 2.3000000e+01 
7.5000000e-01 3.0250001e+00 2.3500000e+01 
7.5000000e-01 3.0250001e+00 2.4000000e+01 
7.5000000e-01 3.0250001e+00 2.4500000e+01 
7.5000000e-01 3.0250001e+00 2.5000000e+01 
7.5000000e-01 3.0250001e+00 2.5500000e+01 
7.5000000e-01 3.0250001e+00 2.6000000e+01 
7.5000000e-01 3.0250001e+00 2.6500000e+01 
7.5000000e-01 3.0250001e+00 2.7000000e+01 
7.5000000e-01 3.0250001e+00 2.7500000e+01 
7.5000000e-01 3.0250001e+00 2.8000000e+01 
7.5000000e-01 3.0250001e+00 2.8500000e+01 
7.5000000e-01 3.0250001e+00 2.9000000e+01 
7.5000000e-01 3.0250001e+00 2.9500000e+01 
7.5000000e-01 3.0250001e+00 3.0000000e+01 
7.5000000e-01 3.0250001e+00 3.0500000e+01 
7.5000000e-01 3.0250001e+00 3.1000000e+01 
7.5000000e-01 3.0250001e+00 3.1500000e+01 
7.5000000e-01 3.0250001e+00 3.2000000e+01 
7.5000000e-01 3.0250001e+00 3.2500000e+01 
7.5000000e-01 3.0250001e+00 3.3000000e+01 
7.5000000e-01 3.0250001e+00 3.3500000e+01 
7.5000000e-01 3.0250001e+00 3.4000000e+01 
7.5000000e-01 3.0250001e+00 3.4500000e+01 
7.5000000e-01 3.0250001e+00 3.5000000e+01 
7.5000000e-01 3.0250001e+00 3.5500000e+01 
7.5000000e-01 3.0250001e+00 3.6000000e+01 
7.5000000e-01 3.0250001e+00 3.6500000e+01 
7.5000000e-01 3.0250001e+00 3.7000000e+01 
7.5000000e-01 3.0250001e+00 3.7500000e+01 
7.5000000e-01 3.0250001e+00 3.8000000e+01 
7.5000000e-01 3.0250001e+00 3.8500000e+01 
7.5000000e-01 3.0250001e+00 3.9000000e+01 
7.5000000e-01 3.0250001e+00 3.9500000e+01 
7.5000000e-01 3.0250001e+00 4.0000000e+01 
7.5000000e-01 3.0250001e+00 4.0500000e+01 
7.5000000e-01 3.0250001e+00 4.1000000e+01 
7.5000000e-01 3.0250001e+00 4.1500000e+01 
7.5000000e-01 3.0250001e+00 4.2000000e+01 
7.5000000e-01 3.0250001e+00 4.2500000e+01 
7.5000000e-01 3.0250001e+00 4.3000000e+01 
7.5000000e-01 3.0250001e+00 4.3500000e+01 
7.5000000e-01 3.0250001e+00 4.4000000e+01 
7.5000000e-01 3.0250001e+00 4.4500000e+01 
7.5000000e-01 3.0250001e+00 4.5000000e+01 
7.5000000e-01 3.0250001e+00 4.5500000e+01 
7.5000000e-01 3.0250001e+00 4.6000000e+01 
7.5000000e-01 3.0250001e+00 4.6500000e+01 
7.5000000e-01 3.0250001e+00 4.7000000e+01 
7.5000000e-01 3.0250001e+00 4.7500000e+01 
7.5000000e-01 3.0250001e+00 4.8000000e+01 
7.5000000e-01 3.0250001e+00 4.8500000e+01 
7.5000000e-01 3.0250001e+00 4.9000000e+01 
7.5000000e-01 3.0250001e+00 4.9500000e+01 
7.5000000e-01 3.0250001e+00 5.0000000e+01 
7.5000000e-01 3.0250001e+00 3.5750000e+01 
3.0000000e+00 2.0000000e+00 3.6000000e+01 
8.0487806e-01 3.0000000e+00 3.6000000e+01 
0.0000000e+00 0.0000000e+00 2.0000000e+00 
0.0000000e+00 0.0000000e+00 4.0000000e+00 
0.0000000e+00 0.0000000e+00 6.0000000e+00 
0.0000000e+00 0.0000000e+00 8.0000000e+00 
0.0000000e+00 0.0000000e+00 1.0000000e+01 
0.0000000e+00 0.0000000e+00 1.2000000e+01 
0.0000000e+00 0.0000000e+00 1.4000000e+01 
[...]
POINT_DATA 662
FIELD FieldData 3
DISPLACEMENT 3 662  float
0.0000000e+00 0.0000000e+00 0.0000000e+00 
0.0000000e+00 0.0000000e+00 0.0000000e+00 
0.0000000e+00 0.0000000e+00 0.0000000e+00 
0.0000000e+00 0.0000000e+00 0.0000000e+00 
2.8720749e-05 1.7895583e-05 -2.7120326e-05 
-8.5660766e-08 -1.3407392e-06 1.5432484e-07 
0.0000000e+00 1.2877706e-05 0.0000000e+00 
0.0000000e+00 -1.7563082e-06 0.0000000e+00 
5.7522553e-05 -2.6154282e-07 -4.1692849e-05 
-1.3237289e-07 -1.5113661e-06 1.1362097e-06 
5.4875695e-06 -4.1921739e-05 -9.1617934e-05 
-7.0559531e-07 -1.9256695e-06 7.4322327e-07 
0.0000000e+00 1.1320005e-04 0.0000000e+00 
0.0000000e+00 -2.5759600e-06 0.0000000e+00 
1.6338845e-04 6.9220478e-05 -6.3062187e-05 
9.8867261e-08 -7.8627845e-06 -2.2250404e-06 
-4.4904551e-05 5.8431883e-04 8.3006067e-05 
5.8299844e-07 -9.0596313e-06 -1.0124052e-06 
0.0000000e+00 -8.4209067e-05 0.0000000e+00 
0.0000000e+00 -7.5673424e-06 0.0000000e+00 
1.8632761e-04 4.5926456e-04 1.0275106e-04 
6.9088346e-05 1.4472187e-04 1.0336165e-04 
-1.0606811e-04 -2.8807289e-04 3.2538961e-04 
-1.6887032e-04 -8.6000183e-04 3.3551324e-04 
6.3611878e-05 -1.6144890e-03 1.8213312e-04 
-5.4317178e-07 -2.5454343e-03 2.0234940e-04 
8.0226448e-05 -3.3801873e-03 1.8788484e-04 
-4.4162065e-05 -3.4927181e-03 1.7214705e-04 
-1.9980197e-04 -3.3876225e-03 1.4667526e-04 
-2.9384161e-04 -3.4549681e-03 1.2438769e-04 
-2.2300376e-04 -3.8545902e-03 1.0148703e-04 
-3.2524807e-05 -4.0584593e-03 1.5930884e-05 
-1.4753037e-04 -3.5058053e-03 -8.0449041e-05 
-2.5973888e-04 -2.5560306e-03 -1.1156657e-04 
-2.7190711e-04 -1.6853926e-03 -1.0951165e-04 
-7.6434313e-05 -1.0233298e-03 -9.3648297e-05 
-4.2879616e-05 -6.1305414e-04 -1.9431116e-04 
-5.7493853e-05 -3.6594807e-04 -1.9969702e-04 
-1.9868294e-05 -2.0453257e-04 -2.1071383e-04 
3.0630338e-06 -9.5015210e-05 -1.9426322e-04 
6.0413826e-05 -2.1578115e-05 -1.2141968e-04 
5.0789469e-05 3.6028323e-05 -5.1401148e-05 
3.4860423e-05 9.5762385e-05 2.0599451e-05 
9.8948240e-06 1.4389533e-04 7.9532343e-05 
-2.8175074e-05 1.5345616e-04 9.1303547e-05 
-8.0728996e-06 1.2069441e-04 7.3732095e-05 
-2.0319949e-05 5.3025477e-05 2.2108101e-05 
1.2313773e-05 -1.1142844e-05 -4.4087374e-05 
-1.9479021e-05 -3.5933390e-05 -7.1151393e-05 
-4.8023245e-05 -1.9948362e-05 -8.1981481e-05 
-2.0678617e-05 1.4279540e-05 -8.8423178e-05 
9.7216925e-06 6.1242965e-05 -7.2332841e-05 
7.2096496e-05 1.0848951e-04 -7.9985170e-05 
2.9711351e-05 1.5124289e-04 -6.7794725e-05 
1.5516041e-05 2.0311442e-04 -3.4022454e-05 
-7.8361239e-07 2.5109219e-04 -4.5127465e-05 
1.1897986e-04 3.0468614e-04 9.4808956e-07 
1.9283454e-04 3.8507837e-04 -1.2765768e-05 
-3.8793823e-05 4.9960415e-04 -2.4505342e-05 
-1.3169716e-04 5.5357680e-04 -2.4387484e-06 
2.0411343e-04 4.5270778e-04 5.7582096e-05 
3.4092832e-04 1.6696296e-04 6.2896695e-05 
1.3797944e-04 -3.2384470e-04 5.8028611e-05 
-2.8515307e-04 -9.8656025e-04 7.6613032e-05 
-1.5769119e-04 -1.8380447e-03 2.1035006e-04 
-8.8577362e-06 -2.7644045e-03 2.2744478e-04 
8.2435756e-05 -3.5168340e-03 1.9969002e-04 
-1.4394961e-04 -3.6043583e-03 2.5547927e-04 
-2.8815595e-04 -3.5520459e-03 2.1862627e-04 
-2.5827161e-04 -3.6583254e-03 1.7034968e-04 
-1.5132225e-04 -3.9867829e-03 1.0509363e-04 
-8.2094142e-05 -4.0182984e-03 5.3117448e-05 
-1.6533838e-04 -3.3496460e-03 -8.7953886e-05 
-2.5287204e-04 -2.3894869e-03 -1.5294102e-04 
-2.1305877e-04 -1.5811891e-03 -1.7569007e-04 
-6.9608664e-05 -9.7642350e-04 -1.4843950e-04 
-4.5687455e-05 -5.7166535e-04 -2.0742381e-04 
-3.3068616e-05 -3.1010102e-04 -1.9087736e-04 
-2.3849156e-05 -1.4850168e-04 -1.7036333e-04 
1.7134489e-05 -4.4451466e-05 -1.2388406e-04 
3.9566617e-05 3.2636457e-05 -8.2504448e-05 
4.5706667e-05 9.1559152e-05 -3.0020961e-05 
2.9927558e-05 1.2357630e-04 1.4463147e-05 
3.9121605e-06 1.2774390e-04 4.6000234e-05 
-4.0961440e-06 1.0984798e-04 5.5361852e-05 
-1.2713083e-05 7.9325895e-05 4.3483989e-05 
-1.1331519e-05 4.1099658e-05 2.5143661e-05 
-5.9290692e-06 3.1280479e-06 2.5053441e-06 
-4.9527980e-06 -2.4045310e-05 -8.0678064e-06 
-6.0267404e-08 -3.6650625e-05 -1.5534803e-05 
3.3425908e-06 -3.4915804e-05 -1.8582736e-05 
3.2957685e-06 -2.3950803e-05 -1.1340206e-05 
2.9598837e-06 -8.0526070e-06 -4.5939428e-06 
1.5043315e-06 7.8985986e-06 3.0990589e-06 
-1.1054810e-06 1.7937544e-05 6.9817365e-06 
-1.0292794e-06 1.8447867e-05 5.5979249e-06 
-3.3691049e-07 9.8647251e-06 2.7499675e-06 
-6.7094044e-07 -2.0156192e-06 -1.1679662e-06 
-1.6176847e-07 -9.1000229e-06 -3.3265369e-06 
0.0000000e+00 -4.2655070e-06 0.0000000e+00 
0.0000000e+00 9.1951591e-07 0.0000000e+00 
0.0000000e+00 3.3001368e-06 0.0000000e+00 
0.0000000e+00 2.8425823e-06 0.0000000e+00 
0.0000000e+00 1.5423088e-06 0.0000000e+00 
0.0000000e+00 9.7772386e-07 0.0000000e+00 
0.0000000e+00 1.0477804e-06 0.0000000e+00 
0.0000000e+00 7.3770053e-07 0.0000000e+00 
0.0000000e+00 -3.6943044e-07 0.0000000e+00 
0.0000000e+00 -1.5490847e-06 0.0000000e+00 
0.0000000e+00 -1.7533398e-06 0.0000000e+00 
0.0000000e+00 -7.4738659e-07 0.0000000e+00 
0.0000000e+00 6.3390820e-07 0.0000000e+00 
0.0000000e+00 1.2814660e-06 0.0000000e+00 
0.0000000e+00 8.0410973e-07 0.0000000e+00 
0.0000000e+00 -2.1241806e-07 0.0000000e+00 
0.0000000e+00 -8.2418148e-07 0.0000000e+00 
0.0000000e+00 -5.7877639e-07 0.0000000e+00 
0.0000000e+00 1.5151139e-07 0.0000000e+00 
0.0000000e+00 5.5427842e-07 0.0000000e+00 
0.0000000e+00 5.8022374e-04 0.0000000e+00 
0.0000000e+00 4.5948094e-04 0.0000000e+00 
0.0000000e+00 1.4988745e-04 0.0000000e+00 
0.0000000e+00 -2.8527918e-04 0.0000000e+00 
0.0000000e+00 -8.6082856e-04 0.0000000e+00 
0.0000000e+00 -1.6293708e-03 0.0000000e+00 
0.0000000e+00 -2.5844914e-03 0.0000000e+00 
0.0000000e+00 -3.4032529e-03 0.0000000e+00 
0.0000000e+00 -3.5178291e-03 0.0000000e+00 
0.0000000e+00 -3.3997302e-03 0.0000000e+00 
0.0000000e+00 -3.4887062e-03 0.0000000e+00 
0.0000000e+00 -3.8768435e-03 0.0000000e+00 
0.0000000e+00 -4.0900707e-03 0.0000000e+00 
0.0000000e+00 -3.5220208e-03 0.0000000e+00 
0.0000000e+00 -2.5743786e-03 0.0000000e+00 
0.0000000e+00 -1.6897891e-03 0.0000000e+00 
0.0000000e+00 -1.0288112e-03 0.0000000e+00 
0.0000000e+00 -6.1244972e-04 0.0000000e+00 
0.0000000e+00 -3.6377501e-04 0.0000000e+00 
0.0000000e+00 -2.0375042e-04 0.0000000e+00 
0.0000000e+00 -9.4977651e-05 0.0000000e+00 
0.0000000e+00 -2.1155340e-05 0.0000000e+00 
0.0000000e+00 3.7631296e-05 0.0000000e+00 
0.0000000e+00 9.6092837e-05 0.0000000e+00 
0.0000000e+00 1.4252593e-04 0.0000000e+00 
0.0000000e+00 1.5294741e-04 0.0000000e+00 
0.0000000e+00 1.1920644e-04 0.0000000e+00 
0.0000000e+00 5.3376731e-05 0.0000000e+00 
0.0000000e+00 -9.0343437e-06 0.0000000e+00 
0.0000000e+00 -3.4824167e-05 0.0000000e+00 
0.0000000e+00 -2.1122918e-05 0.0000000e+00 
0.0000000e+00 1.4213590e-05 0.0000000e+00 
0.0000000e+00 6.0592338e-05 0.0000000e+00 
0.0000000e+00 1.0786384e-04 0.0000000e+00 
0.0000000e+00 1.5328407e-04 0.0000000e+00 
0.0000000e+00 2.0188603e-04 0.0000000e+00 
0.0000000e+00 2.4960641e-04 0.0000000e+00 
0.0000000e+00 3.0530291e-04 0.0000000e+00 
0.0000000e+00 3.9039561e-04 0.0000000e+00 
0.0000000e+00 5.0081260e-04 0.0000000e+00 
0.0000000e+00 5.5152248e-04 0.0000000e+00 
0.0000000e+00 4.5197550e-04 0.0000000e+00 
0.0000000e+00 1.6339537e-04 0.0000000e+00 
0.0000000e+00 -3.2191825e-04 0.0000000e+00 
0.0000000e+00 -9.9172525e-04 0.0000000e+00 
0.0000000e+00 -1.8468837e-03 0.0000000e+00 
0.0000000e+00 -2.8019417e-03 0.0000000e+00 
0.0000000e+00 -3.5426551e-03 0.0000000e+00 
0.0000000e+00 -3.6348510e-03 0.0000000e+00 
0.0000000e+00 -3.5646933e-03 0.0000000e+00 
0.0000000e+00 -3.6881634e-03 0.0000000e+00 
0.0000000e+00 -4.0075863e-03 0.0000000e+00 
0.0000000e+00 -4.0531033e-03 0.0000000e+00 
0.0000000e+00 -3.3679579e-03 0.0000000e+00 
0.0000000e+00 -2.4083152e-03 0.0000000e+00 
0.0000000e+00 -1.5834335e-03 0.0000000e+00 
0.0000000e+00 -9.7844726e-04 0.0000000e+00 
0.0000000e+00 -5.7130144e-04 0.0000000e+00 
0.0000000e+00 -3.0998487e-04 0.0000000e+00 
0.0000000e+00 -1.4768248e-04 0.0000000e+00 
0.0000000e+00 -4.3185617e-05 0.0000000e+00 
0.0000000e+00 3.3344171e-05 0.0000000e+00 
0.0000000e+00 9.0953872e-05 0.0000000e+00 
0.0000000e+00 1.2329196e-04 0.0000000e+00 
0.0000000e+00 1.2786208e-04 0.0000000e+00 
0.0000000e+00 1.1014653e-04 0.0000000e+00 
0.0000000e+00 7.9044708e-05 0.0000000e+00 
0.0000000e+00 4.0929335e-05 0.0000000e+00 
0.0000000e+00 3.5968703e-06 0.0000000e+00 
0.0000000e+00 -2.3777769e-05 0.0000000e+00 
0.0000000e+00 -3.6487825e-05 0.0000000e+00 
0.0000000e+00 -3.5020068e-05 0.0000000e+00 
0.0000000e+00 -2.3914263e-05 0.0000000e+00 
0.0000000e+00 -7.9702531e-06 0.0000000e+00 
0.0000000e+00 7.7298009e-06 0.0000000e+00 
0.0000000e+00 1.7686254e-05 0.0000000e+00 
0.0000000e+00 1.8211467e-05 0.0000000e+00 
0.0000000e+00 9.8498822e-06 0.0000000e+00 
0.0000000e+00 -1.6677393e-06 0.0000000e+00 
0.0000000e+00 -8.8977031e-06 0.0000000e+00 
0.0000000e+00 -9.0405420e-06 0.0000000e+00 
0.0000000e+00 -4.3631744e-06 0.0000000e+00 
0.0000000e+00 7.8484612e-07 0.0000000e+00 
0.0000000e+00 3.2488272e-06 0.0000000e+00 
0.0000000e+00 2.8905804e-06 0.0000000e+00 
0.0000000e+00 1.6103414e-06 0.0000000e+00 
0.0000000e+00 9.8984663e-07 0.0000000e+00 
0.0000000e+00 1.0051965e-06 0.0000000e+00 
0.0000000e+00 6.9994496e-07 0.0000000e+00 
0.0000000e+00 -3.5838511e-07 0.0000000e+00 
0.0000000e+00 -1.5044691e-06 0.0000000e+00 
0.0000000e+00 -1.7242063e-06 0.0000000e+00 
0.0000000e+00 -7.6039299e-07 0.0000000e+00 
0.0000000e+00 5.9826272e-07 0.0000000e+00 
0.0000000e+00 1.2607856e-06 0.0000000e+00 
0.0000000e+00 8.1260396e-07 0.0000000e+00 
0.0000000e+00 -1.9221766e-07 0.0000000e+00 
0.0000000e+00 -8.1439134e-07 0.0000000e+00 
0.0000000e+00 -5.8207650e-07 0.0000000e+00 
0.0000000e+00 1.4606876e-07 0.0000000e+00 
0.0000000e+00 5.5111923e-07 0.0000000e+00 
0.0000000e+00 -3.0427165e-05 0.0000000e+00 
-2.2633014e-06 -6.9719754e-06 -4.2017933e-07 
4.8418838e-07 -2.6902373e-05 -1.4284273e-05 
0.0000000e+00 0.0000000e+00 0.0000000e+00 
0.0000000e+00 0.0000000e+00 0.0000000e+00 
0.0000000e+00 0.0000000e+00 0.0000000e+00 
0.0000000e+00 0.0000000e+00 0.0000000e+00 
0.0000000e+00 0.0000000e+00 0.0000000e+00 
0.0000000e+00 0.0000000e+00 0.0000000e+00 
0.0000000e+00 0.0000000e+00 0.0000000e+00 
0.0000000e+00 0.0000000e+00 0.0000000e+00 
0.0000000e+00 0.0000000e+00 0.0000000e+00 
0.0000000e+00 0.0000000e+00 0.0000000e+00 
0.0000000e+00 0.0000000e+00 0.0000000e+00 
0.0000000e+00 0.0000000e+00 0.0000000e+00 
0.0000000e+00 0.0000000e+00 0.0000000e+00 
0.0000000e+00 0.0000000e+00 0.0000000e+00 
0.0000000e+00 0.0000000e+00 0.0000000e+00 
0.0000000e+00 0.0000000e+00 0.0000000e+00 
0.0000000e+00 0.0000000e+00 0.0000000e+00 
0.0000000e+00 0.0000000e+00 0.0000000e+00 
0.0000000e+00 0.0000000e+00 0.0000000e+00 
0.0000000e+00 0.0000000e+00 0.0000000e+00 
0.0000000e+00 0.0000000e+00 0.0000000e+00 
0.0000000e+00 0.0000000e+00 0.0000000e+00 
0.0000000e+00 0.0000000e+00 0.0000000e+00 
0.0000000e+00 0.0000000e+00 0.0000000e+00 
0.0000000e+00 0.0000000e+00 0.0000000e+00 
0.0000000e+00 0.0000000e+00 0.0000000e+00 
0.0000000e+00 0.0000000e+00 0.0000000e+00 
0.0000000e+00 0.0000000e+00 0.0000000e+00 
0.0000000e+00 0.0000000e+00 0.0000000e+00 
0.0000000e+00 0.0000000e+00 0.0000000e+00 
0.0000000e+00 0.0000000e+00 0.0000000e+00 
0.0000000e+00 0.0000000e+00 0.0000000e+00 
0.0000000e+00 0.0000000e+00 0.0000000e+00 
0.0000000e+00 0.0000000e+00 0.0000000e+00 
0.0000000e+00 0.0000000e+00 0.0000000e+00 
0.0000000e+00 0.0000000e+00 0.0000000e+00 
0.0000000e+00 0.0000000e+00 0.0000000e+00 
0.0000000e+00 0.0000000e+00 0.0000000e+00 
0.0000000e+00 0.0000000e+00 0.0000000e+00 
0.0000000e+00 0.0000000e+00 0.0000000e+00 
0.0000000e+00 0.0000000e+00 0.0000000e+00 
0.0000000e+00 0.0000000e+00 0.0000000e+00 
3.4815304e-05 7.4278296e-06 -2.4948116e-05 
5.0135935e-05 2.6241341e-05 -2.2942932e-05 
4.5389930e-05 -1.7166107e-05 -2.0442692e-05 
-1.1870899e-05 -5.1587385e-06 -1.6174625e-05 
1.2719965e-05 -9.5987161e-06 8.4583089e-06 
-1.5358984e-06 6.4772403e-06 6.8549298e-06 
1.5064034e-06 5.0569606e-06 1.3225026e-05 
-6.6946745e-06 1.1090024e-05 4.9532564e-06 
-3.5934554e-06 2.0444020e-05 7.9199081e-06 
1.4559350e-05 7.9593719e-06 -3.4476034e-05 
3.9884802e-05 1.2580130e-05 2.5187126e-05 
4.4468110e-05 2.0994361e-05 -7.7857530e-06 
2.7775355e-05 7.6401720e-06 -1.6800597e-05 
1.3691789e-06 -1.5750549e-05 -1.4679362e-05 
9.7734537e-06 2.1713993e-06 1.3212347e-05 
1.1162201e-06 3.3204647e-06 1.2545089e-05 
1.5098796e-06 -8.0605179e-07 3.2280129e-06 
-1.3699937e-06 -3.1249917e-06 -2.6844839e-06 
4.7866342e-07 2.2074339e-06 9.4373512e-08 
0.0000000e+00 -2.5957159e-04 0.0000000e+00 
0.0000000e+00 -4.5246663e-04 0.0000000e+00 
0.0000000e+00 -4.5071397e-04 0.0000000e+00 
0.0000000e+00 -1.5867692e-04 0.0000000e+00 
0.0000000e+00 -6.0843842e-05 0.0000000e+00 
0.0000000e+00 4.8660029e-05 0.0000000e+00 
0.0000000e+00 3.5286603e-06 0.0000000e+00 
0.0000000e+00 1.1938255e-04 0.0000000e+00 
0.0000000e+00 -3.0959160e-05 0.0000000e+00 
0.0000000e+00 -1.7320555e-04 0.0000000e+00 
0.0000000e+00 -3.2193822e-04 0.0000000e+00 
0.0000000e+00 -5.3193438e-04 0.0000000e+00 
0.0000000e+00 -4.8629162e-04 0.0000000e+00 
0.0000000e+00 -1.7542050e-04 0.0000000e+00 
0.0000000e+00 -9.5786327e-06 0.0000000e+00 
0.0000000e+00 2.6588466e-05 0.0000000e+00 
0.0000000e+00 -2.9538680e-06 0.0000000e+00 
0.0000000e+00 -3.1014399e-06 0.0000000e+00 
0.0000000e+00 1.8104540e-06 0.0000000e+00 
2.1484500e-05 -7.7705110e-05 -3.6076330e-05 
6.7990099e-05 8.8042303e-05 -3.7581351e-05 
-2.5544765e-07 -1.0942473e-06 -5.5742145e-08 
-3.7577553e-07 -1.3938291e-06 -4.9352587e-07 
2.4754660e-05 6.3627231e-06 -3.1524520e-05 
5.6980851e-05 5.1971765e-05 -2.1749984e-05 
4.8969508e-05 -9.9107383e-06 -7.9223373e-06 
9.6279964e-06 -7.9100364e-06 -1.9303923e-05 
4.8611646e-06 -1.6027161e-05 2.0265547e-06 
-1.0876645e-05 7.3666602e-06 1.1684358e-05 
1.5333493e-05 5.3180433e-06 6.5561144e-06 
1.4573351e-05 1.0729887e-05 -5.1744428e-06 
2.8202820e-05 2.4120422e-05 3.5602529e-06 
-1.1223647e-05 3.3541422e-05 1.8690284e-06 
1.9501440e-06 4.3098564e-05 -1.0223480e-05 
6.6375331e-05 3.0232562e-05 -9.4531188e-06 
4.0355422e-05 1.2164605e-05 8.7299719e-07 
3.9669740e-06 -2.3146982e-05 -1.5076540e-06 
-3.4064026e-06 -6.2049895e-07 -1.7627951e-06 
3.7313812e-06 4.0885520e-06 1.5322599e-05 
4.6218634e-06 -5.0326446e-07 4.5520401e-06 
-6.0504391e-07 -2.6736277e-06 -4.4411980e-08 
-2.2932393e-07 1.8066680e-06 -8.7404015e-07 
-1.2175577e-05 1.1607563e-04 -4.2082807e-05 
0.0000000e+00 -4.8187294e-04 0.0000000e+00 
0.0000000e+00 -1.0251981e-03 0.0000000e+00 
0.0000000e+00 -1.0519387e-03 0.0000000e+00 
0.0000000e+00 -3.0082336e-04 0.0000000e+00 
0.0000000e+00 -1.1681663e-04 0.0000000e+00 
0.0000000e+00 1.1440676e-04 0.0000000e+00 
0.0000000e+00 -2.3527222e-05 0.0000000e+00 
0.0000000e+00 1.1854435e-04 0.0000000e+00 
0.0000000e+00 1.2426707e-04 0.0000000e+00 
0.0000000e+00 -1.5644979e-04 0.0000000e+00 
0.0000000e+00 -6.3001702e-04 0.0000000e+00 
0.0000000e+00 -1.0163147e-03 0.0000000e+00 
0.0000000e+00 -1.0921962e-03 0.0000000e+00 
0.0000000e+00 -3.4845853e-04 0.0000000e+00 
0.0000000e+00 -7.0849424e-06 0.0000000e+00 
0.0000000e+00 5.2790929e-05 0.0000000e+00 
0.0000000e+00 -8.2389652e-06 0.0000000e+00 
0.0000000e+00 -7.9022020e-06 0.0000000e+00 
0.0000000e+00 5.0868148e-06 0.0000000e+00 
-3.0177807e-07 -2.1743879e-06 -4.9956265e-07 
-2.9202478e-04 2.9421793e-05 2.6672863e-04 
-5.4086023e-04 -8.3580008e-04 2.0454527e-04 
-5.8258331e-04 -1.4264334e-03 -5.5097797e-05 
-1.7518732e-04 -2.4933496e-04 -2.4677566e-04 
-3.6927347e-06 -1.9380564e-04 -2.2221036e-04 
3.7232381e-05 1.5271005e-04 7.2428404e-05 
-6.4203168e-06 -1.7019242e-05 3.7108093e-05 
-4.6614723e-06 1.7000924e-05 -3.4209941e-05 
-1.0254346e-05 2.9466220e-04 -9.2843249e-05 
-3.4662662e-05 4.0903679e-04 4.8054702e-05 
-2.9166968e-04 5.8946069e-05 1.9675646e-04 
-6.8961183e-04 -7.6976558e-04 3.2149069e-04 
-6.2331208e-04 -1.2927512e-03 -1.6641112e-05 
-1.7721842e-04 -3.8508742e-04 -3.3325283e-04 
1.5345982e-05 -2.1044772e-05 -1.5949512e-04 
2.4068906e-05 5.3847943e-05 5.8743175e-05 
-1.2078349e-05 1.2818262e-05 3.0631923e-05 
6.7659255e-07 -2.1356780e-05 -1.8812920e-05 
6.8651559e-07 1.4446500e-05 8.3741834e-06 
0.0000000e+00 -5.1381363e-04 0.0000000e+00 
0.0000000e+00 -2.0043321e-03 0.0000000e+00 
0.0000000e+00 -2.2148213e-03 0.0000000e+00 
0.0000000e+00 -5.7468051e-04 0.0000000e+00 
0.0000000e+00 -1.2400390e-04 0.0000000e+00 
0.0000000e+00 1.8759082e-04 0.0000000e+00 
0.0000000e+00 -1.0387617e-04 0.0000000e+00 
0.0000000e+00 2.0139827e-04 0.0000000e+00 
0.0000000e+00 2.8005653e-04 0.0000000e+00 
0.0000000e+00 -1.0681721e-05 0.0000000e+00 
0.0000000e+00 -8.3558779e-04 0.0000000e+00 
0.0000000e+00 -1.8913761e-03 0.0000000e+00 
0.0000000e+00 -2.1287226e-03 0.0000000e+00 
0.0000000e+00 -6.2578759e-04 0.0000000e+00 
0.0000000e+00 -3.6399263e-06 0.0000000e+00 
0.0000000e+00 1.0609642e-04 0.0000000e+00 
0.0000000e+00 -1.2933879e-05 0.0000000e+00 
0.0000000e+00 -1.7410279e-05 0.0000000e+00 
0.0000000e+00 1.4777473e-05 0.0000000e+00 
3.1235442e-05 7.3421012e-05 -6.6374778e-05 
2.4582065e-05 -6.0842969e-05 -3.0563759e-05 
8.5351050e-05 -5.5180302e-05 4.7275465e-05 
1.4561645e-05 -6.3633357e-05 -5.0284430e-05 
-1.0909219e-05 -2.0277343e-05 -4.8875674e-05 
1.4103426e-05 2.7899357e-06 1.8635290e-05 
1.4493372e-07 2.0836498e-05 3.5590434e-05 
1.5824298e-05 -8.2598835e-06 -4.9656987e-06 
1.5866549e-06 3.2046464e-05 -1.5712027e-05 
2.8793491e-05 -1.7357488e-05 2.5134348e-05 
6.7923647e-05 -4.8021047e-05 -1.8571907e-05 
8.9030618e-05 1.5731226e-05 3.3445609e-05 
5.7107209e-05 -6.5659311e-05 1.6616797e-05 
1.1254637e-05 -5.9589987e-05 -4.0006929e-05 
-7.1284799e-06 -2.2801260e-05 -3.9470895e-05 
2.5726713e-06 1.3502177e-05 5.3466274e-06 
2.6891964e-06 8.0417230e-06 1.7606393e-05 
1.3023218e-06 3.8104242e-06 -1.5813841e-06 
1.8230942e-06 -1.7476363e-05 -1.0421706e-05 
0.0000000e+00 0.0000000e+00 0.0000000e+00 
0.0000000e+00 0.0000000e+00 0.0000000e+00 
0.0000000e+00 0.0000000e+00 0.0000000e+00 
0.0000000e+00 0.0000000e+00 0.0000000e+00 
0.0000000e+00 0.0000000e+00 0.0000000e+00 
0.0000000e+00 0.0000000e+00 0.0000000e+00 
0.0000000e+00 0.0000000e+00 0.0000000e+00 
0.0000000e+00 0.0000000e+00 0.0000000e+00 
0.0000000e+00 0.0000000e+00 0.0000000e+00 
0.0000000e+00 0.0000000e+00 0.0000000e+00 
0.0000000e+00 0.0000000e+00 0.0000000e+00 
0.0000000e+00 0.0000000e+00 0.0000000e+00 
0.0000000e+00 0.0000000e+00 0.0000000e+00 
0.0000000e+00 0.0000000e+00 0.0000000e+00 
0.0000000e+00 0.0000000e+00 0.0000000e+00 
0.0000000e+00 0.0000000e+00 0.0000000e+00 
0.0000000e+00 0.0000000e+00 0.0000000e+00 
0.0000000e+00 0.0000000e+00 0.0000000e+00 
0.0000000e+00 0.0000000e+00 0.0000000e+00 
0.0000000e+00 0.0000000e+00 0.0000000e+00 
0.0000000e+00 0.0000000e+00 0.0000000e+00 
0.0000000e+00 0.0000000e+00 0.0000000e+00 
0.0000000e+00 0.0000000e+00 0.0000000e+00 
0.0000000e+00 0.0000000e+00 0.0000000e+00 
0.0000000e+00 0.0000000e+00 0.0000000e+00 
0.0000000e+00 0.0000000e+00 0.0000000e+00 
0.0000000e+00 0.0000000e+00 0.0000000e+00 
0.0000000e+00 0.0000000e+00 0.0000000e+00 
0.0000000e+00 0.0000000e+00 0.0000000e+00 
0.0000000e+00 0.0000000e+00 0.0000000e+00 
0.0000000e+00 0.0000000e+00 0.0000000e+00 
0.0000000e+00 0.0000000e+00 0.0000000e+00 
0.0000000e+00 0.0000000e+00 0.0000000e+00 
0.0000000e+00 0.0000000e+00 0.0000000e+00 
0.0000000e+00 0.0000000e+00 0.0000000e+00 
0.0000000e+00 0.0000000e+00 0.0000000e+00 
0.0000000e+00 0.0000000e+00 0.0000000e+00 
0.0000000e+00 0.0000000e+00 0.0000000e+00 
0.0000000e+00 0.0000000e+00 0.0000000e+00 
0.0000000e+00 0.0000000e+00 0.0000000e+00 
0.0000000e+00 0.0000000e+00 0.0000000e+00 
0.0000000e+00 0.0000000e+00 0.0000000e+00 
1.0291291e-05 4.1584963e-06 -1.8614870e-05 
5.3558836e-07 4.2672782e-06 2.0828654e-06 
-6.3195539e-06 5.2512673e-06 4.7970525e-06 
3.1743610e-05 -3.9627862e-06 1.1207490e-05 
9.0677922e-06 5.5142741e-06 -1.3182671e-05 
4.8912052e-06 -4.6022269e-06 -1.3672995e-05 
4.1657850e-06 -6.2334436e-07 2.7854928e-06 
3.5847709e-06 1.5438560e-06 6.4566620e-06 