# vtk DataFile Version 4.0
vtk output
ASCII
DATASET UNSTRUCTURED_GRID
POINTS 662 float
0.0000000e+00 0.0000000e+00 0.0000000e+00 
0.0000000e+00 0.0000000e+00 4.0000000e+01 
5.0000000e+00 0.0000000e+00 0.0000000e+00 
5.0000000e+00 0.0000000e+00 4.0000000e+01 
5.0000000e+00 1.0000000e+00 0.0000000e+00 
5.0000000e+00 1.0000000e+00 4.0000000e+01 
0.0000000e+00 1.0000000e+00 0.0000000e+00 
0.0000000e+00 1.0000000e+00 4.0000000e+01 
5.0000000e+00 2.0000000e+00 0.0000000e+00 
5.0000000e+00 2.0000000e+00 4.0000000e+01 
3.0000000e+00 2.0000000e+00 0.0000000e+00 
3.0000000e+00 2.0000000e+00 4.0000000e+01 
0.0000000e+00 2.0000000e+00 0.0000000e+00 
0.0000000e+00 2.0000000e+00 4.0000000e+01 
1.5000000e+00 3.0000000e+00 0.0000000e+00 
1.5000000e+00 3.0000000e+00 4.0000000e+01 
7.5000000e-01 3.0000000e+00 0.0000000e+00 
7.5000000e-01 3.0000000e+00 4.0000000e+01 
0.0000000e+00 3.0000000e+00 0.0000000e+00 
0.0000000e+00 3.0000000e+00 4.0000000e+01 
7.5000000e-01 3.0000000e+00 5.0000000e-01 
7.5000000e-01 3.0000000e+00 1.0000000e+00 
7.5000000e-01 3.0000000e+00 1.5000000e+00 
7.5000000e-01 3.0000000e+00 2.0000000e+00 
7.5000000e-01 3.0000000e+00 2.5000000e+00 
7.5000000e-01 3.0000000e+00 3.0000000e+00 
7.5000000e-01 3.0000000e+00 3.5000000e+00 
7.5000000e-01 3.0000000e+00 4.0000000e+00 
7.5000000e-01 3.0000000e+00 4.5000000e+00 
7.5000000e-01 3.0000000e+00 5.0000000e+00 
7.5000000e-01 3.0000000e+00 5.5000000e+00 
7.5000000e-01 3.0000000e+00 6.0000000e+00 
7.5000000e-01 3.0000000e+00 6.5000000e+00 
7.5000000e-01 3.0000000e+00 7.0000000e+00 
7.5000000e-01 3.0000000e+00 7.5000000e+00 
7.5000000e-01 3.0000000e+00 8.0000000e+00 
7.5000000e-01 3.0000000e+00 8.5000000e+00 
7.5000000e-01 3.0000000e+00 9.0000000e+00 
7.5000000e-01 3.0000000e+00 9.5000000e+00 
7.5000000e-01 3.0000000e+00 1.0000000e+01 
7.5000000e-01 3.0000000e+00 1.0500000e+01 
7.5000000e-01 3.0000000e+00 1.1000000e+01 
7.5000000e-01 3.0000000e+00 1.1500000e+01 
7.5000000e-01 3.0000000e+00 1.2000000e+01 
7.5000000e-01 3.0000000e+00 1.2500000e+01 
7.5000000e-01 3.0000000e+00 1.3000000e+01 
7.5000000e-01 3.0000000e+00 1.3500000e+01 
7.5000000e-01 3.0000000e+00 1.4000000e+01 
7.5000000e-01 3.0000000e+00 1.4500000e+01 
7.5000000e-01 3.0000000e+00 1.5000000e+01 
7.5000000e-01 3.0000000e+00 1.5500000e+01 
7.5000000e-01 3.0000000e+00 1.6000000e+01 
7.5000000e-01 3.0000000e+00 1.6500000e+01 
7.5000000e-01 3.0000000e+00 1.7000000e+01 
7.5000000e-01 3.0000000e+00 1.7500000e+01 
7.5000000e-01 3.0000000e+00 1.8000000e+01 
7.5000000e-01 3.0000000e+00 1.8500000e+01 
7.5000000e-01 3.0000000e+00 1.9000000e+01 
7.5000000e-01 3.0000000e+00 1.9500000e+01 
7.5000000e-01 3.0000000e+00 2.0000000e+01 
7.5000000e-01 3.0000000e+00 2.0500000e+01 
7.5000000e-01 3.0000000e+00 2.1000000e+01 
7.5000000e-01 3.0000000e+00 2.1500000e+01 
7.5000000e-01 3.0000000e+00 2.2000000e+01 
7.5000000e-01 3.0000000e+00 2.2500000e+01 
7.5000000e-01 3.0000000e+00 2.3000000e+01 
7.5000000e-01 3.0000000e+00 2.3500000e+01 
7.5000000e-01 3.0000000e+00 2.4000000e+01 
7.5000000e-01 3.0000000e+00 2.4500000e+01 
7.5000000e-01 3.0000000e+00 2.5000000e+01 
7.5000000e-01 3.0000000e+00 2.5500000e+01 
7.5000000e-01 3.0000000e+00 2.6000000e+01 
7.5000000e-01 3.0000000e+00 2.6500000e+01 
7.5000000e-01 3.0000000e+00 2.7000000e+01 
7.5000000e-01 3.0000000e+00 2.7500000e+01 
7.5000000e-01 3.0000000e+00 2.8000000e+01 
7.5000000e-01 3.0000000e+00 2.8500000e+01 
7.5000000e-01 3.0000000e+00 2.9000000e+01 
7.5000000e-01 3.0000000e+00 2.9500000e+01 
7.5000000e-01 3.0000000e+00 3.0000000e+01 
7.5000000e-01 3.0000000e+00 3.0500000e+01 
7.5000000e-01 3.0000000e+00 3.1000000e+01 
7.5000000e-01 3.0000000e+00 3.1500000e+01 
7.5000000e-01 3.0000000e+00 3.2000000e+01 
7.5000000e-01 3.0000000e+00 3.2500000e+01 
7.5000000e-01 3.0000000e+00 3.3000000e+01 
7.5000000e-01 3.0000000e+00 3.3500000e+01 
7.5000000e-01 3.0000000e+00 3.4000000e+01 
7.5000000e-01 3.0000000e+00 3.4500000e+01 
7.5000000e-01 3.0000000e+00 3.5000000e+01 
7.5000000e-01 3.0000000e+00 3.5500000e+01 
7.5000000e-01 3.0000000e+00 3.6000000e+01 
7.5000000e-01 3.0000000e+00 3.6500000e+01 
7.5000000e-01 3.0000000e+00 3.7000000e+01 
7.5000000e-01 3.0000000e+00 3.7500000e+01 
7.5000000e-01 3.0000000e+00 3.8000000e+01 
7.5000000e-01 3.0000000e+00 3.8500000e+01 
7.5000000e-01 3.0000000e+00 3.9000000e+01 
7.5000000e-01 3.0000000e+00 3.9500000e+01 
7.5000000e-01 3.0000000e+00 4.0500000e+01 
7.5000000e-01 3.0000000e+00 4.1000000e+01 
7.5000000e-01 3.0000000e+00 4.1500000e+01 
7.5000000e-01 3.0000000e+00 4.2000000e+01 
7.5000000e-01 3.0000000e+00 4.2500000e+01 
7.5000000e-01 3.0000000e+00 4.3000000e+01 
7.5000000e-01 3.0000000e+00 4.3500000e+01 
7.5000000e-01 3.0000000e+00 4.4000000e+01 
7.5000000e-01 3.0000000e+00 4.4500000e+01 
7.5000000e-01 3.0000000e+00 4.5000000e+01 
7.5000000e-01 3.0000000e+00 4.5500000e+01 
7.5000000e-01 3.0000000e+00 4.6000000e+01 
7.5000000e-01 3.0000000e+00 4.6500000e+01 
7.5000000e-01 3.0000000e+00 4.7000000e+01 
7.5000000e-01 3.0000000e+00 4.7500000e+01 
7.5000000e-01 3.0000000e+00 4.8000000e+01 
7.5000000e-01 3.0000000e+00 4.8500000e+01 
7.5000000e-01 3.0000000e+00 4.9000000e+01 
7.5000000e-01 3.0000000e+00 4.9500000e+01 
7.5000000e-01 3.0000000e+00 5.0000000e+01 
7.5000000e-01 3.0250001e+00 0.0000000e+00 
7.5000000e-01 3.0250001e+00 5.0000000e-01 
7.5000000e-01 3.0250001e+00 1.0000000e+00 
7.5000000e-01 3.0250001e+00 1.5000000e+00 
7.5000000e-01 3.0250001e+00 2.0000000e+00 
7.5000000e-01 3.0250001e+00 2.5000000e+00 
7.5000000e-01 3.0250001e+00 3.0000000e+00 
7.5000000e-01 3.0250001e+00 3.5000000e+00 
7.5000000e-01 3.0250001e+00 4.0000000e+00 
7.5000000e-01 3.0250001e+00 4.5000000e+00 
7.5000000e-01 3.0250001e+00 5.0000000e+00 
7.5000000e-01 3.0250001e+00 5.5000000e+00 
7.5000000e-01 3.0250001e+00 6.0000000e+00 
7.5000000e-01 3.0250001e+00 6.5000000e+00 
7.5000000e-01 3.0250001e+00 7.0000000e+00 
7.5000000e-01 3.0250001e+00 7.5000000e+00 
7.5000000e-01 3.0250001e+00 8.0000000e+00 
7.5000000e-01 3.0250001e+00 8.5000000e+00 
7.5000000e-01 3.0250001e+00 9.0000000e+00 
7.5000000e-01 3.0250001e+00 9.5000000e+00 
7.5000000e-01 3.0250001e+00 1.0000000e+01 
7.5000000e-01 3.0250001e+00 1.0500000e+01 
7.5000000e-01 3.0250001e+00 1.1000000e+01 
7.5000000e-01 3.0250001e+00 1.1500000e+01 
7.5000000e-01 3.0250001e+00 1.2000000e+01 
7.5000000e-01 3.0250001e+00 1.2500000e+01 
7.5000000e-01 3.0250001e+00 1.3000000e+01 
7.5000000e-01 3.0250001e+00 1.3500000e+01 
7.5000000e-01 3.0250001e+00 1.4000000e+01 
7.5000000e-01 3.0250001e+00 1.4500000e+01 
7.5000000e-01 3.0250001e+00 1.5000000e+01 
7.5000000e-01 3.0250001e+00 1.5500000e+01 
7.5000000e-01 3.0250001e+00 1.6000000e+01 
7.5000000e-01 3.0250001e+00 1.6500000e+01 
7.5000000e-01 3.0250001e+00 1.7000000e+01 
7.5000000e-01 3.0250001e+00 1.7500000e+01 
7.5000000e-01 3.0250001e+00 1.8000000e+01 
7.5000000e-01 3.0250001e+00 1.8500000e+01 
7.5000000e-01 3.0250001e+00 1.9000000e+01 
7.5000000e-01 3.0250001e+00 1.9500000e+01 
7.5000000e-01 3.0250001e+00 2.0000000e+01 
7.5000000e-01 3.0250001e+00 2.0500000e+01 
7.5000000e-01 3.0250001e+00 2.1000000e+01 
7.5000000e-01 3.0250001e+00 2.1500000e+01 
7.5000000e-01 3.0250001e+00 2.2000000e+01 
7.5000000e-01 3.0250001e+00 2.2500000e+01 
7.5000000e-01 3.0250001e+00 2.3000000e+01 
7.5000000e-01 3.0250001e+00 2.3500000e+01 
7.5000000e-01 3.0250001e+00 2.4000000e+01 
7.5000000e-01 3.0250001e+00 2.4500000e+01 
7.5000000e-01 3.0250001e+00 2.5000000e+01 
7.5000000e-01 3.0250001e+00 2.5500000e+01 
7.5000000e-01 3.0250001e+00 2.6000000e+01 
7.5000000e-01 3.0250001e+00 2.6500000e+01 
7.5000000e-01 3.0250001e+00 2.7000000e+01 
7.5000000e-01 3.0250001e+00 2.7500000e+01 
7.5000000e-01 3.0250001e+00 2.8000000e+01 
7.5000000e-01 3.0250001e+00 2.8500000e+01 
7.5000000e-01 3.0250001e+00 2.9000000e+01 
7.5000000e-01 3.0250001e+00 2.9500000e+01 
7.5000000e-01 3.0250001e+00 3.0000000e+01 
7.5000000e-01 3.0250001e+00 3.0500000e+01 
7.5000000e-01 3.0250001e+00 3.1000000e+01 
7.5000000e-01 3.0250001e+00 3.1500000e+01 
7.5000000e-01 3.0250001e+00 3.2000000e+01 
7.5000000e-01 3.0250001e+00 3.2500000e+01 
7.5000000e-01 3.0250001e+00 3.3000000e+01 
7.5000000e-01 3.0250001e+00 3.3500000e+01 
7.5000000e-01 3.0250001e+00 3.4000000e+01 
7.5000000e-01 3.0250001e+00 3.4500000e+01 
7.5000000e-01 3.0250001e+00 3.5000000e+01 
7.5000000e-01 3.0250001e+00 3.5500000e+01 
7.5000000e-01 3.0250001e+00 3.6000000e+01 
7.5000000e-01 3.0250001e+00 3.6500000e+01 
7.5000000e-01 3.0250001e+00 3.7000000e+01 
7.5000000e-01 3.0250001e+00 3.7500000e+01 
7.5000000e-01 3.0250001e+00 3.8000000e+01 
7.5000000e-01 3.0250001e+00 3.8500000e+01 
7.5000000e-01 3.0250001e+00 3.9000000e+01 
7.5000000e-01 3.0250001e+00 3.9500000e+01 
7.5000000e-01 3.0250001e+00 4.0000000e+01 
7.5000000e-01 3.0250001e+00 4.0500000e+01 
7.5000000e-01 3.0250001e+00 4.1000000e+01 
7.5000000e-01 3.0250001e+00 4.1500000e+01 
7.5000000e-01 3.0250001e+00 4.2000000e+01 
7.5000000e-01 3.0250001e+00 4.2500000e+01 
7.5000000e-01 3.0250001e+00 4.3000000e+01 
7.5000000e-01 3.0250001e+00 4.3500000e+01 
7.5000000e-01 3.0250001e+00 4.4000000e+01 
7.5000000e-01 3.0250001e+00 4.4500000e+01 
7.5000000e-01 3.0250001e+00 4.5000000e+01 
7.5000000e-01 3.0250001e+00 4.5500000e+01 
7.5000000e-01 3.0250001e+00 4.6000000e+01 
7.5000000e-01 3.0250001e+00 4.6500000e+01 
7.5000000e-01 3.0250001e+00 4.7000000e+01 
7.5000000e-01 3.0250001e+00 4.7500000e+01 
7.5000000e-01 3.0250001e+00 4.8000000e+01 
7.5000000e-01 3.0250001e+00 4.8500000e+01 
7.5000000e-01 3.0250001e+00 4.9000000e+01 
7.5000000e-01 3.0250001e+00 4.9500000e+01 
7.5000000e-01 3.0250001e+00 5.0000000e+01 
7.5000000e-01 3.0250001e+00 3.5750000e+01 
3.0000000e+00 2.0000000e+00 3.6000000e+01 
8.0487806e-01 3.0000000e+00 3.6000000e+01 
0.0000000e+00 0.0000000e+00 2.0000000e+00 
0.0000000e+00 0.0000000e+00 4.0000000e+00 
0.0000000e+00 0.0000000e+00 6.0000000e+00 
0.0000000e+00 0.0000000e+00 8.0000000e+00 
0.0000000e+00 0.0000000e+00 1.0000000e+01 
0.0000000e+00 0.0000000e+00 1.2000000e+01 
0.0000000e+00 0.0000000e+00 1.4000000e+01 
[...]
POINT_DATA 662
FIELD FieldData 3
DISPLACEMENT 3 662  float
0.0000000e+00 0.0000000e+00 0.0000000e+00 
0.0000000e+00 0.0000000e+00 0.0000000e+00 
0.0000000e+00 0.0000000e+00 0.0000000e+00 
0.0000000e+00 0.0000000e+00 0.0000000e+00 
1.3599110e-06 2.3912278e-07 2.0246621e-06 
6.2942134e-05 -1.5111443e-05 2.6931359e-06 
0.0000000e+00 -2.2821920e-05 0.0000000e+00 
0.0000000e+00 -1.2567709e-03 0.0000000e+00 
1.4681697e-06 2.5097526e-07 3.3945430e-06 
2.1376660e-05 1.7048929e-05 9.7633992e-06 
-4.2746939e-07 2.8494222e-07 4.1183703e-06 
3.2718915e-05 -2.8966408e-04 1.9626373e-04 
0.0000000e+00 -2.4678753e-05 0.0000000e+00 
0.0000000e+00 -3.1985973e-03 0.0000000e+00 
1.6983527e-06 -8.2830657e-06 1.3579700e-05 
-1.1760218e-03 -3.4770595e-03 1.1381026e-03 
-1.7808601e-05 -3.6989452e-06 6.1688270e-06 
-6.8905827e-04 -1.5515502e-02 2.6707232e-03 
0.0000000e+00 -3.9659495e-05 0.0000000e+00 
0.0000000e+00 -6.6293823e-03 0.0000000e+00 
-1.0927842e-05 -1.1957299e-05 -9.0906969e-06 
-1.6757573e-05 -2.8625742e-05 -2.2344648e-05 
-1.5590713e-05 -4.1869444e-05 -1.8487630e-05 
-1.5016449e-05 -4.4095497e-05 -1.7947614e-05 
-1.2237170e-05 -3.9746366e-05 -1.1367740e-05 
-9.6308631e-06 -4.0729778e-05 -6.3584898e-06 
-4.7478607e-06 -5.4101263e-05 -3.7052030e-07 
-7.9267693e-06 -7.2907591e-05 -6.9016355e-06 
-1.3308550e-05 -8.4487452e-05 -1.7832847e-06 
-1.8174313e-06 -8.5480213e-05 -7.2179046e-06 
2.6865357e-06 -8.2811508e-05 -1.2711366e-05 
9.3747631e-06 -8.6149026e-05 -2.1512894e-06 
6.4971009e-06 -9.9152712e-05 8.4402933e-07 
-9.0977646e-06 -1.0906155e-04 -6.9603376e-09 
-2.5912386e-06 -1.0122566e-04 5.0186377e-06 
-1.7567150e-05 -7.9253645e-05 -1.2402036e-05 
-1.1533934e-06 -5.4101765e-05 -3.6897363e-05 
-1.0160398e-05 -3.7130034e-05 -1.7183973e-05 
-1.9273732e-05 -2.5295365e-05 -1.7987628e-05 
-1.2146790e-05 -1.5909285e-05 -3.1319814e-05 
-3.3516269e-05 -9.2528603e-07 8.9414498e-06 
-5.1711972e-06 2.2879338e-05 -8.6089558e-06 
-2.0235431e-05 4.4475430e-05 -3.1878852e-05 
1.2089841e-06 7.0089744e-05 -7.8152825e-06 
3.3088389e-05 9.2278591e-05 -2.9260524e-05 
-2.6487849e-06 9.9673467e-05 -1.0725248e-05 
6.1850893e-05 9.1620073e-05 2.7045735e-05 
1.8128887e-05 8.5676533e-05 3.4241701e-05 
5.1018567e-05 9.7738040e-05 3.0146184e-05 
5.4263306e-05 1.1667665e-04 5.3802272e-05 
3.3365410e-05 1.2537440e-04 9.1691662e-05 
2.1463957e-05 4.0039908e-05 1.0284378e-04 
-6.9320449e-05 -1.7768372e-04 1.6865283e-04 
-3.1271127e-05 -5.0193869e-04 1.7781828e-04 
-1.2299478e-04 -9.5066382e-04 2.1089148e-04 
-1.3429797e-04 -1.5762146e-03 1.8968619e-04 
-2.8522345e-04 -2.4596981e-03 2.2843826e-04 
-3.4305468e-04 -3.4856235e-03 2.1625894e-04 
-2.2097715e-04 -4.3539908e-03 1.4093016e-04 
-2.2098374e-04 -4.4289329e-03 1.1516945e-04 
-3.3177747e-04 -4.2084497e-03 4.9251648e-05 
-4.1893456e-04 -4.1070408e-03 7.9268293e-06 
-2.9223852e-04 -4.3046824e-03 -4.4819211e-05 
-1.3271331e-04 -4.3077320e-03 -9.4535251e-05 
-1.3233621e-04 -3.5931051e-03 -1.9119339e-04 
-2.0582147e-04 -2.5278805e-03 -2.2394711e-04 
-1.9149978e-04 -1.5878736e-03 -2.2954973e-04 
-5.6991928e-05 -8.7666704e-04 -1.7395530e-04 
-2.2621700e-05 -4.2424162e-04 -1.8607957e-04 
2.7648875e-06 -1.5192605e-04 -1.3716034e-04 
1.8532844e-06 -3.1120580e-06 -8.9447298e-05 
1.4296686e-05 5.3072952e-05 -4.2977725e-05 
1.8154558e-05 3.4456556e-05 -2.0415609e-05 
-3.3930526e-06 -2.0685460e-05 7.8582316e-06 
-1.6638591e-05 -7.4378302e-05 6.4347914e-06 
-4.2353669e-05 -1.0964645e-04 -9.5736032e-06 
-6.3563995e-05 -1.1999371e-04 -7.1365462e-06 
-4.2104453e-05 -1.1297641e-04 -1.8724561e-05 
-6.5939304e-05 -9.8521312e-05 -4.3635318e-05 
-2.8418634e-05 -8.2534360e-05 -5.1783187e-05 
-2.6687660e-05 -6.5239692e-05 -4.2045587e-05 
-1.0159515e-05 -3.7025253e-05 -6.4451524e-05 
1.6018057e-05 3.2982553e-06 -7.5539472e-05 
8.9743044e-06 5.7530378e-05 -6.5088061e-05 
7.6422752e-05 1.1150071e-04 -8.6246677e-05 
4.1545991e-05 1.5263485e-04 -2.9441228e-05 
9.7550277e-05 1.8923341e-04 2.9280425e-05 
7.1919370e-05 2.1422619e-04 3.0818559e-05 
4.0587893e-05 2.3948995e-04 7.0143455e-05 
9.9751996e-05 2.7945419e-04 1.1013140e-04 
-1.0210949e-05 3.3184065e-04 1.3092124e-04 
4.6116635e-05 3.1527143e-04 2.0876087e-04 
-4.8809463e-05 1.5054829e-04 2.6877242e-04 
-9.2745337e-05 -2.1260948e-04 3.1176419e-04 
-1.5516342e-04 -8.6718198e-04 4.4358330e-04 
-3.6615884e-04 -1.9929856e-03 8.0172054e-04 
-4.3132334e-04 -3.8339167e-03 9.7488682e-04 
-3.9191061e-04 -6.5998323e-03 1.0283699e-03 
-1.7313480e-04 -1.0359372e-02 3.3350661e-04 
0.0000000e+00 -2.1419067e-02 0.0000000e+00 
0.0000000e+00 -2.7160576e-02 0.0000000e+00 
0.0000000e+00 -3.1752158e-02 0.0000000e+00 
0.0000000e+00 -3.4153968e-02 0.0000000e+00 
0.0000000e+00 -3.3684809e-02 0.0000000e+00 
0.0000000e+00 -3.0887177e-02 0.0000000e+00 
0.0000000e+00 -2.6555616e-02 0.0000000e+00 
0.0000000e+00 -2.1381987e-02 0.0000000e+00 
0.0000000e+00 -1.5925327e-02 0.0000000e+00 
0.0000000e+00 -1.0624208e-02 0.0000000e+00 
0.0000000e+00 -5.8241594e-03 0.0000000e+00 
0.0000000e+00 -1.7760296e-03 0.0000000e+00 
0.0000000e+00 1.3932312e-03 0.0000000e+00 
0.0000000e+00 3.6926763e-03 0.0000000e+00 
0.0000000e+00 5.2316911e-03 0.0000000e+00 
0.0000000e+00 6.1585237e-03 0.0000000e+00 
0.0000000e+00 6.6212923e-03 0.0000000e+00 
0.0000000e+00 6.7684348e-03 0.0000000e+00 
0.0000000e+00 6.7568282e-03 0.0000000e+00 
0.0000000e+00 6.7297467e-03 0.0000000e+00 
0.0000000e+00 -4.1143812e-06 0.0000000e+00 
0.0000000e+00 -1.2053159e-05 0.0000000e+00 
0.0000000e+00 -2.8493319e-05 0.0000000e+00 
0.0000000e+00 -4.1312884e-05 0.0000000e+00 
0.0000000e+00 -4.3694567e-05 0.0000000e+00 
0.0000000e+00 -3.9924678e-05 0.0000000e+00 
0.0000000e+00 -4.1338801e-05 0.0000000e+00 
0.0000000e+00 -5.4507265e-05 0.0000000e+00 
0.0000000e+00 -7.2647330e-05 0.0000000e+00 
0.0000000e+00 -8.4005471e-05 0.0000000e+00 
0.0000000e+00 -8.5172876e-05 0.0000000e+00 
0.0000000e+00 -8.3006678e-05 0.0000000e+00 
0.0000000e+00 -8.7039021e-05 0.0000000e+00 
0.0000000e+00 -9.9454213e-05 0.0000000e+00 
0.0000000e+00 -1.0834466e-04 0.0000000e+00 
0.0000000e+00 -1.0080137e-04 0.0000000e+00 
0.0000000e+00 -7.9019665e-05 0.0000000e+00 
0.0000000e+00 -5.4712178e-05 0.0000000e+00 
0.0000000e+00 -3.7393074e-05 0.0000000e+00 
0.0000000e+00 -2.5617799e-05 0.0000000e+00 
0.0000000e+00 -1.5551883e-05 0.0000000e+00 
0.0000000e+00 -2.1023318e-07 0.0000000e+00 
0.0000000e+00 2.1913216e-05 0.0000000e+00 
0.0000000e+00 4.5167493e-05 0.0000000e+00 
0.0000000e+00 7.0454422e-05 0.0000000e+00 
0.0000000e+00 9.1899812e-05 0.0000000e+00 
0.0000000e+00 9.9207493e-05 0.0000000e+00 
0.0000000e+00 9.1217429e-05 0.0000000e+00 
0.0000000e+00 8.6138469e-05 0.0000000e+00 
0.0000000e+00 9.8389581e-05 0.0000000e+00 
0.0000000e+00 1.2113222e-04 0.0000000e+00 
0.0000000e+00 1.2380858e-04 0.0000000e+00 
0.0000000e+00 3.6426496e-05 0.0000000e+00 
0.0000000e+00 -1.7641200e-04 0.0000000e+00 
0.0000000e+00 -5.0096732e-04 0.0000000e+00 
0.0000000e+00 -9.4885699e-04 0.0000000e+00 
0.0000000e+00 -1.5838178e-03 0.0000000e+00 
0.0000000e+00 -2.4696023e-03 0.0000000e+00 
0.0000000e+00 -3.5232734e-03 0.0000000e+00 
0.0000000e+00 -4.3759230e-03 0.0000000e+00 
0.0000000e+00 -4.4527748e-03 0.0000000e+00 
0.0000000e+00 -4.2212545e-03 0.0000000e+00 
0.0000000e+00 -4.1401736e-03 0.0000000e+00 
0.0000000e+00 -4.3266611e-03 0.0000000e+00 
0.0000000e+00 -4.3399250e-03 0.0000000e+00 
0.0000000e+00 -3.6094552e-03 0.0000000e+00 
0.0000000e+00 -2.5469633e-03 0.0000000e+00 
0.0000000e+00 -1.5914650e-03 0.0000000e+00 
0.0000000e+00 -8.8089501e-04 0.0000000e+00 
0.0000000e+00 -4.2314426e-04 0.0000000e+00 
0.0000000e+00 -1.5079844e-04 0.0000000e+00 
0.0000000e+00 -2.4386688e-06 0.0000000e+00 
0.0000000e+00 5.2619500e-05 0.0000000e+00 
0.0000000e+00 3.4669290e-05 0.0000000e+00 
0.0000000e+00 -2.0008454e-05 0.0000000e+00 
0.0000000e+00 -7.4151234e-05 0.0000000e+00 
0.0000000e+00 -1.0877688e-04 0.0000000e+00 
0.0000000e+00 -1.1959561e-04 0.0000000e+00 
0.0000000e+00 -1.1324505e-04 0.0000000e+00 
0.0000000e+00 -9.8853809e-05 0.0000000e+00 
0.0000000e+00 -8.3082516e-05 0.0000000e+00 
0.0000000e+00 -6.4971638e-05 0.0000000e+00 
0.0000000e+00 -3.7067610e-05 0.0000000e+00 
0.0000000e+00 4.0155614e-06 0.0000000e+00 
0.0000000e+00 5.7467019e-05 0.0000000e+00 
0.0000000e+00 1.1078684e-04 0.0000000e+00 
0.0000000e+00 1.5384943e-04 0.0000000e+00 
0.0000000e+00 1.8800120e-04 0.0000000e+00 
0.0000000e+00 2.1325752e-04 0.0000000e+00 
0.0000000e+00 2.4031468e-04 0.0000000e+00 
0.0000000e+00 2.8353179e-04 0.0000000e+00 
0.0000000e+00 3.3299750e-04 0.0000000e+00 
0.0000000e+00 3.1468060e-04 0.0000000e+00 
0.0000000e+00 1.5212582e-04 0.0000000e+00 
0.0000000e+00 -2.0960618e-04 0.0000000e+00 
0.0000000e+00 -8.6474005e-04 0.0000000e+00 
0.0000000e+00 -1.9938399e-03 0.0000000e+00 
0.0000000e+00 -3.8362734e-03 0.0000000e+00 
0.0000000e+00 -6.6096177e-03 0.0000000e+00 
0.0000000e+00 -1.0487078e-02 0.0000000e+00 
0.0000000e+00 -1.5551955e-02 0.0000000e+00 
0.0000000e+00 -2.1417923e-02 0.0000000e+00 
0.0000000e+00 -2.7161717e-02 0.0000000e+00 
0.0000000e+00 -3.1754274e-02 0.0000000e+00 
0.0000000e+00 -3.4155700e-02 0.0000000e+00 
0.0000000e+00 -3.3687659e-02 0.0000000e+00 
0.0000000e+00 -3.0891880e-02 0.0000000e+00 
0.0000000e+00 -2.6561128e-02 0.0000000e+00 
0.0000000e+00 -2.1386810e-02 0.0000000e+00 
0.0000000e+00 -1.5929444e-02 0.0000000e+00 
0.0000000e+00 -1.0628860e-02 0.0000000e+00 
0.0000000e+00 -5.8299028e-03 0.0000000e+00 
0.0000000e+00 -1.7817385e-03 0.0000000e+00 
0.0000000e+00 1.3892840e-03 0.0000000e+00 
0.0000000e+00 3.6910442e-03 0.0000000e+00 
0.0000000e+00 5.2313777e-03 0.0000000e+00 
0.0000000e+00 6.1583281e-03 0.0000000e+00 
0.0000000e+00 6.6211969e-03 0.0000000e+00 
0.0000000e+00 6.7694602e-03 0.0000000e+00 
0.0000000e+00 6.7596119e-03 0.0000000e+00 
0.0000000e+00 6.7334394e-03 0.0000000e+00 
0.0000000e+00 3.3859079e-04 0.0000000e+00 
2.2517077e-05 2.1019598e-05 4.5527824e-05 
2.2203141e-05 2.9839852e-04 2.0585416e-04 
0.0000000e+00 0.0000000e+00 0.0000000e+00 
0.0000000e+00 0.0000000e+00 0.0000000e+00 
0.0000000e+00 0.0000000e+00 0.0000000e+00 
0.0000000e+00 0.0000000e+00 0.0000000e+00 
0.0000000e+00 0.0000000e+00 0.0000000e+00 
0.0000000e+00 0.0000000e+00 0.0000000e+00 
0.0000000e+00 0.0000000e+00 0.0000000e+00 
0.0000000e+00 0.0000000e+00 0.0000000e+00 
0.0000000e+00 0.0000000e+00 0.0000000e+00 
0.0000000e+00 0.0000000e+00 0.0000000e+00 
0.0000000e+00 0.0000000e+00 0.0000000e+00 
0.0000000e+00 0.0000000e+00 0.0000000e+00 
0.0000000e+00 0.0000000e+00 0.0000000e+00 
0.0000000e+00 0.0000000e+00 0.0000000e+00 
0.0000000e+00 0.0000000e+00 0.0000000e+00 
0.0000000e+00 0.0000000e+00 0.0000000e+00 
0.0000000e+00 0.0000000e+00 0.0000000e+00 
0.0000000e+00 0.0000000e+00 0.0000000e+00 
0.0000000e+00 0.0000000e+00 0.0000000e+00 
0.0000000e+00 0.0000000e+00 0.0000000e+00 
0.0000000e+00 0.0000000e+00 0.0000000e+00 
0.0000000e+00 0.0000000e+00 0.0000000e+00 
0.0000000e+00 0.0000000e+00 0.0000000e+00 
0.0000000e+00 0.0000000e+00 0.0000000e+00 
0.0000000e+00 0.0000000e+00 0.0000000e+00 
0.0000000e+00 0.0000000e+00 0.0000000e+00 
0.0000000e+00 0.0000000e+00 0.0000000e+00 
0.0000000e+00 0.0000000e+00 0.0000000e+00 
0.0000000e+00 0.0000000e+00 0.0000000e+00 
0.0000000e+00 0.0000000e+00 0.0000000e+00 
0.0000000e+00 0.0000000e+00 0.0000000e+00 
0.0000000e+00 0.0000000e+00 0.0000000e+00 
0.0000000e+00 0.0000000e+00 0.0000000e+00 
0.0000000e+00 0.0000000e+00 0.0000000e+00 
0.0000000e+00 0.0000000e+00 0.0000000e+00 
0.0000000e+00 0.0000000e+00 0.0000000e+00 
0.0000000e+00 0.0000000e+00 0.0000000e+00 
0.0000000e+00 0.0000000e+00 0.0000000e+00 
0.0000000e+00 0.0000000e+00 0.0000000e+00 
0.0000000e+00 0.0000000e+00 0.0000000e+00 
0.0000000e+00 0.0000000e+00 0.0000000e+00 
0.0000000e+00 0.0000000e+00 0.0000000e+00 
-4.4980609e-07 -4.9325843e-07 -5.6611189e-08 
1.5966621e-06 3.6116983e-06 -5.8242154e-06 
2.6301884e-06 -1.3788547e-06 -5.2202308e-06 
-4.8755389e-08 -1.0486324e-06 -2.7830791e-07 
-5.6518325e-06 -2.1005137e-06 3.7156015e-06 
-1.4877580e-05 3.9508029e-07 2.7664478e-06 
-7.0217893e-06 -1.2176986e-06 -1.1941090e-06 
1.3376152e-05 -1.6015574e-06 -2.5923307e-06 
3.8587372e-05 -8.8226670e-06 -1.2022017e-05 
5.7033805e-05 -7.6434462e-06 -4.1683561e-06 
4.9944247e-05 -2.1448564e-06 8.0685268e-06 
2.2084831e-05 1.9609240e-06 3.2622768e-06 
3.2563858e-06 -5.5718351e-07 7.5732817e-07 
1.0006935e-06 -4.4526669e-06 1.0281126e-06 
-4.0544578e-06 4.4773486e-07 6.9380940e-06 
-1.3542521e-05 2.0660657e-06 7.1833415e-06 
-9.2005284e-06 5.0430835e-06 1.3520455e-05 
9.7947304e-06 5.7556866e-07 6.1759215e-06 
4.0763851e-05 -2.5053489e-06 -3.3948957e-06 
0.0000000e+00 -1.1605456e-05 0.0000000e+00 
0.0000000e+00 -2.7196299e-06 0.0000000e+00 
0.0000000e+00 -9.9633262e-06 0.0000000e+00 
0.0000000e+00 -1.9640696e-05 0.0000000e+00 
0.0000000e+00 -2.4521445e-05 0.0000000e+00 
0.0000000e+00 -7.3235135e-08 0.0000000e+00 
0.0000000e+00 1.2402626e-05 0.0000000e+00 
0.0000000e+00 -4.3675915e-05 0.0000000e+00 
0.0000000e+00 -2.3903701e-04 0.0000000e+00 
0.0000000e+00 -6.1169057e-04 0.0000000e+00 
0.0000000e+00 -5.7009928e-04 0.0000000e+00 
0.0000000e+00 -1.7604014e-04 0.0000000e+00 
0.0000000e+00 1.0486643e-05 0.0000000e+00 
0.0000000e+00 -4.8766378e-05 0.0000000e+00 
0.0000000e+00 -4.3215579e-05 0.0000000e+00 
0.0000000e+00 1.5296588e-05 0.0000000e+00 
0.0000000e+00 6.5436594e-05 0.0000000e+00 
0.0000000e+00 3.4014589e-05 0.0000000e+00 
0.0000000e+00 -3.8040525e-04 0.0000000e+00 
2.0175696e-06 2.3659155e-07 -9.9165852e-08 
3.7194304e-06 -5.1187903e-06 -1.5158212e-06 
1.0539386e-04 -1.0146271e-04 5.1819188e-05 
2.8238483e-04 -7.4068969e-04 8.7413478e-05 
-1.9355825e-06 -3.2313579e-07 -8.0906375e-07 
5.2727120e-07 4.8697825e-06 -5.5707201e-06 
1.5068294e-07 2.3129401e-07 -6.7400106e-06 
-2.4139495e-06 -5.1317706e-06 -2.3068178e-06 
-5.7695052e-06 -6.9081239e-06 3.0868162e-06 
-4.6122941e-06 -1.2426257e-07 3.1259319e-06 
-4.7876124e-06 -4.1536686e-07 -1.2230342e-06 
1.7387662e-05 -1.1055855e-06 -5.8852820e-06 
3.2920900e-05 -6.2204763e-06 -2.3050951e-07 
3.4474513e-05 -8.3078403e-06 -4.6173895e-06 
2.3932918e-05 1.0909349e-06 4.8072716e-06 
1.2363324e-05 6.6147177e-06 -5.0280710e-06 
8.2000861e-06 -1.2455258e-06 -1.3151512e-07 
-5.8813253e-06 -6.2306417e-06 6.3746852e-06 
-9.7507391e-06 -2.2014133e-06 5.3301137e-06 
-1.1711013e-05 -1.4787956e-06 7.2935886e-06 
1.9819659e-06 -2.8160969e-06 7.9425690e-06 
2.4413826e-05 3.6586953e-06 1.6846041e-05 
2.1049311e-05 1.5435244e-05 2.4490044e-05 
-2.3142006e-06 -1.2509284e-05 -1.8621998e-07 
0.0000000e+00 -3.4533972e-05 0.0000000e+00 
0.0000000e+00 -1.0202639e-05 0.0000000e+00 
0.0000000e+00 -3.5215511e-05 0.0000000e+00 
0.0000000e+00 -3.2582873e-05 0.0000000e+00 
0.0000000e+00 -1.0658120e-05 0.0000000e+00 
0.0000000e+00 -3.9577899e-05 0.0000000e+00 
0.0000000e+00 4.8416277e-05 0.0000000e+00 
0.0000000e+00 2.9365092e-05 0.0000000e+00 
0.0000000e+00 -5.7186076e-04 0.0000000e+00 
0.0000000e+00 -1.3629026e-03 0.0000000e+00 
0.0000000e+00 -1.2287271e-03 0.0000000e+00 
0.0000000e+00 -3.2150350e-04 0.0000000e+00 
0.0000000e+00 2.4085482e-05 0.0000000e+00 
0.0000000e+00 -8.3833140e-05 0.0000000e+00 
0.0000000e+00 -9.5863885e-05 0.0000000e+00 
0.0000000e+00 -5.7650332e-06 0.0000000e+00 
0.0000000e+00 1.8738832e-04 0.0000000e+00 
0.0000000e+00 1.0557622e-04 0.0000000e+00 
0.0000000e+00 -6.5832172e-04 0.0000000e+00 
2.8520817e-04 -1.5303316e-03 2.3990335e-04 
-3.2649747e-05 -2.8219709e-05 -8.6775844e-06 
-1.0956896e-05 -5.4028027e-05 5.1345778e-06 
1.5311758e-05 -9.2760769e-05 -8.6917153e-06 
-2.4821295e-05 -5.8245529e-05 -3.4181325e-05 
-2.4343655e-05 1.9895955e-07 -4.6190700e-05 
-1.0189163e-05 6.0186787e-05 -3.3143628e-05 
6.4244203e-05 7.4768526e-05 6.0343693e-05 
2.5611058e-05 1.5557407e-05 1.7965623e-04 
-3.0723403e-04 -5.8843824e-04 3.8552759e-04 
-7.6602958e-04 -1.5489364e-03 1.2322042e-04 
-6.8452919e-04 -1.5467189e-03 -2.1492947e-04 
-1.1911165e-04 -3.0362286e-04 -3.1455487e-04 
2.8092716e-05 -1.7079614e-05 -5.3676438e-05 
-4.3795153e-05 -8.9027191e-05 -2.7479229e-05 
-6.2261919e-05 -4.4839362e-05 -8.2739643e-05 
1.8187164e-05 2.7917566e-05 -9.8295212e-05 
1.0821037e-04 1.4796855e-04 4.3388281e-05 
4.5542238e-05 9.2882256e-05 2.5782018e-04 
-4.9486483e-04 -5.9410022e-04 8.1228826e-04 
0.0000000e+00 -4.4166321e-05 0.0000000e+00 
0.0000000e+00 -2.5831885e-05 0.0000000e+00 
0.0000000e+00 -4.3201842e-05 0.0000000e+00 
0.0000000e+00 -1.7112407e-05 0.0000000e+00 
0.0000000e+00 -4.5913708e-05 0.0000000e+00 
0.0000000e+00 -4.8731257e-05 0.0000000e+00 
0.0000000e+00 1.2225387e-04 0.0000000e+00 
0.0000000e+00 7.0142421e-05 0.0000000e+00 
0.0000000e+00 -1.0355070e-03 0.0000000e+00 
0.0000000e+00 -2.6053698e-03 0.0000000e+00 
0.0000000e+00 -2.3227055e-03 0.0000000e+00 
0.0000000e+00 -5.3672935e-04 0.0000000e+00 
0.0000000e+00 8.1234110e-05 0.0000000e+00 
0.0000000e+00 -1.2839923e-04 0.0000000e+00 
0.0000000e+00 -1.0670562e-04 0.0000000e+00 
0.0000000e+00 4.3937165e-05 0.0000000e+00 
0.0000000e+00 2.9091205e-04 0.0000000e+00 
0.0000000e+00 2.1108727e-04 0.0000000e+00 
0.0000000e+00 -1.2646569e-03 0.0000000e+00 
-5.8847545e-06 -1.5033622e-06 -7.3669130e-06 
-1.5018163e-06 -8.9326004e-06 -1.2143365e-05 
2.6960365e-06 -1.5199559e-05 -6.4183591e-06 
-4.8964239e-06 -1.3018488e-05 -2.8856559e-06 
-1.3374023e-05 -6.9462881e-06 -2.6800421e-06 
-1.3001215e-05 1.7919716e-05 -2.5121601e-06 
6.5255904e-06 3.0470077e-05 1.2724999e-05 
2.6408954e-05 3.1669031e-05 3.4947388e-05 
5.3927270e-05 -7.6693825e-05 2.5035029e-05 
4.2024029e-05 -1.4038179e-04 -8.3472338e-07 
3.2890173e-05 -1.2081634e-04 -9.5766536e-06 
4.1835818e-05 -5.7260120e-05 -1.7586026e-05 
4.2199345e-06 1.2678805e-05 -1.6819300e-05 
-9.5372361e-06 -1.4735639e-05 -1.1765624e-05 
-1.5609803e-05 -9.2858527e-06 -1.2941595e-05 
-5.8514338e-06 5.2133996e-06 -7.3253022e-06 
1.0882479e-05 3.2799435e-05 1.1421738e-05 
4.8018643e-05 -2.8109554e-05 5.2972613e-05 
5.5422056e-06 2.8308545e-05 1.6597139e-04 
0.0000000e+00 0.0000000e+00 0.0000000e+00 
0.0000000e+00 0.0000000e+00 0.0000000e+00 
0.0000000e+00 0.0000000e+00 0.0000000e+00 
0.0000000e+00 0.0000000e+00 0.0000000e+00 
0.0000000e+00 0.0000000e+00 0.0000000e+00 
0.0000000e+00 0.0000000e+00 0.0000000e+00 
0.0000000e+00 0.0000000e+00 0.0000000e+00 
0.0000000e+00 0.0000000e+00 0.0000000e+00 
0.0000000e+00 0.0000000e+00 0.0000000e+00 
0.0000000e+00 0.0000000e+00 0.0000000e+00 
0.0000000e+00 0.0000000e+00 0.0000000e+00 
0.0000000e+00 0.0000000e+00 0.0000000e+00 
0.0000000e+00 0.0000000e+00 0.0000000e+00 
0.0000000e+00 0.0000000e+00 0.0000000e+00 
0.0000000e+00 0.0000000e+00 0.0000000e+00 
0.0000000e+00 0.0000000e+00 0.0000000e+00 
0.0000000e+00 0.0000000e+00 0.0000000e+00 
0.0000000e+00 0.0000000e+00 0.0000000e+00 
0.0000000e+00 0.0000000e+00 0.0000000e+00 
0.0000000e+00 0.0000000e+00 0.0000000e+00 
0.0000000e+00 0.0000000e+00 0.0000000e+00 
0.0000000e+00 0.0000000e+00 0.0000000e+00 
0.0000000e+00 0.0000000e+00 0.0000000e+00 
0.0000000e+00 0.0000000e+00 0.0000000e+00 
0.0000000e+00 0.0000000e+00 0.0000000e+00 
0.0000000e+00 0.0000000e+00 0.0000000e+00 
0.0000000e+00 0.0000000e+00 0.0000000e+00 
0.0000000e+00 0.0000000e+00 0.0000000e+00 
0.0000000e+00 0.0000000e+00 0.0000000e+00 
0.0000000e+00 0.0000000e+00 0.0000000e+00 
0.0000000e+00 0.0000000e+00 0.0000000e+00 
0.0000000e+00 0.0000000e+00 0.0000000e+00 
0.0000000e+00 0.0000000e+00 0.0000000e+00 
0.0000000e+00 0.0000000e+00 0.0000000e+00 
0.0000000e+00 0.0000000e+00 0.0000000e+00 
0.0000000e+00 0.0000000e+00 0.0000000e+00 
0.0000000e+00 0.0000000e+00 0.0000000e+00 
0.0000000e+00 0.0000000e+00 0.0000000e+00 
0.0000000e+00 0.0000000e+00 0.0000000e+00 
0.0000000e+00 0.0000000e+00 0.0000000e+00 
0.0000000e+00 0.0000000e+00 0.0000000e+00 
0.0000000e+00 0.0000000e+00 0.0000000e+00 
-3.4081634e-08 -2.9036369e-07 6.6002207e-07 
-6.0342377e-06 -6.6609277e-07 -5.7359210e-07 
4.0949925e-07 1.2671521e-06 1.8612885e-06 
2.1764476e-05 -7.2916646e-06 2.5105753e-06 
3.7145721e-06 -2.3613391e-06 5.0641165e-07 
-1.3545193e-06 -7.1630637e-07 -1.0235325e-06 
-8.2427130e-07 -1.2509149e-06 4.4879716e-06 