# vtk DataFile Version 4.0
vtk output
ASCII
DATASET UNSTRUCTURED_GRID
POINTS 662 float
0.0000000e+00 0.0000000e+00 0.0000000e+00 
0.0000000e+00 0.0000000e+00 4.0000000e+01 
5.0000000e+00 0.0000000e+00 0.0000000e+00 
5.0000000e+00 0.0000000e+00 4.0000000e+01 
5.0000000e+00 1.0000000e+00 0.0000000e+00 
5.0000000e+00 1.0000000e+00 4.0000000e+01 
0.0000000e+00 1.0000000e+00 0.0000000e+00 
0.0000000e+00 1.0000000e+00 4.0000000e+01 
5.0000000e+00 2.0000000e+00 0.0000000e+00 
5.0000000e+00 2.0000000e+00 4.0000000e+01 
3.0000000e+00 2.0000000e+00 0.0000000e+00 
3.0000000e+00 2.0000000e+00 4.0000000e+01 
0.0000000e+00 2.0000000e+00 0.0000000e+00 
0.0000000e+00 2.0000000e+00 4.0000000e+01 
1.5000000e+00 3.0000000e+00 0.0000000e+00 
1.5000000e+00 3.0000000e+00 4.0000000e+01 
7.5000000e-01 3.0000000e+00 0.0000000e+00 
7.5000000e-01 3.0000000e+00 4.0000000e+01 
0.0000000e+00 3.0000000e+00 0.0000000e+00 
0.0000000e+00 3.0000000e+00 4.0000000e+01 
7.5000000e-01 3.0000000e+00 5.0000000e-01 
7.5000000e-01 3.0000000e+00 1.0000000e+00 
7.5000000e-01 3.0000000e+00 1.5000000e+00 
7.5000000e-01 3.0000000e+00 2.0000000e+00 
7.5000000e-01 3.0000000e+00 2.5000000e+00 
7.5000000e-01 3.0000000e+00 3.0000000e+00 
7.5000000e-01 3.0000000e+00 3.5000000e+00 
7.5000000e-01 3.0000000e+00 4.0000000e+00 
7.5000000e-01 3.0000000e+00 4.5000000e+00 
7.5000000e-01 3.0000000e+00 5.0000000e+00 
7.5000000e-01 3.0000000e+00 5.5000000e+00 
7.5000000e-01 3.0000000e+00 6.0000000e+00 
7.5000000e-01 3.0000000e+00 6.5000000e+00 
7.5000000e-01 3.0000000e+00 7.0000000e+00 
7.5000000e-01 3.0000000e+00 7.5000000e+00 
7.5000000e-01 3.0000000e+00 8.0000000e+00 
7.5000000e-01 3.0000000e+00 8.5000000e+00 
7.5000000e-01 3.0000000e+00 9.0000000e+00 
7.5000000e-01 3.0000000e+00 9.5000000e+00 
7.5000000e-01 3.0000000e+00 1.0000000e+01 
7.5000000e-01 3.0000000e+00 1.0500000e+01 
7.5000000e-01 3.0000000e+00 1.1000000e+01 
7.5000000e-01 3.0000000e+00 1.1500000e+01 
7.5000000e-01 3.0000000e+00 1.2000000e+01 
7.5000000e-01 3.0000000e+00 1.2500000e+01 
7.5000000e-01 3.0000000e+00 1.3000000e+01 
7.5000000e-01 3.0000000e+00 1.3500000e+01 
7.5000000e-01 3.0000000e+00 1.4000000e+01 
7.5000000e-01 3.0000000e+00 1.4500000e+01 
7.5000000e-01 3.0000000e+00 1.5000000e+01 
7.5000000e-01 3.0000000e+00 1.5500000e+01 
7.5000000e-01 3.0000000e+00 1.6000000e+01 
7.5000000e-01 3.0000000e+00 1.6500000e+01 
7.5000000e-01 3.0000000e+00 1.7000000e+01 
7.5000000e-01 3.0000000e+00 1.7500000e+01 
7.5000000e-01 3.0000000e+00 1.8000000e+01 
7.5000000e-01 3.0000000e+00 1.8500000e+01 
7.5000000e-01 3.0000000e+00 1.9000000e+01 
7.5000000e-01 3.0000000e+00 1.9500000e+01 
7.5000000e-01 3.0000000e+00 2.0000000e+01 
7.5000000e-01 3.0000000e+00 2.0500000e+01 
7.5000000e-01 3.0000000e+00 2.1000000e+01 
7.5000000e-01 3.0000000e+00 2.1500000e+01 
7.5000000e-01 3.0000000e+00 2.2000000e+01 
7.5000000e-01 3.0000000e+00 2.2500000e+01 
7.5000000e-01 3.0000000e+00 2.3000000e+01 
7.5000000e-01 3.0000000e+00 2.3500000e+01 
7.5000000e-01 3.0000000e+00 2.4000000e+01 
7.5000000e-01 3.0000000e+00 2.4500000e+01 
7.5000000e-01 3.0000000e+00 2.5000000e+01 
7.5000000e-01 3.0000000e+00 2.5500000e+01 
7.5000000e-01 3.0000000e+00 2.6000000e+01 
7.5000000e-01 3.0000000e+00 2.6500000e+01 
7.5000000e-01 3.0000000e+00 2.7000000e+01 
7.5000000e-01 3.0000000e+00 2.7500000e+01 
7.5000000e-01 3.0000000e+00 2.8000000e+01 
7.5000000e-01 3.0000000e+00 2.8500000e+01 
7.5000000e-01 3.0000000e+00 2.9000000e+01 
7.5000000e-01 3.0000000e+00 2.9500000e+01 
7.5000000e-01 3.0000000e+00 3.0000000e+01 
7.5000000e-01 3.0000000e+00 3.0500000e+01 
7.5000000e-01 3.0000000e+00 3.1000000e+01 
7.5000000e-01 3.0000000e+00 3.1500000e+01 
7.5000000e-01 3.0000000e+00 3.2000000e+01 
7.5000000e-01 3.0000000e+00 3.2500000e+01 
7.5000000e-01 3.0000000e+00 3.3000000e+01 
7.5000000e-01 3.0000000e+00 3.3500000e+01 
7.5000000e-01 3.0000000e+00 3.4000000e+01 
7.5000000e-01 3.0000000e+00 3.4500000e+01 
7.5000000e-01 3.0000000e+00 3.5000000e+01 
7.5000000e-01 3.0000000e+00 3.5500000e+01 
7.5000000e-01 3.0000000e+00 3.6000000e+01 
7.5000000e-01 3.0000000e+00 3.6500000e+01 
7.5000000e-01 3.0000000e+00 3.7000000e+01 
7.5000000e-01 3.0000000e+00 3.7500000e+01 
7.5000000e-01 3.0000000e+00 3.8000000e+01 
7.5000000e-01 3.0000000e+00 3.8500000e+01 
7.5000000e-01 3.0000000e+00 3.9000000e+01 
7.5000000e-01 3.0000000e+00 3.9500000e+01 
7.5000000e-01 3.0000000e+00 4.0500000e+01 
7.5000000e-01 3.0000000e+00 4.1000000e+01 
7.5000000e-01 3.0000000e+00 4.1500000e+01 
7.5000000e-01 3.0000000e+00 4.2000000e+01 
7.5000000e-01 3.0000000e+00 4.2500000e+01 
7.5000000e-01 3.0000000e+00 4.3000000e+01 
7.5000000e-01 3.0000000e+00 4.3500000e+01 
7.5000000e-01 3.0000000e+00 4.4000000e+01 
7.5000000e-01 3.0000000e+00 4.4500000e+01 
7.5000000e-01 3.0000000e+00 4.5000000e+01 
7.5000000e-01 3.0000000e+00 4.5500000e+01 
7.5000000e-01 3.0000000e+00 4.6000000e+01 
7.5000000e-01 3.0000000e+00 4.6500000e+01 
7.5000000e-01 3.0000000e+00 4.7000000e+01 
7.5000000e-01 3.0000000e+00 4.7500000e+01 
7.5000000e-01 3.0000000e+00 4.8000000e+01 
7.5000000e-01 3.0000000e+00 4.8500000e+01 
7.5000000e-01 3.0000000e+00 4.9000000e+01 
7.5000000e-01 3.0000000e+00 4.9500000e+01 
7.5000000e-01 3.0000000e+00 5.0000000e+01 
7.5000000e-01 3.0250001e+00 0.0000000e+00 
7.5000000e-01 3.0250001e+00 5.0000000e-01 
7.5000000e-01 3.0250001e+00 1.0000000e+00 
7.5000000e-01 3.0250001e+00 1.5000000e+00 
7.5000000e-01 3.0250001e+00 2.0000000e+00 
7.5000000e-01 3.0250001e+00 2.5000000e+00 
7.5000000e-01 3.0250001e+00 3.0000000e+00 
7.5000000e-01 3.0250001e+00 3.5000000e+00 
7.5000000e-01 3.0250001e+00 4.0000000e+00 
7.5000000e-01 3.0250001e+00 4.5000000e+00 
7.5000000e-01 3.0250001e+00 5.0000000e+00 
7.5000000e-01 3.0250001e+00 5.5000000e+00 
7.5000000e-01 3.0250001e+00 6.0000000e+00 
7.5000000e-01 3.0250001e+00 6.5000000e+00 
7.5000000e-01 3.0250001e+00 7.0000000e+00 
7.5000000e-01 3.0250001e+00 7.5000000e+00 
7.5000000e-01 3.0250001e+00 8.0000000e+00 
7.5000000e-01 3.0250001e+00 8.5000000e+00 
7.5000000e-01 3.0250001e+00 9.0000000e+00 
7.5000000e-01 3.0250001e+00 9.5000000e+00 
7.5000000e-01 3.0250001e+00 1.0000000e+01 
7.5000000e-01 3.0250001e+00 1.0500000e+01 
7.5000000e-01 3.0250001e+00 1.1000000e+01 
7.5000000e-01 3.0250001e+00 1.1500000e+01 
7.5000000e-01 3.0250001e+00 1.2000000e+01 
7.5000000e-01 3.0250001e+00 1.2500000e+01 
7.5000000e-01 3.0250001e+00 1.3000000e+01 
7.5000000e-01 3.0250001e+00 1.3500000e+01 
7.5000000e-01 3.0250001e+00 1.4000000e+01 
7.5000000e-01 3.0250001e+00 1.4500000e+01 
7.5000000e-01 3.0250001e+00 1.5000000e+01 
7.5000000e-01 3.0250001e+00 1.5500000e+01 
7.5000000e-01 3.0250001e+00 1.6000000e+01 
7.5000000e-01 3.0250001e+00 1.6500000e+01 
7.5000000e-01 3.0250001e+00 1.7000000e+01 
7.5000000e-01 3.0250001e+00 1.7500000e+01 
7.5000000e-01 3.0250001e+00 1.8000000e+01 
7.5000000e-01 3.0250001e+00 1.8500000e+01 
7.5000000e-01 3.0250001e+00 1.9000000e+01 
7.5000000e-01 3.0250001e+00 1.9500000e+01 
7.5000000e-01 3.0250001e+00 2.0000000e+01 
7.5000000e-01 3.0250001e+00 2.0500000e+01 
7.5000000e-01 3.0250001e+00 2.1000000e+01 
7.5000000e-01 3.0250001e+00 2.1500000e+01 
7.5000000e-01 3.0250001e+00 2.2000000e+01 
7.5000000e-01 3.0250001e+00 2.2500000e+01 
7.5000000e-01 3.0250001e+00 2.3000000e+01 
7.5000000e-01 3.0250001e+00 2.3500000e+01 
7.5000000e-01 3.0250001e+00 2.4000000e+01 
7.5000000e-01 3.0250001e+00 2.4500000e+01 
7.5000000e-01 3.0250001e+00 2.5000000e+01 
7.5000000e-01 3.0250001e+00 2.5500000e+01 
7.5000000e-01 3.0250001e+00 2.6000000e+01 
7.5000000e-01 3.0250001e+00 2.6500000e+01 
7.5000000e-01 3.0250001e+00 2.7000000e+01 
7.5000000e-01 3.0250001e+00 2.7500000e+01 
7.5000000e-01 3.0250001e+00 2.8000000e+01 
7.5000000e-01 3.0250001e+00 2.8500000e+01 
7.5000000e-01 3.0250001e+00 2.9000000e+01 
7.5000000e-01 3.0250001e+00 2.9500000e+01 
7.5000000e-01 3.0250001e+00 3.0000000e+01 
7.5000000e-01 3.0250001e+00 3.0500000e+01 
7.5000000e-01 3.0250001e+00 3.1000000e+01 
7.5000000e-01 3.0250001e+00 3.1500000e+01 
7.5000000e-01 3.0250001e+00 3.2000000e+01 
7.5000000e-01 3.0250001e+00 3.2500000e+01 
7.5000000e-01 3.0250001e+00 3.3000000e+01 
7.5000000e-01 3.0250001e+00 3.3500000e+01 
7.5000000e-01 3.0250001e+00 3.4000000e+01 
7.5000000e-01 3.0250001e+00 3.4500000e+01 
7.5000000e-01 3.0250001e+00 3.5000000e+01 
7.5000000e-01 3.0250001e+00 3.5500000e+01 
7.5000000e-01 3.0250001e+00 3.6000000e+01 
7.5000000e-01 3.0250001e+00 3.6500000e+01 
7.5000000e-01 3.0250001e+00 3.7000000e+01 
7.5000000e-01 3.0250001e+00 3.7500000e+01 
7.5000000e-01 3.0250001e+00 3.8000000e+01 
7.5000000e-01 3.0250001e+00 3.8500000e+01 
7.5000000e-01 3.0250001e+00 3.9000000e+01 
7.5000000e-01 3.0250001e+00 3.9500000e+01 
7.5000000e-01 3.0250001e+00 4.0000000e+01 
7.5000000e-01 3.0250001e+00 4.0500000e+01 
7.5000000e-01 3.0250001e+00 4.1000000e+01 
7.5000000e-01 3.0250001e+00 4.1500000e+01 
7.5000000e-01 3.0250001e+00 4.2000000e+01 
7.5000000e-01 3.0250001e+00 4.2500000e+01 
7.5000000e-01 3.0250001e+00 4.3000000e+01 
7.5000000e-01 3.0250001e+00 4.3500000e+01 
7.5000000e-01 3.0250001e+00 4.4000000e+01 
7.5000000e-01 3.0250001e+00 4.4500000e+01 
7.5000000e-01 3.0250001e+00 4.5000000e+01 
7.5000000e-01 3.0250001e+00 4.5500000e+01 
7.5000000e-01 3.0250001e+00 4.6000000e+01 
7.5000000e-01 3.0250001e+00 4.6500000e+01 
7.5000000e-01 3.0250001e+00 4.7000000e+01 
7.5000000e-01 3.0250001e+00 4.7500000e+01 
7.5000000e-01 3.0250001e+00 4.8000000e+01 
7.5000000e-01 3.0250001e+00 4.8500000e+01 
7.5000000e-01 3.0250001e+00 4.9000000e+01 
7.5000000e-01 3.0250001e+00 4.9500000e+01 
7.5000000e-01 3.0250001e+00 5.0000000e+01 
7.5000000e-01 3.0250001e+00 3.5750000e+01 
3.0000000e+00 2.0000000e+00 3.6000000e+01 
8.0487806e-01 3.0000000e+00 3.6000000e+01 
0.0000000e+00 0.0000000e+00 2.0000000e+00 
0.0000000e+00 0.0000000e+00 4.0000000e+00 
0.0000000e+00 0.0000000e+00 6.0000000e+00 
0.0000000e+00 0.0000000e+00 8.0000000e+00 
0.0000000e+00 0.0000000e+00 1.0000000e+01 
0.0000000e+00 0.0000000e+00 1.2000000e+01 
0.0000000e+00 0.0000000e+00 1.4000000e+01 
[...]
POINT_DATA 662
FIELD FieldData 3
DISPLACEMENT 3 662  float
0.0000000e+00 0.0000000e+00 0.0000000e+00 
0.0000000e+00 0.0000000e+00 0.0000000e+00 
0.0000000e+00 0.0000000e+00 0.0000000e+00 
0.0000000e+00 0.0000000e+00 0.0000000e+00 
-8.3832487e-07 -4.8719180e-06 3.4393581e-06 
-9.3451604e-07 -4.7918293e-06 -6.4449086e-06 
0.0000000e+00 -9.0876147e-06 0.0000000e+00 
0.0000000e+00 3.7412428e-05 0.0000000e+00 
7.2052321e-06 -1.3253803e-05 -4.7516346e-06 
5.5580921e-07 -1.2001082e-05 3.4148377e-07 
-1.2630049e-06 1.2018489e-05 6.8085336e-07 
-5.9518493e-06 2.2488750e-06 -6.6538901e-06 
0.0000000e+00 1.6298130e-06 0.0000000e+00 
0.0000000e+00 7.0052993e-05 0.0000000e+00 
2.8867045e-05 5.5605913e-05 -3.0955856e-05 
3.5836911e-05 5.1229108e-05 -2.7230028e-05 
-1.1451537e-05 9.8079152e-05 -6.4624383e-06 
4.2897616e-05 9.2037473e-05 -2.0912275e-05 
0.0000000e+00 3.0773976e-05 0.0000000e+00 
0.0000000e+00 1.0067604e-04 0.0000000e+00 
8.1186863e-06 9.5977295e-05 3.8918829e-06 
2.2947479e-05 9.0397378e-05 1.0526956e-05 
1.2033668e-05 8.4555264e-05 2.9453508e-05 
-9.9968338e-06 7.8561927e-05 1.8446030e-05 
-9.3063181e-06 7.4633121e-05 1.7176117e-05 
-2.3854329e-05 7.6986609e-05 2.3157150e-05 
-5.8959827e-06 7.1950504e-05 -2.5230305e-05 
3.1179115e-05 7.8824713e-05 2.1543051e-06 
4.4307166e-05 9.5318988e-05 -1.4106638e-06 
7.1641362e-06 1.0779493e-04 -1.3642260e-05 
5.2873856e-05 1.1181788e-04 -1.0100265e-06 
1.9362475e-05 1.2687340e-04 -2.6667416e-05 
8.0039979e-05 1.7716730e-04 -3.7399124e-05 
9.9979232e-05 2.5232258e-04 -1.1774518e-05 
7.2429735e-05 3.3011902e-04 1.0305085e-05 
5.7096575e-05 3.1313326e-04 1.4499369e-05 
-3.5698275e-05 1.4818810e-04 7.5510237e-05 
2.0545745e-05 -1.4220325e-04 9.6305084e-05 
-5.6764118e-05 -5.7074247e-04 1.3468903e-04 
-4.2105166e-05 -1.1881642e-03 1.2119331e-04 
-1.7966598e-04 -2.0744195e-03 1.9056888e-04 
-2.4013262e-04 -3.1121033e-03 2.1645309e-04 
-1.3276470e-04 -4.0057437e-03 1.8941515e-04 
-1.5723436e-04 -4.1207741e-03 2.0162023e-04 
-2.8512790e-04 -3.9699893e-03 1.4678121e-04 
-3.7254617e-04 -3.9620008e-03 9.7958909e-05 
-2.3955779e-04 -4.2653601e-03 3.8631315e-05 
-8.1680177e-05 -4.3548192e-03 -1.5729827e-05 
-1.0778174e-04 -3.6805503e-03 -1.0536679e-04 
-2.1025831e-04 -2.6155021e-03 -1.4809000e-04 
-2.0273213e-04 -1.6461941e-03 -1.6410691e-04 
-6.2358486e-05 -8.8939263e-04 -1.3366404e-04 
-1.5530941e-05 -3.8444801e-04 -2.0090386e-04 
4.6976711e-06 -6.1567225e-05 -1.9436073e-04 
1.2463435e-05 1.3192379e-04 -1.7482687e-04 
2.8391387e-05 2.1716993e-04 -1.4084582e-04 
7.7602876e-05 2.0850565e-04 -9.3487761e-05 
8.9582398e-05 1.5166093e-04 -2.9162820e-05 
6.4621054e-05 9.5117721e-05 4.0170671e-06 
1.2258810e-05 5.2659310e-05 1.9179548e-05 
-2.8824597e-05 2.6104288e-05 1.6069454e-05 
-1.7326964e-05 4.6031432e-06 -1.1436072e-05 
-4.6063476e-05 -2.1313332e-05 -3.5530731e-05 
-1.7663704e-05 -4.9914339e-05 -2.8800574e-05 
3.8092739e-06 -7.4391028e-05 3.9634547e-06 
1.2060354e-05 -8.1867343e-05 -9.5570213e-06 
3.0857907e-05 -6.4202104e-05 -3.9579623e-07 
-8.9890164e-06 -1.1441219e-05 1.4293422e-05 
6.2496751e-05 7.0952970e-05 -4.2738775e-05 
2.9484720e-05 1.5574918e-04 -2.5303158e-05 
9.1502530e-05 2.3795600e-04 -3.1262913e-05 
6.6081855e-05 2.8436101e-04 -1.0273501e-04 
5.3608237e-05 3.0325391e-04 -7.2749746e-05 
1.1479091e-04 3.2476845e-04 -5.5296670e-05 
4.4273038e-05 3.5831807e-04 -4.5095698e-05 
6.6787419e-05 3.2121307e-04 3.0414158e-05 
5.9263393e-06 1.2390339e-04 8.4961452e-05 
-8.1131520e-06 -2.5510197e-04 1.4475387e-04 
-4.6897938e-05 -8.3886064e-04 2.2092869e-04 
-1.1184861e-04 -1.5835381e-03 2.0680796e-04 
-2.3265803e-04 -2.5004102e-03 2.7071967e-04 
-3.0385485e-04 -3.4698928e-03 2.4270578e-04 
-1.5353393e-04 -4.2377296e-03 1.7786158e-04 
-1.4069368e-04 -4.2985445e-03 1.5220972e-04 
-2.8597747e-04 -4.1654310e-03 9.8305871e-05 
-3.2782031e-04 -4.1510663e-03 3.9054794e-05 
-2.1885503e-04 -4.3357410e-03 2.0899492e-06 
-6.7139386e-05 -4.2168181e-03 -2.6385003e-08 
-1.0135138e-04 -3.4039423e-03 -1.1613037e-04 
-2.0047920e-04 -2.3104909e-03 -1.5885958e-04 
-2.1554697e-04 -1.3872384e-03 -1.6500521e-04 
-1.5042194e-04 -7.0015137e-04 -1.3603107e-04 
-7.3634044e-05 -2.6061950e-04 -1.4455500e-04 
-5.1317580e-05 -1.6164697e-06 -1.3045735e-04 
-3.8584625e-05 1.2820573e-04 -1.3624276e-04 
-9.0836365e-06 1.7178206e-04 -1.3424104e-04 
1.2407854e-05 1.7093185e-04 -1.1348917e-04 
3.1668271e-05 1.5544181e-04 -8.6920983e-05 
3.4353474e-05 1.3248266e-04 -7.4633543e-05 
0.0000000e+00 3.8513030e-05 0.0000000e+00 
0.0000000e+00 -1.7042936e-05 0.0000000e+00 
0.0000000e+00 -6.4248896e-05 0.0000000e+00 
0.0000000e+00 -9.9179109e-05 0.0000000e+00 
0.0000000e+00 -1.2081683e-04 0.0000000e+00 
0.0000000e+00 -1.2571417e-04 0.0000000e+00 
0.0000000e+00 -1.0917234e-04 0.0000000e+00 
0.0000000e+00 -7.1798677e-05 0.0000000e+00 
0.0000000e+00 -2.2889370e-05 0.0000000e+00 
0.0000000e+00 2.4189874e-05 0.0000000e+00 
0.0000000e+00 5.9926639e-05 0.0000000e+00 
0.0000000e+00 8.1732287e-05 0.0000000e+00 
0.0000000e+00 9.0256101e-05 0.0000000e+00 
0.0000000e+00 8.4801519e-05 0.0000000e+00 
0.0000000e+00 6.3737236e-05 0.0000000e+00 
0.0000000e+00 2.8875382e-05 0.0000000e+00 
0.0000000e+00 -1.2172253e-05 0.0000000e+00 
0.0000000e+00 -4.8952807e-05 0.0000000e+00 
0.0000000e+00 -7.3343668e-05 0.0000000e+00 
0.0000000e+00 -8.1726444e-05 0.0000000e+00 
0.0000000e+00 9.8376782e-05 0.0000000e+00 
0.0000000e+00 9.6033604e-05 0.0000000e+00 
0.0000000e+00 9.0311754e-05 0.0000000e+00 
0.0000000e+00 8.4259402e-05 0.0000000e+00 
0.0000000e+00 7.8621291e-05 0.0000000e+00 
0.0000000e+00 7.5701158e-05 0.0000000e+00 
0.0000000e+00 7.5323223e-05 0.0000000e+00 
0.0000000e+00 7.3098810e-05 0.0000000e+00 
0.0000000e+00 7.9594589e-05 0.0000000e+00 
0.0000000e+00 9.4887342e-05 0.0000000e+00 
0.0000000e+00 1.0690111e-04 0.0000000e+00 
0.0000000e+00 1.1115193e-04 0.0000000e+00 
0.0000000e+00 1.2793219e-04 0.0000000e+00 
0.0000000e+00 1.7823841e-04 0.0000000e+00 
0.0000000e+00 2.5714331e-04 0.0000000e+00 
0.0000000e+00 3.2853510e-04 0.0000000e+00 
0.0000000e+00 3.0891111e-04 0.0000000e+00 
0.0000000e+00 1.4915675e-04 0.0000000e+00 
0.0000000e+00 -1.4085852e-04 0.0000000e+00 
0.0000000e+00 -5.6874036e-04 0.0000000e+00 
0.0000000e+00 -1.1957060e-03 0.0000000e+00 
0.0000000e+00 -2.0839875e-03 0.0000000e+00 
0.0000000e+00 -3.1501057e-03 0.0000000e+00 
0.0000000e+00 -4.0279026e-03 0.0000000e+00 
0.0000000e+00 -4.1457769e-03 0.0000000e+00 
0.0000000e+00 -3.9830301e-03 0.0000000e+00 
0.0000000e+00 -3.9960938e-03 0.0000000e+00 
0.0000000e+00 -4.2876396e-03 0.0000000e+00 
0.0000000e+00 -4.3874332e-03 0.0000000e+00 
0.0000000e+00 -3.6972421e-03 0.0000000e+00 
0.0000000e+00 -2.6344580e-03 0.0000000e+00 
0.0000000e+00 -1.6499697e-03 0.0000000e+00 
0.0000000e+00 -8.9374161e-04 0.0000000e+00 
0.0000000e+00 -3.8357731e-04 0.0000000e+00 
0.0000000e+00 -6.0024438e-05 0.0000000e+00 
0.0000000e+00 1.3244069e-04 0.0000000e+00 
0.0000000e+00 2.1627278e-04 0.0000000e+00 
0.0000000e+00 2.0871717e-04 0.0000000e+00 
0.0000000e+00 1.5315197e-04 0.0000000e+00 
0.0000000e+00 9.5492513e-05 0.0000000e+00 
0.0000000e+00 5.3437139e-05 0.0000000e+00 
0.0000000e+00 2.6342233e-05 0.0000000e+00 
0.0000000e+00 4.0104328e-06 0.0000000e+00 
0.0000000e+00 -2.1556214e-05 0.0000000e+00 
0.0000000e+00 -5.0150898e-05 0.0000000e+00 
0.0000000e+00 -7.4147421e-05 0.0000000e+00 
0.0000000e+00 -8.1821956e-05 0.0000000e+00 
0.0000000e+00 -6.3606887e-05 0.0000000e+00 
0.0000000e+00 -1.0610709e-05 0.0000000e+00 
0.0000000e+00 7.0316615e-05 0.0000000e+00 
0.0000000e+00 1.5794767e-04 0.0000000e+00 
0.0000000e+00 2.3573713e-04 0.0000000e+00 
0.0000000e+00 2.8227005e-04 0.0000000e+00 
0.0000000e+00 3.0425933e-04 0.0000000e+00 
0.0000000e+00 3.2976316e-04 0.0000000e+00 
0.0000000e+00 3.5976936e-04 0.0000000e+00 
0.0000000e+00 3.1884288e-04 0.0000000e+00 
0.0000000e+00 1.2346571e-04 0.0000000e+00 
0.0000000e+00 -2.5956111e-04 0.0000000e+00 
0.0000000e+00 -8.3707308e-04 0.0000000e+00 
0.0000000e+00 -1.5889516e-03 0.0000000e+00 
0.0000000e+00 -2.5095374e-03 0.0000000e+00 
0.0000000e+00 -3.5080097e-03 0.0000000e+00 
0.0000000e+00 -4.2631566e-03 0.0000000e+00 
0.0000000e+00 -4.3277037e-03 0.0000000e+00 
0.0000000e+00 -4.1781687e-03 0.0000000e+00 
0.0000000e+00 -4.1811103e-03 0.0000000e+00 
0.0000000e+00 -4.3569957e-03 0.0000000e+00 
0.0000000e+00 -4.2528822e-03 0.0000000e+00 
0.0000000e+00 -3.4224512e-03 0.0000000e+00 
0.0000000e+00 -2.3291428e-03 0.0000000e+00 
0.0000000e+00 -1.3889550e-03 0.0000000e+00 
0.0000000e+00 -7.0300582e-04 0.0000000e+00 
0.0000000e+00 -2.6048478e-04 0.0000000e+00 
0.0000000e+00 -1.1304674e-06 0.0000000e+00 
0.0000000e+00 1.2861453e-04 0.0000000e+00 
0.0000000e+00 1.7265385e-04 0.0000000e+00 
0.0000000e+00 1.7205093e-04 0.0000000e+00 
0.0000000e+00 1.5609883e-04 0.0000000e+00 
0.0000000e+00 1.3175279e-04 0.0000000e+00 
0.0000000e+00 9.1854570e-05 0.0000000e+00 
0.0000000e+00 3.8658465e-05 0.0000000e+00 
0.0000000e+00 -1.6817190e-05 0.0000000e+00 
0.0000000e+00 -6.4243795e-05 0.0000000e+00 
0.0000000e+00 -9.9316334e-05 0.0000000e+00 
0.0000000e+00 -1.2078432e-04 0.0000000e+00 
0.0000000e+00 -1.2539692e-04 0.0000000e+00 
0.0000000e+00 -1.0880954e-04 0.0000000e+00 
0.0000000e+00 -7.1702692e-05 0.0000000e+00 
0.0000000e+00 -2.3097416e-05 0.0000000e+00 
0.0000000e+00 2.3924076e-05 0.0000000e+00 
0.0000000e+00 5.9831258e-05 0.0000000e+00 
0.0000000e+00 8.1782811e-05 0.0000000e+00 
0.0000000e+00 9.0257134e-05 0.0000000e+00 
0.0000000e+00 8.4644664e-05 0.0000000e+00 
0.0000000e+00 6.3521424e-05 0.0000000e+00 
0.0000000e+00 2.8778237e-05 0.0000000e+00 
0.0000000e+00 -1.2091981e-05 0.0000000e+00 
0.0000000e+00 -4.8794671e-05 0.0000000e+00 
0.0000000e+00 -7.3227478e-05 0.0000000e+00 
0.0000000e+00 -8.1653983e-05 0.0000000e+00 
0.0000000e+00 -1.0113519e-03 0.0000000e+00 
2.8153139e-05 -4.0747258e-05 4.7374238e-06 
-1.0909131e-04 -6.1834056e-04 -1.0645109e-04 
0.0000000e+00 0.0000000e+00 0.0000000e+00 
0.0000000e+00 0.0000000e+00 0.0000000e+00 
0.0000000e+00 0.0000000e+00 0.0000000e+00 
0.0000000e+00 0.0000000e+00 0.0000000e+00 
0.0000000e+00 0.0000000e+00 0.0000000e+00 
0.0000000e+00 0.0000000e+00 0.0000000e+00 
0.0000000e+00 0.0000000e+00 0.0000000e+00 
0.0000000e+00 0.0000000e+00 0.0000000e+00 
0.0000000e+00 0.0000000e+00 0.0000000e+00 
0.0000000e+00 0.0000000e+00 0.0000000e+00 
0.0000000e+00 0.0000000e+00 0.0000000e+00 
0.0000000e+00 0.0000000e+00 0.0000000e+00 
0.0000000e+00 0.0000000e+00 0.0000000e+00 
0.0000000e+00 0.0000000e+00 0.0000000e+00 
0.0000000e+00 0.0000000e+00 0.0000000e+00 
0.0000000e+00 0.0000000e+00 0.0000000e+00 
0.0000000e+00 0.0000000e+00 0.0000000e+00 
0.0000000e+00 0.0000000e+00 0.0000000e+00 
0.0000000e+00 0.0000000e+00 0.0000000e+00 
0.0000000e+00 0.0000000e+00 0.0000000e+00 
0.0000000e+00 0.0000000e+00 0.0000000e+00 
0.0000000e+00 0.0000000e+00 0.0000000e+00 
0.0000000e+00 0.0000000e+00 0.0000000e+00 
0.0000000e+00 0.0000000e+00 0.0000000e+00 
0.0000000e+00 0.0000000e+00 0.0000000e+00 
0.0000000e+00 0.0000000e+00 0.0000000e+00 
0.0000000e+00 0.0000000e+00 0.0000000e+00 
0.0000000e+00 0.0000000e+00 0.0000000e+00 
0.0000000e+00 0.0000000e+00 0.0000000e+00 
0.0000000e+00 0.0000000e+00 0.0000000e+00 
0.0000000e+00 0.0000000e+00 0.0000000e+00 
0.0000000e+00 0.0000000e+00 0.0000000e+00 
0.0000000e+00 0.0000000e+00 0.0000000e+00 
0.0000000e+00 0.0000000e+00 0.0000000e+00 
0.0000000e+00 0.0000000e+00 0.0000000e+00 
0.0000000e+00 0.0000000e+00 0.0000000e+00 
0.0000000e+00 0.0000000e+00 0.0000000e+00 
0.0000000e+00 0.0000000e+00 0.0000000e+00 
0.0000000e+00 0.0000000e+00 0.0000000e+00 
0.0000000e+00 0.0000000e+00 0.0000000e+00 
0.0000000e+00 0.0000000e+00 0.0000000e+00 
0.0000000e+00 0.0000000e+00 0.0000000e+00 
-7.7731793e-06 -1.1806500e-07 3.2959849e-06 
-1.4105593e-05 -5.2620371e-06 4.1927760e-06 
-2.5904881e-06 1.8216340e-07 2.1757960e-06 
1.3134216e-05 -5.0172453e-06 -2.4729566e-06 
3.2393484e-05 -8.3406358e-06 -1.0711524e-05 
4.9811781e-05 -1.4850330e-05 -7.4980112e-06 
4.7349138e-05 -1.2924911e-05 1.4376192e-06 
1.1709417e-05 -1.1058514e-05 -6.3437601e-06 
-1.0648920e-05 -8.7263015e-06 -2.0970210e-06 
-1.6137390e-05 -8.0153495e-06 7.3277006e-06 
-1.5576758e-05 -1.1786786e-05 -1.1240218e-06 
-1.7062377e-05 -1.2076147e-05 6.1310830e-06 
-2.0439214e-05 -5.2111142e-07 9.0379890e-06 
-6.3914925e-08 -7.9765250e-06 -4.2515562e-06 
3.2107964e-05 -1.4880283e-05 -9.1841430e-06 
5.9302718e-05 -1.2383871e-05 6.0401217e-06 
6.4907108e-05 -1.0967779e-05 1.2634295e-05 
2.1524982e-05 -4.1687081e-06 7.5309135e-06 
-8.9889600e-06 7.5354201e-06 -3.4873717e-06 
0.0000000e+00 -4.3255073e-05 0.0000000e+00 
0.0000000e+00 4.2471243e-06 0.0000000e+00 
0.0000000e+00 -9.2326554e-06 0.0000000e+00 
0.0000000e+00 8.1829276e-06 0.0000000e+00 
0.0000000e+00 -1.2876757e-04 0.0000000e+00 
0.0000000e+00 -4.7387840e-04 0.0000000e+00 
0.0000000e+00 -5.5447471e-04 0.0000000e+00 
0.0000000e+00 -2.4813286e-04 0.0000000e+00 
0.0000000e+00 -4.1056643e-05 0.0000000e+00 
0.0000000e+00 -3.3972454e-05 0.0000000e+00 
0.0000000e+00 -5.4208871e-05 0.0000000e+00 
0.0000000e+00 -7.9375786e-05 0.0000000e+00 
0.0000000e+00 8.8752995e-06 0.0000000e+00 
0.0000000e+00 3.7450660e-05 0.0000000e+00 
0.0000000e+00 -1.8317309e-04 0.0000000e+00 
0.0000000e+00 -5.7402381e-04 0.0000000e+00 
0.0000000e+00 -5.3771515e-04 0.0000000e+00 
0.0000000e+00 -1.5137109e-04 0.0000000e+00 
0.0000000e+00 2.0359454e-05 0.0000000e+00 
-4.3112409e-06 5.3124809e-06 -3.3696418e-07 
-6.0790978e-07 1.0745577e-05 3.2038447e-06 
-6.3285656e-06 -1.2423008e-06 -2.7388176e-06 
-9.8612654e-06 2.2936449e-05 -1.5527750e-05 
-5.4492357e-06 2.5184434e-06 6.7797851e-06 
-1.4908537e-05 -4.5516404e-06 5.5973778e-06 
-2.5299203e-06 1.8294328e-07 5.2744535e-06 
1.9175412e-05 -8.6688788e-06 -1.5078471e-06 
3.7527305e-05 -6.7004016e-06 -1.9023174e-06 
3.7354122e-05 -1.7963592e-05 2.3947302e-06 
1.2432726e-05 -7.0725896e-06 -3.3307018e-07 
2.7425676e-07 -6.5025833e-06 -2.3053521e-05 
-1.3751124e-06 -1.1959395e-05 -9.3388853e-06 
2.9830678e-06 -1.5217047e-05 6.8932659e-06 
4.4233784e-07 -2.1197387e-05 1.0163480e-05 
-9.2955843e-06 -1.8097666e-05 -4.7987152e-07 
-3.6295779e-07 -5.8995724e-06 3.6094027e-06 
1.7001441e-05 -6.2554222e-06 4.4066855e-06 
2.9850518e-05 -1.3921150e-05 4.3131760e-07 
4.0222138e-05 -1.4816790e-05 9.9461695e-06 
3.6685429e-05 -5.1640932e-06 1.0834806e-05 
1.1158079e-05 4.2607662e-06 -3.9079841e-06 
-9.5494197e-06 6.7738802e-06 -5.0860112e-06 
-3.4254913e-06 2.3353336e-05 1.2268080e-05 
0.0000000e+00 -3.7951828e-05 0.0000000e+00 
0.0000000e+00 -4.1597021e-05 0.0000000e+00 
0.0000000e+00 1.7533781e-05 0.0000000e+00 
0.0000000e+00 1.3567833e-04 0.0000000e+00 
0.0000000e+00 -3.6073310e-04 0.0000000e+00 
0.0000000e+00 -1.1256872e-03 0.0000000e+00 
0.0000000e+00 -1.2119551e-03 0.0000000e+00 
0.0000000e+00 -4.3304588e-04 0.0000000e+00 
0.0000000e+00 -2.0619626e-05 0.0000000e+00 
0.0000000e+00 -4.0656261e-05 0.0000000e+00 
0.0000000e+00 -1.1096684e-04 0.0000000e+00 
0.0000000e+00 -1.5520929e-04 0.0000000e+00 
0.0000000e+00 1.6146923e-04 0.0000000e+00 
0.0000000e+00 1.0703751e-04 0.0000000e+00 
0.0000000e+00 -4.9918890e-04 0.0000000e+00 
0.0000000e+00 -1.2575937e-03 0.0000000e+00 
0.0000000e+00 -1.1577767e-03 0.0000000e+00 
0.0000000e+00 -2.6725465e-04 0.0000000e+00 
0.0000000e+00 5.9671598e-05 0.0000000e+00 
-4.3691171e-06 4.2858461e-05 -3.2792716e-05 
1.5111005e-05 3.7564649e-05 4.7726491e-05 
2.1446856e-05 6.6730288e-05 -2.0301341e-05 
4.4530170e-05 1.0877741e-04 -1.4614950e-05 
7.2642011e-05 2.2244015e-04 9.3343937e-05 
-2.1143047e-04 -2.7913004e-04 3.6690690e-04 
-6.9171051e-04 -1.2898098e-03 2.4039234e-04 
-6.3911284e-04 -1.5269932e-03 -1.9124130e-04 
-1.8214225e-04 -2.2089235e-04 -3.3536600e-04 
1.8696774e-05 1.3026132e-04 -1.8781322e-04 
1.5919739e-05 9.5791202e-06 6.0178070e-05 
-5.1221661e-05 -6.3231339e-05 -1.7397309e-05 
-1.1662795e-05 -4.7987807e-05 4.0879172e-06 
7.7944242e-05 2.3629046e-04 -7.5544282e-05 
5.3536478e-05 2.1578268e-04 1.6195455e-04 
-2.8161198e-04 -4.1135275e-04 4.7311455e-04 
-6.7411765e-04 -1.4054648e-03 1.6841333e-04 
-6.1142584e-04 -1.4616807e-03 -1.0506759e-04 
-1.4853985e-04 -2.5193559e-04 -2.0492278e-04 
5.0041201e-08 9.5928954e-05 -1.6145730e-04 
0.0000000e+00 -6.1633582e-05 0.0000000e+00 
0.0000000e+00 -4.7976217e-05 0.0000000e+00 
0.0000000e+00 9.7985590e-05 0.0000000e+00 
0.0000000e+00 2.7321404e-04 0.0000000e+00 
0.0000000e+00 -7.1733934e-04 0.0000000e+00 
0.0000000e+00 -2.2890486e-03 0.0000000e+00 
0.0000000e+00 -2.3485429e-03 0.0000000e+00 
0.0000000e+00 -6.3583103e-04 0.0000000e+00 
0.0000000e+00 1.0408425e-04 0.0000000e+00 
0.0000000e+00 -5.0755782e-05 0.0000000e+00 
0.0000000e+00 -1.2945214e-04 0.0000000e+00 
0.0000000e+00 -8.1516358e-05 0.0000000e+00 
0.0000000e+00 2.8069748e-04 0.0000000e+00 
0.0000000e+00 1.4519820e-04 0.0000000e+00 
0.0000000e+00 -9.8670844e-04 0.0000000e+00 
0.0000000e+00 -2.4948260e-03 0.0000000e+00 
0.0000000e+00 -2.2283832e-03 0.0000000e+00 
0.0000000e+00 -4.0362022e-04 0.0000000e+00 
0.0000000e+00 1.3097389e-04 0.0000000e+00 
-1.3750502e-05 -4.1347976e-06 7.3759661e-06 
-3.1260049e-06 2.2797416e-05 4.4629915e-06 
6.7670699e-06 3.7258098e-05 9.4155448e-06 
4.1926884e-05 4.4705168e-05 1.5050572e-05 
5.3209504e-05 -3.2340780e-05 1.8670520e-05 
4.1500185e-05 -1.0243280e-04 1.8760746e-06 
3.7342274e-05 -1.3972879e-04 1.8873152e-06 
3.9612773e-05 -4.8149253e-05 -1.9548355e-05 
-5.9338237e-07 2.2047136e-05 -4.2165870e-05 
6.3469411e-06 3.0192325e-05 -1.6087528e-05 
-9.3080198e-06 8.3181794e-06 1.0471698e-05 
-1.3957653e-05 -1.1369833e-05 -8.7627923e-06 
2.1403306e-05 5.6790141e-05 -2.6507610e-06 
4.8154984e-06 5.2708445e-05 2.9286377e-05 
5.2984196e-05 -4.8367318e-05 2.9408569e-05 
6.4892665e-05 -1.1542618e-04 2.5527384e-05 
5.6651934e-05 -1.2024789e-04 4.7159854e-05 
-9.9812805e-06 1.5888068e-05 -3.0536277e-05 
-3.4114069e-05 -2.0117759e-04 -9.2802344e-05 
0.0000000e+00 0.0000000e+00 0.0000000e+00 
0.0000000e+00 0.0000000e+00 0.0000000e+00 
0.0000000e+00 0.0000000e+00 0.0000000e+00 
0.0000000e+00 0.0000000e+00 0.0000000e+00 
0.0000000e+00 0.0000000e+00 0.0000000e+00 
0.0000000e+00 0.0000000e+00 0.0000000e+00 
0.0000000e+00 0.0000000e+00 0.0000000e+00 
0.0000000e+00 0.0000000e+00 0.0000000e+00 
0.0000000e+00 0.0000000e+00 0.0000000e+00 
0.0000000e+00 0.0000000e+00 0.0000000e+00 
0.0000000e+00 0.0000000e+00 0.0000000e+00 
0.0000000e+00 0.0000000e+00 0.0000000e+00 
0.0000000e+00 0.0000000e+00 0.0000000e+00 
0.0000000e+00 0.0000000e+00 0.0000000e+00 
0.0000000e+00 0.0000000e+00 0.0000000e+00 
0.0000000e+00 0.0000000e+00 0.0000000e+00 
0.0000000e+00 0.0000000e+00 0.0000000e+00 
0.0000000e+00 0.0000000e+00 0.0000000e+00 
0.0000000e+00 0.0000000e+00 0.0000000e+00 
0.0000000e+00 0.0000000e+00 0.0000000e+00 
0.0000000e+00 0.0000000e+00 0.0000000e+00 
0.0000000e+00 0.0000000e+00 0.0000000e+00 
0.0000000e+00 0.0000000e+00 0.0000000e+00 
0.0000000e+00 0.0000000e+00 0.0000000e+00 
0.0000000e+00 0.0000000e+00 0.0000000e+00 
0.0000000e+00 0.0000000e+00 0.0000000e+00 
0.0000000e+00 0.0000000e+00 0.0000000e+00 
0.0000000e+00 0.0000000e+00 0.0000000e+00 
0.0000000e+00 0.0000000e+00 0.0000000e+00 
0.0000000e+00 0.0000000e+00 0.0000000e+00 
0.0000000e+00 0.0000000e+00 0.0000000e+00 
0.0000000e+00 0.0000000e+00 0.0000000e+00 
0.0000000e+00 0.0000000e+00 0.0000000e+00 
0.0000000e+00 0.0000000e+00 0.0000000e+00 
0.0000000e+00 0.0000000e+00 0.0000000e+00 
0.0000000e+00 0.0000000e+00 0.0000000e+00 
0.0000000e+00 0.0000000e+00 0.0000000e+00 
0.0000000e+00 0.0000000e+00 0.0000000e+00 
0.0000000e+00 0.0000000e+00 0.0000000e+00 
0.0000000e+00 0.0000000e+00 0.0000000e+00 
0.0000000e+00 0.0000000e+00 0.0000000e+00 
0.0000000e+00 0.0000000e+00 0.0000000e+00 
-6.6411394e-07 -6.7362441e-07 1.9364234e-06 
2.9500694e-05 -1.1642898e-05 -4.0612491e-07 
2.2027438e-05 -1.3979269e-05 -3.4692749e-07 
-8.7258877e-06 -4.9362347e-06 -1.5551049e-07 
-1.4491439e-05 -2.7851547e-06 6.3229072e-06 
-7.2273397e-06 -1.5886349e-07 1.2406982e-06 
8.5133679e-06 -1.0792389e-05 -6.3125658e-06 
2.8517836e-05 -1.1138343e-05 1.0216663e-06 