# vtk DataFile Version 4.0
vtk output
ASCII
DATASET UNSTRUCTURED_GRID
POINTS 662 float
0.0000000e+00 0.0000000e+00 0.0000000e+00 
0.0000000e+00 0.0000000e+00 4.0000000e+01 
5.0000000e+00 0.0000000e+00 0.0000000e+00 
5.0000000e+00 0.0000000e+00 4.0000000e+01 
5.0000000e+00 1.0000000e+00 0.0000000e+00 
5.0000000e+00 1.0000000e+00 4.0000000e+01 
0.0000000e+00 1.0000000e+00 0.0000000e+00 
0.0000000e+00 1.0000000e+00 4.0000000e+01 
5.0000000e+00 2.0000000e+00 0.0000000e+00 
5.0000000e+00 2.0000000e+00 4.0000000e+01 
3.0000000e+00 2.0000000e+00 0.0000000e+00 
3.0000000e+00 2.0000000e+00 4.0000000e+01 
0.0000000e+00 2.0000000e+00 0.0000000e+00 
0.0000000e+00 2.0000000e+00 4.0000000e+01 
1.5000000e+00 3.0000000e+00 0.0000000e+00 
1.5000000e+00 3.0000000e+00 4.0000000e+01 
7.5000000e-01 3.0000000e+00 0.0000000e+00 
7.5000000e-01 3.0000000e+00 4.0000000e+01 
0.0000000e+00 3.0000000e+00 0.0000000e+00 
0.0000000e+00 3.0000000e+00 4.0000000e+01 
7.5000000e-01 3.0000000e+00 5.0000000e-01 
7.5000000e-01 3.0000000e+00 1.0000000e+00 
7.5000000e-01 3.0000000e+00 1.5000000e+00 
7.5000000e-01 3.0000000e+00 2.0000000e+00 
7.5000000e-01 3.0000000e+00 2.5000000e+00 
7.5000000e-01 3.0000000e+00 3.0000000e+00 
7.5000000e-01 3.0000000e+00 3.5000000e+00 
7.5000000e-01 3.0000000e+00 4.0000000e+00 
7.5000000e-01 3.0000000e+00 4.5000000e+00 
7.5000000e-01 3.0000000e+00 5.0000000e+00 
7.5000000e-01 3.0000000e+00 5.5000000e+00 
7.5000000e-01 3.0000000e+00 6.0000000e+00 
7.5000000e-01 3.0000000e+00 6.5000000e+00 
7.5000000e-01 3.0000000e+00 7.0000000e+00 
7.5000000e-01 3.0000000e+00 7.5000000e+00 
7.5000000e-01 3.0000000e+00 8.0000000e+00 
7.5000000e-01 3.0000000e+00 8.5000000e+00 
7.5000000e-01 3.0000000e+00 9.0000000e+00 
7.5000000e-01 3.0000000e+00 9.5000000e+00 
7.5000000e-01 3.0000000e+00 1.0000000e+01 
7.5000000e-01 3.0000000e+00 1.0500000e+01 
7.5000000e-01 3.0000000e+00 1.1000000e+01 
7.5000000e-01 3.0000000e+00 1.1500000e+01 
7.5000000e-01 3.0000000e+00 1.2000000e+01 
7.5000000e-01 3.0000000e+00 1.2500000e+01 
7.5000000e-01 3.0000000e+00 1.3000000e+01 
7.5000000e-01 3.0000000e+00 1.3500000e+01 
7.5000000e-01 3.0000000e+00 1.4000000e+01 
7.5000000e-01 3.0000000e+00 1.4500000e+01 
7.5000000e-01 3.0000000e+00 1.5000000e+01 
7.5000000e-01 3.0000000e+00 1.5500000e+01 
7.5000000e-01 3.0000000e+00 1.6000000e+01 
7.5000000e-01 3.0000000e+00 1.6500000e+01 
7.5000000e-01 3.0000000e+00 1.7000000e+01 
7.5000000e-01 3.0000000e+00 1.7500000e+01 
7.5000000e-01 3.0000000e+00 1.8000000e+01 
7.5000000e-01 3.0000000e+00 1.8500000e+01 
7.5000000e-01 3.0000000e+00 1.9000000e+01 
7.5000000e-01 3.0000000e+00 1.9500000e+01 
7.5000000e-01 3.0000000e+00 2.0000000e+01 
7.5000000e-01 3.0000000e+00 2.0500000e+01 
7.5000000e-01 3.0000000e+00 2.1000000e+01 
7.5000000e-01 3.0000000e+00 2.1500000e+01 
7.5000000e-01 3.0000000e+00 2.2000000e+01 
7.5000000e-01 3.0000000e+00 2.2500000e+01 
7.5000000e-01 3.0000000e+00 2.3000000e+01 
7.5000000e-01 3.0000000e+00 2.3500000e+01 
7.5000000e-01 3.0000000e+00 2.4000000e+01 
7.5000000e-01 3.0000000e+00 2.4500000e+01 
7.5000000e-01 3.0000000e+00 2.5000000e+01 
7.5000000e-01 3.0000000e+00 2.5500000e+01 
7.5000000e-01 3.0000000e+00 2.6000000e+01 
7.5000000e-01 3.0000000e+00 2.6500000e+01 
7.5000000e-01 3.0000000e+00 2.7000000e+01 
7.5000000e-01 3.0000000e+00 2.7500000e+01 
7.5000000e-01 3.0000000e+00 2.8000000e+01 
7.5000000e-01 3.0000000e+00 2.8500000e+01 
7.5000000e-01 3.0000000e+00 2.9000000e+01 
7.5000000e-01 3.0000000e+00 2.9500000e+01 
7.5000000e-01 3.0000000e+00 3.0000000e+01 
7.5000000e-01 3.0000000e+00 3.0500000e+01 
7.5000000e-01 3.0000000e+00 3.1000000e+01 
7.5000000e-01 3.0000000e+00 3.1500000e+01 
7.5000000e-01 3.0000000e+00 3.2000000e+01 
7.5000000e-01 3.0000000e+00 3.2500000e+01 
7.5000000e-01 3.0000000e+00 3.3000000e+01 
7.5000000e-01 3.0000000e+00 3.3500000e+01 
7.5000000e-01 3.0000000e+00 3.4000000e+01 
7.5000000e-01 3.0000000e+00 3.4500000e+01 
7.5000000e-01 3.0000000e+00 3.5000000e+01 
7.5000000e-01 3.0000000e+00 3.5500000e+01 
7.5000000e-01 3.0000000e+00 3.6000000e+01 
7.5000000e-01 3.0000000e+00 3.6500000e+01 
7.5000000e-01 3.0000000e+00 3.7000000e+01 
7.5000000e-01 3.0000000e+00 3.7500000e+01 
7.5000000e-01 3.0000000e+00 3.8000000e+01 
7.5000000e-01 3.0000000e+00 3.8500000e+01 
7.5000000e-01 3.0000000e+00 3.9000000e+01 
7.5000000e-01 3.0000000e+00 3.9500000e+01 
7.5000000e-01 3.0000000e+00 4.0500000e+01 
7.5000000e-01 3.0000000e+00 4.1000000e+01 
7.5000000e-01 3.0000000e+00 4.1500000e+01 
7.5000000e-01 3.0000000e+00 4.2000000e+01 
7.5000000e-01 3.0000000e+00 4.2500000e+01 
7.5000000e-01 3.0000000e+00 4.3000000e+01 
7.5000000e-01 3.0000000e+00 4.3500000e+01 
7.5000000e-01 3.0000000e+00 4.4000000e+01 
7.5000000e-01 3.0000000e+00 4.4500000e+01 
7.5000000e-01 3.0000000e+00 4.5000000e+01 
7.5000000e-01 3.0000000e+00 4.5500000e+01 
7.5000000e-01 3.0000000e+00 4.6000000e+01 
7.5000000e-01 3.0000000e+00 4.6500000e+01 
7.5000000e-01 3.0000000e+00 4.7000000e+01 
7.5000000e-01 3.0000000e+00 4.7500000e+01 
7.5000000e-01 3.0000000e+00 4.8000000e+01 
7.5000000e-01 3.0000000e+00 4.8500000e+01 
7.5000000e-01 3.0000000e+00 4.9000000e+01 
7.5000000e-01 3.0000000e+00 4.9500000e+01 
7.5000000e-01 3.0000000e+00 5.0000000e+01 
7.5000000e-01 3.0250001e+00 0.0000000e+00 
7.5000000e-01 3.0250001e+00 5.0000000e-01 
7.5000000e-01 3.0250001e+00 1.0000000e+00 
7.5000000e-01 3.0250001e+00 1.5000000e+00 
7.5000000e-01 3.0250001e+00 2.0000000e+00 
7.5000000e-01 3.0250001e+00 2.5000000e+00 
7.5000000e-01 3.0250001e+00 3.0000000e+00 
7.5000000e-01 3.0250001e+00 3.5000000e+00 
7.5000000e-01 3.0250001e+00 4.0000000e+00 
7.5000000e-01 3.0250001e+00 4.5000000e+00 
7.5000000e-01 3.0250001e+00 5.0000000e+00 
7.5000000e-01 3.0250001e+00 5.5000000e+00 
7.5000000e-01 3.0250001e+00 6.0000000e+00 
7.5000000e-01 3.0250001e+00 6.5000000e+00 
7.5000000e-01 3.0250001e+00 7.0000000e+00 
7.5000000e-01 3.0250001e+00 7.5000000e+00 
7.5000000e-01 3.0250001e+00 8.0000000e+00 
7.5000000e-01 3.0250001e+00 8.5000000e+00 
7.5000000e-01 3.0250001e+00 9.0000000e+00 
7.5000000e-01 3.0250001e+00 9.5000000e+00 
7.5000000e-01 3.0250001e+00 1.0000000e+01 
7.5000000e-01 3.0250001e+00 1.0500000e+01 
7.5000000e-01 3.0250001e+00 1.1000000e+01 
7.5000000e-01 3.0250001e+00 1.1500000e+01 
7.5000000e-01 3.0250001e+00 1.2000000e+01 
7.5000000e-01 3.0250001e+00 1.2500000e+01 
7.5000000e-01 3.0250001e+00 1.3000000e+01 
7.5000000e-01 3.0250001e+00 1.3500000e+01 
7.5000000e-01 3.0250001e+00 1.4000000e+01 
7.5000000e-01 3.0250001e+00 1.4500000e+01 
7.5000000e-01 3.0250001e+00 1.5000000e+01 
7.5000000e-01 3.0250001e+00 1.5500000e+01 
7.5000000e-01 3.0250001e+00 1.6000000e+01 
7.5000000e-01 3.0250001e+00 1.6500000e+01 
7.5000000e-01 3.0250001e+00 1.7000000e+01 
7.5000000e-01 3.0250001e+00 1.7500000e+01 
7.5000000e-01 3.0250001e+00 1.8000000e+01 
7.5000000e-01 3.0250001e+00 1.8500000e+01 
7.5000000e-01 3.0250001e+00 1.9000000e+01 
7.5000000e-01 3.0250001e+00 1.9500000e+01 
7.5000000e-01 3.0250001e+00 2.0000000e+01 
7.5000000e-01 3.0250001e+00 2.0500000e+01 
7.5000000e-01 3.0250001e+00 2.1000000e+01 
7.5000000e-01 3.0250001e+00 2.1500000e+01 
7.5000000e-01 3.0250001e+00 2.2000000e+01 
7.5000000e-01 3.0250001e+00 2.2500000e+01 
7.5000000e-01 3.0250001e+00 2.3000000e+01 
7.5000000e-01 3.0250001e+00 2.3500000e+01 
7.5000000e-01 3.0250001e+00 2.4000000e+01 
7.5000000e-01 3.0250001e+00 2.4500000e+01 
7.5000000e-01 3.0250001e+00 2.5000000e+01 
7.5000000e-01 3.0250001e+00 2.5500000e+01 
7.5000000e-01 3.0250001e+00 2.6000000e+01 
7.5000000e-01 3.0250001e+00 2.6500000e+01 
7.5000000e-01 3.0250001e+00 2.7000000e+01 
7.5000000e-01 3.0250001e+00 2.7500000e+01 
7.5000000e-01 3.0250001e+00 2.8000000e+01 
7.5000000e-01 3.0250001e+00 2.8500000e+01 
7.5000000e-01 3.0250001e+00 2.9000000e+01 
7.5000000e-01 3.0250001e+00 2.9500000e+01 
7.5000000e-01 3.0250001e+00 3.0000000e+01 
7.5000000e-01 3.0250001e+00 3.0500000e+01 
7.5000000e-01 3.0250001e+00 3.1000000e+01 
7.5000000e-01 3.0250001e+00 3.1500000e+01 
7.5000000e-01 3.0250001e+00 3.2000000e+01 
7.5000000e-01 3.0250001e+00 3.2500000e+01 
7.5000000e-01 3.0250001e+00 3.3000000e+01 
7.5000000e-01 3.0250001e+00 3.3500000e+01 
7.5000000e-01 3.0250001e+00 3.4000000e+01 
7.5000000e-01 3.0250001e+00 3.4500000e+01 
7.5000000e-01 3.0250001e+00 3.5000000e+01 
7.5000000e-01 3.0250001e+00 3.5500000e+01 
7.5000000e-01 3.0250001e+00 3.6000000e+01 
7.5000000e-01 3.0250001e+00 3.6500000e+01 
7.5000000e-01 3.0250001e+00 3.7000000e+01 
7.5000000e-01 3.0250001e+00 3.7500000e+01 
7.5000000e-01 3.0250001e+00 3.8000000e+01 
7.5000000e-01 3.0250001e+00 3.8500000e+01 
7.5000000e-01 3.0250001e+00 3.9000000e+01 
7.5000000e-01 3.0250001e+00 3.9500000e+01 
7.5000000e-01 3.0250001e+00 4.0000000e+01 
7.5000000e-01 3.0250001e+00 4.0500000e+01 
7.5000000e-01 3.0250001e+00 4.1000000e+01 
7.5000000e-01 3.0250001e+00 4.1500000e+01 
7.5000000e-01 3.0250001e+00 4.2000000e+01 
7.5000000e-01 3.0250001e+00 4.2500000e+01 
7.5000000e-01 3.0250001e+00 4.3000000e+01 
7.5000000e-01 3.0250001e+00 4.3500000e+01 
7.5000000e-01 3.0250001e+00 4.4000000e+01 
7.5000000e-01 3.0250001e+00 4.4500000e+01 
7.5000000e-01 3.0250001e+00 4.5000000e+01 
7.5000000e-01 3.0250001e+00 4.5500000e+01 
7.5000000e-01 3.0250001e+00 4.6000000e+01 
7.5000000e-01 3.0250001e+00 4.6500000e+01 
7.5000000e-01 3.0250001e+00 4.7000000e+01 
7.5000000e-01 3.0250001e+00 4.7500000e+01 
7.5000000e-01 3.0250001e+00 4.8000000e+01 
7.5000000e-01 3.0250001e+00 4.8500000e+01 
7.5000000e-01 3.0250001e+00 4.9000000e+01 
7.5000000e-01 3.0250001e+00 4.9500000e+01 
7.5000000e-01 3.0250001e+00 5.0000000e+01 
7.5000000e-01 3.0250001e+00 3.5750000e+01 
3.0000000e+00 2.0000000e+00 3.6000000e+01 
8.0487806e-01 3.0000000e+00 3.6000000e+01 
0.0000000e+00 0.0000000e+00 2.0000000e+00 
0.0000000e+00 0.0000000e+00 4.0000000e+00 
0.0000000e+00 0.0000000e+00 6.0000000e+00 
0.0000000e+00 0.0000000e+00 8.0000000e+00 
0.0000000e+00 0.0000000e+00 1.0000000e+01 
0.0000000e+00 0.0000000e+00 1.2000000e+01 
0.0000000e+00 0.0000000e+00 1.4000000e+01 
[...]
POINT_DATA 662
FIELD FieldData 3
DISPLACEMENT 3 662  float
0.0000000e+00 0.0000000e+00 0.0000000e+00 
0.0000000e+00 0.0000000e+00 0.0000000e+00 
0.0000000e+00 0.0000000e+00 0.0000000e+00 
0.0000000e+00 0.0000000e+00 0.0000000e+00 
1.8998871e-05 -2.4561337e-05 -3.2064294e-05 
-1.5254867e-07 -6.8021399e-07 -2.5928053e-08 
0.0000000e+00 -8.1325845e-05 0.0000000e+00 
0.0000000e+00 -1.6049850e-06 0.0000000e+00 
2.4884856e-05 -3.3002161e-05 -5.7274032e-05 
-3.8342819e-07 -8.5045747e-07 9.1994457e-07 
5.9956319e-06 -2.6213129e-05 -3.8704300e-05 
-5.6685673e-07 -2.0377402e-06 3.2757487e-07 
0.0000000e+00 -9.6671676e-05 0.0000000e+00 
0.0000000e+00 -3.5662169e-06 0.0000000e+00 
4.1446699e-05 1.8416995e-05 7.2792551e-05 
-4.3050613e-07 -8.3236428e-06 -2.2689380e-06 
2.4701454e-05 6.4709566e-05 2.2461887e-04 
4.1553420e-07 -7.6592842e-06 -7.9851111e-07 
0.0000000e+00 -2.6329233e-05 0.0000000e+00 
0.0000000e+00 -6.6968773e-06 0.0000000e+00 
-3.6631278e-05 -1.2068334e-05 1.8417480e-04 
-5.9432918e-05 -2.4235512e-04 1.2281233e-04 
-8.2221020e-05 -6.5352855e-04 2.0863520e-04 
-9.8670993e-05 -1.2851781e-03 2.3586403e-04 
-1.7666114e-04 -2.1297776e-03 1.2907239e-04 
-2.0884449e-04 -3.0959691e-03 1.3956890e-04 
-1.1402700e-04 -3.8782025e-03 1.0943240e-04 
-8.5593289e-05 -3.9369427e-03 1.2783385e-04 
-2.3084885e-04 -3.8193299e-03 6.6074157e-05 
-3.0183070e-04 -3.8715149e-03 5.2761210e-05 
-2.0538039e-04 -4.1843755e-03 1.7407194e-05 
-6.6786670e-05 -4.2465390e-03 -4.8996877e-05 
-1.0261947e-04 -3.5614108e-03 -1.5991718e-04 
-2.0601191e-04 -2.5259964e-03 -1.9994321e-04 
-1.9654525e-04 -1.6230755e-03 -1.9205057e-04 
-7.2598727e-05 -9.4090228e-04 -1.1988375e-04 
-4.5696215e-05 -5.1481253e-04 -1.5717317e-04 
-3.9910108e-05 -2.7317891e-04 -1.3975948e-04 
-3.1507421e-05 -1.4525195e-04 -1.3524723e-04 
-3.5834196e-06 -7.0527043e-05 -1.2127947e-04 
1.8040568e-05 -1.0533688e-05 -8.8003428e-05 
3.1879976e-05 4.7263449e-05 -4.8909933e-05 
2.1887383e-05 1.0114216e-04 -1.5346437e-05 
4.8188936e-06 1.4021051e-04 1.5768701e-05 
1.1205275e-06 1.5380791e-04 1.7456037e-05 
-3.5979126e-06 1.4546038e-04 1.3449971e-05 
-3.4321160e-06 1.2269034e-04 -1.0691688e-06 
2.4341007e-06 9.3768198e-05 -2.5907464e-05 
3.0798063e-07 6.6377281e-05 -4.0801326e-05 
5.8623623e-06 4.1214593e-05 -4.2672498e-05 
6.6864541e-06 1.7303822e-05 -3.2521410e-05 
6.2762829e-06 -5.5765327e-06 -1.4819873e-05 
4.9098962e-06 -2.8138493e-05 1.3425797e-05 
9.1714746e-06 -4.9986025e-05 3.1935004e-05 
7.5133880e-06 -7.1419548e-05 4.6632729e-05 
-7.0566302e-06 -8.7221160e-05 6.1086314e-05 
-2.4659501e-05 -9.2259732e-05 4.9725812e-05 
-2.9251647e-05 -8.8150853e-05 3.8933569e-05 
-2.0007987e-05 -8.1579688e-05 2.9284369e-05 
-2.3971038e-06 -1.0315318e-04 1.3721900e-05 
-3.6914942e-05 -1.9852100e-04 3.1584877e-05 
-5.7797701e-05 -4.2144087e-04 5.6612873e-05 
-7.8970974e-05 -8.4424985e-04 9.3047878e-05 
-1.1932997e-04 -1.5070142e-03 4.3275053e-05 
-2.2970738e-04 -2.4179164e-03 1.6000441e-04 
-2.1924534e-04 -3.3632279e-03 1.6418446e-04 
-1.2757984e-04 -3.9855945e-03 1.3685257e-04 
-1.1019325e-04 -3.8881742e-03 1.8332824e-04 
-2.6312523e-04 -3.7400236e-03 1.1276380e-04 
-3.2423259e-04 -3.8167564e-03 9.4214331e-05 
-2.1323482e-04 -4.1397754e-03 4.2698757e-05 
-7.7254910e-05 -4.1024187e-03 -1.4253852e-05 
-1.0538627e-04 -3.3485179e-03 -1.4809087e-04 
-2.0193693e-04 -2.3525492e-03 -2.0062878e-04 
-1.8932858e-04 -1.5066382e-03 -2.1374949e-04 
-8.2299608e-05 -8.6833816e-04 -1.5616053e-04 
-4.6616380e-05 -4.5793061e-04 -1.7971515e-04 
-2.7198863e-05 -2.1278199e-04 -1.4327726e-04 
-1.7857348e-05 -7.5735923e-05 -1.2083619e-04 
9.3486951e-06 5.3094175e-07 -9.4679366e-05 
2.4336574e-05 4.4701770e-05 -6.1673476e-05 
3.5766050e-05 7.2880088e-05 -2.4362080e-05 
2.3318973e-05 9.0176327e-05 8.4459998e-06 
6.4667806e-06 9.5510397e-05 3.3016146e-05 
-1.3479871e-06 8.5250096e-05 3.8626022e-05 
-7.9998317e-06 6.2776220e-05 3.2868153e-05 
-8.4243438e-06 3.4062967e-05 2.0062977e-05 
-5.1615998e-06 5.8606579e-06 3.4642651e-06 
-4.2005695e-06 -1.5000100e-05 -5.7103257e-06 
-2.2818126e-06 -2.7300061e-05 -1.2566112e-05 
2.3149864e-06 -2.9785488e-05 -1.5700401e-05 
1.1847221e-06 -2.2959637e-05 -1.0371912e-05 
1.6777279e-06 -8.8495171e-06 -3.9489960e-06 
1.7488843e-06 6.7366923e-06 2.5482746e-06 
-7.1909733e-07 1.5950103e-05 6.4569790e-06 
-6.4103602e-07 1.5993546e-05 5.1033785e-06 
-7.0662935e-07 8.6446180e-06 2.1027033e-06 
-5.5890416e-07 -9.4580219e-07 -1.3214581e-06 
-6.9193163e-08 -6.8175168e-06 -3.0025622e-06 
0.0000000e+00 -4.7101230e-06 0.0000000e+00 
0.0000000e+00 -5.5264826e-07 0.0000000e+00 
0.0000000e+00 2.3403554e-06 0.0000000e+00 
0.0000000e+00 3.0750796e-06 0.0000000e+00 
0.0000000e+00 2.3610369e-06 0.0000000e+00 
0.0000000e+00 1.4189033e-06 0.0000000e+00 
0.0000000e+00 8.5397971e-07 0.0000000e+00 
0.0000000e+00 4.3719740e-07 0.0000000e+00 
0.0000000e+00 -2.4597793e-07 0.0000000e+00 
0.0000000e+00 -1.1146583e-06 0.0000000e+00 
0.0000000e+00 -1.5979796e-06 0.0000000e+00 
0.0000000e+00 -1.2422507e-06 0.0000000e+00 
0.0000000e+00 -2.2258678e-07 0.0000000e+00 
0.0000000e+00 7.7262956e-07 0.0000000e+00 
0.0000000e+00 1.1337232e-06 0.0000000e+00 
0.0000000e+00 7.9657138e-07 0.0000000e+00 
0.0000000e+00 1.7867852e-07 0.0000000e+00 
0.0000000e+00 -2.6675480e-07 0.0000000e+00 
0.0000000e+00 -4.0822493e-07 0.0000000e+00 
0.0000000e+00 -4.0841886e-07 0.0000000e+00 
0.0000000e+00 6.4789754e-05 0.0000000e+00 
0.0000000e+00 -1.0506712e-05 0.0000000e+00 
0.0000000e+00 -2.4168935e-04 0.0000000e+00 
0.0000000e+00 -6.5576774e-04 0.0000000e+00 
0.0000000e+00 -1.2888201e-03 0.0000000e+00 
0.0000000e+00 -2.1418142e-03 0.0000000e+00 
0.0000000e+00 -3.1274913e-03 0.0000000e+00 
0.0000000e+00 -3.9017438e-03 0.0000000e+00 
0.0000000e+00 -3.9672791e-03 0.0000000e+00 
0.0000000e+00 -3.8330867e-03 0.0000000e+00 
0.0000000e+00 -3.9018029e-03 0.0000000e+00 
0.0000000e+00 -4.2046043e-03 0.0000000e+00 
0.0000000e+00 -4.2816545e-03 0.0000000e+00 
0.0000000e+00 -3.5800172e-03 0.0000000e+00 
0.0000000e+00 -2.5452026e-03 0.0000000e+00 
0.0000000e+00 -1.6255948e-03 0.0000000e+00 
0.0000000e+00 -9.4550115e-04 0.0000000e+00 
0.0000000e+00 -5.1475456e-04 0.0000000e+00 
0.0000000e+00 -2.7237603e-04 0.0000000e+00 
0.0000000e+00 -1.4407831e-04 0.0000000e+00 
0.0000000e+00 -6.9220652e-05 0.0000000e+00 
0.0000000e+00 -9.8448782e-06 0.0000000e+00 
0.0000000e+00 4.7699632e-05 0.0000000e+00 
0.0000000e+00 1.0111020e-04 0.0000000e+00 
0.0000000e+00 1.3947660e-04 0.0000000e+00 
0.0000000e+00 1.5363525e-04 0.0000000e+00 
0.0000000e+00 1.4549636e-04 0.0000000e+00 
0.0000000e+00 1.2278094e-04 0.0000000e+00 
0.0000000e+00 9.4184295e-05 0.0000000e+00 
0.0000000e+00 6.6521825e-05 0.0000000e+00 
0.0000000e+00 4.1228199e-05 0.0000000e+00 
0.0000000e+00 1.7302966e-05 0.0000000e+00 
0.0000000e+00 -5.7230191e-06 0.0000000e+00 
0.0000000e+00 -2.8212406e-05 0.0000000e+00 
0.0000000e+00 -5.0339069e-05 0.0000000e+00 
0.0000000e+00 -7.1392016e-05 0.0000000e+00 
0.0000000e+00 -8.6815708e-05 0.0000000e+00 
0.0000000e+00 -9.1938819e-05 0.0000000e+00 
0.0000000e+00 -8.6942971e-05 0.0000000e+00 
0.0000000e+00 -8.0850579e-05 0.0000000e+00 
0.0000000e+00 -1.0268884e-04 0.0000000e+00 
0.0000000e+00 -1.9753422e-04 0.0000000e+00 
0.0000000e+00 -4.2275153e-04 0.0000000e+00 
0.0000000e+00 -8.4619882e-04 0.0000000e+00 
0.0000000e+00 -1.5177327e-03 0.0000000e+00 
0.0000000e+00 -2.4268045e-03 0.0000000e+00 
0.0000000e+00 -3.3984331e-03 0.0000000e+00 
0.0000000e+00 -4.0096482e-03 0.0000000e+00 
0.0000000e+00 -3.9185244e-03 0.0000000e+00 
0.0000000e+00 -3.7537096e-03 0.0000000e+00 
0.0000000e+00 -3.8486912e-03 0.0000000e+00 
0.0000000e+00 -4.1613355e-03 0.0000000e+00 
0.0000000e+00 -4.1365763e-03 0.0000000e+00 
0.0000000e+00 -3.3649448e-03 0.0000000e+00 
0.0000000e+00 -2.3685861e-03 0.0000000e+00 
0.0000000e+00 -1.5083737e-03 0.0000000e+00 
0.0000000e+00 -8.7187951e-04 0.0000000e+00 
0.0000000e+00 -4.5767106e-04 0.0000000e+00 
0.0000000e+00 -2.1203549e-04 0.0000000e+00 
0.0000000e+00 -7.4726646e-05 0.0000000e+00 
0.0000000e+00 1.2141046e-06 0.0000000e+00 
0.0000000e+00 4.5240926e-05 0.0000000e+00 
0.0000000e+00 7.3160423e-05 0.0000000e+00 
0.0000000e+00 9.0274800e-05 0.0000000e+00 
0.0000000e+00 9.5162388e-05 0.0000000e+00 
0.0000000e+00 8.5159816e-05 0.0000000e+00 
0.0000000e+00 6.2791893e-05 0.0000000e+00 
0.0000000e+00 3.4077540e-05 0.0000000e+00 
0.0000000e+00 6.1246083e-06 0.0000000e+00 
0.0000000e+00 -1.4998918e-05 0.0000000e+00 
0.0000000e+00 -2.7180296e-05 0.0000000e+00 
0.0000000e+00 -2.9712293e-05 0.0000000e+00 
0.0000000e+00 -2.2800124e-05 0.0000000e+00 
0.0000000e+00 -8.7800663e-06 0.0000000e+00 
0.0000000e+00 6.4232509e-06 0.0000000e+00 
0.0000000e+00 1.5716092e-05 0.0000000e+00 
0.0000000e+00 1.5868103e-05 0.0000000e+00 
0.0000000e+00 8.6648788e-06 0.0000000e+00 
0.0000000e+00 -6.8214257e-07 0.0000000e+00 
0.0000000e+00 -6.7079973e-06 0.0000000e+00 
0.0000000e+00 -7.6363422e-06 0.0000000e+00 
0.0000000e+00 -4.7407257e-06 0.0000000e+00 
0.0000000e+00 -6.2918565e-07 0.0000000e+00 
0.0000000e+00 2.2818526e-06 0.0000000e+00 
0.0000000e+00 3.0709473e-06 0.0000000e+00 
0.0000000e+00 2.3951936e-06 0.0000000e+00 
0.0000000e+00 1.4474015e-06 0.0000000e+00 
0.0000000e+00 8.5049578e-07 0.0000000e+00 
0.0000000e+00 4.1400344e-07 0.0000000e+00 
0.0000000e+00 -2.5802515e-07 0.0000000e+00 
0.0000000e+00 -1.1010967e-06 0.0000000e+00 
0.0000000e+00 -1.5732107e-06 0.0000000e+00 
0.0000000e+00 -1.2304579e-06 0.0000000e+00 
0.0000000e+00 -2.3208442e-07 0.0000000e+00 
0.0000000e+00 7.5411748e-07 0.0000000e+00 
0.0000000e+00 1.1225919e-06 0.0000000e+00 
0.0000000e+00 7.9757245e-07 0.0000000e+00 
0.0000000e+00 1.8526640e-07 0.0000000e+00 
0.0000000e+00 -2.6199882e-07 0.0000000e+00 
0.0000000e+00 -4.0723717e-07 0.0000000e+00 
0.0000000e+00 -4.0903481e-07 0.0000000e+00 
0.0000000e+00 -2.7433698e-05 0.0000000e+00 
-1.2316352e-06 -4.0647978e-06 -7.7905639e-07 
8.7393073e-07 -2.4694926e-05 -1.1251990e-05 
0.0000000e+00 0.0000000e+00 0.0000000e+00 
0.0000000e+00 0.0000000e+00 0.0000000e+00 
0.0000000e+00 0.0000000e+00 0.0000000e+00 
0.0000000e+00 0.0000000e+00 0.0000000e+00 
0.0000000e+00 0.0000000e+00 0.0000000e+00 
0.0000000e+00 0.0000000e+00 0.0000000e+00 
0.0000000e+00 0.0000000e+00 0.0000000e+00 
0.0000000e+00 0.0000000e+00 0.0000000e+00 
0.0000000e+00 0.0000000e+00 0.0000000e+00 
0.0000000e+00 0.0000000e+00 0.0000000e+00 
0.0000000e+00 0.0000000e+00 0.0000000e+00 
0.0000000e+00 0.0000000e+00 0.0000000e+00 
0.0000000e+00 0.0000000e+00 0.0000000e+00 
0.0000000e+00 0.0000000e+00 0.0000000e+00 
0.0000000e+00 0.0000000e+00 0.0000000e+00 
0.0000000e+00 0.0000000e+00 0.0000000e+00 
0.0000000e+00 0.0000000e+00 0.0000000e+00 
0.0000000e+00 0.0000000e+00 0.0000000e+00 
0.0000000e+00 0.0000000e+00 0.0000000e+00 
0.0000000e+00 0.0000000e+00 0.0000000e+00 
0.0000000e+00 0.0000000e+00 0.0000000e+00 
0.0000000e+00 0.0000000e+00 0.0000000e+00 
0.0000000e+00 0.0000000e+00 0.0000000e+00 
0.0000000e+00 0.0000000e+00 0.0000000e+00 
0.0000000e+00 0.0000000e+00 0.0000000e+00 
0.0000000e+00 0.0000000e+00 0.0000000e+00 
0.0000000e+00 0.0000000e+00 0.0000000e+00 
0.0000000e+00 0.0000000e+00 0.0000000e+00 
0.0000000e+00 0.0000000e+00 0.0000000e+00 
0.0000000e+00 0.0000000e+00 0.0000000e+00 
0.0000000e+00 0.0000000e+00 0.0000000e+00 
0.0000000e+00 0.0000000e+00 0.0000000e+00 
0.0000000e+00 0.0000000e+00 0.0000000e+00 
0.0000000e+00 0.0000000e+00 0.0000000e+00 
0.0000000e+00 0.0000000e+00 0.0000000e+00 
0.0000000e+00 0.0000000e+00 0.0000000e+00 
0.0000000e+00 0.0000000e+00 0.0000000e+00 
0.0000000e+00 0.0000000e+00 0.0000000e+00 
0.0000000e+00 0.0000000e+00 0.0000000e+00 
0.0000000e+00 0.0000000e+00 0.0000000e+00 
0.0000000e+00 0.0000000e+00 0.0000000e+00 
0.0000000e+00 0.0000000e+00 0.0000000e+00 
3.0527219e-05 -5.9237840e-07 -2.4474310e-05 
5.8360445e-05 -4.4273761e-06 -1.5608986e-05 
3.9688006e-05 -7.8170824e-06 -1.0522155e-06 
1.0903739e-05 -9.7715692e-06 5.8438690e-07 
4.0706327e-06 -8.3909563e-06 1.1492596e-05 
-7.1792488e-07 4.4230223e-06 8.6927184e-06 
8.0012651e-06 6.3215448e-06 -6.4988212e-06 
3.4381385e-06 -2.8174709e-06 -1.2788637e-05 
1.4513033e-06 -6.1012720e-06 -3.5140622e-06 
1.2529208e-05 -1.0021904e-05 -4.4099670e-06 
3.4461478e-05 -2.1426329e-06 -3.9322986e-06 
4.8516009e-05 -1.0379015e-06 5.8084925e-07 
3.6766112e-05 -7.0119181e-06 1.7908071e-06 
1.1702928e-05 -1.4487203e-05 2.7150459e-06 
6.7876649e-06 -9.6502913e-07 8.3185460e-06 
2.2762656e-06 3.4923555e-06 9.3202207e-06 
1.4763113e-07 -1.1744639e-06 1.6394270e-06 
-6.1791548e-07 -1.7078744e-06 -1.3156297e-06 
3.5613274e-07 1.0674589e-06 3.0262160e-07 
0.0000000e+00 -1.9550092e-04 0.0000000e+00 
0.0000000e+00 -4.7119410e-04 0.0000000e+00 
0.0000000e+00 -5.2257464e-04 0.0000000e+00 
0.0000000e+00 -1.8752339e-04 0.0000000e+00 
0.0000000e+00 -2.5200192e-05 0.0000000e+00 
0.0000000e+00 3.7721518e-05 0.0000000e+00 
0.0000000e+00 1.6384576e-05 0.0000000e+00 
0.0000000e+00 3.0158082e-05 0.0000000e+00 
0.0000000e+00 -2.4089724e-05 0.0000000e+00 
0.0000000e+00 -3.6879344e-05 0.0000000e+00 
0.0000000e+00 -2.0033494e-04 0.0000000e+00 
0.0000000e+00 -4.7451135e-04 0.0000000e+00 
0.0000000e+00 -5.2820740e-04 0.0000000e+00 
0.0000000e+00 -1.8755376e-04 0.0000000e+00 
0.0000000e+00 -3.2208593e-06 0.0000000e+00 
0.0000000e+00 3.0584812e-05 0.0000000e+00 
0.0000000e+00 -4.3726309e-06 0.0000000e+00 
0.0000000e+00 -2.9081675e-06 0.0000000e+00 
0.0000000e+00 1.4104147e-06 0.0000000e+00 
2.3270839e-05 -1.8038432e-05 -2.6746631e-05 
2.1717737e-05 -5.0371080e-05 -4.2446343e-05 
-2.1261491e-07 -8.5234399e-07 -2.3562508e-07 
-2.7435473e-07 -1.4410758e-06 -5.0178028e-07 
3.0925206e-05 4.7076187e-06 -3.5836758e-05 
5.3017240e-05 6.9130347e-06 -1.4021163e-05 
3.3560766e-05 -9.2806482e-07 -9.2681330e-07 
4.9133141e-06 -6.4314231e-06 -9.3702693e-07 
5.2244133e-07 -1.3676537e-05 6.9239991e-06 
3.6251204e-06 7.5473654e-06 2.7309177e-06 
1.3722429e-05 1.0961518e-05 -2.1894384e-06 
-1.1565550e-06 -5.0261774e-06 -7.2574439e-06 
-6.2415311e-06 -8.6226501e-06 -6.5009967e-06 
1.7934371e-05 -1.1846240e-05 -9.5364539e-06 
3.6169116e-05 5.0690142e-07 -4.0908994e-06 
4.7654907e-05 2.1159958e-06 2.9003322e-06 
2.6814336e-05 -3.1806778e-06 1.1242623e-05 
-4.3701212e-07 -1.7816672e-05 2.2796131e-08 
1.8309378e-06 -3.0148451e-06 2.2297542e-07 
4.3437053e-06 4.1573985e-06 1.0126831e-05 
2.2597796e-06 -3.7946259e-07 4.1669991e-06 
-7.7985766e-07 -1.9295960e-06 -4.7078518e-07 
8.0064254e-08 1.0395889e-06 -4.7972111e-07 
8.0607297e-06 -7.3146752e-05 -3.9085324e-05 
0.0000000e+00 -4.2535830e-04 0.0000000e+00 
0.0000000e+00 -1.0689158e-03 0.0000000e+00 
0.0000000e+00 -1.1741386e-03 0.0000000e+00 
0.0000000e+00 -3.5643269e-04 0.0000000e+00 
0.0000000e+00 -4.6771664e-05 0.0000000e+00 
0.0000000e+00 7.8845194e-05 0.0000000e+00 
0.0000000e+00 3.4431385e-05 0.0000000e+00 
0.0000000e+00 4.3548131e-05 0.0000000e+00 
0.0000000e+00 -5.2967458e-05 0.0000000e+00 
0.0000000e+00 -6.3188054e-05 0.0000000e+00 
0.0000000e+00 -4.4815071e-04 0.0000000e+00 
0.0000000e+00 -1.0646954e-03 0.0000000e+00 
0.0000000e+00 -1.1518250e-03 0.0000000e+00 
0.0000000e+00 -3.4896613e-04 0.0000000e+00 
0.0000000e+00 -1.3480602e-06 0.0000000e+00 
0.0000000e+00 5.8528607e-05 0.0000000e+00 
0.0000000e+00 -9.2571918e-06 0.0000000e+00 
0.0000000e+00 -9.0626418e-06 0.0000000e+00 
0.0000000e+00 6.5090585e-06 0.0000000e+00 
-2.9477252e-07 -2.3800753e-06 -5.1252607e-07 
-3.0834609e-04 -3.9519710e-04 2.6716341e-04 
-6.1154872e-04 -1.2953362e-03 1.3474160e-04 
-6.1246823e-04 -1.4150747e-03 -1.0381352e-04 
-1.7855081e-04 -3.0604051e-04 -2.2976245e-04 
4.2711372e-06 -6.5744847e-05 -1.4210708e-04 
1.9955618e-05 8.7386223e-05 2.5565907e-06 
3.8320723e-06 7.4304618e-05 -8.4611293e-06 
5.6034296e-06 -2.6415879e-05 1.0087531e-05 
8.3925852e-06 -1.0091451e-04 6.1756968e-05 
-1.6505372e-06 -3.8899747e-05 3.5206245e-05 
-2.7778858e-04 -4.3963321e-04 2.1260207e-04 
-6.5673533e-04 -1.1543530e-03 1.5614435e-04 
-6.1055936e-04 -1.3421847e-03 -5.1463874e-05 
-1.6560915e-04 -3.2306058e-04 -2.7385791e-04 
1.4914915e-05 -1.0025758e-05 -1.3044884e-04 
1.7457734e-05 5.5367283e-05 4.5247616e-05 
-9.1468573e-06 8.1264370e-06 2.1838525e-05 
2.2238021e-08 -1.9904883e-05 -1.3875095e-05 
1.3530765e-06 1.3737027e-05 7.1451382e-06 
0.0000000e+00 -7.4842887e-04 0.0000000e+00 
0.0000000e+00 -2.1546145e-03 0.0000000e+00 
0.0000000e+00 -2.2237841e-03 0.0000000e+00 
0.0000000e+00 -6.0281623e-04 0.0000000e+00 
0.0000000e+00 -5.7919195e-05 0.0000000e+00 
0.0000000e+00 1.2991847e-04 0.0000000e+00 
0.0000000e+00 6.8291418e-05 0.0000000e+00 
0.0000000e+00 4.0480922e-05 0.0000000e+00 
0.0000000e+00 -1.0028275e-04 0.0000000e+00 
0.0000000e+00 -6.8536639e-05 0.0000000e+00 
0.0000000e+00 -8.7677344e-04 0.0000000e+00 
0.0000000e+00 -2.1454783e-03 0.0000000e+00 
0.0000000e+00 -2.1559615e-03 0.0000000e+00 
0.0000000e+00 -5.7033275e-04 0.0000000e+00 
0.0000000e+00 1.3778289e-05 0.0000000e+00 
0.0000000e+00 8.9551570e-05 0.0000000e+00 
0.0000000e+00 -8.6562596e-07 0.0000000e+00 
0.0000000e+00 -2.0025242e-05 0.0000000e+00 
0.0000000e+00 1.3072497e-05 0.0000000e+00 
3.1550189e-05 -1.2524096e-05 -1.2452503e-05 
7.0920483e-05 -1.1135013e-04 1.3764717e-05 
6.9117545e-05 -9.4937852e-05 9.7392958e-06 
2.5743700e-05 -5.7904890e-05 -1.1326900e-05 
-1.3303987e-05 -1.0826172e-05 -1.5259255e-05 
1.1736814e-05 2.1026863e-05 -4.2756869e-06 
9.0523008e-06 1.6938500e-05 -7.6203219e-06 
-4.3713922e-06 -2.0659058e-05 6.2399033e-07 
-7.4025579e-06 -3.8506685e-05 1.1665045e-05 
1.5580394e-05 -3.5639380e-06 6.6065986e-06 
5.9967424e-05 -3.1284650e-05 -1.4726564e-06 
7.7016251e-05 -4.0534047e-05 5.4967518e-06 
4.1912645e-05 -7.0599126e-05 1.7131762e-05 
2.1524544e-05 -6.5806729e-05 -1.6093021e-05 
-1.1047132e-05 -6.9097705e-06 -1.5906138e-05 
5.3335025e-06 1.3465889e-05 7.7140548e-06 
9.3585527e-07 2.9096364e-06 9.7179236e-06 
9.2394595e-07 2.9838893e-06 -9.0041999e-07 
2.1285837e-06 -1.4687173e-05 -7.7521163e-06 
0.0000000e+00 0.0000000e+00 0.0000000e+00 
0.0000000e+00 0.0000000e+00 0.0000000e+00 
0.0000000e+00 0.0000000e+00 0.0000000e+00 
0.0000000e+00 0.0000000e+00 0.0000000e+00 
0.0000000e+00 0.0000000e+00 0.0000000e+00 
0.0000000e+00 0.0000000e+00 0.0000000e+00 
0.0000000e+00 0.0000000e+00 0.0000000e+00 
0.0000000e+00 0.0000000e+00 0.0000000e+00 
0.0000000e+00 0.0000000e+00 0.0000000e+00 
0.0000000e+00 0.0000000e+00 0.0000000e+00 
0.0000000e+00 0.0000000e+00 0.0000000e+00 
0.0000000e+00 0.0000000e+00 0.0000000e+00 
0.0000000e+00 0.0000000e+00 0.0000000e+00 
0.0000000e+00 0.0000000e+00 0.0000000e+00 
0.0000000e+00 0.0000000e+00 0.0000000e+00 
0.0000000e+00 0.0000000e+00 0.0000000e+00 
0.0000000e+00 0.0000000e+00 0.0000000e+00 
0.0000000e+00 0.0000000e+00 0.0000000e+00 
0.0000000e+00 0.0000000e+00 0.0000000e+00 
0.0000000e+00 0.0000000e+00 0.0000000e+00 
0.0000000e+00 0.0000000e+00 0.0000000e+00 
0.0000000e+00 0.0000000e+00 0.0000000e+00 
0.0000000e+00 0.0000000e+00 0.0000000e+00 
0.0000000e+00 0.0000000e+00 0.0000000e+00 
0.0000000e+00 0.0000000e+00 0.0000000e+00 
0.0000000e+00 0.0000000e+00 0.0000000e+00 
0.0000000e+00 0.0000000e+00 0.0000000e+00 
0.0000000e+00 0.0000000e+00 0.0000000e+00 
0.0000000e+00 0.0000000e+00 0.0000000e+00 
0.0000000e+00 0.0000000e+00 0.0000000e+00 
0.0000000e+00 0.0000000e+00 0.0000000e+00 
0.0000000e+00 0.0000000e+00 0.0000000e+00 
0.0000000e+00 0.0000000e+00 0.0000000e+00 
0.0000000e+00 0.0000000e+00 0.0000000e+00 
0.0000000e+00 0.0000000e+00 0.0000000e+00 
0.0000000e+00 0.0000000e+00 0.0000000e+00 
0.0000000e+00 0.0000000e+00 0.0000000e+00 
0.0000000e+00 0.0000000e+00 0.0000000e+00 
0.0000000e+00 0.0000000e+00 0.0000000e+00 
0.0000000e+00 0.0000000e+00 0.0000000e+00 
0.0000000e+00 0.0000000e+00 0.0000000e+00 
0.0000000e+00 0.0000000e+00 0.0000000e+00 
1.3546255e-05 -8.8503039e-06 -1.1937114e-05 
1.2830125e-06 1.1722608e-06 9.9002921e-07 
3.1057989e-06 1.5765217e-07 -7.0664164e-06 
2.3509578e-05 -4.9619848e-06 -7.8915157e-08 
1.9324909e-05 -1.0726475e-05 7.5866370e-07 
1.5584261e-05 -1.0415434e-05 -4.9395663e-07 
5.2069477e-06 -4.5320799e-06 4.0645500e-06 