# vtk DataFile Version 4.0
vtk output
ASCII
DATASET UNSTRUCTURED_GRID
POINTS 661 float
0.0000000e+00 0.0000000e+00 0.0000000e+00 
0.0000000e+00 0.0000000e+00 4.0000000e+01 
5.0000000e+00 0.0000000e+00 0.0000000e+00 
5.0000000e+00 0.0000000e+00 4.0000000e+01 
5.0000000e+00 1.0000000e+00 0.0000000e+00 
5.0000000e+00 1.0000000e+00 4.0000000e+01 
0.0000000e+00 1.0000000e+00 0.0000000e+00 
0.0000000e+00 1.0000000e+00 4.0000000e+01 
5.0000000e+00 2.0000000e+00 0.0000000e+00 
5.0000000e+00 2.0000000e+00 4.0000000e+01 
3.0000000e+00 2.0000000e+00 0.0000000e+00 
3.0000000e+00 2.0000000e+00 4.0000000e+01 
0.0000000e+00 2.0000000e+00 0.0000000e+00 
0.0000000e+00 2.0000000e+00 4.0000000e+01 
1.5000000e+00 3.0000000e+00 0.0000000e+00 
1.5000000e+00 3.0000000e+00 4.0000000e+01 
7.5000000e-01 3.0000000e+00 0.0000000e+00 
7.5000000e-01 3.0000000e+00 4.0000000e+01 
0.0000000e+00 3.0000000e+00 0.0000000e+00 
0.0000000e+00 3.0000000e+00 4.0000000e+01 
7.5000000e-01 3.0000000e+00 5.0000000e-01 
7.5000000e-01 3.0000000e+00 1.0000000e+00 
7.5000000e-01 3.0000000e+00 1.5000000e+00 
7.5000000e-01 3.0000000e+00 2.0000000e+00 
7.5000000e-01 3.0000000e+00 2.5000000e+00 
7.5000000e-01 3.0000000e+00 3.0000000e+00 
7.5000000e-01 3.0000000e+00 3.5000000e+00 
7.5000000e-01 3.0000000e+00 4.0000000e+00 
7.5000000e-01 3.0000000e+00 4.5000000e+00 
7.5000000e-01 3.0000000e+00 5.0000000e+00 
7.5000000e-01 3.0000000e+00 5.5000000e+00 
7.5000000e-01 3.0000000e+00 6.0000000e+00 
7.5000000e-01 3.0000000e+00 6.5000000e+00 
7.5000000e-01 3.0000000e+00 7.0000000e+00 
7.5000000e-01 3.0000000e+00 7.5000000e+00 
7.5000000e-01 3.0000000e+00 8.0000000e+00 
7.5000000e-01 3.0000000e+00 8.5000000e+00 
7.5000000e-01 3.0000000e+00 9.0000000e+00 
7.5000000e-01 3.0000000e+00 9.5000000e+00 
7.5000000e-01 3.0000000e+00 1.0000000e+01 
7.5000000e-01 3.0000000e+00 1.0500000e+01 
7.5000000e-01 3.0000000e+00 1.1000000e+01 
7.5000000e-01 3.0000000e+00 1.1500000e+01 
7.5000000e-01 3.0000000e+00 1.2000000e+01 
7.5000000e-01 3.0000000e+00 1.2500000e+01 
7.5000000e-01 3.0000000e+00 1.3000000e+01 
7.5000000e-01 3.0000000e+00 1.3500000e+01 
7.5000000e-01 3.0000000e+00 1.4000000e+01 
7.5000000e-01 3.0000000e+00 1.4500000e+01 
7.5000000e-01 3.0000000e+00 1.5000000e+01 
7.5000000e-01 3.0000000e+00 1.5500000e+01 
7.5000000e-01 3.0000000e+00 1.6000000e+01 
7.5000000e-01 3.0000000e+00 1.6500000e+01 
7.5000000e-01 3.0000000e+00 1.7000000e+01 
7.5000000e-01 3.0000000e+00 1.7500000e+01 
7.5000000e-01 3.0000000e+00 1.8000000e+01 
7.5000000e-01 3.0000000e+00 1.8500000e+01 
7.5000000e-01 3.0000000e+00 1.9000000e+01 
7.5000000e-01 3.0000000e+00 1.9500000e+01 
7.5000000e-01 3.0000000e+00 2.0000000e+01 
7.5000000e-01 3.0000000e+00 2.0500000e+01 
7.5000000e-01 3.0000000e+00 2.1000000e+01 
7.5000000e-01 3.0000000e+00 2.1500000e+01 
7.5000000e-01 3.0000000e+00 2.2000000e+01 
7.5000000e-01 3.0000000e+00 2.2500000e+01 
7.5000000e-01 3.0000000e+00 2.3000000e+01 
7.5000000e-01 3.0000000e+00 2.3500000e+01 
7.5000000e-01 3.0000000e+00 2.4000000e+01 
7.5000000e-01 3.0000000e+00 2.4500000e+01 
7.5000000e-01 3.0000000e+00 2.5000000e+01 
7.5000000e-01 3.0000000e+00 2.5500000e+01 
7.5000000e-01 3.0000000e+00 2.6000000e+01 
7.5000000e-01 3.0000000e+00 2.6500000e+01 
7.5000000e-01 3.0000000e+00 2.7000000e+01 
7.5000000e-01 3.0000000e+00 2.7500000e+01 
7.5000000e-01 3.0000000e+00 2.8000000e+01 
7.5000000e-01 3.0000000e+00 2.8500000e+01 
7.5000000e-01 3.0000000e+00 2.9000000e+01 
7.5000000e-01 3.0000000e+00 2.9500000e+01 
7.5000000e-01 3.0000000e+00 3.0000000e+01 
7.5000000e-01 3.0000000e+00 3.0500000e+01 
7.5000000e-01 3.0000000e+00 3.1000000e+01 
7.5000000e-01 3.0000000e+00 3.1500000e+01 
7.5000000e-01 3.0000000e+00 3.2000000e+01 
7.5000000e-01 3.0000000e+00 3.2500000e+01 
7.5000000e-01 3.0000000e+00 3.3000000e+01 
7.5000000e-01 3.0000000e+00 3.3500000e+01 
7.5000000e-01 3.0000000e+00 3.4000000e+01 
7.5000000e-01 3.0000000e+00 3.4500000e+01 
7.5000000e-01 3.0000000e+00 3.5000000e+01 
7.5000000e-01 3.0000000e+00 3.5500000e+01 
7.5000000e-01 3.0000000e+00 3.6000000e+01 
7.5000000e-01 3.0000000e+00 3.6500000e+01 
7.5000000e-01 3.0000000e+00 3.7000000e+01 
7.5000000e-01 3.0000000e+00 3.7500000e+01 
7.5000000e-01 3.0000000e+00 3.8000000e+01 
7.5000000e-01 3.0000000e+00 3.8500000e+01 
7.5000000e-01 3.0000000e+00 3.9000000e+01 
7.5000000e-01 3.0000000e+00 3.9500000e+01 
7.5000000e-01 3.0000000e+00 4.0500000e+01 
7.5000000e-01 3.0000000e+00 4.1000000e+01 
7.5000000e-01 3.0000000e+00 4.1500000e+01 
7.5000000e-01 3.0000000e+00 4.2000000e+01 
7.5000000e-01 3.0000000e+00 4.2500000e+01 
7.5000000e-01 3.0000000e+00 4.3000000e+01 
7.5000000e-01 3.0000000e+00 4.3500000e+01 
7.5000000e-01 3.0000000e+00 4.4000000e+01 
7.5000000e-01 3.0000000e+00 4.4500000e+01 
7.5000000e-01 3.0000000e+00 4.5000000e+01 
7.5000000e-01 3.0000000e+00 4.5500000e+01 
7.5000000e-01 3.0000000e+00 4.6000000e+01 
7.5000000e-01 3.0000000e+00 4.6500000e+01 
7.5000000e-01 3.0000000e+00 4.7000000e+01 
7.5000000e-01 3.0000000e+00 4.7500000e+01 
7.5000000e-01 3.0000000e+00 4.8000000e+01 
7.5000000e-01 3.0000000e+00 4.8500000e+01 
7.5000000e-01 3.0000000e+00 4.9000000e+01 
7.5000000e-01 3.0000000e+00 4.9500000e+01 
7.5000000e-01 3.0000000e+00 5.0000000e+01 
7.5000000e-01 3.0250001e+00 0.0000000e+00 
7.5000000e-01 3.0250001e+00 5.0000000e-01 
7.5000000e-01 3.0250001e+00 1.0000000e+00 
7.5000000e-01 3.0250001e+00 1.5000000e+00 
7.5000000e-01 3.0250001e+00 2.0000000e+00 
7.5000000e-01 3.0250001e+00 2.5000000e+00 
7.5000000e-01 3.0250001e+00 3.0000000e+00 
7.5000000e-01 3.0250001e+00 3.5000000e+00 
7.5000000e-01 3.0250001e+00 4.0000000e+00 
7.5000000e-01 3.0250001e+00 4.5000000e+00 
7.5000000e-01 3.0250001e+00 5.0000000e+00 
7.5000000e-01 3.0250001e+00 5.5000000e+00 
7.5000000e-01 3.0250001e+00 6.0000000e+00 
7.5000000e-01 3.0250001e+00 6.5000000e+00 
7.5000000e-01 3.0250001e+00 7.0000000e+00 
7.5000000e-01 3.0250001e+00 7.5000000e+00 
7.5000000e-01 3.0250001e+00 8.0000000e+00 
7.5000000e-01 3.0250001e+00 8.5000000e+00 
7.5000000e-01 3.0250001e+00 9.0000000e+00 
7.5000000e-01 3.0250001e+00 9.5000000e+00 
7.5000000e-01 3.0250001e+00 1.0000000e+01 
7.5000000e-01 3.0250001e+00 1.0500000e+01 
7.5000000e-01 3.0250001e+00 1.1000000e+01 
7.5000000e-01 3.0250001e+00 1.1500000e+01 
7.5000000e-01 3.0250001e+00 1.2000000e+01 
7.5000000e-01 3.0250001e+00 1.2500000e+01 
7.5000000e-01 3.0250001e+00 1.3000000e+01 
7.5000000e-01 3.0250001e+00 1.3500000e+01 
7.5000000e-01 3.0250001e+00 1.4000000e+01 
7.5000000e-01 3.0250001e+00 1.4500000e+01 
7.5000000e-01 3.0250001e+00 1.5000000e+01 
7.5000000e-01 3.0250001e+00 1.5500000e+01 
7.5000000e-01 3.0250001e+00 1.6000000e+01 
7.5000000e-01 3.0250001e+00 1.6500000e+01 
7.5000000e-01 3.0250001e+00 1.7000000e+01 
7.5000000e-01 3.0250001e+00 1.7500000e+01 
7.5000000e-01 3.0250001e+00 1.8000000e+01 
7.5000000e-01 3.0250001e+00 1.8500000e+01 
7.5000000e-01 3.0250001e+00 1.9000000e+01 
7.5000000e-01 3.0250001e+00 1.9500000e+01 
7.5000000e-01 3.0250001e+00 2.0000000e+01 
7.5000000e-01 3.0250001e+00 2.0500000e+01 
7.5000000e-01 3.0250001e+00 2.1000000e+01 
7.5000000e-01 3.0250001e+00 2.1500000e+01 
7.5000000e-01 3.0250001e+00 2.2000000e+01 
7.5000000e-01 3.0250001e+00 2.2500000e+01 
7.5000000e-01 3.0250001e+00 2.3000000e+01 
7.5000000e-01 3.0250001e+00 2.3500000e+01 
7.5000000e-01 3.0250001e+00 2.4000000e+01 
7.5000000e-01 3.0250001e+00 2.4500000e+01 
7.5000000e-01 3.0250001e+00 2.5000000e+01 
7.5000000e-01 3.0250001e+00 2.5500000e+01 
7.5000000e-01 3.0250001e+00 2.6000000e+01 
7.5000000e-01 3.0250001e+00 2.6500000e+01 
7.5000000e-01 3.0250001e+00 2.7000000e+01 
7.5000000e-01 3.0250001e+00 2.7500000e+01 
7.5000000e-01 3.0250001e+00 2.8000000e+01 
7.5000000e-01 3.0250001e+00 2.8500000e+01 
7.5000000e-01 3.0250001e+00 2.9000000e+01 
7.5000000e-01 3.0250001e+00 2.9500000e+01 
7.5000000e-01 3.0250001e+00 3.0000000e+01 
7.5000000e-01 3.0250001e+00 3.0500000e+01 
7.5000000e-01 3.0250001e+00 3.1000000e+01 
7.5000000e-01 3.0250001e+00 3.1500000e+01 
7.5000000e-01 3.0250001e+00 3.2000000e+01 
7.5000000e-01 3.0250001e+00 3.2500000e+01 
7.5000000e-01 3.0250001e+00 3.3000000e+01 
7.5000000e-01 3.0250001e+00 3.3500000e+01 
7.5000000e-01 3.0250001e+00 3.4000000e+01 
7.5000000e-01 3.0250001e+00 3.4500000e+01 
7.5000000e-01 3.0250001e+00 3.5000000e+01 
7.5000000e-01 3.0250001e+00 3.5500000e+01 
7.5000000e-01 3.0250001e+00 3.6000000e+01 
7.5000000e-01 3.0250001e+00 3.6500000e+01 
7.5000000e-01 3.0250001e+00 3.7000000e+01 
7.5000000e-01 3.0250001e+00 3.7500000e+01 
7.5000000e-01 3.0250001e+00 3.8000000e+01 
7.5000000e-01 3.0250001e+00 3.8500000e+01 
7.5000000e-01 3.0250001e+00 3.9000000e+01 
7.5000000e-01 3.0250001e+00 3.9500000e+01 
7.5000000e-01 3.0250001e+00 4.0000000e+01 
7.5000000e-01 3.0250001e+00 4.0500000e+01 
7.5000000e-01 3.0250001e+00 4.1000000e+01 
7.5000000e-01 3.0250001e+00 4.1500000e+01 
7.5000000e-01 3.0250001e+00 4.2000000e+01 
7.5000000e-01 3.0250001e+00 4.2500000e+01 
7.5000000e-01 3.0250001e+00 4.3000000e+01 
7.5000000e-01 3.0250001e+00 4.3500000e+01 
7.5000000e-01 3.0250001e+00 4.4000000e+01 
7.5000000e-01 3.0250001e+00 4.4500000e+01 
7.5000000e-01 3.0250001e+00 4.5000000e+01 
7.5000000e-01 3.0250001e+00 4.5500000e+01 
7.5000000e-01 3.0250001e+00 4.6000000e+01 
7.5000000e-01 3.0250001e+00 4.6500000e+01 
7.5000000e-01 3.0250001e+00 4.7000000e+01 
7.5000000e-01 3.0250001e+00 4.7500000e+01 
7.5000000e-01 3.0250001e+00 4.8000000e+01 
7.5000000e-01 3.0250001e+00 4.8500000e+01 
7.5000000e-01 3.0250001e+00 4.9000000e+01 
7.5000000e-01 3.0250001e+00 4.9500000e+01 
7.5000000e-01 3.0250001e+00 5.0000000e+01 
3.0000000e+00 2.0000000e+00 3.6000000e+01 
8.0487806e-01 3.0000000e+00 3.6000000e+01 
0.0000000e+00 0.0000000e+00 2.0000000e+00 
0.0000000e+00 0.0000000e+00 4.0000000e+00 
0.0000000e+00 0.0000000e+00 6.0000000e+00 
0.0000000e+00 0.0000000e+00 8.0000000e+00 
0.0000000e+00 0.0000000e+00 1.0000000e+01 
0.0000000e+00 0.0000000e+00 1.2000000e+01 
0.0000000e+00 0.0000000e+00 1.4000000e+01 
0.0000000e+00 0.0000000e+00 1.6000000e+01 
[...]
POINT_DATA 661
FIELD FieldData 3
DISPLACEMENT 3 661  float
0.0000000e+00 0.0000000e+00 0.0000000e+00 
0.0000000e+00 0.0000000e+00 0.0000000e+00 
0.0000000e+00 0.0000000e+00 0.0000000e+00 
0.0000000e+00 0.0000000e+00 0.0000000e+00 
6.6895268e-06 -4.8866182e-06 -1.9992133e-07 
9.0894481e-08 -3.0205701e-06 -2.4510089e-06 
0.0000000e+00 -7.0609531e-06 0.0000000e+00 
0.0000000e+00 2.9613006e-05 0.0000000e+00 
8.7912913e-06 -6.9144644e-06 -4.4970679e-06 
1.4677970e-06 -7.7257191e-06 5.2822261e-06 
1.2140815e-06 -7.4301188e-06 -1.0002365e-05 
-2.6891678e-06 4.7008888e-07 3.8570720e-06 
0.0000000e+00 -9.6519307e-06 0.0000000e+00 
0.0000000e+00 5.7678379e-05 0.0000000e+00 
-4.9724799e-06 -8.5597003e-06 -1.1039319e-05 
2.2878701e-05 4.4897366e-05 1.8778976e-05 
1.6433654e-05 1.7247652e-05 3.6841693e-06 
2.0984951e-05 8.4174470e-05 2.2057355e-05 
0.0000000e+00 -1.6756359e-05 0.0000000e+00 
0.0000000e+00 8.2435014e-05 0.0000000e+00 
-1.2399270e-05 1.8454561e-05 -1.7756889e-05 
-1.7383974e-05 2.1290214e-05 -2.3687177e-05 
-1.8445910e-05 2.4019644e-05 -2.8354234e-05 
-1.5631933e-05 2.6293113e-05 -3.4311481e-05 
-8.6654645e-06 2.9121526e-05 -3.7990678e-05 
-4.7804256e-06 3.3702763e-05 -3.9975177e-05 
5.5049300e-06 4.1854830e-05 -5.3156677e-05 
1.7673496e-05 5.5635141e-05 -6.2845327e-05 
2.4927278e-05 7.6362921e-05 -5.7680205e-05 
3.0927953e-05 1.0241340e-04 -4.5608871e-05 
3.5951642e-05 1.3212947e-04 -3.6830519e-05 
4.6248006e-05 1.6409138e-04 -2.4233703e-05 
5.9255493e-05 1.9571294e-04 -1.0913322e-05 
6.3979263e-05 2.1979958e-04 7.6450096e-06 
5.0289556e-05 2.2345886e-04 3.6981528e-05 
2.8097982e-05 1.7806653e-04 6.8645015e-05 
-1.5214986e-05 4.1858999e-05 1.1014514e-04 
-2.6647538e-05 -2.2627464e-04 1.5006169e-04 
-5.4365068e-05 -6.8982731e-04 2.0868452e-04 
-1.1347070e-04 -1.3924288e-03 1.6414710e-04 
-2.6774418e-04 -2.3541057e-03 2.4819784e-04 
-2.8150014e-04 -3.3947269e-03 2.2667949e-04 
-1.8037029e-04 -4.2062276e-03 1.6611295e-04 
-1.5633911e-04 -4.2312578e-03 1.7052074e-04 
-2.9148074e-04 -4.0362277e-03 8.6203501e-05 
-3.5960024e-04 -3.9913692e-03 5.1382231e-05 
-2.4794150e-04 -4.2088982e-03 6.5995623e-06 
-9.5947660e-05 -4.2059072e-03 -4.2033276e-05 
-1.2186228e-04 -3.5106484e-03 -1.4309923e-04 
-2.1301131e-04 -2.4899112e-03 -1.7675389e-04 
-2.0380747e-04 -1.5905512e-03 -1.8164021e-04 
-7.9996280e-05 -8.9410652e-04 -1.3254060e-04 
-4.1829640e-05 -4.3636555e-04 -1.7260037e-04 
-2.7325465e-05 -1.5939538e-04 -1.4480621e-04 
-1.7433136e-05 -8.2679944e-06 -1.2624274e-04 
6.3196385e-06 6.3060754e-05 -1.0190211e-04 
2.0559390e-05 8.3148116e-05 -6.7819565e-05 
2.7185784e-05 7.6759119e-05 -3.7725746e-05 
1.8990098e-05 6.0609371e-05 -2.9842600e-05 
1.0332343e-05 4.2656106e-05 -3.2855987e-05 
2.0295402e-06 2.7255201e-05 -3.8405633e-05 
2.1508610e-07 1.2268157e-05 -3.8994323e-05 
-6.8641452e-06 -5.1532352e-06 -2.7655362e-05 
-1.7951421e-05 -2.4056340e-05 -9.1868160e-06 
-1.7614058e-05 -4.1832118e-05 9.4646111e-06 
-1.7762108e-05 -5.3231241e-05 1.9088622e-05 
-1.4835997e-05 -5.2604686e-05 2.0658432e-05 
-9.3153703e-06 -3.6703357e-05 1.6396747e-05 
4.0181912e-06 -2.7906999e-06 -6.3291818e-06 
9.2056271e-06 4.4129705e-05 -2.8865528e-05 
2.6259979e-05 9.8655881e-05 -5.4336462e-05 
4.7320675e-05 1.5298618e-04 -7.0945520e-05 
5.6782832e-05 2.0016542e-04 -6.3643551e-05 
6.4914588e-05 2.3109937e-04 -3.9600389e-05 
5.2093637e-05 2.3252537e-04 -8.1834251e-06 
3.1537478e-05 1.7764336e-04 3.0369512e-05 
-1.0540258e-05 2.2940450e-05 8.8683970e-05 
-2.0364510e-05 -2.7338543e-04 1.4202025e-04 
-4.4808010e-05 -7.7531615e-04 2.0244623e-04 
-1.0657071e-04 -1.5175226e-03 1.5092811e-04 
-2.5930614e-04 -2.5033727e-03 2.3255382e-04 
-2.7382647e-04 -3.5152705e-03 2.0052542e-04 
-1.7304743e-04 -4.1879169e-03 1.3328435e-04 
-1.3186369e-04 -4.1186758e-03 1.3997084e-04 
-2.7055811e-04 -3.9666123e-03 6.5430126e-05 
-3.2922754e-04 -4.0108012e-03 4.2253669e-05 
-2.1578610e-04 -4.2788670e-03 2.3289770e-06 
-7.9705918e-05 -4.1776034e-03 -1.8904590e-05 
-1.1974313e-04 -3.3618556e-03 -1.4419024e-04 
-2.2038267e-04 -2.3074816e-03 -1.8629819e-04 
-2.2074830e-04 -1.4096500e-03 -1.9999003e-04 
-1.3190741e-04 -7.2809303e-04 -1.7498636e-04 
-5.4839573e-05 -2.8560596e-04 -1.7267349e-04 
-3.2070024e-05 -2.4381987e-05 -1.4414948e-04 
-2.3461835e-05 1.1493435e-04 -1.2961931e-04 
2.4289691e-06 1.7527115e-04 -1.0985378e-04 
1.8275799e-05 1.8520374e-04 -7.4782489e-05 
3.1631855e-05 1.6550036e-04 -4.1679032e-05 
2.7744332e-05 1.3069301e-04 -2.2394637e-05 
0.0000000e+00 3.2596621e-05 0.0000000e+00 
0.0000000e+00 -1.9038060e-05 0.0000000e+00 
0.0000000e+00 -6.4537533e-05 0.0000000e+00 
0.0000000e+00 -9.7803822e-05 0.0000000e+00 
0.0000000e+00 -1.1419413e-04 0.0000000e+00 
0.0000000e+00 -1.1187839e-04 0.0000000e+00 
0.0000000e+00 -9.2328439e-05 0.0000000e+00 
0.0000000e+00 -5.9840640e-05 0.0000000e+00 
0.0000000e+00 -2.0544969e-05 0.0000000e+00 
0.0000000e+00 1.8671728e-05 0.0000000e+00 
0.0000000e+00 5.1241856e-05 0.0000000e+00 
0.0000000e+00 7.2018891e-05 0.0000000e+00 
0.0000000e+00 7.8209348e-05 0.0000000e+00 
0.0000000e+00 6.9776856e-05 0.0000000e+00 
0.0000000e+00 4.9169514e-05 0.0000000e+00 
0.0000000e+00 2.0616444e-05 0.0000000e+00 
0.0000000e+00 -1.0615647e-05 0.0000000e+00 
0.0000000e+00 -3.8857906e-05 0.0000000e+00 
0.0000000e+00 -5.8723152e-05 0.0000000e+00 
0.0000000e+00 -6.5973923e-05 0.0000000e+00 
0.0000000e+00 1.7338696e-05 0.0000000e+00 
0.0000000e+00 1.8521392e-05 0.0000000e+00 
0.0000000e+00 2.1220547e-05 0.0000000e+00 
0.0000000e+00 2.3936360e-05 0.0000000e+00 
0.0000000e+00 2.6267571e-05 0.0000000e+00 
0.0000000e+00 2.9083503e-05 0.0000000e+00 
0.0000000e+00 3.3691242e-05 0.0000000e+00 
0.0000000e+00 4.1905401e-05 0.0000000e+00 
0.0000000e+00 5.5793353e-05 0.0000000e+00 
0.0000000e+00 7.6374970e-05 0.0000000e+00 
0.0000000e+00 1.0240989e-04 0.0000000e+00 
0.0000000e+00 1.3219741e-04 0.0000000e+00 
0.0000000e+00 1.6432437e-04 0.0000000e+00 
0.0000000e+00 1.9605029e-04 0.0000000e+00 
0.0000000e+00 2.2072147e-04 0.0000000e+00 
0.0000000e+00 2.2419641e-04 0.0000000e+00 
0.0000000e+00 1.7815278e-04 0.0000000e+00 
0.0000000e+00 4.3068165e-05 0.0000000e+00 
0.0000000e+00 -2.2693849e-04 0.0000000e+00 
0.0000000e+00 -6.9130352e-04 0.0000000e+00 
0.0000000e+00 -1.4020181e-03 0.0000000e+00 
0.0000000e+00 -2.3618529e-03 0.0000000e+00 
0.0000000e+00 -3.4272762e-03 0.0000000e+00 
0.0000000e+00 -4.2306394e-03 0.0000000e+00 
0.0000000e+00 -4.2620096e-03 0.0000000e+00 
0.0000000e+00 -4.0501356e-03 0.0000000e+00 
0.0000000e+00 -4.0213251e-03 0.0000000e+00 
0.0000000e+00 -4.2281817e-03 0.0000000e+00 
0.0000000e+00 -4.2392570e-03 0.0000000e+00 
0.0000000e+00 -3.5282148e-03 0.0000000e+00 
0.0000000e+00 -2.5076307e-03 0.0000000e+00 
0.0000000e+00 -1.5927067e-03 0.0000000e+00 
0.0000000e+00 -8.9813262e-04 0.0000000e+00 
0.0000000e+00 -4.3620740e-04 0.0000000e+00 
0.0000000e+00 -1.5861927e-04 0.0000000e+00 
0.0000000e+00 -7.3068286e-06 0.0000000e+00 
0.0000000e+00 6.3267573e-05 0.0000000e+00 
0.0000000e+00 8.3562860e-05 0.0000000e+00 
0.0000000e+00 7.7246521e-05 0.0000000e+00 
0.0000000e+00 6.0806040e-05 0.0000000e+00 
0.0000000e+00 4.2949934e-05 0.0000000e+00 
0.0000000e+00 2.7273865e-05 0.0000000e+00 
0.0000000e+00 1.2065752e-05 0.0000000e+00 
0.0000000e+00 -5.2237488e-06 0.0000000e+00 
0.0000000e+00 -2.4162673e-05 0.0000000e+00 
0.0000000e+00 -4.1857184e-05 0.0000000e+00 
0.0000000e+00 -5.3125539e-05 0.0000000e+00 
0.0000000e+00 -5.2583157e-05 0.0000000e+00 
0.0000000e+00 -3.6335401e-05 0.0000000e+00 
0.0000000e+00 -2.7656588e-06 0.0000000e+00 
0.0000000e+00 4.4241409e-05 0.0000000e+00 
0.0000000e+00 9.8628552e-05 0.0000000e+00 
0.0000000e+00 1.5308177e-04 0.0000000e+00 
0.0000000e+00 2.0040583e-04 0.0000000e+00 
0.0000000e+00 2.3187888e-04 0.0000000e+00 
0.0000000e+00 2.3344441e-04 0.0000000e+00 
0.0000000e+00 1.7776266e-04 0.0000000e+00 
0.0000000e+00 2.4169747e-05 0.0000000e+00 
0.0000000e+00 -2.7452962e-04 0.0000000e+00 
0.0000000e+00 -7.7725895e-04 0.0000000e+00 
0.0000000e+00 -1.5281978e-03 0.0000000e+00 
0.0000000e+00 -2.5124685e-03 0.0000000e+00 
0.0000000e+00 -3.5503719e-03 0.0000000e+00 
0.0000000e+00 -4.2120256e-03 0.0000000e+00 
0.0000000e+00 -4.1483184e-03 0.0000000e+00 
0.0000000e+00 -3.9801463e-03 0.0000000e+00 
0.0000000e+00 -4.0424662e-03 0.0000000e+00 
0.0000000e+00 -4.3002646e-03 0.0000000e+00 
0.0000000e+00 -4.2114607e-03 0.0000000e+00 
0.0000000e+00 -3.3781107e-03 0.0000000e+00 
0.0000000e+00 -2.3236151e-03 0.0000000e+00 
0.0000000e+00 -1.4113428e-03 0.0000000e+00 
0.0000000e+00 -7.3148491e-04 0.0000000e+00 
0.0000000e+00 -2.8562514e-04 0.0000000e+00 
0.0000000e+00 -2.3267894e-05 0.0000000e+00 
0.0000000e+00 1.1574832e-04 0.0000000e+00 
0.0000000e+00 1.7567104e-04 0.0000000e+00 
0.0000000e+00 1.8558638e-04 0.0000000e+00 
0.0000000e+00 1.6610656e-04 0.0000000e+00 
0.0000000e+00 1.3054835e-04 0.0000000e+00 
0.0000000e+00 8.4238789e-05 0.0000000e+00 
0.0000000e+00 3.2549942e-05 0.0000000e+00 
0.0000000e+00 -1.9035080e-05 0.0000000e+00 
0.0000000e+00 -6.4465909e-05 0.0000000e+00 
0.0000000e+00 -9.7678196e-05 0.0000000e+00 
0.0000000e+00 -1.1405346e-04 0.0000000e+00 
0.0000000e+00 -1.1175899e-04 0.0000000e+00 
0.0000000e+00 -9.2249400e-05 0.0000000e+00 
0.0000000e+00 -5.9809463e-05 0.0000000e+00 
0.0000000e+00 -2.0566220e-05 0.0000000e+00 
0.0000000e+00 1.8599305e-05 0.0000000e+00 
0.0000000e+00 5.1133611e-05 0.0000000e+00 
0.0000000e+00 7.1902497e-05 0.0000000e+00 
0.0000000e+00 7.8110766e-05 0.0000000e+00 
0.0000000e+00 6.9707821e-05 0.0000000e+00 
0.0000000e+00 4.9128797e-05 0.0000000e+00 
0.0000000e+00 2.0601467e-05 0.0000000e+00 
0.0000000e+00 -1.0600983e-05 0.0000000e+00 
0.0000000e+00 -3.8807546e-05 0.0000000e+00 
0.0000000e+00 -5.8640238e-05 0.0000000e+00 
0.0000000e+00 -6.5877182e-05 0.0000000e+00 
2.3572969e-05 -4.4873257e-05 3.2105585e-09 
-1.0842224e-04 -6.5554405e-04 -1.5124922e-04 
0.0000000e+00 0.0000000e+00 0.0000000e+00 
0.0000000e+00 0.0000000e+00 0.0000000e+00 
0.0000000e+00 0.0000000e+00 0.0000000e+00 
0.0000000e+00 0.0000000e+00 0.0000000e+00 
0.0000000e+00 0.0000000e+00 0.0000000e+00 
0.0000000e+00 0.0000000e+00 0.0000000e+00 
0.0000000e+00 0.0000000e+00 0.0000000e+00 
0.0000000e+00 0.0000000e+00 0.0000000e+00 
0.0000000e+00 0.0000000e+00 0.0000000e+00 
0.0000000e+00 0.0000000e+00 0.0000000e+00 
0.0000000e+00 0.0000000e+00 0.0000000e+00 
0.0000000e+00 0.0000000e+00 0.0000000e+00 
0.0000000e+00 0.0000000e+00 0.0000000e+00 
0.0000000e+00 0.0000000e+00 0.0000000e+00 
0.0000000e+00 0.0000000e+00 0.0000000e+00 
0.0000000e+00 0.0000000e+00 0.0000000e+00 
0.0000000e+00 0.0000000e+00 0.0000000e+00 
0.0000000e+00 0.0000000e+00 0.0000000e+00 
0.0000000e+00 0.0000000e+00 0.0000000e+00 
0.0000000e+00 0.0000000e+00 0.0000000e+00 
0.0000000e+00 0.0000000e+00 0.0000000e+00 
0.0000000e+00 0.0000000e+00 0.0000000e+00 
0.0000000e+00 0.0000000e+00 0.0000000e+00 
0.0000000e+00 0.0000000e+00 0.0000000e+00 
0.0000000e+00 0.0000000e+00 0.0000000e+00 
0.0000000e+00 0.0000000e+00 0.0000000e+00 
0.0000000e+00 0.0000000e+00 0.0000000e+00 
0.0000000e+00 0.0000000e+00 0.0000000e+00 
0.0000000e+00 0.0000000e+00 0.0000000e+00 
0.0000000e+00 0.0000000e+00 0.0000000e+00 
0.0000000e+00 0.0000000e+00 0.0000000e+00 
0.0000000e+00 0.0000000e+00 0.0000000e+00 
0.0000000e+00 0.0000000e+00 0.0000000e+00 
0.0000000e+00 0.0000000e+00 0.0000000e+00 
0.0000000e+00 0.0000000e+00 0.0000000e+00 
0.0000000e+00 0.0000000e+00 0.0000000e+00 
0.0000000e+00 0.0000000e+00 0.0000000e+00 
0.0000000e+00 0.0000000e+00 0.0000000e+00 
0.0000000e+00 0.0000000e+00 0.0000000e+00 
0.0000000e+00 0.0000000e+00 0.0000000e+00 
0.0000000e+00 0.0000000e+00 0.0000000e+00 
0.0000000e+00 0.0000000e+00 0.0000000e+00 
-1.1867430e-06 1.3428540e-07 -6.6563462e-07 
-6.2733875e-06 3.1604930e-07 -4.4278768e-06 
-2.2179941e-06 3.1917403e-07 -9.7639095e-06 
8.1650078e-06 -1.1125666e-06 -9.0321173e-06 
3.0907875e-05 -5.2160581e-06 -1.1043856e-05 
5.2103656e-05 -6.3399643e-06 -8.6043862e-08 
4.5954719e-05 -5.5427859e-06 1.1979625e-05 
2.2904031e-05 -4.6619462e-06 7.5308762e-06 
8.8048682e-06 -1.3674104e-06 2.5699314e-06 
3.3801919e-06 -5.6038367e-08 1.8821798e-06 
-1.4405574e-06 -4.3938940e-06 4.4253693e-06 
-5.5081882e-06 -2.2409540e-06 1.3426408e-06 
-5.9505178e-06 4.2997299e-06 -1.0758739e-06 
5.8382052e-06 -7.7128959e-07 -8.0023628e-06 
3.2504147e-05 -9.6602007e-06 -1.0885094e-05 
5.4687844e-05 -9.8994642e-06 7.8848956e-07 
5.6585799e-05 -1.1181570e-05 1.3548609e-05 
2.2145610e-05 -7.2877997e-06 1.2984852e-05 
-5.7110219e-06 5.8404166e-06 -2.2683217e-07 
0.0000000e+00 1.2899067e-05 0.0000000e+00 
0.0000000e+00 2.1438604e-05 0.0000000e+00 
0.0000000e+00 5.7362460e-05 0.0000000e+00 
0.0000000e+00 3.7793001e-05 0.0000000e+00 
0.0000000e+00 -2.0051905e-04 0.0000000e+00 
0.0000000e+00 -5.7566015e-04 0.0000000e+00 
0.0000000e+00 -5.4286793e-04 0.0000000e+00 
0.0000000e+00 -1.8446047e-04 0.0000000e+00 
0.0000000e+00 5.9154800e-06 0.0000000e+00 
0.0000000e+00 7.5133698e-06 0.0000000e+00 
0.0000000e+00 -6.7931633e-06 0.0000000e+00 
0.0000000e+00 -1.6421343e-05 0.0000000e+00 
0.0000000e+00 5.5355820e-05 0.0000000e+00 
0.0000000e+00 4.0381321e-05 0.0000000e+00 
0.0000000e+00 -2.0902412e-04 0.0000000e+00 
0.0000000e+00 -5.5955682e-04 0.0000000e+00 
0.0000000e+00 -5.3703098e-04 0.0000000e+00 
0.0000000e+00 -1.6392246e-04 0.0000000e+00 
0.0000000e+00 4.0697792e-05 0.0000000e+00 
2.2098425e-06 -3.9653287e-06 -5.3454414e-06 
1.3833749e-06 -8.8644174e-06 -6.9875186e-06 
-3.2514977e-06 -1.6467028e-06 2.3375705e-06 
-8.2505239e-06 1.8171586e-05 -1.0692900e-05 
-1.1998767e-08 -9.1013283e-07 -2.1403339e-06 
-4.8334882e-06 6.5079996e-07 -6.1513415e-06 
2.0213176e-06 2.4766669e-07 -1.4386998e-05 
2.2565811e-05 -3.5832679e-06 -1.4886197e-05 
3.2899770e-05 -3.9419747e-06 -6.0750773e-07 
3.1860069e-05 -3.8563267e-06 6.5653621e-06 
1.7894434e-05 -9.3254096e-07 1.3113970e-05 
6.9855973e-06 -1.2970176e-07 -2.4100299e-07 
9.5677306e-06 -8.9000457e-07 -1.6068049e-06 
4.2891420e-06 -1.8087636e-06 3.8768817e-06 
-1.6017228e-06 -8.1226690e-06 6.6886309e-06 
-5.8757628e-06 -2.9824409e-06 -2.9347536e-06 
-1.5420731e-06 5.3930544e-06 -7.1831842e-06 
2.3054803e-05 -2.0735490e-06 -7.8033754e-06 
3.5533340e-05 -9.3086974e-06 -4.5923335e-07 
3.9725986e-05 -8.3973136e-06 7.0050464e-06 
3.1473704e-05 -8.2751649e-06 1.6557982e-05 
9.6401718e-06 -1.2837050e-06 -3.1856363e-08 
-5.4103716e-06 5.0005101e-06 -2.0948482e-06 
-3.0906153e-07 -9.7611191e-06 -1.0531178e-05 
0.0000000e+00 2.4411640e-05 0.0000000e+00 
0.0000000e+00 3.5258523e-05 0.0000000e+00 
0.0000000e+00 9.7893033e-05 0.0000000e+00 
0.0000000e+00 8.4313404e-05 0.0000000e+00 
0.0000000e+00 -4.2658494e-04 0.0000000e+00 
0.0000000e+00 -1.2649617e-03 0.0000000e+00 
0.0000000e+00 -1.1917959e-03 0.0000000e+00 
0.0000000e+00 -3.4676719e-04 0.0000000e+00 
0.0000000e+00 2.5327214e-05 0.0000000e+00 
0.0000000e+00 1.1833336e-05 0.0000000e+00 
0.0000000e+00 -9.7389075e-06 0.0000000e+00 
0.0000000e+00 -3.3036158e-05 0.0000000e+00 
0.0000000e+00 1.0561186e-04 0.0000000e+00 
0.0000000e+00 8.5762680e-05 0.0000000e+00 
0.0000000e+00 -4.5699877e-04 0.0000000e+00 
0.0000000e+00 -1.2346654e-03 0.0000000e+00 
0.0000000e+00 -1.1612554e-03 0.0000000e+00 
0.0000000e+00 -2.9775553e-04 0.0000000e+00 
0.0000000e+00 8.9731628e-05 0.0000000e+00 
-1.7239306e-06 3.7037407e-05 -1.7572040e-05 
-1.3637546e-05 1.9696954e-05 -2.2555072e-05 
1.8258304e-05 2.9015224e-05 -8.7607958e-05 
7.1530543e-05 9.4470532e-05 -3.2243952e-05 
5.5272092e-05 1.4895324e-04 1.1179002e-04 
-2.6933433e-04 -4.0386198e-04 3.7748387e-04 
-7.1670365e-04 -1.4117429e-03 1.8607111e-04 
-6.3461793e-04 -1.4781608e-03 -1.1266379e-04 
-1.6211819e-04 -3.0055927e-04 -2.6159870e-04 
1.6706230e-05 3.6343739e-05 -1.2496603e-04 
1.5439375e-05 2.1970687e-05 -2.6226893e-05 
-2.4370913e-05 -2.4306450e-05 1.2379456e-05 
-1.3598778e-05 -3.2844673e-05 -1.1414488e-06 
7.4477270e-05 7.3553732e-05 -9.7201861e-05 
5.7531375e-05 1.6191964e-04 7.9615420e-05 
-2.8135267e-04 -4.4111721e-04 3.6636385e-04 
-6.7341671e-04 -1.3386603e-03 1.3818438e-04 
-6.2284520e-04 -1.4428652e-03 -9.1207730e-05 
-1.4156249e-04 -2.9977685e-04 -2.4462922e-04 
1.2805479e-05 1.0177855e-04 -1.4239880e-04 
0.0000000e+00 3.8763956e-05 0.0000000e+00 
0.0000000e+00 4.2145832e-05 0.0000000e+00 
0.0000000e+00 1.3877440e-04 0.0000000e+00 
0.0000000e+00 1.7037021e-04 0.0000000e+00 
0.0000000e+00 -8.1179739e-04 0.0000000e+00 
0.0000000e+00 -2.4331310e-03 0.0000000e+00 
0.0000000e+00 -2.2342785e-03 0.0000000e+00 
0.0000000e+00 -5.7527685e-04 0.0000000e+00 
0.0000000e+00 6.8184345e-05 0.0000000e+00 
0.0000000e+00 1.9761432e-05 0.0000000e+00 
0.0000000e+00 -1.2331574e-05 0.0000000e+00 
0.0000000e+00 -5.5647055e-05 0.0000000e+00 
0.0000000e+00 1.5443204e-04 0.0000000e+00 
0.0000000e+00 1.6474214e-04 0.0000000e+00 
0.0000000e+00 -8.9384179e-04 0.0000000e+00 
0.0000000e+00 -2.3974900e-03 0.0000000e+00 
0.0000000e+00 -2.1898481e-03 0.0000000e+00 
0.0000000e+00 -4.5877512e-04 0.0000000e+00 
0.0000000e+00 1.6156565e-04 0.0000000e+00 
-6.7288624e-06 1.5775947e-06 -8.2957213e-06 
-3.6490310e-06 7.4764885e-06 -1.8576706e-05 
1.1343592e-05 2.4075915e-05 -6.4908586e-06 
2.5811383e-05 5.2447696e-05 2.1669568e-05 
5.5139684e-05 -3.9813684e-05 1.7526425e-05 
5.1731164e-05 -1.1142388e-04 6.5835234e-06 
3.9915518e-05 -1.2026982e-04 1.1263062e-05 
3.1650066e-05 -6.7633482e-05 -4.2521451e-06 
5.7025641e-06 8.1789422e-06 -2.6375930e-05 
3.2380584e-07 2.5757561e-06 -1.5718368e-05 
-1.6122593e-05 -6.6325351e-06 -1.0719584e-06 
-9.4730485e-06 -6.8874597e-06 -6.0744883e-06 
1.0259849e-05 1.9859706e-05 -8.2201796e-06 
1.7610126e-05 5.2731200e-05 1.2324089e-05 
5.9879629e-05 -4.2266671e-05 1.3792579e-05 
6.5563290e-05 -9.9713048e-05 9.1970733e-06 
4.8969123e-05 -1.1324415e-04 2.4109026e-05 
-7.1267264e-06 1.5876787e-05 -2.3702261e-05 
-3.1439435e-05 -2.3659550e-04 -1.1505470e-04 
0.0000000e+00 0.0000000e+00 0.0000000e+00 
0.0000000e+00 0.0000000e+00 0.0000000e+00 
0.0000000e+00 0.0000000e+00 0.0000000e+00 
0.0000000e+00 0.0000000e+00 0.0000000e+00 
0.0000000e+00 0.0000000e+00 0.0000000e+00 
0.0000000e+00 0.0000000e+00 0.0000000e+00 
0.0000000e+00 0.0000000e+00 0.0000000e+00 
0.0000000e+00 0.0000000e+00 0.0000000e+00 
0.0000000e+00 0.0000000e+00 0.0000000e+00 
0.0000000e+00 0.0000000e+00 0.0000000e+00 
0.0000000e+00 0.0000000e+00 0.0000000e+00 
0.0000000e+00 0.0000000e+00 0.0000000e+00 
0.0000000e+00 0.0000000e+00 0.0000000e+00 
0.0000000e+00 0.0000000e+00 0.0000000e+00 
0.0000000e+00 0.0000000e+00 0.0000000e+00 
0.0000000e+00 0.0000000e+00 0.0000000e+00 
0.0000000e+00 0.0000000e+00 0.0000000e+00 
0.0000000e+00 0.0000000e+00 0.0000000e+00 
0.0000000e+00 0.0000000e+00 0.0000000e+00 
0.0000000e+00 0.0000000e+00 0.0000000e+00 
0.0000000e+00 0.0000000e+00 0.0000000e+00 
0.0000000e+00 0.0000000e+00 0.0000000e+00 
0.0000000e+00 0.0000000e+00 0.0000000e+00 
0.0000000e+00 0.0000000e+00 0.0000000e+00 
0.0000000e+00 0.0000000e+00 0.0000000e+00 
0.0000000e+00 0.0000000e+00 0.0000000e+00 
0.0000000e+00 0.0000000e+00 0.0000000e+00 
0.0000000e+00 0.0000000e+00 0.0000000e+00 
0.0000000e+00 0.0000000e+00 0.0000000e+00 
0.0000000e+00 0.0000000e+00 0.0000000e+00 
0.0000000e+00 0.0000000e+00 0.0000000e+00 
0.0000000e+00 0.0000000e+00 0.0000000e+00 
0.0000000e+00 0.0000000e+00 0.0000000e+00 
0.0000000e+00 0.0000000e+00 0.0000000e+00 
0.0000000e+00 0.0000000e+00 0.0000000e+00 
0.0000000e+00 0.0000000e+00 0.0000000e+00 
0.0000000e+00 0.0000000e+00 0.0000000e+00 
0.0000000e+00 0.0000000e+00 0.0000000e+00 
0.0000000e+00 0.0000000e+00 0.0000000e+00 
0.0000000e+00 0.0000000e+00 0.0000000e+00 
0.0000000e+00 0.0000000e+00 0.0000000e+00 
0.0000000e+00 0.0000000e+00 0.0000000e+00 
-3.4546663e-06 1.8676576e-07 -3.4876202e-06 
2.5622201e-05 -8.0856635e-06 4.0603791e-06 
7.9806487e-06 -3.4223892e-06 2.7111885e-06 
-2.2796389e-06 -1.5192302e-06 1.3282346e-06 
-3.5680159e-06 8.0782905e-07 8.0514576e-07 
-2.3230214e-06 2.2099007e-06 -1.1811361e-06 
7.4047871e-06 -7.0632254e-06 -6.5678537e-06 
2.6978643e-05 -1.0638346e-05 -2.3724592e-06 
2.8905970e-05 -1.1912932e-05 3.5734990e-06 