# vtk DataFile Version 4.0
vtk output
ASCII
DATASET UNSTRUCTURED_GRID
POINTS 661 float
0.0000000e+00 0.0000000e+00 0.0000000e+00 
0.0000000e+00 0.0000000e+00 4.0000000e+01 
5.0000000e+00 0.0000000e+00 0.0000000e+00 
5.0000000e+00 0.0000000e+00 4.0000000e+01 
5.0000000e+00 1.0000000e+00 0.0000000e+00 
5.0000000e+00 1.0000000e+00 4.0000000e+01 
0.0000000e+00 1.0000000e+00 0.0000000e+00 
0.0000000e+00 1.0000000e+00 4.0000000e+01 
5.0000000e+00 2.0000000e+00 0.0000000e+00 
5.0000000e+00 2.0000000e+00 4.0000000e+01 
3.0000000e+00 2.0000000e+00 0.0000000e+00 
3.0000000e+00 2.0000000e+00 4.0000000e+01 
0.0000000e+00 2.0000000e+00 0.0000000e+00 
0.0000000e+00 2.0000000e+00 4.0000000e+01 
1.5000000e+00 3.0000000e+00 0.0000000e+00 
1.5000000e+00 3.0000000e+00 4.0000000e+01 
7.5000000e-01 3.0000000e+00 0.0000000e+00 
7.5000000e-01 3.0000000e+00 4.0000000e+01 
0.0000000e+00 3.0000000e+00 0.0000000e+00 
0.0000000e+00 3.0000000e+00 4.0000000e+01 
7.5000000e-01 3.0000000e+00 5.0000000e-01 
7.5000000e-01 3.0000000e+00 1.0000000e+00 
7.5000000e-01 3.0000000e+00 1.5000000e+00 
7.5000000e-01 3.0000000e+00 2.0000000e+00 
7.5000000e-01 3.0000000e+00 2.5000000e+00 
7.5000000e-01 3.0000000e+00 3.0000000e+00 
7.5000000e-01 3.0000000e+00 3.5000000e+00 
7.5000000e-01 3.0000000e+00 4.0000000e+00 
7.5000000e-01 3.0000000e+00 4.5000000e+00 
7.5000000e-01 3.0000000e+00 5.0000000e+00 
7.5000000e-01 3.0000000e+00 5.5000000e+00 
7.5000000e-01 3.0000000e+00 6.0000000e+00 
7.5000000e-01 3.0000000e+00 6.5000000e+00 
7.5000000e-01 3.0000000e+00 7.0000000e+00 
7.5000000e-01 3.0000000e+00 7.5000000e+00 
7.5000000e-01 3.0000000e+00 8.0000000e+00 
7.5000000e-01 3.0000000e+00 8.5000000e+00 
7.5000000e-01 3.0000000e+00 9.0000000e+00 
7.5000000e-01 3.0000000e+00 9.5000000e+00 
7.5000000e-01 3.0000000e+00 1.0000000e+01 
7.5000000e-01 3.0000000e+00 1.0500000e+01 
7.5000000e-01 3.0000000e+00 1.1000000e+01 
7.5000000e-01 3.0000000e+00 1.1500000e+01 
7.5000000e-01 3.0000000e+00 1.2000000e+01 
7.5000000e-01 3.0000000e+00 1.2500000e+01 
7.5000000e-01 3.0000000e+00 1.3000000e+01 
7.5000000e-01 3.0000000e+00 1.3500000e+01 
7.5000000e-01 3.0000000e+00 1.4000000e+01 
7.5000000e-01 3.0000000e+00 1.4500000e+01 
7.5000000e-01 3.0000000e+00 1.5000000e+01 
7.5000000e-01 3.0000000e+00 1.5500000e+01 
7.5000000e-01 3.0000000e+00 1.6000000e+01 
7.5000000e-01 3.0000000e+00 1.6500000e+01 
7.5000000e-01 3.0000000e+00 1.7000000e+01 
7.5000000e-01 3.0000000e+00 1.7500000e+01 
7.5000000e-01 3.0000000e+00 1.8000000e+01 
7.5000000e-01 3.0000000e+00 1.8500000e+01 
7.5000000e-01 3.0000000e+00 1.9000000e+01 
7.5000000e-01 3.0000000e+00 1.9500000e+01 
7.5000000e-01 3.0000000e+00 2.0000000e+01 
7.5000000e-01 3.0000000e+00 2.0500000e+01 
7.5000000e-01 3.0000000e+00 2.1000000e+01 
7.5000000e-01 3.0000000e+00 2.1500000e+01 
7.5000000e-01 3.0000000e+00 2.2000000e+01 
7.5000000e-01 3.0000000e+00 2.2500000e+01 
7.5000000e-01 3.0000000e+00 2.3000000e+01 
7.5000000e-01 3.0000000e+00 2.3500000e+01 
7.5000000e-01 3.0000000e+00 2.4000000e+01 
7.5000000e-01 3.0000000e+00 2.4500000e+01 
7.5000000e-01 3.0000000e+00 2.5000000e+01 
7.5000000e-01 3.0000000e+00 2.5500000e+01 
7.5000000e-01 3.0000000e+00 2.6000000e+01 
7.5000000e-01 3.0000000e+00 2.6500000e+01 
7.5000000e-01 3.0000000e+00 2.7000000e+01 
7.5000000e-01 3.0000000e+00 2.7500000e+01 
7.5000000e-01 3.0000000e+00 2.8000000e+01 
7.5000000e-01 3.0000000e+00 2.8500000e+01 
7.5000000e-01 3.0000000e+00 2.9000000e+01 
7.5000000e-01 3.0000000e+00 2.9500000e+01 
7.5000000e-01 3.0000000e+00 3.0000000e+01 
7.5000000e-01 3.0000000e+00 3.0500000e+01 
7.5000000e-01 3.0000000e+00 3.1000000e+01 
7.5000000e-01 3.0000000e+00 3.1500000e+01 
7.5000000e-01 3.0000000e+00 3.2000000e+01 
7.5000000e-01 3.0000000e+00 3.2500000e+01 
7.5000000e-01 3.0000000e+00 3.3000000e+01 
7.5000000e-01 3.0000000e+00 3.3500000e+01 
7.5000000e-01 3.0000000e+00 3.4000000e+01 
7.5000000e-01 3.0000000e+00 3.4500000e+01 
7.5000000e-01 3.0000000e+00 3.5000000e+01 
7.5000000e-01 3.0000000e+00 3.5500000e+01 
7.5000000e-01 3.0000000e+00 3.6000000e+01 
7.5000000e-01 3.0000000e+00 3.6500000e+01 
7.5000000e-01 3.0000000e+00 3.7000000e+01 
7.5000000e-01 3.0000000e+00 3.7500000e+01 
7.5000000e-01 3.0000000e+00 3.8000000e+01 
7.5000000e-01 3.0000000e+00 3.8500000e+01 
7.5000000e-01 3.0000000e+00 3.9000000e+01 
7.5000000e-01 3.0000000e+00 3.9500000e+01 
7.5000000e-01 3.0000000e+00 4.0500000e+01 
7.5000000e-01 3.0000000e+00 4.1000000e+01 
7.5000000e-01 3.0000000e+00 4.1500000e+01 
7.5000000e-01 3.0000000e+00 4.2000000e+01 
7.5000000e-01 3.0000000e+00 4.2500000e+01 
7.5000000e-01 3.0000000e+00 4.3000000e+01 
7.5000000e-01 3.0000000e+00 4.3500000e+01 
7.5000000e-01 3.0000000e+00 4.4000000e+01 
7.5000000e-01 3.0000000e+00 4.4500000e+01 
7.5000000e-01 3.0000000e+00 4.5000000e+01 
7.5000000e-01 3.0000000e+00 4.5500000e+01 
7.5000000e-01 3.0000000e+00 4.6000000e+01 
7.5000000e-01 3.0000000e+00 4.6500000e+01 
7.5000000e-01 3.0000000e+00 4.7000000e+01 
7.5000000e-01 3.0000000e+00 4.7500000e+01 
7.5000000e-01 3.0000000e+00 4.8000000e+01 
7.5000000e-01 3.0000000e+00 4.8500000e+01 
7.5000000e-01 3.0000000e+00 4.9000000e+01 
7.5000000e-01 3.0000000e+00 4.9500000e+01 
7.5000000e-01 3.0000000e+00 5.0000000e+01 
7.5000000e-01 3.0250001e+00 0.0000000e+00 
7.5000000e-01 3.0250001e+00 5.0000000e-01 
7.5000000e-01 3.0250001e+00 1.0000000e+00 
7.5000000e-01 3.0250001e+00 1.5000000e+00 
7.5000000e-01 3.0250001e+00 2.0000000e+00 
7.5000000e-01 3.0250001e+00 2.5000000e+00 
7.5000000e-01 3.0250001e+00 3.0000000e+00 
7.5000000e-01 3.0250001e+00 3.5000000e+00 
7.5000000e-01 3.0250001e+00 4.0000000e+00 
7.5000000e-01 3.0250001e+00 4.5000000e+00 
7.5000000e-01 3.0250001e+00 5.0000000e+00 
7.5000000e-01 3.0250001e+00 5.5000000e+00 
7.5000000e-01 3.0250001e+00 6.0000000e+00 
7.5000000e-01 3.0250001e+00 6.5000000e+00 
7.5000000e-01 3.0250001e+00 7.0000000e+00 
7.5000000e-01 3.0250001e+00 7.5000000e+00 
7.5000000e-01 3.0250001e+00 8.0000000e+00 
7.5000000e-01 3.0250001e+00 8.5000000e+00 
7.5000000e-01 3.0250001e+00 9.0000000e+00 
7.5000000e-01 3.0250001e+00 9.5000000e+00 
7.5000000e-01 3.0250001e+00 1.0000000e+01 
7.5000000e-01 3.0250001e+00 1.0500000e+01 
7.5000000e-01 3.0250001e+00 1.1000000e+01 
7.5000000e-01 3.0250001e+00 1.1500000e+01 
7.5000000e-01 3.0250001e+00 1.2000000e+01 
7.5000000e-01 3.0250001e+00 1.2500000e+01 
7.5000000e-01 3.0250001e+00 1.3000000e+01 
7.5000000e-01 3.0250001e+00 1.3500000e+01 
7.5000000e-01 3.0250001e+00 1.4000000e+01 
7.5000000e-01 3.0250001e+00 1.4500000e+01 
7.5000000e-01 3.0250001e+00 1.5000000e+01 
7.5000000e-01 3.0250001e+00 1.5500000e+01 
7.5000000e-01 3.0250001e+00 1.6000000e+01 
7.5000000e-01 3.0250001e+00 1.6500000e+01 
7.5000000e-01 3.0250001e+00 1.7000000e+01 
7.5000000e-01 3.0250001e+00 1.7500000e+01 
7.5000000e-01 3.0250001e+00 1.8000000e+01 
7.5000000e-01 3.0250001e+00 1.8500000e+01 
7.5000000e-01 3.0250001e+00 1.9000000e+01 
7.5000000e-01 3.0250001e+00 1.9500000e+01 
7.5000000e-01 3.0250001e+00 2.0000000e+01 
7.5000000e-01 3.0250001e+00 2.0500000e+01 
7.5000000e-01 3.0250001e+00 2.1000000e+01 
7.5000000e-01 3.0250001e+00 2.1500000e+01 
7.5000000e-01 3.0250001e+00 2.2000000e+01 
7.5000000e-01 3.0250001e+00 2.2500000e+01 
7.5000000e-01 3.0250001e+00 2.3000000e+01 
7.5000000e-01 3.0250001e+00 2.3500000e+01 
7.5000000e-01 3.0250001e+00 2.4000000e+01 
7.5000000e-01 3.0250001e+00 2.4500000e+01 
7.5000000e-01 3.0250001e+00 2.5000000e+01 
7.5000000e-01 3.0250001e+00 2.5500000e+01 
7.5000000e-01 3.0250001e+00 2.6000000e+01 
7.5000000e-01 3.0250001e+00 2.6500000e+01 
7.5000000e-01 3.0250001e+00 2.7000000e+01 
7.5000000e-01 3.0250001e+00 2.7500000e+01 
7.5000000e-01 3.0250001e+00 2.8000000e+01 
7.5000000e-01 3.0250001e+00 2.8500000e+01 
7.5000000e-01 3.0250001e+00 2.9000000e+01 
7.5000000e-01 3.0250001e+00 2.9500000e+01 
7.5000000e-01 3.0250001e+00 3.0000000e+01 
7.5000000e-01 3.0250001e+00 3.0500000e+01 
7.5000000e-01 3.0250001e+00 3.1000000e+01 
7.5000000e-01 3.0250001e+00 3.1500000e+01 
7.5000000e-01 3.0250001e+00 3.2000000e+01 
7.5000000e-01 3.0250001e+00 3.2500000e+01 
7.5000000e-01 3.0250001e+00 3.3000000e+01 
7.5000000e-01 3.0250001e+00 3.3500000e+01 
7.5000000e-01 3.0250001e+00 3.4000000e+01 
7.5000000e-01 3.0250001e+00 3.4500000e+01 
7.5000000e-01 3.0250001e+00 3.5000000e+01 
7.5000000e-01 3.0250001e+00 3.5500000e+01 
7.5000000e-01 3.0250001e+00 3.6000000e+01 
7.5000000e-01 3.0250001e+00 3.6500000e+01 
7.5000000e-01 3.0250001e+00 3.7000000e+01 
7.5000000e-01 3.0250001e+00 3.7500000e+01 
7.5000000e-01 3.0250001e+00 3.8000000e+01 
7.5000000e-01 3.0250001e+00 3.8500000e+01 
7.5000000e-01 3.0250001e+00 3.9000000e+01 
7.5000000e-01 3.0250001e+00 3.9500000e+01 
7.5000000e-01 3.0250001e+00 4.0000000e+01 
7.5000000e-01 3.0250001e+00 4.0500000e+01 
7.5000000e-01 3.0250001e+00 4.1000000e+01 
7.5000000e-01 3.0250001e+00 4.1500000e+01 
7.5000000e-01 3.0250001e+00 4.2000000e+01 
7.5000000e-01 3.0250001e+00 4.2500000e+01 
7.5000000e-01 3.0250001e+00 4.3000000e+01 
7.5000000e-01 3.0250001e+00 4.3500000e+01 
7.5000000e-01 3.0250001e+00 4.4000000e+01 
7.5000000e-01 3.0250001e+00 4.4500000e+01 
7.5000000e-01 3.0250001e+00 4.5000000e+01 
7.5000000e-01 3.0250001e+00 4.5500000e+01 
7.5000000e-01 3.0250001e+00 4.6000000e+01 
7.5000000e-01 3.0250001e+00 4.6500000e+01 
7.5000000e-01 3.0250001e+00 4.7000000e+01 
7.5000000e-01 3.0250001e+00 4.7500000e+01 
7.5000000e-01 3.0250001e+00 4.8000000e+01 
7.5000000e-01 3.0250001e+00 4.8500000e+01 
7.5000000e-01 3.0250001e+00 4.9000000e+01 
7.5000000e-01 3.0250001e+00 4.9500000e+01 
7.5000000e-01 3.0250001e+00 5.0000000e+01 
3.0000000e+00 2.0000000e+00 3.6000000e+01 
8.0487806e-01 3.0000000e+00 3.6000000e+01 
0.0000000e+00 0.0000000e+00 2.0000000e+00 
0.0000000e+00 0.0000000e+00 4.0000000e+00 
0.0000000e+00 0.0000000e+00 6.0000000e+00 
0.0000000e+00 0.0000000e+00 8.0000000e+00 
0.0000000e+00 0.0000000e+00 1.0000000e+01 
0.0000000e+00 0.0000000e+00 1.2000000e+01 
0.0000000e+00 0.0000000e+00 1.4000000e+01 
0.0000000e+00 0.0000000e+00 1.6000000e+01 
[...]
POINT_DATA 661
FIELD FieldData 3
DISPLACEMENT 3 661  float
0.0000000e+00 0.0000000e+00 0.0000000e+00 
0.0000000e+00 0.0000000e+00 0.0000000e+00 
0.0000000e+00 0.0000000e+00 0.0000000e+00 
0.0000000e+00 0.0000000e+00 0.0000000e+00 
-1.5460596e-06 -2.3645680e-06 -3.1845570e-07 
3.7293944e-07 8.7106832e-07 1.2879564e-06 
0.0000000e+00 2.2384198e-05 0.0000000e+00 
0.0000000e+00 -1.1364103e-05 0.0000000e+00 
-5.9352583e-06 -2.4759738e-06 -6.5528872e-07 
-2.7542785e-06 2.3261948e-06 -1.3571207e-06 
-1.6273999e-06 -1.0370895e-05 -1.2954483e-05 
-1.4180540e-06 -3.6168758e-06 -5.1855395e-06 
0.0000000e+00 3.9961084e-05 0.0000000e+00 
0.0000000e+00 -2.0299280e-05 0.0000000e+00 
1.1585372e-05 2.6749751e-05 -6.0824103e-05 
-9.9716945e-06 -1.6404016e-05 -3.2737742e-05 
6.5644749e-06 8.7911823e-05 -1.9007894e-05 
1.8374425e-06 -3.3384189e-05 -3.8291968e-05 
0.0000000e+00 5.7581110e-05 0.0000000e+00 
0.0000000e+00 -2.8149574e-05 0.0000000e+00 
2.9820298e-05 9.2068243e-05 -4.8464855e-05 
3.9724258e-05 1.0419455e-04 -4.0097781e-05 
4.6108566e-05 1.2144307e-04 -3.5726283e-05 
5.0046994e-05 1.4364210e-04 -2.2803719e-05 
5.2419677e-05 1.6970400e-04 2.0754791e-07 
4.8200225e-05 1.9439477e-04 1.5525973e-05 
3.4643042e-05 2.0511789e-04 3.7894850e-05 
2.3890221e-05 1.7068602e-04 6.0089602e-05 
-8.4572048e-06 4.7310659e-05 9.8835873e-05 
-1.9581779e-05 -2.0698996e-04 1.3727201e-04 
-5.5958735e-05 -6.5439433e-04 1.8872302e-04 
-1.1577270e-04 -1.3364904e-03 1.3212580e-04 
-2.5806564e-04 -2.2703181e-03 2.0811317e-04 
-2.6234007e-04 -3.2824671e-03 1.8574073e-04 
-1.4814551e-04 -4.0759793e-03 1.1020678e-04 
-1.1584229e-04 -4.1131373e-03 9.9732730e-05 
-2.6069867e-04 -3.9500603e-03 2.2878025e-05 
-3.3366724e-04 -3.9436026e-03 -7.9718848e-06 
-2.1440642e-04 -4.1955318e-03 -5.9843056e-05 
-5.0723444e-05 -4.2012213e-03 -1.1335414e-04 
-7.6507393e-05 -3.4714567e-03 -1.9021453e-04 
-1.7094679e-04 -2.3998970e-03 -1.9419364e-04 
-1.7979309e-04 -1.4660305e-03 -1.6323788e-04 
-6.6836365e-05 -7.5936777e-04 -8.1405000e-05 
-3.0921979e-05 -3.1954204e-04 -1.0541657e-04 
-1.7405100e-05 -8.0061865e-05 -6.4709493e-05 
-2.2156406e-05 2.2910181e-05 -3.7317062e-05 
-1.8965409e-05 4.3474640e-05 -1.7890623e-05 
-1.4872960e-05 1.8780929e-05 -5.9475724e-06 
-9.5108035e-06 -2.3341845e-05 -3.2166583e-06 
-7.1223872e-06 -6.3473293e-05 -9.6629328e-06 
-1.3356489e-05 -9.4428869e-05 -1.4670894e-05 
-1.5253459e-05 -1.1218955e-04 1.8915575e-06 
-1.6776097e-05 -1.1985770e-04 1.9877021e-05 
-3.3509972e-05 -1.2183100e-04 5.1880448e-05 
-5.0772553e-05 -1.1984709e-04 7.7923352e-05 
-5.0126240e-05 -1.1444989e-04 5.8453712e-05 
-5.3171709e-05 -1.0592550e-04 2.7578195e-05 
-3.8380356e-05 -9.3120754e-05 -1.4983922e-05 
-1.5721347e-05 -7.4349024e-05 -6.0003465e-05 
2.5956260e-06 -4.5991626e-05 -7.4167576e-05 
1.6702894e-05 -9.7684724e-06 -7.5388052e-05 
3.1454012e-05 3.3720389e-05 -7.8718302e-05 
4.1237523e-05 8.0897109e-05 -6.7842841e-05 
5.0318598e-05 1.2682810e-04 -4.5530545e-05 
5.3478438e-05 1.6401177e-04 -1.9125771e-05 
4.1842992e-05 1.7923763e-04 9.0827643e-06 
2.9522027e-05 1.4347030e-04 3.6084391e-05 
-1.2980172e-05 1.2202981e-05 6.7233232e-05 
-2.1919977e-05 -2.5862103e-04 9.7898970e-05 
-3.7071200e-05 -7.3375209e-04 1.3415572e-04 
-8.3956969e-05 -1.4484004e-03 6.6343397e-05 
-2.2666591e-04 -2.4058155e-03 1.6466728e-04 
-2.2983902e-04 -3.3895506e-03 1.6333292e-04 
-1.3102753e-04 -4.0384587e-03 1.3137788e-04 
-9.8238364e-05 -3.9552329e-03 1.7934370e-04 
-2.4369202e-04 -3.7989961e-03 1.2451984e-04 
-3.1090601e-04 -3.8471485e-03 1.0824459e-04 
-2.0514693e-04 -4.1295909e-03 7.2228293e-05 
-7.0936963e-05 -4.0572570e-03 4.3006879e-05 
-1.1703298e-04 -3.2854662e-03 -9.4651878e-05 
-2.2127847e-04 -2.2809028e-03 -1.5267570e-04 
-2.1565861e-04 -1.4293408e-03 -1.7856377e-04 
-1.0040322e-04 -7.8631210e-04 -1.5618873e-04 
-5.6217741e-05 -3.7109296e-04 -2.0091969e-04 
-3.3242202e-05 -1.2412589e-04 -1.7599712e-04 
-2.1027305e-05 1.0367292e-05 -1.6540868e-04 
5.5902382e-07 7.6381257e-05 -1.4462729e-04 
2.3036315e-05 1.0109581e-04 -9.7409153e-05 
4.0961993e-05 1.0439587e-04 -4.8694510e-05 
3.4513872e-05 9.6572454e-05 -1.1541217e-05 
2.5168658e-05 8.1400132e-05 2.5340745e-05 
1.9906951e-05 6.0318969e-05 4.7671194e-05 
1.4040905e-05 3.6304085e-05 5.9391710e-05 
3.1600794e-06 1.2200780e-05 7.0479713e-05 
-7.1089221e-06 -8.3380992e-06 6.5583044e-05 
-1.0626101e-05 -2.3218270e-05 4.7848287e-05 
-1.4435986e-05 -3.2074433e-05 2.3402834e-05 
-1.0701397e-05 -3.5343495e-05 -1.3527147e-06 
0.0000000e+00 -2.7151676e-05 0.0000000e+00 
0.0000000e+00 -1.6389587e-05 0.0000000e+00 
0.0000000e+00 -2.3941702e-06 0.0000000e+00 
0.0000000e+00 1.2458248e-05 0.0000000e+00 
0.0000000e+00 2.5201862e-05 0.0000000e+00 
0.0000000e+00 3.3122229e-05 0.0000000e+00 
0.0000000e+00 3.4508583e-05 0.0000000e+00 
0.0000000e+00 2.9065593e-05 0.0000000e+00 
0.0000000e+00 1.7888051e-05 0.0000000e+00 
0.0000000e+00 3.0971119e-06 0.0000000e+00 
0.0000000e+00 -1.2633640e-05 0.0000000e+00 
0.0000000e+00 -2.6466150e-05 0.0000000e+00 
0.0000000e+00 -3.5685931e-05 0.0000000e+00 
0.0000000e+00 -3.8050533e-05 0.0000000e+00 
0.0000000e+00 -3.2340144e-05 0.0000000e+00 
0.0000000e+00 -1.9015391e-05 0.0000000e+00 
0.0000000e+00 -6.2281060e-07 0.0000000e+00 
0.0000000e+00 1.8452356e-05 0.0000000e+00 
0.0000000e+00 3.3014043e-05 0.0000000e+00 
0.0000000e+00 3.8558828e-05 0.0000000e+00 
0.0000000e+00 8.7967659e-05 0.0000000e+00 
0.0000000e+00 9.2213522e-05 0.0000000e+00 
0.0000000e+00 1.0407848e-04 0.0000000e+00 
0.0000000e+00 1.2147250e-04 0.0000000e+00 
0.0000000e+00 1.4382866e-04 0.0000000e+00 
0.0000000e+00 1.7010407e-04 0.0000000e+00 
0.0000000e+00 1.9543948e-04 0.0000000e+00 
0.0000000e+00 2.0581625e-04 0.0000000e+00 
0.0000000e+00 1.7072629e-04 0.0000000e+00 
0.0000000e+00 4.8436643e-05 0.0000000e+00 
0.0000000e+00 -2.0769805e-04 0.0000000e+00 
0.0000000e+00 -6.5591995e-04 0.0000000e+00 
0.0000000e+00 -1.3456428e-03 0.0000000e+00 
0.0000000e+00 -2.2778087e-03 0.0000000e+00 
0.0000000e+00 -3.3140467e-03 0.0000000e+00 
0.0000000e+00 -4.0997863e-03 0.0000000e+00 
0.0000000e+00 -4.1434322e-03 0.0000000e+00 
0.0000000e+00 -3.9638234e-03 0.0000000e+00 
0.0000000e+00 -3.9741760e-03 0.0000000e+00 
0.0000000e+00 -4.2155287e-03 0.0000000e+00 
0.0000000e+00 -4.2358441e-03 0.0000000e+00 
0.0000000e+00 -3.4897432e-03 0.0000000e+00 
0.0000000e+00 -2.4188131e-03 0.0000000e+00 
0.0000000e+00 -1.4683531e-03 0.0000000e+00 
0.0000000e+00 -7.6389575e-04 0.0000000e+00 
0.0000000e+00 -3.1934388e-04 0.0000000e+00 
0.0000000e+00 -7.9181118e-05 0.0000000e+00 
0.0000000e+00 2.3876810e-05 0.0000000e+00 
0.0000000e+00 4.3950899e-05 0.0000000e+00 
0.0000000e+00 1.9202858e-05 0.0000000e+00 
0.0000000e+00 -2.2741478e-05 0.0000000e+00 
0.0000000e+00 -6.3311782e-05 0.0000000e+00 
0.0000000e+00 -9.4090043e-05 0.0000000e+00 
0.0000000e+00 -1.1213911e-04 0.0000000e+00 
0.0000000e+00 -1.2003324e-04 0.0000000e+00 
0.0000000e+00 -1.2193493e-04 0.0000000e+00 
0.0000000e+00 -1.1989762e-04 0.0000000e+00 
0.0000000e+00 -1.1454755e-04 0.0000000e+00 
0.0000000e+00 -1.0595876e-04 0.0000000e+00 
0.0000000e+00 -9.3195500e-05 0.0000000e+00 
0.0000000e+00 -7.4057025e-05 0.0000000e+00 
0.0000000e+00 -4.6033580e-05 0.0000000e+00 
0.0000000e+00 -9.6353733e-06 0.0000000e+00 
0.0000000e+00 3.3780801e-05 0.0000000e+00 
0.0000000e+00 8.0969709e-05 0.0000000e+00 
0.0000000e+00 1.2713368e-04 0.0000000e+00 
0.0000000e+00 1.6490345e-04 0.0000000e+00 
0.0000000e+00 1.8007541e-04 0.0000000e+00 
0.0000000e+00 1.4363129e-04 0.0000000e+00 
0.0000000e+00 1.3358923e-05 0.0000000e+00 
0.0000000e+00 -2.5978012e-04 0.0000000e+00 
0.0000000e+00 -7.3571503e-04 0.0000000e+00 
0.0000000e+00 -1.4590315e-03 0.0000000e+00 
0.0000000e+00 -2.4147648e-03 0.0000000e+00 
0.0000000e+00 -3.4243122e-03 0.0000000e+00 
0.0000000e+00 -4.0622023e-03 0.0000000e+00 
0.0000000e+00 -3.9848820e-03 0.0000000e+00 
0.0000000e+00 -3.8123503e-03 0.0000000e+00 
0.0000000e+00 -3.8786887e-03 0.0000000e+00 
0.0000000e+00 -4.1507324e-03 0.0000000e+00 
0.0000000e+00 -4.0906356e-03 0.0000000e+00 
0.0000000e+00 -3.3015709e-03 0.0000000e+00 
0.0000000e+00 -2.2967507e-03 0.0000000e+00 
0.0000000e+00 -1.4309888e-03 0.0000000e+00 
0.0000000e+00 -7.8961538e-04 0.0000000e+00 
0.0000000e+00 -3.7087069e-04 0.0000000e+00 
0.0000000e+00 -1.2324390e-04 0.0000000e+00 
0.0000000e+00 1.1302657e-05 0.0000000e+00 
0.0000000e+00 7.6783457e-05 0.0000000e+00 
0.0000000e+00 1.0159299e-04 0.0000000e+00 
0.0000000e+00 1.0473838e-04 0.0000000e+00 
0.0000000e+00 9.6673459e-05 0.0000000e+00 
0.0000000e+00 8.1308150e-05 0.0000000e+00 
0.0000000e+00 6.0321803e-05 0.0000000e+00 
0.0000000e+00 3.6287791e-05 0.0000000e+00 
0.0000000e+00 1.2302294e-05 0.0000000e+00 
0.0000000e+00 -8.2435890e-06 0.0000000e+00 
0.0000000e+00 -2.3191484e-05 0.0000000e+00 
0.0000000e+00 -3.2091284e-05 0.0000000e+00 
0.0000000e+00 -3.5340054e-05 0.0000000e+00 
0.0000000e+00 -3.3471166e-05 0.0000000e+00 
0.0000000e+00 -2.7087066e-05 0.0000000e+00 
0.0000000e+00 -1.6330390e-05 0.0000000e+00 
0.0000000e+00 -2.3622931e-06 0.0000000e+00 
0.0000000e+00 1.2449063e-05 0.0000000e+00 
0.0000000e+00 2.5153986e-05 0.0000000e+00 
0.0000000e+00 3.3053697e-05 0.0000000e+00 
0.0000000e+00 3.4444118e-05 0.0000000e+00 
0.0000000e+00 2.9023538e-05 0.0000000e+00 
0.0000000e+00 1.7871693e-05 0.0000000e+00 
0.0000000e+00 3.0972376e-06 0.0000000e+00 
0.0000000e+00 -1.2626461e-05 0.0000000e+00 
0.0000000e+00 -2.6450170e-05 0.0000000e+00 
0.0000000e+00 -3.5648722e-05 0.0000000e+00 
0.0000000e+00 -3.7982303e-05 0.0000000e+00 
0.0000000e+00 -3.2248987e-05 0.0000000e+00 
0.0000000e+00 -1.8930761e-05 0.0000000e+00 
0.0000000e+00 -5.8251527e-07 0.0000000e+00 
0.0000000e+00 1.8423809e-05 0.0000000e+00 
0.0000000e+00 3.2922046e-05 0.0000000e+00 
0.0000000e+00 3.8440470e-05 0.0000000e+00 
3.4105324e-06 2.6470099e-05 2.4412982e-06 
2.6058320e-05 8.2724102e-05 2.5317680e-05 
0.0000000e+00 0.0000000e+00 0.0000000e+00 
0.0000000e+00 0.0000000e+00 0.0000000e+00 
0.0000000e+00 0.0000000e+00 0.0000000e+00 
0.0000000e+00 0.0000000e+00 0.0000000e+00 
0.0000000e+00 0.0000000e+00 0.0000000e+00 
0.0000000e+00 0.0000000e+00 0.0000000e+00 
0.0000000e+00 0.0000000e+00 0.0000000e+00 
0.0000000e+00 0.0000000e+00 0.0000000e+00 
0.0000000e+00 0.0000000e+00 0.0000000e+00 
0.0000000e+00 0.0000000e+00 0.0000000e+00 
0.0000000e+00 0.0000000e+00 0.0000000e+00 
0.0000000e+00 0.0000000e+00 0.0000000e+00 
0.0000000e+00 0.0000000e+00 0.0000000e+00 
0.0000000e+00 0.0000000e+00 0.0000000e+00 
0.0000000e+00 0.0000000e+00 0.0000000e+00 
0.0000000e+00 0.0000000e+00 0.0000000e+00 
0.0000000e+00 0.0000000e+00 0.0000000e+00 
0.0000000e+00 0.0000000e+00 0.0000000e+00 
0.0000000e+00 0.0000000e+00 0.0000000e+00 
0.0000000e+00 0.0000000e+00 0.0000000e+00 
0.0000000e+00 0.0000000e+00 0.0000000e+00 
0.0000000e+00 0.0000000e+00 0.0000000e+00 
0.0000000e+00 0.0000000e+00 0.0000000e+00 
0.0000000e+00 0.0000000e+00 0.0000000e+00 
0.0000000e+00 0.0000000e+00 0.0000000e+00 
0.0000000e+00 0.0000000e+00 0.0000000e+00 
0.0000000e+00 0.0000000e+00 0.0000000e+00 
0.0000000e+00 0.0000000e+00 0.0000000e+00 
0.0000000e+00 0.0000000e+00 0.0000000e+00 
0.0000000e+00 0.0000000e+00 0.0000000e+00 
0.0000000e+00 0.0000000e+00 0.0000000e+00 
0.0000000e+00 0.0000000e+00 0.0000000e+00 
0.0000000e+00 0.0000000e+00 0.0000000e+00 
0.0000000e+00 0.0000000e+00 0.0000000e+00 
0.0000000e+00 0.0000000e+00 0.0000000e+00 
0.0000000e+00 0.0000000e+00 0.0000000e+00 
0.0000000e+00 0.0000000e+00 0.0000000e+00 
0.0000000e+00 0.0000000e+00 0.0000000e+00 
0.0000000e+00 0.0000000e+00 0.0000000e+00 
0.0000000e+00 0.0000000e+00 0.0000000e+00 
0.0000000e+00 0.0000000e+00 0.0000000e+00 
0.0000000e+00 0.0000000e+00 0.0000000e+00 
-4.4985322e-06 -2.6525704e-06 -4.1362573e-06 
6.8020454e-06 1.1152993e-06 -1.1030398e-05 
3.0814816e-05 -3.6331717e-06 -1.4816692e-05 
4.6302684e-05 -1.4710155e-05 -8.2642691e-06 
4.5180288e-05 -8.4662606e-06 3.5034445e-06 
1.7035714e-05 5.4724546e-07 -1.1164515e-06 
4.4620001e-06 2.1843027e-06 3.9374272e-06 
5.4966113e-06 7.3137551e-07 7.8199737e-06 
2.0074010e-06 -5.1657144e-06 5.0890494e-06 
-3.4861466e-06 -4.6250111e-06 2.0871796e-06 
-5.9459057e-06 3.7134491e-06 -1.4535867e-06 
6.4778392e-06 -2.0109997e-06 -6.7991982e-06 
2.7371363e-05 -5.4438660e-06 -6.8967952e-06 
4.7601159e-05 -8.3763407e-06 -2.5675356e-06 
4.6133115e-05 -1.2245215e-05 3.5881060e-06 
2.0849553e-05 -5.6097620e-06 3.7229256e-06 
1.3230571e-06 5.9560057e-06 8.4370395e-06 
-2.6935234e-06 2.9209946e-06 4.5361385e-06 
1.9095889e-06 -4.4369604e-06 2.5499371e-06 
0.0000000e+00 4.9666065e-05 0.0000000e+00 
0.0000000e+00 4.2277137e-05 0.0000000e+00 
0.0000000e+00 -1.9016529e-04 0.0000000e+00 
0.0000000e+00 -5.4467196e-04 0.0000000e+00 
0.0000000e+00 -4.8969226e-04 0.0000000e+00 
0.0000000e+00 -1.3796247e-04 0.0000000e+00 
0.0000000e+00 -1.9713667e-05 0.0000000e+00 
0.0000000e+00 -3.8631206e-05 0.0000000e+00 
0.0000000e+00 -4.1653828e-05 0.0000000e+00 
0.0000000e+00 -3.7883259e-05 0.0000000e+00 
0.0000000e+00 2.9126526e-05 0.0000000e+00 
0.0000000e+00 3.2114891e-05 0.0000000e+00 
0.0000000e+00 -1.8471990e-04 0.0000000e+00 
0.0000000e+00 -4.8858923e-04 0.0000000e+00 
0.0000000e+00 -4.9076724e-04 0.0000000e+00 
0.0000000e+00 -1.7970092e-04 0.0000000e+00 
0.0000000e+00 6.8894910e-06 0.0000000e+00 
0.0000000e+00 3.6337064e-05 0.0000000e+00 
0.0000000e+00 -8.8653287e-06 0.0000000e+00 
-4.1912399e-06 -6.6531047e-06 -1.4356378e-06 
-7.8016483e-06 4.7457715e-06 2.3467778e-06 
4.3646128e-07 -1.4479724e-06 -2.1803078e-06 
1.2252550e-06 -8.2618571e-06 2.0893049e-06 
2.2641818e-06 -2.3697589e-06 -8.7306225e-06 
1.9788444e-05 7.8295028e-07 -1.7529370e-05 
3.8078972e-05 5.5666271e-07 -5.8588112e-06 
4.7641926e-05 -2.4024521e-06 -5.6438444e-06 
3.2429867e-05 -8.2427841e-06 -1.6472529e-06 
1.1940861e-05 2.7347871e-06 -9.6579688e-06 
2.1863743e-06 3.3905308e-06 5.4596676e-06 
4.4457192e-06 -9.2449551e-07 1.2292438e-05 
-2.7023732e-06 -7.2064731e-06 9.0010763e-06 
-1.0824889e-05 -4.6572291e-06 -1.9494892e-06 
-4.0862888e-06 4.8085963e-06 -8.6788777e-06 
2.2241893e-05 -2.7328672e-06 -8.4819085e-06 
3.0060779e-05 -3.0117205e-06 -4.4066331e-07 
3.9599181e-05 -7.8720450e-06 4.6642881e-06 
2.6338488e-05 -9.9783520e-06 5.1121037e-06 
4.9074197e-06 -1.6923925e-06 -7.3853216e-06 
3.0912602e-06 6.3812195e-06 2.3879729e-06 
2.1012249e-06 9.5024535e-07 6.6998887e-06 
3.5473356e-06 -3.8471135e-06 4.8032762e-06 
3.0049819e-07 1.8629609e-05 -1.3030728e-05 
0.0000000e+00 9.4727104e-05 0.0000000e+00 
0.0000000e+00 8.6475775e-05 0.0000000e+00 
0.0000000e+00 -4.0277396e-04 0.0000000e+00 
0.0000000e+00 -1.2048281e-03 0.0000000e+00 
0.0000000e+00 -1.1082655e-03 0.0000000e+00 
0.0000000e+00 -2.5602872e-04 0.0000000e+00 
0.0000000e+00 -1.8027933e-05 0.0000000e+00 
0.0000000e+00 -7.1361610e-05 0.0000000e+00 
0.0000000e+00 -7.1860872e-05 0.0000000e+00 
0.0000000e+00 -6.4941894e-05 0.0000000e+00 
0.0000000e+00 5.4396103e-05 0.0000000e+00 
0.0000000e+00 6.7774599e-05 0.0000000e+00 
0.0000000e+00 -4.1329683e-04 0.0000000e+00 
0.0000000e+00 -1.1095396e-03 0.0000000e+00 
0.0000000e+00 -1.0929962e-03 0.0000000e+00 
0.0000000e+00 -3.2674384e-04 0.0000000e+00 
0.0000000e+00 1.9200332e-05 0.0000000e+00 
0.0000000e+00 6.0436108e-05 0.0000000e+00 
0.0000000e+00 -1.3662038e-05 0.0000000e+00 
-3.1434267e-06 -1.2943501e-05 2.5116001e-06 
7.2053474e-05 8.8915272e-05 -1.8510518e-05 
5.6263059e-05 1.4132707e-04 7.9779231e-05 
-2.6367608e-04 -3.9283198e-04 3.4869849e-04 
-6.6642032e-04 -1.3549464e-03 1.0542022e-04 
-5.9054431e-04 -1.4260995e-03 -2.3314533e-04 
-1.5456545e-04 -1.8128322e-04 -2.1376177e-04 
7.6228189e-06 3.6576921e-06 -1.4224844e-05 
-2.6608519e-05 -6.8349851e-05 -2.1840673e-05 
-7.1250368e-05 -8.2898376e-05 9.0068555e-05 
-2.2335331e-05 -5.4996410e-05 -9.3302959e-05 
5.7364250e-05 3.2502521e-05 -9.1701258e-05 
5.6602043e-05 1.4931214e-04 7.0496055e-05 
-2.4819680e-04 -3.9894169e-04 2.6869858e-04 
-6.2938948e-04 -1.2326542e-03 1.7072001e-04 
-5.9874944e-04 -1.3882830e-03 -3.6701585e-05 
-1.7705819e-04 -2.6843991e-04 -2.8740999e-04 
2.2855993e-05 4.0166095e-05 -1.7708189e-04 
3.1828626e-05 6.0571729e-05 3.4193268e-05 
-3.2394478e-06 -8.6952741e-06 7.6379241e-05 
0.0000000e+00 1.2362491e-04 0.0000000e+00 
0.0000000e+00 1.6029747e-04 0.0000000e+00 
0.0000000e+00 -7.6874736e-04 0.0000000e+00 
0.0000000e+00 -2.3453184e-03 0.0000000e+00 
0.0000000e+00 -2.1575275e-03 0.0000000e+00 
0.0000000e+00 -4.4016112e-04 0.0000000e+00 
0.0000000e+00 2.9148465e-05 0.0000000e+00 
0.0000000e+00 -1.0561509e-04 0.0000000e+00 
0.0000000e+00 -8.5328655e-05 0.0000000e+00 
0.0000000e+00 -7.6410841e-05 0.0000000e+00 
0.0000000e+00 6.4337321e-05 0.0000000e+00 
0.0000000e+00 1.3382410e-04 0.0000000e+00 
0.0000000e+00 -8.3739334e-04 0.0000000e+00 
0.0000000e+00 -2.2422515e-03 0.0000000e+00 
0.0000000e+00 -2.0841430e-03 0.0000000e+00 
0.0000000e+00 -5.0612551e-04 0.0000000e+00 
0.0000000e+00 5.6375913e-05 0.0000000e+00 
0.0000000e+00 7.4821146e-05 0.0000000e+00 
0.0000000e+00 -1.3195225e-05 0.0000000e+00 
1.0101280e-05 2.1756085e-05 -1.0241625e-05 
2.9815143e-05 4.1185380e-05 6.0040161e-06 
5.1467163e-05 -2.6925720e-05 7.4808581e-06 
5.1974537e-05 -1.1615809e-04 -2.4773366e-05 
4.6712441e-05 -8.5499778e-05 -1.3079688e-05 
3.4053468e-05 -3.1461474e-05 -2.2468762e-06 
8.2624010e-06 -3.5339463e-06 -5.1034876e-06 
-7.2551115e-06 -6.7797641e-06 3.5249175e-06 
-1.7624725e-05 -1.7664048e-05 1.2473484e-05 
-8.0755844e-06 -2.2236643e-05 -1.2320920e-05 
2.9263499e-06 1.4724967e-05 -1.5569456e-05 
2.7519045e-05 4.4952052e-05 4.4774852e-06 
6.4327491e-05 -3.3848137e-05 4.4572535e-06 
6.1385450e-05 -7.6450378e-05 9.6995818e-06 
3.4916753e-05 -1.0386615e-04 2.2188871e-05 
2.4430343e-05 -6.9693771e-05 -1.3616335e-05 
2.5117622e-08 1.9750591e-05 -3.7668560e-05 
1.3366750e-06 -4.7961953e-06 1.4627871e-05 
2.0635389e-05 4.9422135e-05 2.0053230e-05 
0.0000000e+00 0.0000000e+00 0.0000000e+00 
0.0000000e+00 0.0000000e+00 0.0000000e+00 
0.0000000e+00 0.0000000e+00 0.0000000e+00 
0.0000000e+00 0.0000000e+00 0.0000000e+00 
0.0000000e+00 0.0000000e+00 0.0000000e+00 
0.0000000e+00 0.0000000e+00 0.0000000e+00 
0.0000000e+00 0.0000000e+00 0.0000000e+00 
0.0000000e+00 0.0000000e+00 0.0000000e+00 
0.0000000e+00 0.0000000e+00 0.0000000e+00 
0.0000000e+00 0.0000000e+00 0.0000000e+00 
0.0000000e+00 0.0000000e+00 0.0000000e+00 
0.0000000e+00 0.0000000e+00 0.0000000e+00 
0.0000000e+00 0.0000000e+00 0.0000000e+00 
0.0000000e+00 0.0000000e+00 0.0000000e+00 
0.0000000e+00 0.0000000e+00 0.0000000e+00 
0.0000000e+00 0.0000000e+00 0.0000000e+00 
0.0000000e+00 0.0000000e+00 0.0000000e+00 
0.0000000e+00 0.0000000e+00 0.0000000e+00 
0.0000000e+00 0.0000000e+00 0.0000000e+00 
0.0000000e+00 0.0000000e+00 0.0000000e+00 
0.0000000e+00 0.0000000e+00 0.0000000e+00 
0.0000000e+00 0.0000000e+00 0.0000000e+00 
0.0000000e+00 0.0000000e+00 0.0000000e+00 
0.0000000e+00 0.0000000e+00 0.0000000e+00 
0.0000000e+00 0.0000000e+00 0.0000000e+00 
0.0000000e+00 0.0000000e+00 0.0000000e+00 
0.0000000e+00 0.0000000e+00 0.0000000e+00 
0.0000000e+00 0.0000000e+00 0.0000000e+00 
0.0000000e+00 0.0000000e+00 0.0000000e+00 
0.0000000e+00 0.0000000e+00 0.0000000e+00 
0.0000000e+00 0.0000000e+00 0.0000000e+00 
0.0000000e+00 0.0000000e+00 0.0000000e+00 
0.0000000e+00 0.0000000e+00 0.0000000e+00 
0.0000000e+00 0.0000000e+00 0.0000000e+00 
0.0000000e+00 0.0000000e+00 0.0000000e+00 
0.0000000e+00 0.0000000e+00 0.0000000e+00 
0.0000000e+00 0.0000000e+00 0.0000000e+00 
0.0000000e+00 0.0000000e+00 0.0000000e+00 
0.0000000e+00 0.0000000e+00 0.0000000e+00 
0.0000000e+00 0.0000000e+00 0.0000000e+00 
0.0000000e+00 0.0000000e+00 0.0000000e+00 
0.0000000e+00 0.0000000e+00 0.0000000e+00 
8.4036801e-06 -3.4911923e-06 -9.0771036e-06 
3.0169026e-06 -5.3515970e-07 8.1989765e-07 
3.5963237e-06 -1.6702061e-06 3.3993838e-06 
-1.3516070e-06 1.5977981e-06 -1.4822691e-06 
5.8661312e-06 -5.6108215e-06 -3.8999165e-06 
2.3175202e-05 -8.2457100e-06 -2.6201026e-06 
2.5058114e-05 -1.1405928e-05 -8.2460400e-07 
2.1667709e-05 -1.1191844e-05 2.6674838e-06 
3.9023089e-06 -6.2977711e-07 5.0608901e-06 