# vtk DataFile Version 4.0
vtk output
ASCII
DATASET UNSTRUCTURED_GRID
POINTS 661 float
0.0000000e+00 0.0000000e+00 0.0000000e+00 
0.0000000e+00 0.0000000e+00 4.0000000e+01 
5.0000000e+00 0.0000000e+00 0.0000000e+00 
5.0000000e+00 0.0000000e+00 4.0000000e+01 
5.0000000e+00 1.0000000e+00 0.0000000e+00 
5.0000000e+00 1.0000000e+00 4.0000000e+01 
0.0000000e+00 1.0000000e+00 0.0000000e+00 
0.0000000e+00 1.0000000e+00 4.0000000e+01 
5.0000000e+00 2.0000000e+00 0.0000000e+00 
5.0000000e+00 2.0000000e+00 4.0000000e+01 
3.0000000e+00 2.0000000e+00 0.0000000e+00 
3.0000000e+00 2.0000000e+00 4.0000000e+01 
0.0000000e+00 2.0000000e+00 0.0000000e+00 
0.0000000e+00 2.0000000e+00 4.0000000e+01 
1.5000000e+00 3.0000000e+00 0.0000000e+00 
1.5000000e+00 3.0000000e+00 4.0000000e+01 
7.5000000e-01 3.0000000e+00 0.0000000e+00 
7.5000000e-01 3.0000000e+00 4.0000000e+01 
0.0000000e+00 3.0000000e+00 0.0000000e+00 
0.0000000e+00 3.0000000e+00 4.0000000e+01 
7.5000000e-01 3.0000000e+00 5.0000000e-01 
7.5000000e-01 3.0000000e+00 1.0000000e+00 
7.5000000e-01 3.0000000e+00 1.5000000e+00 
7.5000000e-01 3.0000000e+00 2.0000000e+00 
7.5000000e-01 3.0000000e+00 2.5000000e+00 
7.5000000e-01 3.0000000e+00 3.0000000e+00 
7.5000000e-01 3.0000000e+00 3.5000000e+00 
7.5000000e-01 3.0000000e+00 4.0000000e+00 
7.5000000e-01 3.0000000e+00 4.5000000e+00 
7.5000000e-01 3.0000000e+00 5.0000000e+00 
7.5000000e-01 3.0000000e+00 5.5000000e+00 
7.5000000e-01 3.0000000e+00 6.0000000e+00 
7.5000000e-01 3.0000000e+00 6.5000000e+00 
7.5000000e-01 3.0000000e+00 7.0000000e+00 
7.5000000e-01 3.0000000e+00 7.5000000e+00 
7.5000000e-01 3.0000000e+00 8.0000000e+00 
7.5000000e-01 3.0000000e+00 8.5000000e+00 
7.5000000e-01 3.0000000e+00 9.0000000e+00 
7.5000000e-01 3.0000000e+00 9.5000000e+00 
7.5000000e-01 3.0000000e+00 1.0000000e+01 
7.5000000e-01 3.0000000e+00 1.0500000e+01 
7.5000000e-01 3.0000000e+00 1.1000000e+01 
7.5000000e-01 3.0000000e+00 1.1500000e+01 
7.5000000e-01 3.0000000e+00 1.2000000e+01 
7.5000000e-01 3.0000000e+00 1.2500000e+01 
7.5000000e-01 3.0000000e+00 1.3000000e+01 
7.5000000e-01 3.0000000e+00 1.3500000e+01 
7.5000000e-01 3.0000000e+00 1.4000000e+01 
7.5000000e-01 3.0000000e+00 1.4500000e+01 
7.5000000e-01 3.0000000e+00 1.5000000e+01 
7.5000000e-01 3.0000000e+00 1.5500000e+01 
7.5000000e-01 3.0000000e+00 1.6000000e+01 
7.5000000e-01 3.0000000e+00 1.6500000e+01 
7.5000000e-01 3.0000000e+00 1.7000000e+01 
7.5000000e-01 3.0000000e+00 1.7500000e+01 
7.5000000e-01 3.0000000e+00 1.8000000e+01 
7.5000000e-01 3.0000000e+00 1.8500000e+01 
7.5000000e-01 3.0000000e+00 1.9000000e+01 
7.5000000e-01 3.0000000e+00 1.9500000e+01 
7.5000000e-01 3.0000000e+00 2.0000000e+01 
7.5000000e-01 3.0000000e+00 2.0500000e+01 
7.5000000e-01 3.0000000e+00 2.1000000e+01 
7.5000000e-01 3.0000000e+00 2.1500000e+01 
7.5000000e-01 3.0000000e+00 2.2000000e+01 
7.5000000e-01 3.0000000e+00 2.2500000e+01 
7.5000000e-01 3.0000000e+00 2.3000000e+01 
7.5000000e-01 3.0000000e+00 2.3500000e+01 
7.5000000e-01 3.0000000e+00 2.4000000e+01 
7.5000000e-01 3.0000000e+00 2.4500000e+01 
7.5000000e-01 3.0000000e+00 2.5000000e+01 
7.5000000e-01 3.0000000e+00 2.5500000e+01 
7.5000000e-01 3.0000000e+00 2.6000000e+01 
7.5000000e-01 3.0000000e+00 2.6500000e+01 
7.5000000e-01 3.0000000e+00 2.7000000e+01 
7.5000000e-01 3.0000000e+00 2.7500000e+01 
7.5000000e-01 3.0000000e+00 2.8000000e+01 
7.5000000e-01 3.0000000e+00 2.8500000e+01 
7.5000000e-01 3.0000000e+00 2.9000000e+01 
7.5000000e-01 3.0000000e+00 2.9500000e+01 
7.5000000e-01 3.0000000e+00 3.0000000e+01 
7.5000000e-01 3.0000000e+00 3.0500000e+01 
7.5000000e-01 3.0000000e+00 3.1000000e+01 
7.5000000e-01 3.0000000e+00 3.1500000e+01 
7.5000000e-01 3.0000000e+00 3.2000000e+01 
7.5000000e-01 3.0000000e+00 3.2500000e+01 
7.5000000e-01 3.0000000e+00 3.3000000e+01 
7.5000000e-01 3.0000000e+00 3.3500000e+01 
7.5000000e-01 3.0000000e+00 3.4000000e+01 
7.5000000e-01 3.0000000e+00 3.4500000e+01 
7.5000000e-01 3.0000000e+00 3.5000000e+01 
7.5000000e-01 3.0000000e+00 3.5500000e+01 
7.5000000e-01 3.0000000e+00 3.6000000e+01 
7.5000000e-01 3.0000000e+00 3.6500000e+01 
7.5000000e-01 3.0000000e+00 3.7000000e+01 
7.5000000e-01 3.0000000e+00 3.7500000e+01 
7.5000000e-01 3.0000000e+00 3.8000000e+01 
7.5000000e-01 3.0000000e+00 3.8500000e+01 
7.5000000e-01 3.0000000e+00 3.9000000e+01 
7.5000000e-01 3.0000000e+00 3.9500000e+01 
7.5000000e-01 3.0000000e+00 4.0500000e+01 
7.5000000e-01 3.0000000e+00 4.1000000e+01 
7.5000000e-01 3.0000000e+00 4.1500000e+01 
7.5000000e-01 3.0000000e+00 4.2000000e+01 
7.5000000e-01 3.0000000e+00 4.2500000e+01 
7.5000000e-01 3.0000000e+00 4.3000000e+01 
7.5000000e-01 3.0000000e+00 4.3500000e+01 
7.5000000e-01 3.0000000e+00 4.4000000e+01 
7.5000000e-01 3.0000000e+00 4.4500000e+01 
7.5000000e-01 3.0000000e+00 4.5000000e+01 
7.5000000e-01 3.0000000e+00 4.5500000e+01 
7.5000000e-01 3.0000000e+00 4.6000000e+01 
7.5000000e-01 3.0000000e+00 4.6500000e+01 
7.5000000e-01 3.0000000e+00 4.7000000e+01 
7.5000000e-01 3.0000000e+00 4.7500000e+01 
7.5000000e-01 3.0000000e+00 4.8000000e+01 
7.5000000e-01 3.0000000e+00 4.8500000e+01 
7.5000000e-01 3.0000000e+00 4.9000000e+01 
7.5000000e-01 3.0000000e+00 4.9500000e+01 
7.5000000e-01 3.0000000e+00 5.0000000e+01 
7.5000000e-01 3.0250001e+00 0.0000000e+00 
7.5000000e-01 3.0250001e+00 5.0000000e-01 
7.5000000e-01 3.0250001e+00 1.0000000e+00 
7.5000000e-01 3.0250001e+00 1.5000000e+00 
7.5000000e-01 3.0250001e+00 2.0000000e+00 
7.5000000e-01 3.0250001e+00 2.5000000e+00 
7.5000000e-01 3.0250001e+00 3.0000000e+00 
7.5000000e-01 3.0250001e+00 3.5000000e+00 
7.5000000e-01 3.0250001e+00 4.0000000e+00 
7.5000000e-01 3.0250001e+00 4.5000000e+00 
7.5000000e-01 3.0250001e+00 5.0000000e+00 
7.5000000e-01 3.0250001e+00 5.5000000e+00 
7.5000000e-01 3.0250001e+00 6.0000000e+00 
7.5000000e-01 3.0250001e+00 6.5000000e+00 
7.5000000e-01 3.0250001e+00 7.0000000e+00 
7.5000000e-01 3.0250001e+00 7.5000000e+00 
7.5000000e-01 3.0250001e+00 8.0000000e+00 
7.5000000e-01 3.0250001e+00 8.5000000e+00 
7.5000000e-01 3.0250001e+00 9.0000000e+00 
7.5000000e-01 3.0250001e+00 9.5000000e+00 
7.5000000e-01 3.0250001e+00 1.0000000e+01 
7.5000000e-01 3.0250001e+00 1.0500000e+01 
7.5000000e-01 3.0250001e+00 1.1000000e+01 
7.5000000e-01 3.0250001e+00 1.1500000e+01 
7.5000000e-01 3.0250001e+00 1.2000000e+01 
7.5000000e-01 3.0250001e+00 1.2500000e+01 
7.5000000e-01 3.0250001e+00 1.3000000e+01 
7.5000000e-01 3.0250001e+00 1.3500000e+01 
7.5000000e-01 3.0250001e+00 1.4000000e+01 
7.5000000e-01 3.0250001e+00 1.4500000e+01 
7.5000000e-01 3.0250001e+00 1.5000000e+01 
7.5000000e-01 3.0250001e+00 1.5500000e+01 
7.5000000e-01 3.0250001e+00 1.6000000e+01 
7.5000000e-01 3.0250001e+00 1.6500000e+01 
7.5000000e-01 3.0250001e+00 1.7000000e+01 
7.5000000e-01 3.0250001e+00 1.7500000e+01 
7.5000000e-01 3.0250001e+00 1.8000000e+01 
7.5000000e-01 3.0250001e+00 1.8500000e+01 
7.5000000e-01 3.0250001e+00 1.9000000e+01 
7.5000000e-01 3.0250001e+00 1.9500000e+01 
7.5000000e-01 3.0250001e+00 2.0000000e+01 
7.5000000e-01 3.0250001e+00 2.0500000e+01 
7.5000000e-01 3.0250001e+00 2.1000000e+01 
7.5000000e-01 3.0250001e+00 2.1500000e+01 
7.5000000e-01 3.0250001e+00 2.2000000e+01 
7.5000000e-01 3.0250001e+00 2.2500000e+01 
7.5000000e-01 3.0250001e+00 2.3000000e+01 
7.5000000e-01 3.0250001e+00 2.3500000e+01 
7.5000000e-01 3.0250001e+00 2.4000000e+01 
7.5000000e-01 3.0250001e+00 2.4500000e+01 
7.5000000e-01 3.0250001e+00 2.5000000e+01 
7.5000000e-01 3.0250001e+00 2.5500000e+01 
7.5000000e-01 3.0250001e+00 2.6000000e+01 
7.5000000e-01 3.0250001e+00 2.6500000e+01 
7.5000000e-01 3.0250001e+00 2.7000000e+01 
7.5000000e-01 3.0250001e+00 2.7500000e+01 
7.5000000e-01 3.0250001e+00 2.8000000e+01 
7.5000000e-01 3.0250001e+00 2.8500000e+01 
7.5000000e-01 3.0250001e+00 2.9000000e+01 
7.5000000e-01 3.0250001e+00 2.9500000e+01 
7.5000000e-01 3.0250001e+00 3.0000000e+01 
7.5000000e-01 3.0250001e+00 3.0500000e+01 
7.5000000e-01 3.0250001e+00 3.1000000e+01 
7.5000000e-01 3.0250001e+00 3.1500000e+01 
7.5000000e-01 3.0250001e+00 3.2000000e+01 
7.5000000e-01 3.0250001e+00 3.2500000e+01 
7.5000000e-01 3.0250001e+00 3.3000000e+01 
7.5000000e-01 3.0250001e+00 3.3500000e+01 
7.5000000e-01 3.0250001e+00 3.4000000e+01 
7.5000000e-01 3.0250001e+00 3.4500000e+01 
7.5000000e-01 3.0250001e+00 3.5000000e+01 
7.5000000e-01 3.0250001e+00 3.5500000e+01 
7.5000000e-01 3.0250001e+00 3.6000000e+01 
7.5000000e-01 3.0250001e+00 3.6500000e+01 
7.5000000e-01 3.0250001e+00 3.7000000e+01 
7.5000000e-01 3.0250001e+00 3.7500000e+01 
7.5000000e-01 3.0250001e+00 3.8000000e+01 
7.5000000e-01 3.0250001e+00 3.8500000e+01 
7.5000000e-01 3.0250001e+00 3.9000000e+01 
7.5000000e-01 3.0250001e+00 3.9500000e+01 
7.5000000e-01 3.0250001e+00 4.0000000e+01 
7.5000000e-01 3.0250001e+00 4.0500000e+01 
7.5000000e-01 3.0250001e+00 4.1000000e+01 
7.5000000e-01 3.0250001e+00 4.1500000e+01 
7.5000000e-01 3.0250001e+00 4.2000000e+01 
7.5000000e-01 3.0250001e+00 4.2500000e+01 
7.5000000e-01 3.0250001e+00 4.3000000e+01 
7.5000000e-01 3.0250001e+00 4.3500000e+01 
7.5000000e-01 3.0250001e+00 4.4000000e+01 
7.5000000e-01 3.0250001e+00 4.4500000e+01 
7.5000000e-01 3.0250001e+00 4.5000000e+01 
7.5000000e-01 3.0250001e+00 4.5500000e+01 
7.5000000e-01 3.0250001e+00 4.6000000e+01 
7.5000000e-01 3.0250001e+00 4.6500000e+01 
7.5000000e-01 3.0250001e+00 4.7000000e+01 
7.5000000e-01 3.0250001e+00 4.7500000e+01 
7.5000000e-01 3.0250001e+00 4.8000000e+01 
7.5000000e-01 3.0250001e+00 4.8500000e+01 
7.5000000e-01 3.0250001e+00 4.9000000e+01 
7.5000000e-01 3.0250001e+00 4.9500000e+01 
7.5000000e-01 3.0250001e+00 5.0000000e+01 
3.0000000e+00 2.0000000e+00 3.6000000e+01 
8.0487806e-01 3.0000000e+00 3.6000000e+01 
0.0000000e+00 0.0000000e+00 2.0000000e+00 
0.0000000e+00 0.0000000e+00 4.0000000e+00 
0.0000000e+00 0.0000000e+00 6.0000000e+00 
0.0000000e+00 0.0000000e+00 8.0000000e+00 
0.0000000e+00 0.0000000e+00 1.0000000e+01 
0.0000000e+00 0.0000000e+00 1.2000000e+01 
0.0000000e+00 0.0000000e+00 1.4000000e+01 
0.0000000e+00 0.0000000e+00 1.6000000e+01 
[...]
POINT_DATA 661
FIELD FieldData 3
DISPLACEMENT 3 661  float
0.0000000e+00 0.0000000e+00 0.0000000e+00 
0.0000000e+00 0.0000000e+00 0.0000000e+00 
0.0000000e+00 0.0000000e+00 0.0000000e+00 
0.0000000e+00 0.0000000e+00 0.0000000e+00 
1.8998871e-05 -2.4561337e-05 -3.2064294e-05 
-1.5255161e-07 -6.8040816e-07 -2.5599777e-08 
0.0000000e+00 -8.1325845e-05 0.0000000e+00 
0.0000000e+00 -1.6082359e-06 0.0000000e+00 
2.4884856e-05 -3.3002161e-05 -5.7274032e-05 
-3.8434263e-07 -8.5018087e-07 9.1996117e-07 
5.9956319e-06 -2.6213129e-05 -3.8704300e-05 
-5.6698082e-07 -2.0411662e-06 3.2731472e-07 
0.0000000e+00 -9.6671676e-05 0.0000000e+00 
0.0000000e+00 -3.5817259e-06 0.0000000e+00 
4.1446699e-05 1.8416995e-05 7.2792551e-05 
-4.3138482e-07 -8.3443592e-06 -2.2690813e-06 
2.4701454e-05 6.4709566e-05 2.2461887e-04 
4.1524220e-07 -7.6619071e-06 -7.9715932e-07 
0.0000000e+00 -2.6329233e-05 0.0000000e+00 
0.0000000e+00 -6.7354167e-06 0.0000000e+00 
-3.6631278e-05 -1.2068334e-05 1.8417480e-04 
-5.9432918e-05 -2.4235512e-04 1.2281233e-04 
-8.2221020e-05 -6.5352855e-04 2.0863520e-04 
-9.8670993e-05 -1.2851781e-03 2.3586403e-04 
-1.7666114e-04 -2.1297776e-03 1.2907239e-04 
-2.0884449e-04 -3.0959691e-03 1.3956890e-04 
-1.1402700e-04 -3.8782025e-03 1.0943240e-04 
-8.5593289e-05 -3.9369427e-03 1.2783385e-04 
-2.3084885e-04 -3.8193299e-03 6.6074157e-05 
-3.0183070e-04 -3.8715149e-03 5.2761210e-05 
-2.0538039e-04 -4.1843755e-03 1.7407194e-05 
-6.6786670e-05 -4.2465390e-03 -4.8996877e-05 
-1.0261947e-04 -3.5614108e-03 -1.5991718e-04 
-2.0601191e-04 -2.5259964e-03 -1.9994321e-04 
-1.9654525e-04 -1.6230755e-03 -1.9205057e-04 
-7.2598727e-05 -9.4090228e-04 -1.1988375e-04 
-4.5696215e-05 -5.1481253e-04 -1.5717317e-04 
-3.9910108e-05 -2.7317891e-04 -1.3975948e-04 
-3.1507421e-05 -1.4525195e-04 -1.3524723e-04 
-3.5834196e-06 -7.0527043e-05 -1.2127947e-04 
1.8040568e-05 -1.0533689e-05 -8.8003428e-05 
3.1879976e-05 4.7263449e-05 -4.8909933e-05 
2.1887383e-05 1.0114216e-04 -1.5346437e-05 
4.8188936e-06 1.4021051e-04 1.5768701e-05 
1.1205274e-06 1.5380791e-04 1.7456037e-05 
-3.5979126e-06 1.4546038e-04 1.3449971e-05 
-3.4321156e-06 1.2269033e-04 -1.0691688e-06 
2.4341009e-06 9.3768198e-05 -2.5907464e-05 
3.0798248e-07 6.6377310e-05 -4.0801326e-05 
5.8623614e-06 4.1214622e-05 -4.2672498e-05 
6.6864536e-06 1.7303795e-05 -3.2521406e-05 
6.2762838e-06 -5.5766072e-06 -1.4819878e-05 
4.9098981e-06 -2.8138526e-05 1.3425804e-05 
9.1714746e-06 -4.9985945e-05 3.1935000e-05 
7.5133826e-06 -7.1419410e-05 4.6632726e-05 
-7.0566371e-06 -8.7221168e-05 6.1086306e-05 
-2.4659526e-05 -9.2259994e-05 4.9725819e-05 
-2.9251627e-05 -8.8151093e-05 3.8933587e-05 
-2.0007981e-05 -8.1579463e-05 2.9284343e-05 
-2.3971156e-06 -1.0315268e-04 1.3721955e-05 
-3.6914953e-05 -1.9852089e-04 3.1584808e-05 
-5.7797712e-05 -4.2144133e-04 5.6612877e-05 
-7.8970959e-05 -8.4425032e-04 9.3047864e-05 
-1.1932985e-04 -1.5070139e-03 4.3275038e-05 
-2.2970715e-04 -2.4179157e-03 1.6000436e-04 
-2.1924551e-04 -3.3632279e-03 1.6418444e-04 
-1.2757990e-04 -3.9855959e-03 1.3685279e-04 
-1.1019345e-04 -3.8881749e-03 1.8332808e-04 
-2.6312534e-04 -3.7400227e-03 1.1276403e-04 
-3.2423239e-04 -3.8167553e-03 9.4214207e-05 
-2.1323434e-04 -4.1397763e-03 4.2698710e-05 
-7.7254495e-05 -4.1024210e-03 -1.4253989e-05 
-1.0538654e-04 -3.3485175e-03 -1.4809074e-04 
-2.0193648e-04 -2.3525453e-03 -2.0062859e-04 
-1.8932977e-04 -1.5066355e-03 -2.1374956e-04 
-8.2299914e-05 -8.6834049e-04 -1.5616060e-04 
-4.6616191e-05 -4.5793600e-04 -1.7971534e-04 
-2.7199290e-05 -2.1278371e-04 -1.4327728e-04 
-1.7856375e-05 -7.5730859e-05 -1.2083749e-04 
9.3480749e-06 5.3439527e-07 -9.4678624e-05 
2.4335845e-05 4.4691700e-05 -6.1673898e-05 
3.5765443e-05 7.2862225e-05 -2.4361152e-05 
2.3320516e-05 9.0173911e-05 8.4468320e-06 
6.4680003e-06 9.5540410e-05 3.3018583e-05 
-1.3446088e-06 8.5307016e-05 3.8622584e-05 
-7.9992205e-06 6.2828862e-05 3.2864471e-05 
-8.4287149e-06 3.4070421e-05 2.0066558e-05 
-5.1679262e-06 5.8118280e-06 3.4582461e-06 
-4.2060237e-06 -1.5078131e-05 -5.7027341e-06 
-2.2774700e-06 -2.7345151e-05 -1.2564689e-05 
2.2993049e-06 -2.9707759e-05 -1.5688351e-05 
1.2147370e-06 -2.2877199e-05 -1.0376812e-05 
1.6792660e-06 -8.8841025e-06 -3.9516553e-06 
1.7529057e-06 6.6681923e-06 2.5413765e-06 
-7.2633674e-07 1.5910873e-05 6.4599490e-06 
-6.3706858e-07 1.6008787e-05 5.0983158e-06 
-7.0526050e-07 8.7021062e-06 2.1088449e-06 
-5.5692993e-07 -8.8324259e-07 -1.3122221e-06 
-6.7850159e-08 -6.7832448e-06 -3.0070876e-06 
0.0000000e+00 -4.7368962e-06 0.0000000e+00 
0.0000000e+00 -5.8152756e-07 0.0000000e+00 
0.0000000e+00 2.3246407e-06 0.0000000e+00 
0.0000000e+00 3.0733609e-06 0.0000000e+00 
0.0000000e+00 2.3646251e-06 0.0000000e+00 
0.0000000e+00 1.4204145e-06 0.0000000e+00 
0.0000000e+00 8.5339531e-07 0.0000000e+00 
0.0000000e+00 4.3882892e-07 0.0000000e+00 
0.0000000e+00 -2.4034171e-07 0.0000000e+00 
0.0000000e+00 -1.1082022e-06 0.0000000e+00 
0.0000000e+00 -1.5948506e-06 0.0000000e+00 
0.0000000e+00 -1.2427757e-06 0.0000000e+00 
0.0000000e+00 -2.2378698e-07 0.0000000e+00 
0.0000000e+00 7.7225297e-07 0.0000000e+00 
0.0000000e+00 1.1317834e-06 0.0000000e+00 
0.0000000e+00 7.9039086e-07 0.0000000e+00 
0.0000000e+00 1.7046222e-07 0.0000000e+00 
0.0000000e+00 -2.7038769e-07 0.0000000e+00 
0.0000000e+00 -4.0306267e-07 0.0000000e+00 
0.0000000e+00 -3.9851122e-07 0.0000000e+00 
0.0000000e+00 6.4789754e-05 0.0000000e+00 
0.0000000e+00 -1.0506712e-05 0.0000000e+00 
0.0000000e+00 -2.4168935e-04 0.0000000e+00 
0.0000000e+00 -6.5576774e-04 0.0000000e+00 
0.0000000e+00 -1.2888201e-03 0.0000000e+00 
0.0000000e+00 -2.1418142e-03 0.0000000e+00 
0.0000000e+00 -3.1274913e-03 0.0000000e+00 
0.0000000e+00 -3.9017438e-03 0.0000000e+00 
0.0000000e+00 -3.9672791e-03 0.0000000e+00 
0.0000000e+00 -3.8330867e-03 0.0000000e+00 
0.0000000e+00 -3.9018029e-03 0.0000000e+00 
0.0000000e+00 -4.2046043e-03 0.0000000e+00 
0.0000000e+00 -4.2816545e-03 0.0000000e+00 
0.0000000e+00 -3.5800172e-03 0.0000000e+00 
0.0000000e+00 -2.5452026e-03 0.0000000e+00 
0.0000000e+00 -1.6255948e-03 0.0000000e+00 
0.0000000e+00 -9.4550115e-04 0.0000000e+00 
0.0000000e+00 -5.1475456e-04 0.0000000e+00 
0.0000000e+00 -2.7237603e-04 0.0000000e+00 
0.0000000e+00 -1.4407831e-04 0.0000000e+00 
0.0000000e+00 -6.9220652e-05 0.0000000e+00 
0.0000000e+00 -9.8448800e-06 0.0000000e+00 
0.0000000e+00 4.7699632e-05 0.0000000e+00 
0.0000000e+00 1.0111020e-04 0.0000000e+00 
0.0000000e+00 1.3947660e-04 0.0000000e+00 
0.0000000e+00 1.5363525e-04 0.0000000e+00 
0.0000000e+00 1.4549635e-04 0.0000000e+00 
0.0000000e+00 1.2278093e-04 0.0000000e+00 
0.0000000e+00 9.4184303e-05 0.0000000e+00 
0.0000000e+00 6.6521854e-05 0.0000000e+00 
0.0000000e+00 4.1228224e-05 0.0000000e+00 
0.0000000e+00 1.7302937e-05 0.0000000e+00 
0.0000000e+00 -5.7230905e-06 0.0000000e+00 
0.0000000e+00 -2.8212433e-05 0.0000000e+00 
0.0000000e+00 -5.0338986e-05 0.0000000e+00 
0.0000000e+00 -7.1391885e-05 0.0000000e+00 
0.0000000e+00 -8.6815729e-05 0.0000000e+00 
0.0000000e+00 -9.1939073e-05 0.0000000e+00 
0.0000000e+00 -8.6943168e-05 0.0000000e+00 
0.0000000e+00 -8.0850354e-05 0.0000000e+00 
0.0000000e+00 -1.0268838e-04 0.0000000e+00 
0.0000000e+00 -1.9753413e-04 0.0000000e+00 
0.0000000e+00 -4.2275200e-04 0.0000000e+00 
0.0000000e+00 -8.4619923e-04 0.0000000e+00 
0.0000000e+00 -1.5177324e-03 0.0000000e+00 
0.0000000e+00 -2.4268038e-03 0.0000000e+00 
0.0000000e+00 -3.3984331e-03 0.0000000e+00 
0.0000000e+00 -4.0096492e-03 0.0000000e+00 
0.0000000e+00 -3.9185253e-03 0.0000000e+00 
0.0000000e+00 -3.7537087e-03 0.0000000e+00 
0.0000000e+00 -3.8486903e-03 0.0000000e+00 
0.0000000e+00 -4.1613369e-03 0.0000000e+00 
0.0000000e+00 -4.1365782e-03 0.0000000e+00 
0.0000000e+00 -3.3649439e-03 0.0000000e+00 
0.0000000e+00 -2.3685824e-03 0.0000000e+00 
0.0000000e+00 -1.5083712e-03 0.0000000e+00 
0.0000000e+00 -8.7188202e-04 0.0000000e+00 
0.0000000e+00 -4.5767607e-04 0.0000000e+00 
0.0000000e+00 -2.1203661e-04 0.0000000e+00 
0.0000000e+00 -7.4721800e-05 0.0000000e+00 
0.0000000e+00 1.2164518e-06 0.0000000e+00 
0.0000000e+00 4.5230601e-05 0.0000000e+00 
0.0000000e+00 7.3143448e-05 0.0000000e+00 
0.0000000e+00 9.0273330e-05 0.0000000e+00 
0.0000000e+00 9.5193071e-05 0.0000000e+00 
0.0000000e+00 8.5216183e-05 0.0000000e+00 
0.0000000e+00 6.2842533e-05 0.0000000e+00 
0.0000000e+00 3.4084253e-05 0.0000000e+00 
0.0000000e+00 6.0755660e-06 0.0000000e+00 
0.0000000e+00 -1.5076772e-05 0.0000000e+00 
0.0000000e+00 -2.7224645e-05 0.0000000e+00 
0.0000000e+00 -2.9633340e-05 0.0000000e+00 
0.0000000e+00 -2.2716607e-05 0.0000000e+00 
0.0000000e+00 -8.8142706e-06 0.0000000e+00 
0.0000000e+00 6.3554226e-06 0.0000000e+00 
0.0000000e+00 1.5676467e-05 0.0000000e+00 
0.0000000e+00 1.5882350e-05 0.0000000e+00 
0.0000000e+00 8.7209191e-06 0.0000000e+00 
0.0000000e+00 -6.2020285e-07 0.0000000e+00 
0.0000000e+00 -6.6732614e-06 0.0000000e+00 
0.0000000e+00 -7.6382912e-06 0.0000000e+00 
0.0000000e+00 -4.7668555e-06 0.0000000e+00 
0.0000000e+00 -6.5792159e-07 0.0000000e+00 
0.0000000e+00 2.2657582e-06 0.0000000e+00 
0.0000000e+00 3.0687579e-06 0.0000000e+00 
0.0000000e+00 2.3986645e-06 0.0000000e+00 
0.0000000e+00 1.4491829e-06 0.0000000e+00 
0.0000000e+00 8.5020781e-07 0.0000000e+00 
0.0000000e+00 4.1561682e-07 0.0000000e+00 
0.0000000e+00 -2.5267465e-07 0.0000000e+00 
0.0000000e+00 -1.0948369e-06 0.0000000e+00 
0.0000000e+00 -1.5699502e-06 0.0000000e+00 
0.0000000e+00 -1.2306875e-06 0.0000000e+00 
0.0000000e+00 -2.3319620e-07 0.0000000e+00 
0.0000000e+00 7.5349766e-07 0.0000000e+00 
0.0000000e+00 1.1203648e-06 0.0000000e+00 
0.0000000e+00 7.9142814e-07 0.0000000e+00 
0.0000000e+00 1.7740945e-07 0.0000000e+00 
0.0000000e+00 -2.6533769e-07 0.0000000e+00 
0.0000000e+00 -4.0217165e-07 0.0000000e+00 
0.0000000e+00 -3.9946411e-07 0.0000000e+00 
-1.2290926e-06 -4.0624504e-06 -7.7838143e-07 
8.7958091e-07 -2.4657413e-05 -1.1259469e-05 
0.0000000e+00 0.0000000e+00 0.0000000e+00 
0.0000000e+00 0.0000000e+00 0.0000000e+00 
0.0000000e+00 0.0000000e+00 0.0000000e+00 
0.0000000e+00 0.0000000e+00 0.0000000e+00 
0.0000000e+00 0.0000000e+00 0.0000000e+00 
0.0000000e+00 0.0000000e+00 0.0000000e+00 
0.0000000e+00 0.0000000e+00 0.0000000e+00 
0.0000000e+00 0.0000000e+00 0.0000000e+00 
0.0000000e+00 0.0000000e+00 0.0000000e+00 
0.0000000e+00 0.0000000e+00 0.0000000e+00 
0.0000000e+00 0.0000000e+00 0.0000000e+00 
0.0000000e+00 0.0000000e+00 0.0000000e+00 
0.0000000e+00 0.0000000e+00 0.0000000e+00 
0.0000000e+00 0.0000000e+00 0.0000000e+00 
0.0000000e+00 0.0000000e+00 0.0000000e+00 
0.0000000e+00 0.0000000e+00 0.0000000e+00 
0.0000000e+00 0.0000000e+00 0.0000000e+00 
0.0000000e+00 0.0000000e+00 0.0000000e+00 
0.0000000e+00 0.0000000e+00 0.0000000e+00 
0.0000000e+00 0.0000000e+00 0.0000000e+00 
0.0000000e+00 0.0000000e+00 0.0000000e+00 
0.0000000e+00 0.0000000e+00 0.0000000e+00 
0.0000000e+00 0.0000000e+00 0.0000000e+00 
0.0000000e+00 0.0000000e+00 0.0000000e+00 
0.0000000e+00 0.0000000e+00 0.0000000e+00 
0.0000000e+00 0.0000000e+00 0.0000000e+00 
0.0000000e+00 0.0000000e+00 0.0000000e+00 
0.0000000e+00 0.0000000e+00 0.0000000e+00 
0.0000000e+00 0.0000000e+00 0.0000000e+00 
0.0000000e+00 0.0000000e+00 0.0000000e+00 
0.0000000e+00 0.0000000e+00 0.0000000e+00 
0.0000000e+00 0.0000000e+00 0.0000000e+00 
0.0000000e+00 0.0000000e+00 0.0000000e+00 
0.0000000e+00 0.0000000e+00 0.0000000e+00 
0.0000000e+00 0.0000000e+00 0.0000000e+00 
0.0000000e+00 0.0000000e+00 0.0000000e+00 
0.0000000e+00 0.0000000e+00 0.0000000e+00 
0.0000000e+00 0.0000000e+00 0.0000000e+00 
0.0000000e+00 0.0000000e+00 0.0000000e+00 
0.0000000e+00 0.0000000e+00 0.0000000e+00 
0.0000000e+00 0.0000000e+00 0.0000000e+00 
0.0000000e+00 0.0000000e+00 0.0000000e+00 
3.0527219e-05 -5.9237840e-07 -2.4474310e-05 
5.8360445e-05 -4.4273761e-06 -1.5608986e-05 
3.9688006e-05 -7.8170824e-06 -1.0522155e-06 
1.0903739e-05 -9.7715692e-06 5.8438690e-07 
4.0706327e-06 -8.3909563e-06 1.1492596e-05 
-7.1792488e-07 4.4230223e-06 8.6927184e-06 
8.0012651e-06 6.3215443e-06 -6.4988212e-06 
3.4381380e-06 -2.8174720e-06 -1.2788638e-05 
1.4513050e-06 -6.1012634e-06 -3.5140613e-06 
1.2529204e-05 -1.0021932e-05 -4.4099611e-06 
3.4461507e-05 -2.1425699e-06 -3.9323177e-06 
4.8515947e-05 -1.0380350e-06 5.8090711e-07 
3.6766243e-05 -7.0116685e-06 1.7906993e-06 
1.1702530e-05 -1.4487659e-05 2.7153183e-06 
6.7880933e-06 -9.6443227e-07 8.3182385e-06 
2.2763436e-06 3.4923005e-06 9.3201088e-06 
1.4727253e-07 -1.1745673e-06 1.6403571e-06 
-6.1781469e-07 -1.7070371e-06 -1.3156384e-06 
3.5634008e-07 1.0674943e-06 3.0217055e-07 
0.0000000e+00 -1.9550092e-04 0.0000000e+00 
0.0000000e+00 -4.7119410e-04 0.0000000e+00 
0.0000000e+00 -5.2257464e-04 0.0000000e+00 
0.0000000e+00 -1.8752339e-04 0.0000000e+00 
0.0000000e+00 -2.5200192e-05 0.0000000e+00 
0.0000000e+00 3.7721518e-05 0.0000000e+00 
0.0000000e+00 1.6384576e-05 0.0000000e+00 
0.0000000e+00 3.0158086e-05 0.0000000e+00 
0.0000000e+00 -2.4089712e-05 0.0000000e+00 
0.0000000e+00 -3.6879421e-05 0.0000000e+00 
0.0000000e+00 -2.0033491e-04 0.0000000e+00 
0.0000000e+00 -4.7451077e-04 0.0000000e+00 
0.0000000e+00 -5.2820874e-04 0.0000000e+00 
0.0000000e+00 -1.8755175e-04 0.0000000e+00 
0.0000000e+00 -3.2227317e-06 0.0000000e+00 
0.0000000e+00 3.0582112e-05 0.0000000e+00 
0.0000000e+00 -4.3562964e-06 0.0000000e+00 
0.0000000e+00 -2.9258288e-06 0.0000000e+00 
0.0000000e+00 1.4224713e-06 0.0000000e+00 
2.3270839e-05 -1.8038432e-05 -2.6746631e-05 
2.1717737e-05 -5.0371080e-05 -4.2446343e-05 
-2.1193361e-07 -8.5249792e-07 -2.3621305e-07 
-2.7350683e-07 -1.4430664e-06 -5.0281062e-07 
3.0925206e-05 4.7076187e-06 -3.5836758e-05 
5.3017240e-05 6.9130347e-06 -1.4021163e-05 
3.3560766e-05 -9.2806482e-07 -9.2681330e-07 
4.9133141e-06 -6.4314231e-06 -9.3702693e-07 
5.2244133e-07 -1.3676537e-05 6.9239991e-06 
3.6251206e-06 7.5473654e-06 2.7309177e-06 
1.3722430e-05 1.0961518e-05 -2.1894389e-06 
-1.1565567e-06 -5.0261788e-06 -7.2574412e-06 
-6.2415274e-06 -8.6226382e-06 -6.5010008e-06 
1.7934373e-05 -1.1846274e-05 -9.5364649e-06 
3.6169058e-05 5.0695189e-07 -4.0908139e-06 
4.7655012e-05 2.1158605e-06 2.9001458e-06 
2.6814210e-05 -3.1803731e-06 1.1242862e-05 
-4.3664014e-07 -1.7817143e-05 2.2549136e-08 
1.8311797e-06 -3.0141193e-06 2.2314696e-07 
4.3434061e-06 4.1572571e-06 1.0126321e-05 
2.2604345e-06 -3.7997413e-07 4.1668609e-06 
-7.7956963e-07 -1.9284444e-06 -4.7066334e-07 
8.0974651e-08 1.0396974e-06 -4.7960157e-07 
8.0607297e-06 -7.3146752e-05 -3.9085324e-05 
0.0000000e+00 -4.2535830e-04 0.0000000e+00 
0.0000000e+00 -1.0689158e-03 0.0000000e+00 
0.0000000e+00 -1.1741386e-03 0.0000000e+00 
0.0000000e+00 -3.5643269e-04 0.0000000e+00 
0.0000000e+00 -4.6771664e-05 0.0000000e+00 
0.0000000e+00 7.8845194e-05 0.0000000e+00 
0.0000000e+00 3.4431378e-05 0.0000000e+00 
0.0000000e+00 4.3548112e-05 0.0000000e+00 
0.0000000e+00 -5.2967349e-05 0.0000000e+00 
0.0000000e+00 -6.3187974e-05 0.0000000e+00 
0.0000000e+00 -4.4815126e-04 0.0000000e+00 
0.0000000e+00 -1.0646954e-03 0.0000000e+00 
0.0000000e+00 -1.1518257e-03 0.0000000e+00 
0.0000000e+00 -3.4896255e-04 0.0000000e+00 
0.0000000e+00 -1.3487302e-06 0.0000000e+00 
0.0000000e+00 5.8518603e-05 0.0000000e+00 
0.0000000e+00 -9.2277605e-06 0.0000000e+00 
0.0000000e+00 -9.1001984e-06 0.0000000e+00 
0.0000000e+00 6.5561876e-06 0.0000000e+00 
-2.9475351e-07 -2.3807652e-06 -5.1374172e-07 
-3.0834609e-04 -3.9519710e-04 2.6716341e-04 
-6.1154872e-04 -1.2953362e-03 1.3474160e-04 
-6.1246823e-04 -1.4150747e-03 -1.0381352e-04 
-1.7855081e-04 -3.0604051e-04 -2.2976245e-04 
4.2711372e-06 -6.5744847e-05 -1.4210708e-04 
1.9955618e-05 8.7386223e-05 2.5565905e-06 
3.8320713e-06 7.4304611e-05 -8.4611293e-06 
5.6034269e-06 -2.6415888e-05 1.0087533e-05 
8.3925988e-06 -1.0091443e-04 6.1756960e-05 
-1.6505423e-06 -3.8899816e-05 3.5206242e-05 
-2.7778870e-04 -4.3963332e-04 2.1260210e-04 
-6.5673498e-04 -1.1543528e-03 1.5614425e-04 
-6.1055983e-04 -1.3421864e-03 -5.1463641e-05 
-1.6560829e-04 -3.2305700e-04 -2.7385863e-04 
1.4915170e-05 -1.0027337e-05 -1.3044818e-04 
1.7457232e-05 5.5359476e-05 4.5245579e-05 
-9.1453840e-06 8.1654243e-06 2.1842974e-05 
2.2862913e-08 -1.9982053e-05 -1.3877800e-05 
1.3583951e-06 1.3775815e-05 7.1465561e-06 
0.0000000e+00 -7.4842887e-04 0.0000000e+00 
0.0000000e+00 -2.1546145e-03 0.0000000e+00 
0.0000000e+00 -2.2237841e-03 0.0000000e+00 
0.0000000e+00 -6.0281623e-04 0.0000000e+00 
0.0000000e+00 -5.7919195e-05 0.0000000e+00 
0.0000000e+00 1.2991847e-04 0.0000000e+00 
0.0000000e+00 6.8291403e-05 0.0000000e+00 
0.0000000e+00 4.0480892e-05 0.0000000e+00 
0.0000000e+00 -1.0028259e-04 0.0000000e+00 
0.0000000e+00 -6.8536639e-05 0.0000000e+00 
0.0000000e+00 -8.7677431e-04 0.0000000e+00 
0.0000000e+00 -2.1454766e-03 0.0000000e+00 
0.0000000e+00 -2.1559619e-03 0.0000000e+00 
0.0000000e+00 -5.7033409e-04 0.0000000e+00 
0.0000000e+00 1.3781869e-05 0.0000000e+00 
0.0000000e+00 8.9539986e-05 0.0000000e+00 
0.0000000e+00 -8.2460588e-07 0.0000000e+00 
0.0000000e+00 -2.0094656e-05 0.0000000e+00 
0.0000000e+00 1.3155272e-05 0.0000000e+00 
3.1550189e-05 -1.2524096e-05 -1.2452503e-05 
7.0920483e-05 -1.1135013e-04 1.3764717e-05 
6.9117545e-05 -9.4937852e-05 9.7392958e-06 
2.5743700e-05 -5.7904890e-05 -1.1326900e-05 
-1.3303987e-05 -1.0826172e-05 -1.5259255e-05 
1.1736814e-05 2.1026863e-05 -4.2756869e-06 
9.0523008e-06 1.6938498e-05 -7.6203214e-06 
-4.3713926e-06 -2.0659061e-05 6.2398948e-07 
-7.4025570e-06 -3.8506663e-05 1.1665045e-05 
1.5580385e-05 -3.5639650e-06 6.6065982e-06 
5.9967446e-05 -3.1284708e-05 -1.4726525e-06 
7.7016324e-05 -4.0533701e-05 5.4966754e-06 
4.1912510e-05 -7.0599941e-05 1.7131983e-05 
2.1524660e-05 -6.5805274e-05 -1.6093220e-05 
-1.1047526e-05 -6.9100961e-06 -1.5906327e-05 
5.3331746e-06 1.3463415e-05 7.7153845e-06 
9.3519708e-07 2.9112798e-06 9.7166767e-06 
9.2352695e-07 2.9855810e-06 -8.9999224e-07 
2.1134922e-06 -1.4744017e-05 -7.7538216e-06 
0.0000000e+00 0.0000000e+00 0.0000000e+00 
0.0000000e+00 0.0000000e+00 0.0000000e+00 
0.0000000e+00 0.0000000e+00 0.0000000e+00 
0.0000000e+00 0.0000000e+00 0.0000000e+00 
0.0000000e+00 0.0000000e+00 0.0000000e+00 
0.0000000e+00 0.0000000e+00 0.0000000e+00 
0.0000000e+00 0.0000000e+00 0.0000000e+00 
0.0000000e+00 0.0000000e+00 0.0000000e+00 
0.0000000e+00 0.0000000e+00 0.0000000e+00 
0.0000000e+00 0.0000000e+00 0.0000000e+00 
0.0000000e+00 0.0000000e+00 0.0000000e+00 
0.0000000e+00 0.0000000e+00 0.0000000e+00 
0.0000000e+00 0.0000000e+00 0.0000000e+00 
0.0000000e+00 0.0000000e+00 0.0000000e+00 
0.0000000e+00 0.0000000e+00 0.0000000e+00 
0.0000000e+00 0.0000000e+00 0.0000000e+00 
0.0000000e+00 0.0000000e+00 0.0000000e+00 
0.0000000e+00 0.0000000e+00 0.0000000e+00 
0.0000000e+00 0.0000000e+00 0.0000000e+00 
0.0000000e+00 0.0000000e+00 0.0000000e+00 
0.0000000e+00 0.0000000e+00 0.0000000e+00 
0.0000000e+00 0.0000000e+00 0.0000000e+00 
0.0000000e+00 0.0000000e+00 0.0000000e+00 
0.0000000e+00 0.0000000e+00 0.0000000e+00 
0.0000000e+00 0.0000000e+00 0.0000000e+00 
0.0000000e+00 0.0000000e+00 0.0000000e+00 
0.0000000e+00 0.0000000e+00 0.0000000e+00 
0.0000000e+00 0.0000000e+00 0.0000000e+00 
0.0000000e+00 0.0000000e+00 0.0000000e+00 
0.0000000e+00 0.0000000e+00 0.0000000e+00 
0.0000000e+00 0.0000000e+00 0.0000000e+00 
0.0000000e+00 0.0000000e+00 0.0000000e+00 
0.0000000e+00 0.0000000e+00 0.0000000e+00 
0.0000000e+00 0.0000000e+00 0.0000000e+00 
0.0000000e+00 0.0000000e+00 0.0000000e+00 
0.0000000e+00 0.0000000e+00 0.0000000e+00 
0.0000000e+00 0.0000000e+00 0.0000000e+00 
0.0000000e+00 0.0000000e+00 0.0000000e+00 
0.0000000e+00 0.0000000e+00 0.0000000e+00 
0.0000000e+00 0.0000000e+00 0.0000000e+00 
0.0000000e+00 0.0000000e+00 0.0000000e+00 
0.0000000e+00 0.0000000e+00 0.0000000e+00 
3.3604905e-05 -9.9241470e-06 -8.0729051e-06 
1.2830125e-06 1.1722607e-06 9.9002921e-07 
3.0584497e-06 2.3279496e-07 -5.3013177e-06 
2.3509614e-05 -4.9620198e-06 -7.8945511e-08 
1.9324905e-05 -1.0726415e-05 7.5866456e-07 
1.5584314e-05 -1.0415526e-05 -4.9402286e-07 
5.2068890e-06 -4.5320926e-06 4.0646514e-06 
2.6591313e-06 9.8859562e-07 4.4615522e-06 