# vtk DataFile Version 4.0
vtk output
ASCII
DATASET UNSTRUCTURED_GRID
POINTS 621 float
0.0000000e+00 0.0000000e+00 0.0000000e+00 
0.0000000e+00 0.0000000e+00 4.0000000e+01 
5.0000000e+00 0.0000000e+00 0.0000000e+00 
5.0000000e+00 0.0000000e+00 4.0000000e+01 
5.0000000e+00 1.0000000e+00 0.0000000e+00 
5.0000000e+00 1.0000000e+00 4.0000000e+01 
0.0000000e+00 1.0000000e+00 0.0000000e+00 
0.0000000e+00 1.0000000e+00 4.0000000e+01 
5.0000000e+00 2.0000000e+00 0.0000000e+00 
5.0000000e+00 2.0000000e+00 4.0000000e+01 
3.0000000e+00 2.0000000e+00 0.0000000e+00 
3.0000000e+00 2.0000000e+00 4.0000000e+01 
0.0000000e+00 2.0000000e+00 0.0000000e+00 
0.0000000e+00 2.0000000e+00 4.0000000e+01 
1.5000000e+00 3.0000000e+00 0.0000000e+00 
1.5000000e+00 3.0000000e+00 4.0000000e+01 
7.5000000e-01 3.0000000e+00 0.0000000e+00 
7.5000000e-01 3.0000000e+00 4.0000000e+01 
0.0000000e+00 3.0000000e+00 0.0000000e+00 
0.0000000e+00 3.0000000e+00 4.0000000e+01 
7.5000000e-01 3.0000000e+00 5.0000000e-01 
7.5000000e-01 3.0000000e+00 1.0000000e+00 
7.5000000e-01 3.0000000e+00 1.5000000e+00 
7.5000000e-01 3.0000000e+00 2.0000000e+00 
7.5000000e-01 3.0000000e+00 2.5000000e+00 
7.5000000e-01 3.0000000e+00 3.0000000e+00 
7.5000000e-01 3.0000000e+00 3.5000000e+00 
7.5000000e-01 3.0000000e+00 4.0000000e+00 
7.5000000e-01 3.0000000e+00 4.5000000e+00 
7.5000000e-01 3.0000000e+00 5.0000000e+00 
7.5000000e-01 3.0000000e+00 5.5000000e+00 
7.5000000e-01 3.0000000e+00 6.0000000e+00 
7.5000000e-01 3.0000000e+00 6.5000000e+00 
7.5000000e-01 3.0000000e+00 7.0000000e+00 
7.5000000e-01 3.0000000e+00 7.5000000e+00 
7.5000000e-01 3.0000000e+00 8.0000000e+00 
7.5000000e-01 3.0000000e+00 8.5000000e+00 
7.5000000e-01 3.0000000e+00 9.0000000e+00 
7.5000000e-01 3.0000000e+00 9.5000000e+00 
7.5000000e-01 3.0000000e+00 1.0000000e+01 
7.5000000e-01 3.0000000e+00 1.0500000e+01 
7.5000000e-01 3.0000000e+00 1.1000000e+01 
7.5000000e-01 3.0000000e+00 1.1500000e+01 
7.5000000e-01 3.0000000e+00 1.2000000e+01 
7.5000000e-01 3.0000000e+00 1.2500000e+01 
7.5000000e-01 3.0000000e+00 1.3000000e+01 
7.5000000e-01 3.0000000e+00 1.3500000e+01 
7.5000000e-01 3.0000000e+00 1.4000000e+01 
7.5000000e-01 3.0000000e+00 1.4500000e+01 
7.5000000e-01 3.0000000e+00 1.5000000e+01 
7.5000000e-01 3.0000000e+00 1.5500000e+01 
7.5000000e-01 3.0000000e+00 1.6000000e+01 
7.5000000e-01 3.0000000e+00 1.6500000e+01 
7.5000000e-01 3.0000000e+00 1.7000000e+01 
7.5000000e-01 3.0000000e+00 1.7500000e+01 
7.5000000e-01 3.0000000e+00 1.8000000e+01 
7.5000000e-01 3.0000000e+00 1.8500000e+01 
7.5000000e-01 3.0000000e+00 1.9000000e+01 
7.5000000e-01 3.0000000e+00 1.9500000e+01 
7.5000000e-01 3.0000000e+00 2.0000000e+01 
7.5000000e-01 3.0000000e+00 2.0500000e+01 
7.5000000e-01 3.0000000e+00 2.1000000e+01 
7.5000000e-01 3.0000000e+00 2.1500000e+01 
7.5000000e-01 3.0000000e+00 2.2000000e+01 
7.5000000e-01 3.0000000e+00 2.2500000e+01 
7.5000000e-01 3.0000000e+00 2.3000000e+01 
7.5000000e-01 3.0000000e+00 2.3500000e+01 
7.5000000e-01 3.0000000e+00 2.4000000e+01 
7.5000000e-01 3.0000000e+00 2.4500000e+01 
7.5000000e-01 3.0000000e+00 2.5000000e+01 
7.5000000e-01 3.0000000e+00 2.5500000e+01 
7.5000000e-01 3.0000000e+00 2.6000000e+01 
7.5000000e-01 3.0000000e+00 2.6500000e+01 
7.5000000e-01 3.0000000e+00 2.7000000e+01 
7.5000000e-01 3.0000000e+00 2.7500000e+01 
7.5000000e-01 3.0000000e+00 2.8000000e+01 
7.5000000e-01 3.0000000e+00 2.8500000e+01 
7.5000000e-01 3.0000000e+00 2.9000000e+01 
7.5000000e-01 3.0000000e+00 2.9500000e+01 
7.5000000e-01 3.0000000e+00 3.0000000e+01 
7.5000000e-01 3.0000000e+00 3.0500000e+01 
7.5000000e-01 3.0000000e+00 3.1000000e+01 
7.5000000e-01 3.0000000e+00 3.1500000e+01 
7.5000000e-01 3.0000000e+00 3.2000000e+01 
7.5000000e-01 3.0000000e+00 3.2500000e+01 
7.5000000e-01 3.0000000e+00 3.3000000e+01 
7.5000000e-01 3.0000000e+00 3.3500000e+01 
7.5000000e-01 3.0000000e+00 3.4000000e+01 
7.5000000e-01 3.0000000e+00 3.4500000e+01 
7.5000000e-01 3.0000000e+00 3.5000000e+01 
7.5000000e-01 3.0000000e+00 3.5500000e+01 
7.5000000e-01 3.0000000e+00 3.6000000e+01 
7.5000000e-01 3.0000000e+00 3.6500000e+01 
7.5000000e-01 3.0000000e+00 3.7000000e+01 
7.5000000e-01 3.0000000e+00 3.7500000e+01 
7.5000000e-01 3.0000000e+00 3.8000000e+01 
7.5000000e-01 3.0000000e+00 3.8500000e+01 
7.5000000e-01 3.0000000e+00 3.9000000e+01 
7.5000000e-01 3.0000000e+00 3.9500000e+01 
7.5000000e-01 3.0250001e+00 0.0000000e+00 
7.5000000e-01 3.0250001e+00 5.0000000e-01 
7.5000000e-01 3.0250001e+00 1.0000000e+00 
7.5000000e-01 3.0250001e+00 1.5000000e+00 
7.5000000e-01 3.0250001e+00 2.0000000e+00 
7.5000000e-01 3.0250001e+00 2.5000000e+00 
7.5000000e-01 3.0250001e+00 3.0000000e+00 
7.5000000e-01 3.0250001e+00 3.5000000e+00 
7.5000000e-01 3.0250001e+00 4.0000000e+00 
7.5000000e-01 3.0250001e+00 4.5000000e+00 
7.5000000e-01 3.0250001e+00 5.0000000e+00 
7.5000000e-01 3.0250001e+00 5.5000000e+00 
7.5000000e-01 3.0250001e+00 6.0000000e+00 
7.5000000e-01 3.0250001e+00 6.5000000e+00 
7.5000000e-01 3.0250001e+00 7.0000000e+00 
7.5000000e-01 3.0250001e+00 7.5000000e+00 
7.5000000e-01 3.0250001e+00 8.0000000e+00 
7.5000000e-01 3.0250001e+00 8.5000000e+00 
7.5000000e-01 3.0250001e+00 9.0000000e+00 
7.5000000e-01 3.0250001e+00 9.5000000e+00 
7.5000000e-01 3.0250001e+00 1.0000000e+01 
7.5000000e-01 3.0250001e+00 1.0500000e+01 
7.5000000e-01 3.0250001e+00 1.1000000e+01 
7.5000000e-01 3.0250001e+00 1.1500000e+01 
7.5000000e-01 3.0250001e+00 1.2000000e+01 
7.5000000e-01 3.0250001e+00 1.2500000e+01 
7.5000000e-01 3.0250001e+00 1.3000000e+01 
7.5000000e-01 3.0250001e+00 1.3500000e+01 
7.5000000e-01 3.0250001e+00 1.4000000e+01 
7.5000000e-01 3.0250001e+00 1.4500000e+01 
7.5000000e-01 3.0250001e+00 1.5000000e+01 
7.5000000e-01 3.0250001e+00 1.5500000e+01 
7.5000000e-01 3.0250001e+00 1.6000000e+01 
7.5000000e-01 3.0250001e+00 1.6500000e+01 
7.5000000e-01 3.0250001e+00 1.7000000e+01 
7.5000000e-01 3.0250001e+00 1.7500000e+01 
7.5000000e-01 3.0250001e+00 1.8000000e+01 
7.5000000e-01 3.0250001e+00 1.8500000e+01 
7.5000000e-01 3.0250001e+00 1.9000000e+01 
7.5000000e-01 3.0250001e+00 1.9500000e+01 
7.5000000e-01 3.0250001e+00 2.0000000e+01 
7.5000000e-01 3.0250001e+00 2.0500000e+01 
7.5000000e-01 3.0250001e+00 2.1000000e+01 
7.5000000e-01 3.0250001e+00 2.1500000e+01 
7.5000000e-01 3.0250001e+00 2.2000000e+01 
7.5000000e-01 3.0250001e+00 2.2500000e+01 
7.5000000e-01 3.0250001e+00 2.3000000e+01 
7.5000000e-01 3.0250001e+00 2.3500000e+01 
7.5000000e-01 3.0250001e+00 2.4000000e+01 
7.5000000e-01 3.0250001e+00 2.4500000e+01 
7.5000000e-01 3.0250001e+00 2.5000000e+01 
7.5000000e-01 3.0250001e+00 2.5500000e+01 
7.5000000e-01 3.0250001e+00 2.6000000e+01 
7.5000000e-01 3.0250001e+00 2.6500000e+01 
7.5000000e-01 3.0250001e+00 2.7000000e+01 
7.5000000e-01 3.0250001e+00 2.7500000e+01 
7.5000000e-01 3.0250001e+00 2.8000000e+01 
7.5000000e-01 3.0250001e+00 2.8500000e+01 
7.5000000e-01 3.0250001e+00 2.9000000e+01 
7.5000000e-01 3.0250001e+00 2.9500000e+01 
7.5000000e-01 3.0250001e+00 3.0000000e+01 
7.5000000e-01 3.0250001e+00 3.0500000e+01 
7.5000000e-01 3.0250001e+00 3.1000000e+01 
7.5000000e-01 3.0250001e+00 3.1500000e+01 
7.5000000e-01 3.0250001e+00 3.2000000e+01 
7.5000000e-01 3.0250001e+00 3.2500000e+01 
7.5000000e-01 3.0250001e+00 3.3000000e+01 
7.5000000e-01 3.0250001e+00 3.3500000e+01 
7.5000000e-01 3.0250001e+00 3.4000000e+01 
7.5000000e-01 3.0250001e+00 3.4500000e+01 
7.5000000e-01 3.0250001e+00 3.5000000e+01 
7.5000000e-01 3.0250001e+00 3.5500000e+01 
7.5000000e-01 3.0250001e+00 3.6000000e+01 
7.5000000e-01 3.0250001e+00 3.6500000e+01 
7.5000000e-01 3.0250001e+00 3.7000000e+01 
7.5000000e-01 3.0250001e+00 3.7500000e+01 
7.5000000e-01 3.0250001e+00 3.8000000e+01 
7.5000000e-01 3.0250001e+00 3.8500000e+01 
7.5000000e-01 3.0250001e+00 3.9000000e+01 
7.5000000e-01 3.0250001e+00 3.9500000e+01 
7.5000000e-01 3.0250001e+00 4.0000000e+01 
3.0000000e+00 2.0000000e+00 3.6000000e+01 
8.0487806e-01 3.0000000e+00 3.6000000e+01 
0.0000000e+00 0.0000000e+00 2.0000000e+00 
0.0000000e+00 0.0000000e+00 4.0000000e+00 
0.0000000e+00 0.0000000e+00 6.0000000e+00 
0.0000000e+00 0.0000000e+00 8.0000000e+00 
0.0000000e+00 0.0000000e+00 1.0000000e+01 
0.0000000e+00 0.0000000e+00 1.2000000e+01 
0.0000000e+00 0.0000000e+00 1.4000000e+01 
0.0000000e+00 0.0000000e+00 1.6000000e+01 
0.0000000e+00 0.0000000e+00 1.8000000e+01 
0.0000000e+00 0.0000000e+00 2.0000000e+01 
0.0000000e+00 0.0000000e+00 2.2000000e+01 
0.0000000e+00 0.0000000e+00 2.4000000e+01 
0.0000000e+00 0.0000000e+00 2.6000000e+01 
0.0000000e+00 0.0000000e+00 2.8000000e+01 
0.0000000e+00 0.0000000e+00 3.0000000e+01 
0.0000000e+00 0.0000000e+00 3.2000000e+01 
0.0000000e+00 0.0000000e+00 3.4000000e+01 
0.0000000e+00 0.0000000e+00 3.6000000e+01 
0.0000000e+00 0.0000000e+00 3.8000000e+01 
5.0000000e+00 0.0000000e+00 2.0000000e+00 
5.0000000e+00 0.0000000e+00 4.0000000e+00 
5.0000000e+00 0.0000000e+00 6.0000000e+00 
5.0000000e+00 0.0000000e+00 8.0000000e+00 
5.0000000e+00 0.0000000e+00 1.0000000e+01 
5.0000000e+00 0.0000000e+00 1.2000000e+01 
5.0000000e+00 0.0000000e+00 1.4000000e+01 
5.0000000e+00 0.0000000e+00 1.6000000e+01 
5.0000000e+00 0.0000000e+00 1.8000000e+01 
5.0000000e+00 0.0000000e+00 2.0000000e+01 
5.0000000e+00 0.0000000e+00 2.2000000e+01 
5.0000000e+00 0.0000000e+00 2.4000000e+01 
5.0000000e+00 0.0000000e+00 2.6000000e+01 
5.0000000e+00 0.0000000e+00 2.8000000e+01 
5.0000000e+00 0.0000000e+00 3.0000000e+01 
5.0000000e+00 0.0000000e+00 3.2000000e+01 
5.0000000e+00 0.0000000e+00 3.4000000e+01 
5.0000000e+00 0.0000000e+00 3.6000000e+01 
5.0000000e+00 0.0000000e+00 3.8000000e+01 
1.6666666e+00 0.0000000e+00 0.0000000e+00 
3.3333333e+00 0.0000000e+00 0.0000000e+00 
1.6666666e+00 0.0000000e+00 4.0000000e+01 
3.3333333e+00 0.0000000e+00 4.0000000e+01 
5.0000000e+00 1.0000000e+00 2.0000000e+00 
5.0000000e+00 1.0000000e+00 4.0000000e+00 
5.0000000e+00 1.0000000e+00 6.0000000e+00 
5.0000000e+00 1.0000000e+00 8.0000000e+00 
5.0000000e+00 1.0000000e+00 1.0000000e+01 
5.0000000e+00 1.0000000e+00 1.2000000e+01 
[...]
POINT_DATA 621
FIELD FieldData 3
DISPLACEMENT 3 621  float
0.0000000e+00 0.0000000e+00 0.0000000e+00 
0.0000000e+00 0.0000000e+00 0.0000000e+00 
0.0000000e+00 0.0000000e+00 0.0000000e+00 
0.0000000e+00 0.0000000e+00 0.0000000e+00 
-1.5643498e-06 -2.1184217e-06 1.1960637e-07 
3.3950943e-07 7.7589573e-07 1.3790965e-06 
0.0000000e+00 1.8509427e-05 0.0000000e+00 
0.0000000e+00 -1.2409561e-05 0.0000000e+00 
-6.1362766e-06 -2.0118287e-06 7.7820417e-08 
-2.6498487e-06 2.0965581e-06 -1.3009285e-06 
-2.0455630e-06 -1.0719005e-05 -1.2592325e-05 
-1.5716789e-06 -2.7794374e-06 -5.9315521e-06 
0.0000000e+00 3.2576932e-05 0.0000000e+00 
0.0000000e+00 -2.2808879e-05 0.0000000e+00 
8.9782752e-06 2.0558829e-05 -5.8955637e-05 
-1.1680571e-05 -1.8606843e-05 -2.6587948e-05 
4.2592119e-06 7.4634452e-05 -1.8560722e-05 
3.2892272e-06 -3.9993658e-05 -3.7037149e-05 
0.0000000e+00 4.6192894e-05 0.0000000e+00 
0.0000000e+00 -3.6214700e-05 0.0000000e+00 
2.8312706e-05 7.8164521e-05 -4.7071248e-05 
3.7408739e-05 8.8507775e-05 -3.8604940e-05 
4.2929736e-05 1.0295523e-04 -3.4075532e-05 
4.5899124e-05 1.2156862e-04 -2.1856133e-05 
4.7591198e-05 1.4349713e-04 6.3452958e-09 
4.3419168e-05 1.6378879e-04 1.3982470e-05 
2.9765015e-05 1.7074881e-04 3.4630615e-05 
1.9101586e-05 1.3390793e-04 5.3337943e-05 
-1.3801552e-05 1.1214881e-05 8.9413807e-05 
-2.5046760e-05 -2.3784324e-04 1.2466159e-04 
-5.8716436e-05 -6.7399407e-04 1.7095037e-04 
-1.1445817e-04 -1.3387495e-03 1.1309510e-04 
-2.5083634e-04 -2.2499361e-03 1.9048946e-04 
-2.5201461e-04 -3.2368295e-03 1.7295509e-04 
-1.3650740e-04 -4.0050438e-03 1.0284521e-04 
-1.0113041e-04 -4.0197922e-03 1.0111761e-04 
-2.4372543e-04 -3.8444635e-03 3.1789568e-05 
-3.1531334e-04 -3.8385023e-03 1.0004407e-05 
-2.0247209e-04 -4.1051428e-03 -3.1463733e-05 
-4.7003661e-05 -4.1389754e-03 -8.0833350e-05 
-8.0950565e-05 -3.4481843e-03 -1.5966730e-04 
-1.8017589e-04 -2.4165891e-03 -1.7194249e-04 
-1.8969827e-04 -1.5137773e-03 -1.4909846e-04 
-7.9916659e-05 -8.2599174e-04 -7.7731958e-05 
-4.3645705e-05 -3.9128255e-04 -1.0961022e-04 
-2.9819739e-05 -1.4653898e-04 -7.6938588e-05 
-2.9916542e-05 -3.0573741e-05 -5.6455352e-05 
-2.0908754e-05 7.2776957e-06 -3.9499897e-05 
-1.2742255e-05 6.0501077e-07 -2.4803086e-05 
-4.9721089e-06 -2.5712079e-05 -1.5497326e-05 
-3.4653574e-06 -5.4461554e-05 -1.5857730e-05 
-9.8494975e-06 -7.8692588e-05 -1.4444864e-05 
-1.2806167e-05 -9.4791554e-05 5.2634550e-06 
-1.4813239e-05 -1.0471020e-04 2.5186204e-05 
-3.3213801e-05 -1.1183075e-04 5.7951649e-05 
-5.1704541e-05 -1.1609493e-04 8.3211802e-05 
-5.1715484e-05 -1.1618719e-04 6.2291139e-05 
-5.5044529e-05 -1.1149432e-04 2.8966157e-05 
-3.9396880e-05 -1.0033573e-04 -1.5255673e-05 
-1.6666050e-05 -8.1121194e-05 -6.1210085e-05 
2.6855569e-06 -5.0580380e-05 -7.5784221e-05 
1.6639982e-05 -1.1559613e-05 -7.6170836e-05 
3.1581589e-05 3.4366145e-05 -7.8515288e-05 
4.1018062e-05 8.2898827e-05 -6.7249821e-05 
4.9862716e-05 1.2900512e-04 -4.4205135e-05 
5.3828488e-05 1.6581482e-04 -1.7646020e-05 
4.1566691e-05 1.8048129e-04 1.0587137e-05 
2.9521208e-05 1.4352481e-04 3.8170227e-05 
-1.3103056e-05 9.8315768e-06 6.9442023e-05 
-2.2296968e-05 -2.6490667e-04 1.0041820e-04 
-3.7073780e-05 -7.4587739e-04 1.3713262e-04 
-8.4297113e-05 -1.4684948e-03 6.8487672e-05 
-2.2914744e-04 -2.4368993e-03 1.6793571e-04 
-2.3319766e-04 -3.4338585e-03 1.6693227e-04 
-1.3423242e-04 -4.0954687e-03 1.3587401e-04 
-1.0298594e-04 -4.0203058e-03 1.8425942e-04 
-2.5277093e-04 -3.8760144e-03 1.2969479e-04 
-3.2103006e-04 -3.9406857e-03 1.1208421e-04 
-2.1281975e-04 -4.2410474e-03 7.2980591e-05 
-7.6797027e-05 -4.1738171e-03 4.0255054e-05 
-1.2393211e-04 -3.3858963e-03 -1.0275906e-04 
-2.3021970e-04 -2.3555176e-03 -1.6323592e-04 
-2.2283316e-04 -1.4784798e-03 -1.9044810e-04 
-1.0184199e-04 -8.1384182e-04 -1.6709909e-04 
-5.4444179e-05 -3.8342600e-04 -2.0990272e-04 
-2.9720830e-05 -1.2616046e-04 -1.8081706e-04 
-1.7950495e-05 1.5369960e-05 -1.6615659e-04 
2.3890821e-06 8.5744978e-05 -1.4110158e-04 
2.4145302e-05 1.1190551e-04 -9.3216157e-05 
4.1723910e-05 1.1449084e-04 -4.4281933e-05 
3.4493398e-05 1.0490762e-04 -7.3932065e-06 
2.5293986e-05 8.7561515e-05 2.7656784e-05 
2.0493973e-05 6.4010470e-05 4.9603572e-05 
1.3877790e-05 3.7491289e-05 5.9385955e-05 
3.8405087e-06 1.1272984e-05 6.7025103e-05 
-5.6535855e-06 -1.0449118e-05 6.1708379e-05 
-8.7882054e-06 -2.5744703e-05 4.4720877e-05 
-1.2832729e-05 -3.4865403e-05 2.0977659e-05 
-8.6330256e-06 -3.9117400e-05 -3.5039143e-06 
0.0000000e+00 7.4686286e-05 0.0000000e+00 
0.0000000e+00 7.8307559e-05 0.0000000e+00 
0.0000000e+00 8.8383706e-05 0.0000000e+00 
0.0000000e+00 1.0297463e-04 0.0000000e+00 
0.0000000e+00 1.2173985e-04 0.0000000e+00 
0.0000000e+00 1.4386381e-04 0.0000000e+00 
0.0000000e+00 1.6484314e-04 0.0000000e+00 
0.0000000e+00 1.7140007e-04 0.0000000e+00 
0.0000000e+00 1.3394872e-04 0.0000000e+00 
0.0000000e+00 1.2322716e-05 0.0000000e+00 
0.0000000e+00 -2.3850422e-04 0.0000000e+00 
0.0000000e+00 -6.7546678e-04 0.0000000e+00 
0.0000000e+00 -1.3477784e-03 0.0000000e+00 
0.0000000e+00 -2.2574107e-03 0.0000000e+00 
0.0000000e+00 -3.2684230e-03 0.0000000e+00 
0.0000000e+00 -4.0288675e-03 0.0000000e+00 
0.0000000e+00 -4.0503633e-03 0.0000000e+00 
0.0000000e+00 -3.8582548e-03 0.0000000e+00 
0.0000000e+00 -3.8691554e-03 0.0000000e+00 
0.0000000e+00 -4.1251411e-03 0.0000000e+00 
0.0000000e+00 -4.1736141e-03 0.0000000e+00 
0.0000000e+00 -3.4663703e-03 0.0000000e+00 
0.0000000e+00 -2.4351862e-03 0.0000000e+00 
0.0000000e+00 -1.5160425e-03 0.0000000e+00 
0.0000000e+00 -8.3032897e-04 0.0000000e+00 
0.0000000e+00 -3.9113802e-04 0.0000000e+00 
0.0000000e+00 -1.4563085e-04 0.0000000e+00 
0.0000000e+00 -2.9611960e-05 0.0000000e+00 
0.0000000e+00 7.6933138e-06 0.0000000e+00 
0.0000000e+00 9.7860891e-07 0.0000000e+00 
0.0000000e+00 -2.5192485e-05 0.0000000e+00 
0.0000000e+00 -5.4285774e-05 0.0000000e+00 
0.0000000e+00 -7.8432509e-05 0.0000000e+00 
0.0000000e+00 -9.4735515e-05 0.0000000e+00 
0.0000000e+00 -1.0490957e-04 0.0000000e+00 
0.0000000e+00 -1.1192552e-04 0.0000000e+00 
0.0000000e+00 -1.1609251e-04 0.0000000e+00 
0.0000000e+00 -1.1627143e-04 0.0000000e+00 
0.0000000e+00 -1.1150543e-04 0.0000000e+00 
0.0000000e+00 -1.0039976e-04 0.0000000e+00 
0.0000000e+00 -8.0793448e-05 0.0000000e+00 
0.0000000e+00 -5.0630650e-05 0.0000000e+00 
0.0000000e+00 -1.1438022e-05 0.0000000e+00 
0.0000000e+00 3.4396013e-05 0.0000000e+00 
0.0000000e+00 8.2932987e-05 0.0000000e+00 
0.0000000e+00 1.2932088e-04 0.0000000e+00 
0.0000000e+00 1.6674344e-04 0.0000000e+00 
0.0000000e+00 1.8133793e-04 0.0000000e+00 
0.0000000e+00 1.4368199e-04 0.0000000e+00 
0.0000000e+00 1.0990968e-05 0.0000000e+00 
0.0000000e+00 -2.6608887e-04 0.0000000e+00 
0.0000000e+00 -7.4781460e-04 0.0000000e+00 
0.0000000e+00 -1.4791866e-03 0.0000000e+00 
0.0000000e+00 -2.4459425e-03 0.0000000e+00 
0.0000000e+00 -3.4690942e-03 0.0000000e+00 
0.0000000e+00 -4.1195867e-03 0.0000000e+00 
0.0000000e+00 -4.0504583e-03 0.0000000e+00 
0.0000000e+00 -3.8895700e-03 0.0000000e+00 
0.0000000e+00 -3.9728093e-03 0.0000000e+00 
0.0000000e+00 -4.2626560e-03 0.0000000e+00 
0.0000000e+00 -4.2078584e-03 0.0000000e+00 
0.0000000e+00 -3.4023402e-03 0.0000000e+00 
0.0000000e+00 -2.3717093e-03 0.0000000e+00 
0.0000000e+00 -1.4802009e-03 0.0000000e+00 
0.0000000e+00 -8.1733317e-04 0.0000000e+00 
0.0000000e+00 -3.8320257e-04 0.0000000e+00 
0.0000000e+00 -1.2522226e-04 0.0000000e+00 
0.0000000e+00 1.6341843e-05 0.0000000e+00 
0.0000000e+00 8.6108783e-05 0.0000000e+00 
0.0000000e+00 1.1239914e-04 0.0000000e+00 
0.0000000e+00 1.1486047e-04 0.0000000e+00 
0.0000000e+00 1.0502738e-04 0.0000000e+00 
0.0000000e+00 8.7460110e-05 0.0000000e+00 
0.0000000e+00 6.4010630e-05 0.0000000e+00 
0.0000000e+00 3.7478734e-05 0.0000000e+00 
0.0000000e+00 1.1399834e-05 0.0000000e+00 
0.0000000e+00 -1.0349388e-05 0.0000000e+00 
0.0000000e+00 -2.5710073e-05 0.0000000e+00 
0.0000000e+00 -3.4857905e-05 0.0000000e+00 
0.0000000e+00 -3.9107894e-05 0.0000000e+00 
0.0000000e+00 -4.0109695e-05 0.0000000e+00 
3.0128647e-06 2.6470418e-05 3.6565236e-06 
2.6539628e-05 8.9676134e-05 2.7739874e-05 
0.0000000e+00 0.0000000e+00 0.0000000e+00 
0.0000000e+00 0.0000000e+00 0.0000000e+00 
0.0000000e+00 0.0000000e+00 0.0000000e+00 
0.0000000e+00 0.0000000e+00 0.0000000e+00 
0.0000000e+00 0.0000000e+00 0.0000000e+00 
0.0000000e+00 0.0000000e+00 0.0000000e+00 
0.0000000e+00 0.0000000e+00 0.0000000e+00 
0.0000000e+00 0.0000000e+00 0.0000000e+00 
0.0000000e+00 0.0000000e+00 0.0000000e+00 
0.0000000e+00 0.0000000e+00 0.0000000e+00 
0.0000000e+00 0.0000000e+00 0.0000000e+00 
0.0000000e+00 0.0000000e+00 0.0000000e+00 
0.0000000e+00 0.0000000e+00 0.0000000e+00 
0.0000000e+00 0.0000000e+00 0.0000000e+00 
0.0000000e+00 0.0000000e+00 0.0000000e+00 
0.0000000e+00 0.0000000e+00 0.0000000e+00 
0.0000000e+00 0.0000000e+00 0.0000000e+00 
0.0000000e+00 0.0000000e+00 0.0000000e+00 
0.0000000e+00 0.0000000e+00 0.0000000e+00 
0.0000000e+00 0.0000000e+00 0.0000000e+00 
0.0000000e+00 0.0000000e+00 0.0000000e+00 
0.0000000e+00 0.0000000e+00 0.0000000e+00 
0.0000000e+00 0.0000000e+00 0.0000000e+00 
0.0000000e+00 0.0000000e+00 0.0000000e+00 
0.0000000e+00 0.0000000e+00 0.0000000e+00 
0.0000000e+00 0.0000000e+00 0.0000000e+00 
0.0000000e+00 0.0000000e+00 0.0000000e+00 
0.0000000e+00 0.0000000e+00 0.0000000e+00 
0.0000000e+00 0.0000000e+00 0.0000000e+00 
0.0000000e+00 0.0000000e+00 0.0000000e+00 
0.0000000e+00 0.0000000e+00 0.0000000e+00 
0.0000000e+00 0.0000000e+00 0.0000000e+00 
0.0000000e+00 0.0000000e+00 0.0000000e+00 
0.0000000e+00 0.0000000e+00 0.0000000e+00 
0.0000000e+00 0.0000000e+00 0.0000000e+00 
0.0000000e+00 0.0000000e+00 0.0000000e+00 
0.0000000e+00 0.0000000e+00 0.0000000e+00 
0.0000000e+00 0.0000000e+00 0.0000000e+00 
0.0000000e+00 0.0000000e+00 0.0000000e+00 
0.0000000e+00 0.0000000e+00 0.0000000e+00 
0.0000000e+00 0.0000000e+00 0.0000000e+00 
0.0000000e+00 0.0000000e+00 0.0000000e+00 
-4.1045073e-06 -2.6602502e-06 -4.0281261e-06 
6.7971246e-06 9.3787264e-07 -1.0784329e-05 
3.0436344e-05 -3.2431362e-06 -1.3976641e-05 
4.5353328e-05 -1.3707556e-05 -7.5379685e-06 
4.5147768e-05 -8.7756262e-06 2.1150695e-06 
1.8926656e-05 -7.8002353e-07 -1.7454095e-06 
5.3288204e-06 2.2782629e-06 4.3568011e-06 
5.2081282e-06 1.2996109e-06 8.0222417e-06 
1.9856634e-06 -5.2919577e-06 5.0590229e-06 
-3.4004206e-06 -4.7065555e-06 2.2729128e-06 
-5.9185400e-06 3.9276697e-06 -1.4107753e-06 
6.5287013e-06 -2.1001611e-06 -6.9407156e-06 
2.7845868e-05 -5.4867701e-06 -7.3096985e-06 
4.8538139e-05 -9.0597841e-06 -2.9480234e-06 
4.7367976e-05 -1.2474467e-05 3.8225289e-06 
2.1302134e-05 -5.3320123e-06 3.8346648e-06 
1.4273002e-06 6.3841962e-06 8.8717070e-06 
-3.1420561e-06 2.2753377e-06 4.9165774e-06 
1.4658129e-06 -4.7466579e-06 2.9708833e-06 
0.0000000e+00 4.3769116e-05 0.0000000e+00 
0.0000000e+00 3.0856812e-05 0.0000000e+00 
0.0000000e+00 -1.8872884e-04 0.0000000e+00 
0.0000000e+00 -5.1432021e-04 0.0000000e+00 
0.0000000e+00 -4.7620037e-04 0.0000000e+00 
0.0000000e+00 -1.6069118e-04 0.0000000e+00 
0.0000000e+00 -2.9658981e-05 0.0000000e+00 
0.0000000e+00 -3.2679527e-05 0.0000000e+00 
0.0000000e+00 -4.1009440e-05 0.0000000e+00 
0.0000000e+00 -3.9883169e-05 0.0000000e+00 
0.0000000e+00 2.9569832e-05 0.0000000e+00 
0.0000000e+00 3.1779920e-05 0.0000000e+00 
0.0000000e+00 -1.8746628e-04 0.0000000e+00 
0.0000000e+00 -4.9840607e-04 0.0000000e+00 
0.0000000e+00 -5.1158998e-04 0.0000000e+00 
0.0000000e+00 -1.8464700e-04 0.0000000e+00 
0.0000000e+00 9.1035508e-06 0.0000000e+00 
0.0000000e+00 3.8846418e-05 0.0000000e+00 
0.0000000e+00 -9.7576922e-06 0.0000000e+00 
-3.6202100e-06 -6.7678593e-06 -1.5879258e-06 
-6.9668222e-06 2.2805989e-06 1.2921888e-06 
-1.5816744e-07 -9.6716963e-07 -2.0738994e-06 
1.5649414e-06 -7.8486846e-06 8.8454811e-07 
1.7389283e-06 -2.1091316e-06 -8.0867503e-06 
1.8876603e-05 1.1001287e-06 -1.7100754e-05 
3.7704642e-05 1.0602567e-06 -5.9159806e-06 
4.8926231e-05 -2.2426686e-06 -4.9689470e-06 
3.3745098e-05 -8.5401771e-06 -7.7859170e-07 
1.1583000e-05 1.5010023e-06 -1.0031059e-05 
1.7565125e-06 3.4771681e-06 4.4431131e-06 
4.6315304e-06 -4.1834309e-07 1.2305056e-05 
-2.4519784e-06 -7.3927094e-06 9.4497673e-06 
-1.0897351e-05 -4.7222165e-06 -1.8178258e-06 
-4.0147734e-06 5.0180633e-06 -8.6737773e-06 
2.2371278e-05 -2.7823301e-06 -8.5550319e-06 
3.0177684e-05 -2.9664752e-06 -4.3575503e-07 
3.9450231e-05 -8.5853981e-06 4.5255506e-06 
2.5946223e-05 -1.0025455e-05 4.9320929e-06 
4.9871696e-06 -1.2736951e-06 -7.9478414e-06 
3.5275677e-06 6.6488615e-06 3.2568030e-06 
1.7182945e-06 7.7253794e-08 7.3214856e-06 
3.3435103e-06 -4.4441895e-06 5.1054367e-06 
8.6290527e-08 1.3843058e-05 -1.3643140e-05 
0.0000000e+00 8.3055209e-05 0.0000000e+00 
0.0000000e+00 6.5733009e-05 0.0000000e+00 
0.0000000e+00 -4.0519281e-04 0.0000000e+00 
0.0000000e+00 -1.1453800e-03 0.0000000e+00 
0.0000000e+00 -1.0803716e-03 0.0000000e+00 
0.0000000e+00 -3.0131900e-04 0.0000000e+00 
0.0000000e+00 -3.6834066e-05 0.0000000e+00 
0.0000000e+00 -5.9157086e-05 0.0000000e+00 
0.0000000e+00 -7.1055467e-05 0.0000000e+00 
0.0000000e+00 -6.9479618e-05 0.0000000e+00 
0.0000000e+00 5.6693134e-05 0.0000000e+00 
0.0000000e+00 6.7157576e-05 0.0000000e+00 
0.0000000e+00 -4.1976149e-04 0.0000000e+00 
0.0000000e+00 -1.1292499e-03 0.0000000e+00 
0.0000000e+00 -1.1361873e-03 0.0000000e+00 
0.0000000e+00 -3.3715283e-04 0.0000000e+00 
0.0000000e+00 2.4063385e-05 0.0000000e+00 
0.0000000e+00 6.5050277e-05 0.0000000e+00 
0.0000000e+00 -1.5295900e-05 0.0000000e+00 
-2.4604626e-06 -1.3014130e-05 1.9425774e-07 
6.5879132e-05 7.6014032e-05 -1.6515934e-05 
4.8323021e-05 1.1605083e-04 7.2570314e-05 
-2.6274173e-04 -3.9554926e-04 3.1917440e-04 
-6.4331177e-04 -1.2935699e-03 1.0200348e-04 
-5.7905348e-04 -1.3969231e-03 -1.8241600e-04 
-1.7356896e-04 -2.2967883e-04 -2.0765743e-04 
1.9501292e-06 -1.6528798e-05 -4.5907247e-05 
-2.1407875e-05 -5.4973756e-05 -2.0907430e-05 
-7.1900336e-05 -8.1919607e-05 9.8297824e-05 
-2.3766332e-05 -6.0156130e-05 -9.5644667e-05 
5.7586658e-05 3.4578672e-05 -9.1144808e-05 
5.6530946e-05 1.4818272e-04 7.2642666e-05 
-2.5000446e-04 -4.0382927e-04 2.7308258e-04 
-6.4256706e-04 -1.2548990e-03 1.7985117e-04 
-6.1909179e-04 -1.4373357e-03 -4.0593521e-05 
-1.8086709e-04 -2.7835209e-04 -3.0485992e-04 
2.5997695e-05 4.2909796e-05 -1.7283148e-04 
3.2106786e-05 6.8109832e-05 3.7567832e-05 
-1.8234653e-06 -9.2873097e-06 7.4598807e-05 
0.0000000e+00 1.0782873e-04 0.0000000e+00 
0.0000000e+00 1.2874891e-04 0.0000000e+00 
0.0000000e+00 -7.7757786e-04 0.0000000e+00 
0.0000000e+00 -2.2542372e-03 0.0000000e+00 
0.0000000e+00 -2.1083443e-03 0.0000000e+00 
0.0000000e+00 -5.0977879e-04 0.0000000e+00 
0.0000000e+00 -9.6056226e-07 0.0000000e+00 
0.0000000e+00 -8.7170556e-05 0.0000000e+00 
0.0000000e+00 -8.3401399e-05 0.0000000e+00 
0.0000000e+00 -8.3117025e-05 0.0000000e+00 
0.0000000e+00 6.8390371e-05 0.0000000e+00 
0.0000000e+00 1.3232285e-04 0.0000000e+00 
0.0000000e+00 -8.5009093e-04 0.0000000e+00 
0.0000000e+00 -2.2779233e-03 0.0000000e+00 
0.0000000e+00 -2.1587803e-03 0.0000000e+00 
0.0000000e+00 -5.2407745e-04 0.0000000e+00 
0.0000000e+00 6.5074630e-05 0.0000000e+00 
0.0000000e+00 8.1414437e-05 0.0000000e+00 
0.0000000e+00 -1.8153256e-05 0.0000000e+00 
9.4475763e-06 1.9160660e-05 -1.0514648e-05 
2.9037557e-05 3.5512592e-05 4.4729304e-06 
5.1058894e-05 -2.5860092e-05 5.3103531e-06 
5.3197218e-05 -1.0357582e-04 -2.1951713e-05 
4.7454876e-05 -8.3078543e-05 -8.3938457e-06 
3.3549692e-05 -4.0575575e-05 -2.7882345e-06 
7.6643746e-06 -6.5800941e-06 -8.6826003e-06 
-6.8021272e-06 -4.1280850e-06 3.3794752e-06 
-1.7545039e-05 -1.7453376e-05 1.3464654e-05 
-8.0907748e-06 -2.3076756e-05 -1.2195905e-05 
2.8038564e-06 1.5067550e-05 -1.5199944e-05 
2.7465838e-05 4.5161094e-05 4.6824680e-06 
6.4985477e-05 -3.4552653e-05 4.6411792e-06 
6.1571256e-05 -7.9410580e-05 9.8404862e-06 
3.5324585e-05 -1.0970188e-04 2.0912325e-05 
2.5615160e-05 -7.1344846e-05 -1.4601990e-05 
-3.7563140e-07 2.0229209e-05 -3.7038466e-05 
1.4690268e-06 -4.1697381e-06 1.4163679e-05 
2.0578011e-05 5.4462675e-05 2.2442893e-05 
0.0000000e+00 0.0000000e+00 0.0000000e+00 
0.0000000e+00 0.0000000e+00 0.0000000e+00 
0.0000000e+00 0.0000000e+00 0.0000000e+00 
0.0000000e+00 0.0000000e+00 0.0000000e+00 
0.0000000e+00 0.0000000e+00 0.0000000e+00 
0.0000000e+00 0.0000000e+00 0.0000000e+00 
0.0000000e+00 0.0000000e+00 0.0000000e+00 
0.0000000e+00 0.0000000e+00 0.0000000e+00 
0.0000000e+00 0.0000000e+00 0.0000000e+00 
0.0000000e+00 0.0000000e+00 0.0000000e+00 
0.0000000e+00 0.0000000e+00 0.0000000e+00 
0.0000000e+00 0.0000000e+00 0.0000000e+00 
0.0000000e+00 0.0000000e+00 0.0000000e+00 
0.0000000e+00 0.0000000e+00 0.0000000e+00 
0.0000000e+00 0.0000000e+00 0.0000000e+00 
0.0000000e+00 0.0000000e+00 0.0000000e+00 
0.0000000e+00 0.0000000e+00 0.0000000e+00 
0.0000000e+00 0.0000000e+00 0.0000000e+00 
0.0000000e+00 0.0000000e+00 0.0000000e+00 
0.0000000e+00 0.0000000e+00 0.0000000e+00 
0.0000000e+00 0.0000000e+00 0.0000000e+00 
0.0000000e+00 0.0000000e+00 0.0000000e+00 
0.0000000e+00 0.0000000e+00 0.0000000e+00 
0.0000000e+00 0.0000000e+00 0.0000000e+00 
0.0000000e+00 0.0000000e+00 0.0000000e+00 
0.0000000e+00 0.0000000e+00 0.0000000e+00 
0.0000000e+00 0.0000000e+00 0.0000000e+00 
0.0000000e+00 0.0000000e+00 0.0000000e+00 
0.0000000e+00 0.0000000e+00 0.0000000e+00 
0.0000000e+00 0.0000000e+00 0.0000000e+00 
0.0000000e+00 0.0000000e+00 0.0000000e+00 
0.0000000e+00 0.0000000e+00 0.0000000e+00 
0.0000000e+00 0.0000000e+00 0.0000000e+00 
0.0000000e+00 0.0000000e+00 0.0000000e+00 
0.0000000e+00 0.0000000e+00 0.0000000e+00 
0.0000000e+00 0.0000000e+00 0.0000000e+00 
0.0000000e+00 0.0000000e+00 0.0000000e+00 
0.0000000e+00 0.0000000e+00 0.0000000e+00 
0.0000000e+00 0.0000000e+00 0.0000000e+00 
0.0000000e+00 0.0000000e+00 0.0000000e+00 
0.0000000e+00 0.0000000e+00 0.0000000e+00 
0.0000000e+00 0.0000000e+00 0.0000000e+00 
-1.8487917e-06 -5.5391627e-07 -7.2301179e-07 
3.9862307e-06 -8.2597938e-07 9.5838027e-07 
2.8146945e-07 -3.6757283e-06 1.6762266e-06 
-1.3453432e-06 1.6190744e-06 -1.5332478e-06 
6.0294701e-06 -5.7130419e-06 -4.0691311e-06 
2.3669489e-05 -8.5584797e-06 -2.9358737e-06 
2.5726094e-05 -1.1694707e-05 -7.0739344e-07 
2.2285516e-05 -1.1469916e-05 2.7736751e-06 
3.9325187e-06 -4.3460170e-07 5.1329366e-06 
-3.4823024e-06 3.0481908e-06 3.4608111e-06 
-7.9493952e-07 -6.7494710e-07 1.6696472e-06 
1.3393372e-06 -1.4329803e-06 1.7402897e-06 
-2.6541336e-06 -1.1826023e-06 -3.6078536e-06 
8.3594214e-06 -3.4407071e-06 -8.6888849e-06 
2.6546977e-05 -1.0464876e-05 -6.6468515e-06 
2.2859924e-05 -1.1948535e-05 -4.5091753e-07 
1.9080591e-05 -7.4877507e-06 4.3952400e-07 
2.2281815e-06 4.0378345e-07 2.4830013e-06 
3.4419718e-06 -1.5951306e-06 3.4015145e-06 
-2.3399327e-06 1.0421198e-07 1.1224612e-06 
-1.7786735e-06 1.4697573e-05 -2.1307253e-06 
6.9989765e-09 -7.6260867e-06 2.7736394e-06 
3.8572303e-05 1.1254272e-05 -1.5882528e-05 
8.3222170e-05 -1.5913636e-05 -5.9714871e-06 
2.3753002e-05 -1.0941017e-06 6.6838779e-06 
6.6044905e-08 -1.1602041e-06 4.7358499e-06 
-1.8124432e-06 -3.6633562e-06 8.9242474e-07 
2.9987139e-05 1.5160992e-05 -1.3779114e-05 
8.1508209e-05 -2.0207992e-05 4.6989776e-06 
2.2098997e-05 -5.6592312e-06 7.4839650e-06 
1.1335858e-04 -2.3358497e-04 -5.3152708e-05 
9.0618516e-05 -1.8343375e-04 4.0192033e-05 
9.1902257e-06 -1.9376401e-05 2.4859860e-06 
-3.0989879e-06 -3.3850851e-05 7.6214542e-06 
1.0070509e-05 3.5115212e-05 -2.3071016e-06 
1.1717946e-04 -2.0462443e-04 -3.4352364e-05 
8.3053659e-05 -2.1567549e-04 4.4150966e-05 
6.3942703e-06 2.4118726e-05 5.2358923e-06 
-1.1323510e-06 1.6625208e-05 4.5169413e-06 
1.2908916e-06 1.6132866e-05 -2.9163969e-06 
-1.4473354e-06 1.1909389e-06 3.5304788e-06 
1.2125612e-06 3.9917079e-05 2.7696390e-06 
5.6256999e-05 -1.7074304e-05 -1.2469836e-05 
3.8876537e-05 -1.3846306e-05 9.2642871e-09 
5.6141357e-06 -8.3770243e-07 3.9866759e-06 
-3.9939373e-06 -1.0778573e-05 1.8771464e-06 
3.5911396e-06 1.2537168e-05 -1.2839417e-06 
4.9169867e-05 -1.1199299e-05 -4.0448140e-06 