# vtk DataFile Version 4.0
vtk output
ASCII
DATASET UNSTRUCTURED_GRID
POINTS 661 float
0.0000000e+00 0.0000000e+00 0.0000000e+00 
0.0000000e+00 0.0000000e+00 4.0000000e+01 
5.0000000e+00 0.0000000e+00 0.0000000e+00 
5.0000000e+00 0.0000000e+00 4.0000000e+01 
5.0000000e+00 1.0000000e+00 0.0000000e+00 
5.0000000e+00 1.0000000e+00 4.0000000e+01 
0.0000000e+00 1.0000000e+00 0.0000000e+00 
0.0000000e+00 1.0000000e+00 4.0000000e+01 
5.0000000e+00 2.0000000e+00 0.0000000e+00 
5.0000000e+00 2.0000000e+00 4.0000000e+01 
3.0000000e+00 2.0000000e+00 0.0000000e+00 
3.0000000e+00 2.0000000e+00 4.0000000e+01 
0.0000000e+00 2.0000000e+00 0.0000000e+00 
0.0000000e+00 2.0000000e+00 4.0000000e+01 
1.5000000e+00 3.0000000e+00 0.0000000e+00 
1.5000000e+00 3.0000000e+00 4.0000000e+01 
7.5000000e-01 3.0000000e+00 0.0000000e+00 
7.5000000e-01 3.0000000e+00 4.0000000e+01 
0.0000000e+00 3.0000000e+00 0.0000000e+00 
0.0000000e+00 3.0000000e+00 4.0000000e+01 
7.5000000e-01 3.0000000e+00 5.0000000e-01 
7.5000000e-01 3.0000000e+00 1.0000000e+00 
7.5000000e-01 3.0000000e+00 1.5000000e+00 
7.5000000e-01 3.0000000e+00 2.0000000e+00 
7.5000000e-01 3.0000000e+00 2.5000000e+00 
7.5000000e-01 3.0000000e+00 3.0000000e+00 
7.5000000e-01 3.0000000e+00 3.5000000e+00 
7.5000000e-01 3.0000000e+00 4.0000000e+00 
7.5000000e-01 3.0000000e+00 4.5000000e+00 
7.5000000e-01 3.0000000e+00 5.0000000e+00 
7.5000000e-01 3.0000000e+00 5.5000000e+00 
7.5000000e-01 3.0000000e+00 6.0000000e+00 
7.5000000e-01 3.0000000e+00 6.5000000e+00 
7.5000000e-01 3.0000000e+00 7.0000000e+00 
7.5000000e-01 3.0000000e+00 7.5000000e+00 
7.5000000e-01 3.0000000e+00 8.0000000e+00 
7.5000000e-01 3.0000000e+00 8.5000000e+00 
7.5000000e-01 3.0000000e+00 9.0000000e+00 
7.5000000e-01 3.0000000e+00 9.5000000e+00 
7.5000000e-01 3.0000000e+00 1.0000000e+01 
7.5000000e-01 3.0000000e+00 1.0500000e+01 
7.5000000e-01 3.0000000e+00 1.1000000e+01 
7.5000000e-01 3.0000000e+00 1.1500000e+01 
7.5000000e-01 3.0000000e+00 1.2000000e+01 
7.5000000e-01 3.0000000e+00 1.2500000e+01 
7.5000000e-01 3.0000000e+00 1.3000000e+01 
7.5000000e-01 3.0000000e+00 1.3500000e+01 
7.5000000e-01 3.0000000e+00 1.4000000e+01 
7.5000000e-01 3.0000000e+00 1.4500000e+01 
7.5000000e-01 3.0000000e+00 1.5000000e+01 
7.5000000e-01 3.0000000e+00 1.5500000e+01 
7.5000000e-01 3.0000000e+00 1.6000000e+01 
7.5000000e-01 3.0000000e+00 1.6500000e+01 
7.5000000e-01 3.0000000e+00 1.7000000e+01 
7.5000000e-01 3.0000000e+00 1.7500000e+01 
7.5000000e-01 3.0000000e+00 1.8000000e+01 
7.5000000e-01 3.0000000e+00 1.8500000e+01 
7.5000000e-01 3.0000000e+00 1.9000000e+01 
7.5000000e-01 3.0000000e+00 1.9500000e+01 
7.5000000e-01 3.0000000e+00 2.0000000e+01 
7.5000000e-01 3.0000000e+00 2.0500000e+01 
7.5000000e-01 3.0000000e+00 2.1000000e+01 
7.5000000e-01 3.0000000e+00 2.1500000e+01 
7.5000000e-01 3.0000000e+00 2.2000000e+01 
7.5000000e-01 3.0000000e+00 2.2500000e+01 
7.5000000e-01 3.0000000e+00 2.3000000e+01 
7.5000000e-01 3.0000000e+00 2.3500000e+01 
7.5000000e-01 3.0000000e+00 2.4000000e+01 
7.5000000e-01 3.0000000e+00 2.4500000e+01 
7.5000000e-01 3.0000000e+00 2.5000000e+01 
7.5000000e-01 3.0000000e+00 2.5500000e+01 
7.5000000e-01 3.0000000e+00 2.6000000e+01 
7.5000000e-01 3.0000000e+00 2.6500000e+01 
7.5000000e-01 3.0000000e+00 2.7000000e+01 
7.5000000e-01 3.0000000e+00 2.7500000e+01 
7.5000000e-01 3.0000000e+00 2.8000000e+01 
7.5000000e-01 3.0000000e+00 2.8500000e+01 
7.5000000e-01 3.0000000e+00 2.9000000e+01 
7.5000000e-01 3.0000000e+00 2.9500000e+01 
7.5000000e-01 3.0000000e+00 3.0000000e+01 
7.5000000e-01 3.0000000e+00 3.0500000e+01 
7.5000000e-01 3.0000000e+00 3.1000000e+01 
7.5000000e-01 3.0000000e+00 3.1500000e+01 
7.5000000e-01 3.0000000e+00 3.2000000e+01 
7.5000000e-01 3.0000000e+00 3.2500000e+01 
7.5000000e-01 3.0000000e+00 3.3000000e+01 
7.5000000e-01 3.0000000e+00 3.3500000e+01 
7.5000000e-01 3.0000000e+00 3.4000000e+01 
7.5000000e-01 3.0000000e+00 3.4500000e+01 
7.5000000e-01 3.0000000e+00 3.5000000e+01 
7.5000000e-01 3.0000000e+00 3.5500000e+01 
7.5000000e-01 3.0000000e+00 3.6000000e+01 
7.5000000e-01 3.0000000e+00 3.6500000e+01 
7.5000000e-01 3.0000000e+00 3.7000000e+01 
7.5000000e-01 3.0000000e+00 3.7500000e+01 
7.5000000e-01 3.0000000e+00 3.8000000e+01 
7.5000000e-01 3.0000000e+00 3.8500000e+01 
7.5000000e-01 3.0000000e+00 3.9000000e+01 
7.5000000e-01 3.0000000e+00 3.9500000e+01 
7.5000000e-01 3.0000000e+00 4.0500000e+01 
7.5000000e-01 3.0000000e+00 4.1000000e+01 
7.5000000e-01 3.0000000e+00 4.1500000e+01 
7.5000000e-01 3.0000000e+00 4.2000000e+01 
7.5000000e-01 3.0000000e+00 4.2500000e+01 
7.5000000e-01 3.0000000e+00 4.3000000e+01 
7.5000000e-01 3.0000000e+00 4.3500000e+01 
7.5000000e-01 3.0000000e+00 4.4000000e+01 
7.5000000e-01 3.0000000e+00 4.4500000e+01 
7.5000000e-01 3.0000000e+00 4.5000000e+01 
7.5000000e-01 3.0000000e+00 4.5500000e+01 
7.5000000e-01 3.0000000e+00 4.6000000e+01 
7.5000000e-01 3.0000000e+00 4.6500000e+01 
7.5000000e-01 3.0000000e+00 4.7000000e+01 
7.5000000e-01 3.0000000e+00 4.7500000e+01 
7.5000000e-01 3.0000000e+00 4.8000000e+01 
7.5000000e-01 3.0000000e+00 4.8500000e+01 
7.5000000e-01 3.0000000e+00 4.9000000e+01 
7.5000000e-01 3.0000000e+00 4.9500000e+01 
7.5000000e-01 3.0000000e+00 5.0000000e+01 
7.5000000e-01 3.0250001e+00 0.0000000e+00 
7.5000000e-01 3.0250001e+00 5.0000000e-01 
7.5000000e-01 3.0250001e+00 1.0000000e+00 
7.5000000e-01 3.0250001e+00 1.5000000e+00 
7.5000000e-01 3.0250001e+00 2.0000000e+00 
7.5000000e-01 3.0250001e+00 2.5000000e+00 
7.5000000e-01 3.0250001e+00 3.0000000e+00 
7.5000000e-01 3.0250001e+00 3.5000000e+00 
7.5000000e-01 3.0250001e+00 4.0000000e+00 
7.5000000e-01 3.0250001e+00 4.5000000e+00 
7.5000000e-01 3.0250001e+00 5.0000000e+00 
7.5000000e-01 3.0250001e+00 5.5000000e+00 
7.5000000e-01 3.0250001e+00 6.0000000e+00 
7.5000000e-01 3.0250001e+00 6.5000000e+00 
7.5000000e-01 3.0250001e+00 7.0000000e+00 
7.5000000e-01 3.0250001e+00 7.5000000e+00 
7.5000000e-01 3.0250001e+00 8.0000000e+00 
7.5000000e-01 3.0250001e+00 8.5000000e+00 
7.5000000e-01 3.0250001e+00 9.0000000e+00 
7.5000000e-01 3.0250001e+00 9.5000000e+00 
7.5000000e-01 3.0250001e+00 1.0000000e+01 
7.5000000e-01 3.0250001e+00 1.0500000e+01 
7.5000000e-01 3.0250001e+00 1.1000000e+01 
7.5000000e-01 3.0250001e+00 1.1500000e+01 
7.5000000e-01 3.0250001e+00 1.2000000e+01 
7.5000000e-01 3.0250001e+00 1.2500000e+01 
7.5000000e-01 3.0250001e+00 1.3000000e+01 
7.5000000e-01 3.0250001e+00 1.3500000e+01 
7.5000000e-01 3.0250001e+00 1.4000000e+01 
7.5000000e-01 3.0250001e+00 1.4500000e+01 
7.5000000e-01 3.0250001e+00 1.5000000e+01 
7.5000000e-01 3.0250001e+00 1.5500000e+01 
7.5000000e-01 3.0250001e+00 1.6000000e+01 
7.5000000e-01 3.0250001e+00 1.6500000e+01 
7.5000000e-01 3.0250001e+00 1.7000000e+01 
7.5000000e-01 3.0250001e+00 1.7500000e+01 
7.5000000e-01 3.0250001e+00 1.8000000e+01 
7.5000000e-01 3.0250001e+00 1.8500000e+01 
7.5000000e-01 3.0250001e+00 1.9000000e+01 
7.5000000e-01 3.0250001e+00 1.9500000e+01 
7.5000000e-01 3.0250001e+00 2.0000000e+01 
7.5000000e-01 3.0250001e+00 2.0500000e+01 
7.5000000e-01 3.0250001e+00 2.1000000e+01 
7.5000000e-01 3.0250001e+00 2.1500000e+01 
7.5000000e-01 3.0250001e+00 2.2000000e+01 
7.5000000e-01 3.0250001e+00 2.2500000e+01 
7.5000000e-01 3.0250001e+00 2.3000000e+01 
7.5000000e-01 3.0250001e+00 2.3500000e+01 
7.5000000e-01 3.0250001e+00 2.4000000e+01 
7.5000000e-01 3.0250001e+00 2.4500000e+01 
7.5000000e-01 3.0250001e+00 2.5000000e+01 
7.5000000e-01 3.0250001e+00 2.5500000e+01 
7.5000000e-01 3.0250001e+00 2.6000000e+01 
7.5000000e-01 3.0250001e+00 2.6500000e+01 
7.5000000e-01 3.0250001e+00 2.7000000e+01 
7.5000000e-01 3.0250001e+00 2.7500000e+01 
7.5000000e-01 3.0250001e+00 2.8000000e+01 
7.5000000e-01 3.0250001e+00 2.8500000e+01 
7.5000000e-01 3.0250001e+00 2.9000000e+01 
7.5000000e-01 3.0250001e+00 2.9500000e+01 
7.5000000e-01 3.0250001e+00 3.0000000e+01 
7.5000000e-01 3.0250001e+00 3.0500000e+01 
7.5000000e-01 3.0250001e+00 3.1000000e+01 
7.5000000e-01 3.0250001e+00 3.1500000e+01 
7.5000000e-01 3.0250001e+00 3.2000000e+01 
7.5000000e-01 3.0250001e+00 3.2500000e+01 
7.5000000e-01 3.0250001e+00 3.3000000e+01 
7.5000000e-01 3.0250001e+00 3.3500000e+01 
7.5000000e-01 3.0250001e+00 3.4000000e+01 
7.5000000e-01 3.0250001e+00 3.4500000e+01 
7.5000000e-01 3.0250001e+00 3.5000000e+01 
7.5000000e-01 3.0250001e+00 3.5500000e+01 
7.5000000e-01 3.0250001e+00 3.6000000e+01 
7.5000000e-01 3.0250001e+00 3.6500000e+01 
7.5000000e-01 3.0250001e+00 3.7000000e+01 
7.5000000e-01 3.0250001e+00 3.7500000e+01 
7.5000000e-01 3.0250001e+00 3.8000000e+01 
7.5000000e-01 3.0250001e+00 3.8500000e+01 
7.5000000e-01 3.0250001e+00 3.9000000e+01 
7.5000000e-01 3.0250001e+00 3.9500000e+01 
7.5000000e-01 3.0250001e+00 4.0000000e+01 
7.5000000e-01 3.0250001e+00 4.0500000e+01 
7.5000000e-01 3.0250001e+00 4.1000000e+01 
7.5000000e-01 3.0250001e+00 4.1500000e+01 
7.5000000e-01 3.0250001e+00 4.2000000e+01 
7.5000000e-01 3.0250001e+00 4.2500000e+01 
7.5000000e-01 3.0250001e+00 4.3000000e+01 
7.5000000e-01 3.0250001e+00 4.3500000e+01 
7.5000000e-01 3.0250001e+00 4.4000000e+01 
7.5000000e-01 3.0250001e+00 4.4500000e+01 
7.5000000e-01 3.0250001e+00 4.5000000e+01 
7.5000000e-01 3.0250001e+00 4.5500000e+01 
7.5000000e-01 3.0250001e+00 4.6000000e+01 
7.5000000e-01 3.0250001e+00 4.6500000e+01 
7.5000000e-01 3.0250001e+00 4.7000000e+01 
7.5000000e-01 3.0250001e+00 4.7500000e+01 
7.5000000e-01 3.0250001e+00 4.8000000e+01 
7.5000000e-01 3.0250001e+00 4.8500000e+01 
7.5000000e-01 3.0250001e+00 4.9000000e+01 
7.5000000e-01 3.0250001e+00 4.9500000e+01 
7.5000000e-01 3.0250001e+00 5.0000000e+01 
3.0000000e+00 2.0000000e+00 3.6000000e+01 
8.0487806e-01 3.0000000e+00 3.6000000e+01 
0.0000000e+00 0.0000000e+00 2.0000000e+00 
0.0000000e+00 0.0000000e+00 4.0000000e+00 
0.0000000e+00 0.0000000e+00 6.0000000e+00 
0.0000000e+00 0.0000000e+00 8.0000000e+00 
0.0000000e+00 0.0000000e+00 1.0000000e+01 
0.0000000e+00 0.0000000e+00 1.2000000e+01 
0.0000000e+00 0.0000000e+00 1.4000000e+01 
0.0000000e+00 0.0000000e+00 1.6000000e+01 
[...]
POINT_DATA 661
FIELD FieldData 3
DISPLACEMENT 3 661  float
0.0000000e+00 0.0000000e+00 0.0000000e+00 
0.0000000e+00 0.0000000e+00 0.0000000e+00 
0.0000000e+00 0.0000000e+00 0.0000000e+00 
0.0000000e+00 0.0000000e+00 0.0000000e+00 
9.5535604e-08 -1.4940109e-06 2.7896483e-06 
6.1966515e-05 -1.9510149e-05 -8.0853721e-07 
0.0000000e+00 6.7681508e-06 0.0000000e+00 
0.0000000e+00 -1.2239902e-03 0.0000000e+00 
1.7718191e-06 -3.0000658e-06 2.8054069e-07 
2.8519720e-05 1.4640338e-05 1.3065419e-05 
5.1739028e-07 -6.6371229e-07 -1.4234236e-06 
3.1895022e-05 -3.0089752e-04 2.0836573e-04 
0.0000000e+00 1.1604488e-05 0.0000000e+00 
0.0000000e+00 -3.0835751e-03 0.0000000e+00 
-1.6660673e-06 1.0939350e-05 -2.7157330e-05 
-1.1343822e-03 -3.3941357e-03 1.2291480e-03 
-7.6868037e-06 4.4879831e-05 -2.1288808e-05 
-6.8248773e-04 -1.5296863e-02 2.7694770e-03 
0.0000000e+00 1.6297359e-05 0.0000000e+00 
0.0000000e+00 -6.4647556e-03 0.0000000e+00 
-6.3837138e-06 4.7192585e-05 -2.4405104e-05 
-4.0516093e-06 5.2827276e-05 -2.2640041e-05 
-7.9816550e-07 5.8841153e-05 -1.5898921e-05 
5.1620027e-06 6.2311490e-05 -3.8393073e-06 
8.4335907e-06 6.0765615e-05 9.3446160e-06 
1.3494639e-05 5.1977542e-05 2.1836764e-05 
1.1610675e-05 3.5953504e-05 3.0875432e-05 
9.4311881e-06 1.4210103e-05 3.4070072e-05 
7.2675898e-06 -1.1133069e-05 3.3129352e-05 
8.9052801e-06 -3.7374273e-05 3.1086467e-05 
1.2536102e-05 -6.1616614e-05 3.4022189e-05 
1.1208852e-05 -8.0748920e-05 3.8346945e-05 
1.8620725e-06 -9.2057344e-05 3.8933013e-05 
-8.9887390e-06 -9.4741612e-05 3.2243901e-05 
-1.3462760e-05 -8.8563742e-05 2.3122418e-05 
-1.4885349e-05 -7.5268057e-05 8.3520035e-06 
-1.7052169e-05 -5.5672219e-05 -1.0178929e-05 
-1.8375358e-05 -3.3797362e-05 -2.0953301e-05 
-1.8667190e-05 -1.2488778e-05 -2.2191505e-05 
-1.8033434e-05 6.5048735e-06 -1.6475384e-05 
-1.1893294e-05 2.1226495e-05 -8.3876412e-06 
-7.1001950e-06 3.1494805e-05 -1.6307914e-06 
-1.7446932e-06 3.7054440e-05 -3.1877566e-06 
7.0092847e-06 3.8753824e-05 -6.8313639e-06 
1.4071787e-05 3.7110676e-05 -4.8051238e-06 
2.0506817e-05 3.3573488e-05 -2.4599322e-07 
2.5385087e-05 2.9771678e-05 3.9341248e-06 
2.8651311e-05 2.7559750e-05 8.3388750e-06 
2.8711371e-05 2.8106411e-05 7.5495236e-06 
2.6332154e-05 2.7153936e-05 8.3619389e-06 
2.0409774e-05 1.5525162e-05 1.7430775e-05 
5.5378146e-06 -3.2954551e-05 2.9084646e-05 
-3.5929133e-05 -1.5709283e-04 6.0586099e-05 
-5.0887204e-05 -3.9929597e-04 9.0358219e-05 
-7.3823277e-05 -8.2335965e-04 1.2908103e-04 
-1.2677662e-04 -1.4753070e-03 7.0208633e-05 
-2.7128230e-04 -2.3772228e-03 1.5000274e-04 
-2.7643837e-04 -3.3551478e-03 1.3557133e-04 
-1.7059855e-04 -4.1074413e-03 7.9364057e-05 
-1.3757337e-04 -4.0826639e-03 1.0095064e-04 
-2.6415274e-04 -3.8637710e-03 4.5175893e-05 
-3.2404694e-04 -3.8242012e-03 4.2282751e-05 
-2.1502806e-04 -4.0753363e-03 1.9578541e-05 
-6.5612170e-05 -4.1129426e-03 -1.8573510e-05 
-9.7461278e-05 -3.4446083e-03 -1.1177336e-04 
-1.9269474e-04 -2.4430852e-03 -1.4315189e-04 
-1.8704908e-04 -1.5670996e-03 -1.4108924e-04 
-6.6569824e-05 -8.9812640e-04 -8.7165958e-05 
-3.2030184e-05 -4.6968827e-04 -1.2466924e-04 
-2.0023639e-05 -2.2026438e-04 -9.7589036e-05 
-1.5621452e-05 -9.1137583e-05 -7.7101089e-05 
-2.4368862e-06 -3.3538934e-05 -5.4803826e-05 
-2.9761320e-06 -1.5912545e-05 -3.7151553e-05 
-6.7148958e-06 -1.5314567e-05 -2.4814481e-05 
-1.2929314e-05 -1.7330638e-05 -2.3530658e-05 
-1.7836659e-05 -1.7385939e-05 -2.6680207e-05 
-1.5357922e-05 -1.3265074e-05 -2.6206197e-05 
-1.1387998e-05 -7.4589038e-06 -2.2729851e-05 
-1.3538056e-05 -3.0292397e-06 -1.8126249e-05 
-1.5450152e-05 -6.1503044e-07 -1.2584102e-05 
-1.2760119e-05 -5.4155760e-07 -1.1870533e-05 
-1.0184124e-05 -1.7647326e-06 -1.4293580e-05 
-3.8086506e-07 -2.4144240e-06 -2.4620702e-05 
1.1114130e-05 5.2956420e-07 -3.3450364e-05 
2.3706958e-05 1.0843427e-05 -2.7094513e-05 
3.1928510e-05 3.0487858e-05 -1.7188977e-05 
3.8593098e-05 6.2139166e-05 -9.8142991e-06 
4.7292222e-05 1.0591909e-04 4.5976817e-06 
5.5038749e-05 1.6176236e-04 1.9962856e-05 
5.7628007e-05 2.2474096e-04 4.4445729e-05 
3.2723445e-05 2.8483829e-04 9.5465744e-05 
1.6935755e-05 3.1147175e-04 1.5290175e-04 
-3.0584160e-05 2.4427305e-04 2.1428832e-04 
-4.4927332e-05 -8.6468226e-06 2.8674852e-04 
-1.3432353e-04 -5.9032941e-04 4.3834894e-04 
-3.0268176e-04 -1.7294365e-03 7.3116267e-04 
-4.1254121e-04 -3.6237377e-03 1.0100286e-03 
-3.3332279e-04 -6.4182864e-03 1.0690697e-03 
-1.3450270e-04 -1.0143836e-02 3.2756038e-04 
0.0000000e+00 -2.1336297e-02 0.0000000e+00 
0.0000000e+00 -2.7277635e-02 0.0000000e+00 
0.0000000e+00 -3.2035701e-02 0.0000000e+00 
0.0000000e+00 -3.4481242e-02 0.0000000e+00 
0.0000000e+00 -3.3991013e-02 0.0000000e+00 
0.0000000e+00 -3.1157695e-02 0.0000000e+00 
0.0000000e+00 -2.6724258e-02 0.0000000e+00 
0.0000000e+00 -2.1376874e-02 0.0000000e+00 
0.0000000e+00 -1.5716569e-02 0.0000000e+00 
0.0000000e+00 -1.0237801e-02 0.0000000e+00 
0.0000000e+00 -5.3159813e-03 0.0000000e+00 
0.0000000e+00 -1.2018296e-03 0.0000000e+00 
0.0000000e+00 1.9788742e-03 0.0000000e+00 
0.0000000e+00 4.2179734e-03 0.0000000e+00 
0.0000000e+00 5.6073377e-03 0.0000000e+00 
0.0000000e+00 6.3116420e-03 0.0000000e+00 
0.0000000e+00 6.5358835e-03 0.0000000e+00 
0.0000000e+00 6.4924727e-03 0.0000000e+00 
0.0000000e+00 6.3706669e-03 0.0000000e+00 
0.0000000e+00 6.3100983e-03 0.0000000e+00 
0.0000000e+00 4.4981880e-05 0.0000000e+00 
0.0000000e+00 4.7279063e-05 0.0000000e+00 
0.0000000e+00 5.2832875e-05 0.0000000e+00 
0.0000000e+00 5.8828347e-05 0.0000000e+00 
0.0000000e+00 6.2309497e-05 0.0000000e+00 
0.0000000e+00 6.0660896e-05 0.0000000e+00 
0.0000000e+00 5.1916330e-05 0.0000000e+00 
0.0000000e+00 3.5939782e-05 0.0000000e+00 
0.0000000e+00 1.4185085e-05 0.0000000e+00 
0.0000000e+00 -1.1147613e-05 0.0000000e+00 
0.0000000e+00 -3.7398335e-05 0.0000000e+00 
0.0000000e+00 -6.1611747e-05 0.0000000e+00 
0.0000000e+00 -8.0678255e-05 0.0000000e+00 
0.0000000e+00 -9.2046408e-05 0.0000000e+00 
0.0000000e+00 -9.4672629e-05 0.0000000e+00 
0.0000000e+00 -8.8613560e-05 0.0000000e+00 
0.0000000e+00 -7.5103519e-05 0.0000000e+00 
0.0000000e+00 -5.5731260e-05 0.0000000e+00 
0.0000000e+00 -3.3874010e-05 0.0000000e+00 
0.0000000e+00 -1.2486854e-05 0.0000000e+00 
0.0000000e+00 6.4197789e-06 0.0000000e+00 
0.0000000e+00 2.1227474e-05 0.0000000e+00 
0.0000000e+00 3.1455198e-05 0.0000000e+00 
0.0000000e+00 3.7078469e-05 0.0000000e+00 
0.0000000e+00 3.8717473e-05 0.0000000e+00 
0.0000000e+00 3.7114307e-05 0.0000000e+00 
0.0000000e+00 3.3572051e-05 0.0000000e+00 
0.0000000e+00 2.9800258e-05 0.0000000e+00 
0.0000000e+00 2.7793869e-05 0.0000000e+00 
0.0000000e+00 2.8366449e-05 0.0000000e+00 
0.0000000e+00 2.8079254e-05 0.0000000e+00 
0.0000000e+00 1.6205424e-05 0.0000000e+00 
0.0000000e+00 -3.2676988e-05 0.0000000e+00 
0.0000000e+00 -1.5595087e-04 0.0000000e+00 
0.0000000e+00 -3.9990505e-04 0.0000000e+00 
0.0000000e+00 -8.2488317e-04 0.0000000e+00 
0.0000000e+00 -1.4847211e-03 0.0000000e+00 
0.0000000e+00 -2.3849509e-03 0.0000000e+00 
0.0000000e+00 -3.3878207e-03 0.0000000e+00 
0.0000000e+00 -4.1319635e-03 0.0000000e+00 
0.0000000e+00 -4.1141980e-03 0.0000000e+00 
0.0000000e+00 -3.8778728e-03 0.0000000e+00 
0.0000000e+00 -3.8551607e-03 0.0000000e+00 
0.0000000e+00 -4.0952298e-03 0.0000000e+00 
0.0000000e+00 -4.1473536e-03 0.0000000e+00 
0.0000000e+00 -3.4626010e-03 0.0000000e+00 
0.0000000e+00 -2.4614276e-03 0.0000000e+00 
0.0000000e+00 -1.5693590e-03 0.0000000e+00 
0.0000000e+00 -9.0216607e-04 0.0000000e+00 
0.0000000e+00 -4.6953646e-04 0.0000000e+00 
0.0000000e+00 -2.1946881e-04 0.0000000e+00 
0.0000000e+00 -9.0204128e-05 0.0000000e+00 
0.0000000e+00 -3.3104647e-05 0.0000000e+00 
0.0000000e+00 -1.5488162e-05 0.0000000e+00 
0.0000000e+00 -1.4812836e-05 0.0000000e+00 
0.0000000e+00 -1.7208622e-05 0.0000000e+00 
0.0000000e+00 -1.7164490e-05 0.0000000e+00 
0.0000000e+00 -1.3245926e-05 0.0000000e+00 
0.0000000e+00 -7.5999560e-06 0.0000000e+00 
0.0000000e+00 -3.0497868e-06 0.0000000e+00 
0.0000000e+00 -6.7037416e-07 0.0000000e+00 
0.0000000e+00 -5.8081298e-07 0.0000000e+00 
0.0000000e+00 -1.8160891e-06 0.0000000e+00 
0.0000000e+00 -2.4506128e-06 0.0000000e+00 
0.0000000e+00 6.0749056e-07 0.0000000e+00 
0.0000000e+00 1.0814579e-05 0.0000000e+00 
0.0000000e+00 3.0616211e-05 0.0000000e+00 
0.0000000e+00 6.2168743e-05 0.0000000e+00 
0.0000000e+00 1.0614135e-04 0.0000000e+00 
0.0000000e+00 1.6201273e-04 0.0000000e+00 
0.0000000e+00 2.2581079e-04 0.0000000e+00 
0.0000000e+00 2.8639074e-04 0.0000000e+00 
0.0000000e+00 3.1310454e-04 0.0000000e+00 
0.0000000e+00 2.4734717e-04 0.0000000e+00 
0.0000000e+00 -4.0867708e-06 0.0000000e+00 
0.0000000e+00 -5.9239380e-04 0.0000000e+00 
0.0000000e+00 -1.7325857e-03 0.0000000e+00 
0.0000000e+00 -3.6243030e-03 0.0000000e+00 
0.0000000e+00 -6.4266347e-03 0.0000000e+00 
0.0000000e+00 -1.0269891e-02 0.0000000e+00 
0.0000000e+00 -1.5335280e-02 0.0000000e+00 
0.0000000e+00 -2.1336583e-02 0.0000000e+00 
0.0000000e+00 -2.7278038e-02 0.0000000e+00 
0.0000000e+00 -3.2035764e-02 0.0000000e+00 
0.0000000e+00 -3.4481071e-02 0.0000000e+00 
0.0000000e+00 -3.3992246e-02 0.0000000e+00 
0.0000000e+00 -3.1160327e-02 0.0000000e+00 
0.0000000e+00 -2.6728116e-02 0.0000000e+00 
0.0000000e+00 -2.1381602e-02 0.0000000e+00 
0.0000000e+00 -1.5721794e-02 0.0000000e+00 
0.0000000e+00 -1.0243281e-02 0.0000000e+00 
0.0000000e+00 -5.3214952e-03 0.0000000e+00 
0.0000000e+00 -1.2070112e-03 0.0000000e+00 
0.0000000e+00 1.9745093e-03 0.0000000e+00 
0.0000000e+00 4.2148419e-03 0.0000000e+00 
0.0000000e+00 5.6056362e-03 0.0000000e+00 
0.0000000e+00 6.3113677e-03 0.0000000e+00 
0.0000000e+00 6.5369448e-03 0.0000000e+00 
0.0000000e+00 6.4947181e-03 0.0000000e+00 
0.0000000e+00 6.3737906e-03 0.0000000e+00 
0.0000000e+00 6.3135596e-03 0.0000000e+00 
1.0074634e-05 3.7545389e-05 3.2151969e-05 
3.7285704e-06 2.7647550e-04 1.6193445e-04 
0.0000000e+00 0.0000000e+00 0.0000000e+00 
0.0000000e+00 0.0000000e+00 0.0000000e+00 
0.0000000e+00 0.0000000e+00 0.0000000e+00 
0.0000000e+00 0.0000000e+00 0.0000000e+00 
0.0000000e+00 0.0000000e+00 0.0000000e+00 
0.0000000e+00 0.0000000e+00 0.0000000e+00 
0.0000000e+00 0.0000000e+00 0.0000000e+00 
0.0000000e+00 0.0000000e+00 0.0000000e+00 
0.0000000e+00 0.0000000e+00 0.0000000e+00 
0.0000000e+00 0.0000000e+00 0.0000000e+00 
0.0000000e+00 0.0000000e+00 0.0000000e+00 
0.0000000e+00 0.0000000e+00 0.0000000e+00 
0.0000000e+00 0.0000000e+00 0.0000000e+00 
0.0000000e+00 0.0000000e+00 0.0000000e+00 
0.0000000e+00 0.0000000e+00 0.0000000e+00 
0.0000000e+00 0.0000000e+00 0.0000000e+00 
0.0000000e+00 0.0000000e+00 0.0000000e+00 
0.0000000e+00 0.0000000e+00 0.0000000e+00 
0.0000000e+00 0.0000000e+00 0.0000000e+00 
0.0000000e+00 0.0000000e+00 0.0000000e+00 
0.0000000e+00 0.0000000e+00 0.0000000e+00 
0.0000000e+00 0.0000000e+00 0.0000000e+00 
0.0000000e+00 0.0000000e+00 0.0000000e+00 
0.0000000e+00 0.0000000e+00 0.0000000e+00 
0.0000000e+00 0.0000000e+00 0.0000000e+00 
0.0000000e+00 0.0000000e+00 0.0000000e+00 
0.0000000e+00 0.0000000e+00 0.0000000e+00 
0.0000000e+00 0.0000000e+00 0.0000000e+00 
0.0000000e+00 0.0000000e+00 0.0000000e+00 
0.0000000e+00 0.0000000e+00 0.0000000e+00 
0.0000000e+00 0.0000000e+00 0.0000000e+00 
0.0000000e+00 0.0000000e+00 0.0000000e+00 
0.0000000e+00 0.0000000e+00 0.0000000e+00 
0.0000000e+00 0.0000000e+00 0.0000000e+00 
0.0000000e+00 0.0000000e+00 0.0000000e+00 
0.0000000e+00 0.0000000e+00 0.0000000e+00 
0.0000000e+00 0.0000000e+00 0.0000000e+00 
0.0000000e+00 0.0000000e+00 0.0000000e+00 
0.0000000e+00 0.0000000e+00 0.0000000e+00 
0.0000000e+00 0.0000000e+00 0.0000000e+00 
0.0000000e+00 0.0000000e+00 0.0000000e+00 
0.0000000e+00 0.0000000e+00 0.0000000e+00 
-3.0612587e-06 2.4696701e-06 1.8031724e-06 
-2.7730691e-06 2.9514836e-06 -1.2286074e-06 
2.0573959e-06 -6.3733739e-07 1.4125443e-06 
4.0634709e-06 -2.6577629e-06 4.2920242e-06 
-2.1928408e-06 -2.3719099e-06 6.7925816e-06 
-7.6499109e-06 5.0176754e-07 9.7994405e-07 
-2.7284527e-06 -6.1711955e-07 -7.0811325e-06 
1.1317770e-05 -3.8185890e-06 -1.1436383e-05 
3.3663317e-05 -5.5704272e-06 -1.2383181e-05 
4.9136972e-05 -4.9816640e-06 -2.9573723e-06 
4.4407443e-05 -5.1720613e-06 7.1450395e-06 
2.4397128e-05 -4.8588440e-06 4.6751229e-06 
7.7086361e-06 -2.0286786e-06 4.0187533e-06 
1.1933583e-06 -1.5516886e-08 2.3633688e-06 
-2.9820742e-06 3.4904178e-07 3.7657089e-06 
-8.9988416e-06 1.0282679e-06 2.3376494e-06 
-9.3400031e-06 -1.0955409e-06 4.6160822e-06 
6.7929418e-06 2.7122026e-06 4.0386376e-06 
3.5076901e-05 -5.4019438e-07 -5.5301452e-06 
0.0000000e+00 2.0956217e-05 0.0000000e+00 
0.0000000e+00 6.7414844e-06 0.0000000e+00 
0.0000000e+00 -2.2745477e-05 0.0000000e+00 
0.0000000e+00 -2.6006284e-05 0.0000000e+00 
0.0000000e+00 3.8164480e-06 0.0000000e+00 
0.0000000e+00 1.0813524e-05 0.0000000e+00 
0.0000000e+00 7.7007508e-06 0.0000000e+00 
0.0000000e+00 -2.9143766e-05 0.0000000e+00 
0.0000000e+00 -2.2736285e-04 0.0000000e+00 
0.0000000e+00 -5.1540096e-04 0.0000000e+00 
0.0000000e+00 -4.8709221e-04 0.0000000e+00 
0.0000000e+00 -1.7937730e-04 0.0000000e+00 
0.0000000e+00 -3.2283784e-05 0.0000000e+00 
0.0000000e+00 -8.0813597e-06 0.0000000e+00 
0.0000000e+00 1.1208267e-06 0.0000000e+00 
0.0000000e+00 -6.2916513e-07 0.0000000e+00 
0.0000000e+00 2.9652783e-05 0.0000000e+00 
0.0000000e+00 4.6609224e-05 0.0000000e+00 
0.0000000e+00 -3.2940338e-04 0.0000000e+00 
-1.6040433e-06 -3.6999859e-07 2.7598560e-06 
-1.8162027e-06 3.6728898e-06 2.9711648e-06 
1.0123751e-04 -1.0752073e-04 5.6918027e-05 
2.6477096e-04 -7.1320991e-04 8.2010585e-05 
-6.9004943e-07 2.2446268e-06 1.1575188e-06 
-3.0770527e-06 3.0119306e-06 1.0416173e-06 
2.3767016e-07 -1.2549971e-07 4.4196831e-06 
1.8632381e-06 -3.2610562e-06 6.4543274e-06 
-2.3759055e-06 -4.7459657e-06 6.1704231e-06 
-7.1180621e-06 9.0906320e-07 6.3235751e-07 
-3.6387946e-06 9.1057990e-07 -9.4293046e-06 
1.8552822e-05 -3.4522502e-06 -1.5855234e-05 
3.2974564e-05 -3.8497897e-06 -9.5457890e-06 
3.8510698e-05 -3.8464473e-06 -1.5670539e-06 
2.8553051e-05 -2.8407687e-06 1.0001283e-05 
1.2182642e-05 -1.5793862e-06 7.4190632e-07 
4.7973404e-06 -1.4994411e-06 1.2365683e-06 
-1.1654171e-06 -9.7498435e-07 1.5417070e-06 
-3.5679348e-06 -1.5242866e-06 4.0665159e-06 
-1.1700376e-05 4.8640402e-07 3.0449301e-06 
-5.0955118e-06 -1.6091589e-06 1.6739818e-06 
1.5288826e-05 2.1561225e-06 6.0827497e-06 
1.9682986e-05 1.2710356e-05 2.1125488e-05 
-9.6760368e-07 1.0443428e-05 -3.2948110e-06 
0.0000000e+00 4.1368941e-05 0.0000000e+00 
0.0000000e+00 1.3356363e-05 0.0000000e+00 
0.0000000e+00 -4.3620228e-05 0.0000000e+00 
0.0000000e+00 -4.7492522e-05 0.0000000e+00 
0.0000000e+00 8.9778132e-06 0.0000000e+00 
0.0000000e+00 2.0634110e-05 0.0000000e+00 
0.0000000e+00 1.4155684e-05 0.0000000e+00 
0.0000000e+00 -4.3802254e-05 0.0000000e+00 
0.0000000e+00 -4.7761548e-04 0.0000000e+00 
0.0000000e+00 -1.1529017e-03 0.0000000e+00 
0.0000000e+00 -1.0929549e-03 0.0000000e+00 
0.0000000e+00 -3.3981644e-04 0.0000000e+00 
0.0000000e+00 -4.6186877e-05 0.0000000e+00 
0.0000000e+00 -1.4343632e-05 0.0000000e+00 
0.0000000e+00 3.6952290e-06 0.0000000e+00 
0.0000000e+00 -1.8389492e-06 0.0000000e+00 
0.0000000e+00 5.7245259e-05 0.0000000e+00 
0.0000000e+00 1.0926860e-04 0.0000000e+00 
0.0000000e+00 -5.1853270e-04 0.0000000e+00 
2.8835266e-04 -1.4863241e-03 2.5964505e-04 
2.9962837e-06 4.9901486e-05 -8.5827951e-06 
1.0615080e-05 6.0816524e-06 4.9198916e-05 
1.0233438e-05 -6.5409018e-05 4.9346061e-05 
-2.2088019e-05 -5.5640372e-05 3.4047371e-06 
-2.2087657e-05 2.3696107e-06 -2.0708234e-05 
3.5854434e-06 3.2945420e-05 -2.4033554e-05 
4.4684915e-05 6.9721636e-07 1.3655110e-05 
1.8874751e-05 1.1280455e-05 5.2200452e-05 
-2.8936690e-04 -4.5373180e-04 2.4961025e-04 
-6.8657973e-04 -1.2920811e-03 9.0326961e-05 
-6.0794794e-04 -1.3792536e-03 -9.3087328e-05 
-1.4538901e-04 -3.0192823e-04 -2.0527602e-04 
5.1863544e-06 -3.4371729e-05 -6.2894607e-05 
-1.9935216e-05 -2.2834400e-05 -3.6076523e-05 
-1.9736173e-05 -2.0175412e-06 -1.4075573e-05 
5.3855633e-06 -4.4668914e-06 -4.7533420e-05 
6.9262431e-05 4.4039152e-05 -1.5162614e-05 
4.8928920e-05 1.4257108e-04 1.8081928e-04 
-4.3471399e-04 -4.6634587e-04 7.9893513e-04 
0.0000000e+00 5.9177895e-05 0.0000000e+00 
0.0000000e+00 1.9346888e-05 0.0000000e+00 
0.0000000e+00 -7.4640004e-05 0.0000000e+00 
0.0000000e+00 -6.5798748e-05 0.0000000e+00 
0.0000000e+00 1.6197368e-05 0.0000000e+00 
0.0000000e+00 2.8897675e-05 0.0000000e+00 
0.0000000e+00 1.7398952e-05 0.0000000e+00 
0.0000000e+00 -2.3782255e-05 0.0000000e+00 
0.0000000e+00 -8.9443231e-04 0.0000000e+00 
0.0000000e+00 -2.2672757e-03 0.0000000e+00 
0.0000000e+00 -2.1034377e-03 0.0000000e+00 
0.0000000e+00 -5.7252601e-04 0.0000000e+00 
0.0000000e+00 -3.6385816e-05 0.0000000e+00 
0.0000000e+00 -1.6915026e-05 0.0000000e+00 
0.0000000e+00 9.7869524e-06 0.0000000e+00 
0.0000000e+00 -8.5281308e-06 0.0000000e+00 
0.0000000e+00 6.4697488e-05 0.0000000e+00 
0.0000000e+00 2.5883780e-04 0.0000000e+00 
0.0000000e+00 -1.0033417e-03 0.0000000e+00 
-3.5394287e-06 1.2844449e-05 -2.8780000e-06 
-3.6341845e-07 2.4109067e-06 6.4161945e-06 
2.6619903e-06 -1.5677793e-05 1.3151917e-05 
-4.6317591e-06 -1.7585980e-05 6.6129387e-06 
-1.3676448e-05 -6.1836244e-07 2.4110473e-06 
-6.7475598e-06 8.8785027e-06 -4.2979595e-06 
1.0394573e-05 2.8461563e-06 -1.2389223e-06 
2.3323561e-05 1.8520779e-05 5.1171887e-06 
5.4575223e-05 -4.6053043e-05 -4.5590627e-06 
5.4628981e-05 -8.5032334e-05 -9.8395021e-06 
4.2469877e-05 -9.0357629e-05 7.0290148e-06 
3.8122038e-05 -6.2247535e-05 4.2627616e-06 
2.6252276e-06 -6.4161891e-06 -8.8275228e-06 
-7.4724480e-06 -7.0445130e-06 -9.0749954e-06 
-1.2702242e-05 -1.3018790e-06 -6.5121649e-06 
-1.0444512e-05 -4.6646660e-06 -3.0894989e-06 
5.8324963e-06 1.2939772e-05 7.4326190e-06 
5.1183215e-05 -5.5609421e-06 5.4652457e-05 
2.9977717e-05 7.8385267e-05 1.2586739e-04 
0.0000000e+00 0.0000000e+00 0.0000000e+00 
0.0000000e+00 0.0000000e+00 0.0000000e+00 
0.0000000e+00 0.0000000e+00 0.0000000e+00 
0.0000000e+00 0.0000000e+00 0.0000000e+00 
0.0000000e+00 0.0000000e+00 0.0000000e+00 
0.0000000e+00 0.0000000e+00 0.0000000e+00 
0.0000000e+00 0.0000000e+00 0.0000000e+00 
0.0000000e+00 0.0000000e+00 0.0000000e+00 
0.0000000e+00 0.0000000e+00 0.0000000e+00 
0.0000000e+00 0.0000000e+00 0.0000000e+00 
0.0000000e+00 0.0000000e+00 0.0000000e+00 
0.0000000e+00 0.0000000e+00 0.0000000e+00 
0.0000000e+00 0.0000000e+00 0.0000000e+00 
0.0000000e+00 0.0000000e+00 0.0000000e+00 
0.0000000e+00 0.0000000e+00 0.0000000e+00 
0.0000000e+00 0.0000000e+00 0.0000000e+00 
0.0000000e+00 0.0000000e+00 0.0000000e+00 
0.0000000e+00 0.0000000e+00 0.0000000e+00 
0.0000000e+00 0.0000000e+00 0.0000000e+00 
0.0000000e+00 0.0000000e+00 0.0000000e+00 
0.0000000e+00 0.0000000e+00 0.0000000e+00 
0.0000000e+00 0.0000000e+00 0.0000000e+00 
0.0000000e+00 0.0000000e+00 0.0000000e+00 
0.0000000e+00 0.0000000e+00 0.0000000e+00 
0.0000000e+00 0.0000000e+00 0.0000000e+00 
0.0000000e+00 0.0000000e+00 0.0000000e+00 
0.0000000e+00 0.0000000e+00 0.0000000e+00 
0.0000000e+00 0.0000000e+00 0.0000000e+00 
0.0000000e+00 0.0000000e+00 0.0000000e+00 
0.0000000e+00 0.0000000e+00 0.0000000e+00 
0.0000000e+00 0.0000000e+00 0.0000000e+00 
0.0000000e+00 0.0000000e+00 0.0000000e+00 
0.0000000e+00 0.0000000e+00 0.0000000e+00 
0.0000000e+00 0.0000000e+00 0.0000000e+00 
0.0000000e+00 0.0000000e+00 0.0000000e+00 
0.0000000e+00 0.0000000e+00 0.0000000e+00 
0.0000000e+00 0.0000000e+00 0.0000000e+00 
0.0000000e+00 0.0000000e+00 0.0000000e+00 
0.0000000e+00 0.0000000e+00 0.0000000e+00 
0.0000000e+00 0.0000000e+00 0.0000000e+00 
0.0000000e+00 0.0000000e+00 0.0000000e+00 
0.0000000e+00 0.0000000e+00 0.0000000e+00 
-1.9750924e-07 7.1461034e-07 -6.0425697e-07 
-2.8028214e-06 -5.0116540e-07 -1.8133491e-06 
9.2598630e-06 -6.5223735e-06 -7.2686812e-06 
2.1335327e-05 -8.7388053e-06 3.0001888e-06 
7.8320418e-06 -3.5339835e-06 1.9089075e-06 
1.8594541e-06 -1.1034730e-06 8.8570869e-07 
1.9184615e-07 4.9357135e-07 2.6848479e-06 
-3.5766900e-06 8.1595232e-07 9.1625895e-07 
-5.1218381e-06 8.9990266e-07 1.5099087e-06 