# vtk DataFile Version 4.0
vtk output
ASCII
DATASET UNSTRUCTURED_GRID
POINTS 661 float
0.0000000e+00 0.0000000e+00 0.0000000e+00 
0.0000000e+00 0.0000000e+00 4.0000000e+01 
5.0000000e+00 0.0000000e+00 0.0000000e+00 
5.0000000e+00 0.0000000e+00 4.0000000e+01 
5.0000000e+00 1.0000000e+00 0.0000000e+00 
5.0000000e+00 1.0000000e+00 4.0000000e+01 
0.0000000e+00 1.0000000e+00 0.0000000e+00 
0.0000000e+00 1.0000000e+00 4.0000000e+01 
5.0000000e+00 2.0000000e+00 0.0000000e+00 
5.0000000e+00 2.0000000e+00 4.0000000e+01 
3.0000000e+00 2.0000000e+00 0.0000000e+00 
3.0000000e+00 2.0000000e+00 4.0000000e+01 
0.0000000e+00 2.0000000e+00 0.0000000e+00 
0.0000000e+00 2.0000000e+00 4.0000000e+01 
1.5000000e+00 3.0000000e+00 0.0000000e+00 
1.5000000e+00 3.0000000e+00 4.0000000e+01 
7.5000000e-01 3.0000000e+00 0.0000000e+00 
7.5000000e-01 3.0000000e+00 4.0000000e+01 
0.0000000e+00 3.0000000e+00 0.0000000e+00 
0.0000000e+00 3.0000000e+00 4.0000000e+01 
7.5000000e-01 3.0000000e+00 5.0000000e-01 
7.5000000e-01 3.0000000e+00 1.0000000e+00 
7.5000000e-01 3.0000000e+00 1.5000000e+00 
7.5000000e-01 3.0000000e+00 2.0000000e+00 
7.5000000e-01 3.0000000e+00 2.5000000e+00 
7.5000000e-01 3.0000000e+00 3.0000000e+00 
7.5000000e-01 3.0000000e+00 3.5000000e+00 
7.5000000e-01 3.0000000e+00 4.0000000e+00 
7.5000000e-01 3.0000000e+00 4.5000000e+00 
7.5000000e-01 3.0000000e+00 5.0000000e+00 
7.5000000e-01 3.0000000e+00 5.5000000e+00 
7.5000000e-01 3.0000000e+00 6.0000000e+00 
7.5000000e-01 3.0000000e+00 6.5000000e+00 
7.5000000e-01 3.0000000e+00 7.0000000e+00 
7.5000000e-01 3.0000000e+00 7.5000000e+00 
7.5000000e-01 3.0000000e+00 8.0000000e+00 
7.5000000e-01 3.0000000e+00 8.5000000e+00 
7.5000000e-01 3.0000000e+00 9.0000000e+00 
7.5000000e-01 3.0000000e+00 9.5000000e+00 
7.5000000e-01 3.0000000e+00 1.0000000e+01 
7.5000000e-01 3.0000000e+00 1.0500000e+01 
7.5000000e-01 3.0000000e+00 1.1000000e+01 
7.5000000e-01 3.0000000e+00 1.1500000e+01 
7.5000000e-01 3.0000000e+00 1.2000000e+01 
7.5000000e-01 3.0000000e+00 1.2500000e+01 
7.5000000e-01 3.0000000e+00 1.3000000e+01 
7.5000000e-01 3.0000000e+00 1.3500000e+01 
7.5000000e-01 3.0000000e+00 1.4000000e+01 
7.5000000e-01 3.0000000e+00 1.4500000e+01 
7.5000000e-01 3.0000000e+00 1.5000000e+01 
7.5000000e-01 3.0000000e+00 1.5500000e+01 
7.5000000e-01 3.0000000e+00 1.6000000e+01 
7.5000000e-01 3.0000000e+00 1.6500000e+01 
7.5000000e-01 3.0000000e+00 1.7000000e+01 
7.5000000e-01 3.0000000e+00 1.7500000e+01 
7.5000000e-01 3.0000000e+00 1.8000000e+01 
7.5000000e-01 3.0000000e+00 1.8500000e+01 
7.5000000e-01 3.0000000e+00 1.9000000e+01 
7.5000000e-01 3.0000000e+00 1.9500000e+01 
7.5000000e-01 3.0000000e+00 2.0000000e+01 
7.5000000e-01 3.0000000e+00 2.0500000e+01 
7.5000000e-01 3.0000000e+00 2.1000000e+01 
7.5000000e-01 3.0000000e+00 2.1500000e+01 
7.5000000e-01 3.0000000e+00 2.2000000e+01 
7.5000000e-01 3.0000000e+00 2.2500000e+01 
7.5000000e-01 3.0000000e+00 2.3000000e+01 
7.5000000e-01 3.0000000e+00 2.3500000e+01 
7.5000000e-01 3.0000000e+00 2.4000000e+01 
7.5000000e-01 3.0000000e+00 2.4500000e+01 
7.5000000e-01 3.0000000e+00 2.5000000e+01 
7.5000000e-01 3.0000000e+00 2.5500000e+01 
7.5000000e-01 3.0000000e+00 2.6000000e+01 
7.5000000e-01 3.0000000e+00 2.6500000e+01 
7.5000000e-01 3.0000000e+00 2.7000000e+01 
7.5000000e-01 3.0000000e+00 2.7500000e+01 
7.5000000e-01 3.0000000e+00 2.8000000e+01 
7.5000000e-01 3.0000000e+00 2.8500000e+01 
7.5000000e-01 3.0000000e+00 2.9000000e+01 
7.5000000e-01 3.0000000e+00 2.9500000e+01 
7.5000000e-01 3.0000000e+00 3.0000000e+01 
7.5000000e-01 3.0000000e+00 3.0500000e+01 
7.5000000e-01 3.0000000e+00 3.1000000e+01 
7.5000000e-01 3.0000000e+00 3.1500000e+01 
7.5000000e-01 3.0000000e+00 3.2000000e+01 
7.5000000e-01 3.0000000e+00 3.2500000e+01 
7.5000000e-01 3.0000000e+00 3.3000000e+01 
7.5000000e-01 3.0000000e+00 3.3500000e+01 
7.5000000e-01 3.0000000e+00 3.4000000e+01 
7.5000000e-01 3.0000000e+00 3.4500000e+01 
7.5000000e-01 3.0000000e+00 3.5000000e+01 
7.5000000e-01 3.0000000e+00 3.5500000e+01 
7.5000000e-01 3.0000000e+00 3.6000000e+01 
7.5000000e-01 3.0000000e+00 3.6500000e+01 
7.5000000e-01 3.0000000e+00 3.7000000e+01 
7.5000000e-01 3.0000000e+00 3.7500000e+01 
7.5000000e-01 3.0000000e+00 3.8000000e+01 
7.5000000e-01 3.0000000e+00 3.8500000e+01 
7.5000000e-01 3.0000000e+00 3.9000000e+01 
7.5000000e-01 3.0000000e+00 3.9500000e+01 
7.5000000e-01 3.0000000e+00 4.0500000e+01 
7.5000000e-01 3.0000000e+00 4.1000000e+01 
7.5000000e-01 3.0000000e+00 4.1500000e+01 
7.5000000e-01 3.0000000e+00 4.2000000e+01 
7.5000000e-01 3.0000000e+00 4.2500000e+01 
7.5000000e-01 3.0000000e+00 4.3000000e+01 
7.5000000e-01 3.0000000e+00 4.3500000e+01 
7.5000000e-01 3.0000000e+00 4.4000000e+01 
7.5000000e-01 3.0000000e+00 4.4500000e+01 
7.5000000e-01 3.0000000e+00 4.5000000e+01 
7.5000000e-01 3.0000000e+00 4.5500000e+01 
7.5000000e-01 3.0000000e+00 4.6000000e+01 
7.5000000e-01 3.0000000e+00 4.6500000e+01 
7.5000000e-01 3.0000000e+00 4.7000000e+01 
7.5000000e-01 3.0000000e+00 4.7500000e+01 
7.5000000e-01 3.0000000e+00 4.8000000e+01 
7.5000000e-01 3.0000000e+00 4.8500000e+01 
7.5000000e-01 3.0000000e+00 4.9000000e+01 
7.5000000e-01 3.0000000e+00 4.9500000e+01 
7.5000000e-01 3.0000000e+00 5.0000000e+01 
7.5000000e-01 3.0250001e+00 0.0000000e+00 
7.5000000e-01 3.0250001e+00 5.0000000e-01 
7.5000000e-01 3.0250001e+00 1.0000000e+00 
7.5000000e-01 3.0250001e+00 1.5000000e+00 
7.5000000e-01 3.0250001e+00 2.0000000e+00 
7.5000000e-01 3.0250001e+00 2.5000000e+00 
7.5000000e-01 3.0250001e+00 3.0000000e+00 
7.5000000e-01 3.0250001e+00 3.5000000e+00 
7.5000000e-01 3.0250001e+00 4.0000000e+00 
7.5000000e-01 3.0250001e+00 4.5000000e+00 
7.5000000e-01 3.0250001e+00 5.0000000e+00 
7.5000000e-01 3.0250001e+00 5.5000000e+00 
7.5000000e-01 3.0250001e+00 6.0000000e+00 
7.5000000e-01 3.0250001e+00 6.5000000e+00 
7.5000000e-01 3.0250001e+00 7.0000000e+00 
7.5000000e-01 3.0250001e+00 7.5000000e+00 
7.5000000e-01 3.0250001e+00 8.0000000e+00 
7.5000000e-01 3.0250001e+00 8.5000000e+00 
7.5000000e-01 3.0250001e+00 9.0000000e+00 
7.5000000e-01 3.0250001e+00 9.5000000e+00 
7.5000000e-01 3.0250001e+00 1.0000000e+01 
7.5000000e-01 3.0250001e+00 1.0500000e+01 
7.5000000e-01 3.0250001e+00 1.1000000e+01 
7.5000000e-01 3.0250001e+00 1.1500000e+01 
7.5000000e-01 3.0250001e+00 1.2000000e+01 
7.5000000e-01 3.0250001e+00 1.2500000e+01 
7.5000000e-01 3.0250001e+00 1.3000000e+01 
7.5000000e-01 3.0250001e+00 1.3500000e+01 
7.5000000e-01 3.0250001e+00 1.4000000e+01 
7.5000000e-01 3.0250001e+00 1.4500000e+01 
7.5000000e-01 3.0250001e+00 1.5000000e+01 
7.5000000e-01 3.0250001e+00 1.5500000e+01 
7.5000000e-01 3.0250001e+00 1.6000000e+01 
7.5000000e-01 3.0250001e+00 1.6500000e+01 
7.5000000e-01 3.0250001e+00 1.7000000e+01 
7.5000000e-01 3.0250001e+00 1.7500000e+01 
7.5000000e-01 3.0250001e+00 1.8000000e+01 
7.5000000e-01 3.0250001e+00 1.8500000e+01 
7.5000000e-01 3.0250001e+00 1.9000000e+01 
7.5000000e-01 3.0250001e+00 1.9500000e+01 
7.5000000e-01 3.0250001e+00 2.0000000e+01 
7.5000000e-01 3.0250001e+00 2.0500000e+01 
7.5000000e-01 3.0250001e+00 2.1000000e+01 
7.5000000e-01 3.0250001e+00 2.1500000e+01 
7.5000000e-01 3.0250001e+00 2.2000000e+01 
7.5000000e-01 3.0250001e+00 2.2500000e+01 
7.5000000e-01 3.0250001e+00 2.3000000e+01 
7.5000000e-01 3.0250001e+00 2.3500000e+01 
7.5000000e-01 3.0250001e+00 2.4000000e+01 
7.5000000e-01 3.0250001e+00 2.4500000e+01 
7.5000000e-01 3.0250001e+00 2.5000000e+01 
7.5000000e-01 3.0250001e+00 2.5500000e+01 
7.5000000e-01 3.0250001e+00 2.6000000e+01 
7.5000000e-01 3.0250001e+00 2.6500000e+01 
7.5000000e-01 3.0250001e+00 2.7000000e+01 
7.5000000e-01 3.0250001e+00 2.7500000e+01 
7.5000000e-01 3.0250001e+00 2.8000000e+01 
7.5000000e-01 3.0250001e+00 2.8500000e+01 
7.5000000e-01 3.0250001e+00 2.9000000e+01 
7.5000000e-01 3.0250001e+00 2.9500000e+01 
7.5000000e-01 3.0250001e+00 3.0000000e+01 
7.5000000e-01 3.0250001e+00 3.0500000e+01 
7.5000000e-01 3.0250001e+00 3.1000000e+01 
7.5000000e-01 3.0250001e+00 3.1500000e+01 
7.5000000e-01 3.0250001e+00 3.2000000e+01 
7.5000000e-01 3.0250001e+00 3.2500000e+01 
7.5000000e-01 3.0250001e+00 3.3000000e+01 
7.5000000e-01 3.0250001e+00 3.3500000e+01 
7.5000000e-01 3.0250001e+00 3.4000000e+01 
7.5000000e-01 3.0250001e+00 3.4500000e+01 
7.5000000e-01 3.0250001e+00 3.5000000e+01 
7.5000000e-01 3.0250001e+00 3.5500000e+01 
7.5000000e-01 3.0250001e+00 3.6000000e+01 
7.5000000e-01 3.0250001e+00 3.6500000e+01 
7.5000000e-01 3.0250001e+00 3.7000000e+01 
7.5000000e-01 3.0250001e+00 3.7500000e+01 
7.5000000e-01 3.0250001e+00 3.8000000e+01 
7.5000000e-01 3.0250001e+00 3.8500000e+01 
7.5000000e-01 3.0250001e+00 3.9000000e+01 
7.5000000e-01 3.0250001e+00 3.9500000e+01 
7.5000000e-01 3.0250001e+00 4.0000000e+01 
7.5000000e-01 3.0250001e+00 4.0500000e+01 
7.5000000e-01 3.0250001e+00 4.1000000e+01 
7.5000000e-01 3.0250001e+00 4.1500000e+01 
7.5000000e-01 3.0250001e+00 4.2000000e+01 
7.5000000e-01 3.0250001e+00 4.2500000e+01 
7.5000000e-01 3.0250001e+00 4.3000000e+01 
7.5000000e-01 3.0250001e+00 4.3500000e+01 
7.5000000e-01 3.0250001e+00 4.4000000e+01 
7.5000000e-01 3.0250001e+00 4.4500000e+01 
7.5000000e-01 3.0250001e+00 4.5000000e+01 
7.5000000e-01 3.0250001e+00 4.5500000e+01 
7.5000000e-01 3.0250001e+00 4.6000000e+01 
7.5000000e-01 3.0250001e+00 4.6500000e+01 
7.5000000e-01 3.0250001e+00 4.7000000e+01 
7.5000000e-01 3.0250001e+00 4.7500000e+01 
7.5000000e-01 3.0250001e+00 4.8000000e+01 
7.5000000e-01 3.0250001e+00 4.8500000e+01 
7.5000000e-01 3.0250001e+00 4.9000000e+01 
7.5000000e-01 3.0250001e+00 4.9500000e+01 
7.5000000e-01 3.0250001e+00 5.0000000e+01 
3.0000000e+00 2.0000000e+00 3.6000000e+01 
8.0487806e-01 3.0000000e+00 3.6000000e+01 
0.0000000e+00 0.0000000e+00 2.0000000e+00 
0.0000000e+00 0.0000000e+00 4.0000000e+00 
0.0000000e+00 0.0000000e+00 6.0000000e+00 
0.0000000e+00 0.0000000e+00 8.0000000e+00 
0.0000000e+00 0.0000000e+00 1.0000000e+01 
0.0000000e+00 0.0000000e+00 1.2000000e+01 
0.0000000e+00 0.0000000e+00 1.4000000e+01 
0.0000000e+00 0.0000000e+00 1.6000000e+01 
[...]
POINT_DATA 661
FIELD FieldData 3
DISPLACEMENT 3 661  float
0.0000000e+00 0.0000000e+00 0.0000000e+00 
0.0000000e+00 0.0000000e+00 0.0000000e+00 
0.0000000e+00 0.0000000e+00 0.0000000e+00 
0.0000000e+00 0.0000000e+00 0.0000000e+00 
6.3302900e-06 -4.9645091e-06 8.3141526e-07 
6.1195176e-05 -1.7479768e-05 1.7082441e-07 
0.0000000e+00 -1.6055736e-05 0.0000000e+00 
0.0000000e+00 -1.2207886e-03 0.0000000e+00 
7.9138736e-06 -6.6709817e-06 -4.0938580e-06 
2.6354592e-05 1.7524606e-05 1.1156885e-05 
2.0271568e-06 -1.3209123e-05 -1.5126995e-05 
3.1356052e-05 -2.9734356e-04 1.9830275e-04 
0.0000000e+00 -2.8098741e-05 0.0000000e+00 
0.0000000e+00 -3.0592810e-03 0.0000000e+00 
-1.4243556e-05 -3.3079843e-05 -6.2087325e-05 
-1.1194302e-03 -3.3447042e-03 1.1710210e-03 
-2.1294354e-05 -5.7737543e-07 -5.0615239e-05 
-6.7533675e-04 -1.4778183e-02 2.6182937e-03 
0.0000000e+00 -4.2625932e-05 0.0000000e+00 
0.0000000e+00 -6.3623455e-03 0.0000000e+00 
-1.3244363e-05 4.6463642e-06 -4.6274039e-05 
-7.8414560e-06 1.6900556e-05 -3.8918126e-05 
-4.1392823e-06 3.0469091e-05 -2.8909335e-05 
2.4706276e-06 4.1258572e-05 -1.3558380e-05 
6.8320546e-06 4.6060817e-05 2.8191525e-06 
1.2380863e-05 4.2393480e-05 1.7294229e-05 
1.0506587e-05 3.0576095e-05 2.7509977e-05 
8.8969991e-06 1.2411946e-05 3.1837557e-05 
7.5774442e-06 -9.8639521e-06 3.1349409e-05 
9.8878609e-06 -3.3670120e-05 2.9765217e-05 
1.3858118e-05 -5.6466080e-05 3.2723186e-05 
1.3128401e-05 -7.5449818e-05 3.7134359e-05 
3.2697096e-06 -8.8174413e-05 3.8092472e-05 
-7.9167166e-06 -9.3483686e-05 3.1893516e-05 
-1.2816145e-05 -9.0739850e-05 2.3435079e-05 
-1.5241922e-05 -8.1119833e-05 8.5175543e-06 
-1.8356459e-05 -6.4919390e-05 -1.1067050e-05 
-2.0681084e-05 -4.5659999e-05 -2.3401526e-05 
-2.0584141e-05 -2.5517436e-05 -2.7514005e-05 
-1.9478126e-05 -5.7294919e-06 -2.4925099e-05 
-1.3498782e-05 1.2523042e-05 -1.9091382e-05 
-8.8493034e-06 2.8923685e-05 -1.4599790e-05 
-2.8310553e-06 4.3065269e-05 -1.9347668e-05 
7.3601600e-06 5.5306318e-05 -2.3935268e-05 
1.8060175e-05 6.5729721e-05 -2.1277770e-05 
2.6401040e-05 7.5099051e-05 -1.3680038e-05 
3.2801061e-05 8.4553802e-05 -7.0623246e-06 
3.7649799e-05 9.5088086e-05 1.6999979e-06 
4.1780702e-05 1.0654179e-04 6.6971720e-06 
4.2658259e-05 1.1345740e-04 1.4825727e-05 
3.5746238e-05 1.0488880e-04 3.2237316e-05 
2.0914227e-05 5.2545285e-05 5.1499141e-05 
-2.3221246e-05 -8.4600055e-05 8.8916095e-05 
-3.8660164e-05 -3.4848353e-04 1.2257462e-04 
-6.6722874e-05 -8.0356980e-04 1.6811573e-04 
-1.2661464e-04 -1.4953819e-03 1.1006514e-04 
-2.8208381e-04 -2.4449616e-03 1.8649026e-04 
-2.9442162e-04 -3.4716479e-03 1.6269728e-04 
-1.8862054e-04 -4.2634266e-03 9.6966614e-05 
-1.6036928e-04 -4.2541553e-03 1.0673494e-04 
-2.8967150e-04 -4.0263077e-03 3.6341280e-05 
-3.5335575e-04 -3.9584786e-03 1.8672366e-05 
-2.3905862e-04 -4.1655442e-03 -1.7711802e-05 
-8.0137412e-05 -4.1535455e-03 -6.1325984e-05 
-1.0037655e-04 -3.4406406e-03 -1.5548858e-04 
-1.8743612e-04 -2.4019512e-03 -1.7993824e-04 
-1.7798654e-04 -1.4958605e-03 -1.7424524e-04 
-5.1388743e-05 -8.0517848e-04 -1.1369535e-04 
-1.3142862e-05 -3.6589100e-04 -1.4122984e-04 
1.9065752e-06 -1.1518440e-04 -1.0321593e-04 
3.1479697e-06 7.1214272e-06 -7.3782438e-05 
1.2165156e-05 5.2054904e-05 -4.4737248e-05 
7.7440882e-06 5.2381347e-05 -2.2200953e-05 
1.7067221e-06 3.3084827e-05 -7.8478834e-06 
-7.8272606e-06 1.0612139e-05 -4.0357618e-06 
-1.7645907e-05 -7.9837710e-06 -7.8360426e-06 
-1.8728613e-05 -1.8062035e-05 -1.0880417e-05 
-1.6988928e-05 -2.1863327e-05 -1.3559740e-05 
-1.8688725e-05 -2.2119299e-05 -1.4389678e-05 
-2.0050315e-05 -1.9616320e-05 -1.3749022e-05 
-1.6122769e-05 -1.4169507e-05 -1.6704767e-05 
-1.2511393e-05 -5.9424242e-06 -2.1864804e-05 
-6.0196726e-07 5.6202230e-06 -3.4342524e-05 
1.3910849e-05 2.1542530e-05 -4.2569100e-05 
3.0785439e-05 4.3403019e-05 -3.4079465e-05 
4.1341082e-05 7.1671297e-05 -1.8938290e-05 
4.8617603e-05 1.0778366e-04 -6.1948590e-06 
5.7432462e-05 1.5191386e-04 1.3067145e-05 
6.3409731e-05 2.0317800e-04 3.2849468e-05 
6.4924607e-05 2.5600268e-04 6.0333343e-05 
3.6581656e-05 2.9915382e-04 1.1503076e-04 
1.6350568e-05 3.0140847e-04 1.7383645e-04 
-3.7794089e-05 2.0435599e-04 2.3137980e-04 
-5.4201941e-05 -7.8614969e-05 2.9666052e-04 
-1.3978871e-04 -6.8543409e-04 4.3797822e-04 
-3.1270765e-04 -1.8362771e-03 7.1962510e-04 
-4.2145557e-04 -3.7126620e-03 9.7818463e-04 
-3.4861598e-04 -6.4297859e-03 1.0222020e-03 
-1.5221318e-04 -9.9748299e-03 3.1377582e-04 
0.0000000e+00 -2.0362915e-02 0.0000000e+00 
0.0000000e+00 -2.5843898e-02 0.0000000e+00 
0.0000000e+00 -3.0237336e-02 0.0000000e+00 
0.0000000e+00 -3.2518223e-02 0.0000000e+00 
0.0000000e+00 -3.2116201e-02 0.0000000e+00 
0.0000000e+00 -2.9551215e-02 0.0000000e+00 
0.0000000e+00 -2.5482778e-02 0.0000000e+00 
0.0000000e+00 -2.0527925e-02 0.0000000e+00 
0.0000000e+00 -1.5237574e-02 0.0000000e+00 
0.0000000e+00 -1.0074308e-02 0.0000000e+00 
0.0000000e+00 -5.3950073e-03 0.0000000e+00 
0.0000000e+00 -1.4414504e-03 0.0000000e+00 
0.0000000e+00 1.6600882e-03 0.0000000e+00 
0.0000000e+00 3.8908685e-03 0.0000000e+00 
0.0000000e+00 5.3243623e-03 0.0000000e+00 
0.0000000e+00 6.1040432e-03 0.0000000e+00 
0.0000000e+00 6.4149881e-03 0.0000000e+00 
0.0000000e+00 6.4518112e-03 0.0000000e+00 
0.0000000e+00 6.3875080e-03 0.0000000e+00 
0.0000000e+00 6.3482127e-03 0.0000000e+00 
0.0000000e+00 -3.3569063e-07 0.0000000e+00 
0.0000000e+00 4.7452927e-06 0.0000000e+00 
0.0000000e+00 1.6811156e-05 0.0000000e+00 
0.0000000e+00 3.0425741e-05 0.0000000e+00 
0.0000000e+00 4.1230945e-05 0.0000000e+00 
0.0000000e+00 4.5924702e-05 0.0000000e+00 
0.0000000e+00 4.2333057e-05 0.0000000e+00 
0.0000000e+00 3.0571024e-05 0.0000000e+00 
0.0000000e+00 1.2398497e-05 0.0000000e+00 
0.0000000e+00 -9.8656337e-06 0.0000000e+00 
0.0000000e+00 -3.3692351e-05 0.0000000e+00 
0.0000000e+00 -5.6461435e-05 0.0000000e+00 
0.0000000e+00 -7.5408745e-05 0.0000000e+00 
0.0000000e+00 -8.8166700e-05 0.0000000e+00 
0.0000000e+00 -9.3423412e-05 0.0000000e+00 
0.0000000e+00 -9.0788504e-05 0.0000000e+00 
0.0000000e+00 -8.0955404e-05 0.0000000e+00 
0.0000000e+00 -6.4987187e-05 0.0000000e+00 
0.0000000e+00 -4.5734421e-05 0.0000000e+00 
0.0000000e+00 -2.5531122e-05 0.0000000e+00 
0.0000000e+00 -5.7730376e-06 0.0000000e+00 
0.0000000e+00 1.2524340e-05 0.0000000e+00 
0.0000000e+00 2.8898723e-05 0.0000000e+00 
0.0000000e+00 4.3090662e-05 0.0000000e+00 
0.0000000e+00 5.5284600e-05 0.0000000e+00 
0.0000000e+00 6.5728345e-05 0.0000000e+00 
0.0000000e+00 7.5128868e-05 0.0000000e+00 
0.0000000e+00 8.4612453e-05 0.0000000e+00 
0.0000000e+00 9.5318901e-05 0.0000000e+00 
0.0000000e+00 1.0684726e-04 0.0000000e+00 
0.0000000e+00 1.1443519e-04 0.0000000e+00 
0.0000000e+00 1.0559327e-04 0.0000000e+00 
0.0000000e+00 5.2699135e-05 0.0000000e+00 
0.0000000e+00 -8.3398139e-05 0.0000000e+00 
0.0000000e+00 -3.4913464e-04 0.0000000e+00 
0.0000000e+00 -8.0511736e-04 0.0000000e+00 
0.0000000e+00 -1.5050626e-03 0.0000000e+00 
0.0000000e+00 -2.4529088e-03 0.0000000e+00 
0.0000000e+00 -3.5048609e-03 0.0000000e+00 
0.0000000e+00 -4.2883432e-03 0.0000000e+00 
0.0000000e+00 -4.2857155e-03 0.0000000e+00 
0.0000000e+00 -4.0404955e-03 0.0000000e+00 
0.0000000e+00 -3.9890893e-03 0.0000000e+00 
0.0000000e+00 -4.1852272e-03 0.0000000e+00 
0.0000000e+00 -4.1877013e-03 0.0000000e+00 
0.0000000e+00 -3.4585376e-03 0.0000000e+00 
0.0000000e+00 -2.4201500e-03 0.0000000e+00 
0.0000000e+00 -1.4980485e-03 0.0000000e+00 
0.0000000e+00 -8.0941222e-04 0.0000000e+00 
0.0000000e+00 -3.6572688e-04 0.0000000e+00 
0.0000000e+00 -1.1436919e-04 0.0000000e+00 
0.0000000e+00 8.1307580e-06 0.0000000e+00 
0.0000000e+00 5.2454441e-05 0.0000000e+00 
0.0000000e+00 5.2813302e-05 0.0000000e+00 
0.0000000e+00 3.3582008e-05 0.0000000e+00 
0.0000000e+00 1.0743556e-05 0.0000000e+00 
0.0000000e+00 -7.6604620e-06 0.0000000e+00 
0.0000000e+00 -1.8049375e-05 0.0000000e+00 
0.0000000e+00 -2.1985605e-05 0.0000000e+00 
0.0000000e+00 -2.2169357e-05 0.0000000e+00 
0.0000000e+00 -1.9597785e-05 0.0000000e+00 
0.0000000e+00 -1.4214727e-05 0.0000000e+00 
0.0000000e+00 -5.9691047e-06 0.0000000e+00 
0.0000000e+00 5.6038239e-06 0.0000000e+00 
0.0000000e+00 2.1600224e-05 0.0000000e+00 
0.0000000e+00 4.3364580e-05 0.0000000e+00 
0.0000000e+00 7.1735456e-05 0.0000000e+00 
0.0000000e+00 1.0784867e-04 0.0000000e+00 
0.0000000e+00 1.5213233e-04 0.0000000e+00 
0.0000000e+00 2.0348415e-04 0.0000000e+00 
0.0000000e+00 2.5708732e-04 0.0000000e+00 
0.0000000e+00 3.0058218e-04 0.0000000e+00 
0.0000000e+00 3.0285589e-04 0.0000000e+00 
0.0000000e+00 2.0740024e-04 0.0000000e+00 
0.0000000e+00 -7.4251773e-05 0.0000000e+00 
0.0000000e+00 -6.8784575e-04 0.0000000e+00 
0.0000000e+00 -1.8400110e-03 0.0000000e+00 
0.0000000e+00 -3.7142613e-03 0.0000000e+00 
0.0000000e+00 -6.4403880e-03 0.0000000e+00 
0.0000000e+00 -1.0096624e-02 0.0000000e+00 
0.0000000e+00 -1.4814818e-02 0.0000000e+00 
0.0000000e+00 -2.0363171e-02 0.0000000e+00 
0.0000000e+00 -2.5844177e-02 0.0000000e+00 
0.0000000e+00 -3.0237269e-02 0.0000000e+00 
0.0000000e+00 -3.2517906e-02 0.0000000e+00 
0.0000000e+00 -3.2117035e-02 0.0000000e+00 
0.0000000e+00 -2.9553154e-02 0.0000000e+00 
0.0000000e+00 -2.5485788e-02 0.0000000e+00 
0.0000000e+00 -2.0531908e-02 0.0000000e+00 
0.0000000e+00 -1.5242278e-02 0.0000000e+00 
0.0000000e+00 -1.0079387e-02 0.0000000e+00 
0.0000000e+00 -5.4000909e-03 0.0000000e+00 
0.0000000e+00 -1.4461832e-03 0.0000000e+00 
0.0000000e+00 1.6560422e-03 0.0000000e+00 
0.0000000e+00 3.8878280e-03 0.0000000e+00 
0.0000000e+00 5.3225937e-03 0.0000000e+00 
0.0000000e+00 6.1036861e-03 0.0000000e+00 
0.0000000e+00 6.4159948e-03 0.0000000e+00 
0.0000000e+00 6.4539388e-03 0.0000000e+00 
0.0000000e+00 6.3903653e-03 0.0000000e+00 
0.0000000e+00 6.3513224e-03 0.0000000e+00 
1.1926192e-05 3.6864418e-05 3.5301684e-05 
4.1828334e-06 2.6959908e-04 1.8181588e-04 
0.0000000e+00 0.0000000e+00 0.0000000e+00 
0.0000000e+00 0.0000000e+00 0.0000000e+00 
0.0000000e+00 0.0000000e+00 0.0000000e+00 
0.0000000e+00 0.0000000e+00 0.0000000e+00 
0.0000000e+00 0.0000000e+00 0.0000000e+00 
0.0000000e+00 0.0000000e+00 0.0000000e+00 
0.0000000e+00 0.0000000e+00 0.0000000e+00 
0.0000000e+00 0.0000000e+00 0.0000000e+00 
0.0000000e+00 0.0000000e+00 0.0000000e+00 
0.0000000e+00 0.0000000e+00 0.0000000e+00 
0.0000000e+00 0.0000000e+00 0.0000000e+00 
0.0000000e+00 0.0000000e+00 0.0000000e+00 
0.0000000e+00 0.0000000e+00 0.0000000e+00 
0.0000000e+00 0.0000000e+00 0.0000000e+00 
0.0000000e+00 0.0000000e+00 0.0000000e+00 
0.0000000e+00 0.0000000e+00 0.0000000e+00 
0.0000000e+00 0.0000000e+00 0.0000000e+00 
0.0000000e+00 0.0000000e+00 0.0000000e+00 
0.0000000e+00 0.0000000e+00 0.0000000e+00 
0.0000000e+00 0.0000000e+00 0.0000000e+00 
0.0000000e+00 0.0000000e+00 0.0000000e+00 
0.0000000e+00 0.0000000e+00 0.0000000e+00 
0.0000000e+00 0.0000000e+00 0.0000000e+00 
0.0000000e+00 0.0000000e+00 0.0000000e+00 
0.0000000e+00 0.0000000e+00 0.0000000e+00 
0.0000000e+00 0.0000000e+00 0.0000000e+00 
0.0000000e+00 0.0000000e+00 0.0000000e+00 
0.0000000e+00 0.0000000e+00 0.0000000e+00 
0.0000000e+00 0.0000000e+00 0.0000000e+00 
0.0000000e+00 0.0000000e+00 0.0000000e+00 
0.0000000e+00 0.0000000e+00 0.0000000e+00 
0.0000000e+00 0.0000000e+00 0.0000000e+00 
0.0000000e+00 0.0000000e+00 0.0000000e+00 
0.0000000e+00 0.0000000e+00 0.0000000e+00 
0.0000000e+00 0.0000000e+00 0.0000000e+00 
0.0000000e+00 0.0000000e+00 0.0000000e+00 
0.0000000e+00 0.0000000e+00 0.0000000e+00 
0.0000000e+00 0.0000000e+00 0.0000000e+00 
0.0000000e+00 0.0000000e+00 0.0000000e+00 
0.0000000e+00 0.0000000e+00 0.0000000e+00 
0.0000000e+00 0.0000000e+00 0.0000000e+00 
0.0000000e+00 0.0000000e+00 0.0000000e+00 
-9.5859605e-07 2.1635472e-06 5.2110636e-07 
-1.8540244e-06 2.8670331e-06 -1.8428506e-06 
2.2376519e-06 -5.1464707e-07 1.2291695e-06 
4.2897595e-06 -2.7160031e-06 3.9241713e-06 
-1.7963898e-06 -2.5891800e-06 6.7487008e-06 
-8.3832874e-06 6.0516243e-07 1.6354006e-06 
-4.2660940e-06 8.0625023e-07 -6.6146686e-06 
1.1204149e-05 -3.0569270e-06 -1.1550315e-05 
3.6223970e-05 -7.9446363e-06 -1.3426010e-05 
5.3765823e-05 -7.6766883e-06 -3.5656067e-06 
4.6586425e-05 -4.8392021e-06 8.0281761e-06 
2.2259950e-05 -3.0044623e-06 5.0490894e-06 
5.7272973e-06 -1.4242530e-06 3.5207474e-06 
1.3747479e-06 -6.6632663e-07 2.4300359e-06 
-2.5612583e-06 -7.6877797e-08 4.3017103e-06 
-9.4346306e-06 1.5134940e-06 3.1147256e-06 
-9.6077329e-06 -5.4475396e-07 4.6371870e-06 
8.3860286e-06 1.6340484e-06 3.3735932e-06 
3.7370264e-05 -2.7990629e-06 -5.6470535e-06 
0.0000000e+00 1.6046621e-05 0.0000000e+00 
0.0000000e+00 6.2399922e-06 0.0000000e+00 
0.0000000e+00 -2.0796348e-05 0.0000000e+00 
0.0000000e+00 -2.7545784e-05 0.0000000e+00 
0.0000000e+00 -7.3743638e-07 0.0000000e+00 
0.0000000e+00 1.6082824e-05 0.0000000e+00 
0.0000000e+00 2.9719595e-05 0.0000000e+00 
0.0000000e+00 -2.4394428e-06 0.0000000e+00 
0.0000000e+00 -2.3168787e-04 0.0000000e+00 
0.0000000e+00 -5.6587340e-04 0.0000000e+00 
0.0000000e+00 -5.0807692e-04 0.0000000e+00 
0.0000000e+00 -1.5030403e-04 0.0000000e+00 
0.0000000e+00 -4.1894987e-06 0.0000000e+00 
0.0000000e+00 -5.1694497e-06 0.0000000e+00 
0.0000000e+00 -5.5173987e-06 0.0000000e+00 
0.0000000e+00 6.3580442e-06 0.0000000e+00 
0.0000000e+00 4.5754536e-05 0.0000000e+00 
0.0000000e+00 4.5743102e-05 0.0000000e+00 
0.0000000e+00 -3.5151342e-04 0.0000000e+00 
3.0440349e-06 -6.1084784e-06 -2.7965204e-06 
1.6513626e-06 -1.4900565e-05 -7.1962281e-06 
1.0181119e-04 -1.0570265e-04 5.3974225e-05 
2.6560735e-04 -7.1126421e-04 8.4317384e-05 
1.0995921e-06 1.7610261e-06 -1.7899641e-06 
-2.0759912e-06 2.8968150e-06 -2.5654370e-07 
4.9453809e-07 -3.7539923e-08 3.8826197e-06 
1.9456215e-06 -3.1915297e-06 6.1092678e-06 
-2.1530880e-06 -4.9793503e-06 5.7737848e-06 
-6.6988605e-06 8.9397037e-07 1.0077712e-07 
-2.0771495e-06 2.1197009e-06 -9.6448166e-06 
2.2073082e-05 -3.0182987e-06 -1.3984040e-05 
3.5008306e-05 -6.3006914e-06 -7.1681552e-06 
3.7712929e-05 -6.3351381e-06 -2.5650002e-06 
2.8032378e-05 -2.2487293e-06 6.8826394e-06 
1.3186912e-05 2.4233341e-07 -6.2482866e-07 
6.9017474e-06 -1.3995606e-06 2.3311482e-06 
-4.1734690e-08 -1.9285660e-06 3.1339985e-06 
-3.8671783e-06 -1.8021752e-06 4.2508323e-06 
-1.0987739e-05 1.0236454e-06 3.0034641e-06 
-2.7513738e-06 -1.1468917e-06 2.1911994e-06 
1.7808945e-05 7.0337171e-07 7.0716983e-06 
2.1182643e-05 1.0807091e-05 2.0362744e-05 
-5.6679113e-08 -1.8991115e-05 -2.0385631e-05 
0.0000000e+00 3.1404597e-05 0.0000000e+00 
0.0000000e+00 1.2342628e-05 0.0000000e+00 
0.0000000e+00 -3.9881339e-05 0.0000000e+00 
0.0000000e+00 -5.0681028e-05 0.0000000e+00 
0.0000000e+00 5.9874679e-07 0.0000000e+00 
0.0000000e+00 2.9291603e-05 0.0000000e+00 
0.0000000e+00 5.4363471e-05 0.0000000e+00 
0.0000000e+00 8.4511648e-06 0.0000000e+00 
0.0000000e+00 -4.8486472e-04 0.0000000e+00 
0.0000000e+00 -1.2512649e-03 0.0000000e+00 
0.0000000e+00 -1.1310428e-03 0.0000000e+00 
0.0000000e+00 -2.8248742e-04 0.0000000e+00 
0.0000000e+00 6.3288248e-06 0.0000000e+00 
0.0000000e+00 -1.0159538e-05 0.0000000e+00 
0.0000000e+00 -9.8195569e-06 0.0000000e+00 
0.0000000e+00 1.0968060e-05 0.0000000e+00 
0.0000000e+00 8.8014523e-05 0.0000000e+00 
0.0000000e+00 1.0975500e-04 0.0000000e+00 
0.0000000e+00 -5.6579401e-04 0.0000000e+00 
2.8282363e-04 -1.4807379e-03 2.5388971e-04 
-1.2680728e-06 3.9622657e-05 -2.0354184e-05 
1.0036908e-05 4.9529035e-06 4.5317487e-05 
1.2915972e-05 -6.1476894e-05 4.7854104e-05 
-2.2710106e-05 -5.9138863e-05 4.5954362e-06 
-2.4434983e-05 -6.3909570e-06 -3.0483412e-05 
4.8819506e-06 4.2619344e-05 -4.6939189e-05 
5.9670256e-05 4.4639557e-05 1.8826805e-06 
4.1722004e-05 6.8680813e-05 8.0750127e-05 
-2.9089503e-04 -4.5965740e-04 3.0998996e-04 
-7.2692859e-04 -1.3953997e-03 9.9550809e-05 
-6.2581239e-04 -1.4123771e-03 -1.5855090e-04 
-1.2077542e-04 -2.4281912e-04 -2.3975834e-04 
2.7728487e-05 1.9909730e-05 -4.6554775e-05 
-1.8923216e-05 -1.8043795e-05 -8.7642456e-06 
-2.6480906e-05 -1.5890455e-05 -1.6139151e-05 
1.0324469e-05 8.7073695e-06 -6.2528219e-05 
8.4326122e-05 7.6124292e-05 -4.4845406e-06 
4.8470607e-05 1.4037619e-04 2.0911952e-04 
-4.5377103e-04 -5.1556696e-04 7.9401216e-04 
0.0000000e+00 4.4846845e-05 0.0000000e+00 
0.0000000e+00 1.7745637e-05 0.0000000e+00 
0.0000000e+00 -6.8631467e-05 0.0000000e+00 
0.0000000e+00 -7.0429138e-05 0.0000000e+00 
0.0000000e+00 3.2083324e-06 0.0000000e+00 
0.0000000e+00 4.1456067e-05 0.0000000e+00 
0.0000000e+00 7.5454576e-05 0.0000000e+00 
0.0000000e+00 5.3985121e-05 0.0000000e+00 
0.0000000e+00 -9.0276438e-04 0.0000000e+00 
0.0000000e+00 -2.4205740e-03 0.0000000e+00 
0.0000000e+00 -2.1561235e-03 0.0000000e+00 
0.0000000e+00 -4.8332004e-04 0.0000000e+00 
0.0000000e+00 4.0257699e-05 0.0000000e+00 
0.0000000e+00 -1.1928036e-05 0.0000000e+00 
0.0000000e+00 -1.0652633e-05 0.0000000e+00 
0.0000000e+00 1.0107522e-05 0.0000000e+00 
0.0000000e+00 1.0960430e-04 0.0000000e+00 
0.0000000e+00 2.5773741e-04 0.0000000e+00 
0.0000000e+00 -1.0844548e-03 0.0000000e+00 
-3.5041087e-06 1.1215763e-05 -8.2191491e-06 
-1.0565076e-07 2.3040084e-06 4.4112148e-06 
3.2707260e-06 -1.5012612e-05 1.1912484e-05 
-4.1371932e-06 -1.8347962e-05 5.1628435e-06 
-1.3424091e-05 -2.5021729e-06 -8.4361560e-08 
-6.8307395e-06 1.0545787e-05 -7.5377088e-06 
1.0836136e-05 1.3917695e-05 -1.0295014e-06 
2.5707706e-05 3.1139381e-05 1.1760600e-05 
5.7043679e-05 -5.1486779e-05 2.9511734e-06 
5.3284348e-05 -1.0532610e-04 -9.9748004e-06 
4.0021783e-05 -9.7346972e-05 -1.0800388e-07 
3.9208047e-05 -5.1590534e-05 -1.0154741e-06 
4.5523088e-06 5.2383234e-06 -8.3660625e-06 
-7.3383571e-06 -4.9695736e-06 -5.8903051e-06 
-1.3026711e-05 -4.4374619e-06 -5.4250868e-06 
-9.5537962e-06 -2.1194248e-06 -3.2679052e-06 
7.6619017e-06 2.0431120e-05 9.2383289e-06 
5.0621828e-05 -1.3778696e-05 5.4603817e-05 
2.9853145e-05 7.6626951e-05 1.4284418e-04 
0.0000000e+00 0.0000000e+00 0.0000000e+00 
0.0000000e+00 0.0000000e+00 0.0000000e+00 
0.0000000e+00 0.0000000e+00 0.0000000e+00 
0.0000000e+00 0.0000000e+00 0.0000000e+00 
0.0000000e+00 0.0000000e+00 0.0000000e+00 
0.0000000e+00 0.0000000e+00 0.0000000e+00 
0.0000000e+00 0.0000000e+00 0.0000000e+00 
0.0000000e+00 0.0000000e+00 0.0000000e+00 
0.0000000e+00 0.0000000e+00 0.0000000e+00 
0.0000000e+00 0.0000000e+00 0.0000000e+00 
0.0000000e+00 0.0000000e+00 0.0000000e+00 
0.0000000e+00 0.0000000e+00 0.0000000e+00 
0.0000000e+00 0.0000000e+00 0.0000000e+00 
0.0000000e+00 0.0000000e+00 0.0000000e+00 
0.0000000e+00 0.0000000e+00 0.0000000e+00 
0.0000000e+00 0.0000000e+00 0.0000000e+00 
0.0000000e+00 0.0000000e+00 0.0000000e+00 
0.0000000e+00 0.0000000e+00 0.0000000e+00 
0.0000000e+00 0.0000000e+00 0.0000000e+00 
0.0000000e+00 0.0000000e+00 0.0000000e+00 
0.0000000e+00 0.0000000e+00 0.0000000e+00 
0.0000000e+00 0.0000000e+00 0.0000000e+00 
0.0000000e+00 0.0000000e+00 0.0000000e+00 
0.0000000e+00 0.0000000e+00 0.0000000e+00 
0.0000000e+00 0.0000000e+00 0.0000000e+00 
0.0000000e+00 0.0000000e+00 0.0000000e+00 
0.0000000e+00 0.0000000e+00 0.0000000e+00 
0.0000000e+00 0.0000000e+00 0.0000000e+00 
0.0000000e+00 0.0000000e+00 0.0000000e+00 
0.0000000e+00 0.0000000e+00 0.0000000e+00 
0.0000000e+00 0.0000000e+00 0.0000000e+00 
0.0000000e+00 0.0000000e+00 0.0000000e+00 
0.0000000e+00 0.0000000e+00 0.0000000e+00 
0.0000000e+00 0.0000000e+00 0.0000000e+00 
0.0000000e+00 0.0000000e+00 0.0000000e+00 
0.0000000e+00 0.0000000e+00 0.0000000e+00 
0.0000000e+00 0.0000000e+00 0.0000000e+00 
0.0000000e+00 0.0000000e+00 0.0000000e+00 
0.0000000e+00 0.0000000e+00 0.0000000e+00 
0.0000000e+00 0.0000000e+00 0.0000000e+00 
0.0000000e+00 0.0000000e+00 0.0000000e+00 
0.0000000e+00 0.0000000e+00 0.0000000e+00 
1.7723980e-07 7.1437222e-07 -7.6700786e-07 
-3.5931782e-06 -6.3275202e-08 -1.4561924e-06 
1.0066376e-05 -7.2086309e-06 -8.0539521e-06 
2.0939984e-05 -8.0622231e-06 3.3690847e-06 
6.1526066e-06 -2.9417290e-06 1.8492593e-06 
1.1180357e-06 -6.5791562e-07 6.1288262e-07 
5.4482211e-07 2.3439226e-07 2.9021403e-06 
-3.5644866e-06 8.3397839e-07 1.4238009e-06 
-5.5177579e-06 1.1338403e-06 1.5694947e-06 