# vtk DataFile Version 4.0
vtk output
ASCII
DATASET UNSTRUCTURED_GRID
POINTS 661 float
0.0000000e+00 0.0000000e+00 0.0000000e+00 
0.0000000e+00 0.0000000e+00 4.0000000e+01 
5.0000000e+00 0.0000000e+00 0.0000000e+00 
5.0000000e+00 0.0000000e+00 4.0000000e+01 
5.0000000e+00 1.0000000e+00 0.0000000e+00 
5.0000000e+00 1.0000000e+00 4.0000000e+01 
0.0000000e+00 1.0000000e+00 0.0000000e+00 
0.0000000e+00 1.0000000e+00 4.0000000e+01 
5.0000000e+00 2.0000000e+00 0.0000000e+00 
5.0000000e+00 2.0000000e+00 4.0000000e+01 
3.0000000e+00 2.0000000e+00 0.0000000e+00 
3.0000000e+00 2.0000000e+00 4.0000000e+01 
0.0000000e+00 2.0000000e+00 0.0000000e+00 
0.0000000e+00 2.0000000e+00 4.0000000e+01 
1.5000000e+00 3.0000000e+00 0.0000000e+00 
1.5000000e+00 3.0000000e+00 4.0000000e+01 
7.5000000e-01 3.0000000e+00 0.0000000e+00 
7.5000000e-01 3.0000000e+00 4.0000000e+01 
0.0000000e+00 3.0000000e+00 0.0000000e+00 
0.0000000e+00 3.0000000e+00 4.0000000e+01 
7.5000000e-01 3.0000000e+00 5.0000000e-01 
7.5000000e-01 3.0000000e+00 1.0000000e+00 
7.5000000e-01 3.0000000e+00 1.5000000e+00 
7.5000000e-01 3.0000000e+00 2.0000000e+00 
7.5000000e-01 3.0000000e+00 2.5000000e+00 
7.5000000e-01 3.0000000e+00 3.0000000e+00 
7.5000000e-01 3.0000000e+00 3.5000000e+00 
7.5000000e-01 3.0000000e+00 4.0000000e+00 
7.5000000e-01 3.0000000e+00 4.5000000e+00 
7.5000000e-01 3.0000000e+00 5.0000000e+00 
7.5000000e-01 3.0000000e+00 5.5000000e+00 
7.5000000e-01 3.0000000e+00 6.0000000e+00 
7.5000000e-01 3.0000000e+00 6.5000000e+00 
7.5000000e-01 3.0000000e+00 7.0000000e+00 
7.5000000e-01 3.0000000e+00 7.5000000e+00 
7.5000000e-01 3.0000000e+00 8.0000000e+00 
7.5000000e-01 3.0000000e+00 8.5000000e+00 
7.5000000e-01 3.0000000e+00 9.0000000e+00 
7.5000000e-01 3.0000000e+00 9.5000000e+00 
7.5000000e-01 3.0000000e+00 1.0000000e+01 
7.5000000e-01 3.0000000e+00 1.0500000e+01 
7.5000000e-01 3.0000000e+00 1.1000000e+01 
7.5000000e-01 3.0000000e+00 1.1500000e+01 
7.5000000e-01 3.0000000e+00 1.2000000e+01 
7.5000000e-01 3.0000000e+00 1.2500000e+01 
7.5000000e-01 3.0000000e+00 1.3000000e+01 
7.5000000e-01 3.0000000e+00 1.3500000e+01 
7.5000000e-01 3.0000000e+00 1.4000000e+01 
7.5000000e-01 3.0000000e+00 1.4500000e+01 
7.5000000e-01 3.0000000e+00 1.5000000e+01 
7.5000000e-01 3.0000000e+00 1.5500000e+01 
7.5000000e-01 3.0000000e+00 1.6000000e+01 
7.5000000e-01 3.0000000e+00 1.6500000e+01 
7.5000000e-01 3.0000000e+00 1.7000000e+01 
7.5000000e-01 3.0000000e+00 1.7500000e+01 
7.5000000e-01 3.0000000e+00 1.8000000e+01 
7.5000000e-01 3.0000000e+00 1.8500000e+01 
7.5000000e-01 3.0000000e+00 1.9000000e+01 
7.5000000e-01 3.0000000e+00 1.9500000e+01 
7.5000000e-01 3.0000000e+00 2.0000000e+01 
7.5000000e-01 3.0000000e+00 2.0500000e+01 
7.5000000e-01 3.0000000e+00 2.1000000e+01 
7.5000000e-01 3.0000000e+00 2.1500000e+01 
7.5000000e-01 3.0000000e+00 2.2000000e+01 
7.5000000e-01 3.0000000e+00 2.2500000e+01 
7.5000000e-01 3.0000000e+00 2.3000000e+01 
7.5000000e-01 3.0000000e+00 2.3500000e+01 
7.5000000e-01 3.0000000e+00 2.4000000e+01 
7.5000000e-01 3.0000000e+00 2.4500000e+01 
7.5000000e-01 3.0000000e+00 2.5000000e+01 
7.5000000e-01 3.0000000e+00 2.5500000e+01 
7.5000000e-01 3.0000000e+00 2.6000000e+01 
7.5000000e-01 3.0000000e+00 2.6500000e+01 
7.5000000e-01 3.0000000e+00 2.7000000e+01 
7.5000000e-01 3.0000000e+00 2.7500000e+01 
7.5000000e-01 3.0000000e+00 2.8000000e+01 
7.5000000e-01 3.0000000e+00 2.8500000e+01 
7.5000000e-01 3.0000000e+00 2.9000000e+01 
7.5000000e-01 3.0000000e+00 2.9500000e+01 
7.5000000e-01 3.0000000e+00 3.0000000e+01 
7.5000000e-01 3.0000000e+00 3.0500000e+01 
7.5000000e-01 3.0000000e+00 3.1000000e+01 
7.5000000e-01 3.0000000e+00 3.1500000e+01 
7.5000000e-01 3.0000000e+00 3.2000000e+01 
7.5000000e-01 3.0000000e+00 3.2500000e+01 
7.5000000e-01 3.0000000e+00 3.3000000e+01 
7.5000000e-01 3.0000000e+00 3.3500000e+01 
7.5000000e-01 3.0000000e+00 3.4000000e+01 
7.5000000e-01 3.0000000e+00 3.4500000e+01 
7.5000000e-01 3.0000000e+00 3.5000000e+01 
7.5000000e-01 3.0000000e+00 3.5500000e+01 
7.5000000e-01 3.0000000e+00 3.6000000e+01 
7.5000000e-01 3.0000000e+00 3.6500000e+01 
7.5000000e-01 3.0000000e+00 3.7000000e+01 
7.5000000e-01 3.0000000e+00 3.7500000e+01 
7.5000000e-01 3.0000000e+00 3.8000000e+01 
7.5000000e-01 3.0000000e+00 3.8500000e+01 
7.5000000e-01 3.0000000e+00 3.9000000e+01 
7.5000000e-01 3.0000000e+00 3.9500000e+01 
7.5000000e-01 3.0000000e+00 4.0500000e+01 
7.5000000e-01 3.0000000e+00 4.1000000e+01 
7.5000000e-01 3.0000000e+00 4.1500000e+01 
7.5000000e-01 3.0000000e+00 4.2000000e+01 
7.5000000e-01 3.0000000e+00 4.2500000e+01 
7.5000000e-01 3.0000000e+00 4.3000000e+01 
7.5000000e-01 3.0000000e+00 4.3500000e+01 
7.5000000e-01 3.0000000e+00 4.4000000e+01 
7.5000000e-01 3.0000000e+00 4.4500000e+01 
7.5000000e-01 3.0000000e+00 4.5000000e+01 
7.5000000e-01 3.0000000e+00 4.5500000e+01 
7.5000000e-01 3.0000000e+00 4.6000000e+01 
7.5000000e-01 3.0000000e+00 4.6500000e+01 
7.5000000e-01 3.0000000e+00 4.7000000e+01 
7.5000000e-01 3.0000000e+00 4.7500000e+01 
7.5000000e-01 3.0000000e+00 4.8000000e+01 
7.5000000e-01 3.0000000e+00 4.8500000e+01 
7.5000000e-01 3.0000000e+00 4.9000000e+01 
7.5000000e-01 3.0000000e+00 4.9500000e+01 
7.5000000e-01 3.0000000e+00 5.0000000e+01 
7.5000000e-01 3.0250001e+00 0.0000000e+00 
7.5000000e-01 3.0250001e+00 5.0000000e-01 
7.5000000e-01 3.0250001e+00 1.0000000e+00 
7.5000000e-01 3.0250001e+00 1.5000000e+00 
7.5000000e-01 3.0250001e+00 2.0000000e+00 
7.5000000e-01 3.0250001e+00 2.5000000e+00 
7.5000000e-01 3.0250001e+00 3.0000000e+00 
7.5000000e-01 3.0250001e+00 3.5000000e+00 
7.5000000e-01 3.0250001e+00 4.0000000e+00 
7.5000000e-01 3.0250001e+00 4.5000000e+00 
7.5000000e-01 3.0250001e+00 5.0000000e+00 
7.5000000e-01 3.0250001e+00 5.5000000e+00 
7.5000000e-01 3.0250001e+00 6.0000000e+00 
7.5000000e-01 3.0250001e+00 6.5000000e+00 
7.5000000e-01 3.0250001e+00 7.0000000e+00 
7.5000000e-01 3.0250001e+00 7.5000000e+00 
7.5000000e-01 3.0250001e+00 8.0000000e+00 
7.5000000e-01 3.0250001e+00 8.5000000e+00 
7.5000000e-01 3.0250001e+00 9.0000000e+00 
7.5000000e-01 3.0250001e+00 9.5000000e+00 
7.5000000e-01 3.0250001e+00 1.0000000e+01 
7.5000000e-01 3.0250001e+00 1.0500000e+01 
7.5000000e-01 3.0250001e+00 1.1000000e+01 
7.5000000e-01 3.0250001e+00 1.1500000e+01 
7.5000000e-01 3.0250001e+00 1.2000000e+01 
7.5000000e-01 3.0250001e+00 1.2500000e+01 
7.5000000e-01 3.0250001e+00 1.3000000e+01 
7.5000000e-01 3.0250001e+00 1.3500000e+01 
7.5000000e-01 3.0250001e+00 1.4000000e+01 
7.5000000e-01 3.0250001e+00 1.4500000e+01 
7.5000000e-01 3.0250001e+00 1.5000000e+01 
7.5000000e-01 3.0250001e+00 1.5500000e+01 
7.5000000e-01 3.0250001e+00 1.6000000e+01 
7.5000000e-01 3.0250001e+00 1.6500000e+01 
7.5000000e-01 3.0250001e+00 1.7000000e+01 
7.5000000e-01 3.0250001e+00 1.7500000e+01 
7.5000000e-01 3.0250001e+00 1.8000000e+01 
7.5000000e-01 3.0250001e+00 1.8500000e+01 
7.5000000e-01 3.0250001e+00 1.9000000e+01 
7.5000000e-01 3.0250001e+00 1.9500000e+01 
7.5000000e-01 3.0250001e+00 2.0000000e+01 
7.5000000e-01 3.0250001e+00 2.0500000e+01 
7.5000000e-01 3.0250001e+00 2.1000000e+01 
7.5000000e-01 3.0250001e+00 2.1500000e+01 
7.5000000e-01 3.0250001e+00 2.2000000e+01 
7.5000000e-01 3.0250001e+00 2.2500000e+01 
7.5000000e-01 3.0250001e+00 2.3000000e+01 
7.5000000e-01 3.0250001e+00 2.3500000e+01 
7.5000000e-01 3.0250001e+00 2.4000000e+01 
7.5000000e-01 3.0250001e+00 2.4500000e+01 
7.5000000e-01 3.0250001e+00 2.5000000e+01 
7.5000000e-01 3.0250001e+00 2.5500000e+01 
7.5000000e-01 3.0250001e+00 2.6000000e+01 
7.5000000e-01 3.0250001e+00 2.6500000e+01 
7.5000000e-01 3.0250001e+00 2.7000000e+01 
7.5000000e-01 3.0250001e+00 2.7500000e+01 
7.5000000e-01 3.0250001e+00 2.8000000e+01 
7.5000000e-01 3.0250001e+00 2.8500000e+01 
7.5000000e-01 3.0250001e+00 2.9000000e+01 
7.5000000e-01 3.0250001e+00 2.9500000e+01 
7.5000000e-01 3.0250001e+00 3.0000000e+01 
7.5000000e-01 3.0250001e+00 3.0500000e+01 
7.5000000e-01 3.0250001e+00 3.1000000e+01 
7.5000000e-01 3.0250001e+00 3.1500000e+01 
7.5000000e-01 3.0250001e+00 3.2000000e+01 
7.5000000e-01 3.0250001e+00 3.2500000e+01 
7.5000000e-01 3.0250001e+00 3.3000000e+01 
7.5000000e-01 3.0250001e+00 3.3500000e+01 
7.5000000e-01 3.0250001e+00 3.4000000e+01 
7.5000000e-01 3.0250001e+00 3.4500000e+01 
7.5000000e-01 3.0250001e+00 3.5000000e+01 
7.5000000e-01 3.0250001e+00 3.5500000e+01 
7.5000000e-01 3.0250001e+00 3.6000000e+01 
7.5000000e-01 3.0250001e+00 3.6500000e+01 
7.5000000e-01 3.0250001e+00 3.7000000e+01 
7.5000000e-01 3.0250001e+00 3.7500000e+01 
7.5000000e-01 3.0250001e+00 3.8000000e+01 
7.5000000e-01 3.0250001e+00 3.8500000e+01 
7.5000000e-01 3.0250001e+00 3.9000000e+01 
7.5000000e-01 3.0250001e+00 3.9500000e+01 
7.5000000e-01 3.0250001e+00 4.0000000e+01 
7.5000000e-01 3.0250001e+00 4.0500000e+01 
7.5000000e-01 3.0250001e+00 4.1000000e+01 
7.5000000e-01 3.0250001e+00 4.1500000e+01 
7.5000000e-01 3.0250001e+00 4.2000000e+01 
7.5000000e-01 3.0250001e+00 4.2500000e+01 
7.5000000e-01 3.0250001e+00 4.3000000e+01 
7.5000000e-01 3.0250001e+00 4.3500000e+01 
7.5000000e-01 3.0250001e+00 4.4000000e+01 
7.5000000e-01 3.0250001e+00 4.4500000e+01 
7.5000000e-01 3.0250001e+00 4.5000000e+01 
7.5000000e-01 3.0250001e+00 4.5500000e+01 
7.5000000e-01 3.0250001e+00 4.6000000e+01 
7.5000000e-01 3.0250001e+00 4.6500000e+01 
7.5000000e-01 3.0250001e+00 4.7000000e+01 
7.5000000e-01 3.0250001e+00 4.7500000e+01 
7.5000000e-01 3.0250001e+00 4.8000000e+01 
7.5000000e-01 3.0250001e+00 4.8500000e+01 
7.5000000e-01 3.0250001e+00 4.9000000e+01 
7.5000000e-01 3.0250001e+00 4.9500000e+01 
7.5000000e-01 3.0250001e+00 5.0000000e+01 
3.0000000e+00 2.0000000e+00 3.6000000e+01 
8.0487806e-01 3.0000000e+00 3.6000000e+01 
0.0000000e+00 0.0000000e+00 2.0000000e+00 
0.0000000e+00 0.0000000e+00 4.0000000e+00 
0.0000000e+00 0.0000000e+00 6.0000000e+00 
0.0000000e+00 0.0000000e+00 8.0000000e+00 
0.0000000e+00 0.0000000e+00 1.0000000e+01 
0.0000000e+00 0.0000000e+00 1.2000000e+01 
0.0000000e+00 0.0000000e+00 1.4000000e+01 
0.0000000e+00 0.0000000e+00 1.6000000e+01 
[...]
POINT_DATA 661
FIELD FieldData 3
DISPLACEMENT 3 661  float
0.0000000e+00 0.0000000e+00 0.0000000e+00 
0.0000000e+00 0.0000000e+00 0.0000000e+00 
0.0000000e+00 0.0000000e+00 0.0000000e+00 
0.0000000e+00 0.0000000e+00 0.0000000e+00 
2.0133923e-05 -2.4104014e-05 -3.1878688e-05 
-1.5327151e-07 -6.8315171e-07 -2.6796581e-08 
0.0000000e+00 -9.3707975e-05 0.0000000e+00 
0.0000000e+00 -1.6110935e-06 0.0000000e+00 
2.5226131e-05 -3.2074753e-05 -5.6426237e-05 
-3.8453587e-07 -8.5614181e-07 9.2457998e-07 
6.0812017e-06 -2.8776460e-05 -3.9300139e-05 
-5.6864110e-07 -2.0406812e-06 3.3182610e-07 
0.0000000e+00 -1.1707121e-04 0.0000000e+00 
0.0000000e+00 -3.5873159e-06 0.0000000e+00 
3.4809800e-05 2.1883482e-06 7.5648139e-05 
-4.3322171e-07 -8.3702580e-06 -2.2715915e-06 
1.8561386e-05 3.5640249e-05 2.2667764e-04 
4.1741131e-07 -7.6960096e-06 -8.0042241e-07 
0.0000000e+00 -5.2180971e-05 0.0000000e+00 
0.0000000e+00 -6.7515039e-06 0.0000000e+00 
-4.2412419e-05 -4.5477744e-05 1.8708970e-04 
-6.7163717e-05 -2.8783819e-04 1.2513711e-04 
-8.9835303e-05 -7.1800611e-04 2.1335979e-04 
-1.0716137e-04 -1.3751338e-03 2.3867072e-04 
-1.8693958e-04 -2.2496935e-03 1.2617822e-04 
-2.2005485e-04 -3.2445828e-03 1.3498336e-04 
-1.1839385e-04 -4.0388349e-03 9.9936056e-05 
-8.5229520e-05 -4.0689413e-03 1.1846599e-04 
-2.2953744e-04 -3.9014677e-03 5.2811229e-05 
-3.0289713e-04 -3.9006707e-03 4.1443080e-05 
-2.0744873e-04 -4.1690860e-03 1.0224093e-05 
-6.4433501e-05 -4.2017088e-03 -4.9288305e-05 
-9.9736615e-05 -3.5075629e-03 -1.5902855e-04 
-2.0202291e-04 -2.4777034e-03 -1.9669152e-04 
-1.9409343e-04 -1.5870531e-03 -1.8799496e-04 
-7.2700539e-05 -9.1878162e-04 -1.1750573e-04 
-4.6267844e-05 -5.0481642e-04 -1.5469106e-04 
-4.0511077e-05 -2.7235868e-04 -1.3846951e-04 
-3.1240910e-05 -1.4956683e-04 -1.3516724e-04 
-3.5650148e-06 -7.6535551e-05 -1.2208470e-04 
1.8343733e-05 -1.5733200e-05 -8.8677138e-05 
3.1880205e-05 4.3858876e-05 -4.9593822e-05 
2.1654874e-05 9.9571051e-05 -1.5762183e-05 
4.7520052e-06 1.4029519e-04 1.5797305e-05 
8.3053163e-07 1.5507675e-04 1.7420811e-05 
-3.4499342e-06 1.4711224e-04 1.3567609e-05 
-3.4393015e-06 1.2372696e-04 -9.4202738e-07 
2.5817526e-06 9.3804301e-05 -2.5916042e-05 
4.6418259e-07 6.5768894e-05 -4.0720388e-05 
5.7915645e-06 4.0532141e-05 -4.2644508e-05 
6.7665724e-06 1.6898293e-05 -3.2558921e-05 
6.1158166e-06 -5.5731248e-06 -1.4606542e-05 
5.0187723e-06 -2.7882419e-05 1.3352357e-05 
9.0229159e-06 -4.9811490e-05 3.1923497e-05 
7.6321012e-06 -7.1551120e-05 4.6798104e-05 
-7.1159238e-06 -8.7840555e-05 6.0842405e-05 
-2.5013083e-05 -9.3234354e-05 4.9810697e-05 
-2.8969358e-05 -8.9090041e-05 3.8872135e-05 
-2.0324840e-05 -8.2133301e-05 2.8925777e-05 
-2.2640265e-06 -1.0343041e-04 1.3445208e-05 
-3.6707475e-05 -1.9880240e-04 3.1008633e-05 
-5.7902995e-05 -4.2142734e-04 5.5957764e-05 
-7.8517667e-05 -8.4284955e-04 9.2113536e-05 
-1.1868146e-04 -1.5023116e-03 4.2676471e-05 
-2.2827720e-04 -2.4080880e-03 1.5908747e-04 
-2.1802465e-04 -3.3478066e-03 1.6347996e-04 
-1.2636755e-04 -3.9650532e-03 1.3656811e-04 
-1.0876838e-04 -3.8631810e-03 1.8375108e-04 
-2.6062052e-04 -3.7094394e-03 1.1313149e-04 
-3.2162783e-04 -3.7791417e-03 9.4627692e-05 
-2.1274108e-04 -4.0950752e-03 4.3936961e-05 
-7.8276476e-05 -4.0583387e-03 -1.2866668e-05 
-1.0605139e-04 -3.3165559e-03 -1.4595817e-04 
-2.0151421e-04 -2.3356255e-03 -1.9884255e-04 
-1.8853028e-04 -1.5007441e-03 -2.1300848e-04 
-8.2700564e-05 -8.6925109e-04 -1.5683695e-04 
-4.7005880e-05 -4.6207648e-04 -1.8020831e-04 
-2.7504509e-05 -2.1751712e-04 -1.4395124e-04 
-1.7996843e-05 -7.9104007e-05 -1.2139852e-04 
9.5081841e-06 -8.6265231e-07 -9.4977055e-05 
2.4536686e-05 4.4529948e-05 -6.1866216e-05 
3.5945635e-05 7.3198120e-05 -2.4382418e-05 
2.3402337e-05 9.0747046e-05 8.5418515e-06 
6.4765413e-06 9.6255593e-05 3.3156964e-05 
-1.3679479e-06 8.5877982e-05 3.8752700e-05 
-8.0463669e-06 6.3042993e-05 3.2957068e-05 
-8.4652474e-06 3.4021552e-05 2.0107205e-05 
-5.1937473e-06 5.6999515e-06 3.4464974e-06 
-4.2214192e-06 -1.5162632e-05 -5.7223942e-06 
-2.2742327e-06 -2.7446411e-05 -1.2602341e-05 
2.2994616e-06 -2.9845231e-05 -1.5733644e-05 
1.1767874e-06 -2.2976639e-05 -1.0412989e-05 
1.6793673e-06 -8.8905699e-06 -3.9663541e-06 
1.7658467e-06 6.7267429e-06 2.5469487e-06 
-7.3288624e-07 1.5955095e-05 6.4768296e-06 
-6.3859085e-07 1.6017035e-05 5.1098314e-06 
-7.0965251e-07 8.7056987e-06 2.1190156e-06 
-5.5785210e-07 -8.6821262e-07 -1.3158901e-06 
-6.8068019e-08 -6.7832193e-06 -3.0192505e-06 
0.0000000e+00 -4.7816102e-06 0.0000000e+00 
0.0000000e+00 -5.9530595e-07 0.0000000e+00 
0.0000000e+00 2.3528885e-06 0.0000000e+00 
0.0000000e+00 3.1123814e-06 0.0000000e+00 
0.0000000e+00 2.3772805e-06 0.0000000e+00 
0.0000000e+00 1.4029738e-06 0.0000000e+00 
0.0000000e+00 8.3349187e-07 0.0000000e+00 
0.0000000e+00 4.3992034e-07 0.0000000e+00 
0.0000000e+00 -2.2378255e-07 0.0000000e+00 
0.0000000e+00 -1.0991424e-06 0.0000000e+00 
0.0000000e+00 -1.6046253e-06 0.0000000e+00 
0.0000000e+00 -1.2596553e-06 0.0000000e+00 
0.0000000e+00 -2.2901600e-07 0.0000000e+00 
0.0000000e+00 7.8293061e-07 0.0000000e+00 
0.0000000e+00 1.1453892e-06 0.0000000e+00 
0.0000000e+00 7.9278436e-07 0.0000000e+00 
0.0000000e+00 1.6129977e-07 0.0000000e+00 
0.0000000e+00 -2.7932751e-07 0.0000000e+00 
0.0000000e+00 -4.0223085e-07 0.0000000e+00 
0.0000000e+00 -3.9151482e-07 0.0000000e+00 
0.0000000e+00 3.5660632e-05 0.0000000e+00 
0.0000000e+00 -4.3901706e-05 0.0000000e+00 
0.0000000e+00 -2.8715818e-04 0.0000000e+00 
0.0000000e+00 -7.2031486e-04 0.0000000e+00 
0.0000000e+00 -1.3789467e-03 0.0000000e+00 
0.0000000e+00 -2.2622882e-03 0.0000000e+00 
0.0000000e+00 -3.2773467e-03 0.0000000e+00 
0.0000000e+00 -4.0632575e-03 0.0000000e+00 
0.0000000e+00 -4.1001611e-03 0.0000000e+00 
0.0000000e+00 -3.9155539e-03 0.0000000e+00 
0.0000000e+00 -3.9311643e-03 0.0000000e+00 
0.0000000e+00 -4.1892142e-03 0.0000000e+00 
0.0000000e+00 -4.2369566e-03 0.0000000e+00 
0.0000000e+00 -3.5261002e-03 0.0000000e+00 
0.0000000e+00 -2.4967045e-03 0.0000000e+00 
0.0000000e+00 -1.5894719e-03 0.0000000e+00 
0.0000000e+00 -9.2328730e-04 0.0000000e+00 
0.0000000e+00 -5.0475047e-04 0.0000000e+00 
0.0000000e+00 -2.7145891e-04 0.0000000e+00 
0.0000000e+00 -1.4837708e-04 0.0000000e+00 
0.0000000e+00 -7.5224641e-05 0.0000000e+00 
0.0000000e+00 -1.5079216e-05 0.0000000e+00 
0.0000000e+00 4.4268538e-05 0.0000000e+00 
0.0000000e+00 9.9545803e-05 0.0000000e+00 
0.0000000e+00 1.3955396e-04 0.0000000e+00 
0.0000000e+00 1.5489224e-04 0.0000000e+00 
0.0000000e+00 1.4711499e-04 0.0000000e+00 
0.0000000e+00 1.2381934e-04 0.0000000e+00 
0.0000000e+00 9.4247276e-05 0.0000000e+00 
0.0000000e+00 6.5928543e-05 0.0000000e+00 
0.0000000e+00 4.0542047e-05 0.0000000e+00 
0.0000000e+00 1.6902326e-05 0.0000000e+00 
0.0000000e+00 -5.7230395e-06 0.0000000e+00 
0.0000000e+00 -2.7969885e-05 0.0000000e+00 
0.0000000e+00 -5.0159113e-05 0.0000000e+00 
0.0000000e+00 -7.1537150e-05 0.0000000e+00 
0.0000000e+00 -8.7436107e-05 0.0000000e+00 
0.0000000e+00 -9.2902599e-05 0.0000000e+00 
0.0000000e+00 -8.7865978e-05 0.0000000e+00 
0.0000000e+00 -8.1407852e-05 0.0000000e+00 
0.0000000e+00 -1.0299090e-04 0.0000000e+00 
0.0000000e+00 -1.9783445e-04 0.0000000e+00 
0.0000000e+00 -4.2275860e-04 0.0000000e+00 
0.0000000e+00 -8.4475713e-04 0.0000000e+00 
0.0000000e+00 -1.5129523e-03 0.0000000e+00 
0.0000000e+00 -2.4169763e-03 0.0000000e+00 
0.0000000e+00 -3.3829992e-03 0.0000000e+00 
0.0000000e+00 -3.9891088e-03 0.0000000e+00 
0.0000000e+00 -3.8934303e-03 0.0000000e+00 
0.0000000e+00 -3.7230270e-03 0.0000000e+00 
0.0000000e+00 -3.8107589e-03 0.0000000e+00 
0.0000000e+00 -4.1163685e-03 0.0000000e+00 
0.0000000e+00 -4.0920526e-03 0.0000000e+00 
0.0000000e+00 -3.3327204e-03 0.0000000e+00 
0.0000000e+00 -2.3513634e-03 0.0000000e+00 
0.0000000e+00 -1.5024611e-03 0.0000000e+00 
0.0000000e+00 -8.7278266e-04 0.0000000e+00 
0.0000000e+00 -4.6181792e-04 0.0000000e+00 
0.0000000e+00 -2.1674538e-04 0.0000000e+00 
0.0000000e+00 -7.8107041e-05 0.0000000e+00 
0.0000000e+00 -2.5151138e-07 0.0000000e+00 
0.0000000e+00 4.5052791e-05 0.0000000e+00 
0.0000000e+00 7.3502910e-05 0.0000000e+00 
0.0000000e+00 9.0861089e-05 0.0000000e+00 
0.0000000e+00 9.5888929e-05 0.0000000e+00 
0.0000000e+00 8.5777268e-05 0.0000000e+00 
0.0000000e+00 6.3072926e-05 0.0000000e+00 
0.0000000e+00 3.4046308e-05 0.0000000e+00 
0.0000000e+00 5.9597451e-06 0.0000000e+00 
0.0000000e+00 -1.5170182e-05 0.0000000e+00 
0.0000000e+00 -2.7326189e-05 0.0000000e+00 
0.0000000e+00 -2.9764289e-05 0.0000000e+00 
0.0000000e+00 -2.2815031e-05 0.0000000e+00 
0.0000000e+00 -8.8242750e-06 0.0000000e+00 
0.0000000e+00 6.4094961e-06 0.0000000e+00 
0.0000000e+00 1.5722686e-05 0.0000000e+00 
0.0000000e+00 1.5893682e-05 0.0000000e+00 
0.0000000e+00 8.7243207e-06 0.0000000e+00 
0.0000000e+00 -6.0779695e-07 0.0000000e+00 
0.0000000e+00 -6.6739663e-06 0.0000000e+00 
0.0000000e+00 -7.6705801e-06 0.0000000e+00 
0.0000000e+00 -4.8097222e-06 0.0000000e+00 
0.0000000e+00 -6.7206059e-07 0.0000000e+00 
0.0000000e+00 2.2920146e-06 0.0000000e+00 
0.0000000e+00 3.1065499e-06 0.0000000e+00 
0.0000000e+00 2.4121114e-06 0.0000000e+00 
0.0000000e+00 1.4333882e-06 0.0000000e+00 
0.0000000e+00 8.3086860e-07 0.0000000e+00 
0.0000000e+00 4.1576382e-07 0.0000000e+00 
0.0000000e+00 -2.3726541e-07 0.0000000e+00 
0.0000000e+00 -1.0858415e-06 0.0000000e+00 
0.0000000e+00 -1.5788331e-06 0.0000000e+00 
0.0000000e+00 -1.2468498e-06 0.0000000e+00 
0.0000000e+00 -2.3859849e-07 0.0000000e+00 
0.0000000e+00 7.6346987e-07 0.0000000e+00 
0.0000000e+00 1.1335486e-06 0.0000000e+00 
0.0000000e+00 7.9403043e-07 0.0000000e+00 
0.0000000e+00 1.6875681e-07 0.0000000e+00 
0.0000000e+00 -2.7398613e-07 0.0000000e+00 
0.0000000e+00 -4.0147214e-07 0.0000000e+00 
0.0000000e+00 -3.9280800e-07 0.0000000e+00 
-1.2323942e-06 -4.0432737e-06 -7.7835563e-07 
9.6585768e-07 -2.4637080e-05 -1.1268900e-05 
0.0000000e+00 0.0000000e+00 0.0000000e+00 
0.0000000e+00 0.0000000e+00 0.0000000e+00 
0.0000000e+00 0.0000000e+00 0.0000000e+00 
0.0000000e+00 0.0000000e+00 0.0000000e+00 
0.0000000e+00 0.0000000e+00 0.0000000e+00 
0.0000000e+00 0.0000000e+00 0.0000000e+00 
0.0000000e+00 0.0000000e+00 0.0000000e+00 
0.0000000e+00 0.0000000e+00 0.0000000e+00 
0.0000000e+00 0.0000000e+00 0.0000000e+00 
0.0000000e+00 0.0000000e+00 0.0000000e+00 
0.0000000e+00 0.0000000e+00 0.0000000e+00 
0.0000000e+00 0.0000000e+00 0.0000000e+00 
0.0000000e+00 0.0000000e+00 0.0000000e+00 
0.0000000e+00 0.0000000e+00 0.0000000e+00 
0.0000000e+00 0.0000000e+00 0.0000000e+00 
0.0000000e+00 0.0000000e+00 0.0000000e+00 
0.0000000e+00 0.0000000e+00 0.0000000e+00 
0.0000000e+00 0.0000000e+00 0.0000000e+00 
0.0000000e+00 0.0000000e+00 0.0000000e+00 
0.0000000e+00 0.0000000e+00 0.0000000e+00 
0.0000000e+00 0.0000000e+00 0.0000000e+00 
0.0000000e+00 0.0000000e+00 0.0000000e+00 
0.0000000e+00 0.0000000e+00 0.0000000e+00 
0.0000000e+00 0.0000000e+00 0.0000000e+00 
0.0000000e+00 0.0000000e+00 0.0000000e+00 
0.0000000e+00 0.0000000e+00 0.0000000e+00 
0.0000000e+00 0.0000000e+00 0.0000000e+00 
0.0000000e+00 0.0000000e+00 0.0000000e+00 
0.0000000e+00 0.0000000e+00 0.0000000e+00 
0.0000000e+00 0.0000000e+00 0.0000000e+00 
0.0000000e+00 0.0000000e+00 0.0000000e+00 
0.0000000e+00 0.0000000e+00 0.0000000e+00 
0.0000000e+00 0.0000000e+00 0.0000000e+00 
0.0000000e+00 0.0000000e+00 0.0000000e+00 
0.0000000e+00 0.0000000e+00 0.0000000e+00 
0.0000000e+00 0.0000000e+00 0.0000000e+00 
0.0000000e+00 0.0000000e+00 0.0000000e+00 
0.0000000e+00 0.0000000e+00 0.0000000e+00 
0.0000000e+00 0.0000000e+00 0.0000000e+00 
0.0000000e+00 0.0000000e+00 0.0000000e+00 
0.0000000e+00 0.0000000e+00 0.0000000e+00 
0.0000000e+00 0.0000000e+00 0.0000000e+00 
3.1889926e-05 -9.6966096e-07 -2.4287887e-05 
5.9233858e-05 -4.8314646e-06 -1.4613065e-05 
3.9710427e-05 -8.0100554e-06 -1.7381808e-07 
1.0901741e-05 -9.6295371e-06 6.8633983e-07 
4.1358994e-06 -8.3166869e-06 1.1341201e-05 
-7.2274287e-07 4.4141962e-06 8.6528908e-06 
8.0159889e-06 6.3511943e-06 -6.4584488e-06 
3.4061936e-06 -2.8642451e-06 -1.2790108e-05 
1.4587139e-06 -6.0818720e-06 -3.5045534e-06 
1.2462490e-05 -1.0022131e-05 -4.3712284e-06 
3.4317382e-05 -2.1435412e-06 -3.8889748e-06 
4.8332200e-05 -1.0678477e-06 5.2361270e-07 
3.6769205e-05 -7.0648744e-06 1.6911401e-06 
1.1800953e-05 -1.4455212e-05 2.7690862e-06 
6.7982783e-06 -9.2549561e-07 8.3428095e-06 
2.2595002e-06 3.4642649e-06 9.3070466e-06 
1.6207500e-07 -1.1544734e-06 1.6576803e-06 
-6.2376824e-07 -1.7192817e-06 -1.3216313e-06 
3.5817445e-07 1.0711830e-06 3.0435575e-07 
0.0000000e+00 -2.1467640e-04 0.0000000e+00 
0.0000000e+00 -4.8755275e-04 0.0000000e+00 
0.0000000e+00 -5.1077735e-04 0.0000000e+00 
0.0000000e+00 -1.8421796e-04 0.0000000e+00 
0.0000000e+00 -2.7411617e-05 0.0000000e+00 
0.0000000e+00 3.8336373e-05 0.0000000e+00 
0.0000000e+00 1.6276266e-05 0.0000000e+00 
0.0000000e+00 3.0353620e-05 0.0000000e+00 
0.0000000e+00 -2.4347002e-05 0.0000000e+00 
0.0000000e+00 -3.7122405e-05 0.0000000e+00 
0.0000000e+00 -1.9874259e-04 0.0000000e+00 
0.0000000e+00 -4.6997564e-04 0.0000000e+00 
0.0000000e+00 -5.2469887e-04 0.0000000e+00 
0.0000000e+00 -1.8925872e-04 0.0000000e+00 
0.0000000e+00 -3.2439473e-06 0.0000000e+00 
0.0000000e+00 3.0800984e-05 0.0000000e+00 
0.0000000e+00 -4.4490821e-06 0.0000000e+00 
0.0000000e+00 -2.9031660e-06 0.0000000e+00 
0.0000000e+00 1.4092153e-06 0.0000000e+00 
2.5403791e-05 -1.9337494e-05 -2.7593707e-05 
2.4376361e-05 -5.7597706e-05 -4.6221310e-05 
-2.1306532e-07 -8.5242482e-07 -2.3586426e-07 
-2.7474178e-07 -1.4447535e-06 -5.0520521e-07 
3.1187843e-05 4.7458043e-06 -3.5111600e-05 
5.3659605e-05 6.8410691e-06 -1.3203141e-05 
3.3720244e-05 -1.4688136e-06 -2.0651073e-07 
4.5591810e-06 -6.3102225e-06 -7.2299247e-07 
3.8635588e-07 -1.3554022e-05 6.6868506e-06 
3.6499712e-06 7.4980644e-06 2.7461508e-06 
1.3701274e-05 1.0971253e-05 -2.1709748e-06 
-1.1589625e-06 -5.0840340e-06 -7.2547336e-06 
-6.2203103e-06 -8.6111868e-06 -6.5098889e-06 
1.7883922e-05 -1.1810646e-05 -9.5161895e-06 
3.6175246e-05 4.8030142e-07 -4.0854434e-06 
4.7683538e-05 1.9783570e-06 2.9200810e-06 
2.6634247e-05 -3.2395217e-06 1.1209592e-05 
-6.0650228e-07 -1.7737924e-05 -2.1667709e-08 
1.8963378e-06 -3.0030280e-06 2.2174277e-07 
4.3447894e-06 4.1244175e-06 1.0136457e-05 
2.2507008e-06 -3.5397707e-07 4.1692911e-06 
-7.7721273e-07 -1.9420866e-06 -4.6543690e-07 
8.1599893e-08 1.0456046e-06 -4.8274609e-07 
7.8635530e-06 -8.7201879e-05 -4.2621185e-05 
0.0000000e+00 -4.6633699e-04 0.0000000e+00 
0.0000000e+00 -1.1083410e-03 0.0000000e+00 
0.0000000e+00 -1.1489181e-03 0.0000000e+00 
0.0000000e+00 -3.4901706e-04 0.0000000e+00 
0.0000000e+00 -5.1080508e-05 0.0000000e+00 
0.0000000e+00 8.0210935e-05 0.0000000e+00 
0.0000000e+00 3.4159511e-05 0.0000000e+00 
0.0000000e+00 4.3265602e-05 0.0000000e+00 
0.0000000e+00 -5.2560477e-05 0.0000000e+00 
0.0000000e+00 -6.3529988e-05 0.0000000e+00 
0.0000000e+00 -4.4619583e-04 0.0000000e+00 
0.0000000e+00 -1.0547155e-03 0.0000000e+00 
0.0000000e+00 -1.1430364e-03 0.0000000e+00 
0.0000000e+00 -3.5260216e-04 0.0000000e+00 
0.0000000e+00 -1.4016179e-06 0.0000000e+00 
0.0000000e+00 5.8956321e-05 0.0000000e+00 
0.0000000e+00 -9.3842427e-06 0.0000000e+00 
0.0000000e+00 -9.0641406e-06 0.0000000e+00 
0.0000000e+00 6.5688237e-06 0.0000000e+00 
-2.9512486e-07 -2.3814080e-06 -5.1696509e-07 
-3.2880224e-04 -4.3629334e-04 2.7138856e-04 
-6.2985468e-04 -1.3437066e-03 1.1572986e-04 
-6.0568401e-04 -1.3850876e-03 -1.0882157e-04 
-1.7498435e-04 -2.9847884e-04 -2.2292562e-04 
2.8301451e-06 -7.1262672e-05 -1.4336419e-04 
2.0390047e-05 8.9133915e-05 2.3079697e-06 
3.6553718e-06 7.3929266e-05 -8.1531025e-06 
5.6434878e-06 -2.6727390e-05 1.0059122e-05 
8.3475925e-06 -1.0061018e-04 6.1603765e-05 
-1.9039657e-06 -3.9643081e-05 3.4878631e-05 
-2.7640944e-04 -4.3750892e-04 2.1090389e-04 
-6.5253396e-04 -1.1451121e-03 1.5566529e-04 
-6.0513103e-04 -1.3303737e-03 -4.8363327e-05 
-1.6606096e-04 -3.2747080e-04 -2.7393780e-04 
1.4715112e-05 -1.0011185e-05 -1.3118665e-04 
1.7550890e-05 5.5772896e-05 4.5489131e-05 
-9.1817401e-06 8.0458785e-06 2.1841792e-05 
3.2591820e-09 -2.0004238e-05 -1.3891398e-05 
1.3638689e-06 1.3799297e-05 7.1540608e-06 
0.0000000e+00 -8.1574294e-04 0.0000000e+00 
0.0000000e+00 -2.2364783e-03 0.0000000e+00 
0.0000000e+00 -2.1808513e-03 0.0000000e+00 
0.0000000e+00 -5.8904581e-04 0.0000000e+00 
0.0000000e+00 -6.4809865e-05 0.0000000e+00 
0.0000000e+00 1.3166624e-04 0.0000000e+00 
0.0000000e+00 6.7562913e-05 0.0000000e+00 
0.0000000e+00 4.1057760e-05 0.0000000e+00 
0.0000000e+00 -1.0023867e-04 0.0000000e+00 
0.0000000e+00 -6.9746187e-05 0.0000000e+00 
0.0000000e+00 -8.7445963e-04 0.0000000e+00 
0.0000000e+00 -2.1277138e-03 0.0000000e+00 
0.0000000e+00 -2.1357005e-03 0.0000000e+00 
0.0000000e+00 -5.7546259e-04 0.0000000e+00 
0.0000000e+00 1.3581993e-05 0.0000000e+00 
0.0000000e+00 9.0216439e-05 0.0000000e+00 
0.0000000e+00 -1.0285398e-06 0.0000000e+00 
0.0000000e+00 -2.0076437e-05 0.0000000e+00 
0.0000000e+00 1.3178928e-05 0.0000000e+00 
3.1564443e-05 -1.8087192e-05 -1.4071745e-05 
7.1924609e-05 -1.1508488e-04 1.4314106e-05 
6.8634232e-05 -9.1394788e-05 1.0621044e-05 
2.5129057e-05 -5.7464345e-05 -1.1141904e-05 
-1.3483418e-05 -1.1675602e-05 -1.5448719e-05 
1.1878419e-05 2.1233494e-05 -4.3237119e-06 
9.0553976e-06 1.6856477e-05 -7.5680409e-06 
-4.3934506e-06 -2.0711093e-05 6.0155440e-07 
-7.4158429e-06 -3.8539412e-05 1.1687567e-05 
1.5547475e-05 -3.7615514e-06 6.5572267e-06 
5.9794733e-05 -3.0784187e-05 -1.3243287e-06 
7.6569297e-05 -3.9562165e-05 5.8614369e-06 
4.1413987e-05 -7.0996568e-05 1.7019160e-05 
2.1341859e-05 -6.6572618e-05 -1.6431257e-05 
-1.1024465e-05 -6.7121991e-06 -1.5911219e-05 
5.3388953e-06 1.3543299e-05 7.7467967e-06 
9.3893010e-07 2.8557081e-06 9.7298889e-06 
9.2407066e-07 2.9802779e-06 -9.0626327e-07 
2.1123369e-06 -1.4740263e-05 -7.7669902e-06 
0.0000000e+00 0.0000000e+00 0.0000000e+00 
0.0000000e+00 0.0000000e+00 0.0000000e+00 
0.0000000e+00 0.0000000e+00 0.0000000e+00 
0.0000000e+00 0.0000000e+00 0.0000000e+00 
0.0000000e+00 0.0000000e+00 0.0000000e+00 
0.0000000e+00 0.0000000e+00 0.0000000e+00 
0.0000000e+00 0.0000000e+00 0.0000000e+00 
0.0000000e+00 0.0000000e+00 0.0000000e+00 
0.0000000e+00 0.0000000e+00 0.0000000e+00 
0.0000000e+00 0.0000000e+00 0.0000000e+00 
0.0000000e+00 0.0000000e+00 0.0000000e+00 
0.0000000e+00 0.0000000e+00 0.0000000e+00 
0.0000000e+00 0.0000000e+00 0.0000000e+00 
0.0000000e+00 0.0000000e+00 0.0000000e+00 
0.0000000e+00 0.0000000e+00 0.0000000e+00 
0.0000000e+00 0.0000000e+00 0.0000000e+00 
0.0000000e+00 0.0000000e+00 0.0000000e+00 
0.0000000e+00 0.0000000e+00 0.0000000e+00 
0.0000000e+00 0.0000000e+00 0.0000000e+00 
0.0000000e+00 0.0000000e+00 0.0000000e+00 
0.0000000e+00 0.0000000e+00 0.0000000e+00 
0.0000000e+00 0.0000000e+00 0.0000000e+00 
0.0000000e+00 0.0000000e+00 0.0000000e+00 
0.0000000e+00 0.0000000e+00 0.0000000e+00 
0.0000000e+00 0.0000000e+00 0.0000000e+00 
0.0000000e+00 0.0000000e+00 0.0000000e+00 
0.0000000e+00 0.0000000e+00 0.0000000e+00 
0.0000000e+00 0.0000000e+00 0.0000000e+00 
0.0000000e+00 0.0000000e+00 0.0000000e+00 
0.0000000e+00 0.0000000e+00 0.0000000e+00 
0.0000000e+00 0.0000000e+00 0.0000000e+00 
0.0000000e+00 0.0000000e+00 0.0000000e+00 
0.0000000e+00 0.0000000e+00 0.0000000e+00 
0.0000000e+00 0.0000000e+00 0.0000000e+00 
0.0000000e+00 0.0000000e+00 0.0000000e+00 
0.0000000e+00 0.0000000e+00 0.0000000e+00 
0.0000000e+00 0.0000000e+00 0.0000000e+00 
0.0000000e+00 0.0000000e+00 0.0000000e+00 
0.0000000e+00 0.0000000e+00 0.0000000e+00 
0.0000000e+00 0.0000000e+00 0.0000000e+00 
0.0000000e+00 0.0000000e+00 0.0000000e+00 
0.0000000e+00 0.0000000e+00 0.0000000e+00 
3.3649929e-05 -1.0068983e-05 -7.5057337e-06 
1.2865582e-06 1.1835657e-06 1.0017251e-06 
3.0514520e-06 2.3450950e-07 -5.2941195e-06 
2.3347546e-05 -4.8970824e-06 -6.6097293e-08 
1.9344752e-05 -1.0696027e-05 7.3161783e-07 
1.5683472e-05 -1.0452240e-05 -5.0446675e-07 
5.2334576e-06 -4.5243683e-06 4.0887016e-06 
2.6417824e-06 9.9591648e-07 4.4514809e-06 