# vtk DataFile Version 4.0
vtk output
ASCII
DATASET UNSTRUCTURED_GRID
POINTS 661 float
0.0000000e+00 0.0000000e+00 0.0000000e+00 
0.0000000e+00 0.0000000e+00 4.0000000e+01 
5.0000000e+00 0.0000000e+00 0.0000000e+00 
5.0000000e+00 0.0000000e+00 4.0000000e+01 
5.0000000e+00 1.0000000e+00 0.0000000e+00 
5.0000000e+00 1.0000000e+00 4.0000000e+01 
0.0000000e+00 1.0000000e+00 0.0000000e+00 
0.0000000e+00 1.0000000e+00 4.0000000e+01 
5.0000000e+00 2.0000000e+00 0.0000000e+00 
5.0000000e+00 2.0000000e+00 4.0000000e+01 
3.0000000e+00 2.0000000e+00 0.0000000e+00 
3.0000000e+00 2.0000000e+00 4.0000000e+01 
0.0000000e+00 2.0000000e+00 0.0000000e+00 
0.0000000e+00 2.0000000e+00 4.0000000e+01 
1.5000000e+00 3.0000000e+00 0.0000000e+00 
1.5000000e+00 3.0000000e+00 4.0000000e+01 
7.5000000e-01 3.0000000e+00 0.0000000e+00 
7.5000000e-01 3.0000000e+00 4.0000000e+01 
0.0000000e+00 3.0000000e+00 0.0000000e+00 
0.0000000e+00 3.0000000e+00 4.0000000e+01 
7.5000000e-01 3.0000000e+00 5.0000000e-01 
7.5000000e-01 3.0000000e+00 1.0000000e+00 
7.5000000e-01 3.0000000e+00 1.5000000e+00 
7.5000000e-01 3.0000000e+00 2.0000000e+00 
7.5000000e-01 3.0000000e+00 2.5000000e+00 
7.5000000e-01 3.0000000e+00 3.0000000e+00 
7.5000000e-01 3.0000000e+00 3.5000000e+00 
7.5000000e-01 3.0000000e+00 4.0000000e+00 
7.5000000e-01 3.0000000e+00 4.5000000e+00 
7.5000000e-01 3.0000000e+00 5.0000000e+00 
7.5000000e-01 3.0000000e+00 5.5000000e+00 
7.5000000e-01 3.0000000e+00 6.0000000e+00 
7.5000000e-01 3.0000000e+00 6.5000000e+00 
7.5000000e-01 3.0000000e+00 7.0000000e+00 
7.5000000e-01 3.0000000e+00 7.5000000e+00 
7.5000000e-01 3.0000000e+00 8.0000000e+00 
7.5000000e-01 3.0000000e+00 8.5000000e+00 
7.5000000e-01 3.0000000e+00 9.0000000e+00 
7.5000000e-01 3.0000000e+00 9.5000000e+00 
7.5000000e-01 3.0000000e+00 1.0000000e+01 
7.5000000e-01 3.0000000e+00 1.0500000e+01 
7.5000000e-01 3.0000000e+00 1.1000000e+01 
7.5000000e-01 3.0000000e+00 1.1500000e+01 
7.5000000e-01 3.0000000e+00 1.2000000e+01 
7.5000000e-01 3.0000000e+00 1.2500000e+01 
7.5000000e-01 3.0000000e+00 1.3000000e+01 
7.5000000e-01 3.0000000e+00 1.3500000e+01 
7.5000000e-01 3.0000000e+00 1.4000000e+01 
7.5000000e-01 3.0000000e+00 1.4500000e+01 
7.5000000e-01 3.0000000e+00 1.5000000e+01 
7.5000000e-01 3.0000000e+00 1.5500000e+01 
7.5000000e-01 3.0000000e+00 1.6000000e+01 
7.5000000e-01 3.0000000e+00 1.6500000e+01 
7.5000000e-01 3.0000000e+00 1.7000000e+01 
7.5000000e-01 3.0000000e+00 1.7500000e+01 
7.5000000e-01 3.0000000e+00 1.8000000e+01 
7.5000000e-01 3.0000000e+00 1.8500000e+01 
7.5000000e-01 3.0000000e+00 1.9000000e+01 
7.5000000e-01 3.0000000e+00 1.9500000e+01 
7.5000000e-01 3.0000000e+00 2.0000000e+01 
7.5000000e-01 3.0000000e+00 2.0500000e+01 
7.5000000e-01 3.0000000e+00 2.1000000e+01 
7.5000000e-01 3.0000000e+00 2.1500000e+01 
7.5000000e-01 3.0000000e+00 2.2000000e+01 
7.5000000e-01 3.0000000e+00 2.2500000e+01 
7.5000000e-01 3.0000000e+00 2.3000000e+01 
7.5000000e-01 3.0000000e+00 2.3500000e+01 
7.5000000e-01 3.0000000e+00 2.4000000e+01 
7.5000000e-01 3.0000000e+00 2.4500000e+01 
7.5000000e-01 3.0000000e+00 2.5000000e+01 
7.5000000e-01 3.0000000e+00 2.5500000e+01 
7.5000000e-01 3.0000000e+00 2.6000000e+01 
7.5000000e-01 3.0000000e+00 2.6500000e+01 
7.5000000e-01 3.0000000e+00 2.7000000e+01 
7.5000000e-01 3.0000000e+00 2.7500000e+01 
7.5000000e-01 3.0000000e+00 2.8000000e+01 
7.5000000e-01 3.0000000e+00 2.8500000e+01 
7.5000000e-01 3.0000000e+00 2.9000000e+01 
7.5000000e-01 3.0000000e+00 2.9500000e+01 
7.5000000e-01 3.0000000e+00 3.0000000e+01 
7.5000000e-01 3.0000000e+00 3.0500000e+01 
7.5000000e-01 3.0000000e+00 3.1000000e+01 
7.5000000e-01 3.0000000e+00 3.1500000e+01 
7.5000000e-01 3.0000000e+00 3.2000000e+01 
7.5000000e-01 3.0000000e+00 3.2500000e+01 
7.5000000e-01 3.0000000e+00 3.3000000e+01 
7.5000000e-01 3.0000000e+00 3.3500000e+01 
7.5000000e-01 3.0000000e+00 3.4000000e+01 
7.5000000e-01 3.0000000e+00 3.4500000e+01 
7.5000000e-01 3.0000000e+00 3.5000000e+01 
7.5000000e-01 3.0000000e+00 3.5500000e+01 
7.5000000e-01 3.0000000e+00 3.6000000e+01 
7.5000000e-01 3.0000000e+00 3.6500000e+01 
7.5000000e-01 3.0000000e+00 3.7000000e+01 
7.5000000e-01 3.0000000e+00 3.7500000e+01 
7.5000000e-01 3.0000000e+00 3.8000000e+01 
7.5000000e-01 3.0000000e+00 3.8500000e+01 
7.5000000e-01 3.0000000e+00 3.9000000e+01 
7.5000000e-01 3.0000000e+00 3.9500000e+01 
7.5000000e-01 3.0000000e+00 4.0500000e+01 
7.5000000e-01 3.0000000e+00 4.1000000e+01 
7.5000000e-01 3.0000000e+00 4.1500000e+01 
7.5000000e-01 3.0000000e+00 4.2000000e+01 
7.5000000e-01 3.0000000e+00 4.2500000e+01 
7.5000000e-01 3.0000000e+00 4.3000000e+01 
7.5000000e-01 3.0000000e+00 4.3500000e+01 
7.5000000e-01 3.0000000e+00 4.4000000e+01 
7.5000000e-01 3.0000000e+00 4.4500000e+01 
7.5000000e-01 3.0000000e+00 4.5000000e+01 
7.5000000e-01 3.0000000e+00 4.5500000e+01 
7.5000000e-01 3.0000000e+00 4.6000000e+01 
7.5000000e-01 3.0000000e+00 4.6500000e+01 
7.5000000e-01 3.0000000e+00 4.7000000e+01 
7.5000000e-01 3.0000000e+00 4.7500000e+01 
7.5000000e-01 3.0000000e+00 4.8000000e+01 
7.5000000e-01 3.0000000e+00 4.8500000e+01 
7.5000000e-01 3.0000000e+00 4.9000000e+01 
7.5000000e-01 3.0000000e+00 4.9500000e+01 
7.5000000e-01 3.0000000e+00 5.0000000e+01 
7.5000000e-01 3.0250001e+00 0.0000000e+00 
7.5000000e-01 3.0250001e+00 5.0000000e-01 
7.5000000e-01 3.0250001e+00 1.0000000e+00 
7.5000000e-01 3.0250001e+00 1.5000000e+00 
7.5000000e-01 3.0250001e+00 2.0000000e+00 
7.5000000e-01 3.0250001e+00 2.5000000e+00 
7.5000000e-01 3.0250001e+00 3.0000000e+00 
7.5000000e-01 3.0250001e+00 3.5000000e+00 
7.5000000e-01 3.0250001e+00 4.0000000e+00 
7.5000000e-01 3.0250001e+00 4.5000000e+00 
7.5000000e-01 3.0250001e+00 5.0000000e+00 
7.5000000e-01 3.0250001e+00 5.5000000e+00 
7.5000000e-01 3.0250001e+00 6.0000000e+00 
7.5000000e-01 3.0250001e+00 6.5000000e+00 
7.5000000e-01 3.0250001e+00 7.0000000e+00 
7.5000000e-01 3.0250001e+00 7.5000000e+00 
7.5000000e-01 3.0250001e+00 8.0000000e+00 
7.5000000e-01 3.0250001e+00 8.5000000e+00 
7.5000000e-01 3.0250001e+00 9.0000000e+00 
7.5000000e-01 3.0250001e+00 9.5000000e+00 
7.5000000e-01 3.0250001e+00 1.0000000e+01 
7.5000000e-01 3.0250001e+00 1.0500000e+01 
7.5000000e-01 3.0250001e+00 1.1000000e+01 
7.5000000e-01 3.0250001e+00 1.1500000e+01 
7.5000000e-01 3.0250001e+00 1.2000000e+01 
7.5000000e-01 3.0250001e+00 1.2500000e+01 
7.5000000e-01 3.0250001e+00 1.3000000e+01 
7.5000000e-01 3.0250001e+00 1.3500000e+01 
7.5000000e-01 3.0250001e+00 1.4000000e+01 
7.5000000e-01 3.0250001e+00 1.4500000e+01 
7.5000000e-01 3.0250001e+00 1.5000000e+01 
7.5000000e-01 3.0250001e+00 1.5500000e+01 
7.5000000e-01 3.0250001e+00 1.6000000e+01 
7.5000000e-01 3.0250001e+00 1.6500000e+01 
7.5000000e-01 3.0250001e+00 1.7000000e+01 
7.5000000e-01 3.0250001e+00 1.7500000e+01 
7.5000000e-01 3.0250001e+00 1.8000000e+01 
7.5000000e-01 3.0250001e+00 1.8500000e+01 
7.5000000e-01 3.0250001e+00 1.9000000e+01 
7.5000000e-01 3.0250001e+00 1.9500000e+01 
7.5000000e-01 3.0250001e+00 2.0000000e+01 
7.5000000e-01 3.0250001e+00 2.0500000e+01 
7.5000000e-01 3.0250001e+00 2.1000000e+01 
7.5000000e-01 3.0250001e+00 2.1500000e+01 
7.5000000e-01 3.0250001e+00 2.2000000e+01 
7.5000000e-01 3.0250001e+00 2.2500000e+01 
7.5000000e-01 3.0250001e+00 2.3000000e+01 
7.5000000e-01 3.0250001e+00 2.3500000e+01 
7.5000000e-01 3.0250001e+00 2.4000000e+01 
7.5000000e-01 3.0250001e+00 2.4500000e+01 
7.5000000e-01 3.0250001e+00 2.5000000e+01 
7.5000000e-01 3.0250001e+00 2.5500000e+01 
7.5000000e-01 3.0250001e+00 2.6000000e+01 
7.5000000e-01 3.0250001e+00 2.6500000e+01 
7.5000000e-01 3.0250001e+00 2.7000000e+01 
7.5000000e-01 3.0250001e+00 2.7500000e+01 
7.5000000e-01 3.0250001e+00 2.8000000e+01 
7.5000000e-01 3.0250001e+00 2.8500000e+01 
7.5000000e-01 3.0250001e+00 2.9000000e+01 
7.5000000e-01 3.0250001e+00 2.9500000e+01 
7.5000000e-01 3.0250001e+00 3.0000000e+01 
7.5000000e-01 3.0250001e+00 3.0500000e+01 
7.5000000e-01 3.0250001e+00 3.1000000e+01 
7.5000000e-01 3.0250001e+00 3.1500000e+01 
7.5000000e-01 3.0250001e+00 3.2000000e+01 
7.5000000e-01 3.0250001e+00 3.2500000e+01 
7.5000000e-01 3.0250001e+00 3.3000000e+01 
7.5000000e-01 3.0250001e+00 3.3500000e+01 
7.5000000e-01 3.0250001e+00 3.4000000e+01 
7.5000000e-01 3.0250001e+00 3.4500000e+01 
7.5000000e-01 3.0250001e+00 3.5000000e+01 
7.5000000e-01 3.0250001e+00 3.5500000e+01 
7.5000000e-01 3.0250001e+00 3.6000000e+01 
7.5000000e-01 3.0250001e+00 3.6500000e+01 
7.5000000e-01 3.0250001e+00 3.7000000e+01 
7.5000000e-01 3.0250001e+00 3.7500000e+01 
7.5000000e-01 3.0250001e+00 3.8000000e+01 
7.5000000e-01 3.0250001e+00 3.8500000e+01 
7.5000000e-01 3.0250001e+00 3.9000000e+01 
7.5000000e-01 3.0250001e+00 3.9500000e+01 
7.5000000e-01 3.0250001e+00 4.0000000e+01 
7.5000000e-01 3.0250001e+00 4.0500000e+01 
7.5000000e-01 3.0250001e+00 4.1000000e+01 
7.5000000e-01 3.0250001e+00 4.1500000e+01 
7.5000000e-01 3.0250001e+00 4.2000000e+01 
7.5000000e-01 3.0250001e+00 4.2500000e+01 
7.5000000e-01 3.0250001e+00 4.3000000e+01 
7.5000000e-01 3.0250001e+00 4.3500000e+01 
7.5000000e-01 3.0250001e+00 4.4000000e+01 
7.5000000e-01 3.0250001e+00 4.4500000e+01 
7.5000000e-01 3.0250001e+00 4.5000000e+01 
7.5000000e-01 3.0250001e+00 4.5500000e+01 
7.5000000e-01 3.0250001e+00 4.6000000e+01 
7.5000000e-01 3.0250001e+00 4.6500000e+01 
7.5000000e-01 3.0250001e+00 4.7000000e+01 
7.5000000e-01 3.0250001e+00 4.7500000e+01 
7.5000000e-01 3.0250001e+00 4.8000000e+01 
7.5000000e-01 3.0250001e+00 4.8500000e+01 
7.5000000e-01 3.0250001e+00 4.9000000e+01 
7.5000000e-01 3.0250001e+00 4.9500000e+01 
7.5000000e-01 3.0250001e+00 5.0000000e+01 
3.0000000e+00 2.0000000e+00 3.6000000e+01 
8.0487806e-01 3.0000000e+00 3.6000000e+01 
0.0000000e+00 0.0000000e+00 2.0000000e+00 
0.0000000e+00 0.0000000e+00 4.0000000e+00 
0.0000000e+00 0.0000000e+00 6.0000000e+00 
0.0000000e+00 0.0000000e+00 8.0000000e+00 
0.0000000e+00 0.0000000e+00 1.0000000e+01 
0.0000000e+00 0.0000000e+00 1.2000000e+01 
0.0000000e+00 0.0000000e+00 1.4000000e+01 
0.0000000e+00 0.0000000e+00 1.6000000e+01 
[...]
POINT_DATA 661
FIELD FieldData 3
DISPLACEMENT 3 661  float
0.0000000e+00 0.0000000e+00 0.0000000e+00 
0.0000000e+00 0.0000000e+00 0.0000000e+00 
0.0000000e+00 0.0000000e+00 0.0000000e+00 
0.0000000e+00 0.0000000e+00 0.0000000e+00 
2.8720749e-05 1.7895583e-05 -2.7120326e-05 
-8.5607205e-08 -1.3410630e-06 1.5427005e-07 
0.0000000e+00 1.2877706e-05 0.0000000e+00 
0.0000000e+00 -1.7621643e-06 0.0000000e+00 
5.7522553e-05 -2.6154282e-07 -4.1692849e-05 
-1.3207891e-07 -1.5109977e-06 1.1366387e-06 
5.4875695e-06 -4.1921739e-05 -9.1617934e-05 
-7.0602812e-07 -1.9285994e-06 7.4204428e-07 
0.0000000e+00 1.1320005e-04 0.0000000e+00 
0.0000000e+00 -2.5879449e-06 0.0000000e+00 
1.6338845e-04 6.9220478e-05 -6.3062187e-05 
9.5871570e-08 -7.8862049e-06 -2.2236109e-06 
-4.4904551e-05 5.8431883e-04 8.3006067e-05 
5.8310269e-07 -9.0727417e-06 -1.0128714e-06 
0.0000000e+00 -8.4209067e-05 0.0000000e+00 
0.0000000e+00 -7.6128481e-06 0.0000000e+00 
1.8632761e-04 4.5926456e-04 1.0275106e-04 
6.9088346e-05 1.4472187e-04 1.0336165e-04 
-1.0606811e-04 -2.8807289e-04 3.2538961e-04 
-1.6887032e-04 -8.6000183e-04 3.3551324e-04 
6.3611878e-05 -1.6144890e-03 1.8213312e-04 
-5.4317178e-07 -2.5454343e-03 2.0234940e-04 
8.0226448e-05 -3.3801873e-03 1.8788484e-04 
-4.4162065e-05 -3.4927181e-03 1.7214705e-04 
-1.9980197e-04 -3.3876225e-03 1.4667526e-04 
-2.9384161e-04 -3.4549681e-03 1.2438769e-04 
-2.2300376e-04 -3.8545902e-03 1.0148703e-04 
-3.2524807e-05 -4.0584593e-03 1.5930884e-05 
-1.4753037e-04 -3.5058053e-03 -8.0449041e-05 
-2.5973888e-04 -2.5560306e-03 -1.1156657e-04 
-2.7190711e-04 -1.6853926e-03 -1.0951165e-04 
-7.6434313e-05 -1.0233298e-03 -9.3648297e-05 
-4.2879616e-05 -6.1305414e-04 -1.9431116e-04 
-5.7493853e-05 -3.6594807e-04 -1.9969702e-04 
-1.9868294e-05 -2.0453257e-04 -2.1071383e-04 
3.0630338e-06 -9.5015210e-05 -1.9426322e-04 
6.0413826e-05 -2.1578115e-05 -1.2141968e-04 
5.0789469e-05 3.6028323e-05 -5.1401148e-05 
3.4860423e-05 9.5762385e-05 2.0599451e-05 
9.8948240e-06 1.4389535e-04 7.9532343e-05 
-2.8175074e-05 1.5345616e-04 9.1303547e-05 
-8.0729005e-06 1.2069441e-04 7.3732095e-05 
-2.0319949e-05 5.3025455e-05 2.2108103e-05 
1.2313773e-05 -1.1142863e-05 -4.4087374e-05 
-1.9479019e-05 -3.5933361e-05 -7.1151393e-05 
-4.8023245e-05 -1.9948302e-05 -8.1981489e-05 
-2.0678619e-05 1.4279536e-05 -8.8423178e-05 
9.7216935e-06 6.1242848e-05 -7.2332849e-05 
7.2096496e-05 1.0848940e-04 -7.9985155e-05 
2.9711355e-05 1.5124299e-04 -6.7794725e-05 
1.5516034e-05 2.0311472e-04 -3.4022465e-05 
-7.8361842e-07 2.5109228e-04 -4.5127457e-05 
1.1897982e-04 3.0468561e-04 9.4808877e-07 
1.9283457e-04 3.8507782e-04 -1.2765739e-05 
-3.8793816e-05 4.9960462e-04 -2.4505393e-05 
-1.3169718e-04 5.5357791e-04 -2.4386584e-06 
2.0411343e-04 4.5270805e-04 5.7581965e-05 
3.4092829e-04 1.6696172e-04 6.2896725e-05 
1.3797950e-04 -3.2384606e-04 5.8028611e-05 
-2.8515293e-04 -9.8655955e-04 7.6613040e-05 
-1.5769080e-04 -1.8380421e-03 2.1034999e-04 
-8.8580209e-06 -2.7644034e-03 2.2744466e-04 
8.2435719e-05 -3.5168370e-03 1.9969045e-04 
-1.4394970e-04 -3.6043623e-03 2.5547875e-04 
-2.8815598e-04 -3.5520445e-03 2.1862691e-04 
-2.5827135e-04 -3.6583205e-03 1.7034946e-04 
-1.5132202e-04 -3.9867815e-03 1.0509373e-04 
-8.2094382e-05 -4.0183030e-03 5.3117299e-05 
-1.6534001e-04 -3.3496502e-03 -8.7953318e-05 
-2.5287055e-04 -2.3894841e-03 -1.5294060e-04 
-2.1305961e-04 -1.5811812e-03 -1.7569146e-04 
-6.9607930e-05 -9.7642018e-04 -1.4843862e-04 
-4.5686458e-05 -5.7167228e-04 -2.0742591e-04 
-3.3070373e-05 -3.1010827e-04 -1.9087701e-04 
-2.3850391e-05 -1.4849761e-04 -1.7036442e-04 
1.7131999e-05 -4.4443208e-05 -1.2388284e-04 
3.9567902e-05 3.2626449e-05 -8.2504754e-05 
4.5704153e-05 9.1532245e-05 -3.0020316e-05 
2.9934050e-05 1.2356654e-04 1.4466068e-05 
3.9145780e-06 1.2778043e-04 4.6000754e-05 
-4.0939744e-06 1.0992274e-04 5.5359800e-05 
-1.2708409e-05 7.9389392e-05 4.3478602e-05 
-1.1341358e-05 4.1100542e-05 2.5148569e-05 
-5.9362151e-06 3.0704305e-06 2.4975513e-06 
-4.9585628e-06 -2.4115547e-05 -8.0568434e-06 
-5.4526506e-08 -3.6688558e-05 -1.5532589e-05 
3.3213594e-06 -3.4865738e-05 -1.8566665e-05 
3.3154342e-06 -2.3896559e-05 -1.1346063e-05 
2.9617333e-06 -8.0819200e-06 -4.6020818e-06 
1.5080154e-06 7.8425583e-06 3.0912886e-06 
-1.1116209e-06 1.7899898e-05 6.9824659e-06 
-1.0289093e-06 1.8461649e-05 5.5945929e-06 
-3.3420559e-07 9.9282443e-06 2.7616172e-06 
-6.6853761e-07 -1.9442866e-06 -1.1660392e-06 
-1.6059762e-07 -9.0658832e-06 -3.3246627e-06 
0.0000000e+00 -4.3014497e-06 0.0000000e+00 
0.0000000e+00 8.9236397e-07 0.0000000e+00 
0.0000000e+00 3.2932203e-06 0.0000000e+00 
0.0000000e+00 2.8450579e-06 0.0000000e+00 
0.0000000e+00 1.5404822e-06 0.0000000e+00 
0.0000000e+00 9.7154123e-07 0.0000000e+00 
0.0000000e+00 1.0475886e-06 0.0000000e+00 
0.0000000e+00 7.4853392e-07 0.0000000e+00 
0.0000000e+00 -3.5600800e-07 0.0000000e+00 
0.0000000e+00 -1.5460798e-06 0.0000000e+00 
0.0000000e+00 -1.7630226e-06 0.0000000e+00 
0.0000000e+00 -7.5764655e-07 0.0000000e+00 
0.0000000e+00 6.3641005e-07 0.0000000e+00 
0.0000000e+00 1.2954246e-06 0.0000000e+00 
0.0000000e+00 8.1338288e-07 0.0000000e+00 
0.0000000e+00 -2.2144953e-07 0.0000000e+00 
0.0000000e+00 -8.4611685e-07 0.0000000e+00 
0.0000000e+00 -5.9288288e-07 0.0000000e+00 
0.0000000e+00 1.5949668e-07 0.0000000e+00 
0.0000000e+00 5.7482487e-07 0.0000000e+00 
0.0000000e+00 5.8022374e-04 0.0000000e+00 
0.0000000e+00 4.5948094e-04 0.0000000e+00 
0.0000000e+00 1.4988745e-04 0.0000000e+00 
0.0000000e+00 -2.8527918e-04 0.0000000e+00 
0.0000000e+00 -8.6082856e-04 0.0000000e+00 
0.0000000e+00 -1.6293708e-03 0.0000000e+00 
0.0000000e+00 -2.5844914e-03 0.0000000e+00 
0.0000000e+00 -3.4032529e-03 0.0000000e+00 
0.0000000e+00 -3.5178291e-03 0.0000000e+00 
0.0000000e+00 -3.3997302e-03 0.0000000e+00 
0.0000000e+00 -3.4887062e-03 0.0000000e+00 
0.0000000e+00 -3.8768435e-03 0.0000000e+00 
0.0000000e+00 -4.0900707e-03 0.0000000e+00 
0.0000000e+00 -3.5220208e-03 0.0000000e+00 
0.0000000e+00 -2.5743786e-03 0.0000000e+00 
0.0000000e+00 -1.6897891e-03 0.0000000e+00 
0.0000000e+00 -1.0288112e-03 0.0000000e+00 
0.0000000e+00 -6.1244972e-04 0.0000000e+00 
0.0000000e+00 -3.6377501e-04 0.0000000e+00 
0.0000000e+00 -2.0375042e-04 0.0000000e+00 
0.0000000e+00 -9.4977651e-05 0.0000000e+00 
0.0000000e+00 -2.1155342e-05 0.0000000e+00 
0.0000000e+00 3.7631293e-05 0.0000000e+00 
0.0000000e+00 9.6092837e-05 0.0000000e+00 
0.0000000e+00 1.4252594e-04 0.0000000e+00 
0.0000000e+00 1.5294742e-04 0.0000000e+00 
0.0000000e+00 1.1920644e-04 0.0000000e+00 
0.0000000e+00 5.3376709e-05 0.0000000e+00 
0.0000000e+00 -9.0343592e-06 0.0000000e+00 
0.0000000e+00 -3.4824137e-05 0.0000000e+00 
0.0000000e+00 -2.1122862e-05 0.0000000e+00 
0.0000000e+00 1.4213579e-05 0.0000000e+00 
0.0000000e+00 6.0592221e-05 0.0000000e+00 
0.0000000e+00 1.0786375e-04 0.0000000e+00 
0.0000000e+00 1.5328419e-04 0.0000000e+00 
0.0000000e+00 2.0188630e-04 0.0000000e+00 
0.0000000e+00 2.4960644e-04 0.0000000e+00 
0.0000000e+00 3.0530241e-04 0.0000000e+00 
0.0000000e+00 3.9039514e-04 0.0000000e+00 
0.0000000e+00 5.0081307e-04 0.0000000e+00 
0.0000000e+00 5.5152352e-04 0.0000000e+00 
0.0000000e+00 4.5197571e-04 0.0000000e+00 
0.0000000e+00 1.6339411e-04 0.0000000e+00 
0.0000000e+00 -3.2191945e-04 0.0000000e+00 
0.0000000e+00 -9.9172443e-04 0.0000000e+00 
0.0000000e+00 -1.8468812e-03 0.0000000e+00 
0.0000000e+00 -2.8019410e-03 0.0000000e+00 
0.0000000e+00 -3.5426582e-03 0.0000000e+00 
0.0000000e+00 -3.6348542e-03 0.0000000e+00 
0.0000000e+00 -3.5646921e-03 0.0000000e+00 
0.0000000e+00 -3.6881589e-03 0.0000000e+00 
0.0000000e+00 -4.0075853e-03 0.0000000e+00 
0.0000000e+00 -4.0531075e-03 0.0000000e+00 
0.0000000e+00 -3.3679616e-03 0.0000000e+00 
0.0000000e+00 -2.4083124e-03 0.0000000e+00 
0.0000000e+00 -1.5834260e-03 0.0000000e+00 
0.0000000e+00 -9.7844482e-04 0.0000000e+00 
0.0000000e+00 -5.7130796e-04 0.0000000e+00 
0.0000000e+00 -3.0999098e-04 0.0000000e+00 
0.0000000e+00 -1.4767818e-04 0.0000000e+00 
0.0000000e+00 -4.3179069e-05 0.0000000e+00 
0.0000000e+00 3.3333268e-05 0.0000000e+00 
0.0000000e+00 9.0928115e-05 0.0000000e+00 
0.0000000e+00 1.2328397e-04 0.0000000e+00 
0.0000000e+00 1.2789991e-04 0.0000000e+00 
0.0000000e+00 1.1021973e-04 0.0000000e+00 
0.0000000e+00 7.9104750e-05 0.0000000e+00 
0.0000000e+00 4.0930223e-05 0.0000000e+00 
0.0000000e+00 3.5414055e-06 0.0000000e+00 
0.0000000e+00 -2.3848155e-05 0.0000000e+00 
0.0000000e+00 -3.6527068e-05 0.0000000e+00 
0.0000000e+00 -3.4968256e-05 0.0000000e+00 
0.0000000e+00 -2.3858844e-05 0.0000000e+00 
0.0000000e+00 -8.0004647e-06 0.0000000e+00 
0.0000000e+00 7.6743081e-06 0.0000000e+00 
0.0000000e+00 1.7649652e-05 0.0000000e+00 
0.0000000e+00 1.8224724e-05 0.0000000e+00 
0.0000000e+00 9.9111485e-06 0.0000000e+00 
0.0000000e+00 -1.5976814e-06 0.0000000e+00 
0.0000000e+00 -8.8628749e-06 0.0000000e+00 
0.0000000e+00 -9.0522344e-06 0.0000000e+00 
0.0000000e+00 -4.3982163e-06 0.0000000e+00 
0.0000000e+00 7.5735989e-07 0.0000000e+00 
0.0000000e+00 3.2409375e-06 0.0000000e+00 
0.0000000e+00 2.8925767e-06 0.0000000e+00 
0.0000000e+00 1.6089479e-06 0.0000000e+00 
0.0000000e+00 9.8438727e-07 0.0000000e+00 
0.0000000e+00 1.0051497e-06 0.0000000e+00 
0.0000000e+00 7.1018064e-07 0.0000000e+00 
0.0000000e+00 -3.4563084e-07 0.0000000e+00 
0.0000000e+00 -1.5014390e-06 0.0000000e+00 
0.0000000e+00 -1.7331427e-06 0.0000000e+00 
0.0000000e+00 -7.6996025e-07 0.0000000e+00 
0.0000000e+00 6.0061825e-07 0.0000000e+00 
0.0000000e+00 1.2738334e-06 0.0000000e+00 
0.0000000e+00 8.2113985e-07 0.0000000e+00 
0.0000000e+00 -2.0097370e-07 0.0000000e+00 
0.0000000e+00 -8.3524270e-07 0.0000000e+00 
0.0000000e+00 -5.9538644e-07 0.0000000e+00 
0.0000000e+00 1.5375443e-07 0.0000000e+00 
0.0000000e+00 5.7072077e-07 0.0000000e+00 
-2.2605361e-06 -6.9674561e-06 -4.2042737e-07 
5.1098795e-07 -2.6856265e-05 -1.4291116e-05 
0.0000000e+00 0.0000000e+00 0.0000000e+00 
0.0000000e+00 0.0000000e+00 0.0000000e+00 
0.0000000e+00 0.0000000e+00 0.0000000e+00 
0.0000000e+00 0.0000000e+00 0.0000000e+00 
0.0000000e+00 0.0000000e+00 0.0000000e+00 
0.0000000e+00 0.0000000e+00 0.0000000e+00 
0.0000000e+00 0.0000000e+00 0.0000000e+00 
0.0000000e+00 0.0000000e+00 0.0000000e+00 
0.0000000e+00 0.0000000e+00 0.0000000e+00 
0.0000000e+00 0.0000000e+00 0.0000000e+00 
0.0000000e+00 0.0000000e+00 0.0000000e+00 
0.0000000e+00 0.0000000e+00 0.0000000e+00 
0.0000000e+00 0.0000000e+00 0.0000000e+00 
0.0000000e+00 0.0000000e+00 0.0000000e+00 
0.0000000e+00 0.0000000e+00 0.0000000e+00 
0.0000000e+00 0.0000000e+00 0.0000000e+00 
0.0000000e+00 0.0000000e+00 0.0000000e+00 
0.0000000e+00 0.0000000e+00 0.0000000e+00 
0.0000000e+00 0.0000000e+00 0.0000000e+00 
0.0000000e+00 0.0000000e+00 0.0000000e+00 
0.0000000e+00 0.0000000e+00 0.0000000e+00 
0.0000000e+00 0.0000000e+00 0.0000000e+00 
0.0000000e+00 0.0000000e+00 0.0000000e+00 
0.0000000e+00 0.0000000e+00 0.0000000e+00 
0.0000000e+00 0.0000000e+00 0.0000000e+00 
0.0000000e+00 0.0000000e+00 0.0000000e+00 
0.0000000e+00 0.0000000e+00 0.0000000e+00 
0.0000000e+00 0.0000000e+00 0.0000000e+00 
0.0000000e+00 0.0000000e+00 0.0000000e+00 
0.0000000e+00 0.0000000e+00 0.0000000e+00 
0.0000000e+00 0.0000000e+00 0.0000000e+00 
0.0000000e+00 0.0000000e+00 0.0000000e+00 
0.0000000e+00 0.0000000e+00 0.0000000e+00 
0.0000000e+00 0.0000000e+00 0.0000000e+00 
0.0000000e+00 0.0000000e+00 0.0000000e+00 
0.0000000e+00 0.0000000e+00 0.0000000e+00 
0.0000000e+00 0.0000000e+00 0.0000000e+00 
0.0000000e+00 0.0000000e+00 0.0000000e+00 
0.0000000e+00 0.0000000e+00 0.0000000e+00 
0.0000000e+00 0.0000000e+00 0.0000000e+00 
0.0000000e+00 0.0000000e+00 0.0000000e+00 
0.0000000e+00 0.0000000e+00 0.0000000e+00 
3.4815304e-05 7.4278296e-06 -2.4948116e-05 
5.0135935e-05 2.6241341e-05 -2.2942932e-05 
4.5389930e-05 -1.7166107e-05 -2.0442692e-05 
-1.1870899e-05 -5.1587385e-06 -1.6174625e-05 
1.2719965e-05 -9.5987161e-06 8.4583089e-06 
-1.5358984e-06 6.4772403e-06 6.8549298e-06 
1.5064032e-06 5.0569606e-06 1.3225026e-05 
-6.6946750e-06 1.1090023e-05 4.9532559e-06 
-3.5934534e-06 2.0444031e-05 7.9199081e-06 
1.4559346e-05 7.9593474e-06 -3.4476026e-05 
3.9884828e-05 1.2580164e-05 2.5187106e-05 
4.4468030e-05 2.0994323e-05 -7.7857239e-06 
2.7775455e-05 7.6402503e-06 -1.6800619e-05 
1.3688172e-06 -1.5750615e-05 -1.4679194e-05 
9.7738493e-06 2.1715161e-06 1.3212091e-05 
1.1164378e-06 3.3204933e-06 1.2545235e-05 
1.5101822e-06 -8.0643014e-07 3.2281248e-06 
-1.3696429e-06 -3.1249815e-06 -2.6843256e-06 
4.7880201e-07 2.2075546e-06 9.4024422e-08 
0.0000000e+00 -2.5957159e-04 0.0000000e+00 
0.0000000e+00 -4.5246663e-04 0.0000000e+00 
0.0000000e+00 -4.5071397e-04 0.0000000e+00 
0.0000000e+00 -1.5867692e-04 0.0000000e+00 
0.0000000e+00 -6.0843842e-05 0.0000000e+00 
0.0000000e+00 4.8660029e-05 0.0000000e+00 
0.0000000e+00 3.5286598e-06 0.0000000e+00 
0.0000000e+00 1.1938255e-04 0.0000000e+00 
0.0000000e+00 -3.0959156e-05 0.0000000e+00 
0.0000000e+00 -1.7320563e-04 0.0000000e+00 
0.0000000e+00 -3.2193825e-04 0.0000000e+00 
0.0000000e+00 -5.3193327e-04 0.0000000e+00 
0.0000000e+00 -4.8629314e-04 0.0000000e+00 
0.0000000e+00 -1.7542139e-04 0.0000000e+00 
0.0000000e+00 -9.5759369e-06 0.0000000e+00 
0.0000000e+00 2.6583039e-05 0.0000000e+00 
0.0000000e+00 -2.9390640e-06 0.0000000e+00 
0.0000000e+00 -3.1138452e-06 0.0000000e+00 
0.0000000e+00 1.8189572e-06 0.0000000e+00 
2.1484500e-05 -7.7705110e-05 -3.6076330e-05 
6.7990099e-05 8.8042303e-05 -3.7581351e-05 
-2.5525279e-07 -1.0937327e-06 -5.6673560e-08 
-3.7523060e-07 -1.3947182e-06 -4.9351496e-07 
2.4754660e-05 6.3627231e-06 -3.1524520e-05 
5.6980851e-05 5.1971765e-05 -2.1749984e-05 
4.8969508e-05 -9.9107383e-06 -7.9223373e-06 
9.6279964e-06 -7.9100364e-06 -1.9303923e-05 
4.8611646e-06 -1.6027161e-05 2.0265547e-06 
-1.0876645e-05 7.3666602e-06 1.1684358e-05 
1.5333493e-05 5.3180429e-06 6.5561144e-06 
1.4573349e-05 1.0729885e-05 -5.1744414e-06 
2.8202821e-05 2.4120436e-05 3.5602518e-06 
-1.1223633e-05 3.3541386e-05 1.8690047e-06 
1.9500555e-06 4.3098575e-05 -1.0223364e-05 
6.6375505e-05 3.0232513e-05 -9.4533325e-06 
4.0355291e-05 1.2164823e-05 8.7317505e-07 
3.9676265e-06 -2.3147155e-05 -1.5078617e-06 
-3.4067857e-06 -6.2007717e-07 -1.7624820e-06 
3.7313766e-06 4.0882978e-06 1.5321573e-05 
4.6209252e-06 -5.0324928e-07 4.5530646e-06 
-6.0536422e-07 -2.6746493e-06 -4.4675069e-08 
-2.2872152e-07 1.8068887e-06 -8.7410524e-07 
-1.2175577e-05 1.1607563e-04 -4.2082807e-05 
0.0000000e+00 -4.8187294e-04 0.0000000e+00 
0.0000000e+00 -1.0251981e-03 0.0000000e+00 
0.0000000e+00 -1.0519387e-03 0.0000000e+00 
0.0000000e+00 -3.0082336e-04 0.0000000e+00 
0.0000000e+00 -1.1681663e-04 0.0000000e+00 
0.0000000e+00 1.1440676e-04 0.0000000e+00 
0.0000000e+00 -2.3527231e-05 0.0000000e+00 
0.0000000e+00 1.1854434e-04 0.0000000e+00 
0.0000000e+00 1.2426722e-04 0.0000000e+00 
0.0000000e+00 -1.5644962e-04 0.0000000e+00 
0.0000000e+00 -6.3001830e-04 0.0000000e+00 
0.0000000e+00 -1.0163153e-03 0.0000000e+00 
0.0000000e+00 -1.0921939e-03 0.0000000e+00 
0.0000000e+00 -3.4845417e-04 0.0000000e+00 
0.0000000e+00 -7.0871451e-06 0.0000000e+00 
0.0000000e+00 5.2776977e-05 0.0000000e+00 
0.0000000e+00 -8.2074866e-06 0.0000000e+00 
0.0000000e+00 -7.9433175e-06 0.0000000e+00 
0.0000000e+00 5.1337943e-06 0.0000000e+00 
-3.0059201e-07 -2.1772955e-06 -4.9920845e-07 
-2.9202478e-04 2.9421793e-05 2.6672863e-04 
-5.4086023e-04 -8.3580008e-04 2.0454527e-04 
-5.8258331e-04 -1.4264334e-03 -5.5097797e-05 
-1.7518732e-04 -2.4933496e-04 -2.4677566e-04 
-3.6927347e-06 -1.9380564e-04 -2.2221036e-04 
3.7232381e-05 1.5271005e-04 7.2428404e-05 
-6.4203177e-06 -1.7019249e-05 3.7108093e-05 
-4.6614723e-06 1.7000917e-05 -3.4209937e-05 
-1.0254332e-05 2.9466231e-04 -9.2843249e-05 
-3.4662662e-05 4.0903682e-04 4.8054677e-05 
-2.9166986e-04 5.8945454e-05 1.9675655e-04 
-6.8961148e-04 -7.6976506e-04 3.2149052e-04 
-6.2331167e-04 -1.2927520e-03 -1.6640775e-05 
-1.7721970e-04 -3.8508483e-04 -3.3325385e-04 
1.5348533e-05 -2.1042117e-05 -1.5949423e-04 
2.4065916e-05 5.3831540e-05 5.8741280e-05 
-1.2074794e-05 1.2868476e-05 3.0636140e-05 
6.6911815e-07 -2.1454702e-05 -1.8813729e-05 
6.9579096e-07 1.4494399e-05 8.3761252e-06 
0.0000000e+00 -5.1381363e-04 0.0000000e+00 
0.0000000e+00 -2.0043321e-03 0.0000000e+00 
0.0000000e+00 -2.2148213e-03 0.0000000e+00 
0.0000000e+00 -5.7468051e-04 0.0000000e+00 
0.0000000e+00 -1.2400390e-04 0.0000000e+00 
0.0000000e+00 1.8759082e-04 0.0000000e+00 
0.0000000e+00 -1.0387618e-04 0.0000000e+00 
0.0000000e+00 2.0139827e-04 0.0000000e+00 
0.0000000e+00 2.8005676e-04 0.0000000e+00 
0.0000000e+00 -1.0681617e-05 0.0000000e+00 
0.0000000e+00 -8.3558948e-04 0.0000000e+00 
0.0000000e+00 -1.8913749e-03 0.0000000e+00 
0.0000000e+00 -2.1287182e-03 0.0000000e+00 
0.0000000e+00 -6.2579615e-04 0.0000000e+00 
0.0000000e+00 -3.6380284e-06 0.0000000e+00 
0.0000000e+00 1.0609062e-04 0.0000000e+00 
0.0000000e+00 -1.2885565e-05 0.0000000e+00 
0.0000000e+00 -1.7498820e-05 0.0000000e+00 
0.0000000e+00 1.4873435e-05 0.0000000e+00 
3.1235442e-05 7.3421012e-05 -6.6374778e-05 
2.4582065e-05 -6.0842969e-05 -3.0563759e-05 
8.5351050e-05 -5.5180302e-05 4.7275465e-05 
1.4561645e-05 -6.3633357e-05 -5.0284430e-05 
-1.0909219e-05 -2.0277343e-05 -4.8875674e-05 
1.4103426e-05 2.7899357e-06 1.8635290e-05 
1.4493376e-07 2.0836498e-05 3.5590434e-05 
1.5824298e-05 -8.2598854e-06 -4.9656996e-06 
1.5866551e-06 3.2046486e-05 -1.5712027e-05 
2.8793485e-05 -1.7357483e-05 2.5134354e-05 
6.7923655e-05 -4.8021237e-05 -1.8571909e-05 
8.9030764e-05 1.5731790e-05 3.3445529e-05 
5.7106878e-05 -6.5660155e-05 1.6617034e-05 
1.1254660e-05 -5.9588656e-05 -4.0007159e-05 
-7.1289546e-06 -2.2800910e-05 -3.9470819e-05 
2.5725999e-06 1.3499881e-05 5.3474087e-06 
2.6892610e-06 8.0413301e-06 1.7606022e-05 
1.3024892e-06 3.8116282e-06 -1.5805313e-06 
1.8073595e-06 -1.7548649e-05 -1.0423226e-05 
0.0000000e+00 0.0000000e+00 0.0000000e+00 
0.0000000e+00 0.0000000e+00 0.0000000e+00 
0.0000000e+00 0.0000000e+00 0.0000000e+00 
0.0000000e+00 0.0000000e+00 0.0000000e+00 
0.0000000e+00 0.0000000e+00 0.0000000e+00 
0.0000000e+00 0.0000000e+00 0.0000000e+00 
0.0000000e+00 0.0000000e+00 0.0000000e+00 
0.0000000e+00 0.0000000e+00 0.0000000e+00 
0.0000000e+00 0.0000000e+00 0.0000000e+00 
0.0000000e+00 0.0000000e+00 0.0000000e+00 
0.0000000e+00 0.0000000e+00 0.0000000e+00 
0.0000000e+00 0.0000000e+00 0.0000000e+00 
0.0000000e+00 0.0000000e+00 0.0000000e+00 
0.0000000e+00 0.0000000e+00 0.0000000e+00 
0.0000000e+00 0.0000000e+00 0.0000000e+00 
0.0000000e+00 0.0000000e+00 0.0000000e+00 
0.0000000e+00 0.0000000e+00 0.0000000e+00 
0.0000000e+00 0.0000000e+00 0.0000000e+00 
0.0000000e+00 0.0000000e+00 0.0000000e+00 
0.0000000e+00 0.0000000e+00 0.0000000e+00 
0.0000000e+00 0.0000000e+00 0.0000000e+00 
0.0000000e+00 0.0000000e+00 0.0000000e+00 
0.0000000e+00 0.0000000e+00 0.0000000e+00 
0.0000000e+00 0.0000000e+00 0.0000000e+00 
0.0000000e+00 0.0000000e+00 0.0000000e+00 
0.0000000e+00 0.0000000e+00 0.0000000e+00 
0.0000000e+00 0.0000000e+00 0.0000000e+00 
0.0000000e+00 0.0000000e+00 0.0000000e+00 
0.0000000e+00 0.0000000e+00 0.0000000e+00 
0.0000000e+00 0.0000000e+00 0.0000000e+00 
0.0000000e+00 0.0000000e+00 0.0000000e+00 
0.0000000e+00 0.0000000e+00 0.0000000e+00 
0.0000000e+00 0.0000000e+00 0.0000000e+00 
0.0000000e+00 0.0000000e+00 0.0000000e+00 
0.0000000e+00 0.0000000e+00 0.0000000e+00 
0.0000000e+00 0.0000000e+00 0.0000000e+00 
0.0000000e+00 0.0000000e+00 0.0000000e+00 
0.0000000e+00 0.0000000e+00 0.0000000e+00 
0.0000000e+00 0.0000000e+00 0.0000000e+00 
0.0000000e+00 0.0000000e+00 0.0000000e+00 
0.0000000e+00 0.0000000e+00 0.0000000e+00 
0.0000000e+00 0.0000000e+00 0.0000000e+00 
2.0271541e-06 -4.7665612e-06 -2.7005315e-05 
5.3558836e-07 4.2672777e-06 2.0828654e-06 
-8.0501932e-06 1.7597971e-05 9.6228923e-06 
3.1743628e-05 -3.9628062e-06 1.1207474e-05 
9.0678332e-06 5.5143269e-06 -1.3182674e-05 
4.8911238e-06 -4.6022410e-06 -1.3672951e-05 
4.1659277e-06 -6.2341542e-07 2.7854708e-06 
3.5847650e-06 1.5439073e-06 6.4566998e-06 
1.6849489e-07 -8.4088549e-07 3.2923303e-06 