# vtk DataFile Version 4.0
vtk output
ASCII
DATASET UNSTRUCTURED_GRID
POINTS 661 float
0.0000000e+00 0.0000000e+00 0.0000000e+00 
0.0000000e+00 0.0000000e+00 4.0000000e+01 
5.0000000e+00 0.0000000e+00 0.0000000e+00 
5.0000000e+00 0.0000000e+00 4.0000000e+01 
5.0000000e+00 1.0000000e+00 0.0000000e+00 
5.0000000e+00 1.0000000e+00 4.0000000e+01 
0.0000000e+00 1.0000000e+00 0.0000000e+00 
0.0000000e+00 1.0000000e+00 4.0000000e+01 
5.0000000e+00 2.0000000e+00 0.0000000e+00 
5.0000000e+00 2.0000000e+00 4.0000000e+01 
3.0000000e+00 2.0000000e+00 0.0000000e+00 
3.0000000e+00 2.0000000e+00 4.0000000e+01 
0.0000000e+00 2.0000000e+00 0.0000000e+00 
0.0000000e+00 2.0000000e+00 4.0000000e+01 
1.5000000e+00 3.0000000e+00 0.0000000e+00 
1.5000000e+00 3.0000000e+00 4.0000000e+01 
7.5000000e-01 3.0000000e+00 0.0000000e+00 
7.5000000e-01 3.0000000e+00 4.0000000e+01 
0.0000000e+00 3.0000000e+00 0.0000000e+00 
0.0000000e+00 3.0000000e+00 4.0000000e+01 
7.5000000e-01 3.0000000e+00 5.0000000e-01 
7.5000000e-01 3.0000000e+00 1.0000000e+00 
7.5000000e-01 3.0000000e+00 1.5000000e+00 
7.5000000e-01 3.0000000e+00 2.0000000e+00 
7.5000000e-01 3.0000000e+00 2.5000000e+00 
7.5000000e-01 3.0000000e+00 3.0000000e+00 
7.5000000e-01 3.0000000e+00 3.5000000e+00 
7.5000000e-01 3.0000000e+00 4.0000000e+00 
7.5000000e-01 3.0000000e+00 4.5000000e+00 
7.5000000e-01 3.0000000e+00 5.0000000e+00 
7.5000000e-01 3.0000000e+00 5.5000000e+00 
7.5000000e-01 3.0000000e+00 6.0000000e+00 
7.5000000e-01 3.0000000e+00 6.5000000e+00 
7.5000000e-01 3.0000000e+00 7.0000000e+00 
7.5000000e-01 3.0000000e+00 7.5000000e+00 
7.5000000e-01 3.0000000e+00 8.0000000e+00 
7.5000000e-01 3.0000000e+00 8.5000000e+00 
7.5000000e-01 3.0000000e+00 9.0000000e+00 
7.5000000e-01 3.0000000e+00 9.5000000e+00 
7.5000000e-01 3.0000000e+00 1.0000000e+01 
7.5000000e-01 3.0000000e+00 1.0500000e+01 
7.5000000e-01 3.0000000e+00 1.1000000e+01 
7.5000000e-01 3.0000000e+00 1.1500000e+01 
7.5000000e-01 3.0000000e+00 1.2000000e+01 
7.5000000e-01 3.0000000e+00 1.2500000e+01 
7.5000000e-01 3.0000000e+00 1.3000000e+01 
7.5000000e-01 3.0000000e+00 1.3500000e+01 
7.5000000e-01 3.0000000e+00 1.4000000e+01 
7.5000000e-01 3.0000000e+00 1.4500000e+01 
7.5000000e-01 3.0000000e+00 1.5000000e+01 
7.5000000e-01 3.0000000e+00 1.5500000e+01 
7.5000000e-01 3.0000000e+00 1.6000000e+01 
7.5000000e-01 3.0000000e+00 1.6500000e+01 
7.5000000e-01 3.0000000e+00 1.7000000e+01 
7.5000000e-01 3.0000000e+00 1.7500000e+01 
7.5000000e-01 3.0000000e+00 1.8000000e+01 
7.5000000e-01 3.0000000e+00 1.8500000e+01 
7.5000000e-01 3.0000000e+00 1.9000000e+01 
7.5000000e-01 3.0000000e+00 1.9500000e+01 
7.5000000e-01 3.0000000e+00 2.0000000e+01 
7.5000000e-01 3.0000000e+00 2.0500000e+01 
7.5000000e-01 3.0000000e+00 2.1000000e+01 
7.5000000e-01 3.0000000e+00 2.1500000e+01 
7.5000000e-01 3.0000000e+00 2.2000000e+01 
7.5000000e-01 3.0000000e+00 2.2500000e+01 
7.5000000e-01 3.0000000e+00 2.3000000e+01 
7.5000000e-01 3.0000000e+00 2.3500000e+01 
7.5000000e-01 3.0000000e+00 2.4000000e+01 
7.5000000e-01 3.0000000e+00 2.4500000e+01 
7.5000000e-01 3.0000000e+00 2.5000000e+01 
7.5000000e-01 3.0000000e+00 2.5500000e+01 
7.5000000e-01 3.0000000e+00 2.6000000e+01 
7.5000000e-01 3.0000000e+00 2.6500000e+01 
7.5000000e-01 3.0000000e+00 2.7000000e+01 
7.5000000e-01 3.0000000e+00 2.7500000e+01 
7.5000000e-01 3.0000000e+00 2.8000000e+01 
7.5000000e-01 3.0000000e+00 2.8500000e+01 
7.5000000e-01 3.0000000e+00 2.9000000e+01 
7.5000000e-01 3.0000000e+00 2.9500000e+01 
7.5000000e-01 3.0000000e+00 3.0000000e+01 
7.5000000e-01 3.0000000e+00 3.0500000e+01 
7.5000000e-01 3.0000000e+00 3.1000000e+01 
7.5000000e-01 3.0000000e+00 3.1500000e+01 
7.5000000e-01 3.0000000e+00 3.2000000e+01 
7.5000000e-01 3.0000000e+00 3.2500000e+01 
7.5000000e-01 3.0000000e+00 3.3000000e+01 
7.5000000e-01 3.0000000e+00 3.3500000e+01 
7.5000000e-01 3.0000000e+00 3.4000000e+01 
7.5000000e-01 3.0000000e+00 3.4500000e+01 
7.5000000e-01 3.0000000e+00 3.5000000e+01 
7.5000000e-01 3.0000000e+00 3.5500000e+01 
7.5000000e-01 3.0000000e+00 3.6000000e+01 
7.5000000e-01 3.0000000e+00 3.6500000e+01 
7.5000000e-01 3.0000000e+00 3.7000000e+01 
7.5000000e-01 3.0000000e+00 3.7500000e+01 
7.5000000e-01 3.0000000e+00 3.8000000e+01 
7.5000000e-01 3.0000000e+00 3.8500000e+01 
7.5000000e-01 3.0000000e+00 3.9000000e+01 
7.5000000e-01 3.0000000e+00 3.9500000e+01 
7.5000000e-01 3.0000000e+00 4.0500000e+01 
7.5000000e-01 3.0000000e+00 4.1000000e+01 
7.5000000e-01 3.0000000e+00 4.1500000e+01 
7.5000000e-01 3.0000000e+00 4.2000000e+01 
7.5000000e-01 3.0000000e+00 4.2500000e+01 
7.5000000e-01 3.0000000e+00 4.3000000e+01 
7.5000000e-01 3.0000000e+00 4.3500000e+01 
7.5000000e-01 3.0000000e+00 4.4000000e+01 
7.5000000e-01 3.0000000e+00 4.4500000e+01 
7.5000000e-01 3.0000000e+00 4.5000000e+01 
7.5000000e-01 3.0000000e+00 4.5500000e+01 
7.5000000e-01 3.0000000e+00 4.6000000e+01 
7.5000000e-01 3.0000000e+00 4.6500000e+01 
7.5000000e-01 3.0000000e+00 4.7000000e+01 
7.5000000e-01 3.0000000e+00 4.7500000e+01 
7.5000000e-01 3.0000000e+00 4.8000000e+01 
7.5000000e-01 3.0000000e+00 4.8500000e+01 
7.5000000e-01 3.0000000e+00 4.9000000e+01 
7.5000000e-01 3.0000000e+00 4.9500000e+01 
7.5000000e-01 3.0000000e+00 5.0000000e+01 
7.5000000e-01 3.0250001e+00 0.0000000e+00 
7.5000000e-01 3.0250001e+00 5.0000000e-01 
7.5000000e-01 3.0250001e+00 1.0000000e+00 
7.5000000e-01 3.0250001e+00 1.5000000e+00 
7.5000000e-01 3.0250001e+00 2.0000000e+00 
7.5000000e-01 3.0250001e+00 2.5000000e+00 
7.5000000e-01 3.0250001e+00 3.0000000e+00 
7.5000000e-01 3.0250001e+00 3.5000000e+00 
7.5000000e-01 3.0250001e+00 4.0000000e+00 
7.5000000e-01 3.0250001e+00 4.5000000e+00 
7.5000000e-01 3.0250001e+00 5.0000000e+00 
7.5000000e-01 3.0250001e+00 5.5000000e+00 
7.5000000e-01 3.0250001e+00 6.0000000e+00 
7.5000000e-01 3.0250001e+00 6.5000000e+00 
7.5000000e-01 3.0250001e+00 7.0000000e+00 
7.5000000e-01 3.0250001e+00 7.5000000e+00 
7.5000000e-01 3.0250001e+00 8.0000000e+00 
7.5000000e-01 3.0250001e+00 8.5000000e+00 
7.5000000e-01 3.0250001e+00 9.0000000e+00 
7.5000000e-01 3.0250001e+00 9.5000000e+00 
7.5000000e-01 3.0250001e+00 1.0000000e+01 
7.5000000e-01 3.0250001e+00 1.0500000e+01 
7.5000000e-01 3.0250001e+00 1.1000000e+01 
7.5000000e-01 3.0250001e+00 1.1500000e+01 
7.5000000e-01 3.0250001e+00 1.2000000e+01 
7.5000000e-01 3.0250001e+00 1.2500000e+01 
7.5000000e-01 3.0250001e+00 1.3000000e+01 
7.5000000e-01 3.0250001e+00 1.3500000e+01 
7.5000000e-01 3.0250001e+00 1.4000000e+01 
7.5000000e-01 3.0250001e+00 1.4500000e+01 
7.5000000e-01 3.0250001e+00 1.5000000e+01 
7.5000000e-01 3.0250001e+00 1.5500000e+01 
7.5000000e-01 3.0250001e+00 1.6000000e+01 
7.5000000e-01 3.0250001e+00 1.6500000e+01 
7.5000000e-01 3.0250001e+00 1.7000000e+01 
7.5000000e-01 3.0250001e+00 1.7500000e+01 
7.5000000e-01 3.0250001e+00 1.8000000e+01 
7.5000000e-01 3.0250001e+00 1.8500000e+01 
7.5000000e-01 3.0250001e+00 1.9000000e+01 
7.5000000e-01 3.0250001e+00 1.9500000e+01 
7.5000000e-01 3.0250001e+00 2.0000000e+01 
7.5000000e-01 3.0250001e+00 2.0500000e+01 
7.5000000e-01 3.0250001e+00 2.1000000e+01 
7.5000000e-01 3.0250001e+00 2.1500000e+01 
7.5000000e-01 3.0250001e+00 2.2000000e+01 
7.5000000e-01 3.0250001e+00 2.2500000e+01 
7.5000000e-01 3.0250001e+00 2.3000000e+01 
7.5000000e-01 3.0250001e+00 2.3500000e+01 
7.5000000e-01 3.0250001e+00 2.4000000e+01 
7.5000000e-01 3.0250001e+00 2.4500000e+01 
7.5000000e-01 3.0250001e+00 2.5000000e+01 
7.5000000e-01 3.0250001e+00 2.5500000e+01 
7.5000000e-01 3.0250001e+00 2.6000000e+01 
7.5000000e-01 3.0250001e+00 2.6500000e+01 
7.5000000e-01 3.0250001e+00 2.7000000e+01 
7.5000000e-01 3.0250001e+00 2.7500000e+01 
7.5000000e-01 3.0250001e+00 2.8000000e+01 
7.5000000e-01 3.0250001e+00 2.8500000e+01 
7.5000000e-01 3.0250001e+00 2.9000000e+01 
7.5000000e-01 3.0250001e+00 2.9500000e+01 
7.5000000e-01 3.0250001e+00 3.0000000e+01 
7.5000000e-01 3.0250001e+00 3.0500000e+01 
7.5000000e-01 3.0250001e+00 3.1000000e+01 
7.5000000e-01 3.0250001e+00 3.1500000e+01 
7.5000000e-01 3.0250001e+00 3.2000000e+01 
7.5000000e-01 3.0250001e+00 3.2500000e+01 
7.5000000e-01 3.0250001e+00 3.3000000e+01 
7.5000000e-01 3.0250001e+00 3.3500000e+01 
7.5000000e-01 3.0250001e+00 3.4000000e+01 
7.5000000e-01 3.0250001e+00 3.4500000e+01 
7.5000000e-01 3.0250001e+00 3.5000000e+01 
7.5000000e-01 3.0250001e+00 3.5500000e+01 
7.5000000e-01 3.0250001e+00 3.6000000e+01 
7.5000000e-01 3.0250001e+00 3.6500000e+01 
7.5000000e-01 3.0250001e+00 3.7000000e+01 
7.5000000e-01 3.0250001e+00 3.7500000e+01 
7.5000000e-01 3.0250001e+00 3.8000000e+01 
7.5000000e-01 3.0250001e+00 3.8500000e+01 
7.5000000e-01 3.0250001e+00 3.9000000e+01 
7.5000000e-01 3.0250001e+00 3.9500000e+01 
7.5000000e-01 3.0250001e+00 4.0000000e+01 
7.5000000e-01 3.0250001e+00 4.0500000e+01 
7.5000000e-01 3.0250001e+00 4.1000000e+01 
7.5000000e-01 3.0250001e+00 4.1500000e+01 
7.5000000e-01 3.0250001e+00 4.2000000e+01 
7.5000000e-01 3.0250001e+00 4.2500000e+01 
7.5000000e-01 3.0250001e+00 4.3000000e+01 
7.5000000e-01 3.0250001e+00 4.3500000e+01 
7.5000000e-01 3.0250001e+00 4.4000000e+01 
7.5000000e-01 3.0250001e+00 4.4500000e+01 
7.5000000e-01 3.0250001e+00 4.5000000e+01 
7.5000000e-01 3.0250001e+00 4.5500000e+01 
7.5000000e-01 3.0250001e+00 4.6000000e+01 
7.5000000e-01 3.0250001e+00 4.6500000e+01 
7.5000000e-01 3.0250001e+00 4.7000000e+01 
7.5000000e-01 3.0250001e+00 4.7500000e+01 
7.5000000e-01 3.0250001e+00 4.8000000e+01 
7.5000000e-01 3.0250001e+00 4.8500000e+01 
7.5000000e-01 3.0250001e+00 4.9000000e+01 
7.5000000e-01 3.0250001e+00 4.9500000e+01 
7.5000000e-01 3.0250001e+00 5.0000000e+01 
3.0000000e+00 2.0000000e+00 3.6000000e+01 
8.0487806e-01 3.0000000e+00 3.6000000e+01 
0.0000000e+00 0.0000000e+00 2.0000000e+00 
0.0000000e+00 0.0000000e+00 4.0000000e+00 
0.0000000e+00 0.0000000e+00 6.0000000e+00 
0.0000000e+00 0.0000000e+00 8.0000000e+00 
0.0000000e+00 0.0000000e+00 1.0000000e+01 
0.0000000e+00 0.0000000e+00 1.2000000e+01 
0.0000000e+00 0.0000000e+00 1.4000000e+01 
0.0000000e+00 0.0000000e+00 1.6000000e+01 
[...]
POINT_DATA 661
FIELD FieldData 3
DISPLACEMENT 3 661  float
0.0000000e+00 0.0000000e+00 0.0000000e+00 
0.0000000e+00 0.0000000e+00 0.0000000e+00 
0.0000000e+00 0.0000000e+00 0.0000000e+00 
0.0000000e+00 0.0000000e+00 0.0000000e+00 
-2.0365583e-06 -1.5513194e-06 2.8507500e-06 
-2.1032281e-07 -2.6278331e-06 -2.6445227e-06 
0.0000000e+00 2.1982187e-05 0.0000000e+00 
0.0000000e+00 2.5430045e-05 0.0000000e+00 
2.8797083e-06 -5.4334168e-06 -1.0625813e-06 
2.8404332e-07 -6.7914748e-06 4.0085793e-06 
5.6815355e-07 5.8437377e-06 3.1323261e-06 
-3.1884065e-06 -6.9465733e-07 1.1176928e-06 
0.0000000e+00 4.5410907e-05 0.0000000e+00 
0.0000000e+00 4.6274941e-05 0.0000000e+00 
1.3057109e-05 4.8952472e-05 1.9585423e-05 
2.1015661e-05 3.2526463e-05 2.8671641e-06 
3.1094354e-05 7.3433694e-05 3.2010230e-05 
2.3135848e-05 6.8780166e-05 7.2240791e-06 
0.0000000e+00 8.2275357e-05 0.0000000e+00 
0.0000000e+00 6.4600194e-05 0.0000000e+00 
-2.8515938e-06 7.2312636e-05 5.3698122e-06 
-9.8655464e-06 6.8635469e-05 -3.8633566e-06 
-1.2979651e-05 6.1826002e-05 -1.2701217e-06 
-1.4132199e-05 5.3265299e-05 -2.8656581e-05 
-2.4230203e-06 4.6735513e-05 -3.6900001e-05 
-1.3091107e-05 4.7821010e-05 -2.5283261e-05 
-2.3853931e-06 4.4332148e-05 -7.9398924e-05 
1.8764511e-05 6.0358168e-05 -5.6192588e-05 
3.3431257e-05 9.4747491e-05 -6.0260714e-05 
1.1778902e-05 1.2765075e-04 -5.8586567e-05 
6.4161504e-05 1.4580369e-04 -2.5103820e-05 
3.3461743e-05 1.6608716e-04 -2.5326801e-05 
7.1432194e-05 2.0869094e-04 -2.1103344e-05 
8.3341780e-05 2.6580665e-04 1.7300408e-05 
5.4792712e-05 3.1730958e-04 5.6461224e-05 
5.3754662e-05 2.7436737e-04 7.2095878e-05 
-3.0289189e-05 8.8601402e-05 1.4336380e-04 
2.0446470e-05 -2.1781329e-04 1.6364716e-04 
-7.2491966e-05 -6.6029635e-04 2.1007576e-04 
-8.2462997e-05 -1.2914820e-03 2.0176551e-04 
-2.3428675e-04 -2.1924491e-03 2.5322297e-04 
-2.9757968e-04 -3.2464843e-03 2.5629767e-04 
-1.8137257e-04 -4.1564801e-03 1.9846381e-04 
-1.9076427e-04 -4.2894278e-03 1.7434089e-04 
-3.1289633e-04 -4.1470127e-03 1.0541277e-04 
-4.0254646e-04 -4.1359249e-03 4.7054818e-05 
-2.7730392e-04 -4.4231205e-03 -2.0192003e-05 
-1.2825594e-04 -4.4876100e-03 -7.9045058e-05 
-1.4378670e-04 -3.7818614e-03 -1.8261705e-04 
-2.2798318e-04 -2.6878547e-03 -2.2575798e-04 
-2.0848405e-04 -1.7014891e-03 -2.3120372e-04 
-6.5604807e-05 -9.3845424e-04 -1.7285410e-04 
-2.4397439e-05 -4.3676392e-04 -1.9425002e-04 
-1.8901724e-06 -1.1993538e-04 -1.4929954e-04 
1.3532086e-06 6.5980596e-05 -1.0674052e-04 
1.6847624e-05 1.4836079e-04 -6.3355685e-05 
3.1186417e-05 1.4274630e-04 -3.9229672e-05 
2.3668799e-05 9.2914146e-05 1.0892919e-06 
1.1390707e-05 4.2301050e-05 5.1257953e-06 
-1.5104935e-06 6.8230620e-06 -1.1896452e-05 
-2.6167301e-05 -1.1478704e-05 -1.6110396e-05 
-5.6188751e-06 -2.2347542e-05 -3.5000670e-05 
-3.2065738e-05 -3.5949055e-05 -5.0305171e-05 
-9.9392528e-06 -4.9603546e-05 -3.1296910e-05 
-1.8130728e-05 -6.0464208e-05 4.0362730e-07 
-1.8850627e-05 -6.0170045e-05 -9.6245176e-06 
5.0736376e-06 -4.9783528e-05 9.9894005e-06 
-1.3786404e-05 -1.8293553e-05 2.3724588e-05 
4.0929906e-05 2.9260624e-05 -3.3475531e-05 
-2.6232572e-06 7.5690194e-05 -1.7165585e-05 
5.5200049e-05 1.2345926e-04 -1.3231486e-05 
3.2222819e-05 1.4906547e-04 -7.2255949e-05 
2.4615325e-05 1.6416621e-04 -3.7161881e-05 
8.4575811e-05 1.9244055e-04 -2.3098895e-05 
1.3564390e-05 2.3493648e-04 -2.2205712e-05 
3.9002491e-05 2.0665301e-04 4.3342443e-05 
-2.0971307e-05 1.6501772e-05 9.7661308e-05 
-3.5214402e-05 -3.5558597e-04 1.4817425e-04 
-6.6358982e-05 -9.3105191e-04 1.9923953e-04 
-1.2110805e-04 -1.6638807e-03 1.5992005e-04 
-2.4074726e-04 -2.5634251e-03 2.2173408e-04 
-3.1186416e-04 -3.5122696e-03 1.9917665e-04 
-1.6506368e-04 -4.2558820e-03 1.3036234e-04 
-1.5123170e-04 -4.2883968e-03 1.0420343e-04 
-2.8757317e-04 -4.1300193e-03 5.6775229e-05 
-3.2395381e-04 -4.0969327e-03 7.3663082e-06 
-2.1673387e-04 -4.2709429e-03 -3.0993979e-05 
-6.9189147e-05 -4.1526854e-03 -3.7205980e-05 
-1.0920146e-04 -3.3527112e-03 -1.5093427e-04 
-2.0443638e-04 -2.2776963e-03 -1.8544070e-04 
-2.1093142e-04 -1.3720620e-03 -1.8703344e-04 
-1.3196720e-04 -6.9481466e-04 -1.5254835e-04 
-5.2053485e-05 -2.5729422e-04 -1.4881243e-04 
-3.0684641e-05 5.2041722e-09 -1.2251791e-04 
-2.4245281e-05 1.2613395e-04 -1.1213549e-04 
-1.1965674e-06 1.6371318e-04 -9.9008961e-05 
1.2927785e-05 1.5600685e-04 -7.2425384e-05 
2.6033553e-05 1.3429526e-04 -4.5356450e-05 
2.4529450e-05 1.0750612e-04 -3.3479522e-05 
0.0000000e+00 2.2593811e-05 0.0000000e+00 
0.0000000e+00 -2.1469243e-05 0.0000000e+00 
0.0000000e+00 -5.5364057e-05 0.0000000e+00 
0.0000000e+00 -7.7961704e-05 0.0000000e+00 
0.0000000e+00 -9.0981783e-05 0.0000000e+00 
0.0000000e+00 -9.2998634e-05 0.0000000e+00 
0.0000000e+00 -8.0042664e-05 0.0000000e+00 
0.0000000e+00 -5.1964296e-05 0.0000000e+00 
0.0000000e+00 -1.6108383e-05 0.0000000e+00 
0.0000000e+00 1.6727656e-05 0.0000000e+00 
0.0000000e+00 3.9650571e-05 0.0000000e+00 
0.0000000e+00 5.2337702e-05 0.0000000e+00 
0.0000000e+00 5.7071149e-05 0.0000000e+00 
0.0000000e+00 5.3918542e-05 0.0000000e+00 
0.0000000e+00 4.0959399e-05 0.0000000e+00 
0.0000000e+00 1.8610210e-05 0.0000000e+00 
0.0000000e+00 -7.8686899e-06 0.0000000e+00 
0.0000000e+00 -3.0959709e-05 0.0000000e+00 
0.0000000e+00 -4.5505712e-05 0.0000000e+00 
0.0000000e+00 -5.0255701e-05 0.0000000e+00 
0.0000000e+00 7.3774041e-05 0.0000000e+00 
0.0000000e+00 7.2445859e-05 0.0000000e+00 
0.0000000e+00 6.8262285e-05 0.0000000e+00 
0.0000000e+00 6.1467385e-05 0.0000000e+00 
0.0000000e+00 5.3321128e-05 0.0000000e+00 
0.0000000e+00 4.7740679e-05 0.0000000e+00 
0.0000000e+00 4.5900531e-05 0.0000000e+00 
0.0000000e+00 4.5620240e-05 0.0000000e+00 
0.0000000e+00 6.1519546e-05 0.0000000e+00 
0.0000000e+00 9.4400952e-05 0.0000000e+00 
0.0000000e+00 1.2638253e-04 0.0000000e+00 
0.0000000e+00 1.4516241e-04 0.0000000e+00 
0.0000000e+00 1.6684079e-04 0.0000000e+00 
0.0000000e+00 2.0973073e-04 0.0000000e+00 
0.0000000e+00 2.7026597e-04 0.0000000e+00 
0.0000000e+00 3.1588774e-04 0.0000000e+00 
0.0000000e+00 2.7041469e-04 0.0000000e+00 
0.0000000e+00 8.9664398e-05 0.0000000e+00 
0.0000000e+00 -2.1653475e-04 0.0000000e+00 
0.0000000e+00 -6.5835105e-04 0.0000000e+00 
0.0000000e+00 -1.2990941e-03 0.0000000e+00 
0.0000000e+00 -2.2021453e-03 0.0000000e+00 
0.0000000e+00 -3.2841354e-03 0.0000000e+00 
0.0000000e+00 -4.1784775e-03 0.0000000e+00 
0.0000000e+00 -4.3137656e-03 0.0000000e+00 
0.0000000e+00 -4.1599935e-03 0.0000000e+00 
0.0000000e+00 -4.1697477e-03 0.0000000e+00 
0.0000000e+00 -4.4456450e-03 0.0000000e+00 
0.0000000e+00 -4.5203841e-03 0.0000000e+00 
0.0000000e+00 -3.7986897e-03 0.0000000e+00 
0.0000000e+00 -2.7073929e-03 0.0000000e+00 
0.0000000e+00 -1.7053350e-03 0.0000000e+00 
0.0000000e+00 -9.4302889e-04 0.0000000e+00 
0.0000000e+00 -4.3568076e-04 0.0000000e+00 
0.0000000e+00 -1.1874230e-04 0.0000000e+00 
0.0000000e+00 6.6637731e-05 0.0000000e+00 
0.0000000e+00 1.4758648e-04 0.0000000e+00 
0.0000000e+00 1.4299474e-04 0.0000000e+00 
0.0000000e+00 9.3906594e-05 0.0000000e+00 
0.0000000e+00 4.2708791e-05 0.0000000e+00 
0.0000000e+00 7.6081237e-06 0.0000000e+00 
0.0000000e+00 -1.1201876e-05 0.0000000e+00 
0.0000000e+00 -2.3127817e-05 0.0000000e+00 
0.0000000e+00 -3.6021123e-05 0.0000000e+00 
0.0000000e+00 -4.9796818e-05 0.0000000e+00 
0.0000000e+00 -6.0070393e-05 0.0000000e+00 
0.0000000e+00 -6.0765924e-05 0.0000000e+00 
0.0000000e+00 -4.9243346e-05 0.0000000e+00 
0.0000000e+00 -1.7922412e-05 0.0000000e+00 
0.0000000e+00 2.8677212e-05 0.0000000e+00 
0.0000000e+00 7.7681842e-05 0.0000000e+00 
0.0000000e+00 1.2149673e-04 0.0000000e+00 
0.0000000e+00 1.4745894e-04 0.0000000e+00 
0.0000000e+00 1.6518442e-04 0.0000000e+00 
0.0000000e+00 1.9702739e-04 0.0000000e+00 
0.0000000e+00 2.3628953e-04 0.0000000e+00 
0.0000000e+00 2.0412590e-04 0.0000000e+00 
0.0000000e+00 1.6019714e-05 0.0000000e+00 
0.0000000e+00 -3.6009160e-04 0.0000000e+00 
0.0000000e+00 -9.2925405e-04 0.0000000e+00 
0.0000000e+00 -1.6690929e-03 0.0000000e+00 
0.0000000e+00 -2.5726778e-03 0.0000000e+00 
0.0000000e+00 -3.5505900e-03 0.0000000e+00 
0.0000000e+00 -4.2815534e-03 0.0000000e+00 
0.0000000e+00 -4.3178834e-03 0.0000000e+00 
0.0000000e+00 -4.1428208e-03 0.0000000e+00 
0.0000000e+00 -4.1268240e-03 0.0000000e+00 
0.0000000e+00 -4.2920401e-03 0.0000000e+00 
0.0000000e+00 -4.1884151e-03 0.0000000e+00 
0.0000000e+00 -3.3710022e-03 0.0000000e+00 
0.0000000e+00 -2.2960620e-03 0.0000000e+00 
0.0000000e+00 -1.3737713e-03 0.0000000e+00 
0.0000000e+00 -6.9763465e-04 0.0000000e+00 
0.0000000e+00 -2.5710088e-04 0.0000000e+00 
0.0000000e+00 3.7341982e-07 0.0000000e+00 
0.0000000e+00 1.2644152e-04 0.0000000e+00 
0.0000000e+00 1.6458714e-04 0.0000000e+00 
0.0000000e+00 1.5710309e-04 0.0000000e+00 
0.0000000e+00 1.3487288e-04 0.0000000e+00 
0.0000000e+00 1.0692325e-04 0.0000000e+00 
0.0000000e+00 6.8670241e-05 0.0000000e+00 
0.0000000e+00 2.2777265e-05 0.0000000e+00 
0.0000000e+00 -2.1217240e-05 0.0000000e+00 
0.0000000e+00 -5.5357421e-05 0.0000000e+00 
0.0000000e+00 -7.8131481e-05 0.0000000e+00 
0.0000000e+00 -9.1010152e-05 0.0000000e+00 
0.0000000e+00 -9.2750044e-05 0.0000000e+00 
0.0000000e+00 -7.9733989e-05 0.0000000e+00 
0.0000000e+00 -5.1896521e-05 0.0000000e+00 
0.0000000e+00 -1.6319655e-05 0.0000000e+00 
0.0000000e+00 1.6477841e-05 0.0000000e+00 
0.0000000e+00 3.9585953e-05 0.0000000e+00 
0.0000000e+00 5.2430445e-05 0.0000000e+00 
0.0000000e+00 5.7120837e-05 0.0000000e+00 
0.0000000e+00 5.3809643e-05 0.0000000e+00 
0.0000000e+00 4.0783310e-05 0.0000000e+00 
0.0000000e+00 1.8537230e-05 0.0000000e+00 
0.0000000e+00 -7.7869727e-06 0.0000000e+00 
0.0000000e+00 -3.0827381e-05 0.0000000e+00 
0.0000000e+00 -4.5439330e-05 0.0000000e+00 
0.0000000e+00 -5.0243063e-05 0.0000000e+00 
2.4553894e-05 -3.5464138e-05 4.5224506e-06 
-9.1542184e-05 -6.1472045e-04 -1.2321683e-04 
0.0000000e+00 0.0000000e+00 0.0000000e+00 
0.0000000e+00 0.0000000e+00 0.0000000e+00 
0.0000000e+00 0.0000000e+00 0.0000000e+00 
0.0000000e+00 0.0000000e+00 0.0000000e+00 
0.0000000e+00 0.0000000e+00 0.0000000e+00 
0.0000000e+00 0.0000000e+00 0.0000000e+00 
0.0000000e+00 0.0000000e+00 0.0000000e+00 
0.0000000e+00 0.0000000e+00 0.0000000e+00 
0.0000000e+00 0.0000000e+00 0.0000000e+00 
0.0000000e+00 0.0000000e+00 0.0000000e+00 
0.0000000e+00 0.0000000e+00 0.0000000e+00 
0.0000000e+00 0.0000000e+00 0.0000000e+00 
0.0000000e+00 0.0000000e+00 0.0000000e+00 
0.0000000e+00 0.0000000e+00 0.0000000e+00 
0.0000000e+00 0.0000000e+00 0.0000000e+00 
0.0000000e+00 0.0000000e+00 0.0000000e+00 
0.0000000e+00 0.0000000e+00 0.0000000e+00 
0.0000000e+00 0.0000000e+00 0.0000000e+00 
0.0000000e+00 0.0000000e+00 0.0000000e+00 
0.0000000e+00 0.0000000e+00 0.0000000e+00 
0.0000000e+00 0.0000000e+00 0.0000000e+00 
0.0000000e+00 0.0000000e+00 0.0000000e+00 
0.0000000e+00 0.0000000e+00 0.0000000e+00 
0.0000000e+00 0.0000000e+00 0.0000000e+00 
0.0000000e+00 0.0000000e+00 0.0000000e+00 
0.0000000e+00 0.0000000e+00 0.0000000e+00 
0.0000000e+00 0.0000000e+00 0.0000000e+00 
0.0000000e+00 0.0000000e+00 0.0000000e+00 
0.0000000e+00 0.0000000e+00 0.0000000e+00 
0.0000000e+00 0.0000000e+00 0.0000000e+00 
0.0000000e+00 0.0000000e+00 0.0000000e+00 
0.0000000e+00 0.0000000e+00 0.0000000e+00 
0.0000000e+00 0.0000000e+00 0.0000000e+00 
0.0000000e+00 0.0000000e+00 0.0000000e+00 
0.0000000e+00 0.0000000e+00 0.0000000e+00 
0.0000000e+00 0.0000000e+00 0.0000000e+00 
0.0000000e+00 0.0000000e+00 0.0000000e+00 
0.0000000e+00 0.0000000e+00 0.0000000e+00 
0.0000000e+00 0.0000000e+00 0.0000000e+00 
0.0000000e+00 0.0000000e+00 0.0000000e+00 
0.0000000e+00 0.0000000e+00 0.0000000e+00 
0.0000000e+00 0.0000000e+00 0.0000000e+00 
-3.7507407e-06 1.4635775e-07 4.6267598e-07 
-4.7060175e-06 -1.9184765e-06 -4.4189078e-06 
-1.4361756e-06 6.8131664e-07 -9.0209696e-06 
9.1624415e-06 -4.9485072e-07 -9.3433628e-06 
3.0456660e-05 -6.6234038e-06 -1.2811227e-05 
5.3197047e-05 -9.0704380e-06 -3.1384375e-06 
4.8577975e-05 -5.1339975e-06 1.0862326e-05 
2.1297770e-05 -2.4814460e-06 9.3712442e-06 
7.0948545e-06 -1.4112954e-06 4.9484138e-06 
3.7659529e-06 -1.6914159e-06 2.7182832e-06 
-2.3841455e-06 -3.4498287e-06 4.3106243e-06 
-5.9092267e-06 -7.4603463e-07 4.2732472e-07 
-5.2872601e-06 6.0574180e-06 -1.8776262e-06 
6.8138520e-06 -1.9856091e-07 -9.0004960e-06 
3.4239743e-05 -1.0888413e-05 -1.1248563e-05 
5.5304543e-05 -1.0699006e-05 1.1710479e-06 
5.5127952e-05 -1.0510031e-05 1.4599233e-05 
2.1391150e-05 -6.5104514e-06 1.3060554e-05 
-4.8490760e-06 4.9535347e-06 5.4030004e-08 
0.0000000e+00 1.9360089e-06 0.0000000e+00 
0.0000000e+00 4.5141267e-05 0.0000000e+00 
0.0000000e+00 6.7485664e-05 0.0000000e+00 
0.0000000e+00 2.6656269e-05 0.0000000e+00 
0.0000000e+00 -1.6788188e-04 0.0000000e+00 
0.0000000e+00 -5.8132387e-04 0.0000000e+00 
0.0000000e+00 -6.0779753e-04 0.0000000e+00 
0.0000000e+00 -1.8561797e-04 0.0000000e+00 
0.0000000e+00 3.0418976e-05 0.0000000e+00 
0.0000000e+00 -4.4371036e-06 0.0000000e+00 
0.0000000e+00 -1.0054880e-05 0.0000000e+00 
0.0000000e+00 6.2693057e-06 0.0000000e+00 
0.0000000e+00 2.4669282e-05 0.0000000e+00 
0.0000000e+00 2.3408509e-05 0.0000000e+00 
0.0000000e+00 -2.1038923e-04 0.0000000e+00 
0.0000000e+00 -5.9145142e-04 0.0000000e+00 
0.0000000e+00 -5.3380331e-04 0.0000000e+00 
0.0000000e+00 -1.4258931e-04 0.0000000e+00 
0.0000000e+00 3.1433327e-05 0.0000000e+00 
-2.7161416e-06 1.7117808e-06 -1.8521716e-07 
-1.5781621e-06 9.1029060e-06 3.1123250e-06 
-3.3938652e-06 -1.7824059e-06 1.2682317e-06 
-7.0913197e-06 1.4745751e-05 -9.9137596e-06 
-1.9728229e-06 3.3908370e-06 -1.3015315e-07 
-6.9825178e-06 1.5689702e-06 -5.0223221e-06 
1.2063022e-06 -1.6438423e-06 -1.2115326e-05 
2.0262307e-05 -4.4467292e-06 -1.3008614e-05 
3.1667936e-05 -4.9858036e-06 -8.3106721e-07 
3.1706841e-05 -8.5393694e-06 1.9923230e-06 
1.4521652e-05 -2.4830791e-07 1.0503110e-05 
6.2298564e-06 2.4376980e-06 -6.4246939e-07 
1.0668271e-05 3.3629068e-08 1.6660360e-06 
-6.7875158e-07 -2.2424040e-06 8.5048969e-06 
-4.7319477e-06 -8.4826052e-06 6.1042620e-06 
-2.4523463e-06 -3.7264813e-06 -4.7580861e-06 
5.6993906e-07 5.4395059e-06 -1.0175106e-05 
2.3502160e-05 2.1048977e-06 -7.4431614e-06 
3.2443852e-05 -8.3597761e-06 3.7238090e-06 
3.5060337e-05 -1.1162037e-05 2.7966216e-06 
3.0984909e-05 -7.3399297e-06 1.5415948e-05 
1.0867769e-05 -3.0483108e-07 1.8757305e-06 
-4.7035633e-06 4.1533517e-06 -1.6662913e-06 
-3.3585018e-06 1.8668257e-05 8.6188629e-06 
0.0000000e+00 3.4861190e-05 0.0000000e+00 
0.0000000e+00 1.0575966e-05 0.0000000e+00 
0.0000000e+00 1.2762377e-04 0.0000000e+00 
0.0000000e+00 1.5432826e-04 0.0000000e+00 
0.0000000e+00 -4.2628698e-04 0.0000000e+00 
0.0000000e+00 -1.3052758e-03 0.0000000e+00 
0.0000000e+00 -1.3096689e-03 0.0000000e+00 
0.0000000e+00 -3.4213948e-04 0.0000000e+00 
0.0000000e+00 6.6538043e-05 0.0000000e+00 
0.0000000e+00 -5.1050893e-06 0.0000000e+00 
0.0000000e+00 -4.9782579e-05 0.0000000e+00 
0.0000000e+00 -3.3732173e-05 0.0000000e+00 
0.0000000e+00 1.6290841e-04 0.0000000e+00 
0.0000000e+00 7.1487986e-05 0.0000000e+00 
0.0000000e+00 -5.4651994e-04 0.0000000e+00 
0.0000000e+00 -1.2804895e-03 0.0000000e+00 
0.0000000e+00 -1.1440903e-03 0.0000000e+00 
0.0000000e+00 -2.5714896e-04 0.0000000e+00 
0.0000000e+00 7.5033029e-05 0.0000000e+00 
-1.9371591e-06 3.0357207e-05 -1.8568015e-05 
-8.3858031e-06 2.3015482e-05 -6.5731792e-06 
1.7252742e-05 3.1291791e-05 -8.6732260e-05 
8.2352672e-05 1.1525454e-04 -3.9440765e-05 
6.5269211e-05 1.7766519e-04 1.2479292e-04 
-2.4417040e-04 -3.7607556e-04 4.0763919e-04 
-7.2619243e-04 -1.4297839e-03 2.2419836e-04 
-6.8965531e-04 -1.6089831e-03 -1.5756523e-04 
-1.5399470e-04 -2.9924000e-04 -3.2565635e-04 
3.1910917e-05 7.5461656e-05 -7.8792145e-05 
8.3427096e-07 6.1629321e-06 1.1209775e-05 
-2.8286733e-05 -4.5467274e-05 -1.9500285e-05 
-4.2720108e-06 -2.4714742e-05 -4.8403986e-06 
7.1116840e-05 8.5951993e-05 -7.9451267e-05 
3.7468162e-05 1.3734995e-04 8.6786247e-05 
-2.9099567e-04 -4.8039167e-04 3.7697656e-04 
-6.8188237e-04 -1.3963782e-03 1.1139276e-04 
-6.1626395e-04 -1.4245184e-03 -1.2734946e-04 
-1.2885558e-04 -2.5608801e-04 -2.1620764e-04 
1.0129977e-05 8.6559419e-05 -1.2408814e-04 
0.0000000e+00 2.9530163e-06 0.0000000e+00 
0.0000000e+00 -1.6019529e-05 0.0000000e+00 
0.0000000e+00 2.2431693e-04 0.0000000e+00 
0.0000000e+00 2.7361783e-04 0.0000000e+00 
0.0000000e+00 -8.0105878e-04 0.0000000e+00 
0.0000000e+00 -2.5083872e-03 0.0000000e+00 
0.0000000e+00 -2.4717031e-03 0.0000000e+00 
0.0000000e+00 -5.7709560e-04 0.0000000e+00 
0.0000000e+00 1.4947981e-04 0.0000000e+00 
0.0000000e+00 -2.2897964e-05 0.0000000e+00 
0.0000000e+00 -7.6359582e-05 0.0000000e+00 
0.0000000e+00 2.4065424e-05 0.0000000e+00 
0.0000000e+00 2.2265484e-04 0.0000000e+00 
0.0000000e+00 8.4920321e-05 0.0000000e+00 
0.0000000e+00 -1.0560956e-03 0.0000000e+00 
0.0000000e+00 -2.5078752e-03 0.0000000e+00 
0.0000000e+00 -2.1837263e-03 0.0000000e+00 
0.0000000e+00 -4.0167148e-04 0.0000000e+00 
0.0000000e+00 1.4198583e-04 0.0000000e+00 
-5.8537053e-06 -3.6396834e-06 -3.1148684e-06 
-2.7617195e-06 1.0981490e-05 -1.6573038e-05 
9.1662287e-06 3.6649224e-05 -4.0276691e-06 
3.0456049e-05 5.7230041e-05 2.8192459e-05 
5.4544566e-05 -4.4726261e-05 2.3107381e-05 
4.6208577e-05 -1.2415533e-04 4.4154440e-06 
3.7737387e-05 -1.3784948e-04 1.4878450e-06 
3.3961234e-05 -6.5806962e-05 -8.4206449e-06 
6.7539067e-06 1.7870785e-05 -1.9128127e-05 
-1.8854031e-07 -4.3703876e-06 -8.0478094e-06 
-1.5433314e-05 -1.1906719e-05 -3.0713095e-06 
-7.7357572e-06 -1.6859040e-07 -7.4106565e-06 
8.9094601e-06 1.7405140e-05 -5.7092179e-06 
1.4161092e-05 4.6670331e-05 1.1197460e-05 
5.6486471e-05 -4.9231214e-05 1.2206118e-05 
6.6521425e-05 -1.1107434e-04 6.4750420e-06 
5.1471889e-05 -1.0931845e-04 2.1298205e-05 
-6.5985482e-06 1.2799459e-05 -2.0425123e-05 
-2.3068704e-05 -2.0093760e-04 -9.9149627e-05 
0.0000000e+00 0.0000000e+00 0.0000000e+00 
0.0000000e+00 0.0000000e+00 0.0000000e+00 
0.0000000e+00 0.0000000e+00 0.0000000e+00 
0.0000000e+00 0.0000000e+00 0.0000000e+00 
0.0000000e+00 0.0000000e+00 0.0000000e+00 
0.0000000e+00 0.0000000e+00 0.0000000e+00 
0.0000000e+00 0.0000000e+00 0.0000000e+00 
0.0000000e+00 0.0000000e+00 0.0000000e+00 
0.0000000e+00 0.0000000e+00 0.0000000e+00 
0.0000000e+00 0.0000000e+00 0.0000000e+00 
0.0000000e+00 0.0000000e+00 0.0000000e+00 
0.0000000e+00 0.0000000e+00 0.0000000e+00 
0.0000000e+00 0.0000000e+00 0.0000000e+00 
0.0000000e+00 0.0000000e+00 0.0000000e+00 
0.0000000e+00 0.0000000e+00 0.0000000e+00 
0.0000000e+00 0.0000000e+00 0.0000000e+00 
0.0000000e+00 0.0000000e+00 0.0000000e+00 
0.0000000e+00 0.0000000e+00 0.0000000e+00 
0.0000000e+00 0.0000000e+00 0.0000000e+00 
0.0000000e+00 0.0000000e+00 0.0000000e+00 
0.0000000e+00 0.0000000e+00 0.0000000e+00 
0.0000000e+00 0.0000000e+00 0.0000000e+00 
0.0000000e+00 0.0000000e+00 0.0000000e+00 
0.0000000e+00 0.0000000e+00 0.0000000e+00 
0.0000000e+00 0.0000000e+00 0.0000000e+00 
0.0000000e+00 0.0000000e+00 0.0000000e+00 
0.0000000e+00 0.0000000e+00 0.0000000e+00 
0.0000000e+00 0.0000000e+00 0.0000000e+00 
0.0000000e+00 0.0000000e+00 0.0000000e+00 
0.0000000e+00 0.0000000e+00 0.0000000e+00 
0.0000000e+00 0.0000000e+00 0.0000000e+00 
0.0000000e+00 0.0000000e+00 0.0000000e+00 
0.0000000e+00 0.0000000e+00 0.0000000e+00 
0.0000000e+00 0.0000000e+00 0.0000000e+00 
0.0000000e+00 0.0000000e+00 0.0000000e+00 
0.0000000e+00 0.0000000e+00 0.0000000e+00 
0.0000000e+00 0.0000000e+00 0.0000000e+00 
0.0000000e+00 0.0000000e+00 0.0000000e+00 
0.0000000e+00 0.0000000e+00 0.0000000e+00 
0.0000000e+00 0.0000000e+00 0.0000000e+00 
0.0000000e+00 0.0000000e+00 0.0000000e+00 
0.0000000e+00 0.0000000e+00 0.0000000e+00 
-5.8031060e-06 -1.5507310e-07 -3.6332509e-08 
2.7792934e-05 -8.7811559e-06 3.7190928e-06 
6.2939184e-06 -3.3870349e-06 3.4921995e-06 
-2.6605283e-06 -1.1879478e-06 6.1299932e-07 
-3.8848116e-06 3.1598261e-06 1.1548426e-06 
-6.4603722e-07 1.7316989e-06 -2.1045526e-06 
8.4550102e-06 -8.2358356e-06 -7.3222373e-06 
2.7754699e-05 -1.0438466e-05 -2.5888130e-06 
2.8633654e-05 -1.1700858e-05 4.2404627e-06 