# vtk DataFile Version 4.0
vtk output
ASCII
DATASET UNSTRUCTURED_GRID
POINTS 661 float
0.0000000e+00 0.0000000e+00 0.0000000e+00 
0.0000000e+00 0.0000000e+00 4.0000000e+01 
5.0000000e+00 0.0000000e+00 0.0000000e+00 
5.0000000e+00 0.0000000e+00 4.0000000e+01 
5.0000000e+00 1.0000000e+00 0.0000000e+00 
5.0000000e+00 1.0000000e+00 4.0000000e+01 
0.0000000e+00 1.0000000e+00 0.0000000e+00 
0.0000000e+00 1.0000000e+00 4.0000000e+01 
5.0000000e+00 2.0000000e+00 0.0000000e+00 
5.0000000e+00 2.0000000e+00 4.0000000e+01 
3.0000000e+00 2.0000000e+00 0.0000000e+00 
3.0000000e+00 2.0000000e+00 4.0000000e+01 
0.0000000e+00 2.0000000e+00 0.0000000e+00 
0.0000000e+00 2.0000000e+00 4.0000000e+01 
1.5000000e+00 3.0000000e+00 0.0000000e+00 
1.5000000e+00 3.0000000e+00 4.0000000e+01 
7.5000000e-01 3.0000000e+00 0.0000000e+00 
7.5000000e-01 3.0000000e+00 4.0000000e+01 
0.0000000e+00 3.0000000e+00 0.0000000e+00 
0.0000000e+00 3.0000000e+00 4.0000000e+01 
7.5000000e-01 3.0000000e+00 5.0000000e-01 
7.5000000e-01 3.0000000e+00 1.0000000e+00 
7.5000000e-01 3.0000000e+00 1.5000000e+00 
7.5000000e-01 3.0000000e+00 2.0000000e+00 
7.5000000e-01 3.0000000e+00 2.5000000e+00 
7.5000000e-01 3.0000000e+00 3.0000000e+00 
7.5000000e-01 3.0000000e+00 3.5000000e+00 
7.5000000e-01 3.0000000e+00 4.0000000e+00 
7.5000000e-01 3.0000000e+00 4.5000000e+00 
7.5000000e-01 3.0000000e+00 5.0000000e+00 
7.5000000e-01 3.0000000e+00 5.5000000e+00 
7.5000000e-01 3.0000000e+00 6.0000000e+00 
7.5000000e-01 3.0000000e+00 6.5000000e+00 
7.5000000e-01 3.0000000e+00 7.0000000e+00 
7.5000000e-01 3.0000000e+00 7.5000000e+00 
7.5000000e-01 3.0000000e+00 8.0000000e+00 
7.5000000e-01 3.0000000e+00 8.5000000e+00 
7.5000000e-01 3.0000000e+00 9.0000000e+00 
7.5000000e-01 3.0000000e+00 9.5000000e+00 
7.5000000e-01 3.0000000e+00 1.0000000e+01 
7.5000000e-01 3.0000000e+00 1.0500000e+01 
7.5000000e-01 3.0000000e+00 1.1000000e+01 
7.5000000e-01 3.0000000e+00 1.1500000e+01 
7.5000000e-01 3.0000000e+00 1.2000000e+01 
7.5000000e-01 3.0000000e+00 1.2500000e+01 
7.5000000e-01 3.0000000e+00 1.3000000e+01 
7.5000000e-01 3.0000000e+00 1.3500000e+01 
7.5000000e-01 3.0000000e+00 1.4000000e+01 
7.5000000e-01 3.0000000e+00 1.4500000e+01 
7.5000000e-01 3.0000000e+00 1.5000000e+01 
7.5000000e-01 3.0000000e+00 1.5500000e+01 
7.5000000e-01 3.0000000e+00 1.6000000e+01 
7.5000000e-01 3.0000000e+00 1.6500000e+01 
7.5000000e-01 3.0000000e+00 1.7000000e+01 
7.5000000e-01 3.0000000e+00 1.7500000e+01 
7.5000000e-01 3.0000000e+00 1.8000000e+01 
7.5000000e-01 3.0000000e+00 1.8500000e+01 
7.5000000e-01 3.0000000e+00 1.9000000e+01 
7.5000000e-01 3.0000000e+00 1.9500000e+01 
7.5000000e-01 3.0000000e+00 2.0000000e+01 
7.5000000e-01 3.0000000e+00 2.0500000e+01 
7.5000000e-01 3.0000000e+00 2.1000000e+01 
7.5000000e-01 3.0000000e+00 2.1500000e+01 
7.5000000e-01 3.0000000e+00 2.2000000e+01 
7.5000000e-01 3.0000000e+00 2.2500000e+01 
7.5000000e-01 3.0000000e+00 2.3000000e+01 
7.5000000e-01 3.0000000e+00 2.3500000e+01 
7.5000000e-01 3.0000000e+00 2.4000000e+01 
7.5000000e-01 3.0000000e+00 2.4500000e+01 
7.5000000e-01 3.0000000e+00 2.5000000e+01 
7.5000000e-01 3.0000000e+00 2.5500000e+01 
7.5000000e-01 3.0000000e+00 2.6000000e+01 
7.5000000e-01 3.0000000e+00 2.6500000e+01 
7.5000000e-01 3.0000000e+00 2.7000000e+01 
7.5000000e-01 3.0000000e+00 2.7500000e+01 
7.5000000e-01 3.0000000e+00 2.8000000e+01 
7.5000000e-01 3.0000000e+00 2.8500000e+01 
7.5000000e-01 3.0000000e+00 2.9000000e+01 
7.5000000e-01 3.0000000e+00 2.9500000e+01 
7.5000000e-01 3.0000000e+00 3.0000000e+01 
7.5000000e-01 3.0000000e+00 3.0500000e+01 
7.5000000e-01 3.0000000e+00 3.1000000e+01 
7.5000000e-01 3.0000000e+00 3.1500000e+01 
7.5000000e-01 3.0000000e+00 3.2000000e+01 
7.5000000e-01 3.0000000e+00 3.2500000e+01 
7.5000000e-01 3.0000000e+00 3.3000000e+01 
7.5000000e-01 3.0000000e+00 3.3500000e+01 
7.5000000e-01 3.0000000e+00 3.4000000e+01 
7.5000000e-01 3.0000000e+00 3.4500000e+01 
7.5000000e-01 3.0000000e+00 3.5000000e+01 
7.5000000e-01 3.0000000e+00 3.5500000e+01 
7.5000000e-01 3.0000000e+00 3.6000000e+01 
7.5000000e-01 3.0000000e+00 3.6500000e+01 
7.5000000e-01 3.0000000e+00 3.7000000e+01 
7.5000000e-01 3.0000000e+00 3.7500000e+01 
7.5000000e-01 3.0000000e+00 3.8000000e+01 
7.5000000e-01 3.0000000e+00 3.8500000e+01 
7.5000000e-01 3.0000000e+00 3.9000000e+01 
7.5000000e-01 3.0000000e+00 3.9500000e+01 
7.5000000e-01 3.0000000e+00 4.0500000e+01 
7.5000000e-01 3.0000000e+00 4.1000000e+01 
7.5000000e-01 3.0000000e+00 4.1500000e+01 
7.5000000e-01 3.0000000e+00 4.2000000e+01 
7.5000000e-01 3.0000000e+00 4.2500000e+01 
7.5000000e-01 3.0000000e+00 4.3000000e+01 
7.5000000e-01 3.0000000e+00 4.3500000e+01 
7.5000000e-01 3.0000000e+00 4.4000000e+01 
7.5000000e-01 3.0000000e+00 4.4500000e+01 
7.5000000e-01 3.0000000e+00 4.5000000e+01 
7.5000000e-01 3.0000000e+00 4.5500000e+01 
7.5000000e-01 3.0000000e+00 4.6000000e+01 
7.5000000e-01 3.0000000e+00 4.6500000e+01 
7.5000000e-01 3.0000000e+00 4.7000000e+01 
7.5000000e-01 3.0000000e+00 4.7500000e+01 
7.5000000e-01 3.0000000e+00 4.8000000e+01 
7.5000000e-01 3.0000000e+00 4.8500000e+01 
7.5000000e-01 3.0000000e+00 4.9000000e+01 
7.5000000e-01 3.0000000e+00 4.9500000e+01 
7.5000000e-01 3.0000000e+00 5.0000000e+01 
7.5000000e-01 3.0250001e+00 0.0000000e+00 
7.5000000e-01 3.0250001e+00 5.0000000e-01 
7.5000000e-01 3.0250001e+00 1.0000000e+00 
7.5000000e-01 3.0250001e+00 1.5000000e+00 
7.5000000e-01 3.0250001e+00 2.0000000e+00 
7.5000000e-01 3.0250001e+00 2.5000000e+00 
7.5000000e-01 3.0250001e+00 3.0000000e+00 
7.5000000e-01 3.0250001e+00 3.5000000e+00 
7.5000000e-01 3.0250001e+00 4.0000000e+00 
7.5000000e-01 3.0250001e+00 4.5000000e+00 
7.5000000e-01 3.0250001e+00 5.0000000e+00 
7.5000000e-01 3.0250001e+00 5.5000000e+00 
7.5000000e-01 3.0250001e+00 6.0000000e+00 
7.5000000e-01 3.0250001e+00 6.5000000e+00 
7.5000000e-01 3.0250001e+00 7.0000000e+00 
7.5000000e-01 3.0250001e+00 7.5000000e+00 
7.5000000e-01 3.0250001e+00 8.0000000e+00 
7.5000000e-01 3.0250001e+00 8.5000000e+00 
7.5000000e-01 3.0250001e+00 9.0000000e+00 
7.5000000e-01 3.0250001e+00 9.5000000e+00 
7.5000000e-01 3.0250001e+00 1.0000000e+01 
7.5000000e-01 3.0250001e+00 1.0500000e+01 
7.5000000e-01 3.0250001e+00 1.1000000e+01 
7.5000000e-01 3.0250001e+00 1.1500000e+01 
7.5000000e-01 3.0250001e+00 1.2000000e+01 
7.5000000e-01 3.0250001e+00 1.2500000e+01 
7.5000000e-01 3.0250001e+00 1.3000000e+01 
7.5000000e-01 3.0250001e+00 1.3500000e+01 
7.5000000e-01 3.0250001e+00 1.4000000e+01 
7.5000000e-01 3.0250001e+00 1.4500000e+01 
7.5000000e-01 3.0250001e+00 1.5000000e+01 
7.5000000e-01 3.0250001e+00 1.5500000e+01 
7.5000000e-01 3.0250001e+00 1.6000000e+01 
7.5000000e-01 3.0250001e+00 1.6500000e+01 
7.5000000e-01 3.0250001e+00 1.7000000e+01 
7.5000000e-01 3.0250001e+00 1.7500000e+01 
7.5000000e-01 3.0250001e+00 1.8000000e+01 
7.5000000e-01 3.0250001e+00 1.8500000e+01 
7.5000000e-01 3.0250001e+00 1.9000000e+01 
7.5000000e-01 3.0250001e+00 1.9500000e+01 
7.5000000e-01 3.0250001e+00 2.0000000e+01 
7.5000000e-01 3.0250001e+00 2.0500000e+01 
7.5000000e-01 3.0250001e+00 2.1000000e+01 
7.5000000e-01 3.0250001e+00 2.1500000e+01 
7.5000000e-01 3.0250001e+00 2.2000000e+01 
7.5000000e-01 3.0250001e+00 2.2500000e+01 
7.5000000e-01 3.0250001e+00 2.3000000e+01 
7.5000000e-01 3.0250001e+00 2.3500000e+01 
7.5000000e-01 3.0250001e+00 2.4000000e+01 
7.5000000e-01 3.0250001e+00 2.4500000e+01 
7.5000000e-01 3.0250001e+00 2.5000000e+01 
7.5000000e-01 3.0250001e+00 2.5500000e+01 
7.5000000e-01 3.0250001e+00 2.6000000e+01 
7.5000000e-01 3.0250001e+00 2.6500000e+01 
7.5000000e-01 3.0250001e+00 2.7000000e+01 
7.5000000e-01 3.0250001e+00 2.7500000e+01 
7.5000000e-01 3.0250001e+00 2.8000000e+01 
7.5000000e-01 3.0250001e+00 2.8500000e+01 
7.5000000e-01 3.0250001e+00 2.9000000e+01 
7.5000000e-01 3.0250001e+00 2.9500000e+01 
7.5000000e-01 3.0250001e+00 3.0000000e+01 
7.5000000e-01 3.0250001e+00 3.0500000e+01 
7.5000000e-01 3.0250001e+00 3.1000000e+01 
7.5000000e-01 3.0250001e+00 3.1500000e+01 
7.5000000e-01 3.0250001e+00 3.2000000e+01 
7.5000000e-01 3.0250001e+00 3.2500000e+01 
7.5000000e-01 3.0250001e+00 3.3000000e+01 
7.5000000e-01 3.0250001e+00 3.3500000e+01 
7.5000000e-01 3.0250001e+00 3.4000000e+01 
7.5000000e-01 3.0250001e+00 3.4500000e+01 
7.5000000e-01 3.0250001e+00 3.5000000e+01 
7.5000000e-01 3.0250001e+00 3.5500000e+01 
7.5000000e-01 3.0250001e+00 3.6000000e+01 
7.5000000e-01 3.0250001e+00 3.6500000e+01 
7.5000000e-01 3.0250001e+00 3.7000000e+01 
7.5000000e-01 3.0250001e+00 3.7500000e+01 
7.5000000e-01 3.0250001e+00 3.8000000e+01 
7.5000000e-01 3.0250001e+00 3.8500000e+01 
7.5000000e-01 3.0250001e+00 3.9000000e+01 
7.5000000e-01 3.0250001e+00 3.9500000e+01 
7.5000000e-01 3.0250001e+00 4.0000000e+01 
7.5000000e-01 3.0250001e+00 4.0500000e+01 
7.5000000e-01 3.0250001e+00 4.1000000e+01 
7.5000000e-01 3.0250001e+00 4.1500000e+01 
7.5000000e-01 3.0250001e+00 4.2000000e+01 
7.5000000e-01 3.0250001e+00 4.2500000e+01 
7.5000000e-01 3.0250001e+00 4.3000000e+01 
7.5000000e-01 3.0250001e+00 4.3500000e+01 
7.5000000e-01 3.0250001e+00 4.4000000e+01 
7.5000000e-01 3.0250001e+00 4.4500000e+01 
7.5000000e-01 3.0250001e+00 4.5000000e+01 
7.5000000e-01 3.0250001e+00 4.5500000e+01 
7.5000000e-01 3.0250001e+00 4.6000000e+01 
7.5000000e-01 3.0250001e+00 4.6500000e+01 
7.5000000e-01 3.0250001e+00 4.7000000e+01 
7.5000000e-01 3.0250001e+00 4.7500000e+01 
7.5000000e-01 3.0250001e+00 4.8000000e+01 
7.5000000e-01 3.0250001e+00 4.8500000e+01 
7.5000000e-01 3.0250001e+00 4.9000000e+01 
7.5000000e-01 3.0250001e+00 4.9500000e+01 
7.5000000e-01 3.0250001e+00 5.0000000e+01 
3.0000000e+00 2.0000000e+00 3.6000000e+01 
8.0487806e-01 3.0000000e+00 3.6000000e+01 
0.0000000e+00 0.0000000e+00 2.0000000e+00 
0.0000000e+00 0.0000000e+00 4.0000000e+00 
0.0000000e+00 0.0000000e+00 6.0000000e+00 
0.0000000e+00 0.0000000e+00 8.0000000e+00 
0.0000000e+00 0.0000000e+00 1.0000000e+01 
0.0000000e+00 0.0000000e+00 1.2000000e+01 
0.0000000e+00 0.0000000e+00 1.4000000e+01 
0.0000000e+00 0.0000000e+00 1.6000000e+01 
[...]
POINT_DATA 661
FIELD FieldData 3
DISPLACEMENT 3 661  float
0.0000000e+00 0.0000000e+00 0.0000000e+00 
0.0000000e+00 0.0000000e+00 0.0000000e+00 
0.0000000e+00 0.0000000e+00 0.0000000e+00 
0.0000000e+00 0.0000000e+00 0.0000000e+00 
6.3227885e-06 -4.9585660e-06 8.4094290e-07 
6.1156832e-05 -1.7344813e-05 1.8555390e-07 
0.0000000e+00 -1.6056276e-05 0.0000000e+00 
0.0000000e+00 -1.2212824e-03 0.0000000e+00 
7.9007796e-06 -6.6599714e-06 -4.0682944e-06 
2.6304391e-05 1.7772352e-05 1.1133932e-05 
2.0158802e-06 -1.3218340e-05 -1.5111886e-05 
3.1316024e-05 -2.9750739e-04 1.9795245e-04 
0.0000000e+00 -2.8226947e-05 0.0000000e+00 
0.0000000e+00 -3.0593940e-03 0.0000000e+00 
-1.4337540e-05 -3.3283130e-05 -6.2001163e-05 
-1.1194709e-03 -3.3465573e-03 1.1699215e-03 
-2.1368685e-05 -1.0502334e-06 -5.0591872e-05 
-6.7521376e-04 -1.4777790e-02 2.6182691e-03 
0.0000000e+00 -4.2777414e-05 0.0000000e+00 
0.0000000e+00 -6.3633239e-03 0.0000000e+00 
-1.3284067e-05 4.2380475e-06 -4.6265595e-05 
-7.8952371e-06 1.6626132e-05 -3.8932696e-05 
-4.2136539e-06 3.0311716e-05 -2.9005121e-05 
2.3984735e-06 4.1138843e-05 -1.3676869e-05 
6.7980613e-06 4.5928002e-05 2.6596183e-06 
1.2393717e-05 4.2283340e-05 1.7167053e-05 
1.0512869e-05 3.0551539e-05 2.7331505e-05 
8.9236637e-06 1.2482436e-05 3.1750129e-05 
7.6346114e-06 -9.7968668e-06 3.1228567e-05 
9.8436985e-06 -3.3720342e-05 2.9706165e-05 
1.3865481e-05 -5.6677720e-05 3.2750177e-05 
1.3100997e-05 -7.5767195e-05 3.7105467e-05 
3.2093103e-06 -8.8491091e-05 3.8095946e-05 
-7.9321744e-06 -9.3767296e-05 3.1927262e-05 
-1.2979061e-05 -9.1058078e-05 2.3342924e-05 
-1.5316235e-05 -8.1544007e-05 8.4259364e-06 
-1.8599863e-05 -6.5444954e-05 -1.1010610e-05 
-2.0819130e-05 -4.6174460e-05 -2.3587543e-05 
-2.0689271e-05 -2.5906311e-05 -2.7720882e-05 
-1.9626128e-05 -5.8910932e-06 -2.4970057e-05 
-1.3392468e-05 1.2554920e-05 -1.9471054e-05 
-8.9778596e-06 2.8995726e-05 -1.4721031e-05 
-2.7742767e-06 4.3109550e-05 -1.9355490e-05 
7.4007285e-06 5.5305863e-05 -2.4215200e-05 
1.7882541e-05 6.5781365e-05 -2.1225973e-05 
2.6733465e-05 7.5312098e-05 -1.3731674e-05 
3.2599604e-05 8.4971296e-05 -7.2814050e-06 
3.7927541e-05 9.5636526e-05 1.6817153e-06 
4.1858999e-05 1.0701906e-04 6.7639053e-06 
4.2684664e-05 1.1369603e-04 1.4807258e-05 
3.5921366e-05 1.0480095e-04 3.2294054e-05 
2.0864432e-05 5.2586027e-05 5.1768260e-05 
-2.2901182e-05 -8.4013584e-05 8.8863337e-05 
-3.8829123e-05 -3.4764325e-04 1.2281376e-04 
-6.6418004e-05 -8.0315513e-04 1.6857083e-04 
-1.2668976e-04 -1.4959205e-03 1.1011116e-04 
-2.8242095e-04 -2.4462708e-03 1.8696993e-04 
-2.9432884e-04 -3.4730684e-03 1.6284306e-04 
-1.8905113e-04 -4.2645223e-03 9.7018856e-05 
-1.6055231e-04 -4.2553451e-03 1.0712466e-04 
-2.8986624e-04 -4.0275613e-03 3.6350619e-05 
-3.5362074e-04 -3.9598295e-03 1.8860917e-05 
-2.3917621e-04 -4.1672532e-03 -1.7594430e-05 
-8.0166028e-05 -4.1553606e-03 -6.1365645e-05 
-1.0040010e-04 -3.4419363e-03 -1.5550469e-04 
-1.8749569e-04 -2.4022842e-03 -1.8005515e-04 
-1.7797455e-04 -1.4957128e-03 -1.7448141e-04 
-5.1329516e-05 -8.0511300e-04 -1.1390122e-04 
-1.2967211e-05 -3.6579501e-04 -1.4160390e-04 
1.9744318e-06 -1.1473636e-04 -1.0345449e-04 
3.2295109e-06 7.8337071e-06 -7.4005162e-05 
1.2156374e-05 5.2633350e-05 -4.4989178e-05 
7.6780034e-06 5.2662523e-05 -2.2225055e-05 
1.8329323e-06 3.3379816e-05 -7.8910261e-06 
-7.7380892e-06 1.1250104e-05 -3.9954930e-06 
-1.7530803e-05 -7.2287548e-06 -7.6508313e-06 
-1.8560149e-05 -1.7735862e-05 -1.0815481e-05 
-1.7118346e-05 -2.2040302e-05 -1.3474933e-05 
-1.8630572e-05 -2.2377350e-05 -1.4255000e-05 
-2.0254151e-05 -1.9566325e-05 -1.3727573e-05 
-1.6081161e-05 -1.3809230e-05 -1.6983900e-05 
-1.2702108e-05 -5.5680930e-06 -2.2019025e-05 
-7.7633882e-07 5.7506400e-06 -3.4574765e-05 
1.3909947e-05 2.1423988e-05 -4.3125860e-05 
3.0452218e-05 4.3379736e-05 -3.3938613e-05 
4.1784326e-05 7.2190836e-05 -1.9114670e-05 
4.8694284e-05 1.0905701e-04 -6.4275555e-06 
5.7922825e-05 1.5329185e-04 1.3432386e-05 
6.3697335e-05 2.0359318e-04 3.3080672e-05 
6.5040964e-05 2.5534356e-04 6.0717743e-05 
3.7109770e-05 2.9825047e-04 1.1578144e-04 
1.6130762e-05 3.0193670e-04 1.7414035e-04 
-3.7166716e-05 2.0676428e-04 2.3182543e-04 
-5.4541310e-05 -7.6184573e-05 2.9716757e-04 
-1.4044243e-04 -6.8556203e-04 4.3788264e-04 
-3.1285075e-04 -1.8387707e-03 7.1967044e-04 
-4.2192865e-04 -3.7140460e-03 9.7866566e-04 
-3.4860865e-04 -6.4269914e-03 1.0215404e-03 
-1.5207105e-04 -9.9699041e-03 3.1376182e-04 
0.0000000e+00 -2.0369207e-02 0.0000000e+00 
0.0000000e+00 -2.5855271e-02 0.0000000e+00 
0.0000000e+00 -3.0251237e-02 0.0000000e+00 
0.0000000e+00 -3.2532506e-02 0.0000000e+00 
0.0000000e+00 -3.2128565e-02 0.0000000e+00 
0.0000000e+00 -2.9558292e-02 0.0000000e+00 
0.0000000e+00 -2.5483588e-02 0.0000000e+00 
0.0000000e+00 -2.0524755e-02 0.0000000e+00 
0.0000000e+00 -1.5233177e-02 0.0000000e+00 
0.0000000e+00 -1.0069330e-02 0.0000000e+00 
0.0000000e+00 -5.3887255e-03 0.0000000e+00 
0.0000000e+00 -1.4342767e-03 0.0000000e+00 
0.0000000e+00 1.6659439e-03 0.0000000e+00 
0.0000000e+00 3.8934276e-03 0.0000000e+00 
0.0000000e+00 5.3238478e-03 0.0000000e+00 
0.0000000e+00 6.1022304e-03 0.0000000e+00 
0.0000000e+00 6.4128707e-03 0.0000000e+00 
0.0000000e+00 6.4486349e-03 0.0000000e+00 
0.0000000e+00 6.3823466e-03 0.0000000e+00 
0.0000000e+00 6.3419305e-03 0.0000000e+00 
0.0000000e+00 -8.0554094e-07 0.0000000e+00 
0.0000000e+00 4.3375626e-06 0.0000000e+00 
0.0000000e+00 1.6536000e-05 0.0000000e+00 
0.0000000e+00 3.0264000e-05 0.0000000e+00 
0.0000000e+00 4.1108084e-05 0.0000000e+00 
0.0000000e+00 4.5794292e-05 0.0000000e+00 
0.0000000e+00 4.2226424e-05 0.0000000e+00 
0.0000000e+00 3.0550254e-05 0.0000000e+00 
0.0000000e+00 1.2465906e-05 0.0000000e+00 
0.0000000e+00 -9.8031305e-06 0.0000000e+00 
0.0000000e+00 -3.3745571e-05 0.0000000e+00 
0.0000000e+00 -5.6671681e-05 0.0000000e+00 
0.0000000e+00 -7.5719588e-05 0.0000000e+00 
0.0000000e+00 -8.8480920e-05 0.0000000e+00 
0.0000000e+00 -9.3710907e-05 0.0000000e+00 
0.0000000e+00 -9.1110735e-05 0.0000000e+00 
0.0000000e+00 -8.1382284e-05 0.0000000e+00 
0.0000000e+00 -6.5509390e-05 0.0000000e+00 
0.0000000e+00 -4.6248068e-05 0.0000000e+00 
0.0000000e+00 -2.5913112e-05 0.0000000e+00 
0.0000000e+00 -5.9339309e-06 0.0000000e+00 
0.0000000e+00 1.2546599e-05 0.0000000e+00 
0.0000000e+00 2.8972012e-05 0.0000000e+00 
0.0000000e+00 4.3130694e-05 0.0000000e+00 
0.0000000e+00 5.5288769e-05 0.0000000e+00 
0.0000000e+00 6.5783985e-05 0.0000000e+00 
0.0000000e+00 7.5341020e-05 0.0000000e+00 
0.0000000e+00 8.5034691e-05 0.0000000e+00 
0.0000000e+00 9.5867159e-05 0.0000000e+00 
0.0000000e+00 1.0731971e-04 0.0000000e+00 
0.0000000e+00 1.1464160e-04 0.0000000e+00 
0.0000000e+00 1.0552800e-04 0.0000000e+00 
0.0000000e+00 5.2777978e-05 0.0000000e+00 
0.0000000e+00 -8.2817198e-05 0.0000000e+00 
0.0000000e+00 -3.4831243e-04 0.0000000e+00 
0.0000000e+00 -8.0473855e-04 0.0000000e+00 
0.0000000e+00 -1.5056089e-03 0.0000000e+00 
0.0000000e+00 -2.4541861e-03 0.0000000e+00 
0.0000000e+00 -3.5062188e-03 0.0000000e+00 
0.0000000e+00 -4.2894077e-03 0.0000000e+00 
0.0000000e+00 -4.2868624e-03 0.0000000e+00 
0.0000000e+00 -4.0417560e-03 0.0000000e+00 
0.0000000e+00 -3.9904960e-03 0.0000000e+00 
0.0000000e+00 -4.1869176e-03 0.0000000e+00 
0.0000000e+00 -4.1893972e-03 0.0000000e+00 
0.0000000e+00 -3.4597958e-03 0.0000000e+00 
0.0000000e+00 -2.4205530e-03 0.0000000e+00 
0.0000000e+00 -1.4979326e-03 0.0000000e+00 
0.0000000e+00 -8.0929801e-04 0.0000000e+00 
0.0000000e+00 -3.6560028e-04 0.0000000e+00 
0.0000000e+00 -1.1394607e-04 0.0000000e+00 
0.0000000e+00 8.8121096e-06 0.0000000e+00 
0.0000000e+00 5.3035412e-05 0.0000000e+00 
0.0000000e+00 5.3121421e-05 0.0000000e+00 
0.0000000e+00 3.3895434e-05 0.0000000e+00 
0.0000000e+00 1.1367270e-05 0.0000000e+00 
0.0000000e+00 -6.9354401e-06 0.0000000e+00 
0.0000000e+00 -1.7721808e-05 0.0000000e+00 
0.0000000e+00 -2.2144473e-05 0.0000000e+00 
0.0000000e+00 -2.2416205e-05 0.0000000e+00 
0.0000000e+00 -1.9546778e-05 0.0000000e+00 
0.0000000e+00 -1.3861735e-05 0.0000000e+00 
0.0000000e+00 -5.6014233e-06 0.0000000e+00 
0.0000000e+00 5.7206571e-06 0.0000000e+00 
0.0000000e+00 2.1480178e-05 0.0000000e+00 
0.0000000e+00 4.3359716e-05 0.0000000e+00 
0.0000000e+00 7.2298921e-05 0.0000000e+00 
0.0000000e+00 1.0911331e-04 0.0000000e+00 
0.0000000e+00 1.5344586e-04 0.0000000e+00 
0.0000000e+00 2.0388224e-04 0.0000000e+00 
0.0000000e+00 2.5640766e-04 0.0000000e+00 
0.0000000e+00 2.9977915e-04 0.0000000e+00 
0.0000000e+00 3.0346811e-04 0.0000000e+00 
0.0000000e+00 2.0976410e-04 0.0000000e+00 
0.0000000e+00 -7.1985422e-05 0.0000000e+00 
0.0000000e+00 -6.8805454e-04 0.0000000e+00 
0.0000000e+00 -1.8423805e-03 0.0000000e+00 
0.0000000e+00 -3.7154199e-03 0.0000000e+00 
0.0000000e+00 -6.4372737e-03 0.0000000e+00 
0.0000000e+00 -1.0091395e-02 0.0000000e+00 
0.0000000e+00 -1.4814313e-02 0.0000000e+00 
0.0000000e+00 -2.0369420e-02 0.0000000e+00 
0.0000000e+00 -2.5855564e-02 0.0000000e+00 
0.0000000e+00 -3.0251129e-02 0.0000000e+00 
0.0000000e+00 -3.2532021e-02 0.0000000e+00 
0.0000000e+00 -3.2129254e-02 0.0000000e+00 
0.0000000e+00 -2.9560259e-02 0.0000000e+00 
0.0000000e+00 -2.5486749e-02 0.0000000e+00 
0.0000000e+00 -2.0528818e-02 0.0000000e+00 
0.0000000e+00 -1.5237808e-02 0.0000000e+00 
0.0000000e+00 -1.0074301e-02 0.0000000e+00 
0.0000000e+00 -5.3938124e-03 0.0000000e+00 
0.0000000e+00 -1.4391178e-03 0.0000000e+00 
0.0000000e+00 1.6618241e-03 0.0000000e+00 
0.0000000e+00 3.8904389e-03 0.0000000e+00 
0.0000000e+00 5.3221881e-03 0.0000000e+00 
0.0000000e+00 6.1019049e-03 0.0000000e+00 
0.0000000e+00 6.4137969e-03 0.0000000e+00 
0.0000000e+00 6.4506754e-03 0.0000000e+00 
0.0000000e+00 6.3852156e-03 0.0000000e+00 
0.0000000e+00 6.3451189e-03 0.0000000e+00 
1.1905612e-05 3.6912923e-05 3.5406098e-05 
3.6597717e-06 2.6873895e-04 1.8271711e-04 
0.0000000e+00 0.0000000e+00 0.0000000e+00 
0.0000000e+00 0.0000000e+00 0.0000000e+00 
0.0000000e+00 0.0000000e+00 0.0000000e+00 
0.0000000e+00 0.0000000e+00 0.0000000e+00 
0.0000000e+00 0.0000000e+00 0.0000000e+00 
0.0000000e+00 0.0000000e+00 0.0000000e+00 
0.0000000e+00 0.0000000e+00 0.0000000e+00 
0.0000000e+00 0.0000000e+00 0.0000000e+00 
0.0000000e+00 0.0000000e+00 0.0000000e+00 
0.0000000e+00 0.0000000e+00 0.0000000e+00 
0.0000000e+00 0.0000000e+00 0.0000000e+00 
0.0000000e+00 0.0000000e+00 0.0000000e+00 
0.0000000e+00 0.0000000e+00 0.0000000e+00 
0.0000000e+00 0.0000000e+00 0.0000000e+00 
0.0000000e+00 0.0000000e+00 0.0000000e+00 
0.0000000e+00 0.0000000e+00 0.0000000e+00 
0.0000000e+00 0.0000000e+00 0.0000000e+00 
0.0000000e+00 0.0000000e+00 0.0000000e+00 
0.0000000e+00 0.0000000e+00 0.0000000e+00 
0.0000000e+00 0.0000000e+00 0.0000000e+00 
0.0000000e+00 0.0000000e+00 0.0000000e+00 
0.0000000e+00 0.0000000e+00 0.0000000e+00 
0.0000000e+00 0.0000000e+00 0.0000000e+00 
0.0000000e+00 0.0000000e+00 0.0000000e+00 
0.0000000e+00 0.0000000e+00 0.0000000e+00 
0.0000000e+00 0.0000000e+00 0.0000000e+00 
0.0000000e+00 0.0000000e+00 0.0000000e+00 
0.0000000e+00 0.0000000e+00 0.0000000e+00 
0.0000000e+00 0.0000000e+00 0.0000000e+00 
0.0000000e+00 0.0000000e+00 0.0000000e+00 
0.0000000e+00 0.0000000e+00 0.0000000e+00 
0.0000000e+00 0.0000000e+00 0.0000000e+00 
0.0000000e+00 0.0000000e+00 0.0000000e+00 
0.0000000e+00 0.0000000e+00 0.0000000e+00 
0.0000000e+00 0.0000000e+00 0.0000000e+00 
0.0000000e+00 0.0000000e+00 0.0000000e+00 
0.0000000e+00 0.0000000e+00 0.0000000e+00 
0.0000000e+00 0.0000000e+00 0.0000000e+00 
0.0000000e+00 0.0000000e+00 0.0000000e+00 
0.0000000e+00 0.0000000e+00 0.0000000e+00 
0.0000000e+00 0.0000000e+00 0.0000000e+00 
0.0000000e+00 0.0000000e+00 0.0000000e+00 
-9.4361621e-07 2.1557589e-06 5.1763448e-07 
-1.8404966e-06 2.8525383e-06 -1.8629278e-06 
2.2353711e-06 -5.1159742e-07 1.2169512e-06 
4.3004961e-06 -2.7077444e-06 3.9086085e-06 
-1.7832864e-06 -2.5909912e-06 6.7470842e-06 
-8.3562400e-06 6.0210499e-07 1.6423535e-06 
-4.2730612e-06 8.0825328e-07 -6.5980153e-06 
1.1200495e-05 -3.0758229e-06 -1.1552025e-05 
3.6237805e-05 -7.9536121e-06 -1.3393863e-05 
5.3794025e-05 -7.6922779e-06 -3.5572855e-06 
4.6612717e-05 -4.8587649e-06 8.0422369e-06 
2.2268856e-05 -3.0068629e-06 5.0498020e-06 
5.7057960e-06 -1.3907262e-06 3.5139208e-06 
1.3554003e-06 -6.4877923e-07 2.4349231e-06 
-2.5700892e-06 -7.8165726e-08 4.3036257e-06 
-9.4131628e-06 1.5037928e-06 3.1364425e-06 
-9.5966388e-06 -5.6213634e-07 4.6292671e-06 
8.4682079e-06 1.5738025e-06 3.3425299e-06 
3.7425110e-05 -2.8512652e-06 -5.6475237e-06 
0.0000000e+00 1.5958331e-05 0.0000000e+00 
0.0000000e+00 6.2110284e-06 0.0000000e+00 
0.0000000e+00 -2.0855890e-05 0.0000000e+00 
0.0000000e+00 -2.7629489e-05 0.0000000e+00 
0.0000000e+00 -7.1104188e-07 0.0000000e+00 
0.0000000e+00 1.6023385e-05 0.0000000e+00 
0.0000000e+00 2.9836272e-05 0.0000000e+00 
0.0000000e+00 -2.0293471e-06 0.0000000e+00 
0.0000000e+00 -2.3206815e-04 0.0000000e+00 
0.0000000e+00 -5.6609331e-04 0.0000000e+00 
0.0000000e+00 -5.0826150e-04 0.0000000e+00 
0.0000000e+00 -1.5029479e-04 0.0000000e+00 
0.0000000e+00 -4.0303112e-06 0.0000000e+00 
0.0000000e+00 -5.0439999e-06 0.0000000e+00 
0.0000000e+00 -5.5362566e-06 0.0000000e+00 
0.0000000e+00 6.4635155e-06 0.0000000e+00 
0.0000000e+00 4.5690991e-05 0.0000000e+00 
0.0000000e+00 4.6278630e-05 0.0000000e+00 
0.0000000e+00 -3.5203825e-04 0.0000000e+00 
3.0469689e-06 -6.1122664e-06 -2.7829726e-06 
1.6581688e-06 -1.4959806e-05 -7.2059452e-06 
1.0184766e-04 -1.0580807e-04 5.3851702e-05 
2.6584839e-04 -7.1135763e-04 8.4206207e-05 
1.1216928e-06 1.7710607e-06 -1.7945555e-06 
-2.0762641e-06 2.8896120e-06 -2.8720194e-07 
4.9070013e-07 -5.0442814e-08 3.8615549e-06 
1.9526515e-06 -3.1417726e-06 6.0916832e-06 
-2.1413368e-06 -4.9566770e-06 5.7738594e-06 
-6.7412107e-06 8.8631003e-07 1.0747419e-07 
-2.0513864e-06 2.1066071e-06 -9.6327049e-06 
2.2121185e-05 -3.0702818e-06 -1.3913621e-05 
3.5010198e-05 -6.3317798e-06 -7.1668696e-06 
3.7711121e-05 -6.3385514e-06 -2.5069928e-06 
2.8036662e-05 -2.2727861e-06 6.8772711e-06 
1.3186252e-05 2.5344301e-07 -6.4909506e-07 
6.9089456e-06 -1.3703221e-06 2.3146301e-06 
-9.7228741e-09 -1.9173651e-06 3.1391241e-06 
-3.8630742e-06 -1.7937688e-06 4.2653060e-06 
-1.1012978e-05 1.0518760e-06 2.9878258e-06 
-2.6811849e-06 -1.1453318e-06 2.2650713e-06 
1.7838614e-05 5.8831341e-07 7.0986689e-06 
2.1169599e-05 1.0746358e-05 2.0315385e-05 
-7.4543600e-08 -1.9091591e-05 -2.0384870e-05 
0.0000000e+00 3.1349839e-05 0.0000000e+00 
0.0000000e+00 1.2253239e-05 0.0000000e+00 
0.0000000e+00 -3.9902552e-05 0.0000000e+00 
0.0000000e+00 -5.0897612e-05 0.0000000e+00 
0.0000000e+00 3.9247578e-07 0.0000000e+00 
0.0000000e+00 2.9607583e-05 0.0000000e+00 
0.0000000e+00 5.4339591e-05 0.0000000e+00 
0.0000000e+00 8.3506338e-06 0.0000000e+00 
0.0000000e+00 -4.8447831e-04 0.0000000e+00 
0.0000000e+00 -1.2518904e-03 0.0000000e+00 
0.0000000e+00 -1.1313692e-03 0.0000000e+00 
0.0000000e+00 -2.8255195e-04 0.0000000e+00 
0.0000000e+00 6.6721282e-06 0.0000000e+00 
0.0000000e+00 -9.9399458e-06 0.0000000e+00 
0.0000000e+00 -9.8432847e-06 0.0000000e+00 
0.0000000e+00 1.1304787e-05 0.0000000e+00 
0.0000000e+00 8.8408677e-05 0.0000000e+00 
0.0000000e+00 1.0835822e-04 0.0000000e+00 
0.0000000e+00 -5.6560023e-04 0.0000000e+00 
2.8272459e-04 -1.4810682e-03 2.5368854e-04 
-1.3564585e-06 3.9565846e-05 -2.0562276e-05 
1.0066853e-05 4.9740092e-06 4.5211251e-05 
1.2877190e-05 -6.1504623e-05 4.7892565e-05 
-2.2895119e-05 -5.9427392e-05 4.5184033e-06 
-2.4552472e-05 -6.5701611e-06 -3.0691768e-05 
4.9443975e-06 4.2648800e-05 -4.7190824e-05 
5.9679489e-05 4.4701384e-05 1.8183972e-06 
4.1959785e-05 6.8880647e-05 8.0958482e-05 
-2.9098542e-04 -4.5966962e-04 3.1039724e-04 
-7.2739873e-04 -1.3961003e-03 9.9921956e-05 
-6.2586321e-04 -1.4128367e-03 -1.5868522e-04 
-1.2065021e-04 -2.4284824e-04 -2.4011299e-04 
2.7823951e-05 2.0343348e-05 -4.6777677e-05 
-1.8833833e-05 -1.7854647e-05 -8.5451429e-06 
-2.6588563e-05 -1.5846610e-05 -1.6149146e-05 
1.0319986e-05 9.0218700e-06 -6.2980645e-05 
8.4669446e-05 7.6243385e-05 -4.2341967e-06 
4.8163893e-05 1.4025801e-04 2.0977377e-04 
-4.5356958e-04 -5.1538926e-04 7.9395802e-04 
0.0000000e+00 4.4713921e-05 0.0000000e+00 
0.0000000e+00 1.7667211e-05 0.0000000e+00 
0.0000000e+00 -6.8897440e-05 0.0000000e+00 
0.0000000e+00 -7.1109673e-05 0.0000000e+00 
0.0000000e+00 3.2165804e-06 0.0000000e+00 
0.0000000e+00 4.1979740e-05 0.0000000e+00 
0.0000000e+00 7.5221491e-05 0.0000000e+00 
0.0000000e+00 5.4428845e-05 0.0000000e+00 
0.0000000e+00 -9.0223510e-04 0.0000000e+00 
0.0000000e+00 -2.4212752e-03 0.0000000e+00 
0.0000000e+00 -2.1566602e-03 0.0000000e+00 
0.0000000e+00 -4.8319707e-04 0.0000000e+00 
0.0000000e+00 4.0752278e-05 0.0000000e+00 
0.0000000e+00 -1.1622564e-05 0.0000000e+00 
0.0000000e+00 -1.0811548e-05 0.0000000e+00 
0.0000000e+00 1.0629509e-05 0.0000000e+00 
0.0000000e+00 1.0988016e-04 0.0000000e+00 
0.0000000e+00 2.5662265e-04 0.0000000e+00 
0.0000000e+00 -1.0835442e-03 0.0000000e+00 
-3.5060227e-06 1.1201067e-05 -8.2617507e-06 
-9.7780223e-08 2.3169182e-06 4.3734476e-06 
3.2690543e-06 -1.5050943e-05 1.1884129e-05 
-4.1514686e-06 -1.8394365e-05 5.1074539e-06 
-1.3434563e-05 -2.4712642e-06 -1.3831817e-07 
-6.7987171e-06 1.0512479e-05 -7.5554522e-06 
1.0855862e-05 1.3875041e-05 -1.0237845e-06 
2.5699544e-05 3.1142630e-05 1.1800024e-05 
5.7028232e-05 -5.1586263e-05 3.0448157e-06 
5.3231161e-05 -1.0547316e-04 -9.9032159e-06 
4.0031129e-05 -9.7480573e-05 -9.1503480e-08 
3.9234455e-05 -5.1636311e-05 -1.0494902e-06 
4.5762090e-06 5.3250910e-06 -8.4002268e-06 
-7.3437759e-06 -4.8651336e-06 -5.8798769e-06 
-1.3045023e-05 -4.3990958e-06 -5.4456063e-06 
-9.5289361e-06 -2.0867428e-06 -3.3364809e-06 
7.7627419e-06 2.0396472e-05 9.2646087e-06 
5.0640105e-05 -1.4205172e-05 5.4429074e-05 
3.0677154e-05 7.6116252e-05 1.4339802e-04 
0.0000000e+00 0.0000000e+00 0.0000000e+00 
0.0000000e+00 0.0000000e+00 0.0000000e+00 
0.0000000e+00 0.0000000e+00 0.0000000e+00 
0.0000000e+00 0.0000000e+00 0.0000000e+00 
0.0000000e+00 0.0000000e+00 0.0000000e+00 
0.0000000e+00 0.0000000e+00 0.0000000e+00 
0.0000000e+00 0.0000000e+00 0.0000000e+00 
0.0000000e+00 0.0000000e+00 0.0000000e+00 
0.0000000e+00 0.0000000e+00 0.0000000e+00 
0.0000000e+00 0.0000000e+00 0.0000000e+00 
0.0000000e+00 0.0000000e+00 0.0000000e+00 
0.0000000e+00 0.0000000e+00 0.0000000e+00 
0.0000000e+00 0.0000000e+00 0.0000000e+00 
0.0000000e+00 0.0000000e+00 0.0000000e+00 
0.0000000e+00 0.0000000e+00 0.0000000e+00 
0.0000000e+00 0.0000000e+00 0.0000000e+00 
0.0000000e+00 0.0000000e+00 0.0000000e+00 
0.0000000e+00 0.0000000e+00 0.0000000e+00 
0.0000000e+00 0.0000000e+00 0.0000000e+00 
0.0000000e+00 0.0000000e+00 0.0000000e+00 
0.0000000e+00 0.0000000e+00 0.0000000e+00 
0.0000000e+00 0.0000000e+00 0.0000000e+00 
0.0000000e+00 0.0000000e+00 0.0000000e+00 
0.0000000e+00 0.0000000e+00 0.0000000e+00 
0.0000000e+00 0.0000000e+00 0.0000000e+00 
0.0000000e+00 0.0000000e+00 0.0000000e+00 
0.0000000e+00 0.0000000e+00 0.0000000e+00 
0.0000000e+00 0.0000000e+00 0.0000000e+00 
0.0000000e+00 0.0000000e+00 0.0000000e+00 
0.0000000e+00 0.0000000e+00 0.0000000e+00 
0.0000000e+00 0.0000000e+00 0.0000000e+00 
0.0000000e+00 0.0000000e+00 0.0000000e+00 
0.0000000e+00 0.0000000e+00 0.0000000e+00 
0.0000000e+00 0.0000000e+00 0.0000000e+00 
0.0000000e+00 0.0000000e+00 0.0000000e+00 
0.0000000e+00 0.0000000e+00 0.0000000e+00 
0.0000000e+00 0.0000000e+00 0.0000000e+00 
0.0000000e+00 0.0000000e+00 0.0000000e+00 
0.0000000e+00 0.0000000e+00 0.0000000e+00 
0.0000000e+00 0.0000000e+00 0.0000000e+00 
0.0000000e+00 0.0000000e+00 0.0000000e+00 
0.0000000e+00 0.0000000e+00 0.0000000e+00 
1.7540809e-07 7.1391941e-07 -7.6147518e-07 
-3.5964456e-06 -6.9950154e-08 -1.4496775e-06 
1.0073394e-05 -7.2093312e-06 -8.0464552e-06 
2.0948579e-05 -8.0733689e-06 3.3730685e-06 
6.1454816e-06 -2.9274047e-06 1.8512177e-06 
1.1064257e-06 -6.3891969e-07 6.0474247e-07 
5.3823339e-07 2.3601984e-07 2.9052583e-06 
-3.5576809e-06 8.3376733e-07 1.4322084e-06 
-5.5175533e-06 1.0966417e-06 1.5583912e-06 