# vtk DataFile Version 4.0
vtk output
ASCII
DATASET UNSTRUCTURED_GRID
POINTS 621 float
0.0000000e+00 0.0000000e+00 0.0000000e+00 
0.0000000e+00 0.0000000e+00 4.0000000e+01 
5.0000000e+00 0.0000000e+00 0.0000000e+00 
5.0000000e+00 0.0000000e+00 4.0000000e+01 
5.0000000e+00 1.0000000e+00 0.0000000e+00 
5.0000000e+00 1.0000000e+00 4.0000000e+01 
0.0000000e+00 1.0000000e+00 0.0000000e+00 
0.0000000e+00 1.0000000e+00 4.0000000e+01 
5.0000000e+00 2.0000000e+00 0.0000000e+00 
5.0000000e+00 2.0000000e+00 4.0000000e+01 
3.0000000e+00 2.0000000e+00 0.0000000e+00 
3.0000000e+00 2.0000000e+00 4.0000000e+01 
0.0000000e+00 2.0000000e+00 0.0000000e+00 
0.0000000e+00 2.0000000e+00 4.0000000e+01 
1.5000000e+00 3.0000000e+00 0.0000000e+00 
1.5000000e+00 3.0000000e+00 4.0000000e+01 
7.5000000e-01 3.0000000e+00 0.0000000e+00 
7.5000000e-01 3.0000000e+00 4.0000000e+01 
0.0000000e+00 3.0000000e+00 0.0000000e+00 
0.0000000e+00 3.0000000e+00 4.0000000e+01 
7.5000000e-01 3.0000000e+00 5.0000000e-01 
7.5000000e-01 3.0000000e+00 1.0000000e+00 
7.5000000e-01 3.0000000e+00 1.5000000e+00 
7.5000000e-01 3.0000000e+00 2.0000000e+00 
7.5000000e-01 3.0000000e+00 2.5000000e+00 
7.5000000e-01 3.0000000e+00 3.0000000e+00 
7.5000000e-01 3.0000000e+00 3.5000000e+00 
7.5000000e-01 3.0000000e+00 4.0000000e+00 
7.5000000e-01 3.0000000e+00 4.5000000e+00 
7.5000000e-01 3.0000000e+00 5.0000000e+00 
7.5000000e-01 3.0000000e+00 5.5000000e+00 
7.5000000e-01 3.0000000e+00 6.0000000e+00 
7.5000000e-01 3.0000000e+00 6.5000000e+00 
7.5000000e-01 3.0000000e+00 7.0000000e+00 
7.5000000e-01 3.0000000e+00 7.5000000e+00 
7.5000000e-01 3.0000000e+00 8.0000000e+00 
7.5000000e-01 3.0000000e+00 8.5000000e+00 
7.5000000e-01 3.0000000e+00 9.0000000e+00 
7.5000000e-01 3.0000000e+00 9.5000000e+00 
7.5000000e-01 3.0000000e+00 1.0000000e+01 
7.5000000e-01 3.0000000e+00 1.0500000e+01 
7.5000000e-01 3.0000000e+00 1.1000000e+01 
7.5000000e-01 3.0000000e+00 1.1500000e+01 
7.5000000e-01 3.0000000e+00 1.2000000e+01 
7.5000000e-01 3.0000000e+00 1.2500000e+01 
7.5000000e-01 3.0000000e+00 1.3000000e+01 
7.5000000e-01 3.0000000e+00 1.3500000e+01 
7.5000000e-01 3.0000000e+00 1.4000000e+01 
7.5000000e-01 3.0000000e+00 1.4500000e+01 
7.5000000e-01 3.0000000e+00 1.5000000e+01 
7.5000000e-01 3.0000000e+00 1.5500000e+01 
7.5000000e-01 3.0000000e+00 1.6000000e+01 
7.5000000e-01 3.0000000e+00 1.6500000e+01 
7.5000000e-01 3.0000000e+00 1.7000000e+01 
7.5000000e-01 3.0000000e+00 1.7500000e+01 
7.5000000e-01 3.0000000e+00 1.8000000e+01 
7.5000000e-01 3.0000000e+00 1.8500000e+01 
7.5000000e-01 3.0000000e+00 1.9000000e+01 
7.5000000e-01 3.0000000e+00 1.9500000e+01 
7.5000000e-01 3.0000000e+00 2.0000000e+01 
7.5000000e-01 3.0000000e+00 2.0500000e+01 
7.5000000e-01 3.0000000e+00 2.1000000e+01 
7.5000000e-01 3.0000000e+00 2.1500000e+01 
7.5000000e-01 3.0000000e+00 2.2000000e+01 
7.5000000e-01 3.0000000e+00 2.2500000e+01 
7.5000000e-01 3.0000000e+00 2.3000000e+01 
7.5000000e-01 3.0000000e+00 2.3500000e+01 
7.5000000e-01 3.0000000e+00 2.4000000e+01 
7.5000000e-01 3.0000000e+00 2.4500000e+01 
7.5000000e-01 3.0000000e+00 2.5000000e+01 
7.5000000e-01 3.0000000e+00 2.5500000e+01 
7.5000000e-01 3.0000000e+00 2.6000000e+01 
7.5000000e-01 3.0000000e+00 2.6500000e+01 
7.5000000e-01 3.0000000e+00 2.7000000e+01 
7.5000000e-01 3.0000000e+00 2.7500000e+01 
7.5000000e-01 3.0000000e+00 2.8000000e+01 
7.5000000e-01 3.0000000e+00 2.8500000e+01 
7.5000000e-01 3.0000000e+00 2.9000000e+01 
7.5000000e-01 3.0000000e+00 2.9500000e+01 
7.5000000e-01 3.0000000e+00 3.0000000e+01 
7.5000000e-01 3.0000000e+00 3.0500000e+01 
7.5000000e-01 3.0000000e+00 3.1000000e+01 
7.5000000e-01 3.0000000e+00 3.1500000e+01 
7.5000000e-01 3.0000000e+00 3.2000000e+01 
7.5000000e-01 3.0000000e+00 3.2500000e+01 
7.5000000e-01 3.0000000e+00 3.3000000e+01 
7.5000000e-01 3.0000000e+00 3.3500000e+01 
7.5000000e-01 3.0000000e+00 3.4000000e+01 
7.5000000e-01 3.0000000e+00 3.4500000e+01 
7.5000000e-01 3.0000000e+00 3.5000000e+01 
7.5000000e-01 3.0000000e+00 3.5500000e+01 
7.5000000e-01 3.0000000e+00 3.6000000e+01 
7.5000000e-01 3.0000000e+00 3.6500000e+01 
7.5000000e-01 3.0000000e+00 3.7000000e+01 
7.5000000e-01 3.0000000e+00 3.7500000e+01 
7.5000000e-01 3.0000000e+00 3.8000000e+01 
7.5000000e-01 3.0000000e+00 3.8500000e+01 
7.5000000e-01 3.0000000e+00 3.9000000e+01 
7.5000000e-01 3.0000000e+00 3.9500000e+01 
7.5000000e-01 3.0250001e+00 0.0000000e+00 
7.5000000e-01 3.0250001e+00 5.0000000e-01 
7.5000000e-01 3.0250001e+00 1.0000000e+00 
7.5000000e-01 3.0250001e+00 1.5000000e+00 
7.5000000e-01 3.0250001e+00 2.0000000e+00 
7.5000000e-01 3.0250001e+00 2.5000000e+00 
7.5000000e-01 3.0250001e+00 3.0000000e+00 
7.5000000e-01 3.0250001e+00 3.5000000e+00 
7.5000000e-01 3.0250001e+00 4.0000000e+00 
7.5000000e-01 3.0250001e+00 4.5000000e+00 
7.5000000e-01 3.0250001e+00 5.0000000e+00 
7.5000000e-01 3.0250001e+00 5.5000000e+00 
7.5000000e-01 3.0250001e+00 6.0000000e+00 
7.5000000e-01 3.0250001e+00 6.5000000e+00 
7.5000000e-01 3.0250001e+00 7.0000000e+00 
7.5000000e-01 3.0250001e+00 7.5000000e+00 
7.5000000e-01 3.0250001e+00 8.0000000e+00 
7.5000000e-01 3.0250001e+00 8.5000000e+00 
7.5000000e-01 3.0250001e+00 9.0000000e+00 
7.5000000e-01 3.0250001e+00 9.5000000e+00 
7.5000000e-01 3.0250001e+00 1.0000000e+01 
7.5000000e-01 3.0250001e+00 1.0500000e+01 
7.5000000e-01 3.0250001e+00 1.1000000e+01 
7.5000000e-01 3.0250001e+00 1.1500000e+01 
7.5000000e-01 3.0250001e+00 1.2000000e+01 
7.5000000e-01 3.0250001e+00 1.2500000e+01 
7.5000000e-01 3.0250001e+00 1.3000000e+01 
7.5000000e-01 3.0250001e+00 1.3500000e+01 
7.5000000e-01 3.0250001e+00 1.4000000e+01 
7.5000000e-01 3.0250001e+00 1.4500000e+01 
7.5000000e-01 3.0250001e+00 1.5000000e+01 
7.5000000e-01 3.0250001e+00 1.5500000e+01 
7.5000000e-01 3.0250001e+00 1.6000000e+01 
7.5000000e-01 3.0250001e+00 1.6500000e+01 
7.5000000e-01 3.0250001e+00 1.7000000e+01 
7.5000000e-01 3.0250001e+00 1.7500000e+01 
7.5000000e-01 3.0250001e+00 1.8000000e+01 
7.5000000e-01 3.0250001e+00 1.8500000e+01 
7.5000000e-01 3.0250001e+00 1.9000000e+01 
7.5000000e-01 3.0250001e+00 1.9500000e+01 
7.5000000e-01 3.0250001e+00 2.0000000e+01 
7.5000000e-01 3.0250001e+00 2.0500000e+01 
7.5000000e-01 3.0250001e+00 2.1000000e+01 
7.5000000e-01 3.0250001e+00 2.1500000e+01 
7.5000000e-01 3.0250001e+00 2.2000000e+01 
7.5000000e-01 3.0250001e+00 2.2500000e+01 
7.5000000e-01 3.0250001e+00 2.3000000e+01 
7.5000000e-01 3.0250001e+00 2.3500000e+01 
7.5000000e-01 3.0250001e+00 2.4000000e+01 
7.5000000e-01 3.0250001e+00 2.4500000e+01 
7.5000000e-01 3.0250001e+00 2.5000000e+01 
7.5000000e-01 3.0250001e+00 2.5500000e+01 
7.5000000e-01 3.0250001e+00 2.6000000e+01 
7.5000000e-01 3.0250001e+00 2.6500000e+01 
7.5000000e-01 3.0250001e+00 2.7000000e+01 
7.5000000e-01 3.0250001e+00 2.7500000e+01 
7.5000000e-01 3.0250001e+00 2.8000000e+01 
7.5000000e-01 3.0250001e+00 2.8500000e+01 
7.5000000e-01 3.0250001e+00 2.9000000e+01 
7.5000000e-01 3.0250001e+00 2.9500000e+01 
7.5000000e-01 3.0250001e+00 3.0000000e+01 
7.5000000e-01 3.0250001e+00 3.0500000e+01 
7.5000000e-01 3.0250001e+00 3.1000000e+01 
7.5000000e-01 3.0250001e+00 3.1500000e+01 
7.5000000e-01 3.0250001e+00 3.2000000e+01 
7.5000000e-01 3.0250001e+00 3.2500000e+01 
7.5000000e-01 3.0250001e+00 3.3000000e+01 
7.5000000e-01 3.0250001e+00 3.3500000e+01 
7.5000000e-01 3.0250001e+00 3.4000000e+01 
7.5000000e-01 3.0250001e+00 3.4500000e+01 
7.5000000e-01 3.0250001e+00 3.5000000e+01 
7.5000000e-01 3.0250001e+00 3.5500000e+01 
7.5000000e-01 3.0250001e+00 3.6000000e+01 
7.5000000e-01 3.0250001e+00 3.6500000e+01 
7.5000000e-01 3.0250001e+00 3.7000000e+01 
7.5000000e-01 3.0250001e+00 3.7500000e+01 
7.5000000e-01 3.0250001e+00 3.8000000e+01 
7.5000000e-01 3.0250001e+00 3.8500000e+01 
7.5000000e-01 3.0250001e+00 3.9000000e+01 
7.5000000e-01 3.0250001e+00 3.9500000e+01 
7.5000000e-01 3.0250001e+00 4.0000000e+01 
3.0000000e+00 2.0000000e+00 3.6000000e+01 
8.0487806e-01 3.0000000e+00 3.6000000e+01 
0.0000000e+00 0.0000000e+00 2.0000000e+00 
0.0000000e+00 0.0000000e+00 4.0000000e+00 
0.0000000e+00 0.0000000e+00 6.0000000e+00 
0.0000000e+00 0.0000000e+00 8.0000000e+00 
0.0000000e+00 0.0000000e+00 1.0000000e+01 
0.0000000e+00 0.0000000e+00 1.2000000e+01 
0.0000000e+00 0.0000000e+00 1.4000000e+01 
0.0000000e+00 0.0000000e+00 1.6000000e+01 
0.0000000e+00 0.0000000e+00 1.8000000e+01 
0.0000000e+00 0.0000000e+00 2.0000000e+01 
0.0000000e+00 0.0000000e+00 2.2000000e+01 
0.0000000e+00 0.0000000e+00 2.4000000e+01 
0.0000000e+00 0.0000000e+00 2.6000000e+01 
0.0000000e+00 0.0000000e+00 2.8000000e+01 
0.0000000e+00 0.0000000e+00 3.0000000e+01 
0.0000000e+00 0.0000000e+00 3.2000000e+01 
0.0000000e+00 0.0000000e+00 3.4000000e+01 
0.0000000e+00 0.0000000e+00 3.6000000e+01 
0.0000000e+00 0.0000000e+00 3.8000000e+01 
5.0000000e+00 0.0000000e+00 2.0000000e+00 
5.0000000e+00 0.0000000e+00 4.0000000e+00 
5.0000000e+00 0.0000000e+00 6.0000000e+00 
5.0000000e+00 0.0000000e+00 8.0000000e+00 
5.0000000e+00 0.0000000e+00 1.0000000e+01 
5.0000000e+00 0.0000000e+00 1.2000000e+01 
5.0000000e+00 0.0000000e+00 1.4000000e+01 
5.0000000e+00 0.0000000e+00 1.6000000e+01 
5.0000000e+00 0.0000000e+00 1.8000000e+01 
5.0000000e+00 0.0000000e+00 2.0000000e+01 
5.0000000e+00 0.0000000e+00 2.2000000e+01 
5.0000000e+00 0.0000000e+00 2.4000000e+01 
5.0000000e+00 0.0000000e+00 2.6000000e+01 
5.0000000e+00 0.0000000e+00 2.8000000e+01 
5.0000000e+00 0.0000000e+00 3.0000000e+01 
5.0000000e+00 0.0000000e+00 3.2000000e+01 
5.0000000e+00 0.0000000e+00 3.4000000e+01 
5.0000000e+00 0.0000000e+00 3.6000000e+01 
5.0000000e+00 0.0000000e+00 3.8000000e+01 
1.6666666e+00 0.0000000e+00 0.0000000e+00 
3.3333333e+00 0.0000000e+00 0.0000000e+00 
1.6666666e+00 0.0000000e+00 4.0000000e+01 
3.3333333e+00 0.0000000e+00 4.0000000e+01 
5.0000000e+00 1.0000000e+00 2.0000000e+00 
5.0000000e+00 1.0000000e+00 4.0000000e+00 
5.0000000e+00 1.0000000e+00 6.0000000e+00 
5.0000000e+00 1.0000000e+00 8.0000000e+00 
5.0000000e+00 1.0000000e+00 1.0000000e+01 
5.0000000e+00 1.0000000e+00 1.2000000e+01 
[...]
POINT_DATA 621
FIELD FieldData 3
DISPLACEMENT 3 621  float
0.0000000e+00 0.0000000e+00 0.0000000e+00 
0.0000000e+00 0.0000000e+00 0.0000000e+00 
0.0000000e+00 0.0000000e+00 0.0000000e+00 
0.0000000e+00 0.0000000e+00 0.0000000e+00 
1.9102112e-07 -1.3942288e-06 2.5944482e-06 
3.5327594e-05 -3.3296554e-05 -2.8449858e-05 
0.0000000e+00 5.3134786e-06 0.0000000e+00 
0.0000000e+00 -1.5379343e-04 0.0000000e+00 
1.7542168e-06 -2.8348381e-06 3.2465906e-07 
5.7647536e-05 -7.4643198e-05 -1.1547500e-05 
3.9032540e-07 -5.8097436e-07 -1.1222411e-06 
2.4349132e-05 3.2388627e-09 2.3886566e-04 
0.0000000e+00 8.9207624e-06 0.0000000e+00 
0.0000000e+00 -8.6512370e-04 0.0000000e+00 
-2.4628762e-06 8.6736991e-06 -2.2839895e-05 
-2.2454670e-04 -1.3673704e-03 1.8052857e-04 
-6.9973285e-06 3.7545618e-05 -1.8286431e-05 
1.4539155e-04 -4.8964829e-03 3.3655838e-04 
0.0000000e+00 1.2357880e-05 0.0000000e+00 
0.0000000e+00 -2.4115068e-03 0.0000000e+00 
-7.2591511e-06 3.9553925e-05 -2.2018397e-05 
-5.5561422e-06 4.4505712e-05 -2.1193851e-05 
-2.5326071e-06 4.9915649e-05 -1.5297042e-05 
3.1578513e-06 5.3343781e-05 -4.1973581e-06 
6.4867731e-06 5.2608095e-05 8.4050007e-06 
1.1839058e-05 4.5591591e-05 2.0579706e-05 
1.0449494e-05 3.2209024e-05 2.9485904e-05 
8.9903115e-06 1.3691792e-05 3.2928394e-05 
7.9508864e-06 -8.1968037e-06 3.2306409e-05 
1.0411207e-05 -3.1359243e-05 3.0771625e-05 
1.4346596e-05 -5.3657724e-05 3.3933477e-05 
1.3624534e-05 -7.2495975e-05 3.8349215e-05 
3.4024993e-06 -8.5552638e-05 3.8786795e-05 
-7.9658193e-06 -9.1552494e-05 3.2052798e-05 
-1.2707949e-05 -8.9677618e-05 2.3162260e-05 
-1.5038422e-05 -8.0877675e-05 7.9840966e-06 
-1.8014616e-05 -6.5252731e-05 -1.1010674e-05 
-2.0260886e-05 -4.6255860e-05 -2.2729995e-05 
-2.0495361e-05 -2.6046193e-05 -2.6026219e-05 
-1.9827303e-05 -5.9674171e-06 -2.2669888e-05 
-1.3945773e-05 1.2659186e-05 -1.7082106e-05 
-9.4081406e-06 2.9349098e-05 -1.3064061e-05 
-3.2190551e-06 4.3514006e-05 -1.8396133e-05 
7.3157071e-06 5.5412307e-05 -2.3824334e-05 
1.7780643e-05 6.5097018e-05 -2.1755121e-05 
2.6061947e-05 7.3426745e-05 -1.4530913e-05 
3.2543408e-05 8.1691804e-05 -8.0834316e-06 
3.7279078e-05 9.1070011e-05 7.1738810e-07 
4.1385618e-05 1.0157489e-04 6.4044552e-06 
4.2218024e-05 1.0788701e-04 1.5086614e-05 
3.4984332e-05 9.9150981e-05 3.2924356e-05 
1.9775847e-05 4.7094098e-05 5.2321782e-05 
-2.4620958e-05 -8.9299334e-05 8.8732188e-05 
-4.0319654e-05 -3.5212433e-04 1.2125880e-04 
-6.7874447e-05 -8.0601819e-04 1.6561555e-04 
-1.2701322e-04 -1.4967931e-03 1.0679730e-04 
-2.8165343e-04 -2.4457797e-03 1.8419152e-04 
-2.9313460e-04 -3.4722614e-03 1.6185256e-04 
-1.8718530e-04 -4.2637889e-03 9.7688368e-05 
-1.5891352e-04 -4.2529944e-03 1.0933267e-04 
-2.8852088e-04 -4.0231161e-03 3.9364422e-05 
-3.5282641e-04 -3.9539351e-03 2.1740630e-05 
-2.3919535e-04 -4.1615409e-03 -1.4847240e-05 
-8.0659644e-05 -4.1517625e-03 -5.9744714e-05 
-1.0190875e-04 -3.4410341e-03 -1.5594182e-04 
-1.8952788e-04 -2.4020735e-03 -1.8293176e-04 
-1.7950890e-04 -1.4934352e-03 -1.7967705e-04 
-5.2461739e-05 -8.0347701e-04 -1.2060017e-04 
-1.3731627e-05 -3.7004234e-04 -1.4771876e-04 
3.3565618e-06 -1.2216573e-04 -1.0750500e-04 
4.7908525e-06 8.0750406e-06 -7.7848868e-05 
1.3630585e-05 6.6401379e-05 -4.5297231e-05 
1.0801263e-05 7.3607800e-05 -2.4159433e-05 
2.6701896e-06 4.8485519e-05 -7.6681445e-06 
-5.8407245e-06 8.9138175e-06 -7.3830506e-07 
-1.2608325e-05 -2.2382919e-05 -9.1424781e-06 
-1.4716064e-05 -3.7398037e-05 -3.0519088e-06 
-1.9448880e-05 -4.1275154e-05 -4.9713699e-06 
-2.2119344e-05 -2.7658118e-05 -3.2536871e-06 
-3.9973802e-05 3.9743968e-06 5.2879577e-06 
-2.8266990e-05 5.1592095e-05 -6.6222747e-06 
-4.9898961e-07 8.3464394e-05 -2.7963351e-05 
2.2260796e-05 7.4409785e-05 -5.8155223e-05 
6.6721244e-05 2.9621362e-05 -8.8502726e-05 
4.2490203e-05 -3.4859091e-05 -6.3548556e-05 
2.1960384e-05 -9.2376758e-05 4.4497510e-06 
-3.1827647e-05 -1.3462995e-04 7.5795040e-05 
-7.1080816e-05 -1.2874845e-04 1.7230619e-04 
4.4604953e-05 -4.4188437e-05 1.5527786e-04 
5.9077429e-05 1.0758558e-04 6.8127469e-05 
1.2933915e-04 3.1192164e-04 1.5060455e-05 
1.0906516e-04 4.6012088e-04 -2.5358238e-05 
1.7671622e-05 4.4915488e-04 -2.8258446e-05 
6.9023125e-05 1.9041162e-04 -9.9757111e-05 
2.1719837e-04 -4.0355514e-04 -2.2977182e-04 
-5.7130819e-05 -1.3358380e-03 2.4219740e-05 
-1.4668150e-04 -2.5039571e-03 1.7005758e-04 
-1.4202068e-04 -3.7121738e-03 1.2157417e-04 
8.3238650e-05 -4.5931404e-03 6.9045323e-05 
0.0000000e+00 3.7631158e-05 0.0000000e+00 
0.0000000e+00 3.9628416e-05 0.0000000e+00 
0.0000000e+00 4.4507768e-05 0.0000000e+00 
0.0000000e+00 4.9910399e-05 0.0000000e+00 
0.0000000e+00 5.3349384e-05 0.0000000e+00 
0.0000000e+00 5.2512758e-05 0.0000000e+00 
0.0000000e+00 4.5538854e-05 0.0000000e+00 
0.0000000e+00 3.2196484e-05 0.0000000e+00 
0.0000000e+00 1.3678818e-05 0.0000000e+00 
0.0000000e+00 -8.2019815e-06 0.0000000e+00 
0.0000000e+00 -3.1390478e-05 0.0000000e+00 
0.0000000e+00 -5.3656746e-05 0.0000000e+00 
0.0000000e+00 -7.2466530e-05 0.0000000e+00 
0.0000000e+00 -8.5547756e-05 0.0000000e+00 
0.0000000e+00 -9.1494272e-05 0.0000000e+00 
0.0000000e+00 -8.9724737e-05 0.0000000e+00 
0.0000000e+00 -8.0707505e-05 0.0000000e+00 
0.0000000e+00 -6.5318338e-05 0.0000000e+00 
0.0000000e+00 -4.6324531e-05 0.0000000e+00 
0.0000000e+00 -2.6058029e-05 0.0000000e+00 
0.0000000e+00 -6.0088623e-06 0.0000000e+00 
0.0000000e+00 1.2662003e-05 0.0000000e+00 
0.0000000e+00 2.9320932e-05 0.0000000e+00 
0.0000000e+00 4.3535729e-05 0.0000000e+00 
0.0000000e+00 5.5383709e-05 0.0000000e+00 
0.0000000e+00 6.5092267e-05 0.0000000e+00 
0.0000000e+00 7.3454801e-05 0.0000000e+00 
0.0000000e+00 8.1750848e-05 0.0000000e+00 
0.0000000e+00 9.1302005e-05 0.0000000e+00 
0.0000000e+00 1.0188174e-04 0.0000000e+00 
0.0000000e+00 1.0886662e-04 0.0000000e+00 
0.0000000e+00 9.9854478e-05 0.0000000e+00 
0.0000000e+00 4.7254660e-05 0.0000000e+00 
0.0000000e+00 -8.8097811e-05 0.0000000e+00 
0.0000000e+00 -3.5277058e-04 0.0000000e+00 
0.0000000e+00 -8.0756587e-04 0.0000000e+00 
0.0000000e+00 -1.5064873e-03 0.0000000e+00 
0.0000000e+00 -2.4537472e-03 0.0000000e+00 
0.0000000e+00 -3.5055473e-03 0.0000000e+00 
0.0000000e+00 -4.2887367e-03 0.0000000e+00 
0.0000000e+00 -4.2845714e-03 0.0000000e+00 
0.0000000e+00 -4.0372922e-03 0.0000000e+00 
0.0000000e+00 -3.9845910e-03 0.0000000e+00 
0.0000000e+00 -4.1812793e-03 0.0000000e+00 
0.0000000e+00 -4.1859071e-03 0.0000000e+00 
0.0000000e+00 -3.4588010e-03 0.0000000e+00 
0.0000000e+00 -2.4199456e-03 0.0000000e+00 
0.0000000e+00 -1.4957127e-03 0.0000000e+00 
0.0000000e+00 -8.0820295e-04 0.0000000e+00 
0.0000000e+00 -3.7000916e-04 0.0000000e+00 
0.0000000e+00 -1.2088411e-04 0.0000000e+00 
0.0000000e+00 9.5686146e-06 0.0000000e+00 
0.0000000e+00 6.6886234e-05 0.0000000e+00 
0.0000000e+00 7.3614458e-05 0.0000000e+00 
0.0000000e+00 4.7936319e-05 0.0000000e+00 
0.0000000e+00 9.5216483e-06 0.0000000e+00 
0.0000000e+00 -2.1562519e-05 0.0000000e+00 
0.0000000e+00 -3.7878821e-05 0.0000000e+00 
0.0000000e+00 -4.1146861e-05 0.0000000e+00 
0.0000000e+00 -2.7580820e-05 0.0000000e+00 
0.0000000e+00 5.6259387e-06 0.0000000e+00 
0.0000000e+00 5.1531813e-05 0.0000000e+00 
0.0000000e+00 8.1948565e-05 0.0000000e+00 
0.0000000e+00 7.3727970e-05 0.0000000e+00 
0.0000000e+00 2.8764227e-05 0.0000000e+00 
0.0000000e+00 -3.4044951e-05 0.0000000e+00 
0.0000000e+00 -9.3135881e-05 0.0000000e+00 
0.0000000e+00 -1.3439539e-04 0.0000000e+00 
0.0000000e+00 -1.2720631e-04 0.0000000e+00 
0.0000000e+00 -4.4177723e-05 0.0000000e+00 
0.0000000e+00 1.1254023e-04 0.0000000e+00 
0.0000000e+00 3.1209851e-04 0.0000000e+00 
0.0000000e+00 4.5983566e-04 0.0000000e+00 
0.0000000e+00 4.4996591e-04 0.0000000e+00 
0.0000000e+00 1.8630434e-04 0.0000000e+00 
0.0000000e+00 -4.0959747e-04 0.0000000e+00 
0.0000000e+00 -1.3409836e-03 0.0000000e+00 
0.0000000e+00 -2.5126622e-03 0.0000000e+00 
0.0000000e+00 -3.7411114e-03 0.0000000e+00 
0.0000000e+00 -4.6531181e-03 0.0000000e+00 
0.0000000e+00 -4.9082255e-03 0.0000000e+00 
-2.8078888e-05 -1.5274608e-06 9.5769530e-05 
7.6826887e-05 4.0815436e-04 2.2705940e-06 
0.0000000e+00 0.0000000e+00 0.0000000e+00 
0.0000000e+00 0.0000000e+00 0.0000000e+00 
0.0000000e+00 0.0000000e+00 0.0000000e+00 
0.0000000e+00 0.0000000e+00 0.0000000e+00 
0.0000000e+00 0.0000000e+00 0.0000000e+00 
0.0000000e+00 0.0000000e+00 0.0000000e+00 
0.0000000e+00 0.0000000e+00 0.0000000e+00 
0.0000000e+00 0.0000000e+00 0.0000000e+00 
0.0000000e+00 0.0000000e+00 0.0000000e+00 
0.0000000e+00 0.0000000e+00 0.0000000e+00 
0.0000000e+00 0.0000000e+00 0.0000000e+00 
0.0000000e+00 0.0000000e+00 0.0000000e+00 
0.0000000e+00 0.0000000e+00 0.0000000e+00 
0.0000000e+00 0.0000000e+00 0.0000000e+00 
0.0000000e+00 0.0000000e+00 0.0000000e+00 
0.0000000e+00 0.0000000e+00 0.0000000e+00 
0.0000000e+00 0.0000000e+00 0.0000000e+00 
0.0000000e+00 0.0000000e+00 0.0000000e+00 
0.0000000e+00 0.0000000e+00 0.0000000e+00 
0.0000000e+00 0.0000000e+00 0.0000000e+00 
0.0000000e+00 0.0000000e+00 0.0000000e+00 
0.0000000e+00 0.0000000e+00 0.0000000e+00 
0.0000000e+00 0.0000000e+00 0.0000000e+00 
0.0000000e+00 0.0000000e+00 0.0000000e+00 
0.0000000e+00 0.0000000e+00 0.0000000e+00 
0.0000000e+00 0.0000000e+00 0.0000000e+00 
0.0000000e+00 0.0000000e+00 0.0000000e+00 
0.0000000e+00 0.0000000e+00 0.0000000e+00 
0.0000000e+00 0.0000000e+00 0.0000000e+00 
0.0000000e+00 0.0000000e+00 0.0000000e+00 
0.0000000e+00 0.0000000e+00 0.0000000e+00 
0.0000000e+00 0.0000000e+00 0.0000000e+00 
0.0000000e+00 0.0000000e+00 0.0000000e+00 
0.0000000e+00 0.0000000e+00 0.0000000e+00 
0.0000000e+00 0.0000000e+00 0.0000000e+00 
0.0000000e+00 0.0000000e+00 0.0000000e+00 
0.0000000e+00 0.0000000e+00 0.0000000e+00 
0.0000000e+00 0.0000000e+00 0.0000000e+00 
0.0000000e+00 0.0000000e+00 0.0000000e+00 
0.0000000e+00 0.0000000e+00 0.0000000e+00 
0.0000000e+00 0.0000000e+00 0.0000000e+00 
0.0000000e+00 0.0000000e+00 0.0000000e+00 
-2.9556611e-06 2.2995671e-06 1.6098288e-06 
-2.9063697e-06 2.9006171e-06 -1.2977123e-06 
1.9360343e-06 -4.2628466e-07 1.2563945e-06 
4.3024002e-06 -2.7527369e-06 3.8576864e-06 
-1.7907447e-06 -2.5796471e-06 6.7094497e-06 
-8.2944980e-06 6.1795811e-07 1.5733112e-06 
-4.2763663e-06 8.0500638e-07 -6.6271832e-06 
1.0835219e-05 -2.9500861e-06 -1.1403554e-05 
3.5374414e-05 -7.5660701e-06 -1.3109876e-05 
5.2181131e-05 -7.0931987e-06 -3.2900916e-06 
4.5257766e-05 -4.4464609e-06 7.9763877e-06 
2.1322670e-05 -2.9157989e-06 4.7747262e-06 
5.4942761e-06 -1.7126337e-06 3.0044041e-06 
-8.2040043e-07 2.7999599e-06 2.0549173e-06 
6.3471276e-07 -3.2374237e-06 6.1655592e-06 
-2.4457931e-05 -6.1484429e-06 7.0362175e-06 
1.3803606e-05 3.8234484e-05 -1.4876069e-05 
-1.8216566e-05 -2.7951288e-05 3.5295809e-05 
-4.9102440e-05 -1.6461940e-05 4.2032676e-05 
0.0000000e+00 1.7920753e-05 0.0000000e+00 
0.0000000e+00 6.5231125e-06 0.0000000e+00 
0.0000000e+00 -1.9698944e-05 0.0000000e+00 
0.0000000e+00 -2.7579710e-05 0.0000000e+00 
0.0000000e+00 -7.1193745e-07 0.0000000e+00 
0.0000000e+00 1.6011474e-05 0.0000000e+00 
0.0000000e+00 2.8403678e-05 0.0000000e+00 
0.0000000e+00 -4.0003188e-06 0.0000000e+00 
0.0000000e+00 -2.3186623e-04 0.0000000e+00 
0.0000000e+00 -5.6418614e-04 0.0000000e+00 
0.0000000e+00 -5.0850946e-04 0.0000000e+00 
0.0000000e+00 -1.5048053e-04 0.0000000e+00 
0.0000000e+00 -6.7210544e-06 0.0000000e+00 
0.0000000e+00 1.3731037e-05 0.0000000e+00 
0.0000000e+00 -3.8716393e-05 0.0000000e+00 
0.0000000e+00 8.5154090e-05 0.0000000e+00 
0.0000000e+00 -1.3097603e-04 0.0000000e+00 
0.0000000e+00 2.6345404e-04 0.0000000e+00 
0.0000000e+00 7.4626434e-05 0.0000000e+00 
-1.4175432e-06 -3.5916381e-07 2.4788799e-06 
-1.4988941e-06 3.0385183e-06 2.4999106e-06 
-3.1066375e-05 -3.7289847e-05 1.2610006e-04 
-2.5115027e-05 -3.5665973e-05 5.8770027e-05 
-9.5204905e-07 2.1252285e-06 9.8007706e-07 
-3.4280363e-06 3.0087656e-06 6.6668184e-07 
1.2141599e-07 1.3017605e-07 4.1012659e-06 
1.9755591e-06 -3.2610856e-06 6.0493753e-06 
-2.1630597e-06 -4.9645851e-06 5.6936660e-06 
-6.6602643e-06 9.4760850e-07 8.1272653e-08 
-2.3394225e-06 2.1352787e-06 -9.6161621e-06 
2.1305506e-05 -2.8377713e-06 -1.3926779e-05 
3.3802313e-05 -5.7867983e-06 -6.9136686e-06 
3.5733741e-05 -5.5364444e-06 -2.1343467e-06 
2.5847474e-05 -1.4953964e-06 7.2599260e-06 
1.2509051e-05 4.0454140e-07 -1.9356651e-06 
5.0305011e-06 -1.6752246e-06 3.0421850e-06 
5.4751986e-06 1.1159669e-07 -6.4011709e-07 
-1.3737476e-05 -8.4024242e-07 1.0801349e-05 
2.0232497e-05 -1.6977536e-05 -1.5348025e-05 
-2.9274523e-05 4.8493141e-05 1.8067851e-05 
-4.3411994e-05 -5.0544852e-05 2.2706869e-05 
-2.5953213e-05 -4.7912603e-05 3.9807532e-05 
-1.1595986e-06 8.6971031e-06 -3.0030585e-06 
0.0000000e+00 3.5267385e-05 0.0000000e+00 
0.0000000e+00 1.3036156e-05 0.0000000e+00 
0.0000000e+00 -3.7769674e-05 0.0000000e+00 
0.0000000e+00 -5.0807474e-05 0.0000000e+00 
0.0000000e+00 5.2221367e-07 0.0000000e+00 
0.0000000e+00 2.9343373e-05 0.0000000e+00 
0.0000000e+00 5.1958799e-05 0.0000000e+00 
0.0000000e+00 5.3373437e-06 0.0000000e+00 
0.0000000e+00 -4.8526149e-04 0.0000000e+00 
0.0000000e+00 -1.2483288e-03 0.0000000e+00 
0.0000000e+00 -1.1314155e-03 0.0000000e+00 
0.0000000e+00 -2.8029821e-04 0.0000000e+00 
0.0000000e+00 -7.1901832e-07 0.0000000e+00 
0.0000000e+00 2.9454814e-06 0.0000000e+00 
0.0000000e+00 -4.8657883e-05 0.0000000e+00 
0.0000000e+00 1.4867549e-04 0.0000000e+00 
0.0000000e+00 -2.8266013e-04 0.0000000e+00 
0.0000000e+00 4.6637174e-04 0.0000000e+00 
0.0000000e+00 3.6498681e-05 0.0000000e+00 
1.3641034e-04 -2.0487669e-04 7.5575590e-05 
6.2951287e-08 4.3305376e-05 -9.0015455e-06 
1.0199802e-05 5.4655361e-06 4.6440888e-05 
1.3627043e-05 -5.9110793e-05 4.9283677e-05 
-2.2396700e-05 -5.9292117e-05 4.1936091e-06 
-2.4895839e-05 -6.4648370e-06 -2.7911345e-05 
4.9297173e-06 4.2957457e-05 -4.6663943e-05 
5.9000711e-05 4.1737399e-05 1.2657291e-06 
4.0062561e-05 6.5218352e-05 8.1396640e-05 
-2.9146008e-04 -4.5975551e-04 3.0565599e-04 
-7.2588929e-04 -1.3929533e-03 1.0241679e-04 
-6.2559586e-04 -1.4119055e-03 -1.5560661e-04 
-1.2173728e-04 -2.4174557e-04 -2.4887387e-04 
2.9286344e-05 1.2178813e-05 -4.7858568e-05 
-2.1977809e-05 1.3951774e-05 -7.3819574e-06 
-1.0678941e-06 -9.7324199e-05 8.7629587e-06 
-5.1569983e-05 2.1562641e-04 -1.3893898e-04 
1.4412426e-04 -3.1215037e-04 2.3126898e-04 
-3.8777693e-05 1.5076360e-04 1.4710751e-05 
7.3153395e-05 3.6835074e-04 1.3044674e-04 
0.0000000e+00 5.0471306e-05 0.0000000e+00 
0.0000000e+00 1.8669713e-05 0.0000000e+00 
0.0000000e+00 -6.5248008e-05 0.0000000e+00 
0.0000000e+00 -7.0848961e-05 0.0000000e+00 
0.0000000e+00 2.9597479e-06 0.0000000e+00 
0.0000000e+00 4.2150456e-05 0.0000000e+00 
0.0000000e+00 7.1606948e-05 0.0000000e+00 
0.0000000e+00 4.9229337e-05 0.0000000e+00 
0.0000000e+00 -9.0356648e-04 0.0000000e+00 
0.0000000e+00 -2.4174126e-03 0.0000000e+00 
0.0000000e+00 -2.1549745e-03 0.0000000e+00 
0.0000000e+00 -4.8047840e-04 0.0000000e+00 
0.0000000e+00 3.3696204e-05 0.0000000e+00 
0.0000000e+00 4.6013773e-07 0.0000000e+00 
0.0000000e+00 -5.8556902e-06 0.0000000e+00 
0.0000000e+00 2.8078373e-05 0.0000000e+00 
0.0000000e+00 -2.2344217e-04 0.0000000e+00 
0.0000000e+00 3.7964561e-04 0.0000000e+00 
0.0000000e+00 -3.1070699e-04 0.0000000e+00 
-4.0100581e-06 1.1481183e-05 -2.9521761e-06 
-5.9744247e-07 2.1664412e-06 6.0244342e-06 
3.1763946e-06 -1.4647414e-05 1.2467662e-05 
-4.1442713e-06 -1.8236025e-05 5.3810591e-06 
-1.3442558e-05 -2.4423900e-06 2.7972644e-07 
-6.7319579e-06 1.0464437e-05 -7.5580842e-06 
1.0701810e-05 1.3266902e-05 -1.3292282e-06 
2.5361363e-05 3.0460376e-05 1.1532700e-05 
5.6613648e-05 -5.1263502e-05 2.6505327e-06 
5.2608179e-05 -1.0452062e-04 -9.3994331e-06 
3.9333972e-05 -9.8153731e-05 -3.1680667e-08 
3.8951228e-05 -5.0700637e-05 -2.3381210e-06 
3.4873774e-06 2.0129332e-06 -8.8353081e-06 
-4.1251378e-06 1.3163073e-05 -5.8366800e-06 
-2.6796644e-05 -4.6822792e-05 3.0833899e-06 
5.1133020e-06 1.1517661e-04 -2.2502772e-05 
-3.6839472e-05 -1.1965589e-04 7.9837155e-05 
2.9372437e-05 2.0080052e-04 1.0305044e-04 
-1.1554120e-04 7.7352874e-05 7.0903014e-05 
0.0000000e+00 0.0000000e+00 0.0000000e+00 
0.0000000e+00 0.0000000e+00 0.0000000e+00 
0.0000000e+00 0.0000000e+00 0.0000000e+00 
0.0000000e+00 0.0000000e+00 0.0000000e+00 
0.0000000e+00 0.0000000e+00 0.0000000e+00 
0.0000000e+00 0.0000000e+00 0.0000000e+00 
0.0000000e+00 0.0000000e+00 0.0000000e+00 
0.0000000e+00 0.0000000e+00 0.0000000e+00 
0.0000000e+00 0.0000000e+00 0.0000000e+00 
0.0000000e+00 0.0000000e+00 0.0000000e+00 
0.0000000e+00 0.0000000e+00 0.0000000e+00 
0.0000000e+00 0.0000000e+00 0.0000000e+00 
0.0000000e+00 0.0000000e+00 0.0000000e+00 
0.0000000e+00 0.0000000e+00 0.0000000e+00 
0.0000000e+00 0.0000000e+00 0.0000000e+00 
0.0000000e+00 0.0000000e+00 0.0000000e+00 
0.0000000e+00 0.0000000e+00 0.0000000e+00 
0.0000000e+00 0.0000000e+00 0.0000000e+00 
0.0000000e+00 0.0000000e+00 0.0000000e+00 
0.0000000e+00 0.0000000e+00 0.0000000e+00 
0.0000000e+00 0.0000000e+00 0.0000000e+00 
0.0000000e+00 0.0000000e+00 0.0000000e+00 
0.0000000e+00 0.0000000e+00 0.0000000e+00 
0.0000000e+00 0.0000000e+00 0.0000000e+00 
0.0000000e+00 0.0000000e+00 0.0000000e+00 
0.0000000e+00 0.0000000e+00 0.0000000e+00 
0.0000000e+00 0.0000000e+00 0.0000000e+00 
0.0000000e+00 0.0000000e+00 0.0000000e+00 
0.0000000e+00 0.0000000e+00 0.0000000e+00 
0.0000000e+00 0.0000000e+00 0.0000000e+00 
0.0000000e+00 0.0000000e+00 0.0000000e+00 
0.0000000e+00 0.0000000e+00 0.0000000e+00 
0.0000000e+00 0.0000000e+00 0.0000000e+00 
0.0000000e+00 0.0000000e+00 0.0000000e+00 
0.0000000e+00 0.0000000e+00 0.0000000e+00 
0.0000000e+00 0.0000000e+00 0.0000000e+00 
0.0000000e+00 0.0000000e+00 0.0000000e+00 
0.0000000e+00 0.0000000e+00 0.0000000e+00 
0.0000000e+00 0.0000000e+00 0.0000000e+00 
0.0000000e+00 0.0000000e+00 0.0000000e+00 
0.0000000e+00 0.0000000e+00 0.0000000e+00 
0.0000000e+00 0.0000000e+00 0.0000000e+00 
-1.5247825e-06 7.1993253e-07 1.8914864e-06 
-3.5654778e-06 -5.2200072e-08 -1.4538909e-06 
2.7053355e-05 -9.8972641e-06 -4.4699691e-06 
2.0457665e-05 -8.1357703e-06 3.1752782e-06 
5.9502245e-06 -2.5740057e-06 1.5268454e-06 
2.6990958e-07 -2.0495442e-07 8.7258331e-07 
2.1875142e-06 1.6848340e-06 2.2453785e-06 
-9.1419206e-06 -4.0241898e-07 6.7571268e-06 
-7.0418373e-06 7.3108508e-06 5.5797836e-06 
6.9027801e-06 6.8049344e-06 -6.3374227e-06 
-2.6227486e-05 -3.0445476e-06 2.8377541e-05 
-1.9522555e-05 -5.8197320e-06 5.4147822e-06 
-2.1513331e-06 1.6206786e-06 3.8744707e-07 
-2.8696201e-07 7.4941124e-07 -6.3377757e-07 
2.7624831e-06 -1.7218287e-06 1.5288234e-06 
1.8051277e-06 -9.7573593e-07 2.9916882e-06 
-3.4370976e-06 5.8232224e-08 2.3580035e-06 
1.2053659e-06 -2.5690005e-07 -3.0135864e-06 
9.6828717e-06 -7.0256378e-06 -7.8587591e-06 
2.4948888e-05 -8.3624627e-06 2.3060968e-06 
-4.4059548e-06 8.7217304e-06 8.4660234e-09 
-3.5607689e-05 1.0853337e-04 2.8574488e-05 
2.5745051e-06 -4.3488690e-06 3.8157978e-06 
-2.8375646e-06 -5.4988191e-06 5.4457246e-06 
-3.6912670e-06 5.4016218e-06 -1.9568095e-06 
3.6430742e-05 1.0745146e-05 -1.4984876e-05 
8.6421504e-05 -2.2952616e-05 3.9626946e-07 
2.1017588e-05 -1.5004001e-06 1.2040757e-05 
-3.8865119e-06 -1.3871731e-05 -5.1793027e-06 
1.2427464e-05 1.3873189e-05 -3.7899248e-05 
2.5644349e-06 -2.2063592e-05 5.3996109e-06 
-7.3165315e-06 6.5012787e-06 3.9727029e-06 
1.4407897e-05 1.5209874e-05 -3.3631329e-06 
1.1698161e-04 -2.3967976e-04 -3.9978611e-05 
9.0618472e-05 -1.9692648e-04 4.1969401e-05 
2.8679233e-06 9.5469950e-08 7.5547013e-07 
-3.6141059e-06 2.6763590e-05 1.0219785e-05 
4.9255405e-06 -8.2734834e-05 4.2049978e-05 
-3.7148235e-05 2.5261991e-04 6.0712660e-05 
-4.1145649e-06 4.6830569e-06 -1.9707227e-06 
-6.7272733e-05 2.3409020e-05 8.9696659e-05 
-2.5958591e-06 1.3783114e-05 -3.2057594e-07 
3.6028696e-06 -6.7096980e-06 4.6242380e-06 
-7.4943850e-06 1.0896221e-06 2.4930914e-06 
7.0937426e-06 7.9488645e-06 -1.3749279e-06 
5.3510208e-05 -1.9156994e-05 -9.2411692e-06 
4.0703773e-05 -2.0264531e-05 5.8939181e-06 
3.5608545e-07 1.9232236e-06 9.1258590e-07 
-1.6483222e-05 6.7210203e-06 1.2433125e-05 