# vtk DataFile Version 4.0
vtk output
ASCII
DATASET UNSTRUCTURED_GRID
POINTS 628 float
0.0000000e+00 0.0000000e+00 0.0000000e+00 
1.0000000e+00 0.0000000e+00 0.0000000e+00 
1.0000000e+00 1.0000000e+01 0.0000000e+00 
0.0000000e+00 1.0000000e+01 0.0000000e+00 
0.0000000e+00 5.0000000e+00 0.0000000e+00 
1.0000000e+00 5.0000000e+00 0.0000000e+00 
1.4285715e-01 0.0000000e+00 0.0000000e+00 
2.8571430e-01 0.0000000e+00 0.0000000e+00 
4.2857143e-01 0.0000000e+00 0.0000000e+00 
5.7142860e-01 0.0000000e+00 0.0000000e+00 
7.1428573e-01 0.0000000e+00 0.0000000e+00 
8.5714287e-01 0.0000000e+00 0.0000000e+00 
8.5714287e-01 1.0000000e+01 0.0000000e+00 
7.1428573e-01 1.0000000e+01 0.0000000e+00 
5.7142860e-01 1.0000000e+01 0.0000000e+00 
4.2857143e-01 1.0000000e+01 0.0000000e+00 
2.8571430e-01 1.0000000e+01 0.0000000e+00 
1.4285715e-01 1.0000000e+01 0.0000000e+00 
1.4285715e-01 5.0000000e+00 0.0000000e+00 
2.8571430e-01 5.0000000e+00 0.0000000e+00 
4.2857143e-01 5.0000000e+00 0.0000000e+00 
5.7142860e-01 5.0000000e+00 0.0000000e+00 
7.1428573e-01 5.0000000e+00 0.0000000e+00 
8.5714287e-01 5.0000000e+00 0.0000000e+00 
0.0000000e+00 4.8529410e+00 0.0000000e+00 
0.0000000e+00 4.7058825e+00 0.0000000e+00 
0.0000000e+00 4.5588236e+00 0.0000000e+00 
0.0000000e+00 4.4117646e+00 0.0000000e+00 
0.0000000e+00 4.2647057e+00 0.0000000e+00 
0.0000000e+00 4.1176472e+00 0.0000000e+00 
0.0000000e+00 3.9705882e+00 0.0000000e+00 
0.0000000e+00 3.8235295e+00 0.0000000e+00 
0.0000000e+00 3.6764705e+00 0.0000000e+00 
0.0000000e+00 3.5294118e+00 0.0000000e+00 
0.0000000e+00 3.3823528e+00 0.0000000e+00 
0.0000000e+00 3.2352941e+00 0.0000000e+00 
0.0000000e+00 3.0882354e+00 0.0000000e+00 
0.0000000e+00 2.9411764e+00 0.0000000e+00 
0.0000000e+00 2.7941177e+00 0.0000000e+00 
0.0000000e+00 2.6470587e+00 0.0000000e+00 
0.0000000e+00 2.5000000e+00 0.0000000e+00 
0.0000000e+00 2.3529413e+00 0.0000000e+00 
0.0000000e+00 2.2058823e+00 0.0000000e+00 
0.0000000e+00 2.0588236e+00 0.0000000e+00 
0.0000000e+00 1.9117647e+00 0.0000000e+00 
0.0000000e+00 1.7647059e+00 0.0000000e+00 
0.0000000e+00 1.6176471e+00 0.0000000e+00 
0.0000000e+00 1.4705882e+00 0.0000000e+00 
0.0000000e+00 1.3235294e+00 0.0000000e+00 
0.0000000e+00 1.1764706e+00 0.0000000e+00 
0.0000000e+00 1.0294118e+00 0.0000000e+00 
0.0000000e+00 8.8235295e-01 0.0000000e+00 
0.0000000e+00 7.3529410e-01 0.0000000e+00 
0.0000000e+00 5.8823532e-01 0.0000000e+00 
0.0000000e+00 4.4117647e-01 0.0000000e+00 
0.0000000e+00 2.9411766e-01 0.0000000e+00 
0.0000000e+00 1.4705883e-01 0.0000000e+00 
1.0000000e+00 1.4705883e-01 0.0000000e+00 
1.0000000e+00 2.9411766e-01 0.0000000e+00 
1.0000000e+00 4.4117647e-01 0.0000000e+00 
1.0000000e+00 5.8823532e-01 0.0000000e+00 
1.0000000e+00 7.3529410e-01 0.0000000e+00 
1.0000000e+00 8.8235295e-01 0.0000000e+00 
1.0000000e+00 1.0294118e+00 0.0000000e+00 
1.0000000e+00 1.1764706e+00 0.0000000e+00 
1.0000000e+00 1.3235294e+00 0.0000000e+00 
1.0000000e+00 1.4705882e+00 0.0000000e+00 
1.0000000e+00 1.6176471e+00 0.0000000e+00 
1.0000000e+00 1.7647059e+00 0.0000000e+00 
1.0000000e+00 1.9117647e+00 0.0000000e+00 
1.0000000e+00 2.0588236e+00 0.0000000e+00 
1.0000000e+00 2.2058823e+00 0.0000000e+00 
1.0000000e+00 2.3529413e+00 0.0000000e+00 
1.0000000e+00 2.5000000e+00 0.0000000e+00 
1.0000000e+00 2.6470587e+00 0.0000000e+00 
1.0000000e+00 2.7941177e+00 0.0000000e+00 
1.0000000e+00 2.9411764e+00 0.0000000e+00 
1.0000000e+00 3.0882354e+00 0.0000000e+00 
1.0000000e+00 3.2352941e+00 0.0000000e+00 
1.0000000e+00 3.3823528e+00 0.0000000e+00 
1.0000000e+00 3.5294118e+00 0.0000000e+00 
1.0000000e+00 3.6764705e+00 0.0000000e+00 
1.0000000e+00 3.8235295e+00 0.0000000e+00 
1.0000000e+00 3.9705882e+00 0.0000000e+00 
1.0000000e+00 4.1176472e+00 0.0000000e+00 
1.0000000e+00 4.2647057e+00 0.0000000e+00 
1.0000000e+00 4.4117646e+00 0.0000000e+00 
1.0000000e+00 4.5588236e+00 0.0000000e+00 
1.0000000e+00 4.7058825e+00 0.0000000e+00 
1.0000000e+00 4.8529410e+00 0.0000000e+00 
0.0000000e+00 9.8529415e+00 0.0000000e+00 
0.0000000e+00 9.7058821e+00 0.0000000e+00 
0.0000000e+00 9.5588236e+00 0.0000000e+00 
0.0000000e+00 9.4117651e+00 0.0000000e+00 
0.0000000e+00 9.2647057e+00 0.0000000e+00 
0.0000000e+00 9.1176472e+00 0.0000000e+00 
0.0000000e+00 8.9705887e+00 0.0000000e+00 
0.0000000e+00 8.8235292e+00 0.0000000e+00 
0.0000000e+00 8.6764708e+00 0.0000000e+00 
0.0000000e+00 8.5294113e+00 0.0000000e+00 
0.0000000e+00 8.3823528e+00 0.0000000e+00 
0.0000000e+00 8.2352943e+00 0.0000000e+00 
0.0000000e+00 8.0882349e+00 0.0000000e+00 
0.0000000e+00 7.9411764e+00 0.0000000e+00 
0.0000000e+00 7.7941175e+00 0.0000000e+00 
0.0000000e+00 7.6470590e+00 0.0000000e+00 
0.0000000e+00 7.5000000e+00 0.0000000e+00 
0.0000000e+00 7.3529410e+00 0.0000000e+00 
0.0000000e+00 7.2058825e+00 0.0000000e+00 
0.0000000e+00 7.0588236e+00 0.0000000e+00 
0.0000000e+00 6.9117646e+00 0.0000000e+00 
0.0000000e+00 6.7647057e+00 0.0000000e+00 
0.0000000e+00 6.6176472e+00 0.0000000e+00 
0.0000000e+00 6.4705882e+00 0.0000000e+00 
0.0000000e+00 6.3235292e+00 0.0000000e+00 
0.0000000e+00 6.1764708e+00 0.0000000e+00 
0.0000000e+00 6.0294118e+00 0.0000000e+00 
0.0000000e+00 5.8823528e+00 0.0000000e+00 
0.0000000e+00 5.7352943e+00 0.0000000e+00 
0.0000000e+00 5.5882354e+00 0.0000000e+00 
0.0000000e+00 5.4411764e+00 0.0000000e+00 
0.0000000e+00 5.2941175e+00 0.0000000e+00 
0.0000000e+00 5.1470590e+00 0.0000000e+00 
1.0000000e+00 5.1470590e+00 0.0000000e+00 
1.0000000e+00 5.2941175e+00 0.0000000e+00 
1.0000000e+00 5.4411764e+00 0.0000000e+00 
1.0000000e+00 5.5882354e+00 0.0000000e+00 
1.0000000e+00 5.7352943e+00 0.0000000e+00 
1.0000000e+00 5.8823528e+00 0.0000000e+00 
1.0000000e+00 6.0294118e+00 0.0000000e+00 
1.0000000e+00 6.1764708e+00 0.0000000e+00 
1.0000000e+00 6.3235292e+00 0.0000000e+00 
1.0000000e+00 6.4705882e+00 0.0000000e+00 
1.0000000e+00 6.6176472e+00 0.0000000e+00 
1.0000000e+00 6.7647057e+00 0.0000000e+00 
1.0000000e+00 6.9117646e+00 0.0000000e+00 
1.0000000e+00 7.0588236e+00 0.0000000e+00 
1.0000000e+00 7.2058825e+00 0.0000000e+00 
1.0000000e+00 7.3529410e+00 0.0000000e+00 
1.0000000e+00 7.5000000e+00 0.0000000e+00 
1.0000000e+00 7.6470590e+00 0.0000000e+00 
1.0000000e+00 7.7941175e+00 0.0000000e+00 
1.0000000e+00 7.9411764e+00 0.0000000e+00 
1.0000000e+00 8.0882349e+00 0.0000000e+00 
1.0000000e+00 8.2352943e+00 0.0000000e+00 
1.0000000e+00 8.3823528e+00 0.0000000e+00 
1.0000000e+00 8.5294113e+00 0.0000000e+00 
1.0000000e+00 8.6764708e+00 0.0000000e+00 
1.0000000e+00 8.8235292e+00 0.0000000e+00 
1.0000000e+00 8.9705887e+00 0.0000000e+00 
1.0000000e+00 9.1176472e+00 0.0000000e+00 
1.0000000e+00 9.2647057e+00 0.0000000e+00 
1.0000000e+00 9.4117651e+00 0.0000000e+00 
1.0000000e+00 9.5588236e+00 0.0000000e+00 
1.0000000e+00 9.7058821e+00 0.0000000e+00 
1.0000000e+00 9.8529415e+00 0.0000000e+00 
5.0212586e-01 4.8703580e+00 0.0000000e+00 
5.1041055e-01 1.3732977e-01 0.0000000e+00 
1.3055173e-01 6.6499180e-01 0.0000000e+00 
8.7327349e-01 4.3372407e+00 0.0000000e+00 
8.7331611e-01 3.8958969e+00 0.0000000e+00 
8.7347627e-01 3.4562511e+00 0.0000000e+00 
8.7357801e-01 2.8680170e+00 0.0000000e+00 
1.2843554e-01 2.1327813e+00 0.0000000e+00 
1.2975387e-01 1.5449892e+00 0.0000000e+00 
1.3308091e-01 1.1039938e+00 0.0000000e+00 
1.2937543e-01 2.5737903e+00 0.0000000e+00 
1.2735668e-01 3.1617646e+00 0.0000000e+00 
8.7375563e-01 1.8386052e+00 0.0000000e+00 
8.7355548e-01 2.2778318e+00 0.0000000e+00 
1.2753446e-01 4.1915216e+00 0.0000000e+00 
8.7915283e-01 8.0759794e-01 0.0000000e+00 
8.8115031e-01 1.2498868e+00 0.0000000e+00 
1.2781374e-01 3.7501886e+00 0.0000000e+00 
8.7352717e-01 3.1621344e+00 0.0000000e+00 
1.2961270e-01 1.8389882e+00 0.0000000e+00 
1.2731366e-01 4.4857054e+00 0.0000000e+00 
1.2885660e-01 2.8684020e+00 0.0000000e+00 
8.7380636e-01 1.5444875e+00 0.0000000e+00 
8.7362880e-01 2.5738993e+00 0.0000000e+00 
1.2735668e-01 3.4558823e+00 0.0000000e+00 
8.7264335e-01 5.1470590e-01 0.0000000e+00 
8.7611687e-01 4.6317782e+00 0.0000000e+00 
1.3446054e-01 3.7013325e-01 0.0000000e+00 
1.2296320e-01 4.7760825e+00 0.0000000e+00 
8.8210768e-01 2.2118840e-01 0.0000000e+00 
2.1798968e-01 1.0548568e-01 0.0000000e+00 
7.7656764e-01 4.8704844e+00 0.0000000e+00 
1.2667844e-01 4.6331582e+00 0.0000000e+00 
2.5353336e-01 4.5619426e+00 0.0000000e+00 
2.5451174e-01 4.4132285e+00 0.0000000e+00 
3.8040194e-01 4.4881525e+00 0.0000000e+00 
3.8161713e-01 4.3403850e+00 0.0000000e+00 
5.0654775e-01 4.4141955e+00 0.0000000e+00 
5.0629890e-01 4.2659345e+00 0.0000000e+00 
5.0658631e-01 4.5616083e+00 0.0000000e+00 
3.8184282e-01 4.1932206e+00 0.0000000e+00 
5.0831819e-01 4.1188259e+00 0.0000000e+00 
3.8249290e-01 4.0462651e+00 0.0000000e+00 
5.0818664e-01 3.9732957e+00 0.0000000e+00 
3.8265404e-01 3.8991868e+00 0.0000000e+00 
5.0769192e-01 3.8249388e+00 0.0000000e+00 
3.8307732e-01 3.7517705e+00 0.0000000e+00 
5.0990808e-01 3.6776419e+00 0.0000000e+00 
3.8416636e-01 3.6049941e+00 0.0000000e+00 
5.1177651e-01 3.5322094e+00 0.0000000e+00 
3.8460994e-01 3.4584429e+00 0.0000000e+00 
5.1256055e-01 3.3855147e+00 0.0000000e+00 
3.8520575e-01 3.3115354e+00 0.0000000e+00 
5.1318693e-01 3.2385471e+00 0.0000000e+00 
3.8561273e-01 3.1645203e+00 0.0000000e+00 
5.1375473e-01 3.0915136e+00 0.0000000e+00 
3.8616878e-01 3.0174749e+00 0.0000000e+00 
5.1433694e-01 2.9444630e+00 0.0000000e+00 
3.8656160e-01 2.8704205e+00 0.0000000e+00 
5.1489413e-01 2.7974076e+00 0.0000000e+00 
3.8711417e-01 2.7233641e+00 0.0000000e+00 
5.1547360e-01 2.6503508e+00 0.0000000e+00 
3.8750717e-01 2.5763063e+00 0.0000000e+00 
5.1603019e-01 2.5032935e+00 0.0000000e+00 
3.8805979e-01 2.4292488e+00 0.0000000e+00 
5.1422137e-01 2.3562264e+00 0.0000000e+00 
3.8765049e-01 2.2821872e+00 0.0000000e+00 
5.1307547e-01 2.2071202e+00 0.0000000e+00 
3.8778570e-01 2.1347876e+00 0.0000000e+00 
5.1568961e-01 2.0596735e+00 0.0000000e+00 
3.9013749e-01 1.9876142e+00 0.0000000e+00 
5.1808232e-01 1.9145784e+00 0.0000000e+00 
3.8994926e-01 1.8408588e+00 0.0000000e+00 
5.1884413e-01 1.7678982e+00 0.0000000e+00 
[...]
POINT_DATA 628
FIELD FieldData 1
VELOCITY 3 628  float
0.0000000e+00 0.0000000e+00 0.0000000e+00 
0.0000000e+00 0.0000000e+00 0.0000000e+00 
0.0000000e+00 -3.4067798e-03 0.0000000e+00 
0.0000000e+00 -3.4228172e-03 0.0000000e+00 
0.0000000e+00 -8.2887214e-04 0.0000000e+00 
0.0000000e+00 -8.2653930e-04 0.0000000e+00 
0.0000000e+00 0.0000000e+00 0.0000000e+00 
0.0000000e+00 0.0000000e+00 0.0000000e+00 
0.0000000e+00 0.0000000e+00 0.0000000e+00 
0.0000000e+00 0.0000000e+00 0.0000000e+00 
0.0000000e+00 0.0000000e+00 0.0000000e+00 
0.0000000e+00 0.0000000e+00 0.0000000e+00 
2.6981863e-06 -3.4372185e-03 0.0000000e+00 
-1.3768212e-05 -3.4210826e-03 0.0000000e+00 
1.6902521e-05 -3.4126695e-03 0.0000000e+00 
-2.3007566e-05 -3.4394353e-03 0.0000000e+00 
-7.9633483e-06 -3.4222514e-03 0.0000000e+00 
1.1913081e-05 -3.4259749e-03 0.0000000e+00 
3.7381665e-06 -8.3274581e-04 0.0000000e+00 
3.7343748e-06 -8.3320652e-04 0.0000000e+00 
1.3225007e-07 -8.2981290e-04 0.0000000e+00 
4.7186168e-06 -8.2860759e-04 0.0000000e+00 
-3.4423917e-06 -8.3426235e-04 0.0000000e+00 
-1.9856446e-07 -8.3276758e-04 0.0000000e+00 
0.0000000e+00 -7.8611815e-04 0.0000000e+00 
0.0000000e+00 -7.6558848e-04 0.0000000e+00 
0.0000000e+00 -7.7552890e-04 0.0000000e+00 
0.0000000e+00 -7.0244627e-04 0.0000000e+00 
0.0000000e+00 -5.4337224e-04 0.0000000e+00 
0.0000000e+00 -3.1091762e-04 0.0000000e+00 
0.0000000e+00 -1.8282862e-04 0.0000000e+00 
0.0000000e+00 -1.2996588e-04 0.0000000e+00 
0.0000000e+00 -8.0767699e-05 0.0000000e+00 
0.0000000e+00 -6.7919034e-05 0.0000000e+00 
0.0000000e+00 -6.9803442e-05 0.0000000e+00 
0.0000000e+00 -1.0670590e-04 0.0000000e+00 
0.0000000e+00 -9.2562121e-05 0.0000000e+00 
0.0000000e+00 -1.0507940e-04 0.0000000e+00 
0.0000000e+00 -1.5736734e-04 0.0000000e+00 
0.0000000e+00 -1.2013663e-04 0.0000000e+00 
0.0000000e+00 -4.3446187e-05 0.0000000e+00 
0.0000000e+00 5.2004511e-05 0.0000000e+00 
0.0000000e+00 1.0968347e-04 0.0000000e+00 
0.0000000e+00 1.2360510e-04 0.0000000e+00 
0.0000000e+00 9.0905407e-05 0.0000000e+00 
0.0000000e+00 -6.4323285e-05 0.0000000e+00 
0.0000000e+00 -1.7281622e-04 0.0000000e+00 
0.0000000e+00 -1.4689377e-04 0.0000000e+00 
0.0000000e+00 -1.1439878e-04 0.0000000e+00 
0.0000000e+00 2.2446411e-06 0.0000000e+00 
0.0000000e+00 1.6851483e-04 0.0000000e+00 
0.0000000e+00 1.8225689e-04 0.0000000e+00 
0.0000000e+00 1.0141258e-04 0.0000000e+00 
0.0000000e+00 3.1224188e-06 0.0000000e+00 
0.0000000e+00 -1.3803664e-04 0.0000000e+00 
0.0000000e+00 -1.9962915e-04 0.0000000e+00 
0.0000000e+00 -1.1496635e-04 0.0000000e+00 
0.0000000e+00 -1.1577213e-04 0.0000000e+00 
0.0000000e+00 -2.0278755e-04 0.0000000e+00 
0.0000000e+00 -1.3981899e-04 0.0000000e+00 
0.0000000e+00 9.7577106e-07 0.0000000e+00 
0.0000000e+00 1.0270379e-04 0.0000000e+00 
0.0000000e+00 1.8307602e-04 0.0000000e+00 
0.0000000e+00 1.6353469e-04 0.0000000e+00 
0.0000000e+00 6.1809487e-06 0.0000000e+00 
0.0000000e+00 -1.1103795e-04 0.0000000e+00 
0.0000000e+00 -1.5340754e-04 0.0000000e+00 
0.0000000e+00 -1.7408376e-04 0.0000000e+00 
0.0000000e+00 -5.7852594e-05 0.0000000e+00 
0.0000000e+00 9.0286921e-05 0.0000000e+00 
0.0000000e+00 1.2585094e-04 0.0000000e+00 
0.0000000e+00 1.1167791e-04 0.0000000e+00 
0.0000000e+00 4.7066187e-05 0.0000000e+00 
0.0000000e+00 -4.3926717e-05 0.0000000e+00 
0.0000000e+00 -1.1814860e-04 0.0000000e+00 
0.0000000e+00 -1.5711626e-04 0.0000000e+00 
0.0000000e+00 -9.9000477e-05 0.0000000e+00 
0.0000000e+00 -9.6948483e-05 0.0000000e+00 
0.0000000e+00 -1.0924516e-04 0.0000000e+00 
0.0000000e+00 -6.6567838e-05 0.0000000e+00 
0.0000000e+00 -6.6960187e-05 0.0000000e+00 
0.0000000e+00 -8.1783975e-05 0.0000000e+00 
0.0000000e+00 -1.3483096e-04 0.0000000e+00 
0.0000000e+00 -1.8420388e-04 0.0000000e+00 
0.0000000e+00 -3.1614027e-04 0.0000000e+00 
0.0000000e+00 -5.4777326e-04 0.0000000e+00 
0.0000000e+00 -6.9702475e-04 0.0000000e+00 
0.0000000e+00 -7.7795627e-04 0.0000000e+00 
0.0000000e+00 -7.6413731e-04 0.0000000e+00 
0.0000000e+00 -7.8519277e-04 0.0000000e+00 
0.0000000e+00 -3.4089177e-03 0.0000000e+00 
0.0000000e+00 -3.3335628e-03 0.0000000e+00 
0.0000000e+00 -3.1086195e-03 0.0000000e+00 
0.0000000e+00 -2.7886829e-03 0.0000000e+00 
0.0000000e+00 -2.4685089e-03 0.0000000e+00 
0.0000000e+00 -2.2735733e-03 0.0000000e+00 
0.0000000e+00 -2.1883070e-03 0.0000000e+00 
0.0000000e+00 -2.1353830e-03 0.0000000e+00 
0.0000000e+00 -2.0985873e-03 0.0000000e+00 
0.0000000e+00 -2.1464694e-03 0.0000000e+00 
0.0000000e+00 -2.3845155e-03 0.0000000e+00 
0.0000000e+00 -2.7087447e-03 0.0000000e+00 
0.0000000e+00 -2.9969730e-03 0.0000000e+00 
0.0000000e+00 -3.1620623e-03 0.0000000e+00 
0.0000000e+00 -3.2827253e-03 0.0000000e+00 
0.0000000e+00 -3.3955364e-03 0.0000000e+00 
0.0000000e+00 -3.4991126e-03 0.0000000e+00 
0.0000000e+00 -3.5058518e-03 0.0000000e+00 
0.0000000e+00 -3.4121426e-03 0.0000000e+00 
0.0000000e+00 -3.2941231e-03 0.0000000e+00 
0.0000000e+00 -3.1958923e-03 0.0000000e+00 
0.0000000e+00 -3.1275572e-03 0.0000000e+00 
0.0000000e+00 -3.0815445e-03 0.0000000e+00 
0.0000000e+00 -3.0439738e-03 0.0000000e+00 
0.0000000e+00 -2.9745526e-03 0.0000000e+00 
0.0000000e+00 -2.8329580e-03 0.0000000e+00 
0.0000000e+00 -2.5806238e-03 0.0000000e+00 
0.0000000e+00 -2.3021952e-03 0.0000000e+00 
0.0000000e+00 -2.0596192e-03 0.0000000e+00 
0.0000000e+00 -1.8351983e-03 0.0000000e+00 
0.0000000e+00 -1.5323347e-03 0.0000000e+00 
0.0000000e+00 -1.1965752e-03 0.0000000e+00 
0.0000000e+00 -9.3690318e-04 0.0000000e+00 
0.0000000e+00 -9.3697617e-04 0.0000000e+00 
0.0000000e+00 -1.2004278e-03 0.0000000e+00 
0.0000000e+00 -1.5298193e-03 0.0000000e+00 
0.0000000e+00 -1.8396656e-03 0.0000000e+00 
0.0000000e+00 -2.0627158e-03 0.0000000e+00 
0.0000000e+00 -2.3016836e-03 0.0000000e+00 
0.0000000e+00 -2.5755828e-03 0.0000000e+00 
0.0000000e+00 -2.8415667e-03 0.0000000e+00 
0.0000000e+00 -2.9708643e-03 0.0000000e+00 
0.0000000e+00 -3.0446565e-03 0.0000000e+00 
0.0000000e+00 -3.0716273e-03 0.0000000e+00 
0.0000000e+00 -3.1407338e-03 0.0000000e+00 
0.0000000e+00 -3.1908134e-03 0.0000000e+00 
0.0000000e+00 -3.2929436e-03 0.0000000e+00 
0.0000000e+00 -3.4104914e-03 0.0000000e+00 
0.0000000e+00 -3.5146489e-03 0.0000000e+00 
0.0000000e+00 -3.4960241e-03 0.0000000e+00 
0.0000000e+00 -3.3935069e-03 0.0000000e+00 
0.0000000e+00 -3.2821391e-03 0.0000000e+00 
0.0000000e+00 -3.1626979e-03 0.0000000e+00 
0.0000000e+00 -2.9963278e-03 0.0000000e+00 
0.0000000e+00 -2.7053524e-03 0.0000000e+00 
0.0000000e+00 -2.3851923e-03 0.0000000e+00 
0.0000000e+00 -2.1487693e-03 0.0000000e+00 
0.0000000e+00 -2.0925205e-03 0.0000000e+00 
0.0000000e+00 -2.1417714e-03 0.0000000e+00 
0.0000000e+00 -2.1880772e-03 0.0000000e+00 
0.0000000e+00 -2.2719319e-03 0.0000000e+00 
0.0000000e+00 -2.4639855e-03 0.0000000e+00 
0.0000000e+00 -2.7850780e-03 0.0000000e+00 
0.0000000e+00 -3.1135872e-03 0.0000000e+00 
0.0000000e+00 -3.3322268e-03 0.0000000e+00 
0.0000000e+00 -3.4159347e-03 0.0000000e+00 
-2.2884922e-06 -7.9211657e-04 0.0000000e+00 
-7.3494732e-07 -1.1039708e-04 0.0000000e+00 
-2.5245108e-06 5.9436486e-05 0.0000000e+00 
2.9507353e-06 -6.3249987e-04 0.0000000e+00 
-1.4201153e-06 -1.5850131e-04 0.0000000e+00 
9.7233738e-07 -6.4821987e-05 0.0000000e+00 
2.3495570e-06 -1.3608781e-04 0.0000000e+00 
1.6314902e-06 1.2143239e-04 0.0000000e+00 
1.9961174e-06 -1.6727780e-04 0.0000000e+00 
-1.2716414e-06 9.6594245e-05 0.0000000e+00 
-3.0514409e-06 -8.6377469e-05 0.0000000e+00 
-5.8173268e-06 -1.0676199e-04 0.0000000e+00 
1.6908252e-06 2.6546448e-05 0.0000000e+00 
2.6651446e-06 9.3900213e-05 0.0000000e+00 
-1.8763047e-06 -4.2936939e-04 0.0000000e+00 
4.0896012e-07 1.4640133e-04 0.0000000e+00 
-1.1082345e-06 -6.7234483e-05 0.0000000e+00 
-1.1549888e-06 -9.7213670e-05 0.0000000e+00 
1.7537025e-06 -1.0797437e-04 0.0000000e+00 
3.1423704e-07 2.5533929e-05 0.0000000e+00 
5.3250187e-07 -7.4483926e-04 0.0000000e+00 
7.2715352e-07 -1.3795301e-04 0.0000000e+00 
-2.7831882e-06 -1.7126987e-04 0.0000000e+00 
1.7867093e-07 -8.5995562e-05 0.0000000e+00 
5.8747232e-06 -6.7631263e-05 0.0000000e+00 
1.0330274e-08 -6.7848567e-05 0.0000000e+00 
4.4286580e-07 -7.6909625e-04 0.0000000e+00 
7.3764971e-07 -1.9085928e-04 0.0000000e+00 
1.9359142e-07 -7.6898176e-04 0.0000000e+00 
-2.9918933e-06 -1.7074344e-04 0.0000000e+00 
-2.2430997e-06 -8.4744293e-05 0.0000000e+00 
7.4824078e-07 -7.9684635e-04 0.0000000e+00 
-2.4699465e-10 -7.7009934e-04 0.0000000e+00 
-1.2679851e-07 -7.7157840e-04 0.0000000e+00 
-2.0097673e-06 -6.9901935e-04 0.0000000e+00 
-4.6020119e-07 -7.4753771e-04 0.0000000e+00 
-2.7968570e-06 -6.3664385e-04 0.0000000e+00 
-9.1393281e-07 -7.0059608e-04 0.0000000e+00 
7.1380975e-07 -5.4258166e-04 0.0000000e+00 
-1.3620731e-06 -7.7005289e-04 0.0000000e+00 
2.0255943e-06 -4.3376503e-04 0.0000000e+00 
-1.7480664e-07 -3.1765716e-04 0.0000000e+00 
-2.5640725e-06 -2.3203560e-04 0.0000000e+00 
-1.4761653e-06 -1.9018279e-04 0.0000000e+00 
-1.3079725e-06 -1.5634474e-04 0.0000000e+00 
-6.2806004e-07 -1.3012500e-04 0.0000000e+00 
1.7027098e-06 -1.0152302e-04 0.0000000e+00 
2.2663583e-06 -8.1214792e-05 0.0000000e+00 
9.3612283e-07 -7.7512479e-05 0.0000000e+00 
-4.1522418e-07 -6.9649446e-05 0.0000000e+00 
-1.6218302e-06 -6.6603105e-05 0.0000000e+00 
-1.9540694e-06 -6.9872258e-05 0.0000000e+00 
-1.3066842e-06 -9.5585478e-05 0.0000000e+00 
3.3195556e-07 -1.1134637e-04 0.0000000e+00 
1.5136633e-06 -1.1165530e-04 0.0000000e+00 
1.5029526e-06 -9.3005103e-05 0.0000000e+00 
1.1841147e-06 -7.9791622e-05 0.0000000e+00 
-1.1555159e-06 -9.9830686e-05 0.0000000e+00 
-1.1869247e-06 -1.3258454e-04 0.0000000e+00 
-6.1613719e-08 -1.5814436e-04 0.0000000e+00 
1.2693827e-06 -1.5094316e-04 0.0000000e+00 
1.4365871e-06 -1.2626949e-04 0.0000000e+00 
-1.4494821e-06 -8.5456697e-05 0.0000000e+00 
-5.0610254e-07 -4.6816156e-05 0.0000000e+00 
1.9086076e-06 -5.4289620e-07 0.0000000e+00 
-1.6118354e-07 4.4456348e-05 0.0000000e+00 
2.3488029e-07 8.6100983e-05 0.0000000e+00 
3.5782844e-07 1.1412720e-04 0.0000000e+00 
-8.1146993e-07 1.2216039e-04 0.0000000e+00 
-2.0955913e-06 1.2812353e-04 0.0000000e+00 
-3.6074087e-07 1.2357668e-04 0.0000000e+00 
7.9236928e-09 9.2159986e-05 0.0000000e+00 
1.1766563e-06 3.0637748e-05 0.0000000e+00 
5.3549769e-07 -5.6843346e-05 0.0000000e+00 
-1.7250460e-06 -1.3277281e-04 0.0000000e+00 
-9.3194734e-07 -1.6960436e-04 0.0000000e+00 
1.0040105e-06 -1.6888480e-04 0.0000000e+00 
-1.1429236e-06 -1.5111233e-04 0.0000000e+00 
-1.4035622e-07 -1.3384903e-04 0.0000000e+00 
-8.5494145e-07 -1.1120112e-04 0.0000000e+00 
2.1437586e-06 -7.2941417e-05 0.0000000e+00 
1.1901610e-07 -3.2072041e-08 0.0000000e+00 
-2.4391829e-06 9.0803871e-05 0.0000000e+00 
1.2854434e-06 1.6354828e-04 0.0000000e+00 
2.3393081e-07 1.9617459e-04 0.0000000e+00 
2.2057068e-06 1.8357069e-04 0.0000000e+00 
-2.9534581e-07 1.4815290e-04 0.0000000e+00 
-3.0840772e-07 1.0786383e-04 0.0000000e+00 
-1.5630808e-06 6.4309665e-05 0.0000000e+00 
-4.0171805e-08 1.0981375e-05 0.0000000e+00 
1.8112664e-06 -6.1515551e-05 0.0000000e+00 
4.6893601e-07 -1.3286779e-04 0.0000000e+00 
1.2640417e-06 -1.8832920e-04 0.0000000e+00 
5.3779104e-07 -2.2774766e-04 0.0000000e+00 
6.1037503e-07 -7.4622029e-04 0.0000000e+00 
6.9728594e-07 -7.5681128e-05 0.0000000e+00 
-1.8489810e-06 1.2139194e-04 0.0000000e+00 
8.1814051e-07 -7.6961890e-04 0.0000000e+00 
-8.2209237e-07 -9.0374808e-05 0.0000000e+00 
-6.5057276e-07 -8.2668070e-05 0.0000000e+00 
2.9820146e-07 1.9434694e-04 0.0000000e+00 
-7.8780073e-07 -1.5144842e-04 0.0000000e+00 
-3.9036859e-06 -2.6604087e-06 0.0000000e+00 
-3.9180597e-07 -1.2894379e-04 0.0000000e+00 
1.6500695e-07 -1.3382180e-04 0.0000000e+00 
2.3249245e-06 6.2219871e-05 0.0000000e+00 
4.9438455e-07 1.8188171e-04 0.0000000e+00 
9.4848254e-08 -1.1414450e-04 0.0000000e+00 
2.9202888e-06 5.4599455e-05 0.0000000e+00 
1.6761607e-06 -1.8429419e-04 0.0000000e+00 
3.0409067e-06 -1.9739992e-04 0.0000000e+00 
1.7727309e-06 -1.8309624e-04 0.0000000e+00 
-3.2339044e-06 -1.7309720e-04 0.0000000e+00 
2.5414363e-06 -7.6183793e-04 0.0000000e+00 
4.9153198e-07 -7.6909416e-04 0.0000000e+00 
-3.5258046e-07 -7.6963677e-04 0.0000000e+00 
5.9702410e-07 -1.3647378e-04 0.0000000e+00 
1.4699617e-06 -2.0380833e-04 0.0000000e+00 
4.1672184e-08 -1.7156888e-04 0.0000000e+00 
9.0556654e-07 9.5578755e-05 0.0000000e+00 
-5.4650116e-07 -1.2387340e-04 0.0000000e+00 
2.2614965e-07 -1.0051209e-04 0.0000000e+00 
-1.0788506e-06 -1.1998256e-04 0.0000000e+00 
2.2418399e-07 -7.1152492e-05 0.0000000e+00 
-8.1646732e-07 -7.6848670e-04 0.0000000e+00 
-1.1188882e-07 -6.3068961e-05 0.0000000e+00 
1.5526792e-08 7.1909294e-06 0.0000000e+00 
1.4560965e-07 -1.9178708e-04 0.0000000e+00 
-1.3872320e-06 -6.2573177e-05 0.0000000e+00 
-2.6292103e-06 -6.3336588e-04 0.0000000e+00 
3.3799151e-06 -7.4318406e-04 0.0000000e+00 
1.6911775e-06 5.6082834e-05 0.0000000e+00 
1.2061552e-06 1.4394714e-04 0.0000000e+00 
3.5425326e-06 -1.7797870e-04 0.0000000e+00 
-3.0494459e-06 1.6791676e-04 0.0000000e+00 
-1.3574719e-06 5.1900306e-06 0.0000000e+00 
-2.4415770e-06 -7.1566225e-05 0.0000000e+00 
9.4576347e-07 9.2906463e-05 0.0000000e+00 
1.0834935e-07 1.6649032e-04 0.0000000e+00 
-2.3946914e-06 -6.6746928e-05 0.0000000e+00 
-5.7484760e-07 1.2466812e-04 0.0000000e+00 
5.5990467e-06 1.1901240e-04 0.0000000e+00 
-3.2356178e-07 1.1875816e-04 0.0000000e+00 
-2.7523720e-07 -1.5508986e-04 0.0000000e+00 
-1.0639009e-06 -4.2335971e-05 0.0000000e+00 
-2.5151857e-07 5.3927770e-06 0.0000000e+00 
-1.9219058e-06 -7.2294912e-05 0.0000000e+00 
2.8181157e-06 -8.0719474e-05 0.0000000e+00 
2.1946391e-06 -9.6364944e-05 0.0000000e+00 
-1.6740264e-06 -9.1517511e-05 0.0000000e+00 
-1.0964922e-07 -8.1797545e-05 0.0000000e+00 
-1.0432816e-06 -1.6011552e-04 0.0000000e+00 
2.2114001e-07 -8.2785344e-05 0.0000000e+00 
5.4049060e-08 -4.3509458e-04 0.0000000e+00 
-1.4353765e-06 -5.4299593e-04 0.0000000e+00 
-1.4051892e-07 -2.2929789e-04 0.0000000e+00 
-3.6284985e-06 -9.8572251e-05 0.0000000e+00 
-3.6794911e-06 -1.2544521e-04 0.0000000e+00 
-1.6656799e-06 -7.3984767e-05 0.0000000e+00 
1.3395633e-06 1.2226441e-04 0.0000000e+00 
-4.2321417e-07 -5.8644488e-05 0.0000000e+00 
-6.6076802e-07 -1.3781758e-04 0.0000000e+00 
2.8569259e-06 -1.4949206e-04 0.0000000e+00 
1.6618858e-06 -1.5810998e-04 0.0000000e+00 
2.5307288e-06 -1.2711046e-04 0.0000000e+00 
-1.6951109e-06 5.1542503e-07 0.0000000e+00 
-1.7373275e-06 -8.8496046e-05 0.0000000e+00 
-1.4677056e-06 1.4340180e-04 0.0000000e+00 
2.4024806e-07 1.9679815e-04 0.0000000e+00 
-4.7081801e-07 -1.3168590e-04 0.0000000e+00 
-2.2321306e-06 -1.5670722e-04 0.0000000e+00 
1.0376214e-06 -1.3255190e-04 0.0000000e+00 
-2.7362566e-06 -1.7101530e-04 0.0000000e+00 
7.5606994e-07 1.2813663e-04 0.0000000e+00 
-1.2116607e-07 1.1400731e-04 0.0000000e+00 
3.2223790e-07 3.1471460e-05 0.0000000e+00 
1.5130893e-06 -8.7578628e-05 0.0000000e+00 
-4.9649339e-07 -1.3280942e-04 0.0000000e+00 
-1.5155516e-07 -1.1149498e-04 0.0000000e+00 
8.3439659e-08 -6.8412788e-05 0.0000000e+00 
2.1319454e-06 -2.3321908e-04 0.0000000e+00 
-2.7381857e-06 -3.1485452e-04 0.0000000e+00 
-2.5803365e-06 -5.4387178e-04 0.0000000e+00 
6.5062085e-07 -1.3122022e-04 0.0000000e+00 
-1.5029975e-06 -8.1705119e-05 0.0000000e+00 
1.5077601e-06 9.4150804e-05 0.0000000e+00 
9.0481575e-07 -7.6158717e-04 0.0000000e+00 
9.4980157e-07 -7.9028303e-04 0.0000000e+00 
-3.1939928e-06 1.0350198e-04 0.0000000e+00 
-1.2725120e-06 -7.5920869e-04 0.0000000e+00 
3.8823446e-06 -6.9868594e-04 0.0000000e+00 
2.9926346e-06 -7.6801528e-04 0.0000000e+00 
1.7408566e-07 -1.7308844e-04 0.0000000e+00 
-5.6466126e-07 -1.8172142e-04 0.0000000e+00 
2.4867313e-06 -7.7100081e-04 0.0000000e+00 
1.7778528e-06 -1.0205035e-04 0.0000000e+00 
-1.4126233e-07 -6.3422089e-04 0.0000000e+00 
-1.1190930e-06 -4.3199249e-04 0.0000000e+00 
2.0625005e-06 -3.1161591e-04 0.0000000e+00 
-2.5049468e-07 -1.5639671e-04 0.0000000e+00 
-2.3975392e-06 5.2675925e-05 0.0000000e+00 
-6.8047422e-07 -9.6497643e-05 0.0000000e+00 
-1.6594582e-06 -7.9298392e-05 0.0000000e+00 
4.8991473e-09 -7.5921664e-05 0.0000000e+00 
9.0945366e-07 -7.6734039e-05 0.0000000e+00 
-2.8247382e-06 -1.1478144e-04 0.0000000e+00 
1.9608526e-06 -9.6618751e-05 0.0000000e+00 
-3.0888993e-06 1.9378938e-04 0.0000000e+00 
5.4698421e-07 -1.0176737e-04 0.0000000e+00 
1.2304560e-06 -1.5808908e-04 0.0000000e+00 
-2.3777477e-06 -1.2239779e-04 0.0000000e+00 
8.0126284e-07 1.2644321e-04 0.0000000e+00 
-1.2257946e-06 -4.2637865e-05 0.0000000e+00 
2.7754045e-06 8.7978362e-05 0.0000000e+00 
-1.7351043e-06 1.2599614e-04 0.0000000e+00 
1.0164556e-06 8.9531546e-05 0.0000000e+00 
-5.6099264e-08 -5.2995649e-05 0.0000000e+00 
-2.7779959e-06 -1.6873796e-04 0.0000000e+00 
-2.5234490e-06 5.0843114e-06 0.0000000e+00 
-1.5888700e-06 -1.5322924e-04 0.0000000e+00 
1.0521300e-06 -1.1116343e-04 0.0000000e+00 
-4.9449063e-06 -2.0145417e-04 0.0000000e+00 
2.5726081e-06 -1.3913275e-04 0.0000000e+00 
-9.7632710e-07 1.8784440e-06 0.0000000e+00 
-3.9689617e-06 1.8193595e-04 0.0000000e+00 
-4.6516186e-07 9.3661998e-05 0.0000000e+00 
5.0716499e-06 1.0299396e-04 0.0000000e+00 
-6.2198473e-07 -8.3644030e-05 0.0000000e+00 
8.4330912e-07 -7.6943346e-05 0.0000000e+00 
6.2046712e-07 -8.0680469e-04 0.0000000e+00 
-5.8570726e-07 -8.0221728e-04 0.0000000e+00 
9.0627486e-07 -7.9801958e-04 0.0000000e+00 
-2.6021209e-07 -8.0279581e-04 0.0000000e+00 
-3.4026928e-06 -8.0419399e-05 0.0000000e+00 
1.9846648e-06 -8.2013641e-05 0.0000000e+00 
8.0150113e-07 -1.5211651e-04 0.0000000e+00 
-9.0943504e-06 -3.4058606e-03 0.0000000e+00 
-1.7802372e-06 -9.2098437e-04 0.0000000e+00 
-1.4331608e-06 -2.6110488e-03 0.0000000e+00 
1.7795343e-06 -1.9510181e-03 0.0000000e+00 
2.5682942e-07 -2.1049562e-03 0.0000000e+00 
1.0349071e-07 -2.7182116e-03 0.0000000e+00 
5.5495389e-07 -2.5440678e-03 0.0000000e+00 
-2.9134350e-07 -3.1587309e-03 0.0000000e+00 
2.5056888e-06 -3.4573351e-03 0.0000000e+00 
4.4818790e-07 -3.2248509e-03 0.0000000e+00 
-2.4886174e-07 -3.3452732e-03 0.0000000e+00 
-2.2816180e-06 -3.0196887e-03 0.0000000e+00 
3.7700127e-06 -2.3558210e-03 0.0000000e+00 
-5.9285532e-07 -2.8676870e-03 0.0000000e+00 
4.0455243e-06 -2.1824238e-03 0.0000000e+00 
3.0436499e-06 -2.1620849e-03 0.0000000e+00 
-1.6662540e-07 -2.9597497e-03 0.0000000e+00 
8.3716992e-07 -3.5188505e-03 0.0000000e+00 
2.6124494e-06 -2.2461223e-03 0.0000000e+00 
-2.0797629e-06 -3.2233512e-03 0.0000000e+00 
3.9033644e-06 -3.0191343e-03 0.0000000e+00 
2.1317487e-06 -3.1082318e-03 0.0000000e+00 
-1.1266296e-06 -1.6857375e-03 0.0000000e+00 
-8.8838306e-07 -2.7223246e-03 0.0000000e+00 
-9.6022848e-07 -3.4801513e-03 0.0000000e+00 
-5.7262432e-06 -2.1055238e-03 0.0000000e+00 
-7.0362955e-07 -3.2513528e-03 0.0000000e+00 
-2.3320097e-06 -1.3503039e-03 0.0000000e+00 
-7.0913296e-07 -1.0743109e-03 0.0000000e+00 
8.5000947e-06 -3.3895199e-03 0.0000000e+00 
2.3628794e-05 -3.4233460e-03 0.0000000e+00 
9.0184494e-06 -9.1988774e-04 0.0000000e+00 
2.8930265e-06 -1.3444583e-03 0.0000000e+00 
-2.2010945e-06 -1.5197617e-03 0.0000000e+00 
7.1929162e-07 -1.8368671e-03 0.0000000e+00 
5.6926492e-06 -1.6830555e-03 0.0000000e+00 
7.8247410e-07 -1.9415212e-03 0.0000000e+00 
-2.3218208e-06 -1.8329929e-03 0.0000000e+00 
1.6832838e-06 -2.0573845e-03 0.0000000e+00 
1.5173193e-06 -1.5193193e-03 0.0000000e+00 
2.5770285e-06 -2.1803959e-03 0.0000000e+00 
5.1000876e-07 -2.3041717e-03 0.0000000e+00 
-2.1368403e-06 -2.4335147e-03 0.0000000e+00 
4.5765611e-07 -2.5724897e-03 0.0000000e+00 
2.8927198e-08 -2.7162461e-03 0.0000000e+00 
-9.3493310e-07 -2.8360519e-03 0.0000000e+00 
-1.6443463e-06 -2.9123807e-03 0.0000000e+00 
-2.4740348e-07 -2.9709076e-03 0.0000000e+00 
-9.8671467e-07 -3.0148532e-03 0.0000000e+00 
6.3583002e-07 -3.0361209e-03 0.0000000e+00 
1.4714400e-06 -3.0462577e-03 0.0000000e+00 
-1.2283984e-07 -3.0702143e-03 0.0000000e+00 
4.6210727e-07 -3.1057678e-03 0.0000000e+00 
1.1365013e-06 -3.1358458e-03 0.0000000e+00 
-3.3205305e-07 -3.1574753e-03 0.0000000e+00 
-2.0089319e-06 -3.1899302e-03 0.0000000e+00 
-1.8059441e-06 -3.2448750e-03 0.0000000e+00 
2.7411547e-06 -3.2940747e-03 0.0000000e+00 
1.1520734e-06 -3.3511443e-03 0.0000000e+00 