# vtk DataFile Version 4.0
vtk output
ASCII
DATASET UNSTRUCTURED_GRID
POINTS 628 float
0.0000000e+00 0.0000000e+00 0.0000000e+00 
1.0000000e+00 0.0000000e+00 0.0000000e+00 
1.0000000e+00 1.0000000e+01 0.0000000e+00 
0.0000000e+00 1.0000000e+01 0.0000000e+00 
0.0000000e+00 5.0000000e+00 0.0000000e+00 
1.0000000e+00 5.0000000e+00 0.0000000e+00 
1.4285715e-01 0.0000000e+00 0.0000000e+00 
2.8571430e-01 0.0000000e+00 0.0000000e+00 
4.2857143e-01 0.0000000e+00 0.0000000e+00 
5.7142860e-01 0.0000000e+00 0.0000000e+00 
7.1428573e-01 0.0000000e+00 0.0000000e+00 
8.5714287e-01 0.0000000e+00 0.0000000e+00 
8.5714287e-01 1.0000000e+01 0.0000000e+00 
7.1428573e-01 1.0000000e+01 0.0000000e+00 
5.7142860e-01 1.0000000e+01 0.0000000e+00 
4.2857143e-01 1.0000000e+01 0.0000000e+00 
2.8571430e-01 1.0000000e+01 0.0000000e+00 
1.4285715e-01 1.0000000e+01 0.0000000e+00 
1.4285715e-01 5.0000000e+00 0.0000000e+00 
2.8571430e-01 5.0000000e+00 0.0000000e+00 
4.2857143e-01 5.0000000e+00 0.0000000e+00 
5.7142860e-01 5.0000000e+00 0.0000000e+00 
7.1428573e-01 5.0000000e+00 0.0000000e+00 
8.5714287e-01 5.0000000e+00 0.0000000e+00 
0.0000000e+00 4.8529410e+00 0.0000000e+00 
0.0000000e+00 4.7058825e+00 0.0000000e+00 
0.0000000e+00 4.5588236e+00 0.0000000e+00 
0.0000000e+00 4.4117646e+00 0.0000000e+00 
0.0000000e+00 4.2647057e+00 0.0000000e+00 
0.0000000e+00 4.1176472e+00 0.0000000e+00 
0.0000000e+00 3.9705882e+00 0.0000000e+00 
0.0000000e+00 3.8235295e+00 0.0000000e+00 
0.0000000e+00 3.6764705e+00 0.0000000e+00 
0.0000000e+00 3.5294118e+00 0.0000000e+00 
0.0000000e+00 3.3823528e+00 0.0000000e+00 
0.0000000e+00 3.2352941e+00 0.0000000e+00 
0.0000000e+00 3.0882354e+00 0.0000000e+00 
0.0000000e+00 2.9411764e+00 0.0000000e+00 
0.0000000e+00 2.7941177e+00 0.0000000e+00 
0.0000000e+00 2.6470587e+00 0.0000000e+00 
0.0000000e+00 2.5000000e+00 0.0000000e+00 
0.0000000e+00 2.3529413e+00 0.0000000e+00 
0.0000000e+00 2.2058823e+00 0.0000000e+00 
0.0000000e+00 2.0588236e+00 0.0000000e+00 
0.0000000e+00 1.9117647e+00 0.0000000e+00 
0.0000000e+00 1.7647059e+00 0.0000000e+00 
0.0000000e+00 1.6176471e+00 0.0000000e+00 
0.0000000e+00 1.4705882e+00 0.0000000e+00 
0.0000000e+00 1.3235294e+00 0.0000000e+00 
0.0000000e+00 1.1764706e+00 0.0000000e+00 
0.0000000e+00 1.0294118e+00 0.0000000e+00 
0.0000000e+00 8.8235295e-01 0.0000000e+00 
0.0000000e+00 7.3529410e-01 0.0000000e+00 
0.0000000e+00 5.8823532e-01 0.0000000e+00 
0.0000000e+00 4.4117647e-01 0.0000000e+00 
0.0000000e+00 2.9411766e-01 0.0000000e+00 
0.0000000e+00 1.4705883e-01 0.0000000e+00 
1.0000000e+00 1.4705883e-01 0.0000000e+00 
1.0000000e+00 2.9411766e-01 0.0000000e+00 
1.0000000e+00 4.4117647e-01 0.0000000e+00 
1.0000000e+00 5.8823532e-01 0.0000000e+00 
1.0000000e+00 7.3529410e-01 0.0000000e+00 
1.0000000e+00 8.8235295e-01 0.0000000e+00 
1.0000000e+00 1.0294118e+00 0.0000000e+00 
1.0000000e+00 1.1764706e+00 0.0000000e+00 
1.0000000e+00 1.3235294e+00 0.0000000e+00 
1.0000000e+00 1.4705882e+00 0.0000000e+00 
1.0000000e+00 1.6176471e+00 0.0000000e+00 
1.0000000e+00 1.7647059e+00 0.0000000e+00 
1.0000000e+00 1.9117647e+00 0.0000000e+00 
1.0000000e+00 2.0588236e+00 0.0000000e+00 
1.0000000e+00 2.2058823e+00 0.0000000e+00 
1.0000000e+00 2.3529413e+00 0.0000000e+00 
1.0000000e+00 2.5000000e+00 0.0000000e+00 
1.0000000e+00 2.6470587e+00 0.0000000e+00 
1.0000000e+00 2.7941177e+00 0.0000000e+00 
1.0000000e+00 2.9411764e+00 0.0000000e+00 
1.0000000e+00 3.0882354e+00 0.0000000e+00 
1.0000000e+00 3.2352941e+00 0.0000000e+00 
1.0000000e+00 3.3823528e+00 0.0000000e+00 
1.0000000e+00 3.5294118e+00 0.0000000e+00 
1.0000000e+00 3.6764705e+00 0.0000000e+00 
1.0000000e+00 3.8235295e+00 0.0000000e+00 
1.0000000e+00 3.9705882e+00 0.0000000e+00 
1.0000000e+00 4.1176472e+00 0.0000000e+00 
1.0000000e+00 4.2647057e+00 0.0000000e+00 
1.0000000e+00 4.4117646e+00 0.0000000e+00 
1.0000000e+00 4.5588236e+00 0.0000000e+00 
1.0000000e+00 4.7058825e+00 0.0000000e+00 
1.0000000e+00 4.8529410e+00 0.0000000e+00 
0.0000000e+00 9.8529415e+00 0.0000000e+00 
0.0000000e+00 9.7058821e+00 0.0000000e+00 
0.0000000e+00 9.5588236e+00 0.0000000e+00 
0.0000000e+00 9.4117651e+00 0.0000000e+00 
0.0000000e+00 9.2647057e+00 0.0000000e+00 
0.0000000e+00 9.1176472e+00 0.0000000e+00 
0.0000000e+00 8.9705887e+00 0.0000000e+00 
0.0000000e+00 8.8235292e+00 0.0000000e+00 
0.0000000e+00 8.6764708e+00 0.0000000e+00 
0.0000000e+00 8.5294113e+00 0.0000000e+00 
0.0000000e+00 8.3823528e+00 0.0000000e+00 
0.0000000e+00 8.2352943e+00 0.0000000e+00 
0.0000000e+00 8.0882349e+00 0.0000000e+00 
0.0000000e+00 7.9411764e+00 0.0000000e+00 
0.0000000e+00 7.7941175e+00 0.0000000e+00 
0.0000000e+00 7.6470590e+00 0.0000000e+00 
0.0000000e+00 7.5000000e+00 0.0000000e+00 
0.0000000e+00 7.3529410e+00 0.0000000e+00 
0.0000000e+00 7.2058825e+00 0.0000000e+00 
0.0000000e+00 7.0588236e+00 0.0000000e+00 
0.0000000e+00 6.9117646e+00 0.0000000e+00 
0.0000000e+00 6.7647057e+00 0.0000000e+00 
0.0000000e+00 6.6176472e+00 0.0000000e+00 
0.0000000e+00 6.4705882e+00 0.0000000e+00 
0.0000000e+00 6.3235292e+00 0.0000000e+00 
0.0000000e+00 6.1764708e+00 0.0000000e+00 
0.0000000e+00 6.0294118e+00 0.0000000e+00 
0.0000000e+00 5.8823528e+00 0.0000000e+00 
0.0000000e+00 5.7352943e+00 0.0000000e+00 
0.0000000e+00 5.5882354e+00 0.0000000e+00 
0.0000000e+00 5.4411764e+00 0.0000000e+00 
0.0000000e+00 5.2941175e+00 0.0000000e+00 
0.0000000e+00 5.1470590e+00 0.0000000e+00 
1.0000000e+00 5.1470590e+00 0.0000000e+00 
1.0000000e+00 5.2941175e+00 0.0000000e+00 
1.0000000e+00 5.4411764e+00 0.0000000e+00 
1.0000000e+00 5.5882354e+00 0.0000000e+00 
1.0000000e+00 5.7352943e+00 0.0000000e+00 
1.0000000e+00 5.8823528e+00 0.0000000e+00 
1.0000000e+00 6.0294118e+00 0.0000000e+00 
1.0000000e+00 6.1764708e+00 0.0000000e+00 
1.0000000e+00 6.3235292e+00 0.0000000e+00 
1.0000000e+00 6.4705882e+00 0.0000000e+00 
1.0000000e+00 6.6176472e+00 0.0000000e+00 
1.0000000e+00 6.7647057e+00 0.0000000e+00 
1.0000000e+00 6.9117646e+00 0.0000000e+00 
1.0000000e+00 7.0588236e+00 0.0000000e+00 
1.0000000e+00 7.2058825e+00 0.0000000e+00 
1.0000000e+00 7.3529410e+00 0.0000000e+00 
1.0000000e+00 7.5000000e+00 0.0000000e+00 
1.0000000e+00 7.6470590e+00 0.0000000e+00 
1.0000000e+00 7.7941175e+00 0.0000000e+00 
1.0000000e+00 7.9411764e+00 0.0000000e+00 
1.0000000e+00 8.0882349e+00 0.0000000e+00 
1.0000000e+00 8.2352943e+00 0.0000000e+00 
1.0000000e+00 8.3823528e+00 0.0000000e+00 
1.0000000e+00 8.5294113e+00 0.0000000e+00 
1.0000000e+00 8.6764708e+00 0.0000000e+00 
1.0000000e+00 8.8235292e+00 0.0000000e+00 
1.0000000e+00 8.9705887e+00 0.0000000e+00 
1.0000000e+00 9.1176472e+00 0.0000000e+00 
1.0000000e+00 9.2647057e+00 0.0000000e+00 
1.0000000e+00 9.4117651e+00 0.0000000e+00 
1.0000000e+00 9.5588236e+00 0.0000000e+00 
1.0000000e+00 9.7058821e+00 0.0000000e+00 
1.0000000e+00 9.8529415e+00 0.0000000e+00 
5.0212586e-01 4.8703580e+00 0.0000000e+00 
5.1041055e-01 1.3732977e-01 0.0000000e+00 
1.3055173e-01 6.6499180e-01 0.0000000e+00 
8.7327349e-01 4.3372407e+00 0.0000000e+00 
8.7331611e-01 3.8958969e+00 0.0000000e+00 
8.7347627e-01 3.4562511e+00 0.0000000e+00 
8.7357801e-01 2.8680170e+00 0.0000000e+00 
1.2843554e-01 2.1327813e+00 0.0000000e+00 
1.2975387e-01 1.5449892e+00 0.0000000e+00 
1.3308091e-01 1.1039938e+00 0.0000000e+00 
1.2937543e-01 2.5737903e+00 0.0000000e+00 
1.2735668e-01 3.1617646e+00 0.0000000e+00 
8.7375563e-01 1.8386052e+00 0.0000000e+00 
8.7355548e-01 2.2778318e+00 0.0000000e+00 
1.2753446e-01 4.1915216e+00 0.0000000e+00 
8.7915283e-01 8.0759794e-01 0.0000000e+00 
8.8115031e-01 1.2498868e+00 0.0000000e+00 
1.2781374e-01 3.7501886e+00 0.0000000e+00 
8.7352717e-01 3.1621344e+00 0.0000000e+00 
1.2961270e-01 1.8389882e+00 0.0000000e+00 
1.2731366e-01 4.4857054e+00 0.0000000e+00 
1.2885660e-01 2.8684020e+00 0.0000000e+00 
8.7380636e-01 1.5444875e+00 0.0000000e+00 
8.7362880e-01 2.5738993e+00 0.0000000e+00 
1.2735668e-01 3.4558823e+00 0.0000000e+00 
8.7264335e-01 5.1470590e-01 0.0000000e+00 
8.7611687e-01 4.6317782e+00 0.0000000e+00 
1.3446054e-01 3.7013325e-01 0.0000000e+00 
1.2296320e-01 4.7760825e+00 0.0000000e+00 
8.8210768e-01 2.2118840e-01 0.0000000e+00 
2.1798968e-01 1.0548568e-01 0.0000000e+00 
7.7656764e-01 4.8704844e+00 0.0000000e+00 
1.2667844e-01 4.6331582e+00 0.0000000e+00 
2.5353336e-01 4.5619426e+00 0.0000000e+00 
2.5451174e-01 4.4132285e+00 0.0000000e+00 
3.8040194e-01 4.4881525e+00 0.0000000e+00 
3.8161713e-01 4.3403850e+00 0.0000000e+00 
5.0654775e-01 4.4141955e+00 0.0000000e+00 
5.0629890e-01 4.2659345e+00 0.0000000e+00 
5.0658631e-01 4.5616083e+00 0.0000000e+00 
3.8184282e-01 4.1932206e+00 0.0000000e+00 
5.0831819e-01 4.1188259e+00 0.0000000e+00 
3.8249290e-01 4.0462651e+00 0.0000000e+00 
5.0818664e-01 3.9732957e+00 0.0000000e+00 
3.8265404e-01 3.8991868e+00 0.0000000e+00 
5.0769192e-01 3.8249388e+00 0.0000000e+00 
3.8307732e-01 3.7517705e+00 0.0000000e+00 
5.0990808e-01 3.6776419e+00 0.0000000e+00 
3.8416636e-01 3.6049941e+00 0.0000000e+00 
5.1177651e-01 3.5322094e+00 0.0000000e+00 
3.8460994e-01 3.4584429e+00 0.0000000e+00 
5.1256055e-01 3.3855147e+00 0.0000000e+00 
3.8520575e-01 3.3115354e+00 0.0000000e+00 
5.1318693e-01 3.2385471e+00 0.0000000e+00 
3.8561273e-01 3.1645203e+00 0.0000000e+00 
5.1375473e-01 3.0915136e+00 0.0000000e+00 
3.8616878e-01 3.0174749e+00 0.0000000e+00 
5.1433694e-01 2.9444630e+00 0.0000000e+00 
3.8656160e-01 2.8704205e+00 0.0000000e+00 
5.1489413e-01 2.7974076e+00 0.0000000e+00 
3.8711417e-01 2.7233641e+00 0.0000000e+00 
5.1547360e-01 2.6503508e+00 0.0000000e+00 
3.8750717e-01 2.5763063e+00 0.0000000e+00 
5.1603019e-01 2.5032935e+00 0.0000000e+00 
3.8805979e-01 2.4292488e+00 0.0000000e+00 
5.1422137e-01 2.3562264e+00 0.0000000e+00 
3.8765049e-01 2.2821872e+00 0.0000000e+00 
5.1307547e-01 2.2071202e+00 0.0000000e+00 
3.8778570e-01 2.1347876e+00 0.0000000e+00 
5.1568961e-01 2.0596735e+00 0.0000000e+00 
3.9013749e-01 1.9876142e+00 0.0000000e+00 
5.1808232e-01 1.9145784e+00 0.0000000e+00 
3.8994926e-01 1.8408588e+00 0.0000000e+00 
5.1884413e-01 1.7678982e+00 0.0000000e+00 
[...]
POINT_DATA 628
FIELD FieldData 1
VELOCITY 3 628  float
0.0000000e+00 0.0000000e+00 0.0000000e+00 
0.0000000e+00 0.0000000e+00 0.0000000e+00 
0.0000000e+00 -2.8016830e-03 0.0000000e+00 
0.0000000e+00 -2.8310360e-03 0.0000000e+00 
0.0000000e+00 -2.5493789e-03 0.0000000e+00 
0.0000000e+00 -2.5499559e-03 0.0000000e+00 
0.0000000e+00 0.0000000e+00 0.0000000e+00 
0.0000000e+00 0.0000000e+00 0.0000000e+00 
0.0000000e+00 0.0000000e+00 0.0000000e+00 
0.0000000e+00 0.0000000e+00 0.0000000e+00 
0.0000000e+00 0.0000000e+00 0.0000000e+00 
0.0000000e+00 0.0000000e+00 0.0000000e+00 
1.3867688e-05 -2.7573353e-03 0.0000000e+00 
-1.0442500e-05 -2.8058891e-03 0.0000000e+00 
3.3054976e-06 -2.7877905e-03 0.0000000e+00 
1.7891392e-05 -2.8031701e-03 0.0000000e+00 
-5.7904719e-05 -2.8210490e-03 0.0000000e+00 
4.6986537e-05 -2.7725936e-03 0.0000000e+00 
3.6776757e-07 -2.5590418e-03 0.0000000e+00 
2.2828323e-07 -2.5613965e-03 0.0000000e+00 
2.2536162e-07 -2.5612272e-03 0.0000000e+00 
1.4654448e-07 -2.5606751e-03 0.0000000e+00 
-9.6723159e-07 -2.5615396e-03 0.0000000e+00 
-1.0513156e-06 -2.5595187e-03 0.0000000e+00 
0.0000000e+00 -2.7019265e-03 0.0000000e+00 
0.0000000e+00 -2.9305171e-03 0.0000000e+00 
0.0000000e+00 -3.0969460e-03 0.0000000e+00 
0.0000000e+00 -3.0978583e-03 0.0000000e+00 
0.0000000e+00 -2.9293238e-03 0.0000000e+00 
0.0000000e+00 -2.6762905e-03 0.0000000e+00 
0.0000000e+00 -2.4591088e-03 0.0000000e+00 
0.0000000e+00 -2.3743277e-03 0.0000000e+00 
0.0000000e+00 -2.4581577e-03 0.0000000e+00 
0.0000000e+00 -2.6822523e-03 0.0000000e+00 
0.0000000e+00 -2.9739372e-03 0.0000000e+00 
0.0000000e+00 -3.2464941e-03 0.0000000e+00 
0.0000000e+00 -3.4265330e-03 0.0000000e+00 
0.0000000e+00 -3.4697636e-03 0.0000000e+00 
0.0000000e+00 -3.3654463e-03 0.0000000e+00 
0.0000000e+00 -3.1304187e-03 0.0000000e+00 
0.0000000e+00 -2.7992076e-03 0.0000000e+00 
0.0000000e+00 -2.4129855e-03 0.0000000e+00 
0.0000000e+00 -2.0108165e-03 0.0000000e+00 
0.0000000e+00 -1.6241235e-03 0.0000000e+00 
0.0000000e+00 -1.2744194e-03 0.0000000e+00 
0.0000000e+00 -9.7362307e-04 0.0000000e+00 
0.0000000e+00 -7.2556402e-04 0.0000000e+00 
0.0000000e+00 -5.2831572e-04 0.0000000e+00 
0.0000000e+00 -3.7646017e-04 0.0000000e+00 
0.0000000e+00 -2.6282130e-04 0.0000000e+00 
0.0000000e+00 -1.7996888e-04 0.0000000e+00 
0.0000000e+00 -1.2093396e-04 0.0000000e+00 
0.0000000e+00 -7.9680845e-05 0.0000000e+00 
0.0000000e+00 -5.1243493e-05 0.0000000e+00 
0.0000000e+00 -3.1771113e-05 0.0000000e+00 
0.0000000e+00 -1.8230194e-05 0.0000000e+00 
0.0000000e+00 -8.2840197e-06 0.0000000e+00 
0.0000000e+00 -8.2896040e-06 0.0000000e+00 
0.0000000e+00 -1.8246048e-05 0.0000000e+00 
0.0000000e+00 -3.1776228e-05 0.0000000e+00 
0.0000000e+00 -5.1238225e-05 0.0000000e+00 
0.0000000e+00 -7.9661200e-05 0.0000000e+00 
0.0000000e+00 -1.2092540e-04 0.0000000e+00 
0.0000000e+00 -1.7998552e-04 0.0000000e+00 
0.0000000e+00 -2.6284411e-04 0.0000000e+00 
0.0000000e+00 -3.7645153e-04 0.0000000e+00 
0.0000000e+00 -5.2831369e-04 0.0000000e+00 
0.0000000e+00 -7.2555558e-04 0.0000000e+00 
0.0000000e+00 -9.7364071e-04 0.0000000e+00 
0.0000000e+00 -1.2744601e-03 0.0000000e+00 
0.0000000e+00 -1.6242008e-03 0.0000000e+00 
0.0000000e+00 -2.0109185e-03 0.0000000e+00 
0.0000000e+00 -2.4130510e-03 0.0000000e+00 
0.0000000e+00 -2.7992942e-03 0.0000000e+00 
0.0000000e+00 -3.1304939e-03 0.0000000e+00 
0.0000000e+00 -3.3654508e-03 0.0000000e+00 
0.0000000e+00 -3.4697198e-03 0.0000000e+00 
0.0000000e+00 -3.4263381e-03 0.0000000e+00 
0.0000000e+00 -3.2462559e-03 0.0000000e+00 
0.0000000e+00 -2.9736280e-03 0.0000000e+00 
0.0000000e+00 -2.6820055e-03 0.0000000e+00 
0.0000000e+00 -2.4581270e-03 0.0000000e+00 
0.0000000e+00 -2.3744893e-03 0.0000000e+00 
0.0000000e+00 -2.4591654e-03 0.0000000e+00 
0.0000000e+00 -2.6763403e-03 0.0000000e+00 
0.0000000e+00 -2.9293387e-03 0.0000000e+00 
0.0000000e+00 -3.0978497e-03 0.0000000e+00 
0.0000000e+00 -3.0967086e-03 0.0000000e+00 
0.0000000e+00 -2.9297858e-03 0.0000000e+00 
0.0000000e+00 -2.7008837e-03 0.0000000e+00 
0.0000000e+00 -2.7608711e-03 0.0000000e+00 
0.0000000e+00 -2.7987848e-03 0.0000000e+00 
0.0000000e+00 -2.8290316e-03 0.0000000e+00 
0.0000000e+00 -2.7800929e-03 0.0000000e+00 
0.0000000e+00 -2.8062514e-03 0.0000000e+00 
0.0000000e+00 -2.7771601e-03 0.0000000e+00 
0.0000000e+00 -2.8313352e-03 0.0000000e+00 
0.0000000e+00 -2.8252183e-03 0.0000000e+00 
0.0000000e+00 -2.7516577e-03 0.0000000e+00 
0.0000000e+00 -2.8615510e-03 0.0000000e+00 
0.0000000e+00 -2.7555530e-03 0.0000000e+00 
0.0000000e+00 -2.7932012e-03 0.0000000e+00 
0.0000000e+00 -2.8812489e-03 0.0000000e+00 
0.0000000e+00 -2.7501429e-03 0.0000000e+00 
0.0000000e+00 -2.7578613e-03 0.0000000e+00 
0.0000000e+00 -2.8896683e-03 0.0000000e+00 
0.0000000e+00 -2.8154855e-03 0.0000000e+00 
0.0000000e+00 -2.6969826e-03 0.0000000e+00 
0.0000000e+00 -2.7948264e-03 0.0000000e+00 
0.0000000e+00 -2.9187326e-03 0.0000000e+00 
0.0000000e+00 -2.8312211e-03 0.0000000e+00 
0.0000000e+00 -2.6816546e-03 0.0000000e+00 
0.0000000e+00 -2.7210282e-03 0.0000000e+00 
0.0000000e+00 -2.8952805e-03 0.0000000e+00 
0.0000000e+00 -2.9505696e-03 0.0000000e+00 
0.0000000e+00 -2.8054479e-03 0.0000000e+00 
0.0000000e+00 -2.6420774e-03 0.0000000e+00 
0.0000000e+00 -2.6586039e-03 0.0000000e+00 
0.0000000e+00 -2.8403031e-03 0.0000000e+00 
0.0000000e+00 -2.9979451e-03 0.0000000e+00 
0.0000000e+00 -2.9745882e-03 0.0000000e+00 
0.0000000e+00 -2.7885265e-03 0.0000000e+00 
0.0000000e+00 -2.5984759e-03 0.0000000e+00 
0.0000000e+00 -2.6005369e-03 0.0000000e+00 
0.0000000e+00 -2.7895118e-03 0.0000000e+00 
0.0000000e+00 -2.9743535e-03 0.0000000e+00 
0.0000000e+00 -2.9965669e-03 0.0000000e+00 
0.0000000e+00 -2.8376514e-03 0.0000000e+00 
0.0000000e+00 -2.6559785e-03 0.0000000e+00 
0.0000000e+00 -2.6419917e-03 0.0000000e+00 
0.0000000e+00 -2.8085185e-03 0.0000000e+00 
0.0000000e+00 -2.9548339e-03 0.0000000e+00 
0.0000000e+00 -2.8969075e-03 0.0000000e+00 
0.0000000e+00 -2.7175732e-03 0.0000000e+00 
0.0000000e+00 -2.6767456e-03 0.0000000e+00 
0.0000000e+00 -2.8327256e-03 0.0000000e+00 
0.0000000e+00 -2.9256148e-03 0.0000000e+00 
0.0000000e+00 -2.7957740e-03 0.0000000e+00 
0.0000000e+00 -2.6894885e-03 0.0000000e+00 
0.0000000e+00 -2.8129816e-03 0.0000000e+00 
0.0000000e+00 -2.8992214e-03 0.0000000e+00 
0.0000000e+00 -2.7608166e-03 0.0000000e+00 
0.0000000e+00 -2.7378290e-03 0.0000000e+00 
0.0000000e+00 -2.8790564e-03 0.0000000e+00 
0.0000000e+00 -2.7938082e-03 0.0000000e+00 
0.0000000e+00 -2.7486130e-03 0.0000000e+00 
0.0000000e+00 -2.8745059e-03 0.0000000e+00 
0.0000000e+00 -2.7591584e-03 0.0000000e+00 
0.0000000e+00 -2.8088463e-03 0.0000000e+00 
0.0000000e+00 -2.8350889e-03 0.0000000e+00 
0.0000000e+00 -2.7707713e-03 0.0000000e+00 
0.0000000e+00 -2.8348735e-03 0.0000000e+00 
0.0000000e+00 -2.7722551e-03 0.0000000e+00 
0.0000000e+00 -2.8097993e-03 0.0000000e+00 
0.0000000e+00 -2.8018681e-03 0.0000000e+00 
0.0000000e+00 -2.7768088e-03 0.0000000e+00 
-5.2910156e-08 -2.6779345e-03 0.0000000e+00 
8.7310745e-09 -7.6711985e-06 0.0000000e+00 
7.1447572e-09 -6.4744556e-05 0.0000000e+00 
6.4061311e-07 -3.0301290e-03 0.0000000e+00 
5.4980964e-10 -2.3957684e-03 0.0000000e+00 
6.1454159e-08 -2.8241973e-03 0.0000000e+00 
4.5982841e-08 -3.4357104e-03 0.0000000e+00 
2.4941156e-09 -1.8150570e-03 0.0000000e+00 
2.0423844e-08 -6.2204601e-04 0.0000000e+00 
-1.0224341e-09 -2.1861953e-04 0.0000000e+00 
-1.4936399e-10 -2.9748194e-03 0.0000000e+00 
-1.1840909e-07 -3.3516434e-03 0.0000000e+00 
-1.3916150e-08 -1.1183094e-03 0.0000000e+00 
1.0317363e-09 -2.2074769e-03 0.0000000e+00 
-2.5164366e-07 -2.8064554e-03 0.0000000e+00 
-1.6774825e-08 -9.8064076e-05 0.0000000e+00 
2.6830516e-08 -3.1525409e-04 0.0000000e+00 
3.4629949e-08 -2.3955342e-03 0.0000000e+00 
9.3466141e-08 -3.3509510e-03 0.0000000e+00 
-4.4488306e-09 -1.1190460e-03 0.0000000e+00 
-9.2649850e-07 -3.1208687e-03 0.0000000e+00 
-2.9518640e-08 -3.4360739e-03 0.0000000e+00 
1.3820138e-08 -6.2137889e-04 0.0000000e+00 
-6.5218472e-08 -2.9751619e-03 0.0000000e+00 
-7.5923829e-08 -2.8251365e-03 0.0000000e+00 
5.3849956e-09 -4.0596031e-05 0.0000000e+00 
7.1427377e-07 -3.0299188e-03 0.0000000e+00 
1.2225208e-08 -2.4660912e-05 0.0000000e+00 
-2.6617309e-07 -2.8177889e-03 0.0000000e+00 
-4.0442114e-10 -1.2988904e-05 0.0000000e+00 
-5.0189386e-10 -5.8619016e-06 0.0000000e+00 
9.2353594e-07 -2.6742432e-03 0.0000000e+00 
-5.6490376e-07 -3.0285395e-03 0.0000000e+00 
-1.3485375e-06 -3.0960364e-03 0.0000000e+00 
-1.3473573e-06 -3.0992997e-03 0.0000000e+00 
-1.1695558e-06 -3.1228156e-03 0.0000000e+00 
-8.3272511e-07 -3.0341442e-03 0.0000000e+00 
-7.6609467e-08 -3.1010751e-03 0.0000000e+00 
-6.7317423e-08 -2.9315792e-03 0.0000000e+00 
1.1042387e-09 -3.0985656e-03 0.0000000e+00 
-2.8933624e-07 -2.8093546e-03 0.0000000e+00 
-3.9700250e-08 -2.6783086e-03 0.0000000e+00 
1.6937310e-08 -2.5591818e-03 0.0000000e+00 
-5.0790359e-08 -2.4623312e-03 0.0000000e+00 
7.4315963e-08 -2.3977866e-03 0.0000000e+00 
-4.1151960e-08 -2.3748546e-03 0.0000000e+00 
-6.4251864e-08 -2.3950608e-03 0.0000000e+00 
-6.6930674e-08 -2.4574525e-03 0.0000000e+00 
-7.5906854e-08 -2.5539231e-03 0.0000000e+00 
1.0479059e-07 -2.6774560e-03 0.0000000e+00 
-6.5789085e-10 -2.8203418e-03 0.0000000e+00 
6.2378653e-08 -2.9677646e-03 0.0000000e+00 
-1.8650230e-08 -3.1128619e-03 0.0000000e+00 
9.6020880e-10 -3.2413041e-03 0.0000000e+00 
-9.0619096e-08 -3.3482183e-03 0.0000000e+00 
8.2212139e-09 -3.4237436e-03 0.0000000e+00 
4.8932993e-08 -3.4657000e-03 0.0000000e+00 
2.2508381e-08 -3.4701957e-03 0.0000000e+00 
-4.1803840e-08 -3.4372504e-03 0.0000000e+00 
1.2150294e-08 -3.3689716e-03 0.0000000e+00 
2.1619929e-08 -3.2665236e-03 0.0000000e+00 
-2.6968959e-08 -3.1365517e-03 0.0000000e+00 
-1.4066191e-08 -2.9803000e-03 0.0000000e+00 
-1.1402786e-08 -2.8071122e-03 0.0000000e+00 
1.1190895e-08 -2.6175140e-03 0.0000000e+00 
3.9444705e-09 -2.4217558e-03 0.0000000e+00 
2.6396059e-08 -2.2191878e-03 0.0000000e+00 
-3.3079015e-09 -2.0141292e-03 0.0000000e+00 
-2.9191749e-08 -1.8202930e-03 0.0000000e+00 
-5.3660454e-08 -1.6262551e-03 0.0000000e+00 
-2.1981126e-08 -1.4492115e-03 0.0000000e+00 
1.7893841e-08 -1.2806695e-03 0.0000000e+00 
4.6509747e-09 -1.1228928e-03 0.0000000e+00 
1.6910013e-08 -9.7960222e-04 0.0000000e+00 
8.3268628e-09 -8.4765692e-04 0.0000000e+00 
1.7585567e-08 -7.3053909e-04 0.0000000e+00 
2.9893602e-08 -6.2461355e-04 0.0000000e+00 
-1.6835481e-09 -5.3225568e-04 0.0000000e+00 
-6.9953225e-09 -4.5005264e-04 0.0000000e+00 
3.2868999e-09 -3.7945277e-04 0.0000000e+00 
4.1725752e-09 -3.1753082e-04 0.0000000e+00 
-1.9498041e-08 -2.6507801e-04 0.0000000e+00 
8.5178113e-09 -2.1963508e-04 0.0000000e+00 
1.5133406e-08 -1.8161329e-04 0.0000000e+00 
6.6271000e-10 -1.4904016e-04 0.0000000e+00 
1.3338681e-08 -1.2208262e-04 0.0000000e+00 
1.2305386e-09 -9.9468067e-05 0.0000000e+00 
3.3923708e-09 -8.0503138e-05 0.0000000e+00 
-1.7275237e-10 -6.5066139e-05 0.0000000e+00 
2.9416127e-09 -5.1823634e-05 0.0000000e+00 
1.1507749e-11 -4.1309511e-05 0.0000000e+00 
-8.6483576e-09 -3.2270684e-05 0.0000000e+00 
-8.0436156e-09 -2.4871486e-05 0.0000000e+00 
-3.1762717e-08 -2.5562572e-03 0.0000000e+00 
9.5194537e-07 -3.1229982e-03 0.0000000e+00 
1.7474677e-07 -2.5518818e-03 0.0000000e+00 
2.4682947e-08 -1.4511717e-03 0.0000000e+00 
7.2567940e-07 -3.0312631e-03 0.0000000e+00 
7.4179709e-08 -3.1107697e-03 0.0000000e+00 
4.0830667e-08 -3.4652541e-03 0.0000000e+00 
9.4273993e-09 -1.4940675e-04 0.0000000e+00 
3.2551952e-08 -3.2681008e-03 0.0000000e+00 
-1.5752535e-08 -2.6158812e-03 0.0000000e+00 
1.3679874e-08 -8.4950653e-04 0.0000000e+00 
-3.1627220e-08 -4.5115649e-04 0.0000000e+00 
5.7310818e-09 -6.4888045e-05 0.0000000e+00 
7.8480342e-09 -1.2178641e-04 0.0000000e+00 
4.9102797e-09 -3.7836010e-04 0.0000000e+00 
2.1886857e-08 -2.4163066e-03 0.0000000e+00 
1.2598686e-07 -2.4602939e-03 0.0000000e+00 
-1.0077267e-08 -1.8460421e-05 0.0000000e+00 
-3.1806462e-09 -2.4840123e-05 0.0000000e+00 
6.9090036e-09 -1.3226413e-05 0.0000000e+00 
-9.5643287e-08 -2.9253017e-03 0.0000000e+00 
4.6384858e-07 -2.8165805e-03 0.0000000e+00 
-5.6156966e-07 -2.8111280e-03 0.0000000e+00 
3.5848438e-09 -3.2309585e-05 0.0000000e+00 
-1.7004531e-09 -1.9221496e-05 0.0000000e+00 
-7.1829331e-10 -7.2850834e-04 0.0000000e+00 
5.7928031e-09 -1.2782074e-03 0.0000000e+00 
3.3862133e-08 -3.1338958e-03 0.0000000e+00 
-6.7228079e-08 -3.4700646e-03 0.0000000e+00 
-9.5390931e-08 -3.2430331e-03 0.0000000e+00 
-7.2882457e-08 -2.6801319e-03 0.0000000e+00 
-8.9879006e-07 -3.0249406e-03 0.0000000e+00 
-7.8840476e-11 -4.1103038e-05 0.0000000e+00 
1.5681783e-09 -5.2039137e-05 0.0000000e+00 
1.1227907e-08 -2.4479834e-05 0.0000000e+00 
-4.7221076e-09 -4.1010353e-05 0.0000000e+00 
-6.9751599e-07 -3.0317726e-03 0.0000000e+00 
9.4984603e-07 -3.1209225e-03 0.0000000e+00 
-8.3786418e-09 -6.4096297e-05 0.0000000e+00 
1.9273010e-08 -9.9397344e-05 0.0000000e+00 
-1.2417335e-08 -1.3961090e-05 0.0000000e+00 
-1.0542307e-09 -1.8091299e-04 0.0000000e+00 
1.1101545e-08 -2.6423196e-04 0.0000000e+00 
1.8135133e-08 -3.1627869e-04 0.0000000e+00 
1.0046273e-08 -2.1885277e-04 0.0000000e+00 
9.1884544e-09 -1.7943543e-04 0.0000000e+00 
-2.3279316e-08 -3.1621702e-04 0.0000000e+00 
-3.8502623e-08 -1.8151985e-03 0.0000000e+00 
-1.5796658e-08 -2.0057769e-03 0.0000000e+00 
-4.7235556e-08 -1.4456238e-03 0.0000000e+00 
2.2539441e-08 -3.2636924e-03 0.0000000e+00 
1.8635710e-08 -2.8038046e-03 0.0000000e+00 
3.9822766e-08 -2.6110341e-03 0.0000000e+00 
-5.1391424e-08 -2.5559305e-03 0.0000000e+00 
-4.9762114e-08 -2.9711975e-03 0.0000000e+00 
-5.2590030e-09 -3.1177355e-03 0.0000000e+00 
-6.9539556e-09 -3.4247276e-03 0.0000000e+00 
-3.1383398e-09 -3.4666064e-03 0.0000000e+00 
1.4184516e-08 -3.3675558e-03 0.0000000e+00 
7.8461198e-08 -3.4663391e-03 0.0000000e+00 
1.8744223e-07 -2.8069823e-03 0.0000000e+00 
5.7342942e-07 -2.9283208e-03 0.0000000e+00 
-3.9158117e-08 -2.5553482e-03 0.0000000e+00 
-4.9785193e-08 -2.3954099e-03 0.0000000e+00 
-1.2166994e-08 -2.3746290e-03 0.0000000e+00 
-1.1280967e-08 -2.5547806e-03 0.0000000e+00 
1.3060378e-08 -1.4457226e-03 0.0000000e+00 
3.8796371e-09 -9.7666972e-04 0.0000000e+00 
-4.4088622e-09 -8.4447546e-04 0.0000000e+00 
1.6719248e-08 -5.3075765e-04 0.0000000e+00 
7.5960763e-08 -2.3964590e-03 0.0000000e+00 
7.4175311e-08 -2.3745380e-03 0.0000000e+00 
-5.9965217e-08 -2.6076648e-03 0.0000000e+00 
1.0175618e-07 -3.1164724e-03 0.0000000e+00 
-1.1206143e-09 -9.8411365e-05 0.0000000e+00 
-2.1611113e-08 -1.4826054e-04 0.0000000e+00 
-4.1540726e-09 -8.4398314e-04 0.0000000e+00 
-3.8515924e-09 -3.2632686e-03 0.0000000e+00 
5.2062511e-08 -4.4822099e-04 0.0000000e+00 
5.6605467e-09 -6.2605413e-04 0.0000000e+00 
-1.2742535e-08 -1.6287159e-03 0.0000000e+00 
2.8863488e-08 -2.0152768e-03 0.0000000e+00 
2.1551900e-08 -1.1253498e-03 0.0000000e+00 
3.2183234e-08 -2.9822560e-03 0.0000000e+00 
2.9202706e-08 -3.4378849e-03 0.0000000e+00 
6.0558200e-08 -3.3468369e-03 0.0000000e+00 
1.3937606e-07 -2.8178098e-03 0.0000000e+00 
3.8639495e-08 -2.5568958e-03 0.0000000e+00 
-1.2531645e-07 -2.6786998e-03 0.0000000e+00 
-7.1763310e-07 -2.9316097e-03 0.0000000e+00 
-2.1936144e-09 -4.4812186e-04 0.0000000e+00 
-6.2349606e-08 -2.4572385e-03 0.0000000e+00 
2.2335254e-08 -2.2113605e-03 0.0000000e+00 
-7.5484064e-07 -2.9242472e-03 0.0000000e+00 
-1.1177842e-06 -2.6796232e-03 0.0000000e+00 
-1.0303093e-08 -8.0427933e-05 0.0000000e+00 
6.9552732e-07 -2.9279066e-03 0.0000000e+00 
1.1519032e-06 -3.0990916e-03 0.0000000e+00 
3.5348103e-07 -2.8153989e-03 0.0000000e+00 
1.6633587e-08 -1.2704563e-05 0.0000000e+00 
-2.8086742e-09 -2.4602648e-03 0.0000000e+00 
1.4460160e-06 -3.0974131e-03 0.0000000e+00 
3.6366392e-09 -7.0023275e-06 0.0000000e+00 
6.2081159e-07 -3.0319635e-03 0.0000000e+00 
1.8787230e-07 -2.8078146e-03 0.0000000e+00 
4.9032341e-08 -2.6766779e-03 0.0000000e+00 
2.1793404e-08 -2.3965184e-03 0.0000000e+00 
-4.0986532e-08 -2.4155185e-03 0.0000000e+00 
9.9712896e-09 -2.3963528e-03 0.0000000e+00 
-1.6687702e-08 -2.4555002e-03 0.0000000e+00 
1.1971665e-07 -2.6769135e-03 0.0000000e+00 
1.1633564e-07 -2.9678599e-03 0.0000000e+00 
1.0854914e-07 -3.2409774e-03 0.0000000e+00 
1.1198509e-07 -3.4235946e-03 0.0000000e+00 
1.0408194e-09 -1.4831261e-04 0.0000000e+00 
5.1911236e-08 -3.4702257e-03 0.0000000e+00 
5.2218606e-08 -3.3692087e-03 0.0000000e+00 
-5.3479152e-08 -3.1363084e-03 0.0000000e+00 
-1.5315692e-08 -1.8188966e-03 0.0000000e+00 
-2.5907708e-08 -2.8028872e-03 0.0000000e+00 
-2.2010900e-08 -2.2151251e-03 0.0000000e+00 
-5.9046403e-08 -1.6347400e-03 0.0000000e+00 
-6.2175745e-09 -1.2822342e-03 0.0000000e+00 
-6.9572237e-09 -9.8059559e-04 0.0000000e+00 
1.4869987e-08 -7.3124463e-04 0.0000000e+00 
4.7651096e-09 -2.6399130e-04 0.0000000e+00 
-6.7983570e-09 -5.3257588e-04 0.0000000e+00 
3.6352343e-08 -3.7876371e-04 0.0000000e+00 
1.0849614e-08 -1.8071602e-05 0.0000000e+00 
9.7075636e-10 -3.1730557e-05 0.0000000e+00 
7.5913471e-09 -5.1338204e-05 0.0000000e+00 
2.1448698e-09 -1.2124592e-04 0.0000000e+00 
3.4100871e-09 -2.1814657e-04 0.0000000e+00 
-6.7956663e-10 -7.9963771e-05 0.0000000e+00 
1.3000331e-08 -6.0021148e-06 0.0000000e+00 
-2.2143845e-09 -5.4481793e-06 0.0000000e+00 
-3.7558101e-07 -2.6397605e-03 0.0000000e+00 
3.4020485e-07 -2.6402767e-03 0.0000000e+00 
-3.3351903e-06 -2.6490442e-03 0.0000000e+00 
2.8498289e-06 -2.6443182e-03 0.0000000e+00 
-2.0781979e-08 -5.5140376e-06 0.0000000e+00 
7.7169346e-09 -5.8213504e-06 0.0000000e+00 
1.9454234e-08 -1.1306786e-05 0.0000000e+00 
-1.9447527e-05 -2.7896699e-03 0.0000000e+00 
1.5130821e-07 -2.5804208e-03 0.0000000e+00 
3.8482431e-06 -2.7782919e-03 0.0000000e+00 
-1.0678259e-07 -2.9341921e-03 0.0000000e+00 
-1.2012966e-06 -2.7491797e-03 0.0000000e+00 
9.2219210e-07 -2.7101284e-03 0.0000000e+00 
-1.9697497e-06 -2.7313079e-03 0.0000000e+00 
-1.0032580e-06 -2.7458393e-03 0.0000000e+00 
2.5149197e-06 -2.8830157e-03 0.0000000e+00 
3.6972026e-06 -2.7122083e-03 0.0000000e+00 
4.6069727e-07 -2.8806871e-03 0.0000000e+00 
-1.8149680e-07 -2.9533780e-03 0.0000000e+00 
-7.3019163e-07 -2.8550210e-03 0.0000000e+00 
9.2547418e-07 -2.8609256e-03 0.0000000e+00 
-6.1930263e-07 -2.7365168e-03 0.0000000e+00 
-2.7641852e-06 -2.8515223e-03 0.0000000e+00 
-7.2462062e-06 -2.8224792e-03 0.0000000e+00 
-1.3256699e-08 -2.7313477e-03 0.0000000e+00 
7.2963371e-07 -2.8288022e-03 0.0000000e+00 
-2.0243010e-06 -2.7181481e-03 0.0000000e+00 
3.1001201e-07 -2.9491289e-03 0.0000000e+00 
7.5182257e-08 -2.6679765e-03 0.0000000e+00 
7.2148384e-07 -3.0114227e-03 0.0000000e+00 
4.1005482e-08 -2.7111520e-03 0.0000000e+00 
-1.0815431e-06 -2.7209967e-03 0.0000000e+00 
4.7197040e-07 -2.8411646e-03 0.0000000e+00 
1.0242846e-05 -2.7846433e-03 0.0000000e+00 
-1.5302699e-06 -2.8930407e-03 0.0000000e+00 
6.1359339e-07 -2.6845380e-03 0.0000000e+00 
-6.7223136e-06 -2.8233940e-03 0.0000000e+00 
-4.7123878e-05 -2.8263838e-03 0.0000000e+00 
1.8759429e-06 -2.5773251e-03 0.0000000e+00 
1.6842657e-06 -2.8913924e-03 0.0000000e+00 
1.2778662e-06 -2.9719253e-03 0.0000000e+00 
-1.4888618e-08 -2.9992063e-03 0.0000000e+00 
-1.5930996e-07 -3.0143911e-03 0.0000000e+00 
-3.0065462e-07 -2.9395551e-03 0.0000000e+00 
-5.3013582e-07 -3.0026727e-03 0.0000000e+00 
4.2503487e-07 -2.8442035e-03 0.0000000e+00 
-9.0456484e-07 -2.9748131e-03 0.0000000e+00 
-1.0396231e-07 -2.7414272e-03 0.0000000e+00 
7.4825931e-07 -2.6604859e-03 0.0000000e+00 
3.1543056e-08 -2.6226994e-03 0.0000000e+00 
9.2923443e-07 -2.6413014e-03 0.0000000e+00 
3.8863485e-07 -2.7080551e-03 0.0000000e+00 
4.6546290e-07 -2.8026886e-03 0.0000000e+00 
2.3943333e-08 -2.8950695e-03 0.0000000e+00 
-2.8948293e-07 -2.9498206e-03 0.0000000e+00 
-8.5752282e-07 -2.9521878e-03 0.0000000e+00 
-9.1197654e-07 -2.8949340e-03 0.0000000e+00 
-1.1229814e-06 -2.8078838e-03 0.0000000e+00 
-8.3397350e-07 -2.7178859e-03 0.0000000e+00 
-2.6877191e-07 -2.6689826e-03 0.0000000e+00 
1.9405078e-07 -2.6766870e-03 0.0000000e+00 
9.4328840e-07 -2.7407061e-03 0.0000000e+00 
1.1824121e-06 -2.8308313e-03 0.0000000e+00 
1.8836206e-06 -2.9034573e-03 0.0000000e+00 
9.7801671e-07 -2.9230341e-03 0.0000000e+00 