# vtk DataFile Version 4.0
vtk output
ASCII
DATASET UNSTRUCTURED_GRID
POINTS 628 float
0.0000000e+00 0.0000000e+00 0.0000000e+00 
1.0000000e+00 0.0000000e+00 0.0000000e+00 
1.0000000e+00 1.0000000e+01 0.0000000e+00 
0.0000000e+00 1.0000000e+01 0.0000000e+00 
0.0000000e+00 5.0000000e+00 0.0000000e+00 
1.0000000e+00 5.0000000e+00 0.0000000e+00 
1.4285715e-01 0.0000000e+00 0.0000000e+00 
2.8571430e-01 0.0000000e+00 0.0000000e+00 
4.2857143e-01 0.0000000e+00 0.0000000e+00 
5.7142860e-01 0.0000000e+00 0.0000000e+00 
7.1428573e-01 0.0000000e+00 0.0000000e+00 
8.5714287e-01 0.0000000e+00 0.0000000e+00 
8.5714287e-01 1.0000000e+01 0.0000000e+00 
7.1428573e-01 1.0000000e+01 0.0000000e+00 
5.7142860e-01 1.0000000e+01 0.0000000e+00 
4.2857143e-01 1.0000000e+01 0.0000000e+00 
2.8571430e-01 1.0000000e+01 0.0000000e+00 
1.4285715e-01 1.0000000e+01 0.0000000e+00 
1.4285715e-01 5.0000000e+00 0.0000000e+00 
2.8571430e-01 5.0000000e+00 0.0000000e+00 
4.2857143e-01 5.0000000e+00 0.0000000e+00 
5.7142860e-01 5.0000000e+00 0.0000000e+00 
7.1428573e-01 5.0000000e+00 0.0000000e+00 
8.5714287e-01 5.0000000e+00 0.0000000e+00 
0.0000000e+00 4.8529410e+00 0.0000000e+00 
0.0000000e+00 4.7058825e+00 0.0000000e+00 
0.0000000e+00 4.5588236e+00 0.0000000e+00 
0.0000000e+00 4.4117646e+00 0.0000000e+00 
0.0000000e+00 4.2647057e+00 0.0000000e+00 
0.0000000e+00 4.1176472e+00 0.0000000e+00 
0.0000000e+00 3.9705882e+00 0.0000000e+00 
0.0000000e+00 3.8235295e+00 0.0000000e+00 
0.0000000e+00 3.6764705e+00 0.0000000e+00 
0.0000000e+00 3.5294118e+00 0.0000000e+00 
0.0000000e+00 3.3823528e+00 0.0000000e+00 
0.0000000e+00 3.2352941e+00 0.0000000e+00 
0.0000000e+00 3.0882354e+00 0.0000000e+00 
0.0000000e+00 2.9411764e+00 0.0000000e+00 
0.0000000e+00 2.7941177e+00 0.0000000e+00 
0.0000000e+00 2.6470587e+00 0.0000000e+00 
0.0000000e+00 2.5000000e+00 0.0000000e+00 
0.0000000e+00 2.3529413e+00 0.0000000e+00 
0.0000000e+00 2.2058823e+00 0.0000000e+00 
0.0000000e+00 2.0588236e+00 0.0000000e+00 
0.0000000e+00 1.9117647e+00 0.0000000e+00 
0.0000000e+00 1.7647059e+00 0.0000000e+00 
0.0000000e+00 1.6176471e+00 0.0000000e+00 
0.0000000e+00 1.4705882e+00 0.0000000e+00 
0.0000000e+00 1.3235294e+00 0.0000000e+00 
0.0000000e+00 1.1764706e+00 0.0000000e+00 
0.0000000e+00 1.0294118e+00 0.0000000e+00 
0.0000000e+00 8.8235295e-01 0.0000000e+00 
0.0000000e+00 7.3529410e-01 0.0000000e+00 
0.0000000e+00 5.8823532e-01 0.0000000e+00 
0.0000000e+00 4.4117647e-01 0.0000000e+00 
0.0000000e+00 2.9411766e-01 0.0000000e+00 
0.0000000e+00 1.4705883e-01 0.0000000e+00 
1.0000000e+00 1.4705883e-01 0.0000000e+00 
1.0000000e+00 2.9411766e-01 0.0000000e+00 
1.0000000e+00 4.4117647e-01 0.0000000e+00 
1.0000000e+00 5.8823532e-01 0.0000000e+00 
1.0000000e+00 7.3529410e-01 0.0000000e+00 
1.0000000e+00 8.8235295e-01 0.0000000e+00 
1.0000000e+00 1.0294118e+00 0.0000000e+00 
1.0000000e+00 1.1764706e+00 0.0000000e+00 
1.0000000e+00 1.3235294e+00 0.0000000e+00 
1.0000000e+00 1.4705882e+00 0.0000000e+00 
1.0000000e+00 1.6176471e+00 0.0000000e+00 
1.0000000e+00 1.7647059e+00 0.0000000e+00 
1.0000000e+00 1.9117647e+00 0.0000000e+00 
1.0000000e+00 2.0588236e+00 0.0000000e+00 
1.0000000e+00 2.2058823e+00 0.0000000e+00 
1.0000000e+00 2.3529413e+00 0.0000000e+00 
1.0000000e+00 2.5000000e+00 0.0000000e+00 
1.0000000e+00 2.6470587e+00 0.0000000e+00 
1.0000000e+00 2.7941177e+00 0.0000000e+00 
1.0000000e+00 2.9411764e+00 0.0000000e+00 
1.0000000e+00 3.0882354e+00 0.0000000e+00 
1.0000000e+00 3.2352941e+00 0.0000000e+00 
1.0000000e+00 3.3823528e+00 0.0000000e+00 
1.0000000e+00 3.5294118e+00 0.0000000e+00 
1.0000000e+00 3.6764705e+00 0.0000000e+00 
1.0000000e+00 3.8235295e+00 0.0000000e+00 
1.0000000e+00 3.9705882e+00 0.0000000e+00 
1.0000000e+00 4.1176472e+00 0.0000000e+00 
1.0000000e+00 4.2647057e+00 0.0000000e+00 
1.0000000e+00 4.4117646e+00 0.0000000e+00 
1.0000000e+00 4.5588236e+00 0.0000000e+00 
1.0000000e+00 4.7058825e+00 0.0000000e+00 
1.0000000e+00 4.8529410e+00 0.0000000e+00 
0.0000000e+00 9.8529415e+00 0.0000000e+00 
0.0000000e+00 9.7058821e+00 0.0000000e+00 
0.0000000e+00 9.5588236e+00 0.0000000e+00 
0.0000000e+00 9.4117651e+00 0.0000000e+00 
0.0000000e+00 9.2647057e+00 0.0000000e+00 
0.0000000e+00 9.1176472e+00 0.0000000e+00 
0.0000000e+00 8.9705887e+00 0.0000000e+00 
0.0000000e+00 8.8235292e+00 0.0000000e+00 
0.0000000e+00 8.6764708e+00 0.0000000e+00 
0.0000000e+00 8.5294113e+00 0.0000000e+00 
0.0000000e+00 8.3823528e+00 0.0000000e+00 
0.0000000e+00 8.2352943e+00 0.0000000e+00 
0.0000000e+00 8.0882349e+00 0.0000000e+00 
0.0000000e+00 7.9411764e+00 0.0000000e+00 
0.0000000e+00 7.7941175e+00 0.0000000e+00 
0.0000000e+00 7.6470590e+00 0.0000000e+00 
0.0000000e+00 7.5000000e+00 0.0000000e+00 
0.0000000e+00 7.3529410e+00 0.0000000e+00 
0.0000000e+00 7.2058825e+00 0.0000000e+00 
0.0000000e+00 7.0588236e+00 0.0000000e+00 
0.0000000e+00 6.9117646e+00 0.0000000e+00 
0.0000000e+00 6.7647057e+00 0.0000000e+00 
0.0000000e+00 6.6176472e+00 0.0000000e+00 
0.0000000e+00 6.4705882e+00 0.0000000e+00 
0.0000000e+00 6.3235292e+00 0.0000000e+00 
0.0000000e+00 6.1764708e+00 0.0000000e+00 
0.0000000e+00 6.0294118e+00 0.0000000e+00 
0.0000000e+00 5.8823528e+00 0.0000000e+00 
0.0000000e+00 5.7352943e+00 0.0000000e+00 
0.0000000e+00 5.5882354e+00 0.0000000e+00 
0.0000000e+00 5.4411764e+00 0.0000000e+00 
0.0000000e+00 5.2941175e+00 0.0000000e+00 
0.0000000e+00 5.1470590e+00 0.0000000e+00 
1.0000000e+00 5.1470590e+00 0.0000000e+00 
1.0000000e+00 5.2941175e+00 0.0000000e+00 
1.0000000e+00 5.4411764e+00 0.0000000e+00 
1.0000000e+00 5.5882354e+00 0.0000000e+00 
1.0000000e+00 5.7352943e+00 0.0000000e+00 
1.0000000e+00 5.8823528e+00 0.0000000e+00 
1.0000000e+00 6.0294118e+00 0.0000000e+00 
1.0000000e+00 6.1764708e+00 0.0000000e+00 
1.0000000e+00 6.3235292e+00 0.0000000e+00 
1.0000000e+00 6.4705882e+00 0.0000000e+00 
1.0000000e+00 6.6176472e+00 0.0000000e+00 
1.0000000e+00 6.7647057e+00 0.0000000e+00 
1.0000000e+00 6.9117646e+00 0.0000000e+00 
1.0000000e+00 7.0588236e+00 0.0000000e+00 
1.0000000e+00 7.2058825e+00 0.0000000e+00 
1.0000000e+00 7.3529410e+00 0.0000000e+00 
1.0000000e+00 7.5000000e+00 0.0000000e+00 
1.0000000e+00 7.6470590e+00 0.0000000e+00 
1.0000000e+00 7.7941175e+00 0.0000000e+00 
1.0000000e+00 7.9411764e+00 0.0000000e+00 
1.0000000e+00 8.0882349e+00 0.0000000e+00 
1.0000000e+00 8.2352943e+00 0.0000000e+00 
1.0000000e+00 8.3823528e+00 0.0000000e+00 
1.0000000e+00 8.5294113e+00 0.0000000e+00 
1.0000000e+00 8.6764708e+00 0.0000000e+00 
1.0000000e+00 8.8235292e+00 0.0000000e+00 
1.0000000e+00 8.9705887e+00 0.0000000e+00 
1.0000000e+00 9.1176472e+00 0.0000000e+00 
1.0000000e+00 9.2647057e+00 0.0000000e+00 
1.0000000e+00 9.4117651e+00 0.0000000e+00 
1.0000000e+00 9.5588236e+00 0.0000000e+00 
1.0000000e+00 9.7058821e+00 0.0000000e+00 
1.0000000e+00 9.8529415e+00 0.0000000e+00 
5.0212586e-01 4.8703580e+00 0.0000000e+00 
5.1041055e-01 1.3732977e-01 0.0000000e+00 
1.3055173e-01 6.6499180e-01 0.0000000e+00 
8.7327349e-01 4.3372407e+00 0.0000000e+00 
8.7331611e-01 3.8958969e+00 0.0000000e+00 
8.7347627e-01 3.4562511e+00 0.0000000e+00 
8.7357801e-01 2.8680170e+00 0.0000000e+00 
1.2843554e-01 2.1327813e+00 0.0000000e+00 
1.2975387e-01 1.5449892e+00 0.0000000e+00 
1.3308091e-01 1.1039938e+00 0.0000000e+00 
1.2937543e-01 2.5737903e+00 0.0000000e+00 
1.2735668e-01 3.1617646e+00 0.0000000e+00 
8.7375563e-01 1.8386052e+00 0.0000000e+00 
8.7355548e-01 2.2778318e+00 0.0000000e+00 
1.2753446e-01 4.1915216e+00 0.0000000e+00 
8.7915283e-01 8.0759794e-01 0.0000000e+00 
8.8115031e-01 1.2498868e+00 0.0000000e+00 
1.2781374e-01 3.7501886e+00 0.0000000e+00 
8.7352717e-01 3.1621344e+00 0.0000000e+00 
1.2961270e-01 1.8389882e+00 0.0000000e+00 
1.2731366e-01 4.4857054e+00 0.0000000e+00 
1.2885660e-01 2.8684020e+00 0.0000000e+00 
8.7380636e-01 1.5444875e+00 0.0000000e+00 
8.7362880e-01 2.5738993e+00 0.0000000e+00 
1.2735668e-01 3.4558823e+00 0.0000000e+00 
8.7264335e-01 5.1470590e-01 0.0000000e+00 
8.7611687e-01 4.6317782e+00 0.0000000e+00 
1.3446054e-01 3.7013325e-01 0.0000000e+00 
1.2296320e-01 4.7760825e+00 0.0000000e+00 
8.8210768e-01 2.2118840e-01 0.0000000e+00 
2.1798968e-01 1.0548568e-01 0.0000000e+00 
7.7656764e-01 4.8704844e+00 0.0000000e+00 
1.2667844e-01 4.6331582e+00 0.0000000e+00 
2.5353336e-01 4.5619426e+00 0.0000000e+00 
2.5451174e-01 4.4132285e+00 0.0000000e+00 
3.8040194e-01 4.4881525e+00 0.0000000e+00 
3.8161713e-01 4.3403850e+00 0.0000000e+00 
5.0654775e-01 4.4141955e+00 0.0000000e+00 
5.0629890e-01 4.2659345e+00 0.0000000e+00 
5.0658631e-01 4.5616083e+00 0.0000000e+00 
3.8184282e-01 4.1932206e+00 0.0000000e+00 
5.0831819e-01 4.1188259e+00 0.0000000e+00 
3.8249290e-01 4.0462651e+00 0.0000000e+00 
5.0818664e-01 3.9732957e+00 0.0000000e+00 
3.8265404e-01 3.8991868e+00 0.0000000e+00 
5.0769192e-01 3.8249388e+00 0.0000000e+00 
3.8307732e-01 3.7517705e+00 0.0000000e+00 
5.0990808e-01 3.6776419e+00 0.0000000e+00 
3.8416636e-01 3.6049941e+00 0.0000000e+00 
5.1177651e-01 3.5322094e+00 0.0000000e+00 
3.8460994e-01 3.4584429e+00 0.0000000e+00 
5.1256055e-01 3.3855147e+00 0.0000000e+00 
3.8520575e-01 3.3115354e+00 0.0000000e+00 
5.1318693e-01 3.2385471e+00 0.0000000e+00 
3.8561273e-01 3.1645203e+00 0.0000000e+00 
5.1375473e-01 3.0915136e+00 0.0000000e+00 
3.8616878e-01 3.0174749e+00 0.0000000e+00 
5.1433694e-01 2.9444630e+00 0.0000000e+00 
3.8656160e-01 2.8704205e+00 0.0000000e+00 
5.1489413e-01 2.7974076e+00 0.0000000e+00 
3.8711417e-01 2.7233641e+00 0.0000000e+00 
5.1547360e-01 2.6503508e+00 0.0000000e+00 
3.8750717e-01 2.5763063e+00 0.0000000e+00 
5.1603019e-01 2.5032935e+00 0.0000000e+00 
3.8805979e-01 2.4292488e+00 0.0000000e+00 
5.1422137e-01 2.3562264e+00 0.0000000e+00 
3.8765049e-01 2.2821872e+00 0.0000000e+00 
5.1307547e-01 2.2071202e+00 0.0000000e+00 
3.8778570e-01 2.1347876e+00 0.0000000e+00 
5.1568961e-01 2.0596735e+00 0.0000000e+00 
3.9013749e-01 1.9876142e+00 0.0000000e+00 
5.1808232e-01 1.9145784e+00 0.0000000e+00 
3.8994926e-01 1.8408588e+00 0.0000000e+00 
5.1884413e-01 1.7678982e+00 0.0000000e+00 
[...]
POINT_DATA 628
FIELD FieldData 1
VELOCITY 3 628  float
0.0000000e+00 0.0000000e+00 0.0000000e+00 
0.0000000e+00 0.0000000e+00 0.0000000e+00 
0.0000000e+00 -2.8136026e-03 0.0000000e+00 
0.0000000e+00 -2.7611377e-03 0.0000000e+00 
0.0000000e+00 -2.7833076e-03 0.0000000e+00 
0.0000000e+00 -2.7871607e-03 0.0000000e+00 
0.0000000e+00 0.0000000e+00 0.0000000e+00 
0.0000000e+00 0.0000000e+00 0.0000000e+00 
0.0000000e+00 0.0000000e+00 0.0000000e+00 
0.0000000e+00 0.0000000e+00 0.0000000e+00 
0.0000000e+00 0.0000000e+00 0.0000000e+00 
0.0000000e+00 0.0000000e+00 0.0000000e+00 
-2.2432638e-05 -2.8275945e-03 0.0000000e+00 
1.5657841e-05 -2.7998467e-03 0.0000000e+00 
2.2591763e-05 -2.8121520e-03 0.0000000e+00 
-3.7805228e-05 -2.8009664e-03 0.0000000e+00 
4.7264712e-05 -2.8263901e-03 0.0000000e+00 
-3.8657108e-05 -2.8347112e-03 0.0000000e+00 
-2.2406773e-06 -2.7739706e-03 0.0000000e+00 
1.1738030e-07 -2.7758789e-03 0.0000000e+00 
1.6074807e-06 -2.7810175e-03 0.0000000e+00 
-9.2140425e-07 -2.7814261e-03 0.0000000e+00 
6.4200336e-08 -2.7744810e-03 0.0000000e+00 
2.4610704e-06 -2.7749517e-03 0.0000000e+00 
0.0000000e+00 -2.6492886e-03 0.0000000e+00 
0.0000000e+00 -2.5105816e-03 0.0000000e+00 
0.0000000e+00 -2.4945396e-03 0.0000000e+00 
0.0000000e+00 -2.5054286e-03 0.0000000e+00 
0.0000000e+00 -2.3651333e-03 0.0000000e+00 
0.0000000e+00 -2.0843998e-03 0.0000000e+00 
0.0000000e+00 -1.8383571e-03 0.0000000e+00 
0.0000000e+00 -1.7026775e-03 0.0000000e+00 
0.0000000e+00 -1.5511743e-03 0.0000000e+00 
0.0000000e+00 -1.2367270e-03 0.0000000e+00 
0.0000000e+00 -7.8430033e-04 0.0000000e+00 
0.0000000e+00 -3.5984651e-04 0.0000000e+00 
0.0000000e+00 -8.3062085e-05 0.0000000e+00 
0.0000000e+00 8.4323030e-05 0.0000000e+00 
0.0000000e+00 2.6667982e-04 0.0000000e+00 
0.0000000e+00 5.1771681e-04 0.0000000e+00 
0.0000000e+00 7.5126352e-04 0.0000000e+00 
0.0000000e+00 8.1929541e-04 0.0000000e+00 
0.0000000e+00 6.4895727e-04 0.0000000e+00 
0.0000000e+00 3.0808381e-04 0.0000000e+00 
0.0000000e+00 -4.4897868e-05 0.0000000e+00 
0.0000000e+00 -2.7228516e-04 0.0000000e+00 
0.0000000e+00 -3.3582826e-04 0.0000000e+00 
0.0000000e+00 -2.9247225e-04 0.0000000e+00 
0.0000000e+00 -2.2791751e-04 0.0000000e+00 
0.0000000e+00 -1.8826865e-04 0.0000000e+00 
0.0000000e+00 -1.5834141e-04 0.0000000e+00 
0.0000000e+00 -9.2513052e-05 0.0000000e+00 
0.0000000e+00 3.3543834e-05 0.0000000e+00 
0.0000000e+00 1.9185412e-04 0.0000000e+00 
0.0000000e+00 3.1246463e-04 0.0000000e+00 
0.0000000e+00 3.2581179e-04 0.0000000e+00 
0.0000000e+00 2.0728196e-04 0.0000000e+00 
0.0000000e+00 2.0647720e-04 0.0000000e+00 
0.0000000e+00 3.2544951e-04 0.0000000e+00 
0.0000000e+00 3.1400053e-04 0.0000000e+00 
0.0000000e+00 1.9441271e-04 0.0000000e+00 
0.0000000e+00 3.6327612e-05 0.0000000e+00 
0.0000000e+00 -9.0100941e-05 0.0000000e+00 
0.0000000e+00 -1.5673053e-04 0.0000000e+00 
0.0000000e+00 -1.8764165e-04 0.0000000e+00 
0.0000000e+00 -2.2791064e-04 0.0000000e+00 
0.0000000e+00 -2.9274324e-04 0.0000000e+00 
0.0000000e+00 -3.3627453e-04 0.0000000e+00 
0.0000000e+00 -2.7278002e-04 0.0000000e+00 
0.0000000e+00 -4.5299610e-05 0.0000000e+00 
0.0000000e+00 3.0779082e-04 0.0000000e+00 
0.0000000e+00 6.4859824e-04 0.0000000e+00 
0.0000000e+00 8.1932964e-04 0.0000000e+00 
0.0000000e+00 7.5170695e-04 0.0000000e+00 
0.0000000e+00 5.1856850e-04 0.0000000e+00 
0.0000000e+00 2.6762139e-04 0.0000000e+00 
0.0000000e+00 8.4453146e-05 0.0000000e+00 
0.0000000e+00 -8.4613952e-05 0.0000000e+00 
0.0000000e+00 -3.6270908e-04 0.0000000e+00 
0.0000000e+00 -7.8669097e-04 0.0000000e+00 
0.0000000e+00 -1.2363289e-03 0.0000000e+00 
0.0000000e+00 -1.5478864e-03 0.0000000e+00 
0.0000000e+00 -1.6996337e-03 0.0000000e+00 
0.0000000e+00 -1.8381458e-03 0.0000000e+00 
0.0000000e+00 -2.0861798e-03 0.0000000e+00 
0.0000000e+00 -2.3664325e-03 0.0000000e+00 
0.0000000e+00 -2.5041616e-03 0.0000000e+00 
0.0000000e+00 -2.4908064e-03 0.0000000e+00 
0.0000000e+00 -2.5091751e-03 0.0000000e+00 
0.0000000e+00 -2.6536200e-03 0.0000000e+00 
0.0000000e+00 -2.8383858e-03 0.0000000e+00 
0.0000000e+00 -2.7906788e-03 0.0000000e+00 
0.0000000e+00 -2.7879227e-03 0.0000000e+00 
0.0000000e+00 -2.8289929e-03 0.0000000e+00 
0.0000000e+00 -2.7703636e-03 0.0000000e+00 
0.0000000e+00 -2.8196266e-03 0.0000000e+00 
0.0000000e+00 -2.7855339e-03 0.0000000e+00 
0.0000000e+00 -2.8271978e-03 0.0000000e+00 
0.0000000e+00 -2.7779827e-03 0.0000000e+00 
0.0000000e+00 -2.8100328e-03 0.0000000e+00 
0.0000000e+00 -2.7546838e-03 0.0000000e+00 
0.0000000e+00 -2.8363622e-03 0.0000000e+00 
0.0000000e+00 -2.7807707e-03 0.0000000e+00 
0.0000000e+00 -2.8285054e-03 0.0000000e+00 
0.0000000e+00 -2.8048444e-03 0.0000000e+00 
0.0000000e+00 -2.7693568e-03 0.0000000e+00 
0.0000000e+00 -2.8442084e-03 0.0000000e+00 
0.0000000e+00 -2.7734318e-03 0.0000000e+00 
0.0000000e+00 -2.7992912e-03 0.0000000e+00 
0.0000000e+00 -2.8427357e-03 0.0000000e+00 
0.0000000e+00 -2.7595756e-03 0.0000000e+00 
0.0000000e+00 -2.7961335e-03 0.0000000e+00 
0.0000000e+00 -2.8476620e-03 0.0000000e+00 
0.0000000e+00 -2.7649733e-03 0.0000000e+00 
0.0000000e+00 -2.7711168e-03 0.0000000e+00 
0.0000000e+00 -2.8524077e-03 0.0000000e+00 
0.0000000e+00 -2.7968704e-03 0.0000000e+00 
0.0000000e+00 -2.7287356e-03 0.0000000e+00 
0.0000000e+00 -2.8031364e-03 0.0000000e+00 
0.0000000e+00 -2.8477644e-03 0.0000000e+00 
0.0000000e+00 -2.7455660e-03 0.0000000e+00 
0.0000000e+00 -2.6746362e-03 0.0000000e+00 
0.0000000e+00 -2.7394567e-03 0.0000000e+00 
0.0000000e+00 -2.7369552e-03 0.0000000e+00 
0.0000000e+00 -2.6698434e-03 0.0000000e+00 
0.0000000e+00 -2.7453681e-03 0.0000000e+00 
0.0000000e+00 -2.8513381e-03 0.0000000e+00 
0.0000000e+00 -2.8006795e-03 0.0000000e+00 
0.0000000e+00 -2.7238252e-03 0.0000000e+00 
0.0000000e+00 -2.8023715e-03 0.0000000e+00 
0.0000000e+00 -2.8596525e-03 0.0000000e+00 
0.0000000e+00 -2.7668343e-03 0.0000000e+00 
0.0000000e+00 -2.7583810e-03 0.0000000e+00 
0.0000000e+00 -2.8532769e-03 0.0000000e+00 
0.0000000e+00 -2.7999773e-03 0.0000000e+00 
0.0000000e+00 -2.7505495e-03 0.0000000e+00 
0.0000000e+00 -2.8461039e-03 0.0000000e+00 
0.0000000e+00 -2.8001040e-03 0.0000000e+00 
0.0000000e+00 -2.7622848e-03 0.0000000e+00 
0.0000000e+00 -2.8493027e-03 0.0000000e+00 
0.0000000e+00 -2.7784400e-03 0.0000000e+00 
0.0000000e+00 -2.8035773e-03 0.0000000e+00 
0.0000000e+00 -2.8320721e-03 0.0000000e+00 
0.0000000e+00 -2.7694900e-03 0.0000000e+00 
0.0000000e+00 -2.8384323e-03 0.0000000e+00 
0.0000000e+00 -2.7564599e-03 0.0000000e+00 
0.0000000e+00 -2.8250096e-03 0.0000000e+00 
0.0000000e+00 -2.7844380e-03 0.0000000e+00 
0.0000000e+00 -2.8157684e-03 0.0000000e+00 
0.0000000e+00 -2.7853178e-03 0.0000000e+00 
0.0000000e+00 -2.8170203e-03 0.0000000e+00 
0.0000000e+00 -2.7870254e-03 0.0000000e+00 
0.0000000e+00 -2.7933011e-03 0.0000000e+00 
0.0000000e+00 -2.7980821e-03 0.0000000e+00 
0.0000000e+00 -2.8154582e-03 0.0000000e+00 
0.0000000e+00 -2.7881230e-03 0.0000000e+00 
1.6515021e-06 -2.6796057e-03 0.0000000e+00 
4.1342511e-07 1.9781050e-04 0.0000000e+00 
-2.5851639e-07 1.1011524e-04 0.0000000e+00 
8.2417125e-07 -2.4593545e-03 0.0000000e+00 
-5.7037721e-07 -1.7593775e-03 0.0000000e+00 
1.5529837e-07 -1.0208838e-03 0.0000000e+00 
-1.8412096e-07 1.6747025e-04 0.0000000e+00 
2.6633739e-07 4.9212453e-04 0.0000000e+00 
-1.5581723e-07 -3.2231101e-04 0.0000000e+00 
-8.7010761e-07 -1.7488556e-04 0.0000000e+00 
-5.4127759e-07 6.4548344e-04 0.0000000e+00 
5.2767786e-07 -2.0152106e-04 0.0000000e+00 
-5.3198823e-07 -1.7905232e-04 0.0000000e+00 
4.5155005e-07 7.6108699e-04 0.0000000e+00 
1.0086233e-06 -2.2332571e-03 0.0000000e+00 
-1.0084124e-07 -3.2713931e-05 0.0000000e+00 
2.1730644e-07 -2.0454530e-04 0.0000000e+00 
-4.6328333e-07 -1.6410372e-03 0.0000000e+00 
2.2224486e-07 -2.0432875e-04 0.0000000e+00 
6.8612553e-07 -1.7825303e-04 0.0000000e+00 
8.5829868e-08 -2.5088275e-03 0.0000000e+00 
7.7919424e-07 1.6571373e-04 0.0000000e+00 
-3.8830308e-07 -3.2262685e-04 0.0000000e+00 
6.4403785e-08 6.4588850e-04 0.0000000e+00 
-3.6435233e-07 -1.0184387e-03 0.0000000e+00 
-1.0930092e-07 2.6408836e-04 0.0000000e+00 
-2.4896087e-07 -2.4837025e-03 0.0000000e+00 
1.0195624e-06 3.3637648e-04 0.0000000e+00 
-3.2862615e-06 -2.5667872e-03 0.0000000e+00 
-9.7943264e-08 2.8184374e-04 0.0000000e+00 
7.7702185e-07 1.5439957e-04 0.0000000e+00 
2.3181940e-06 -2.6716741e-03 0.0000000e+00 
4.2960284e-08 -2.4863281e-03 0.0000000e+00 
7.6392149e-07 -2.4906697e-03 0.0000000e+00 
-2.4087865e-06 -2.5053604e-03 0.0000000e+00 
-1.0837279e-06 -2.5099858e-03 0.0000000e+00 
-2.7725737e-06 -2.4624942e-03 0.0000000e+00 
-5.6432032e-07 -2.5090328e-03 0.0000000e+00 
-6.2674087e-07 -2.3680781e-03 0.0000000e+00 
5.8059882e-08 -2.4948425e-03 0.0000000e+00 
2.5190363e-07 -2.2369355e-03 0.0000000e+00 
-5.1334215e-08 -2.0888741e-03 0.0000000e+00 
1.8481596e-06 -1.9538838e-03 0.0000000e+00 
6.7722938e-09 -1.8449439e-03 0.0000000e+00 
3.3307558e-07 -1.7656379e-03 0.0000000e+00 
-3.4192760e-07 -1.7041932e-03 0.0000000e+00 
-2.3608797e-07 -1.6421905e-03 0.0000000e+00 
-5.6924108e-07 -1.5514208e-03 0.0000000e+00 
-2.1040982e-07 -1.4206630e-03 0.0000000e+00 
-9.1679976e-07 -1.2436697e-03 0.0000000e+00 
-9.8640567e-07 -1.0255261e-03 0.0000000e+00 
-6.4608929e-07 -7.9385564e-04 0.0000000e+00 
-8.8574387e-07 -5.6435668e-04 0.0000000e+00 
3.5868041e-08 -3.6648093e-04 0.0000000e+00 
4.4635357e-07 -2.0559656e-04 0.0000000e+00 
4.8086906e-07 -8.6420769e-05 0.0000000e+00 
1.2262127e-06 3.7554166e-06 0.0000000e+00 
6.0026906e-07 8.1216531e-05 0.0000000e+00 
1.2147721e-06 1.6271902e-04 0.0000000e+00 
5.8501769e-07 2.6141215e-04 0.0000000e+00 
4.9879549e-07 3.8002885e-04 0.0000000e+00 
2.5382977e-07 5.1123544e-04 0.0000000e+00 
-3.3458082e-07 6.4096384e-04 0.0000000e+00 
-5.3175267e-08 7.4724772e-04 0.0000000e+00 
-6.4199344e-07 8.1266178e-04 0.0000000e+00 
1.3243816e-08 8.2115381e-04 0.0000000e+00 
-1.6621986e-07 7.6740864e-04 0.0000000e+00 
1.6097727e-07 6.5275992e-04 0.0000000e+00 
2.5892703e-07 4.9782370e-04 0.0000000e+00 
3.0167740e-07 3.1171867e-04 0.0000000e+00 
9.1079966e-07 1.2906097e-04 0.0000000e+00 
1.9635777e-07 -3.8642233e-05 0.0000000e+00 
7.3250658e-07 -1.7565035e-04 0.0000000e+00 
-2.1223948e-07 -2.7017033e-04 0.0000000e+00 
1.4946211e-07 -3.2274300e-04 0.0000000e+00 
-4.1724113e-07 -3.3784629e-04 0.0000000e+00 
-3.9467014e-07 -3.2444674e-04 0.0000000e+00 
-5.1156303e-07 -2.9607466e-04 0.0000000e+00 
-8.0239005e-07 -2.6118685e-04 0.0000000e+00 
-6.2713855e-07 -2.3061770e-04 0.0000000e+00 
-1.1417808e-06 -2.0597500e-04 0.0000000e+00 
-7.9539825e-07 -1.8900856e-04 0.0000000e+00 
-1.3221323e-06 -1.7460552e-04 0.0000000e+00 
-8.7688375e-07 -1.5751882e-04 0.0000000e+00 
-1.1961413e-06 -1.3144384e-04 0.0000000e+00 
-7.9943152e-07 -9.1356000e-05 0.0000000e+00 
-7.7740543e-07 -3.6233472e-05 0.0000000e+00 
-4.2265603e-07 3.4128832e-05 0.0000000e+00 
-1.9145308e-07 1.1150672e-04 0.0000000e+00 
-1.3379453e-07 1.9236215e-04 0.0000000e+00 
1.1250023e-07 2.6174192e-04 0.0000000e+00 
-3.5671408e-07 3.1335850e-04 0.0000000e+00 
-2.0416762e-07 3.3827059e-04 0.0000000e+00 
-1.2796330e-06 -1.9506305e-03 0.0000000e+00 
6.1852398e-07 -2.5095600e-03 0.0000000e+00 
-1.3352243e-06 -1.4234738e-03 0.0000000e+00 
-1.4963855e-07 1.3110346e-04 0.0000000e+00 
1.0286163e-06 -2.4842874e-03 0.0000000e+00 
4.7395244e-07 -5.6906539e-04 0.0000000e+00 
-2.2720450e-08 3.1708146e-06 0.0000000e+00 
-4.3979131e-07 -1.3161382e-04 0.0000000e+00 
1.8013185e-07 3.7990508e-04 0.0000000e+00 
3.6536116e-07 8.1263721e-04 0.0000000e+00 
-8.0014229e-07 -3.2208679e-04 0.0000000e+00 
-2.8073904e-07 -2.6192560e-04 0.0000000e+00 
-3.4558815e-07 1.1213091e-04 0.0000000e+00 
-1.1171777e-06 -9.2238879e-05 0.0000000e+00 
-1.0267770e-06 -2.2919961e-04 0.0000000e+00 
-7.6904138e-07 8.2040060e-04 0.0000000e+00 
1.6514650e-06 -1.8425995e-03 0.0000000e+00 
-8.4460987e-07 3.2836935e-04 0.0000000e+00 
-4.7491932e-07 3.3693638e-04 0.0000000e+00 
-3.4452192e-08 2.8594179e-04 0.0000000e+00 
9.8798171e-07 -2.5144760e-03 0.0000000e+00 
4.1512612e-06 -2.5699742e-03 0.0000000e+00 
-2.5851689e-06 -2.5724198e-03 0.0000000e+00 
3.9538011e-07 3.1348810e-04 0.0000000e+00 
6.9522201e-07 3.3146190e-04 0.0000000e+00 
4.4352053e-08 -3.3666458e-04 0.0000000e+00 
1.0967376e-06 -4.1229589e-05 0.0000000e+00 
-2.6547053e-07 5.1352923e-04 0.0000000e+00 
1.5713346e-06 8.1299229e-05 0.0000000e+00 
-1.4669666e-07 -3.6441907e-04 0.0000000e+00 
-3.7016679e-07 -1.2392993e-03 0.0000000e+00 
-1.4392351e-07 -2.4847721e-03 0.0000000e+00 
9.3311272e-08 2.6011738e-04 0.0000000e+00 
-3.6523724e-09 1.9022505e-04 0.0000000e+00 
3.3778477e-07 3.3642061e-04 0.0000000e+00 
-3.3752571e-07 2.6255264e-04 0.0000000e+00 
-1.4734059e-06 -2.4600157e-03 0.0000000e+00 
-2.4202942e-08 -2.5069083e-03 0.0000000e+00 
-2.3327117e-07 1.1537735e-04 0.0000000e+00 
-5.0570071e-07 -3.5853551e-05 0.0000000e+00 
-4.5702279e-07 2.9475515e-04 0.0000000e+00 
-1.3421773e-06 -1.5789177e-04 0.0000000e+00 
-1.3046463e-06 -1.8856696e-04 0.0000000e+00 
-7.4848072e-07 -2.0502132e-04 0.0000000e+00 
-2.5636760e-07 -1.7426151e-04 0.0000000e+00 
-1.7731351e-08 -1.5629074e-04 0.0000000e+00 
-2.2123567e-07 -2.0567895e-04 0.0000000e+00 
1.7350796e-07 4.9186405e-04 0.0000000e+00 
3.9463751e-07 6.4575288e-04 0.0000000e+00 
-1.6072107e-07 1.2464993e-04 0.0000000e+00 
8.4441368e-08 3.8416145e-04 0.0000000e+00 
-9.1934419e-07 7.4881117e-04 0.0000000e+00 
-8.6215164e-07 8.1355899e-04 0.0000000e+00 
-7.0977769e-08 -1.4183535e-03 0.0000000e+00 
-1.0270189e-06 -7.8794936e-04 0.0000000e+00 
-4.9309784e-07 -5.5762625e-04 0.0000000e+00 
1.1082246e-06 -8.6161555e-05 0.0000000e+00 
1.0679030e-06 6.2309846e-06 0.0000000e+00 
8.3952568e-07 2.6261478e-04 0.0000000e+00 
-1.1071178e-07 5.7094053e-06 0.0000000e+00 
-7.6058859e-07 -2.2359786e-03 0.0000000e+00 
5.1846797e-07 -2.3660774e-03 0.0000000e+00 
-1.2110225e-06 -1.9483098e-03 0.0000000e+00 
-4.6558458e-07 -1.6383114e-03 0.0000000e+00 
-7.9255545e-07 -1.7016090e-03 0.0000000e+00 
-4.3712635e-07 -1.4182612e-03 0.0000000e+00 
7.3054787e-07 1.2494969e-04 0.0000000e+00 
7.1352048e-07 -2.7114881e-04 0.0000000e+00 
2.9783618e-07 -3.2236762e-04 0.0000000e+00 
-5.1921614e-07 -2.9416673e-04 0.0000000e+00 
1.0671041e-07 -1.7621435e-03 0.0000000e+00 
-3.8669663e-07 -1.7048435e-03 0.0000000e+00 
4.1087071e-07 8.1411377e-04 0.0000000e+00 
5.1560403e-07 -5.6205282e-04 0.0000000e+00 
-5.8213720e-07 -3.5844736e-05 0.0000000e+00 
-7.6108176e-07 -1.3241077e-04 0.0000000e+00 
-6.4054228e-07 -3.2288389e-04 0.0000000e+00 
-1.8170607e-07 3.8599412e-04 0.0000000e+00 
1.8263741e-08 -2.5943879e-04 0.0000000e+00 
-5.3664240e-07 -3.2483647e-04 0.0000000e+00 
8.4971532e-07 3.1339956e-04 0.0000000e+00 
-4.2377955e-08 6.5302930e-04 0.0000000e+00 
-7.1962421e-07 -1.7357362e-04 0.0000000e+00 
1.3560303e-07 6.4019987e-04 0.0000000e+00 
-1.4183581e-08 1.6314827e-04 0.0000000e+00 
3.7229879e-07 -2.0837924e-04 0.0000000e+00 
-4.6162023e-07 -1.0305716e-03 0.0000000e+00 
1.9802337e-06 -1.9491251e-03 0.0000000e+00 
2.5953393e-06 -2.0890033e-03 0.0000000e+00 
-1.3648647e-06 -2.3674066e-03 0.0000000e+00 
-4.7703116e-07 -2.5903687e-04 0.0000000e+00 
-1.5513977e-07 -1.5523097e-03 0.0000000e+00 
-2.2235747e-07 7.6308846e-04 0.0000000e+00 
-2.3608450e-06 -2.5089581e-03 0.0000000e+00 
-2.8753793e-06 -2.6664438e-03 0.0000000e+00 
-5.1505299e-07 3.3065025e-05 0.0000000e+00 
2.2999143e-06 -2.5073246e-03 0.0000000e+00 
1.3743000e-06 -2.5054838e-03 0.0000000e+00 
1.7394105e-06 -2.5690480e-03 0.0000000e+00 
1.8688944e-06 2.8102030e-04 0.0000000e+00 
-1.1555566e-06 -1.8421436e-03 0.0000000e+00 
-3.6229781e-07 -2.4900492e-03 0.0000000e+00 
-7.1074673e-08 1.8370261e-04 0.0000000e+00 
1.1968294e-06 -2.4613808e-03 0.0000000e+00 
-6.4681961e-07 -2.2364962e-03 0.0000000e+00 
-1.8115102e-06 -2.0883980e-03 0.0000000e+00 
-5.8676619e-07 -1.7622577e-03 0.0000000e+00 
7.6779969e-07 8.1962993e-04 0.0000000e+00 
-1.0148735e-06 -1.6387819e-03 0.0000000e+00 
-1.0509009e-06 -1.5533909e-03 0.0000000e+00 
-6.8236869e-07 -1.2445374e-03 0.0000000e+00 
5.1014081e-07 -7.9523236e-04 0.0000000e+00 
6.6559562e-07 -3.6953494e-04 0.0000000e+00 
1.7070105e-08 -8.8462926e-05 0.0000000e+00 
1.6885055e-08 -1.3081671e-04 0.0000000e+00 
-2.7175719e-07 8.1185615e-05 0.0000000e+00 
-1.5277888e-07 2.6264667e-04 0.0000000e+00 
-7.4900344e-09 5.1277282e-04 0.0000000e+00 
1.6733622e-07 4.9622561e-04 0.0000000e+00 
2.4529609e-07 7.4954983e-04 0.0000000e+00 
4.7602578e-07 7.6520944e-04 0.0000000e+00 
3.5011421e-08 3.1913695e-04 0.0000000e+00 
-5.8178944e-07 -3.7527607e-05 0.0000000e+00 
-9.1435265e-07 -2.6896791e-04 0.0000000e+00 
-7.9220695e-07 -3.3669241e-04 0.0000000e+00 
1.4755868e-07 -1.8832964e-04 0.0000000e+00 
-2.9859140e-07 -2.9517012e-04 0.0000000e+00 
9.8388689e-08 -2.2966154e-04 0.0000000e+00 
2.8576898e-07 3.2610347e-04 0.0000000e+00 
-2.1861884e-07 3.1455487e-04 0.0000000e+00 
-2.9495806e-07 1.9421714e-04 0.0000000e+00 
-2.2106164e-07 -9.0331116e-05 0.0000000e+00 
1.4413123e-07 -1.7384971e-04 0.0000000e+00 
-3.4269007e-07 3.5595280e-05 0.0000000e+00 
1.1178251e-06 1.5520860e-04 0.0000000e+00 
-3.2874800e-07 1.4126909e-04 0.0000000e+00 
2.5862673e-06 -2.7098097e-03 0.0000000e+00 
-7.0833858e-07 -2.7082819e-03 0.0000000e+00 
1.7011232e-06 -2.6955109e-03 0.0000000e+00 
-2.0949867e-06 -2.7026567e-03 0.0000000e+00 
-7.5686086e-07 1.4555050e-04 0.0000000e+00 
2.7831248e-07 1.5065908e-04 0.0000000e+00 
1.7586090e-06 2.5605166e-04 0.0000000e+00 
1.6791873e-05 -2.7977719e-03 0.0000000e+00 
-1.0396586e-06 -2.7582687e-03 0.0000000e+00 
-2.5703303e-06 -2.8034640e-03 0.0000000e+00 
2.3443629e-06 -2.8416493e-03 0.0000000e+00 
-2.0903756e-06 -2.7776565e-03 0.0000000e+00 
2.5929219e-07 -2.8438871e-03 0.0000000e+00 
2.2990664e-06 -2.8187947e-03 0.0000000e+00 
3.8422772e-06 -2.7566592e-03 0.0000000e+00 
-9.0096069e-07 -2.8203055e-03 0.0000000e+00 
1.9956301e-06 -2.8373946e-03 0.0000000e+00 
-5.8800520e-08 -2.8494943e-03 0.0000000e+00 
-9.1981292e-08 -2.7379394e-03 0.0000000e+00 
-5.6865997e-06 -2.8161220e-03 0.0000000e+00 
-8.0523014e-06 -2.8070787e-03 0.0000000e+00 
-2.0612285e-07 -2.7457764e-03 0.0000000e+00 
3.4710042e-06 -2.8250339e-03 0.0000000e+00 
5.1772768e-06 -2.7910064e-03 0.0000000e+00 
6.6057743e-07 -2.8127411e-03 0.0000000e+00 
3.1965665e-06 -2.8016104e-03 0.0000000e+00 
5.2728965e-06 -2.8347457e-03 0.0000000e+00 
-8.4200627e-07 -2.7444966e-03 0.0000000e+00 
-1.7655889e-06 -2.8502499e-03 0.0000000e+00 
-2.0207079e-07 -2.8102421e-03 0.0000000e+00 
1.7274646e-06 -2.8508992e-03 0.0000000e+00 
-2.9546909e-06 -2.7626341e-03 0.0000000e+00 
-4.0301661e-06 -2.8320425e-03 0.0000000e+00 
8.9921423e-06 -2.7919132e-03 0.0000000e+00 
5.3954130e-07 -2.6938983e-03 0.0000000e+00 
-1.4435602e-06 -2.6976445e-03 0.0000000e+00 
-2.2869321e-05 -2.7886762e-03 0.0000000e+00 
3.6983172e-05 -2.7862592e-03 0.0000000e+00 
-7.1705995e-07 -2.7616255e-03 0.0000000e+00 
1.3127452e-07 -2.6915632e-03 0.0000000e+00 
2.9036921e-06 -2.7439063e-03 0.0000000e+00 
-2.0385614e-06 -2.8484568e-03 0.0000000e+00 
1.0677529e-06 -2.8104789e-03 0.0000000e+00 
-2.4404371e-06 -2.8447302e-03 0.0000000e+00 
-3.2305300e-07 -2.8518410e-03 0.0000000e+00 
5.3570392e-07 -2.8003810e-03 0.0000000e+00 
2.7814136e-07 -2.7455436e-03 0.0000000e+00 
-1.0709700e-06 -2.7456668e-03 0.0000000e+00 
-2.8625502e-07 -2.7239723e-03 0.0000000e+00 
2.3196042e-06 -2.7448290e-03 0.0000000e+00 
1.0223463e-06 -2.8013091e-03 0.0000000e+00 
2.3671901e-06 -2.8500205e-03 0.0000000e+00 
-2.8360020e-07 -2.8600048e-03 0.0000000e+00 
-4.4027533e-06 -2.8216140e-03 0.0000000e+00 
-2.1678004e-06 -2.7675412e-03 0.0000000e+00 
-5.2378209e-07 -2.7373619e-03 0.0000000e+00 
2.5116917e-06 -2.7600119e-03 0.0000000e+00 
2.9533605e-06 -2.8131485e-03 0.0000000e+00 
-1.7735489e-07 -2.8542941e-03 0.0000000e+00 
-2.9043090e-06 -2.8491248e-03 0.0000000e+00 
-1.2550263e-06 -2.7986069e-03 0.0000000e+00 
1.2270202e-06 -2.7531320e-03 0.0000000e+00 
-8.3045927e-07 -2.7532277e-03 0.0000000e+00 
-3.2535090e-06 -2.7976895e-03 0.0000000e+00 
-1.3643343e-07 -2.8425797e-03 0.0000000e+00 
1.3599548e-06 -2.8463746e-03 0.0000000e+00 
2.1034580e-06 -2.7996942e-03 0.0000000e+00 