# vtk DataFile Version 4.0
vtk output
ASCII
DATASET UNSTRUCTURED_GRID
POINTS 628 float
0.0000000e+00 0.0000000e+00 0.0000000e+00 
1.0000000e+00 0.0000000e+00 0.0000000e+00 
1.0000000e+00 1.0000000e+01 0.0000000e+00 
0.0000000e+00 1.0000000e+01 0.0000000e+00 
0.0000000e+00 5.0000000e+00 0.0000000e+00 
1.0000000e+00 5.0000000e+00 0.0000000e+00 
1.4285715e-01 0.0000000e+00 0.0000000e+00 
2.8571430e-01 0.0000000e+00 0.0000000e+00 
4.2857143e-01 0.0000000e+00 0.0000000e+00 
5.7142860e-01 0.0000000e+00 0.0000000e+00 
7.1428573e-01 0.0000000e+00 0.0000000e+00 
8.5714287e-01 0.0000000e+00 0.0000000e+00 
8.5714287e-01 1.0000000e+01 0.0000000e+00 
7.1428573e-01 1.0000000e+01 0.0000000e+00 
5.7142860e-01 1.0000000e+01 0.0000000e+00 
4.2857143e-01 1.0000000e+01 0.0000000e+00 
2.8571430e-01 1.0000000e+01 0.0000000e+00 
1.4285715e-01 1.0000000e+01 0.0000000e+00 
1.4285715e-01 5.0000000e+00 0.0000000e+00 
2.8571430e-01 5.0000000e+00 0.0000000e+00 
4.2857143e-01 5.0000000e+00 0.0000000e+00 
5.7142860e-01 5.0000000e+00 0.0000000e+00 
7.1428573e-01 5.0000000e+00 0.0000000e+00 
8.5714287e-01 5.0000000e+00 0.0000000e+00 
0.0000000e+00 4.8529410e+00 0.0000000e+00 
0.0000000e+00 4.7058825e+00 0.0000000e+00 
0.0000000e+00 4.5588236e+00 0.0000000e+00 
0.0000000e+00 4.4117646e+00 0.0000000e+00 
0.0000000e+00 4.2647057e+00 0.0000000e+00 
0.0000000e+00 4.1176472e+00 0.0000000e+00 
0.0000000e+00 3.9705882e+00 0.0000000e+00 
0.0000000e+00 3.8235295e+00 0.0000000e+00 
0.0000000e+00 3.6764705e+00 0.0000000e+00 
0.0000000e+00 3.5294118e+00 0.0000000e+00 
0.0000000e+00 3.3823528e+00 0.0000000e+00 
0.0000000e+00 3.2352941e+00 0.0000000e+00 
0.0000000e+00 3.0882354e+00 0.0000000e+00 
0.0000000e+00 2.9411764e+00 0.0000000e+00 
0.0000000e+00 2.7941177e+00 0.0000000e+00 
0.0000000e+00 2.6470587e+00 0.0000000e+00 
0.0000000e+00 2.5000000e+00 0.0000000e+00 
0.0000000e+00 2.3529413e+00 0.0000000e+00 
0.0000000e+00 2.2058823e+00 0.0000000e+00 
0.0000000e+00 2.0588236e+00 0.0000000e+00 
0.0000000e+00 1.9117647e+00 0.0000000e+00 
0.0000000e+00 1.7647059e+00 0.0000000e+00 
0.0000000e+00 1.6176471e+00 0.0000000e+00 
0.0000000e+00 1.4705882e+00 0.0000000e+00 
0.0000000e+00 1.3235294e+00 0.0000000e+00 
0.0000000e+00 1.1764706e+00 0.0000000e+00 
0.0000000e+00 1.0294118e+00 0.0000000e+00 
0.0000000e+00 8.8235295e-01 0.0000000e+00 
0.0000000e+00 7.3529410e-01 0.0000000e+00 
0.0000000e+00 5.8823532e-01 0.0000000e+00 
0.0000000e+00 4.4117647e-01 0.0000000e+00 
0.0000000e+00 2.9411766e-01 0.0000000e+00 
0.0000000e+00 1.4705883e-01 0.0000000e+00 
1.0000000e+00 1.4705883e-01 0.0000000e+00 
1.0000000e+00 2.9411766e-01 0.0000000e+00 
1.0000000e+00 4.4117647e-01 0.0000000e+00 
1.0000000e+00 5.8823532e-01 0.0000000e+00 
1.0000000e+00 7.3529410e-01 0.0000000e+00 
1.0000000e+00 8.8235295e-01 0.0000000e+00 
1.0000000e+00 1.0294118e+00 0.0000000e+00 
1.0000000e+00 1.1764706e+00 0.0000000e+00 
1.0000000e+00 1.3235294e+00 0.0000000e+00 
1.0000000e+00 1.4705882e+00 0.0000000e+00 
1.0000000e+00 1.6176471e+00 0.0000000e+00 
1.0000000e+00 1.7647059e+00 0.0000000e+00 
1.0000000e+00 1.9117647e+00 0.0000000e+00 
1.0000000e+00 2.0588236e+00 0.0000000e+00 
1.0000000e+00 2.2058823e+00 0.0000000e+00 
1.0000000e+00 2.3529413e+00 0.0000000e+00 
1.0000000e+00 2.5000000e+00 0.0000000e+00 
1.0000000e+00 2.6470587e+00 0.0000000e+00 
1.0000000e+00 2.7941177e+00 0.0000000e+00 
1.0000000e+00 2.9411764e+00 0.0000000e+00 
1.0000000e+00 3.0882354e+00 0.0000000e+00 
1.0000000e+00 3.2352941e+00 0.0000000e+00 
1.0000000e+00 3.3823528e+00 0.0000000e+00 
1.0000000e+00 3.5294118e+00 0.0000000e+00 
1.0000000e+00 3.6764705e+00 0.0000000e+00 
1.0000000e+00 3.8235295e+00 0.0000000e+00 
1.0000000e+00 3.9705882e+00 0.0000000e+00 
1.0000000e+00 4.1176472e+00 0.0000000e+00 
1.0000000e+00 4.2647057e+00 0.0000000e+00 
1.0000000e+00 4.4117646e+00 0.0000000e+00 
1.0000000e+00 4.5588236e+00 0.0000000e+00 
1.0000000e+00 4.7058825e+00 0.0000000e+00 
1.0000000e+00 4.8529410e+00 0.0000000e+00 
0.0000000e+00 9.8529415e+00 0.0000000e+00 
0.0000000e+00 9.7058821e+00 0.0000000e+00 
0.0000000e+00 9.5588236e+00 0.0000000e+00 
0.0000000e+00 9.4117651e+00 0.0000000e+00 
0.0000000e+00 9.2647057e+00 0.0000000e+00 
0.0000000e+00 9.1176472e+00 0.0000000e+00 
0.0000000e+00 8.9705887e+00 0.0000000e+00 
0.0000000e+00 8.8235292e+00 0.0000000e+00 
0.0000000e+00 8.6764708e+00 0.0000000e+00 
0.0000000e+00 8.5294113e+00 0.0000000e+00 
0.0000000e+00 8.3823528e+00 0.0000000e+00 
0.0000000e+00 8.2352943e+00 0.0000000e+00 
0.0000000e+00 8.0882349e+00 0.0000000e+00 
0.0000000e+00 7.9411764e+00 0.0000000e+00 
0.0000000e+00 7.7941175e+00 0.0000000e+00 
0.0000000e+00 7.6470590e+00 0.0000000e+00 
0.0000000e+00 7.5000000e+00 0.0000000e+00 
0.0000000e+00 7.3529410e+00 0.0000000e+00 
0.0000000e+00 7.2058825e+00 0.0000000e+00 
0.0000000e+00 7.0588236e+00 0.0000000e+00 
0.0000000e+00 6.9117646e+00 0.0000000e+00 
0.0000000e+00 6.7647057e+00 0.0000000e+00 
0.0000000e+00 6.6176472e+00 0.0000000e+00 
0.0000000e+00 6.4705882e+00 0.0000000e+00 
0.0000000e+00 6.3235292e+00 0.0000000e+00 
0.0000000e+00 6.1764708e+00 0.0000000e+00 
0.0000000e+00 6.0294118e+00 0.0000000e+00 
0.0000000e+00 5.8823528e+00 0.0000000e+00 
0.0000000e+00 5.7352943e+00 0.0000000e+00 
0.0000000e+00 5.5882354e+00 0.0000000e+00 
0.0000000e+00 5.4411764e+00 0.0000000e+00 
0.0000000e+00 5.2941175e+00 0.0000000e+00 
0.0000000e+00 5.1470590e+00 0.0000000e+00 
1.0000000e+00 5.1470590e+00 0.0000000e+00 
1.0000000e+00 5.2941175e+00 0.0000000e+00 
1.0000000e+00 5.4411764e+00 0.0000000e+00 
1.0000000e+00 5.5882354e+00 0.0000000e+00 
1.0000000e+00 5.7352943e+00 0.0000000e+00 
1.0000000e+00 5.8823528e+00 0.0000000e+00 
1.0000000e+00 6.0294118e+00 0.0000000e+00 
1.0000000e+00 6.1764708e+00 0.0000000e+00 
1.0000000e+00 6.3235292e+00 0.0000000e+00 
1.0000000e+00 6.4705882e+00 0.0000000e+00 
1.0000000e+00 6.6176472e+00 0.0000000e+00 
1.0000000e+00 6.7647057e+00 0.0000000e+00 
1.0000000e+00 6.9117646e+00 0.0000000e+00 
1.0000000e+00 7.0588236e+00 0.0000000e+00 
1.0000000e+00 7.2058825e+00 0.0000000e+00 
1.0000000e+00 7.3529410e+00 0.0000000e+00 
1.0000000e+00 7.5000000e+00 0.0000000e+00 
1.0000000e+00 7.6470590e+00 0.0000000e+00 
1.0000000e+00 7.7941175e+00 0.0000000e+00 
1.0000000e+00 7.9411764e+00 0.0000000e+00 
1.0000000e+00 8.0882349e+00 0.0000000e+00 
1.0000000e+00 8.2352943e+00 0.0000000e+00 
1.0000000e+00 8.3823528e+00 0.0000000e+00 
1.0000000e+00 8.5294113e+00 0.0000000e+00 
1.0000000e+00 8.6764708e+00 0.0000000e+00 
1.0000000e+00 8.8235292e+00 0.0000000e+00 
1.0000000e+00 8.9705887e+00 0.0000000e+00 
1.0000000e+00 9.1176472e+00 0.0000000e+00 
1.0000000e+00 9.2647057e+00 0.0000000e+00 
1.0000000e+00 9.4117651e+00 0.0000000e+00 
1.0000000e+00 9.5588236e+00 0.0000000e+00 
1.0000000e+00 9.7058821e+00 0.0000000e+00 
1.0000000e+00 9.8529415e+00 0.0000000e+00 
5.0212586e-01 4.8703580e+00 0.0000000e+00 
5.1041055e-01 1.3732977e-01 0.0000000e+00 
1.3055173e-01 6.6499180e-01 0.0000000e+00 
8.7327349e-01 4.3372407e+00 0.0000000e+00 
8.7331611e-01 3.8958969e+00 0.0000000e+00 
8.7347627e-01 3.4562511e+00 0.0000000e+00 
8.7357801e-01 2.8680170e+00 0.0000000e+00 
1.2843554e-01 2.1327813e+00 0.0000000e+00 
1.2975387e-01 1.5449892e+00 0.0000000e+00 
1.3308091e-01 1.1039938e+00 0.0000000e+00 
1.2937543e-01 2.5737903e+00 0.0000000e+00 
1.2735668e-01 3.1617646e+00 0.0000000e+00 
8.7375563e-01 1.8386052e+00 0.0000000e+00 
8.7355548e-01 2.2778318e+00 0.0000000e+00 
1.2753446e-01 4.1915216e+00 0.0000000e+00 
8.7915283e-01 8.0759794e-01 0.0000000e+00 
8.8115031e-01 1.2498868e+00 0.0000000e+00 
1.2781374e-01 3.7501886e+00 0.0000000e+00 
8.7352717e-01 3.1621344e+00 0.0000000e+00 
1.2961270e-01 1.8389882e+00 0.0000000e+00 
1.2731366e-01 4.4857054e+00 0.0000000e+00 
1.2885660e-01 2.8684020e+00 0.0000000e+00 
8.7380636e-01 1.5444875e+00 0.0000000e+00 
8.7362880e-01 2.5738993e+00 0.0000000e+00 
1.2735668e-01 3.4558823e+00 0.0000000e+00 
8.7264335e-01 5.1470590e-01 0.0000000e+00 
8.7611687e-01 4.6317782e+00 0.0000000e+00 
1.3446054e-01 3.7013325e-01 0.0000000e+00 
1.2296320e-01 4.7760825e+00 0.0000000e+00 
8.8210768e-01 2.2118840e-01 0.0000000e+00 
2.1798968e-01 1.0548568e-01 0.0000000e+00 
7.7656764e-01 4.8704844e+00 0.0000000e+00 
1.2667844e-01 4.6331582e+00 0.0000000e+00 
2.5353336e-01 4.5619426e+00 0.0000000e+00 
2.5451174e-01 4.4132285e+00 0.0000000e+00 
3.8040194e-01 4.4881525e+00 0.0000000e+00 
3.8161713e-01 4.3403850e+00 0.0000000e+00 
5.0654775e-01 4.4141955e+00 0.0000000e+00 
5.0629890e-01 4.2659345e+00 0.0000000e+00 
5.0658631e-01 4.5616083e+00 0.0000000e+00 
3.8184282e-01 4.1932206e+00 0.0000000e+00 
5.0831819e-01 4.1188259e+00 0.0000000e+00 
3.8249290e-01 4.0462651e+00 0.0000000e+00 
5.0818664e-01 3.9732957e+00 0.0000000e+00 
3.8265404e-01 3.8991868e+00 0.0000000e+00 
5.0769192e-01 3.8249388e+00 0.0000000e+00 
3.8307732e-01 3.7517705e+00 0.0000000e+00 
5.0990808e-01 3.6776419e+00 0.0000000e+00 
3.8416636e-01 3.6049941e+00 0.0000000e+00 
5.1177651e-01 3.5322094e+00 0.0000000e+00 
3.8460994e-01 3.4584429e+00 0.0000000e+00 
5.1256055e-01 3.3855147e+00 0.0000000e+00 
3.8520575e-01 3.3115354e+00 0.0000000e+00 
5.1318693e-01 3.2385471e+00 0.0000000e+00 
3.8561273e-01 3.1645203e+00 0.0000000e+00 
5.1375473e-01 3.0915136e+00 0.0000000e+00 
3.8616878e-01 3.0174749e+00 0.0000000e+00 
5.1433694e-01 2.9444630e+00 0.0000000e+00 
3.8656160e-01 2.8704205e+00 0.0000000e+00 
5.1489413e-01 2.7974076e+00 0.0000000e+00 
3.8711417e-01 2.7233641e+00 0.0000000e+00 
5.1547360e-01 2.6503508e+00 0.0000000e+00 
3.8750717e-01 2.5763063e+00 0.0000000e+00 
5.1603019e-01 2.5032935e+00 0.0000000e+00 
3.8805979e-01 2.4292488e+00 0.0000000e+00 
5.1422137e-01 2.3562264e+00 0.0000000e+00 
3.8765049e-01 2.2821872e+00 0.0000000e+00 
5.1307547e-01 2.2071202e+00 0.0000000e+00 
3.8778570e-01 2.1347876e+00 0.0000000e+00 
5.1568961e-01 2.0596735e+00 0.0000000e+00 
3.9013749e-01 1.9876142e+00 0.0000000e+00 
5.1808232e-01 1.9145784e+00 0.0000000e+00 
3.8994926e-01 1.8408588e+00 0.0000000e+00 
5.1884413e-01 1.7678982e+00 0.0000000e+00 
[...]
POINT_DATA 628
FIELD FieldData 1
VELOCITY 3 628  float
0.0000000e+00 0.0000000e+00 0.0000000e+00 
0.0000000e+00 0.0000000e+00 0.0000000e+00 
0.0000000e+00 2.9219186e-03 0.0000000e+00 
0.0000000e+00 2.9472949e-03 0.0000000e+00 
0.0000000e+00 -4.2009237e-04 0.0000000e+00 
0.0000000e+00 -4.1905552e-04 0.0000000e+00 
0.0000000e+00 0.0000000e+00 0.0000000e+00 
0.0000000e+00 0.0000000e+00 0.0000000e+00 
0.0000000e+00 0.0000000e+00 0.0000000e+00 
0.0000000e+00 0.0000000e+00 0.0000000e+00 
0.0000000e+00 0.0000000e+00 0.0000000e+00 
0.0000000e+00 0.0000000e+00 0.0000000e+00 
6.1988267e-06 2.9011085e-03 0.0000000e+00 
-3.1176639e-06 2.9177899e-03 0.0000000e+00 
-5.1006332e-06 2.9264314e-03 0.0000000e+00 
9.2952896e-06 2.9299189e-03 0.0000000e+00 
9.5364612e-06 2.9248123e-03 0.0000000e+00 
-1.1518868e-05 2.9289436e-03 0.0000000e+00 
-2.9652642e-06 -4.2563121e-04 0.0000000e+00 
-1.8205602e-06 -4.2966471e-04 0.0000000e+00 
1.4143424e-06 -4.1468244e-04 0.0000000e+00 
3.2123178e-06 -4.1675643e-04 0.0000000e+00 
7.7963335e-07 -4.2775919e-04 0.0000000e+00 
3.3872413e-06 -4.2020183e-04 0.0000000e+00 
0.0000000e+00 -5.3348939e-04 0.0000000e+00 
0.0000000e+00 -5.5509666e-04 0.0000000e+00 
0.0000000e+00 -5.7504722e-04 0.0000000e+00 
0.0000000e+00 -5.7329657e-04 0.0000000e+00 
0.0000000e+00 -6.4320024e-04 0.0000000e+00 
0.0000000e+00 -6.6296966e-04 0.0000000e+00 
0.0000000e+00 -5.1629683e-04 0.0000000e+00 
0.0000000e+00 -2.8671257e-04 0.0000000e+00 
0.0000000e+00 -8.6181490e-06 0.0000000e+00 
0.0000000e+00 2.1416289e-04 0.0000000e+00 
0.0000000e+00 3.9168182e-04 0.0000000e+00 
0.0000000e+00 5.7121064e-04 0.0000000e+00 
0.0000000e+00 5.6944846e-04 0.0000000e+00 
0.0000000e+00 4.2686751e-04 0.0000000e+00 
0.0000000e+00 2.6753405e-04 0.0000000e+00 
0.0000000e+00 1.0532026e-04 0.0000000e+00 
0.0000000e+00 -1.9784241e-06 0.0000000e+00 
0.0000000e+00 -1.0138152e-04 0.0000000e+00 
0.0000000e+00 -2.1166707e-04 0.0000000e+00 
0.0000000e+00 -1.8352282e-04 0.0000000e+00 
0.0000000e+00 -1.1647672e-04 0.0000000e+00 
0.0000000e+00 -1.6669254e-04 0.0000000e+00 
0.0000000e+00 -1.8929457e-04 0.0000000e+00 
0.0000000e+00 -1.2824313e-04 0.0000000e+00 
0.0000000e+00 -1.0953880e-04 0.0000000e+00 
0.0000000e+00 -1.0054553e-04 0.0000000e+00 
0.0000000e+00 -1.2744774e-05 0.0000000e+00 
0.0000000e+00 9.6392097e-05 0.0000000e+00 
0.0000000e+00 1.7791432e-04 0.0000000e+00 
0.0000000e+00 2.3543982e-04 0.0000000e+00 
0.0000000e+00 2.4937667e-04 0.0000000e+00 
0.0000000e+00 2.0944180e-04 0.0000000e+00 
0.0000000e+00 1.2393235e-04 0.0000000e+00 
0.0000000e+00 1.2248407e-04 0.0000000e+00 
0.0000000e+00 2.1184343e-04 0.0000000e+00 
0.0000000e+00 2.5138760e-04 0.0000000e+00 
0.0000000e+00 2.3539425e-04 0.0000000e+00 
0.0000000e+00 1.7807553e-04 0.0000000e+00 
0.0000000e+00 9.8548902e-05 0.0000000e+00 
0.0000000e+00 -7.9230695e-06 0.0000000e+00 
0.0000000e+00 -9.8363489e-05 0.0000000e+00 
0.0000000e+00 -1.0936670e-04 0.0000000e+00 
0.0000000e+00 -1.3027259e-04 0.0000000e+00 
0.0000000e+00 -1.9169059e-04 0.0000000e+00 
0.0000000e+00 -1.6734016e-04 0.0000000e+00 
0.0000000e+00 -1.1957045e-04 0.0000000e+00 
0.0000000e+00 -1.8426574e-04 0.0000000e+00 
0.0000000e+00 -2.0616171e-04 0.0000000e+00 
0.0000000e+00 -1.0003545e-04 0.0000000e+00 
0.0000000e+00 -7.2438556e-06 0.0000000e+00 
0.0000000e+00 1.0451031e-04 0.0000000e+00 
0.0000000e+00 2.6351598e-04 0.0000000e+00 
0.0000000e+00 4.2372965e-04 0.0000000e+00 
0.0000000e+00 5.7131628e-04 0.0000000e+00 
0.0000000e+00 5.6615227e-04 0.0000000e+00 
0.0000000e+00 3.8650393e-04 0.0000000e+00 
0.0000000e+00 2.2057960e-04 0.0000000e+00 
0.0000000e+00 -7.2580301e-06 0.0000000e+00 
0.0000000e+00 -2.8374870e-04 0.0000000e+00 
0.0000000e+00 -5.0859619e-04 0.0000000e+00 
0.0000000e+00 -6.6663994e-04 0.0000000e+00 
0.0000000e+00 -6.4301462e-04 0.0000000e+00 
0.0000000e+00 -5.7432026e-04 0.0000000e+00 
0.0000000e+00 -5.7973259e-04 0.0000000e+00 
0.0000000e+00 -5.5118109e-04 0.0000000e+00 
0.0000000e+00 -5.3607638e-04 0.0000000e+00 
0.0000000e+00 2.8486736e-03 0.0000000e+00 
0.0000000e+00 2.7363927e-03 0.0000000e+00 
0.0000000e+00 2.6572952e-03 0.0000000e+00 
0.0000000e+00 2.6886249e-03 0.0000000e+00 
0.0000000e+00 2.8214641e-03 0.0000000e+00 
0.0000000e+00 2.9178818e-03 0.0000000e+00 
0.0000000e+00 2.8898246e-03 0.0000000e+00 
0.0000000e+00 2.7649568e-03 0.0000000e+00 
0.0000000e+00 2.6489377e-03 0.0000000e+00 
0.0000000e+00 2.6214791e-03 0.0000000e+00 
0.0000000e+00 2.7336611e-03 0.0000000e+00 
0.0000000e+00 2.8212781e-03 0.0000000e+00 
0.0000000e+00 2.8272725e-03 0.0000000e+00 
0.0000000e+00 2.7127645e-03 0.0000000e+00 
0.0000000e+00 2.5779791e-03 0.0000000e+00 
0.0000000e+00 2.4746789e-03 0.0000000e+00 
0.0000000e+00 2.4877586e-03 0.0000000e+00 
0.0000000e+00 2.4904141e-03 0.0000000e+00 
0.0000000e+00 2.4505884e-03 0.0000000e+00 
0.0000000e+00 2.3499131e-03 0.0000000e+00 
0.0000000e+00 2.2410057e-03 0.0000000e+00 
0.0000000e+00 2.0803807e-03 0.0000000e+00 
0.0000000e+00 1.9067585e-03 0.0000000e+00 
0.0000000e+00 1.6826804e-03 0.0000000e+00 
0.0000000e+00 1.4577422e-03 0.0000000e+00 
0.0000000e+00 1.2975101e-03 0.0000000e+00 
0.0000000e+00 1.2106339e-03 0.0000000e+00 
0.0000000e+00 1.0575950e-03 0.0000000e+00 
0.0000000e+00 8.0169598e-04 0.0000000e+00 
0.0000000e+00 4.0855879e-04 0.0000000e+00 
0.0000000e+00 8.4051673e-05 0.0000000e+00 
0.0000000e+00 -1.6041573e-04 0.0000000e+00 
0.0000000e+00 -3.1048254e-04 0.0000000e+00 
0.0000000e+00 -3.0681910e-04 0.0000000e+00 
0.0000000e+00 -1.6533872e-04 0.0000000e+00 
0.0000000e+00 8.7832326e-05 0.0000000e+00 
0.0000000e+00 4.0706864e-04 0.0000000e+00 
0.0000000e+00 8.0006191e-04 0.0000000e+00 
0.0000000e+00 1.0541774e-03 0.0000000e+00 
0.0000000e+00 1.2179147e-03 0.0000000e+00 
0.0000000e+00 1.2956156e-03 0.0000000e+00 
0.0000000e+00 1.4574034e-03 0.0000000e+00 
0.0000000e+00 1.6827044e-03 0.0000000e+00 
0.0000000e+00 1.9098400e-03 0.0000000e+00 
0.0000000e+00 2.0807097e-03 0.0000000e+00 
0.0000000e+00 2.2282607e-03 0.0000000e+00 
0.0000000e+00 2.3578305e-03 0.0000000e+00 
0.0000000e+00 2.4464480e-03 0.0000000e+00 
0.0000000e+00 2.4915431e-03 0.0000000e+00 
0.0000000e+00 2.4812222e-03 0.0000000e+00 
0.0000000e+00 2.4870883e-03 0.0000000e+00 
0.0000000e+00 2.5735914e-03 0.0000000e+00 
0.0000000e+00 2.7049021e-03 0.0000000e+00 
0.0000000e+00 2.8352335e-03 0.0000000e+00 
0.0000000e+00 2.8250730e-03 0.0000000e+00 
0.0000000e+00 2.7322331e-03 0.0000000e+00 
0.0000000e+00 2.6244433e-03 0.0000000e+00 
0.0000000e+00 2.6414644e-03 0.0000000e+00 
0.0000000e+00 2.7643067e-03 0.0000000e+00 
0.0000000e+00 2.8900495e-03 0.0000000e+00 
0.0000000e+00 2.9087197e-03 0.0000000e+00 
0.0000000e+00 2.8193891e-03 0.0000000e+00 
0.0000000e+00 2.6988538e-03 0.0000000e+00 
0.0000000e+00 2.6466940e-03 0.0000000e+00 
0.0000000e+00 2.7431017e-03 0.0000000e+00 
0.0000000e+00 2.8491025e-03 0.0000000e+00 
-1.1487078e-06 -5.2791409e-04 0.0000000e+00 
2.2386844e-06 1.1982999e-04 0.0000000e+00 
-8.6877480e-07 2.0859683e-04 0.0000000e+00 
7.3856688e-07 -6.0041790e-04 0.0000000e+00 
-2.2311347e-06 -3.9846398e-04 0.0000000e+00 
8.3142288e-07 2.9892634e-04 0.0000000e+00 
1.9610229e-06 3.4126578e-04 0.0000000e+00 
-1.1299256e-06 -2.1111719e-04 0.0000000e+00 
-4.4578928e-06 -1.6178846e-04 0.0000000e+00 
4.6688288e-07 -6.4151318e-05 0.0000000e+00 
-3.5246460e-06 4.1128493e-05 0.0000000e+00 
1.9547406e-06 5.9789151e-04 0.0000000e+00 
-4.4331671e-07 -1.3141964e-04 0.0000000e+00 
1.8252676e-06 -1.5732345e-04 0.0000000e+00 
2.9507221e-06 -6.7713013e-04 0.0000000e+00 
1.3585817e-07 1.4059052e-04 0.0000000e+00 
-3.3189199e-08 -1.1106698e-04 0.0000000e+00 
-3.2953725e-08 -1.4946070e-04 0.0000000e+00 
4.8557414e-08 6.0054171e-04 0.0000000e+00 
4.4443468e-06 -1.3110592e-04 0.0000000e+00 
1.3442012e-06 -5.7110027e-04 0.0000000e+00 
1.3649733e-07 3.4512911e-04 0.0000000e+00 
8.4855719e-07 -1.6339681e-04 0.0000000e+00 
1.6221676e-06 3.7973365e-05 0.0000000e+00 
-1.8093136e-06 2.9576133e-04 0.0000000e+00 
-1.9511638e-06 2.4949329e-04 0.0000000e+00 
8.9007477e-07 -5.5903738e-04 0.0000000e+00 
-4.8649412e-07 2.3584520e-04 0.0000000e+00 
1.1956614e-06 -5.4925005e-04 0.0000000e+00 
-1.8482373e-07 1.7260075e-04 0.0000000e+00 
9.0091299e-07 9.5584408e-05 0.0000000e+00 
2.1902790e-07 -5.2687508e-04 0.0000000e+00 
-2.7032988e-06 -5.5948796e-04 0.0000000e+00 
-1.2242779e-07 -5.6694110e-04 0.0000000e+00 
-1.7918840e-07 -5.7603576e-04 0.0000000e+00 
2.2943436e-06 -5.7238020e-04 0.0000000e+00 
-1.1933669e-06 -5.9894135e-04 0.0000000e+00 
3.5543119e-06 -5.7408627e-04 0.0000000e+00 
-2.8718825e-06 -6.4319611e-04 0.0000000e+00 
-1.2302198e-06 -5.7264499e-04 0.0000000e+00 
1.6035159e-06 -6.8181782e-04 0.0000000e+00 
1.0257543e-06 -6.6662865e-04 0.0000000e+00 
-3.9850781e-07 -6.0907390e-04 0.0000000e+00 
1.3537873e-06 -5.0948199e-04 0.0000000e+00 
1.0058105e-06 -4.0539177e-04 0.0000000e+00 
-1.1655261e-06 -2.8551224e-04 0.0000000e+00 
-1.2079261e-07 -1.4571489e-04 0.0000000e+00 
-9.9882436e-07 -9.0366302e-06 0.0000000e+00 
2.9803859e-06 1.1734453e-04 0.0000000e+00 
2.7881003e-06 2.0884923e-04 0.0000000e+00 
-4.6083960e-06 2.9777855e-04 0.0000000e+00 
-3.4153456e-06 3.8831963e-04 0.0000000e+00 
8.1289420e-07 4.8833760e-04 0.0000000e+00 
3.6612678e-07 5.7005434e-04 0.0000000e+00 
-1.0167735e-06 5.9931801e-04 0.0000000e+00 
-1.2908231e-06 5.7494320e-04 0.0000000e+00 
1.7216829e-06 5.0265441e-04 0.0000000e+00 
5.2555709e-08 4.2592082e-04 0.0000000e+00 
-5.2631293e-07 3.4566352e-04 0.0000000e+00 
-5.4078163e-07 2.7025369e-04 0.0000000e+00 
1.1020529e-06 1.8183624e-04 0.0000000e+00 
2.5621353e-06 1.0645553e-04 0.0000000e+00 
-1.4518286e-06 4.3068201e-05 0.0000000e+00 
-2.9995068e-08 -8.6604058e-07 0.0000000e+00 
2.7058622e-06 -4.3721710e-05 0.0000000e+00 
1.1458516e-06 -9.8504555e-05 0.0000000e+00 
2.5559075e-06 -1.5992526e-04 0.0000000e+00 
-9.9865304e-07 -2.0568926e-04 0.0000000e+00 
9.1943612e-08 -2.1021569e-04 0.0000000e+00 
-7.7706653e-07 -1.8199223e-04 0.0000000e+00 
-1.7250686e-07 -1.3618219e-04 0.0000000e+00 
-1.5297042e-06 -1.1836601e-04 0.0000000e+00 
-7.5201564e-07 -1.3271773e-04 0.0000000e+00 
2.6184569e-08 -1.6692073e-04 0.0000000e+00 
2.3157268e-07 -1.9698331e-04 0.0000000e+00 
1.7947967e-06 -1.9310223e-04 0.0000000e+00 
-1.9292195e-06 -1.6260135e-04 0.0000000e+00 
-2.1797566e-06 -1.3173438e-04 0.0000000e+00 
-1.5650596e-06 -1.1081350e-04 0.0000000e+00 
-1.4441626e-06 -1.1070621e-04 0.0000000e+00 
-1.0273963e-06 -1.1334335e-04 0.0000000e+00 
3.2831764e-07 -9.9180354e-05 0.0000000e+00 
-7.1391007e-08 -6.5818174e-05 0.0000000e+00 
-2.0252966e-07 -1.3117186e-05 0.0000000e+00 
-1.5001258e-06 4.3023116e-05 0.0000000e+00 
-4.1989338e-07 9.5958130e-05 0.0000000e+00 
1.5846445e-07 1.3799100e-04 0.0000000e+00 
1.3347537e-06 1.7514707e-04 0.0000000e+00 
1.2054803e-06 2.0951068e-04 0.0000000e+00 
1.2037631e-06 2.3256907e-04 0.0000000e+00 
1.0237134e-06 2.4913051e-04 0.0000000e+00 
-9.0623456e-07 2.4781370e-04 0.0000000e+00 
4.5021540e-07 2.3391492e-04 0.0000000e+00 
2.0944615e-06 -6.0717098e-04 0.0000000e+00 
6.5357386e-07 -5.7111011e-04 0.0000000e+00 
8.1631515e-07 1.1588453e-04 0.0000000e+00 
-9.4685862e-07 -1.4005652e-04 0.0000000e+00 
-3.4661355e-06 -5.6099420e-04 0.0000000e+00 
-2.7021645e-06 4.8760037e-04 0.0000000e+00 
-1.5271780e-06 5.0455553e-04 0.0000000e+00 
1.1870104e-06 4.2549917e-05 0.0000000e+00 
-2.0902736e-07 1.9014149e-04 0.0000000e+00 
-1.7351533e-06 -4.6605110e-05 0.0000000e+00 
6.9696762e-07 -1.9189161e-04 0.0000000e+00 
-1.4834424e-07 -1.1110771e-04 0.0000000e+00 
-1.4490352e-07 2.0513911e-04 0.0000000e+00 
-1.0273610e-06 9.3686176e-05 0.0000000e+00 
7.0640937e-07 -1.0815866e-04 0.0000000e+00 
4.3075429e-06 -9.9213386e-05 0.0000000e+00 
-3.0967276e-06 -5.0758128e-04 0.0000000e+00 
-1.0147089e-06 2.0989268e-04 0.0000000e+00 
-1.7846785e-06 2.3453604e-04 0.0000000e+00 
5.3225011e-07 1.7640386e-04 0.0000000e+00 
3.1579378e-07 -5.4877391e-04 0.0000000e+00 
2.1377161e-06 -5.4025708e-04 0.0000000e+00 
-2.5940394e-06 -5.4546841e-04 0.0000000e+00 
2.9776343e-06 2.4660848e-04 0.0000000e+00 
-1.3570154e-06 2.1317154e-04 0.0000000e+00 
-4.7313797e-06 -1.9316377e-04 0.0000000e+00 
3.0865438e-06 -1.1274409e-04 0.0000000e+00 
-1.8674834e-06 1.0060821e-04 0.0000000e+00 
8.0811827e-07 4.2205144e-04 0.0000000e+00 
2.9449836e-06 5.6796934e-04 0.0000000e+00 
-1.7415585e-06 2.1089075e-04 0.0000000e+00 
2.6336338e-06 -5.5959867e-04 0.0000000e+00 
2.5854765e-06 2.4800526e-04 0.0000000e+00 
1.0987948e-06 2.3403701e-04 0.0000000e+00 
-1.5610415e-06 2.3772183e-04 0.0000000e+00 
-3.2188555e-07 2.4535952e-04 0.0000000e+00 
9.8491626e-07 -6.0257612e-04 0.0000000e+00 
-1.0741815e-06 -5.7538575e-04 0.0000000e+00 
-1.3168791e-06 2.1018473e-04 0.0000000e+00 
-9.5392750e-07 1.3836802e-04 0.0000000e+00 
-8.3697148e-07 1.8038740e-04 0.0000000e+00 
5.6080609e-08 -1.2286500e-05 0.0000000e+00 
-1.8284935e-07 -9.9188044e-05 0.0000000e+00 
5.6823410e-07 -1.1110996e-04 0.0000000e+00 
-6.0054987e-07 -6.3720094e-05 0.0000000e+00 
1.3528651e-07 -1.3194939e-05 0.0000000e+00 
1.4402519e-06 -1.0863092e-04 0.0000000e+00 
-2.4554186e-06 -2.0998696e-04 0.0000000e+00 
-2.4810991e-08 -1.9969488e-04 0.0000000e+00 
-2.4821547e-06 -1.3931857e-04 0.0000000e+00 
-1.0803437e-07 1.7970131e-04 0.0000000e+00 
-1.3490077e-06 -2.8471354e-06 0.0000000e+00 
1.2181036e-06 -4.5475033e-05 0.0000000e+00 
7.6415688e-07 1.1292706e-04 0.0000000e+00 
-1.9497335e-07 3.8754934e-04 0.0000000e+00 
2.4048784e-06 4.9049850e-04 0.0000000e+00 
6.0137830e-07 5.6709780e-04 0.0000000e+00 
8.9564446e-07 5.0103565e-04 0.0000000e+00 
2.5657627e-07 2.6258393e-04 0.0000000e+00 
-7.3867932e-07 5.0337176e-04 0.0000000e+00 
-3.7539039e-06 -6.8112009e-04 0.0000000e+00 
-2.8469019e-06 -6.4020121e-04 0.0000000e+00 
2.5733459e-07 -6.0152845e-04 0.0000000e+00 
1.6702055e-06 -1.5194727e-04 0.0000000e+00 
6.8481029e-07 -2.8859856e-04 0.0000000e+00 
-2.8558177e-06 1.1746737e-04 0.0000000e+00 
4.0323307e-06 -1.3356954e-04 0.0000000e+00 
1.2849862e-06 -1.7065785e-04 0.0000000e+00 
-1.8805780e-06 -1.9490044e-04 0.0000000e+00 
-1.8011838e-06 -1.2711321e-04 0.0000000e+00 
1.8686956e-06 -4.0266800e-04 0.0000000e+00 
-4.0346060e-07 -2.8397722e-04 0.0000000e+00 
4.4405047e-07 -4.8931455e-05 0.0000000e+00 
-9.7049288e-08 4.8698162e-04 0.0000000e+00 
-1.1857651e-06 1.3937986e-04 0.0000000e+00 
7.4940976e-07 4.4417604e-05 0.0000000e+00 
-1.2526571e-06 -1.9223263e-04 0.0000000e+00 
-2.4820606e-06 1.7991233e-04 0.0000000e+00 
2.5300465e-06 -1.1000878e-04 0.0000000e+00 
4.7658898e-07 -1.6563499e-04 0.0000000e+00 
1.4704596e-06 -1.7316360e-04 0.0000000e+00 
-1.2145105e-06 -2.0235998e-04 0.0000000e+00 
-7.9496976e-07 -1.2898045e-04 0.0000000e+00 
2.3220391e-06 4.3191922e-05 0.0000000e+00 
6.9203764e-07 3.5030034e-04 0.0000000e+00 
1.0459703e-06 5.9914775e-04 0.0000000e+00 
1.2392593e-06 2.9775535e-04 0.0000000e+00 
-4.3053897e-06 -5.9884554e-04 0.0000000e+00 
2.7660910e-06 -6.6525076e-04 0.0000000e+00 
2.9912883e-06 -6.4741843e-04 0.0000000e+00 
6.3013351e-07 -1.0910105e-04 0.0000000e+00 
1.6956594e-06 -8.7303843e-06 0.0000000e+00 
-8.7786827e-07 -1.6180551e-04 0.0000000e+00 
1.9922295e-06 -5.4822327e-04 0.0000000e+00 
8.0119111e-07 -5.2890810e-04 0.0000000e+00 
-1.1634048e-06 1.7537536e-04 0.0000000e+00 
-2.3664879e-06 -5.4659660e-04 0.0000000e+00 
1.2689062e-06 -5.7238486e-04 0.0000000e+00 
-8.7729603e-07 -5.4654951e-04 0.0000000e+00 
-2.6443095e-06 1.7383533e-04 0.0000000e+00 
-1.2380610e-06 -5.0773215e-04 0.0000000e+00 
6.4261462e-07 -5.7174673e-04 0.0000000e+00 
-2.5728857e-06 1.0857594e-04 0.0000000e+00 
1.6984846e-07 -5.9827924e-04 0.0000000e+00 
-1.7481002e-06 -6.8110524e-04 0.0000000e+00 
-1.9275444e-06 -6.6334539e-04 0.0000000e+00 
-1.4936812e-06 -4.0776565e-04 0.0000000e+00 
-7.8391588e-07 -9.7206583e-05 0.0000000e+00 
-1.9746401e-06 -1.5000475e-04 0.0000000e+00 
-2.7517487e-07 -1.7730483e-05 0.0000000e+00 
-5.9309926e-08 2.0851452e-04 0.0000000e+00 
-1.3382050e-06 3.8373820e-04 0.0000000e+00 
-2.2078017e-07 5.6638219e-04 0.0000000e+00 
-3.7304315e-07 5.7111814e-04 0.0000000e+00 
2.3580089e-06 4.4714070e-05 0.0000000e+00 
1.6878739e-06 4.2417622e-04 0.0000000e+00 
-2.7031209e-07 2.6909271e-04 0.0000000e+00 
-6.4005354e-07 1.0541626e-04 0.0000000e+00 
-2.5721840e-06 -2.0989191e-04 0.0000000e+00 
8.4485464e-07 -6.3369721e-06 0.0000000e+00 
-6.2801615e-07 -1.5952207e-04 0.0000000e+00 
-4.0418372e-06 -1.8002187e-04 0.0000000e+00 
-2.1329967e-07 -1.1711671e-04 0.0000000e+00 
-1.3810059e-06 -1.6298912e-04 0.0000000e+00 
1.8053274e-07 -1.9127375e-04 0.0000000e+00 
-1.6467162e-06 -9.9155441e-05 0.0000000e+00 
1.3144476e-06 -1.3075095e-04 0.0000000e+00 
2.9852426e-06 -1.0687472e-04 0.0000000e+00 
3.6137973e-07 2.0828101e-04 0.0000000e+00 
-2.6822011e-06 2.4752045e-04 0.0000000e+00 
-6.8038941e-07 2.3317768e-04 0.0000000e+00 
1.8854373e-06 9.4480347e-05 0.0000000e+00 
-2.6093692e-06 -6.3980398e-05 0.0000000e+00 
-2.4010151e-06 1.7593484e-04 0.0000000e+00 
1.9336790e-06 9.4238691e-05 0.0000000e+00 
-1.0101483e-06 8.5093299e-05 0.0000000e+00 
-5.2797104e-06 -4.9828948e-04 0.0000000e+00 
6.9508083e-06 -5.0018722e-04 0.0000000e+00 
-3.4530563e-06 -5.1175675e-04 0.0000000e+00 
2.1322605e-06 -5.1154447e-04 0.0000000e+00 
2.9202880e-07 8.8489469e-05 0.0000000e+00 
-1.7837874e-06 8.9503643e-05 0.0000000e+00 
-7.5412868e-07 1.5755081e-04 0.0000000e+00 
-1.2252401e-07 2.8713243e-03 0.0000000e+00 
2.0299419e-08 -3.1322305e-04 0.0000000e+00 
-7.5353732e-09 2.7558231e-03 0.0000000e+00 
1.7930278e-06 6.0578331e-04 0.0000000e+00 
-1.8748187e-06 2.6888093e-03 0.0000000e+00 
-3.5260259e-06 1.2692917e-03 0.0000000e+00 
-1.1403304e-07 2.7845737e-03 0.0000000e+00 
-1.5543601e-06 2.1614498e-03 0.0000000e+00 
2.0887119e-06 2.4827006e-03 0.0000000e+00 
7.2561897e-07 2.6470846e-03 0.0000000e+00 
-5.4614441e-07 2.3953747e-03 0.0000000e+00 
1.7058850e-06 1.5693152e-03 0.0000000e+00 
-2.6807941e-06 2.8789260e-03 0.0000000e+00 
1.7183695e-06 2.8490166e-03 0.0000000e+00 
1.0563199e-06 9.4030285e-04 0.0000000e+00 
-2.6495175e-07 2.8276416e-03 0.0000000e+00 
2.7806191e-06 2.6672888e-03 0.0000000e+00 
-1.8357688e-06 2.4820091e-03 0.0000000e+00 
-1.3539083e-06 2.6694902e-03 0.0000000e+00 
-1.9922070e-06 2.6380443e-03 0.0000000e+00 
-7.3821946e-07 1.5669365e-03 0.0000000e+00 
-1.1614933e-06 2.0142691e-03 0.0000000e+00 
-2.3498883e-06 2.2790114e-04 0.0000000e+00 
-3.6037471e-07 1.2673963e-03 0.0000000e+00 
-3.5087178e-06 2.4829805e-03 0.0000000e+00 
4.9823270e-06 2.6239830e-03 0.0000000e+00 
-4.3593332e-06 2.6836758e-03 0.0000000e+00 
3.1010040e-07 -4.5461082e-05 0.0000000e+00 
7.2382213e-06 -2.4309411e-04 0.0000000e+00 
-4.9312825e-06 2.8172794e-03 0.0000000e+00 
4.2347347e-06 2.9066589e-03 0.0000000e+00 
4.6919477e-06 -3.1137248e-04 0.0000000e+00 
-1.2275017e-06 -4.8996179e-05 0.0000000e+00 
-3.6079064e-06 7.3803792e-05 0.0000000e+00 
2.9796431e-06 3.9667982e-04 0.0000000e+00 
2.6865921e-06 2.2465142e-04 0.0000000e+00 
-8.3637792e-07 5.9713743e-04 0.0000000e+00 
-1.9252925e-06 3.9349654e-04 0.0000000e+00 
7.7324592e-07 7.9550612e-04 0.0000000e+00 
1.7115475e-06 7.5776778e-05 0.0000000e+00 
1.8982516e-06 9.4195199e-04 0.0000000e+00 
3.4950722e-07 1.0522034e-03 0.0000000e+00 
-5.0054646e-06 1.1380637e-03 0.0000000e+00 
1.2169008e-06 1.2184681e-03 0.0000000e+00 
6.1498451e-07 1.2664702e-03 0.0000000e+00 
-1.5633910e-06 1.2962034e-03 0.0000000e+00 
-6.4433277e-07 1.3618591e-03 0.0000000e+00 
-7.2618366e-07 1.4577874e-03 0.0000000e+00 
-2.9598059e-06 1.5670196e-03 0.0000000e+00 
1.5573954e-06 1.6737344e-03 0.0000000e+00 
2.3006305e-06 1.7800968e-03 0.0000000e+00 
-5.1015505e-08 1.9083793e-03 0.0000000e+00 
1.7656573e-06 2.0117674e-03 0.0000000e+00 
1.4715409e-06 2.0808452e-03 0.0000000e+00 
-5.6688987e-06 2.1524595e-03 0.0000000e+00 
-2.4297708e-06 2.2351807e-03 0.0000000e+00 
3.6982747e-06 2.3041957e-03 0.0000000e+00 
1.7940820e-06 2.3593607e-03 0.0000000e+00 
6.5230955e-07 2.3983545e-03 0.0000000e+00 
-6.7749164e-07 2.4488245e-03 0.0000000e+00 
8.6683605e-07 2.4893091e-03 0.0000000e+00 
9.9695046e-07 2.4906434e-03 0.0000000e+00 
-1.9306804e-06 2.4794433e-03 0.0000000e+00 