# vtk DataFile Version 4.0
vtk output
ASCII
DATASET UNSTRUCTURED_GRID
POINTS 100 float
0.0000000e+00 0.0000000e+00 0.0000000e+00 
1.0000000e+00 0.0000000e+00 0.0000000e+00 
1.0000000e+00 1.0000000e+01 0.0000000e+00 
0.0000000e+00 1.0000000e+01 0.0000000e+00 
3.3333334e-01 0.0000000e+00 0.0000000e+00 
6.6666669e-01 0.0000000e+00 0.0000000e+00 
1.0000000e+00 4.3478259e-01 0.0000000e+00 
1.0000000e+00 8.6956519e-01 0.0000000e+00 
1.0000000e+00 1.3043479e+00 0.0000000e+00 
1.0000000e+00 1.7391304e+00 0.0000000e+00 
1.0000000e+00 2.1739130e+00 0.0000000e+00 
1.0000000e+00 2.6086957e+00 0.0000000e+00 
1.0000000e+00 3.0434783e+00 0.0000000e+00 
1.0000000e+00 3.4782608e+00 0.0000000e+00 
1.0000000e+00 3.9130435e+00 0.0000000e+00 
1.0000000e+00 4.3478260e+00 0.0000000e+00 
1.0000000e+00 4.7826085e+00 0.0000000e+00 
1.0000000e+00 5.2173915e+00 0.0000000e+00 
1.0000000e+00 5.6521740e+00 0.0000000e+00 
1.0000000e+00 6.0869565e+00 0.0000000e+00 
1.0000000e+00 6.5217390e+00 0.0000000e+00 
1.0000000e+00 6.9565215e+00 0.0000000e+00 
1.0000000e+00 7.3913045e+00 0.0000000e+00 
1.0000000e+00 7.8260870e+00 0.0000000e+00 
1.0000000e+00 8.2608700e+00 0.0000000e+00 
1.0000000e+00 8.6956520e+00 0.0000000e+00 
1.0000000e+00 9.1304350e+00 0.0000000e+00 
1.0000000e+00 9.5652170e+00 0.0000000e+00 
6.6666669e-01 1.0000000e+01 0.0000000e+00 
3.3333334e-01 1.0000000e+01 0.0000000e+00 
0.0000000e+00 9.5652170e+00 0.0000000e+00 
0.0000000e+00 9.1304350e+00 0.0000000e+00 
0.0000000e+00 8.6956520e+00 0.0000000e+00 
0.0000000e+00 8.2608700e+00 0.0000000e+00 
0.0000000e+00 7.8260870e+00 0.0000000e+00 
0.0000000e+00 7.3913045e+00 0.0000000e+00 
0.0000000e+00 6.9565215e+00 0.0000000e+00 
0.0000000e+00 6.5217390e+00 0.0000000e+00 
0.0000000e+00 6.0869565e+00 0.0000000e+00 
0.0000000e+00 5.6521740e+00 0.0000000e+00 
0.0000000e+00 5.2173915e+00 0.0000000e+00 
0.0000000e+00 4.7826085e+00 0.0000000e+00 
0.0000000e+00 4.3478260e+00 0.0000000e+00 
0.0000000e+00 3.9130435e+00 0.0000000e+00 
0.0000000e+00 3.4782608e+00 0.0000000e+00 
0.0000000e+00 3.0434783e+00 0.0000000e+00 
0.0000000e+00 2.6086957e+00 0.0000000e+00 
0.0000000e+00 2.1739130e+00 0.0000000e+00 
0.0000000e+00 1.7391304e+00 0.0000000e+00 
0.0000000e+00 1.3043479e+00 0.0000000e+00 
0.0000000e+00 8.6956519e-01 0.0000000e+00 
0.0000000e+00 4.3478259e-01 0.0000000e+00 
5.1344687e-01 9.7061529e+00 0.0000000e+00 
4.8655313e-01 2.9384753e-01 0.0000000e+00 
6.6897172e-01 1.1634127e+00 0.0000000e+00 
3.3102828e-01 8.8365870e+00 0.0000000e+00 
6.2346721e-01 5.8695650e+00 0.0000000e+00 
6.6666669e-01 4.0579710e+00 0.0000000e+00 
3.7653279e-01 5.0000000e+00 0.0000000e+00 
6.2346721e-01 6.7391305e+00 0.0000000e+00 
6.2346721e-01 7.6086955e+00 0.0000000e+00 
6.2346721e-01 1.9565217e+00 0.0000000e+00 
3.7653279e-01 3.2608695e+00 0.0000000e+00 
3.7653279e-01 2.3913043e+00 0.0000000e+00 
3.7653279e-01 8.0434780e+00 0.0000000e+00 
3.7653279e-01 6.3043480e+00 0.0000000e+00 
3.7653279e-01 7.1739130e+00 0.0000000e+00 
6.2346721e-01 2.8260870e+00 0.0000000e+00 
3.6661035e-01 1.5326614e+00 0.0000000e+00 
6.3338965e-01 8.4673386e+00 0.0000000e+00 
6.6666669e-01 5.3623190e+00 0.0000000e+00 
3.4053326e-01 3.7560387e+00 0.0000000e+00 
6.1671901e-01 4.5548654e+00 0.0000000e+00 
3.5075530e-01 9.3259811e+00 0.0000000e+00 
6.4924473e-01 6.7401856e-01 0.0000000e+00 
7.3728365e-01 9.4039068e+00 0.0000000e+00 
2.6271632e-01 5.9609360e-01 0.0000000e+00 
2.5476670e-01 5.8695650e+00 0.0000000e+00 
3.1629205e-01 4.1991606e+00 0.0000000e+00 
6.8991148e-01 8.9584770e+00 0.0000000e+00 
7.2616655e-01 7.1739130e+00 0.0000000e+00 
7.2667795e-01 8.0412941e+00 0.0000000e+00 
2.6819015e-01 8.4607849e+00 0.0000000e+00 
2.6190877e-01 4.5768919e+00 0.0000000e+00 
7.3180985e-01 1.5392148e+00 0.0000000e+00 
7.3198366e-01 4.9834371e+00 0.0000000e+00 
2.7332208e-01 1.9587063e+00 0.0000000e+00 
3.1008852e-01 1.0415232e+00 0.0000000e+00 
2.7383348e-01 2.8260870e+00 0.0000000e+00 
7.2616655e-01 2.3913043e+00 0.0000000e+00 
7.4523330e-01 3.2608695e+00 0.0000000e+00 
2.7383348e-01 7.6086955e+00 0.0000000e+00 
2.7383348e-01 6.7391305e+00 0.0000000e+00 
7.2616655e-01 6.3043480e+00 0.0000000e+00 
3.2023889e-01 5.4951692e+00 0.0000000e+00 
6.8816102e-01 3.6211755e+00 0.0000000e+00 
2.1652056e-01 2.6494476e-01 0.0000000e+00 
7.8347945e-01 9.7350550e+00 0.0000000e+00 
7.6049292e-01 2.8052974e-01 0.0000000e+00 
2.3950709e-01 9.7194700e+00 0.0000000e+00 

CELLS 146 584
3 74 87 76
3 73 79 75
3 77 94 56
3 56 94 70
3 90 95 62
3 72 83 78
3 72 78 57
3 62 95 71
3 55 79 73
3 54 87 74
3 52 99 73
3 53 98 74
3 73 99 30
3 74 98 6
3 66 92 59
3 64 91 60
3 60 81 64
3 63 86 61
3 62 88 67
3 61 89 63
3 72 85 58
3 67 90 62
3 65 77 56
3 56 93 65
3 58 83 72
3 59 80 66
3 54 84 68
3 68 87 54
3 55 82 69
3 69 79 55
3 70 94 58
3 65 93 59
3 66 80 60
3 57 78 71
3 58 85 70
3 59 92 65
3 67 88 63
3 60 91 66
3 69 82 64
3 71 95 57
3 61 86 68
3 63 89 67
3 64 81 69
3 68 84 61
3 75 97 52
3 76 96 53
3 30 99 3
3 2 97 27
3 0 96 51
3 6 98 1
3 23 60 22
3 47 63 46
3 45 62 44
3 15 57 14
3 15 72 57
3 38 65 37
3 41 58 40
3 44 71 43
3 10 61 9
3 56 70 18
3 25 69 24
3 62 71 44
3 49 68 48
3 12 67 11
3 19 56 18
3 34 64 33
3 36 66 35
3 8 54 7
3 16 72 15
3 21 59 20
3 18 70 17
3 32 55 31
3 31 73 30
3 7 74 6
3 54 74 7
3 55 73 31
3 74 76 53
3 73 75 52
3 69 81 24
3 34 91 64
3 71 78 43
3 10 89 61
3 16 85 72
3 58 94 40
3 57 95 14
3 59 93 20
3 32 82 55
3 41 83 58
3 36 92 66
3 70 85 17
3 21 80 59
3 25 79 69
3 45 88 62
3 63 88 46
3 47 86 63
3 12 90 67
3 23 81 60
3 68 86 48
3 66 91 35
3 38 77 65
3 19 93 56
3 8 84 54
3 60 80 22
3 49 87 68
3 65 92 37
3 67 89 11
3 61 84 9
3 64 82 33
3 27 97 75
3 51 96 76
3 5 53 4
3 29 52 28
3 27 75 26
3 51 76 50
3 75 79 26
3 76 87 50
3 78 83 42
3 40 94 39
3 24 81 23
3 33 82 32
3 39 94 77
3 43 78 42
3 9 84 8
3 17 85 16
3 11 89 10
3 14 95 13
3 13 90 12
3 26 79 25
3 35 91 34
3 37 92 36
3 48 86 47
3 50 87 49
3 46 88 45
3 13 95 90
3 39 77 38
3 20 93 19
3 42 83 41
3 22 80 21
3 29 99 52
3 5 98 53
3 52 97 28
3 53 96 4
3 1 98 5
3 3 99 29
3 4 96 0
3 28 97 2

CELL_TYPES 146
5
5
5
5
5
5
5
5
5
5
5
5
5
5
5
5
5
5
5
5
5
5
5
5
5
5
5
5
5
5
5
5
5
5
5
5
5
5
5
5
5
5
5
5
5
5
5
5
5
5
5
5
5
5
5
5
5
5
5
5
5
5
5
5
5
5
5
5
5
5
5
5
5
5
5
5
5
5
5
5
5
5
5
5
5
5
5
5
5
5
5
5
5
5
5
5
5
5
5
5
5
5
5
5
5
5
5
5
5
5
5
5
5
5
5
5
5
5
5
5
5
5
5
5
5
5
5
5
5
5
5
5
5
5
5
5
5
5
5
5
5
5
5
5
5
5
POINT_DATA 100
FIELD FieldData 1
VELOCITY 3 100  float
0.0000000e+00 0.0000000e+00 0.0000000e+00 
0.0000000e+00 0.0000000e+00 0.0000000e+00 
0.0000000e+00 -2.6573266e-03 0.0000000e+00 
0.0000000e+00 -2.7817530e-03 0.0000000e+00 
0.0000000e+00 0.0000000e+00 0.0000000e+00 
0.0000000e+00 0.0000000e+00 0.0000000e+00 
0.0000000e+00 -1.3829402e-10 0.0000000e+00 
0.0000000e+00 -7.1284945e-10 0.0000000e+00 
0.0000000e+00 -3.6616326e-09 0.0000000e+00 
0.0000000e+00 -1.7326981e-08 0.0000000e+00 
0.0000000e+00 -7.6184982e-08 0.0000000e+00 
0.0000000e+00 -3.2715263e-07 0.0000000e+00 
0.0000000e+00 -1.3423959e-06 0.0000000e+00 
0.0000000e+00 -5.2361702e-06 0.0000000e+00 
0.0000000e+00 -1.8506405e-05 0.0000000e+00 
0.0000000e+00 -6.0871091e-05 0.0000000e+00 
0.0000000e+00 -1.8802457e-04 0.0000000e+00 
0.0000000e+00 -5.0834747e-04 0.0000000e+00 
0.0000000e+00 -1.1797233e-03 0.0000000e+00 
0.0000000e+00 -2.2845017e-03 0.0000000e+00 
0.0000000e+00 -3.3958941e-03 0.0000000e+00 
0.0000000e+00 -3.4376252e-03 0.0000000e+00 
0.0000000e+00 -2.3741180e-03 0.0000000e+00 
0.0000000e+00 -2.5524860e-03 0.0000000e+00 
0.0000000e+00 -3.3290230e-03 0.0000000e+00 
0.0000000e+00 -2.2565604e-03 0.0000000e+00 
0.0000000e+00 -3.1052190e-03 0.0000000e+00 
0.0000000e+00 -2.7742132e-03 0.0000000e+00 
2.0634792e-04 -2.4635023e-03 0.0000000e+00 
-2.8615384e-04 -2.5037378e-03 0.0000000e+00 
0.0000000e+00 -2.3547225e-03 0.0000000e+00 
0.0000000e+00 -3.1114405e-03 0.0000000e+00 
0.0000000e+00 -2.4978423e-03 0.0000000e+00 
0.0000000e+00 -3.2464431e-03 0.0000000e+00 
0.0000000e+00 -2.4615778e-03 0.0000000e+00 
0.0000000e+00 -2.4865700e-03 0.0000000e+00 
0.0000000e+00 -3.4654790e-03 0.0000000e+00 
0.0000000e+00 -3.3678031e-03 0.0000000e+00 
0.0000000e+00 -2.2939281e-03 0.0000000e+00 
0.0000000e+00 -1.1903768e-03 0.0000000e+00 
0.0000000e+00 -4.9916585e-04 0.0000000e+00 
0.0000000e+00 -1.8088486e-04 0.0000000e+00 
0.0000000e+00 -5.9706585e-05 0.0000000e+00 
0.0000000e+00 -1.7172377e-05 0.0000000e+00 
0.0000000e+00 -4.5165916e-06 0.0000000e+00 
0.0000000e+00 -1.1784524e-06 0.0000000e+00 
0.0000000e+00 -3.0061656e-07 0.0000000e+00 
0.0000000e+00 -7.1262725e-08 0.0000000e+00 
0.0000000e+00 -1.6175669e-08 0.0000000e+00 
0.0000000e+00 -3.4658330e-09 0.0000000e+00 
0.0000000e+00 -7.5639228e-10 0.0000000e+00 
0.0000000e+00 -1.4926918e-10 0.0000000e+00 
-1.0769963e-05 -2.8351573e-03 0.0000000e+00 
1.3608549e-12 -6.5917910e-11 0.0000000e+00 
-6.2891879e-11 -1.8678910e-09 0.0000000e+00 
-3.8194863e-05 -2.5771039e-03 0.0000000e+00 
4.8441793e-06 -1.6963333e-03 0.0000000e+00 
2.0911227e-07 -2.5329144e-05 0.0000000e+00 
2.6639120e-06 -2.9584233e-04 0.0000000e+00 
-3.8193325e-06 -3.6147335e-03 0.0000000e+00 
7.7398436e-06 -2.2569145e-03 0.0000000e+00 
-1.3456493e-09 -2.8265415e-08 0.0000000e+00 
-2.3919114e-08 -2.1956357e-06 0.0000000e+00 
7.8416923e-10 -1.2625226e-07 0.0000000e+00 
4.9351678e-05 -3.1111345e-03 0.0000000e+00 
-5.3689109e-06 -2.9290738e-03 0.0000000e+00 
9.2579048e-06 -2.9309201e-03 0.0000000e+00 
-3.0533574e-08 -5.5810841e-07 0.0000000e+00 
1.9851792e-10 -6.3799606e-09 0.0000000e+00 
9.2744471e-05 -2.7439599e-03 0.0000000e+00 
3.1528753e-06 -6.7770993e-04 0.0000000e+00 
1.6429892e-07 -1.0448914e-05 0.0000000e+00 
-8.8132867e-07 -9.7929107e-05 0.0000000e+00 
5.7227870e-05 -2.8806655e-03 0.0000000e+00 
-1.1254455e-11 -2.8946476e-10 0.0000000e+00 
-5.0017086e-05 -2.5421765e-03 0.0000000e+00 
6.3794738e-12 -2.4696056e-10 0.0000000e+00 
4.5072969e-07 -1.7147289e-03 0.0000000e+00 
-9.6899804e-08 -3.8095292e-05 0.0000000e+00 
-5.8541878e-05 -2.9357886e-03 0.0000000e+00 
7.0830916e-05 -2.9264020e-03 0.0000000e+00 
-1.5439745e-04 -3.0808754e-03 0.0000000e+00 
-6.0941096e-05 -2.8978281e-03 0.0000000e+00 
-2.8841168e-06 -1.0864994e-04 0.0000000e+00 
9.3781434e-11 -7.5015629e-09 0.0000000e+00 
6.8029505e-07 -3.0260111e-04 0.0000000e+00 
-1.1003740e-09 -3.1917057e-08 0.0000000e+00 
-3.9568935e-11 -1.1297115e-09 0.0000000e+00 
-2.9412591e-08 -5.8923473e-07 0.0000000e+00 
2.8246341e-09 -1.4374270e-07 0.0000000e+00 
-3.3027717e-08 -2.5689915e-06 0.0000000e+00 
-3.4740780e-05 -2.3052690e-03 0.0000000e+00 
2.2575428e-05 -3.5560566e-03 0.0000000e+00 
-2.6501375e-05 -2.9001876e-03 0.0000000e+00 
5.7943708e-08 -8.8154397e-04 0.0000000e+00 
-1.2206620e-07 -7.1913328e-06 0.0000000e+00 
-1.2953983e-14 -6.9576060e-11 0.0000000e+00 
1.5441839e-04 -3.2735853e-03 0.0000000e+00 
2.6814716e-12 -6.6655036e-11 0.0000000e+00 
-5.5771663e-05 -3.1357212e-03 0.0000000e+00 
CELL_DATA 146
FIELD FieldData 0
