# vtk DataFile Version 4.0
vtk output
ASCII
DATASET UNSTRUCTURED_GRID
POINTS 628 float
0.0000000e+00 0.0000000e+00 0.0000000e+00 
1.0000000e+00 0.0000000e+00 0.0000000e+00 
1.0000000e+00 1.0000000e+01 0.0000000e+00 
0.0000000e+00 1.0000000e+01 0.0000000e+00 
0.0000000e+00 5.0000000e+00 0.0000000e+00 
1.0000000e+00 5.0000000e+00 0.0000000e+00 
1.4285715e-01 0.0000000e+00 0.0000000e+00 
2.8571430e-01 0.0000000e+00 0.0000000e+00 
4.2857143e-01 0.0000000e+00 0.0000000e+00 
5.7142860e-01 0.0000000e+00 0.0000000e+00 
7.1428573e-01 0.0000000e+00 0.0000000e+00 
8.5714287e-01 0.0000000e+00 0.0000000e+00 
8.5714287e-01 1.0000000e+01 0.0000000e+00 
7.1428573e-01 1.0000000e+01 0.0000000e+00 
5.7142860e-01 1.0000000e+01 0.0000000e+00 
4.2857143e-01 1.0000000e+01 0.0000000e+00 
2.8571430e-01 1.0000000e+01 0.0000000e+00 
1.4285715e-01 1.0000000e+01 0.0000000e+00 
1.4285715e-01 5.0000000e+00 0.0000000e+00 
2.8571430e-01 5.0000000e+00 0.0000000e+00 
4.2857143e-01 5.0000000e+00 0.0000000e+00 
5.7142860e-01 5.0000000e+00 0.0000000e+00 
7.1428573e-01 5.0000000e+00 0.0000000e+00 
8.5714287e-01 5.0000000e+00 0.0000000e+00 
0.0000000e+00 4.8529410e+00 0.0000000e+00 
0.0000000e+00 4.7058825e+00 0.0000000e+00 
0.0000000e+00 4.5588236e+00 0.0000000e+00 
0.0000000e+00 4.4117646e+00 0.0000000e+00 
0.0000000e+00 4.2647057e+00 0.0000000e+00 
0.0000000e+00 4.1176472e+00 0.0000000e+00 
0.0000000e+00 3.9705882e+00 0.0000000e+00 
0.0000000e+00 3.8235295e+00 0.0000000e+00 
0.0000000e+00 3.6764705e+00 0.0000000e+00 
0.0000000e+00 3.5294118e+00 0.0000000e+00 
0.0000000e+00 3.3823528e+00 0.0000000e+00 
0.0000000e+00 3.2352941e+00 0.0000000e+00 
0.0000000e+00 3.0882354e+00 0.0000000e+00 
0.0000000e+00 2.9411764e+00 0.0000000e+00 
0.0000000e+00 2.7941177e+00 0.0000000e+00 
0.0000000e+00 2.6470587e+00 0.0000000e+00 
0.0000000e+00 2.5000000e+00 0.0000000e+00 
0.0000000e+00 2.3529413e+00 0.0000000e+00 
0.0000000e+00 2.2058823e+00 0.0000000e+00 
0.0000000e+00 2.0588236e+00 0.0000000e+00 
0.0000000e+00 1.9117647e+00 0.0000000e+00 
0.0000000e+00 1.7647059e+00 0.0000000e+00 
0.0000000e+00 1.6176471e+00 0.0000000e+00 
0.0000000e+00 1.4705882e+00 0.0000000e+00 
0.0000000e+00 1.3235294e+00 0.0000000e+00 
0.0000000e+00 1.1764706e+00 0.0000000e+00 
0.0000000e+00 1.0294118e+00 0.0000000e+00 
0.0000000e+00 8.8235295e-01 0.0000000e+00 
0.0000000e+00 7.3529410e-01 0.0000000e+00 
0.0000000e+00 5.8823532e-01 0.0000000e+00 
0.0000000e+00 4.4117647e-01 0.0000000e+00 
0.0000000e+00 2.9411766e-01 0.0000000e+00 
0.0000000e+00 1.4705883e-01 0.0000000e+00 
1.0000000e+00 1.4705883e-01 0.0000000e+00 
1.0000000e+00 2.9411766e-01 0.0000000e+00 
1.0000000e+00 4.4117647e-01 0.0000000e+00 
1.0000000e+00 5.8823532e-01 0.0000000e+00 
1.0000000e+00 7.3529410e-01 0.0000000e+00 
1.0000000e+00 8.8235295e-01 0.0000000e+00 
1.0000000e+00 1.0294118e+00 0.0000000e+00 
1.0000000e+00 1.1764706e+00 0.0000000e+00 
1.0000000e+00 1.3235294e+00 0.0000000e+00 
1.0000000e+00 1.4705882e+00 0.0000000e+00 
1.0000000e+00 1.6176471e+00 0.0000000e+00 
1.0000000e+00 1.7647059e+00 0.0000000e+00 
1.0000000e+00 1.9117647e+00 0.0000000e+00 
1.0000000e+00 2.0588236e+00 0.0000000e+00 
1.0000000e+00 2.2058823e+00 0.0000000e+00 
1.0000000e+00 2.3529413e+00 0.0000000e+00 
1.0000000e+00 2.5000000e+00 0.0000000e+00 
1.0000000e+00 2.6470587e+00 0.0000000e+00 
1.0000000e+00 2.7941177e+00 0.0000000e+00 
1.0000000e+00 2.9411764e+00 0.0000000e+00 
1.0000000e+00 3.0882354e+00 0.0000000e+00 
1.0000000e+00 3.2352941e+00 0.0000000e+00 
1.0000000e+00 3.3823528e+00 0.0000000e+00 
1.0000000e+00 3.5294118e+00 0.0000000e+00 
1.0000000e+00 3.6764705e+00 0.0000000e+00 
1.0000000e+00 3.8235295e+00 0.0000000e+00 
1.0000000e+00 3.9705882e+00 0.0000000e+00 
1.0000000e+00 4.1176472e+00 0.0000000e+00 
1.0000000e+00 4.2647057e+00 0.0000000e+00 
1.0000000e+00 4.4117646e+00 0.0000000e+00 
1.0000000e+00 4.5588236e+00 0.0000000e+00 
1.0000000e+00 4.7058825e+00 0.0000000e+00 
1.0000000e+00 4.8529410e+00 0.0000000e+00 
0.0000000e+00 9.8529415e+00 0.0000000e+00 
0.0000000e+00 9.7058821e+00 0.0000000e+00 
0.0000000e+00 9.5588236e+00 0.0000000e+00 
0.0000000e+00 9.4117651e+00 0.0000000e+00 
0.0000000e+00 9.2647057e+00 0.0000000e+00 
0.0000000e+00 9.1176472e+00 0.0000000e+00 
0.0000000e+00 8.9705887e+00 0.0000000e+00 
0.0000000e+00 8.8235292e+00 0.0000000e+00 
0.0000000e+00 8.6764708e+00 0.0000000e+00 
0.0000000e+00 8.5294113e+00 0.0000000e+00 
0.0000000e+00 8.3823528e+00 0.0000000e+00 
0.0000000e+00 8.2352943e+00 0.0000000e+00 
0.0000000e+00 8.0882349e+00 0.0000000e+00 
0.0000000e+00 7.9411764e+00 0.0000000e+00 
0.0000000e+00 7.7941175e+00 0.0000000e+00 
0.0000000e+00 7.6470590e+00 0.0000000e+00 
0.0000000e+00 7.5000000e+00 0.0000000e+00 
0.0000000e+00 7.3529410e+00 0.0000000e+00 
0.0000000e+00 7.2058825e+00 0.0000000e+00 
0.0000000e+00 7.0588236e+00 0.0000000e+00 
0.0000000e+00 6.9117646e+00 0.0000000e+00 
0.0000000e+00 6.7647057e+00 0.0000000e+00 
0.0000000e+00 6.6176472e+00 0.0000000e+00 
0.0000000e+00 6.4705882e+00 0.0000000e+00 
0.0000000e+00 6.3235292e+00 0.0000000e+00 
0.0000000e+00 6.1764708e+00 0.0000000e+00 
0.0000000e+00 6.0294118e+00 0.0000000e+00 
0.0000000e+00 5.8823528e+00 0.0000000e+00 
0.0000000e+00 5.7352943e+00 0.0000000e+00 
0.0000000e+00 5.5882354e+00 0.0000000e+00 
0.0000000e+00 5.4411764e+00 0.0000000e+00 
0.0000000e+00 5.2941175e+00 0.0000000e+00 
0.0000000e+00 5.1470590e+00 0.0000000e+00 
1.0000000e+00 5.1470590e+00 0.0000000e+00 
1.0000000e+00 5.2941175e+00 0.0000000e+00 
1.0000000e+00 5.4411764e+00 0.0000000e+00 
1.0000000e+00 5.5882354e+00 0.0000000e+00 
1.0000000e+00 5.7352943e+00 0.0000000e+00 
1.0000000e+00 5.8823528e+00 0.0000000e+00 
1.0000000e+00 6.0294118e+00 0.0000000e+00 
1.0000000e+00 6.1764708e+00 0.0000000e+00 
1.0000000e+00 6.3235292e+00 0.0000000e+00 
1.0000000e+00 6.4705882e+00 0.0000000e+00 
1.0000000e+00 6.6176472e+00 0.0000000e+00 
1.0000000e+00 6.7647057e+00 0.0000000e+00 
1.0000000e+00 6.9117646e+00 0.0000000e+00 
1.0000000e+00 7.0588236e+00 0.0000000e+00 
1.0000000e+00 7.2058825e+00 0.0000000e+00 
1.0000000e+00 7.3529410e+00 0.0000000e+00 
1.0000000e+00 7.5000000e+00 0.0000000e+00 
1.0000000e+00 7.6470590e+00 0.0000000e+00 
1.0000000e+00 7.7941175e+00 0.0000000e+00 
1.0000000e+00 7.9411764e+00 0.0000000e+00 
1.0000000e+00 8.0882349e+00 0.0000000e+00 
1.0000000e+00 8.2352943e+00 0.0000000e+00 
1.0000000e+00 8.3823528e+00 0.0000000e+00 
1.0000000e+00 8.5294113e+00 0.0000000e+00 
1.0000000e+00 8.6764708e+00 0.0000000e+00 
1.0000000e+00 8.8235292e+00 0.0000000e+00 
1.0000000e+00 8.9705887e+00 0.0000000e+00 
1.0000000e+00 9.1176472e+00 0.0000000e+00 
1.0000000e+00 9.2647057e+00 0.0000000e+00 
1.0000000e+00 9.4117651e+00 0.0000000e+00 
1.0000000e+00 9.5588236e+00 0.0000000e+00 
1.0000000e+00 9.7058821e+00 0.0000000e+00 
1.0000000e+00 9.8529415e+00 0.0000000e+00 
5.0212586e-01 4.8703580e+00 0.0000000e+00 
5.1041055e-01 1.3732977e-01 0.0000000e+00 
1.3055173e-01 6.6499180e-01 0.0000000e+00 
8.7327349e-01 4.3372407e+00 0.0000000e+00 
8.7331611e-01 3.8958969e+00 0.0000000e+00 
8.7347627e-01 3.4562511e+00 0.0000000e+00 
8.7357801e-01 2.8680170e+00 0.0000000e+00 
1.2843554e-01 2.1327813e+00 0.0000000e+00 
1.2975387e-01 1.5449892e+00 0.0000000e+00 
1.3308091e-01 1.1039938e+00 0.0000000e+00 
1.2937543e-01 2.5737903e+00 0.0000000e+00 
1.2735668e-01 3.1617646e+00 0.0000000e+00 
8.7375563e-01 1.8386052e+00 0.0000000e+00 
8.7355548e-01 2.2778318e+00 0.0000000e+00 
1.2753446e-01 4.1915216e+00 0.0000000e+00 
8.7915283e-01 8.0759794e-01 0.0000000e+00 
8.8115031e-01 1.2498868e+00 0.0000000e+00 
1.2781374e-01 3.7501886e+00 0.0000000e+00 
8.7352717e-01 3.1621344e+00 0.0000000e+00 
1.2961270e-01 1.8389882e+00 0.0000000e+00 
1.2731366e-01 4.4857054e+00 0.0000000e+00 
1.2885660e-01 2.8684020e+00 0.0000000e+00 
8.7380636e-01 1.5444875e+00 0.0000000e+00 
8.7362880e-01 2.5738993e+00 0.0000000e+00 
1.2735668e-01 3.4558823e+00 0.0000000e+00 
8.7264335e-01 5.1470590e-01 0.0000000e+00 
8.7611687e-01 4.6317782e+00 0.0000000e+00 
1.3446054e-01 3.7013325e-01 0.0000000e+00 
1.2296320e-01 4.7760825e+00 0.0000000e+00 
8.8210768e-01 2.2118840e-01 0.0000000e+00 
2.1798968e-01 1.0548568e-01 0.0000000e+00 
7.7656764e-01 4.8704844e+00 0.0000000e+00 
1.2667844e-01 4.6331582e+00 0.0000000e+00 
2.5353336e-01 4.5619426e+00 0.0000000e+00 
2.5451174e-01 4.4132285e+00 0.0000000e+00 
3.8040194e-01 4.4881525e+00 0.0000000e+00 
3.8161713e-01 4.3403850e+00 0.0000000e+00 
5.0654775e-01 4.4141955e+00 0.0000000e+00 
5.0629890e-01 4.2659345e+00 0.0000000e+00 
5.0658631e-01 4.5616083e+00 0.0000000e+00 
3.8184282e-01 4.1932206e+00 0.0000000e+00 
5.0831819e-01 4.1188259e+00 0.0000000e+00 
3.8249290e-01 4.0462651e+00 0.0000000e+00 
5.0818664e-01 3.9732957e+00 0.0000000e+00 
3.8265404e-01 3.8991868e+00 0.0000000e+00 
5.0769192e-01 3.8249388e+00 0.0000000e+00 
3.8307732e-01 3.7517705e+00 0.0000000e+00 
5.0990808e-01 3.6776419e+00 0.0000000e+00 
3.8416636e-01 3.6049941e+00 0.0000000e+00 
5.1177651e-01 3.5322094e+00 0.0000000e+00 
3.8460994e-01 3.4584429e+00 0.0000000e+00 
5.1256055e-01 3.3855147e+00 0.0000000e+00 
3.8520575e-01 3.3115354e+00 0.0000000e+00 
5.1318693e-01 3.2385471e+00 0.0000000e+00 
3.8561273e-01 3.1645203e+00 0.0000000e+00 
5.1375473e-01 3.0915136e+00 0.0000000e+00 
3.8616878e-01 3.0174749e+00 0.0000000e+00 
5.1433694e-01 2.9444630e+00 0.0000000e+00 
3.8656160e-01 2.8704205e+00 0.0000000e+00 
5.1489413e-01 2.7974076e+00 0.0000000e+00 
3.8711417e-01 2.7233641e+00 0.0000000e+00 
5.1547360e-01 2.6503508e+00 0.0000000e+00 
3.8750717e-01 2.5763063e+00 0.0000000e+00 
5.1603019e-01 2.5032935e+00 0.0000000e+00 
3.8805979e-01 2.4292488e+00 0.0000000e+00 
5.1422137e-01 2.3562264e+00 0.0000000e+00 
3.8765049e-01 2.2821872e+00 0.0000000e+00 
5.1307547e-01 2.2071202e+00 0.0000000e+00 
3.8778570e-01 2.1347876e+00 0.0000000e+00 
5.1568961e-01 2.0596735e+00 0.0000000e+00 
3.9013749e-01 1.9876142e+00 0.0000000e+00 
5.1808232e-01 1.9145784e+00 0.0000000e+00 
3.8994926e-01 1.8408588e+00 0.0000000e+00 
5.1884413e-01 1.7678982e+00 0.0000000e+00 
[...]
POINT_DATA 628
FIELD FieldData 1
VELOCITY 3 628  float
0.0000000e+00 0.0000000e+00 0.0000000e+00 
0.0000000e+00 0.0000000e+00 0.0000000e+00 
0.0000000e+00 -2.8426333e-03 0.0000000e+00 
0.0000000e+00 -2.8275691e-03 0.0000000e+00 
0.0000000e+00 6.0352316e-04 0.0000000e+00 
0.0000000e+00 6.0845225e-04 0.0000000e+00 
0.0000000e+00 0.0000000e+00 0.0000000e+00 
0.0000000e+00 0.0000000e+00 0.0000000e+00 
0.0000000e+00 0.0000000e+00 0.0000000e+00 
0.0000000e+00 0.0000000e+00 0.0000000e+00 
0.0000000e+00 0.0000000e+00 0.0000000e+00 
0.0000000e+00 0.0000000e+00 0.0000000e+00 
-1.4548348e-05 -2.7823786e-03 0.0000000e+00 
4.1951123e-05 -2.7934485e-03 0.0000000e+00 
-1.7543633e-05 -2.8124843e-03 0.0000000e+00 
8.2930535e-07 -2.8106584e-03 0.0000000e+00 
1.1018013e-05 -2.8305065e-03 0.0000000e+00 
8.0722230e-06 -2.7722749e-03 0.0000000e+00 
-3.8407252e-06 6.0599786e-04 0.0000000e+00 
-1.2436917e-06 6.1046064e-04 0.0000000e+00 
-1.5681981e-06 6.0906075e-04 0.0000000e+00 
-1.2640754e-07 6.1105221e-04 0.0000000e+00 
-1.5507042e-06 6.0879457e-04 0.0000000e+00 
2.3091804e-06 6.0844159e-04 0.0000000e+00 
0.0000000e+00 4.2348605e-04 0.0000000e+00 
0.0000000e+00 3.0007717e-04 0.0000000e+00 
0.0000000e+00 9.9977624e-05 0.0000000e+00 
0.0000000e+00 -2.0632629e-04 0.0000000e+00 
0.0000000e+00 -4.1252701e-04 0.0000000e+00 
0.0000000e+00 -4.1304046e-04 0.0000000e+00 
0.0000000e+00 -3.5777289e-04 0.0000000e+00 
0.0000000e+00 -3.3536335e-04 0.0000000e+00 
0.0000000e+00 -2.2284800e-04 0.0000000e+00 
0.0000000e+00 4.5709116e-05 0.0000000e+00 
0.0000000e+00 3.0854039e-04 0.0000000e+00 
0.0000000e+00 3.7545580e-04 0.0000000e+00 
0.0000000e+00 2.6398010e-04 0.0000000e+00 
0.0000000e+00 1.3471436e-04 0.0000000e+00 
0.0000000e+00 5.8276040e-05 0.0000000e+00 
0.0000000e+00 -3.9969014e-05 0.0000000e+00 
0.0000000e+00 -2.0659695e-04 0.0000000e+00 
0.0000000e+00 -3.3585043e-04 0.0000000e+00 
0.0000000e+00 -2.7692539e-04 0.0000000e+00 
0.0000000e+00 -2.6050377e-05 0.0000000e+00 
0.0000000e+00 2.3950910e-04 0.0000000e+00 
0.0000000e+00 3.2428699e-04 0.0000000e+00 
0.0000000e+00 1.8992327e-04 0.0000000e+00 
0.0000000e+00 -3.1035819e-05 0.0000000e+00 
0.0000000e+00 -1.7097931e-04 0.0000000e+00 
0.0000000e+00 -1.6437935e-04 0.0000000e+00 
0.0000000e+00 -6.7693290e-05 0.0000000e+00 
0.0000000e+00 2.2494056e-05 0.0000000e+00 
0.0000000e+00 5.5621531e-05 0.0000000e+00 
0.0000000e+00 4.4372435e-05 0.0000000e+00 
0.0000000e+00 2.4242043e-05 0.0000000e+00 
0.0000000e+00 1.3488354e-05 0.0000000e+00 
0.0000000e+00 7.8333314e-06 0.0000000e+00 
0.0000000e+00 7.8609874e-06 0.0000000e+00 
0.0000000e+00 1.5141296e-05 0.0000000e+00 
0.0000000e+00 2.7744536e-05 0.0000000e+00 
0.0000000e+00 4.8752667e-05 0.0000000e+00 
0.0000000e+00 5.9832142e-05 0.0000000e+00 
0.0000000e+00 2.5952289e-05 0.0000000e+00 
0.0000000e+00 -6.4800406e-05 0.0000000e+00 
0.0000000e+00 -1.6176968e-04 0.0000000e+00 
0.0000000e+00 -1.6954824e-04 0.0000000e+00 
0.0000000e+00 -3.1849890e-05 0.0000000e+00 
0.0000000e+00 1.8669342e-04 0.0000000e+00 
0.0000000e+00 3.1992001e-04 0.0000000e+00 
0.0000000e+00 2.3602432e-04 0.0000000e+00 
0.0000000e+00 -2.7081613e-05 0.0000000e+00 
0.0000000e+00 -2.7567384e-04 0.0000000e+00 
0.0000000e+00 -3.3479929e-04 0.0000000e+00 
0.0000000e+00 -2.0711712e-04 0.0000000e+00 
0.0000000e+00 -4.1531734e-05 0.0000000e+00 
0.0000000e+00 5.7945883e-05 0.0000000e+00 
0.0000000e+00 1.3728978e-04 0.0000000e+00 
0.0000000e+00 2.6819718e-04 0.0000000e+00 
0.0000000e+00 3.7793015e-04 0.0000000e+00 
0.0000000e+00 3.0742766e-04 0.0000000e+00 
0.0000000e+00 4.3830198e-05 0.0000000e+00 
0.0000000e+00 -2.2120385e-04 0.0000000e+00 
0.0000000e+00 -3.3164371e-04 0.0000000e+00 
0.0000000e+00 -3.5700446e-04 0.0000000e+00 
0.0000000e+00 -4.1546801e-04 0.0000000e+00 
0.0000000e+00 -4.1505232e-04 0.0000000e+00 
0.0000000e+00 -2.0632047e-04 0.0000000e+00 
0.0000000e+00 1.0120325e-04 0.0000000e+00 
0.0000000e+00 2.9608147e-04 0.0000000e+00 
0.0000000e+00 4.1858881e-04 0.0000000e+00 
0.0000000e+00 -2.7735892e-03 0.0000000e+00 
0.0000000e+00 -2.8162501e-03 0.0000000e+00 
0.0000000e+00 -2.7962623e-03 0.0000000e+00 
0.0000000e+00 -2.8102233e-03 0.0000000e+00 
0.0000000e+00 -2.7797720e-03 0.0000000e+00 
0.0000000e+00 -2.8098009e-03 0.0000000e+00 
0.0000000e+00 -2.7854219e-03 0.0000000e+00 
0.0000000e+00 -2.8160592e-03 0.0000000e+00 
0.0000000e+00 -2.7626387e-03 0.0000000e+00 
0.0000000e+00 -2.7954150e-03 0.0000000e+00 
0.0000000e+00 -2.7546769e-03 0.0000000e+00 
0.0000000e+00 -2.7905956e-03 0.0000000e+00 
0.0000000e+00 -2.7194298e-03 0.0000000e+00 
0.0000000e+00 -2.7253781e-03 0.0000000e+00 
0.0000000e+00 -2.6517359e-03 0.0000000e+00 
0.0000000e+00 -2.6034913e-03 0.0000000e+00 
0.0000000e+00 -2.5772401e-03 0.0000000e+00 
0.0000000e+00 -2.4495295e-03 0.0000000e+00 
0.0000000e+00 -2.4024583e-03 0.0000000e+00 
0.0000000e+00 -2.2251282e-03 0.0000000e+00 
0.0000000e+00 -2.0668744e-03 0.0000000e+00 
0.0000000e+00 -1.9208895e-03 0.0000000e+00 
0.0000000e+00 -1.6341342e-03 0.0000000e+00 
0.0000000e+00 -1.4113125e-03 0.0000000e+00 
0.0000000e+00 -1.1554677e-03 0.0000000e+00 
0.0000000e+00 -7.7413837e-04 0.0000000e+00 
0.0000000e+00 -4.9551617e-04 0.0000000e+00 
0.0000000e+00 -2.3159817e-04 0.0000000e+00 
0.0000000e+00 1.3111759e-04 0.0000000e+00 
0.0000000e+00 3.7836144e-04 0.0000000e+00 
0.0000000e+00 4.9577735e-04 0.0000000e+00 
0.0000000e+00 6.5909873e-04 0.0000000e+00 
0.0000000e+00 7.4131711e-04 0.0000000e+00 
0.0000000e+00 7.4548012e-04 0.0000000e+00 
0.0000000e+00 6.5615092e-04 0.0000000e+00 
0.0000000e+00 4.8998441e-04 0.0000000e+00 
0.0000000e+00 3.8163661e-04 0.0000000e+00 
0.0000000e+00 1.3751106e-04 0.0000000e+00 
0.0000000e+00 -2.3620047e-04 0.0000000e+00 
0.0000000e+00 -4.9739477e-04 0.0000000e+00 
0.0000000e+00 -7.7228510e-04 0.0000000e+00 
0.0000000e+00 -1.1620106e-03 0.0000000e+00 
0.0000000e+00 -1.4119208e-03 0.0000000e+00 
0.0000000e+00 -1.6241828e-03 0.0000000e+00 
0.0000000e+00 -1.9271065e-03 0.0000000e+00 
0.0000000e+00 -2.0665429e-03 0.0000000e+00 
0.0000000e+00 -2.2089870e-03 0.0000000e+00 
0.0000000e+00 -2.4146154e-03 0.0000000e+00 
0.0000000e+00 -2.4491565e-03 0.0000000e+00 
0.0000000e+00 -2.5770592e-03 0.0000000e+00 
0.0000000e+00 -2.6189217e-03 0.0000000e+00 
0.0000000e+00 -2.6428918e-03 0.0000000e+00 
0.0000000e+00 -2.7278098e-03 0.0000000e+00 
0.0000000e+00 -2.7174344e-03 0.0000000e+00 
0.0000000e+00 -2.7923943e-03 0.0000000e+00 
0.0000000e+00 -2.7334583e-03 0.0000000e+00 
0.0000000e+00 -2.8007734e-03 0.0000000e+00 
0.0000000e+00 -2.7663994e-03 0.0000000e+00 
0.0000000e+00 -2.8138249e-03 0.0000000e+00 
0.0000000e+00 -2.7755161e-03 0.0000000e+00 
0.0000000e+00 -2.8257479e-03 0.0000000e+00 
0.0000000e+00 -2.7944499e-03 0.0000000e+00 
0.0000000e+00 -2.7882988e-03 0.0000000e+00 
0.0000000e+00 -2.8139285e-03 0.0000000e+00 
0.0000000e+00 -2.8123821e-03 0.0000000e+00 
0.0000000e+00 -2.7803099e-03 0.0000000e+00 
1.3962156e-06 4.3857182e-04 0.0000000e+00 
-2.8640551e-07 6.9160697e-06 0.0000000e+00 
-5.2694014e-07 5.4185359e-05 0.0000000e+00 
1.7966913e-07 -3.4032471e-04 0.0000000e+00 
2.1700132e-06 -3.4447829e-04 0.0000000e+00 
1.9533763e-06 1.9052677e-04 0.0000000e+00 
-8.9041419e-07 9.3605413e-05 0.0000000e+00 
-4.7622186e-07 -1.6808602e-04 0.0000000e+00 
-2.2334119e-09 7.9449856e-05 0.0000000e+00 
5.7214692e-07 -1.2120784e-04 0.0000000e+00 
2.3888407e-07 -1.1790577e-04 0.0000000e+00 
1.0696448e-06 3.3267058e-04 0.0000000e+00 
-3.6072905e-07 3.0700769e-04 0.0000000e+00 
-7.4388815e-09 -3.3254674e-04 0.0000000e+00 
1.0703980e-06 -4.3363107e-04 0.0000000e+00 
-9.5970086e-07 4.9825107e-05 0.0000000e+00 
7.9413978e-09 -1.8253765e-04 0.0000000e+00 
-7.1958789e-07 -2.9863193e-04 0.0000000e+00 
-1.1180966e-06 3.3632349e-04 0.0000000e+00 
-2.0841762e-07 3.1099009e-04 0.0000000e+00 
9.5105310e-07 -5.2527175e-05 0.0000000e+00 
2.4778421e-07 9.3186813e-05 0.0000000e+00 
3.7801522e-07 7.7134850e-05 0.0000000e+00 
1.0136492e-06 -1.1869609e-04 0.0000000e+00 
-1.7157381e-06 1.9313175e-04 0.0000000e+00 
-6.8676286e-08 3.6330959e-05 0.0000000e+00 
-3.2406831e-07 2.1398616e-04 0.0000000e+00 
8.5013191e-08 1.9090805e-05 0.0000000e+00 
7.9638022e-07 3.5142075e-04 0.0000000e+00 
8.5836547e-07 1.0776817e-05 0.0000000e+00 
5.7260235e-07 6.6900488e-06 0.0000000e+00 
-1.2461612e-06 4.3591781e-04 0.0000000e+00 
5.4155129e-07 2.1459635e-04 0.0000000e+00 
3.1547579e-06 1.0227596e-04 0.0000000e+00 
-1.1327388e-06 -2.0753319e-04 0.0000000e+00 
1.7291386e-06 -4.5808556e-05 0.0000000e+00 
-1.6959498e-06 -3.3371209e-04 0.0000000e+00 
4.9340491e-07 -2.0201098e-04 0.0000000e+00 
-1.6194977e-07 -4.1096669e-04 0.0000000e+00 
8.2565734e-08 1.0808729e-04 0.0000000e+00 
1.5228562e-06 -4.3294404e-04 0.0000000e+00 
4.6358016e-07 -4.1587182e-04 0.0000000e+00 
1.2751351e-06 -3.8446978e-04 0.0000000e+00 
3.1229720e-07 -3.5965786e-04 0.0000000e+00 
-1.9345198e-06 -3.4594463e-04 0.0000000e+00 
-3.7613185e-07 -3.3164385e-04 0.0000000e+00 
-5.9726955e-07 -2.9731082e-04 0.0000000e+00 
-4.2024774e-07 -2.2307775e-04 0.0000000e+00 
-1.0635727e-06 -1.0580273e-04 0.0000000e+00 
-4.3904123e-07 3.7920137e-05 0.0000000e+00 
-2.5085210e-06 1.8824918e-04 0.0000000e+00 
2.7510953e-07 3.0525599e-04 0.0000000e+00 
-1.6507492e-07 3.7161281e-04 0.0000000e+00 
4.0098797e-07 3.7848036e-04 0.0000000e+00 
1.4346897e-06 3.3543346e-04 0.0000000e+00 
-3.0438994e-07 2.6773749e-04 0.0000000e+00 
4.2108758e-07 1.9507200e-04 0.0000000e+00 
-6.3852042e-07 1.3612272e-04 0.0000000e+00 
2.4406084e-08 9.3268798e-05 0.0000000e+00 
-3.3045890e-07 5.7620113e-05 0.0000000e+00 
3.0572008e-07 1.7959346e-05 0.0000000e+00 
1.8642420e-07 -4.0027899e-05 0.0000000e+00 
7.9840461e-08 -1.1688782e-04 0.0000000e+00 
3.8026445e-07 -2.0420160e-04 0.0000000e+00 
-3.6688456e-07 -2.8508849e-04 0.0000000e+00 
1.3765556e-07 -3.3345682e-04 0.0000000e+00 
-5.8039922e-07 -3.3548987e-04 0.0000000e+00 
-1.8444553e-07 -2.7627367e-04 0.0000000e+00 
-4.0992080e-07 -1.7042342e-04 0.0000000e+00 
-7.3683913e-07 -2.7363640e-05 0.0000000e+00 
-1.0104025e-06 1.1507194e-04 0.0000000e+00 
-1.0067847e-06 2.3411350e-04 0.0000000e+00 
-8.4724087e-07 3.0891824e-04 0.0000000e+00 
-5.1640484e-07 3.2248141e-04 0.0000000e+00 
-2.5101045e-07 2.7980309e-04 0.0000000e+00 
-7.5403372e-09 1.9249170e-04 0.0000000e+00 
2.6262109e-07 8.1677805e-05 0.0000000e+00 
7.4966755e-07 -2.6796342e-05 0.0000000e+00 
9.7520297e-07 -1.1556821e-04 0.0000000e+00 
1.3310919e-06 -1.6812769e-04 0.0000000e+00 
1.4098619e-06 -1.8341852e-04 0.0000000e+00 
1.3127803e-06 -1.6395806e-04 0.0000000e+00 
1.2297812e-06 -1.2136433e-04 0.0000000e+00 
4.4754589e-07 -6.9058995e-05 0.0000000e+00 
5.0587926e-07 -1.7881035e-05 0.0000000e+00 
-2.6595495e-07 2.0925079e-05 0.0000000e+00 
-1.3700485e-07 4.6122394e-05 0.0000000e+00 
-5.1268194e-07 5.4655182e-05 0.0000000e+00 
-3.5519992e-07 5.4235890e-05 0.0000000e+00 
-1.1815213e-07 4.3795753e-05 0.0000000e+00 
-1.3308450e-07 3.5661189e-05 0.0000000e+00 
2.6918104e-07 2.3807983e-05 0.0000000e+00 
6.7882119e-08 1.9708217e-05 0.0000000e+00 
3.7044185e-07 -3.8466963e-04 0.0000000e+00 
-4.5292049e-07 -4.5662709e-05 0.0000000e+00 
8.7273122e-08 -1.0901268e-04 0.0000000e+00 
-1.0974467e-06 1.1207359e-04 0.0000000e+00 
-5.1562859e-07 2.2211667e-04 0.0000000e+00 
1.0763749e-06 3.7093437e-04 0.0000000e+00 
-1.6143575e-06 1.9713197e-04 0.0000000e+00 
-5.8260207e-07 -1.8687739e-05 0.0000000e+00 
-2.6808215e-07 1.7492457e-05 0.0000000e+00 
1.0815667e-06 -2.8389710e-04 0.0000000e+00 
-8.6486118e-08 2.7887165e-04 0.0000000e+00 
1.0500811e-06 -1.1404650e-04 0.0000000e+00 
-7.1834762e-07 5.2466454e-05 0.0000000e+00 
2.4137697e-07 2.2301470e-05 0.0000000e+00 
8.1389862e-07 -1.6961015e-04 0.0000000e+00 
-7.4338641e-07 -3.3584581e-04 0.0000000e+00 
-1.7097200e-06 -3.5866807e-04 0.0000000e+00 
1.1284646e-07 1.2803922e-05 0.0000000e+00 
6.6393363e-07 1.6022013e-05 0.0000000e+00 
5.3443108e-07 9.1125448e-06 0.0000000e+00 
-2.7819578e-08 3.0700589e-04 0.0000000e+00 
1.9887964e-06 3.5527811e-04 0.0000000e+00 
-1.3404128e-06 3.6131614e-04 0.0000000e+00 
-2.4313618e-07 2.7504908e-05 0.0000000e+00 
3.4715973e-07 1.6794380e-05 0.0000000e+00 
4.3148543e-08 1.9132921e-04 0.0000000e+00 
-6.6571596e-07 2.3686423e-04 0.0000000e+00 
5.4006608e-07 -3.9188279e-05 0.0000000e+00 
2.0703247e-07 1.3619571e-04 0.0000000e+00 
1.3708155e-06 3.7668910e-04 0.0000000e+00 
-2.4507181e-06 4.3733031e-05 0.0000000e+00 
7.6235500e-07 2.2915447e-04 0.0000000e+00 
-4.7664284e-07 3.5166529e-05 0.0000000e+00 
-6.2380832e-07 4.6923662e-05 0.0000000e+00 
6.1559376e-07 1.9182826e-05 0.0000000e+00 
1.0250736e-07 3.2367796e-05 0.0000000e+00 
-2.1035839e-06 -3.3679712e-04 0.0000000e+00 
-7.0600157e-07 -5.2430296e-05 0.0000000e+00 
-7.2765226e-07 5.6462675e-05 0.0000000e+00 
-9.8054636e-07 4.5402445e-05 0.0000000e+00 
-5.5694770e-08 1.2482181e-05 0.0000000e+00 
8.6386132e-07 -6.8035588e-05 0.0000000e+00 
1.0814406e-06 -1.6422497e-04 0.0000000e+00 
4.1148357e-07 -1.8443960e-04 0.0000000e+00 
2.3979408e-07 -1.2039993e-04 0.0000000e+00 
-5.6682916e-07 -6.5149587e-05 0.0000000e+00 
1.1141987e-06 -1.8280734e-04 0.0000000e+00 
-7.4161295e-07 -1.6767303e-04 0.0000000e+00 
-4.2865506e-07 -2.7229101e-04 0.0000000e+00 
-8.5491547e-07 1.1529813e-04 0.0000000e+00 
6.4865060e-07 1.8503843e-05 0.0000000e+00 
-2.6619301e-07 -2.0539183e-04 0.0000000e+00 
-3.0190930e-07 -2.8678030e-04 0.0000000e+00 
-5.8979833e-07 -1.0255350e-04 0.0000000e+00 
-2.0733062e-06 3.0757111e-04 0.0000000e+00 
-1.1193213e-07 3.7141371e-04 0.0000000e+00 
1.2516387e-06 2.6604402e-04 0.0000000e+00 
3.2804431e-07 1.9324217e-04 0.0000000e+00 
5.9818456e-07 5.9165628e-05 0.0000000e+00 
-1.1109554e-06 1.9687646e-04 0.0000000e+00 
-1.1625289e-06 -4.3738744e-04 0.0000000e+00 
-5.7756694e-07 -4.1748304e-04 0.0000000e+00 
1.1223410e-06 -3.8329852e-04 0.0000000e+00 
-5.9679735e-08 -2.9627135e-04 0.0000000e+00 
1.0581430e-06 -3.3048957e-04 0.0000000e+00 
4.8926233e-07 -1.0435676e-04 0.0000000e+00 
-4.3127767e-07 1.1766121e-04 0.0000000e+00 
-2.9967006e-07 3.2352249e-04 0.0000000e+00 
-3.8994128e-09 2.7930975e-04 0.0000000e+00 
2.1409302e-07 -2.8858252e-05 0.0000000e+00 
-2.5730078e-06 -3.4669740e-04 0.0000000e+00 
-2.4662172e-06 -3.3269482e-04 0.0000000e+00 
1.1079308e-06 -2.8674447e-04 0.0000000e+00 
4.9344055e-07 3.7170088e-04 0.0000000e+00 
-1.6664818e-07 4.7014248e-05 0.0000000e+00 
2.6541866e-07 -1.7140015e-05 0.0000000e+00 
2.1115444e-07 2.7536883e-04 0.0000000e+00 
-1.9886524e-07 1.6770615e-05 0.0000000e+00 
1.5646673e-07 -1.1701386e-04 0.0000000e+00 
3.9020728e-07 8.2739265e-05 0.0000000e+00 
-7.8956970e-07 -2.9324825e-05 0.0000000e+00 
-7.0697433e-07 -2.7857308e-04 0.0000000e+00 
-5.2808150e-07 3.0581956e-04 0.0000000e+00 
8.5984516e-07 -1.1604332e-04 0.0000000e+00 
-1.0876207e-06 9.3515533e-05 0.0000000e+00 
-1.2354516e-06 3.3741651e-04 0.0000000e+00 
2.3868911e-06 1.8478703e-04 0.0000000e+00 
4.1358260e-07 -3.8201630e-04 0.0000000e+00 
2.9109592e-06 -4.1545695e-04 0.0000000e+00 
-1.0558233e-06 -4.1310568e-04 0.0000000e+00 
1.4980755e-07 -1.1777724e-04 0.0000000e+00 
-2.4983223e-07 -2.2186144e-04 0.0000000e+00 
-6.8222721e-07 -3.3520334e-04 0.0000000e+00 
-1.1651163e-06 3.0026445e-04 0.0000000e+00 
1.9708120e-06 4.3450709e-04 0.0000000e+00 
-4.6051858e-07 5.6607467e-05 0.0000000e+00 
1.2804136e-06 2.9783655e-04 0.0000000e+00 
3.5956052e-07 -2.0696028e-04 0.0000000e+00 
-6.9209813e-07 3.4904535e-04 0.0000000e+00 
7.6574281e-07 1.1646394e-05 0.0000000e+00 
2.7911938e-06 -3.5885983e-04 0.0000000e+00 
-1.7607158e-06 1.0250517e-04 0.0000000e+00 
7.2346523e-07 6.0401444e-06 0.0000000e+00 
9.1763820e-07 -3.3668269e-04 0.0000000e+00 
-1.2318362e-06 -4.3549825e-04 0.0000000e+00 
-1.2075927e-06 -4.1868654e-04 0.0000000e+00 
1.6637536e-06 -3.4429194e-04 0.0000000e+00 
7.9545401e-07 -3.3296517e-04 0.0000000e+00 
-6.6935274e-07 -2.9489215e-04 0.0000000e+00 
-6.2120699e-07 -2.2375074e-04 0.0000000e+00 
2.1649082e-06 3.8588405e-05 0.0000000e+00 
2.4573769e-06 3.0450578e-04 0.0000000e+00 
-6.0746612e-07 3.7836446e-04 0.0000000e+00 
-1.9148742e-06 2.6998116e-04 0.0000000e+00 
-6.7745378e-07 -1.4992899e-05 0.0000000e+00 
-1.5096505e-06 1.3852230e-04 0.0000000e+00 
-8.9863852e-07 5.8777739e-05 0.0000000e+00 
5.3412055e-07 -3.9525665e-05 0.0000000e+00 
-6.0222027e-07 -1.6890923e-04 0.0000000e+00 
1.6487623e-06 -2.0508336e-04 0.0000000e+00 
2.0600463e-07 -3.3282698e-04 0.0000000e+00 
-1.1922642e-06 -3.4703105e-05 0.0000000e+00 
-8.6725953e-07 2.3139261e-04 0.0000000e+00 
-1.7717916e-07 3.2017176e-04 0.0000000e+00 
3.4185157e-07 1.9141297e-04 0.0000000e+00 
1.9933660e-07 -1.6303131e-04 0.0000000e+00 
6.1536053e-07 -2.6901329e-05 0.0000000e+00 
4.9082371e-07 -1.6835122e-04 0.0000000e+00 
1.0643315e-06 1.2354482e-05 0.0000000e+00 
5.0366856e-07 2.3942150e-05 0.0000000e+00 
-5.0562960e-07 4.4960387e-05 0.0000000e+00 
-1.1702248e-06 2.3396107e-05 0.0000000e+00 
-2.2362306e-07 -1.1860676e-04 0.0000000e+00 
-1.2049829e-06 5.6578861e-05 0.0000000e+00 
2.3693504e-08 6.5902932e-06 0.0000000e+00 
1.2884605e-07 4.5067727e-06 0.0000000e+00 
-4.2820207e-07 4.8131196e-04 0.0000000e+00 
9.7732780e-08 4.8210809e-04 0.0000000e+00 
2.4445289e-06 4.6290644e-04 0.0000000e+00 
-1.4328905e-06 4.6520418e-04 0.0000000e+00 
3.9837124e-07 5.9807562e-06 0.0000000e+00 
4.0633481e-07 5.4855959e-06 0.0000000e+00 
4.3914679e-07 1.1488301e-05 0.0000000e+00 
1.6235668e-05 -2.8031766e-03 0.0000000e+00 
-6.3554165e-07 7.4172462e-04 0.0000000e+00 
-1.5895873e-06 -2.8116344e-03 0.0000000e+00 
5.7020657e-07 2.8329724e-04 0.0000000e+00 
2.7187859e-06 -2.7864252e-03 0.0000000e+00 
7.7407014e-07 -6.1907293e-04 0.0000000e+00 
-3.9472216e-06 -2.7601873e-03 0.0000000e+00 
-5.6269737e-06 -2.0144428e-03 0.0000000e+00 
-3.5033077e-06 -2.6212269e-03 0.0000000e+00 
-4.3162231e-06 -2.7211297e-03 0.0000000e+00 
-4.7950498e-06 -2.3284005e-03 0.0000000e+00 
4.9977825e-06 -1.3109809e-03 0.0000000e+00 
1.7147604e-06 -2.7927337e-03 0.0000000e+00 
-3.0529484e-06 -2.7426525e-03 0.0000000e+00 
1.9332217e-06 -4.9956525e-05 0.0000000e+00 
4.3347682e-06 -2.7984881e-03 0.0000000e+00 
2.6262505e-06 -2.7914711e-03 0.0000000e+00 
1.5753711e-06 -2.4873186e-03 0.0000000e+00 
-6.0411467e-06 -2.7760109e-03 0.0000000e+00 
-8.8653644e-07 -2.7260343e-03 0.0000000e+00 
-1.6477028e-06 -1.3079478e-03 0.0000000e+00 
1.1261196e-07 -1.7787435e-03 0.0000000e+00 
-2.0354912e-06 4.4141454e-04 0.0000000e+00 
-3.4364684e-06 -6.1570539e-04 0.0000000e+00 
3.0696044e-06 -2.4224464e-03 0.0000000e+00 
4.4334737e-07 -2.7949286e-03 0.0000000e+00 
7.5661023e-06 -2.7807716e-03 0.0000000e+00 
3.5058586e-06 5.6886737e-04 0.0000000e+00 
1.3351774e-06 7.2348857e-04 0.0000000e+00 
9.9338131e-06 -2.8072549e-03 0.0000000e+00 
-5.4978220e-05 -2.8223211e-03 0.0000000e+00 
-5.3261506e-06 7.3782814e-04 0.0000000e+00 
-5.2006599e-06 5.6606263e-04 0.0000000e+00 
-1.2303860e-06 4.9669843e-04 0.0000000e+00 
5.1233422e-07 3.9211521e-04 0.0000000e+00 
1.5483497e-06 4.4502641e-04 0.0000000e+00 
-1.4316983e-06 2.9329601e-04 0.0000000e+00 
-4.8464625e-07 3.8175657e-04 0.0000000e+00 
5.4651942e-08 1.3806127e-04 0.0000000e+00 
-7.9817733e-07 4.9752888e-04 0.0000000e+00 
-2.5057336e-06 -4.3934680e-05 0.0000000e+00 
9.9801377e-07 -2.2831207e-04 0.0000000e+00 
1.2704114e-06 -3.7756955e-04 0.0000000e+00 
6.8642669e-07 -4.9209315e-04 0.0000000e+00 
-1.2607313e-06 -6.1100395e-04 0.0000000e+00 
-2.5388979e-07 -7.6527399e-04 0.0000000e+00 
2.3998318e-06 -9.5743459e-04 0.0000000e+00 
2.8628196e-07 -1.1498524e-03 0.0000000e+00 
7.0873000e-07 -1.3056499e-03 0.0000000e+00 
-5.3702815e-06 -1.4109466e-03 0.0000000e+00 
-3.3912054e-06 -1.5017667e-03 0.0000000e+00 
2.1779035e-06 -1.6244389e-03 0.0000000e+00 
4.2508600e-06 -1.7745371e-03 0.0000000e+00 
2.3539280e-06 -1.9216628e-03 0.0000000e+00 
-7.2615774e-07 -2.0177311e-03 0.0000000e+00 
7.4292689e-07 -2.0691340e-03 0.0000000e+00 
6.8576924e-07 -2.1244956e-03 0.0000000e+00 
-3.9390738e-07 -2.2184839e-03 0.0000000e+00 
-9.5418739e-07 -2.3310725e-03 0.0000000e+00 
9.8568114e-07 -2.4021612e-03 0.0000000e+00 
-2.8666844e-07 -2.4286341e-03 0.0000000e+00 
-6.6717821e-06 -2.4398433e-03 0.0000000e+00 