# vtk DataFile Version 4.0
vtk output
ASCII
DATASET UNSTRUCTURED_GRID
POINTS 100 float
0.0000000e+00 0.0000000e+00 0.0000000e+00 
1.0000000e+00 0.0000000e+00 0.0000000e+00 
1.0000000e+00 1.0000000e+01 0.0000000e+00 
0.0000000e+00 1.0000000e+01 0.0000000e+00 
3.3333334e-01 0.0000000e+00 0.0000000e+00 
6.6666669e-01 0.0000000e+00 0.0000000e+00 
1.0000000e+00 4.3478259e-01 0.0000000e+00 
1.0000000e+00 8.6956519e-01 0.0000000e+00 
1.0000000e+00 1.3043479e+00 0.0000000e+00 
1.0000000e+00 1.7391304e+00 0.0000000e+00 
1.0000000e+00 2.1739130e+00 0.0000000e+00 
1.0000000e+00 2.6086957e+00 0.0000000e+00 
1.0000000e+00 3.0434783e+00 0.0000000e+00 
1.0000000e+00 3.4782608e+00 0.0000000e+00 
1.0000000e+00 3.9130435e+00 0.0000000e+00 
1.0000000e+00 4.3478260e+00 0.0000000e+00 
1.0000000e+00 4.7826085e+00 0.0000000e+00 
1.0000000e+00 5.2173915e+00 0.0000000e+00 
1.0000000e+00 5.6521740e+00 0.0000000e+00 
1.0000000e+00 6.0869565e+00 0.0000000e+00 
1.0000000e+00 6.5217390e+00 0.0000000e+00 
1.0000000e+00 6.9565215e+00 0.0000000e+00 
1.0000000e+00 7.3913045e+00 0.0000000e+00 
1.0000000e+00 7.8260870e+00 0.0000000e+00 
1.0000000e+00 8.2608700e+00 0.0000000e+00 
1.0000000e+00 8.6956520e+00 0.0000000e+00 
1.0000000e+00 9.1304350e+00 0.0000000e+00 
1.0000000e+00 9.5652170e+00 0.0000000e+00 
6.6666669e-01 1.0000000e+01 0.0000000e+00 
3.3333334e-01 1.0000000e+01 0.0000000e+00 
0.0000000e+00 9.5652170e+00 0.0000000e+00 
0.0000000e+00 9.1304350e+00 0.0000000e+00 
0.0000000e+00 8.6956520e+00 0.0000000e+00 
0.0000000e+00 8.2608700e+00 0.0000000e+00 
0.0000000e+00 7.8260870e+00 0.0000000e+00 
0.0000000e+00 7.3913045e+00 0.0000000e+00 
0.0000000e+00 6.9565215e+00 0.0000000e+00 
0.0000000e+00 6.5217390e+00 0.0000000e+00 
0.0000000e+00 6.0869565e+00 0.0000000e+00 
0.0000000e+00 5.6521740e+00 0.0000000e+00 
0.0000000e+00 5.2173915e+00 0.0000000e+00 
0.0000000e+00 4.7826085e+00 0.0000000e+00 
0.0000000e+00 4.3478260e+00 0.0000000e+00 
0.0000000e+00 3.9130435e+00 0.0000000e+00 
0.0000000e+00 3.4782608e+00 0.0000000e+00 
0.0000000e+00 3.0434783e+00 0.0000000e+00 
0.0000000e+00 2.6086957e+00 0.0000000e+00 
0.0000000e+00 2.1739130e+00 0.0000000e+00 
0.0000000e+00 1.7391304e+00 0.0000000e+00 
0.0000000e+00 1.3043479e+00 0.0000000e+00 
0.0000000e+00 8.6956519e-01 0.0000000e+00 
0.0000000e+00 4.3478259e-01 0.0000000e+00 
5.1344687e-01 9.7061529e+00 0.0000000e+00 
4.8655313e-01 2.9384753e-01 0.0000000e+00 
6.6897172e-01 1.1634127e+00 0.0000000e+00 
3.3102828e-01 8.8365870e+00 0.0000000e+00 
6.2346721e-01 5.8695650e+00 0.0000000e+00 
6.6666669e-01 4.0579710e+00 0.0000000e+00 
3.7653279e-01 5.0000000e+00 0.0000000e+00 
6.2346721e-01 6.7391305e+00 0.0000000e+00 
6.2346721e-01 7.6086955e+00 0.0000000e+00 
6.2346721e-01 1.9565217e+00 0.0000000e+00 
3.7653279e-01 3.2608695e+00 0.0000000e+00 
3.7653279e-01 2.3913043e+00 0.0000000e+00 
3.7653279e-01 8.0434780e+00 0.0000000e+00 
3.7653279e-01 6.3043480e+00 0.0000000e+00 
3.7653279e-01 7.1739130e+00 0.0000000e+00 
6.2346721e-01 2.8260870e+00 0.0000000e+00 
3.6661035e-01 1.5326614e+00 0.0000000e+00 
6.3338965e-01 8.4673386e+00 0.0000000e+00 
6.6666669e-01 5.3623190e+00 0.0000000e+00 
3.4053326e-01 3.7560387e+00 0.0000000e+00 
6.1671901e-01 4.5548654e+00 0.0000000e+00 
3.5075530e-01 9.3259811e+00 0.0000000e+00 
6.4924473e-01 6.7401856e-01 0.0000000e+00 
7.3728365e-01 9.4039068e+00 0.0000000e+00 
2.6271632e-01 5.9609360e-01 0.0000000e+00 
2.5476670e-01 5.8695650e+00 0.0000000e+00 
3.1629205e-01 4.1991606e+00 0.0000000e+00 
6.8991148e-01 8.9584770e+00 0.0000000e+00 
7.2616655e-01 7.1739130e+00 0.0000000e+00 
7.2667795e-01 8.0412941e+00 0.0000000e+00 
2.6819015e-01 8.4607849e+00 0.0000000e+00 
2.6190877e-01 4.5768919e+00 0.0000000e+00 
7.3180985e-01 1.5392148e+00 0.0000000e+00 
7.3198366e-01 4.9834371e+00 0.0000000e+00 
2.7332208e-01 1.9587063e+00 0.0000000e+00 
3.1008852e-01 1.0415232e+00 0.0000000e+00 
2.7383348e-01 2.8260870e+00 0.0000000e+00 
7.2616655e-01 2.3913043e+00 0.0000000e+00 
7.4523330e-01 3.2608695e+00 0.0000000e+00 
2.7383348e-01 7.6086955e+00 0.0000000e+00 
2.7383348e-01 6.7391305e+00 0.0000000e+00 
7.2616655e-01 6.3043480e+00 0.0000000e+00 
3.2023889e-01 5.4951692e+00 0.0000000e+00 
6.8816102e-01 3.6211755e+00 0.0000000e+00 
2.1652056e-01 2.6494476e-01 0.0000000e+00 
7.8347945e-01 9.7350550e+00 0.0000000e+00 
7.6049292e-01 2.8052974e-01 0.0000000e+00 
2.3950709e-01 9.7194700e+00 0.0000000e+00 

CELLS 146 584
3 74 87 76
3 73 79 75
3 77 94 56
3 56 94 70
3 90 95 62
3 72 83 78
3 72 78 57
3 62 95 71
3 55 79 73
3 54 87 74
3 52 99 73
3 53 98 74
3 73 99 30
3 74 98 6
3 66 92 59
3 64 91 60
3 60 81 64
3 63 86 61
3 62 88 67
3 61 89 63
3 72 85 58
3 67 90 62
3 65 77 56
3 56 93 65
3 58 83 72
3 59 80 66
3 54 84 68
3 68 87 54
3 55 82 69
3 69 79 55
3 70 94 58
3 65 93 59
3 66 80 60
3 57 78 71
3 58 85 70
3 59 92 65
3 67 88 63
3 60 91 66
3 69 82 64
3 71 95 57
3 61 86 68
3 63 89 67
3 64 81 69
3 68 84 61
3 75 97 52
3 76 96 53
3 30 99 3
3 2 97 27
3 0 96 51
3 6 98 1
3 23 60 22
3 47 63 46
3 45 62 44
3 15 57 14
3 15 72 57
3 38 65 37
3 41 58 40
3 44 71 43
3 10 61 9
3 56 70 18
3 25 69 24
3 62 71 44
3 49 68 48
3 12 67 11
3 19 56 18
3 34 64 33
3 36 66 35
3 8 54 7
3 16 72 15
3 21 59 20
3 18 70 17
3 32 55 31
3 31 73 30
3 7 74 6
3 54 74 7
3 55 73 31
3 74 76 53
3 73 75 52
3 69 81 24
3 34 91 64
3 71 78 43
3 10 89 61
3 16 85 72
3 58 94 40
3 57 95 14
3 59 93 20
3 32 82 55
3 41 83 58
3 36 92 66
3 70 85 17
3 21 80 59
3 25 79 69
3 45 88 62
3 63 88 46
3 47 86 63
3 12 90 67
3 23 81 60
3 68 86 48
3 66 91 35
3 38 77 65
3 19 93 56
3 8 84 54
3 60 80 22
3 49 87 68
3 65 92 37
3 67 89 11
3 61 84 9
3 64 82 33
3 27 97 75
3 51 96 76
3 5 53 4
3 29 52 28
3 27 75 26
3 51 76 50
3 75 79 26
3 76 87 50
3 78 83 42
3 40 94 39
3 24 81 23
3 33 82 32
3 39 94 77
3 43 78 42
3 9 84 8
3 17 85 16
3 11 89 10
3 14 95 13
3 13 90 12
3 26 79 25
3 35 91 34
3 37 92 36
3 48 86 47
3 50 87 49
3 46 88 45
3 13 95 90
3 39 77 38
3 20 93 19
3 42 83 41
3 22 80 21
3 29 99 52
3 5 98 53
3 52 97 28
3 53 96 4
3 1 98 5
3 3 99 29
3 4 96 0
3 28 97 2

CELL_TYPES 146
5
5
5
5
5
5
5
5
5
5
5
5
5
5
5
5
5
5
5
5
5
5
5
5
5
5
5
5
5
5
5
5
5
5
5
5
5
5
5
5
5
5
5
5
5
5
5
5
5
5
5
5
5
5
5
5
5
5
5
5
5
5
5
5
5
5
5
5
5
5
5
5
5
5
5
5
5
5
5
5
5
5
5
5
5
5
5
5
5
5
5
5
5
5
5
5
5
5
5
5
5
5
5
5
5
5
5
5
5
5
5
5
5
5
5
5
5
5
5
5
5
5
5
5
5
5
5
5
5
5
5
5
5
5
5
5
5
5
5
5
5
5
5
5
5
5
POINT_DATA 100
FIELD FieldData 1
VELOCITY 3 100  float
0.0000000e+00 0.0000000e+00 0.0000000e+00 
0.0000000e+00 0.0000000e+00 0.0000000e+00 
0.0000000e+00 2.1908821e-03 0.0000000e+00 
0.0000000e+00 2.4713755e-03 0.0000000e+00 
0.0000000e+00 0.0000000e+00 0.0000000e+00 
0.0000000e+00 0.0000000e+00 0.0000000e+00 
0.0000000e+00 2.7835945e-04 0.0000000e+00 
0.0000000e+00 -3.4287121e-04 0.0000000e+00 
0.0000000e+00 1.9940615e-04 0.0000000e+00 
0.0000000e+00 3.4785829e-05 0.0000000e+00 
0.0000000e+00 -2.5186755e-04 0.0000000e+00 
0.0000000e+00 2.0032933e-04 0.0000000e+00 
0.0000000e+00 1.1624445e-04 0.0000000e+00 
0.0000000e+00 -1.8697996e-04 0.0000000e+00 
0.0000000e+00 -1.3341667e-04 0.0000000e+00 
0.0000000e+00 3.3575611e-04 0.0000000e+00 
0.0000000e+00 1.7532238e-04 0.0000000e+00 
0.0000000e+00 -1.3350093e-04 0.0000000e+00 
0.0000000e+00 2.3540026e-04 0.0000000e+00 
0.0000000e+00 8.0432522e-04 0.0000000e+00 
0.0000000e+00 1.0436070e-03 0.0000000e+00 
0.0000000e+00 9.6395804e-04 0.0000000e+00 
0.0000000e+00 1.5924287e-03 0.0000000e+00 
0.0000000e+00 2.8814299e-03 0.0000000e+00 
0.0000000e+00 3.5210429e-03 0.0000000e+00 
0.0000000e+00 3.6077411e-03 0.0000000e+00 
0.0000000e+00 3.3522788e-03 0.0000000e+00 
0.0000000e+00 2.3885574e-03 0.0000000e+00 
2.2181097e-04 2.9516655e-03 0.0000000e+00 
-1.7271258e-04 2.7047803e-03 0.0000000e+00 
0.0000000e+00 2.6622219e-03 0.0000000e+00 
0.0000000e+00 3.1041917e-03 0.0000000e+00 
0.0000000e+00 3.6735144e-03 0.0000000e+00 
0.0000000e+00 3.6495195e-03 0.0000000e+00 
0.0000000e+00 2.6517783e-03 0.0000000e+00 
0.0000000e+00 1.8616520e-03 0.0000000e+00 
0.0000000e+00 7.4680097e-04 0.0000000e+00 
0.0000000e+00 1.0181798e-03 0.0000000e+00 
0.0000000e+00 6.6085788e-04 0.0000000e+00 
0.0000000e+00 2.2550618e-04 0.0000000e+00 
0.0000000e+00 -1.6166798e-04 0.0000000e+00 
0.0000000e+00 5.7006953e-05 0.0000000e+00 
0.0000000e+00 2.5938894e-04 0.0000000e+00 
0.0000000e+00 -1.0435230e-04 0.0000000e+00 
0.0000000e+00 -1.0310721e-04 0.0000000e+00 
0.0000000e+00 1.8537971e-04 0.0000000e+00 
0.0000000e+00 4.0793177e-05 0.0000000e+00 
0.0000000e+00 -3.4598235e-04 0.0000000e+00 
0.0000000e+00 2.0518733e-04 0.0000000e+00 
0.0000000e+00 1.8205687e-04 0.0000000e+00 
0.0000000e+00 -2.9447401e-04 0.0000000e+00 
0.0000000e+00 2.5094903e-04 0.0000000e+00 
-1.1542800e-04 1.9693300e-03 0.0000000e+00 
3.7773749e-05 1.9078169e-04 0.0000000e+00 
1.2857869e-04 -2.4861027e-05 0.0000000e+00 
-2.2349714e-05 3.4297463e-03 0.0000000e+00 
1.5919029e-05 5.6765613e-04 0.0000000e+00 
-3.7830971e-05 -6.3884390e-06 0.0000000e+00 
2.9759200e-05 -1.5134626e-04 0.0000000e+00 
2.8524079e-05 8.3138986e-04 0.0000000e+00 
5.5124156e-06 2.0889069e-03 0.0000000e+00 
-8.5820007e-05 -2.2383936e-04 0.0000000e+00 
3.4397071e-05 2.7018532e-05 0.0000000e+00 
-8.9573019e-05 2.6144603e-06 0.0000000e+00 
1.0846768e-05 3.3324494e-03 0.0000000e+00 
-6.4694752e-05 9.6836843e-04 0.0000000e+00 
-1.6671338e-05 1.2463012e-03 0.0000000e+00 
5.7105266e-05 1.0006350e-04 0.0000000e+00 
4.7448000e-05 2.5440668e-04 0.0000000e+00 
-1.3695683e-04 3.8166214e-03 0.0000000e+00 
4.6253940e-06 -6.1062001e-06 0.0000000e+00 
1.6664206e-05 -2.7537369e-04 0.0000000e+00 
-4.2044161e-05 3.2936598e-04 0.0000000e+00 
-1.0306477e-05 3.0575695e-03 0.0000000e+00 
-1.3303342e-04 -1.2560163e-04 0.0000000e+00 
4.9102309e-05 2.8161607e-03 0.0000000e+00 
7.9025094e-06 -3.9742637e-05 0.0000000e+00 
5.4993598e-05 4.7982560e-04 0.0000000e+00 
1.1408693e-05 2.3240194e-04 0.0000000e+00 
-2.1390608e-05 3.3392282e-03 0.0000000e+00 
1.6319060e-05 1.2988214e-03 0.0000000e+00 
1.8536120e-04 3.1088409e-03 0.0000000e+00 
5.9961771e-05 3.6905927e-03 0.0000000e+00 
-4.3824497e-05 2.7010962e-04 0.0000000e+00 
3.5199286e-05 1.9704556e-04 0.0000000e+00 
5.2741680e-06 -8.0370446e-05 0.0000000e+00 
3.6370289e-05 -7.8516416e-05 0.0000000e+00 
1.1107195e-05 -1.9570164e-04 0.0000000e+00 
4.0566061e-05 1.9226079e-04 0.0000000e+00 
6.7386031e-06 -6.9663154e-05 0.0000000e+00 
-2.6513002e-05 8.5420397e-06 0.0000000e+00 
-8.1528733e-06 2.1706561e-03 0.0000000e+00 
1.0545320e-04 1.0176573e-03 0.0000000e+00 
5.7890784e-06 8.1472396e-04 0.0000000e+00 
-2.9045957e-05 5.2699779e-05 0.0000000e+00 
8.6950764e-05 -1.1772768e-04 0.0000000e+00 
-4.0369118e-06 2.4514983e-04 0.0000000e+00 
1.1250540e-04 2.5152641e-03 0.0000000e+00 
6.1716120e-05 2.6462568e-04 0.0000000e+00 
1.7902697e-04 2.0851204e-03 0.0000000e+00 
CELL_DATA 146
FIELD FieldData 0
