# vtk DataFile Version 4.0
vtk output
ASCII
DATASET UNSTRUCTURED_GRID
POINTS 628 float
0.0000000e+00 0.0000000e+00 0.0000000e+00 
1.0000000e+00 0.0000000e+00 0.0000000e+00 
1.0000000e+00 1.0000000e+01 0.0000000e+00 
0.0000000e+00 1.0000000e+01 0.0000000e+00 
0.0000000e+00 5.0000000e+00 0.0000000e+00 
1.0000000e+00 5.0000000e+00 0.0000000e+00 
1.4285715e-01 0.0000000e+00 0.0000000e+00 
2.8571430e-01 0.0000000e+00 0.0000000e+00 
4.2857143e-01 0.0000000e+00 0.0000000e+00 
5.7142860e-01 0.0000000e+00 0.0000000e+00 
7.1428573e-01 0.0000000e+00 0.0000000e+00 
8.5714287e-01 0.0000000e+00 0.0000000e+00 
8.5714287e-01 1.0000000e+01 0.0000000e+00 
7.1428573e-01 1.0000000e+01 0.0000000e+00 
5.7142860e-01 1.0000000e+01 0.0000000e+00 
4.2857143e-01 1.0000000e+01 0.0000000e+00 
2.8571430e-01 1.0000000e+01 0.0000000e+00 
1.4285715e-01 1.0000000e+01 0.0000000e+00 
1.4285715e-01 5.0000000e+00 0.0000000e+00 
2.8571430e-01 5.0000000e+00 0.0000000e+00 
4.2857143e-01 5.0000000e+00 0.0000000e+00 
5.7142860e-01 5.0000000e+00 0.0000000e+00 
7.1428573e-01 5.0000000e+00 0.0000000e+00 
8.5714287e-01 5.0000000e+00 0.0000000e+00 
0.0000000e+00 4.8529410e+00 0.0000000e+00 
0.0000000e+00 4.7058825e+00 0.0000000e+00 
0.0000000e+00 4.5588236e+00 0.0000000e+00 
0.0000000e+00 4.4117646e+00 0.0000000e+00 
0.0000000e+00 4.2647057e+00 0.0000000e+00 
0.0000000e+00 4.1176472e+00 0.0000000e+00 
0.0000000e+00 3.9705882e+00 0.0000000e+00 
0.0000000e+00 3.8235295e+00 0.0000000e+00 
0.0000000e+00 3.6764705e+00 0.0000000e+00 
0.0000000e+00 3.5294118e+00 0.0000000e+00 
0.0000000e+00 3.3823528e+00 0.0000000e+00 
0.0000000e+00 3.2352941e+00 0.0000000e+00 
0.0000000e+00 3.0882354e+00 0.0000000e+00 
0.0000000e+00 2.9411764e+00 0.0000000e+00 
0.0000000e+00 2.7941177e+00 0.0000000e+00 
0.0000000e+00 2.6470587e+00 0.0000000e+00 
0.0000000e+00 2.5000000e+00 0.0000000e+00 
0.0000000e+00 2.3529413e+00 0.0000000e+00 
0.0000000e+00 2.2058823e+00 0.0000000e+00 
0.0000000e+00 2.0588236e+00 0.0000000e+00 
0.0000000e+00 1.9117647e+00 0.0000000e+00 
0.0000000e+00 1.7647059e+00 0.0000000e+00 
0.0000000e+00 1.6176471e+00 0.0000000e+00 
0.0000000e+00 1.4705882e+00 0.0000000e+00 
0.0000000e+00 1.3235294e+00 0.0000000e+00 
0.0000000e+00 1.1764706e+00 0.0000000e+00 
0.0000000e+00 1.0294118e+00 0.0000000e+00 
0.0000000e+00 8.8235295e-01 0.0000000e+00 
0.0000000e+00 7.3529410e-01 0.0000000e+00 
0.0000000e+00 5.8823532e-01 0.0000000e+00 
0.0000000e+00 4.4117647e-01 0.0000000e+00 
0.0000000e+00 2.9411766e-01 0.0000000e+00 
0.0000000e+00 1.4705883e-01 0.0000000e+00 
1.0000000e+00 1.4705883e-01 0.0000000e+00 
1.0000000e+00 2.9411766e-01 0.0000000e+00 
1.0000000e+00 4.4117647e-01 0.0000000e+00 
1.0000000e+00 5.8823532e-01 0.0000000e+00 
1.0000000e+00 7.3529410e-01 0.0000000e+00 
1.0000000e+00 8.8235295e-01 0.0000000e+00 
1.0000000e+00 1.0294118e+00 0.0000000e+00 
1.0000000e+00 1.1764706e+00 0.0000000e+00 
1.0000000e+00 1.3235294e+00 0.0000000e+00 
1.0000000e+00 1.4705882e+00 0.0000000e+00 
1.0000000e+00 1.6176471e+00 0.0000000e+00 
1.0000000e+00 1.7647059e+00 0.0000000e+00 
1.0000000e+00 1.9117647e+00 0.0000000e+00 
1.0000000e+00 2.0588236e+00 0.0000000e+00 
1.0000000e+00 2.2058823e+00 0.0000000e+00 
1.0000000e+00 2.3529413e+00 0.0000000e+00 
1.0000000e+00 2.5000000e+00 0.0000000e+00 
1.0000000e+00 2.6470587e+00 0.0000000e+00 
1.0000000e+00 2.7941177e+00 0.0000000e+00 
1.0000000e+00 2.9411764e+00 0.0000000e+00 
1.0000000e+00 3.0882354e+00 0.0000000e+00 
1.0000000e+00 3.2352941e+00 0.0000000e+00 
1.0000000e+00 3.3823528e+00 0.0000000e+00 
1.0000000e+00 3.5294118e+00 0.0000000e+00 
1.0000000e+00 3.6764705e+00 0.0000000e+00 
1.0000000e+00 3.8235295e+00 0.0000000e+00 
1.0000000e+00 3.9705882e+00 0.0000000e+00 
1.0000000e+00 4.1176472e+00 0.0000000e+00 
1.0000000e+00 4.2647057e+00 0.0000000e+00 
1.0000000e+00 4.4117646e+00 0.0000000e+00 
1.0000000e+00 4.5588236e+00 0.0000000e+00 
1.0000000e+00 4.7058825e+00 0.0000000e+00 
1.0000000e+00 4.8529410e+00 0.0000000e+00 
0.0000000e+00 9.8529415e+00 0.0000000e+00 
0.0000000e+00 9.7058821e+00 0.0000000e+00 
0.0000000e+00 9.5588236e+00 0.0000000e+00 
0.0000000e+00 9.4117651e+00 0.0000000e+00 
0.0000000e+00 9.2647057e+00 0.0000000e+00 
0.0000000e+00 9.1176472e+00 0.0000000e+00 
0.0000000e+00 8.9705887e+00 0.0000000e+00 
0.0000000e+00 8.8235292e+00 0.0000000e+00 
0.0000000e+00 8.6764708e+00 0.0000000e+00 
0.0000000e+00 8.5294113e+00 0.0000000e+00 
0.0000000e+00 8.3823528e+00 0.0000000e+00 
0.0000000e+00 8.2352943e+00 0.0000000e+00 
0.0000000e+00 8.0882349e+00 0.0000000e+00 
0.0000000e+00 7.9411764e+00 0.0000000e+00 
0.0000000e+00 7.7941175e+00 0.0000000e+00 
0.0000000e+00 7.6470590e+00 0.0000000e+00 
0.0000000e+00 7.5000000e+00 0.0000000e+00 
0.0000000e+00 7.3529410e+00 0.0000000e+00 
0.0000000e+00 7.2058825e+00 0.0000000e+00 
0.0000000e+00 7.0588236e+00 0.0000000e+00 
0.0000000e+00 6.9117646e+00 0.0000000e+00 
0.0000000e+00 6.7647057e+00 0.0000000e+00 
0.0000000e+00 6.6176472e+00 0.0000000e+00 
0.0000000e+00 6.4705882e+00 0.0000000e+00 
0.0000000e+00 6.3235292e+00 0.0000000e+00 
0.0000000e+00 6.1764708e+00 0.0000000e+00 
0.0000000e+00 6.0294118e+00 0.0000000e+00 
0.0000000e+00 5.8823528e+00 0.0000000e+00 
0.0000000e+00 5.7352943e+00 0.0000000e+00 
0.0000000e+00 5.5882354e+00 0.0000000e+00 
0.0000000e+00 5.4411764e+00 0.0000000e+00 
0.0000000e+00 5.2941175e+00 0.0000000e+00 
0.0000000e+00 5.1470590e+00 0.0000000e+00 
1.0000000e+00 5.1470590e+00 0.0000000e+00 
1.0000000e+00 5.2941175e+00 0.0000000e+00 
1.0000000e+00 5.4411764e+00 0.0000000e+00 
1.0000000e+00 5.5882354e+00 0.0000000e+00 
1.0000000e+00 5.7352943e+00 0.0000000e+00 
1.0000000e+00 5.8823528e+00 0.0000000e+00 
1.0000000e+00 6.0294118e+00 0.0000000e+00 
1.0000000e+00 6.1764708e+00 0.0000000e+00 
1.0000000e+00 6.3235292e+00 0.0000000e+00 
1.0000000e+00 6.4705882e+00 0.0000000e+00 
1.0000000e+00 6.6176472e+00 0.0000000e+00 
1.0000000e+00 6.7647057e+00 0.0000000e+00 
1.0000000e+00 6.9117646e+00 0.0000000e+00 
1.0000000e+00 7.0588236e+00 0.0000000e+00 
1.0000000e+00 7.2058825e+00 0.0000000e+00 
1.0000000e+00 7.3529410e+00 0.0000000e+00 
1.0000000e+00 7.5000000e+00 0.0000000e+00 
1.0000000e+00 7.6470590e+00 0.0000000e+00 
1.0000000e+00 7.7941175e+00 0.0000000e+00 
1.0000000e+00 7.9411764e+00 0.0000000e+00 
1.0000000e+00 8.0882349e+00 0.0000000e+00 
1.0000000e+00 8.2352943e+00 0.0000000e+00 
1.0000000e+00 8.3823528e+00 0.0000000e+00 
1.0000000e+00 8.5294113e+00 0.0000000e+00 
1.0000000e+00 8.6764708e+00 0.0000000e+00 
1.0000000e+00 8.8235292e+00 0.0000000e+00 
1.0000000e+00 8.9705887e+00 0.0000000e+00 
1.0000000e+00 9.1176472e+00 0.0000000e+00 
1.0000000e+00 9.2647057e+00 0.0000000e+00 
1.0000000e+00 9.4117651e+00 0.0000000e+00 
1.0000000e+00 9.5588236e+00 0.0000000e+00 
1.0000000e+00 9.7058821e+00 0.0000000e+00 
1.0000000e+00 9.8529415e+00 0.0000000e+00 
5.0212586e-01 4.8703580e+00 0.0000000e+00 
5.1041055e-01 1.3732977e-01 0.0000000e+00 
1.3055173e-01 6.6499180e-01 0.0000000e+00 
8.7327349e-01 4.3372407e+00 0.0000000e+00 
8.7331611e-01 3.8958969e+00 0.0000000e+00 
8.7347627e-01 3.4562511e+00 0.0000000e+00 
8.7357801e-01 2.8680170e+00 0.0000000e+00 
1.2843554e-01 2.1327813e+00 0.0000000e+00 
1.2975387e-01 1.5449892e+00 0.0000000e+00 
1.3308091e-01 1.1039938e+00 0.0000000e+00 
1.2937543e-01 2.5737903e+00 0.0000000e+00 
1.2735668e-01 3.1617646e+00 0.0000000e+00 
8.7375563e-01 1.8386052e+00 0.0000000e+00 
8.7355548e-01 2.2778318e+00 0.0000000e+00 
1.2753446e-01 4.1915216e+00 0.0000000e+00 
8.7915283e-01 8.0759794e-01 0.0000000e+00 
8.8115031e-01 1.2498868e+00 0.0000000e+00 
1.2781374e-01 3.7501886e+00 0.0000000e+00 
8.7352717e-01 3.1621344e+00 0.0000000e+00 
1.2961270e-01 1.8389882e+00 0.0000000e+00 
1.2731366e-01 4.4857054e+00 0.0000000e+00 
1.2885660e-01 2.8684020e+00 0.0000000e+00 
8.7380636e-01 1.5444875e+00 0.0000000e+00 
8.7362880e-01 2.5738993e+00 0.0000000e+00 
1.2735668e-01 3.4558823e+00 0.0000000e+00 
8.7264335e-01 5.1470590e-01 0.0000000e+00 
8.7611687e-01 4.6317782e+00 0.0000000e+00 
1.3446054e-01 3.7013325e-01 0.0000000e+00 
1.2296320e-01 4.7760825e+00 0.0000000e+00 
8.8210768e-01 2.2118840e-01 0.0000000e+00 
2.1798968e-01 1.0548568e-01 0.0000000e+00 
7.7656764e-01 4.8704844e+00 0.0000000e+00 
1.2667844e-01 4.6331582e+00 0.0000000e+00 
2.5353336e-01 4.5619426e+00 0.0000000e+00 
2.5451174e-01 4.4132285e+00 0.0000000e+00 
3.8040194e-01 4.4881525e+00 0.0000000e+00 
3.8161713e-01 4.3403850e+00 0.0000000e+00 
5.0654775e-01 4.4141955e+00 0.0000000e+00 
5.0629890e-01 4.2659345e+00 0.0000000e+00 
5.0658631e-01 4.5616083e+00 0.0000000e+00 
3.8184282e-01 4.1932206e+00 0.0000000e+00 
5.0831819e-01 4.1188259e+00 0.0000000e+00 
3.8249290e-01 4.0462651e+00 0.0000000e+00 
5.0818664e-01 3.9732957e+00 0.0000000e+00 
3.8265404e-01 3.8991868e+00 0.0000000e+00 
5.0769192e-01 3.8249388e+00 0.0000000e+00 
3.8307732e-01 3.7517705e+00 0.0000000e+00 
5.0990808e-01 3.6776419e+00 0.0000000e+00 
3.8416636e-01 3.6049941e+00 0.0000000e+00 
5.1177651e-01 3.5322094e+00 0.0000000e+00 
3.8460994e-01 3.4584429e+00 0.0000000e+00 
5.1256055e-01 3.3855147e+00 0.0000000e+00 
3.8520575e-01 3.3115354e+00 0.0000000e+00 
5.1318693e-01 3.2385471e+00 0.0000000e+00 
3.8561273e-01 3.1645203e+00 0.0000000e+00 
5.1375473e-01 3.0915136e+00 0.0000000e+00 
3.8616878e-01 3.0174749e+00 0.0000000e+00 
5.1433694e-01 2.9444630e+00 0.0000000e+00 
3.8656160e-01 2.8704205e+00 0.0000000e+00 
5.1489413e-01 2.7974076e+00 0.0000000e+00 
3.8711417e-01 2.7233641e+00 0.0000000e+00 
5.1547360e-01 2.6503508e+00 0.0000000e+00 
3.8750717e-01 2.5763063e+00 0.0000000e+00 
5.1603019e-01 2.5032935e+00 0.0000000e+00 
3.8805979e-01 2.4292488e+00 0.0000000e+00 
5.1422137e-01 2.3562264e+00 0.0000000e+00 
3.8765049e-01 2.2821872e+00 0.0000000e+00 
5.1307547e-01 2.2071202e+00 0.0000000e+00 
3.8778570e-01 2.1347876e+00 0.0000000e+00 
5.1568961e-01 2.0596735e+00 0.0000000e+00 
3.9013749e-01 1.9876142e+00 0.0000000e+00 
5.1808232e-01 1.9145784e+00 0.0000000e+00 
3.8994926e-01 1.8408588e+00 0.0000000e+00 
5.1884413e-01 1.7678982e+00 0.0000000e+00 
[...]
POINT_DATA 628
FIELD FieldData 1
VELOCITY 3 628  float
0.0000000e+00 0.0000000e+00 0.0000000e+00 
0.0000000e+00 0.0000000e+00 0.0000000e+00 
0.0000000e+00 2.5854532e-03 0.0000000e+00 
0.0000000e+00 2.6041230e-03 0.0000000e+00 
0.0000000e+00 2.4831218e-03 0.0000000e+00 
0.0000000e+00 2.4878175e-03 0.0000000e+00 
0.0000000e+00 0.0000000e+00 0.0000000e+00 
0.0000000e+00 0.0000000e+00 0.0000000e+00 
0.0000000e+00 0.0000000e+00 0.0000000e+00 
0.0000000e+00 0.0000000e+00 0.0000000e+00 
0.0000000e+00 0.0000000e+00 0.0000000e+00 
0.0000000e+00 0.0000000e+00 0.0000000e+00 
4.9566224e-06 2.5660435e-03 0.0000000e+00 
2.4151053e-05 2.6095898e-03 0.0000000e+00 
-1.3873160e-05 2.5967467e-03 0.0000000e+00 
1.4440868e-05 2.6339726e-03 0.0000000e+00 
-1.1612898e-05 2.6062361e-03 0.0000000e+00 
1.3569645e-06 2.6122436e-03 0.0000000e+00 
-1.4613296e-06 2.4688400e-03 0.0000000e+00 
-4.5215160e-08 2.4731273e-03 0.0000000e+00 
2.2017379e-07 2.4752286e-03 0.0000000e+00 
-2.3968712e-06 2.4772612e-03 0.0000000e+00 
3.0241665e-06 2.4697876e-03 0.0000000e+00 
5.4307742e-07 2.4734091e-03 0.0000000e+00 
0.0000000e+00 2.5431393e-03 0.0000000e+00 
0.0000000e+00 2.6135566e-03 0.0000000e+00 
0.0000000e+00 2.7728959e-03 0.0000000e+00 
0.0000000e+00 2.9565557e-03 0.0000000e+00 
0.0000000e+00 3.2027566e-03 0.0000000e+00 
0.0000000e+00 3.4484903e-03 0.0000000e+00 
0.0000000e+00 3.4919588e-03 0.0000000e+00 
0.0000000e+00 3.4577891e-03 0.0000000e+00 
0.0000000e+00 3.4233502e-03 0.0000000e+00 
0.0000000e+00 3.3382403e-03 0.0000000e+00 
0.0000000e+00 3.2666123e-03 0.0000000e+00 
0.0000000e+00 3.1548403e-03 0.0000000e+00 
0.0000000e+00 2.8507030e-03 0.0000000e+00 
0.0000000e+00 2.5071229e-03 0.0000000e+00 
0.0000000e+00 2.2887553e-03 0.0000000e+00 
0.0000000e+00 2.0833847e-03 0.0000000e+00 
0.0000000e+00 1.8263551e-03 0.0000000e+00 
0.0000000e+00 1.5757084e-03 0.0000000e+00 
0.0000000e+00 1.3100866e-03 0.0000000e+00 
0.0000000e+00 1.0364213e-03 0.0000000e+00 
0.0000000e+00 8.8833121e-04 0.0000000e+00 
0.0000000e+00 8.3100155e-04 0.0000000e+00 
0.0000000e+00 6.6088117e-04 0.0000000e+00 
0.0000000e+00 4.1777769e-04 0.0000000e+00 
0.0000000e+00 3.2310467e-04 0.0000000e+00 
0.0000000e+00 3.5861591e-04 0.0000000e+00 
0.0000000e+00 3.0983859e-04 0.0000000e+00 
0.0000000e+00 1.5252257e-04 0.0000000e+00 
0.0000000e+00 7.2316601e-05 0.0000000e+00 
0.0000000e+00 1.1737887e-04 0.0000000e+00 
0.0000000e+00 1.2707182e-04 0.0000000e+00 
0.0000000e+00 3.2119056e-05 0.0000000e+00 
0.0000000e+00 -3.7086898e-05 0.0000000e+00 
0.0000000e+00 -3.9310420e-05 0.0000000e+00 
0.0000000e+00 3.0203062e-05 0.0000000e+00 
0.0000000e+00 1.2828477e-04 0.0000000e+00 
0.0000000e+00 1.1918261e-04 0.0000000e+00 
0.0000000e+00 7.4648415e-05 0.0000000e+00 
0.0000000e+00 1.5475038e-04 0.0000000e+00 
0.0000000e+00 3.0699398e-04 0.0000000e+00 
0.0000000e+00 3.5287850e-04 0.0000000e+00 
0.0000000e+00 3.2341297e-04 0.0000000e+00 
0.0000000e+00 4.2228596e-04 0.0000000e+00 
0.0000000e+00 6.5733015e-04 0.0000000e+00 
0.0000000e+00 8.2053477e-04 0.0000000e+00 
0.0000000e+00 8.8566128e-04 0.0000000e+00 
0.0000000e+00 1.0439109e-03 0.0000000e+00 
0.0000000e+00 1.3162550e-03 0.0000000e+00 
0.0000000e+00 1.5768519e-03 0.0000000e+00 
0.0000000e+00 1.8291003e-03 0.0000000e+00 
0.0000000e+00 2.0844226e-03 0.0000000e+00 
0.0000000e+00 2.2847608e-03 0.0000000e+00 
0.0000000e+00 2.5099088e-03 0.0000000e+00 
0.0000000e+00 2.8576020e-03 0.0000000e+00 
0.0000000e+00 3.1516023e-03 0.0000000e+00 
0.0000000e+00 3.2577915e-03 0.0000000e+00 
0.0000000e+00 3.3381802e-03 0.0000000e+00 
0.0000000e+00 3.4291109e-03 0.0000000e+00 
0.0000000e+00 3.4591241e-03 0.0000000e+00 
0.0000000e+00 3.4970865e-03 0.0000000e+00 
0.0000000e+00 3.4463841e-03 0.0000000e+00 
0.0000000e+00 3.1915440e-03 0.0000000e+00 
0.0000000e+00 2.9532416e-03 0.0000000e+00 
0.0000000e+00 2.7764866e-03 0.0000000e+00 
0.0000000e+00 2.6098939e-03 0.0000000e+00 
0.0000000e+00 2.5492660e-03 0.0000000e+00 
0.0000000e+00 2.6666867e-03 0.0000000e+00 
0.0000000e+00 2.7770565e-03 0.0000000e+00 
0.0000000e+00 2.9139007e-03 0.0000000e+00 
0.0000000e+00 3.0092923e-03 0.0000000e+00 
0.0000000e+00 2.9959648e-03 0.0000000e+00 
0.0000000e+00 2.9031660e-03 0.0000000e+00 
0.0000000e+00 2.7306688e-03 0.0000000e+00 
0.0000000e+00 2.5681367e-03 0.0000000e+00 
0.0000000e+00 2.5016845e-03 0.0000000e+00 
0.0000000e+00 2.5909480e-03 0.0000000e+00 
0.0000000e+00 2.7465327e-03 0.0000000e+00 
0.0000000e+00 2.9847880e-03 0.0000000e+00 
0.0000000e+00 3.1248201e-03 0.0000000e+00 
0.0000000e+00 3.1749920e-03 0.0000000e+00 
0.0000000e+00 3.0088730e-03 0.0000000e+00 
0.0000000e+00 2.7986630e-03 0.0000000e+00 
0.0000000e+00 2.5584854e-03 0.0000000e+00 
0.0000000e+00 2.4669548e-03 0.0000000e+00 
0.0000000e+00 2.4642204e-03 0.0000000e+00 
0.0000000e+00 2.6119575e-03 0.0000000e+00 
0.0000000e+00 2.7313817e-03 0.0000000e+00 
0.0000000e+00 2.8572648e-03 0.0000000e+00 
0.0000000e+00 2.9176273e-03 0.0000000e+00 
0.0000000e+00 2.9938135e-03 0.0000000e+00 
0.0000000e+00 3.0437687e-03 0.0000000e+00 
0.0000000e+00 3.0920382e-03 0.0000000e+00 
0.0000000e+00 3.1377105e-03 0.0000000e+00 
0.0000000e+00 3.0247420e-03 0.0000000e+00 
0.0000000e+00 2.8518236e-03 0.0000000e+00 
0.0000000e+00 2.5861184e-03 0.0000000e+00 
0.0000000e+00 2.3806382e-03 0.0000000e+00 
0.0000000e+00 2.3330327e-03 0.0000000e+00 
0.0000000e+00 2.3364828e-03 0.0000000e+00 
0.0000000e+00 2.3240496e-03 0.0000000e+00 
0.0000000e+00 2.3332005e-03 0.0000000e+00 
0.0000000e+00 2.3852526e-03 0.0000000e+00 
0.0000000e+00 2.5843354e-03 0.0000000e+00 
0.0000000e+00 2.8611924e-03 0.0000000e+00 
0.0000000e+00 3.0200207e-03 0.0000000e+00 
0.0000000e+00 3.1405920e-03 0.0000000e+00 
0.0000000e+00 3.0952205e-03 0.0000000e+00 
0.0000000e+00 3.0393281e-03 0.0000000e+00 
0.0000000e+00 2.9901620e-03 0.0000000e+00 
0.0000000e+00 2.9043960e-03 0.0000000e+00 
0.0000000e+00 2.8660560e-03 0.0000000e+00 
0.0000000e+00 2.7241670e-03 0.0000000e+00 
0.0000000e+00 2.6206125e-03 0.0000000e+00 
0.0000000e+00 2.4625775e-03 0.0000000e+00 
0.0000000e+00 2.4684353e-03 0.0000000e+00 
0.0000000e+00 2.5591333e-03 0.0000000e+00 
0.0000000e+00 2.8074756e-03 0.0000000e+00 
0.0000000e+00 3.0135915e-03 0.0000000e+00 
0.0000000e+00 3.1702449e-03 0.0000000e+00 
0.0000000e+00 3.1190033e-03 0.0000000e+00 
0.0000000e+00 2.9939113e-03 0.0000000e+00 
0.0000000e+00 2.7426381e-03 0.0000000e+00 
0.0000000e+00 2.5802290e-03 0.0000000e+00 
0.0000000e+00 2.5069132e-03 0.0000000e+00 
0.0000000e+00 2.5730468e-03 0.0000000e+00 
0.0000000e+00 2.7233767e-03 0.0000000e+00 
0.0000000e+00 2.9042226e-03 0.0000000e+00 
0.0000000e+00 2.9964393e-03 0.0000000e+00 
0.0000000e+00 3.0032226e-03 0.0000000e+00 
0.0000000e+00 2.9145731e-03 0.0000000e+00 
0.0000000e+00 2.7786558e-03 0.0000000e+00 
0.0000000e+00 2.6529473e-03 0.0000000e+00 
1.7939708e-06 2.5538439e-03 0.0000000e+00 
-7.8369379e-07 -3.6691803e-05 0.0000000e+00 
-1.9031175e-06 8.3967345e-05 0.0000000e+00 
2.3570992e-06 3.0578705e-03 0.0000000e+00 
-1.9733998e-06 3.4745601e-03 0.0000000e+00 
6.9847960e-07 3.2909189e-03 0.0000000e+00 
6.8182987e-07 2.3822994e-03 0.0000000e+00 
-1.2628693e-07 1.1686269e-03 0.0000000e+00 
-8.2020398e-07 5.3654832e-04 0.0000000e+00 
1.9285008e-06 3.5263912e-04 0.0000000e+00 
9.2847779e-07 1.9569732e-03 0.0000000e+00 
1.2972604e-08 3.0255408e-03 0.0000000e+00 
-3.9720618e-07 8.5767801e-04 0.0000000e+00 
-1.8829614e-06 1.4458278e-03 0.0000000e+00 
2.8789600e-06 3.3434145e-03 0.0000000e+00 
3.1688428e-06 9.1752539e-05 0.0000000e+00 
-6.1174040e-07 3.3570547e-04 0.0000000e+00 
-4.9023032e-07 3.4471317e-03 0.0000000e+00 
1.7099760e-08 3.0277846e-03 0.0000000e+00 
7.5553817e-07 8.6332462e-04 0.0000000e+00 
4.7814560e-06 2.8602201e-03 0.0000000e+00 
6.3977041e-07 2.3854638e-03 0.0000000e+00 
1.0610100e-06 5.3815421e-04 0.0000000e+00 
-2.3351633e-06 1.9605390e-03 0.0000000e+00 
-1.2421640e-06 3.2931494e-03 0.0000000e+00 
3.3977616e-07 1.3593356e-04 0.0000000e+00 
6.1392024e-07 2.6830388e-03 0.0000000e+00 
3.7141453e-07 9.1782727e-05 0.0000000e+00 
6.9108137e-06 2.5754191e-03 0.0000000e+00 
1.1106947e-06 -1.4518635e-05 0.0000000e+00 
3.4166544e-06 -3.4221859e-05 0.0000000e+00 
-5.5365655e-07 2.5597974e-03 0.0000000e+00 
-4.3863120e-06 2.6814758e-03 0.0000000e+00 
3.6297165e-06 2.7744372e-03 0.0000000e+00 
-2.7972587e-06 2.9496842e-03 0.0000000e+00 
-1.8532112e-06 2.8529230e-03 0.0000000e+00 
-3.0536760e-06 3.0567953e-03 0.0000000e+00 
-2.0504717e-06 2.9468453e-03 0.0000000e+00 
8.9052435e-07 3.1984325e-03 0.0000000e+00 
4.2657263e-07 2.7695461e-03 0.0000000e+00 
4.1923731e-06 3.3351015e-03 0.0000000e+00 
2.0460434e-06 3.4463115e-03 0.0000000e+00 
-6.0051457e-07 3.4916818e-03 0.0000000e+00 
2.2288525e-07 3.4937703e-03 0.0000000e+00 
4.1957837e-06 3.4709673e-03 0.0000000e+00 
2.8678087e-07 3.4518312e-03 0.0000000e+00 
-2.2495030e-06 3.4463860e-03 0.0000000e+00 
-5.3218264e-07 3.4234067e-03 0.0000000e+00 
1.0995144e-06 3.3864435e-03 0.0000000e+00 
1.5251660e-06 3.3349388e-03 0.0000000e+00 
-1.1926302e-06 3.2940963e-03 0.0000000e+00 
-1.6672360e-06 3.2612300e-03 0.0000000e+00 
5.7465070e-07 3.2280434e-03 0.0000000e+00 
5.0325878e-07 3.1567907e-03 0.0000000e+00 
6.6489582e-07 3.0318841e-03 0.0000000e+00 
-7.9935364e-07 2.8642449e-03 0.0000000e+00 
-5.1256791e-07 2.6757214e-03 0.0000000e+00 
6.0801796e-07 2.5162152e-03 0.0000000e+00 
3.9066506e-07 2.3868082e-03 0.0000000e+00 
9.1224088e-08 2.2924633e-03 0.0000000e+00 
5.6230000e-08 2.1961501e-03 0.0000000e+00 
-3.9949546e-07 2.0894757e-03 0.0000000e+00 
2.3914640e-06 1.9615223e-03 0.0000000e+00 
1.8905228e-06 1.8308908e-03 0.0000000e+00 
-3.2748360e-07 1.7049238e-03 0.0000000e+00 
5.5413005e-07 1.5819259e-03 0.0000000e+00 
2.2488925e-06 1.4560501e-03 0.0000000e+00 
7.5433171e-09 1.3112081e-03 0.0000000e+00 
5.4243316e-07 1.1723593e-03 0.0000000e+00 
-1.8570948e-06 1.0387077e-03 0.0000000e+00 
-3.5601258e-06 9.4709062e-04 0.0000000e+00 
-2.6324999e-06 8.9167949e-04 0.0000000e+00 
-1.0323204e-06 8.6200173e-04 0.0000000e+00 
5.4324607e-07 8.2971290e-04 0.0000000e+00 
-8.9879859e-07 7.6770480e-04 0.0000000e+00 
1.4996552e-06 6.6726707e-04 0.0000000e+00 
8.6227749e-07 5.4112141e-04 0.0000000e+00 
1.1093127e-06 4.2529925e-04 0.0000000e+00 
3.5783239e-07 3.4688675e-04 0.0000000e+00 
-9.1822778e-07 3.2192064e-04 0.0000000e+00 
-3.7738612e-06 3.3517214e-04 0.0000000e+00 
-1.3564726e-06 3.5620391e-04 0.0000000e+00 
7.0247481e-08 3.5148457e-04 0.0000000e+00 
5.3572762e-07 3.0880049e-04 0.0000000e+00 
5.9486689e-07 2.3112062e-04 0.0000000e+00 
-8.1522393e-07 1.5393145e-04 0.0000000e+00 
-2.8873749e-06 9.0647081e-05 0.0000000e+00 
-9.7366785e-07 7.5919554e-05 0.0000000e+00 
9.7898396e-07 8.4707026e-05 0.0000000e+00 
7.5194521e-07 1.1789077e-04 0.0000000e+00 
1.9312279e-06 1.3698873e-04 0.0000000e+00 
-1.6050258e-06 1.2846007e-04 0.0000000e+00 
-1.5019195e-06 9.3096787e-05 0.0000000e+00 
2.3884417e-07 3.4943970e-03 0.0000000e+00 
1.2375028e-06 2.8599955e-03 0.0000000e+00 
1.3864563e-06 3.3886461e-03 0.0000000e+00 
1.9999800e-07 9.5017126e-04 0.0000000e+00 
-3.9331121e-06 2.6817261e-03 0.0000000e+00 
-9.3411757e-07 3.2265638e-03 0.0000000e+00 
-5.2123858e-07 2.6814151e-03 0.0000000e+00 
6.9227150e-07 2.3167749e-04 0.0000000e+00 
-2.3080227e-06 2.1971927e-03 0.0000000e+00 
1.8777907e-06 1.6991536e-03 0.0000000e+00 
2.4944318e-06 7.6994003e-04 0.0000000e+00 
6.2124002e-07 3.5191260e-04 0.0000000e+00 
-1.4213817e-06 8.7207256e-05 0.0000000e+00 
-4.8623809e-07 1.4569964e-04 0.0000000e+00 
-1.5461417e-06 3.2358762e-04 0.0000000e+00 
-3.6351122e-07 1.5794985e-03 0.0000000e+00 
8.7938650e-07 3.4928131e-03 0.0000000e+00 
-1.9473832e-06 3.8550450e-05 0.0000000e+00 
6.9422896e-08 9.2676455e-05 0.0000000e+00 
-1.0826730e-06 -4.6819100e-06 0.0000000e+00 
1.3857917e-07 2.6130483e-03 0.0000000e+00 
2.0006755e-06 2.5684529e-03 0.0000000e+00 
-5.7876849e-07 2.5702599e-03 0.0000000e+00 
-1.9038956e-07 1.3238046e-04 0.0000000e+00 
1.4733469e-06 4.5737725e-05 0.0000000e+00 
-2.4809992e-06 6.6628330e-04 0.0000000e+00 
-7.8136469e-07 8.9244783e-04 0.0000000e+00 
1.6812970e-06 2.0840634e-03 0.0000000e+00 
1.5341851e-06 2.5096862e-03 0.0000000e+00 
2.2074489e-06 3.1565588e-03 0.0000000e+00 
8.9482296e-07 3.3341020e-03 0.0000000e+00 
4.3235154e-06 2.6758690e-03 0.0000000e+00 
-1.6399531e-06 1.3739460e-04 0.0000000e+00 
4.3322137e-07 1.1370245e-04 0.0000000e+00 
5.4780476e-06 8.8201545e-05 0.0000000e+00 
-2.0834511e-06 1.3415361e-04 0.0000000e+00 
4.5632089e-07 3.0610652e-03 0.0000000e+00 
-2.3610055e-06 2.8621887e-03 0.0000000e+00 
-8.4041625e-07 8.6255241e-05 0.0000000e+00 
1.5382518e-06 9.3992792e-05 0.0000000e+00 
1.2539707e-06 -4.6327677e-06 0.0000000e+00 
3.2629921e-06 3.0513061e-04 0.0000000e+00 
-1.7500964e-06 3.5603641e-04 0.0000000e+00 
-1.0840272e-06 3.3789207e-04 0.0000000e+00 
-9.9955685e-07 3.4927271e-04 0.0000000e+00 
-1.9294500e-06 3.0062650e-04 0.0000000e+00 
5.0286178e-07 3.3681421e-04 0.0000000e+00 
2.7043957e-06 1.1740135e-03 0.0000000e+00 
-1.7902181e-06 1.3050500e-03 0.0000000e+00 
3.7291766e-06 9.4768283e-04 0.0000000e+00 
-4.7657579e-07 2.1934139e-03 0.0000000e+00 
-1.3446322e-07 1.8283053e-03 0.0000000e+00 
-1.4927557e-06 1.6990530e-03 0.0000000e+00 
2.7052499e-06 3.3833710e-03 0.0000000e+00 
-1.2372947e-06 3.2625648e-03 0.0000000e+00 
-2.4811820e-08 3.2266120e-03 0.0000000e+00 
-1.5400475e-07 2.8585005e-03 0.0000000e+00 
1.6319856e-06 2.6679749e-03 0.0000000e+00 
-1.0177083e-06 2.2874265e-03 0.0000000e+00 
-1.1731865e-06 2.6733123e-03 0.0000000e+00 
-2.0692953e-06 3.3371779e-03 0.0000000e+00 
-9.5656083e-07 3.2036724e-03 0.0000000e+00 
-2.7266535e-06 3.4982963e-03 0.0000000e+00 
7.1283665e-07 3.4475715e-03 0.0000000e+00 
-1.2222849e-06 3.4552470e-03 0.0000000e+00 
5.5502085e-07 3.3892212e-03 0.0000000e+00 
-1.1135060e-06 9.4423880e-04 0.0000000e+00 
-1.1081911e-06 8.3150453e-04 0.0000000e+00 
-2.4828094e-06 7.6796429e-04 0.0000000e+00 
1.4265561e-06 4.2418638e-04 0.0000000e+00 
2.4421564e-07 3.4763722e-03 0.0000000e+00 
-5.7514501e-07 3.4597514e-03 0.0000000e+00 
-4.5340846e-07 1.6967315e-03 0.0000000e+00 
-3.4029350e-07 3.2212394e-03 0.0000000e+00 
-1.1739294e-06 8.8891495e-05 0.0000000e+00 
2.5939491e-06 2.3169621e-04 0.0000000e+00 
1.2676171e-06 7.6121133e-04 0.0000000e+00 
-5.8229762e-07 2.1912483e-03 0.0000000e+00 
-1.6523094e-07 3.5094761e-04 0.0000000e+00 
1.2972408e-06 5.4598483e-04 0.0000000e+00 
-2.1272870e-06 1.0432417e-03 0.0000000e+00 
2.9023238e-06 1.3155863e-03 0.0000000e+00 
-3.9909614e-07 8.6497515e-04 0.0000000e+00 
-1.3317243e-06 1.9628161e-03 0.0000000e+00 
1.2837633e-06 2.3887299e-03 0.0000000e+00 
4.0554474e-07 3.0353230e-03 0.0000000e+00 
5.2061472e-07 3.2932302e-03 0.0000000e+00 
-1.9825029e-06 3.4963789e-03 0.0000000e+00 
8.0538840e-08 3.4448460e-03 0.0000000e+00 
4.7713784e-06 3.1970802e-03 0.0000000e+00 
1.0378154e-06 3.4653136e-04 0.0000000e+00 
-1.4236792e-07 3.4252042e-03 0.0000000e+00 
1.1024308e-06 1.4486775e-03 0.0000000e+00 
-2.7936121e-06 2.6120043e-03 0.0000000e+00 
5.2629384e-06 2.5611233e-03 0.0000000e+00 
-2.0306486e-06 6.5130713e-05 0.0000000e+00 
-8.5350047e-07 2.6098255e-03 0.0000000e+00 
7.4229848e-07 2.9536353e-03 0.0000000e+00 
-7.2149032e-06 2.5756923e-03 0.0000000e+00 
3.3122678e-06 -1.5631584e-05 0.0000000e+00 
-3.9130914e-06 3.4936885e-03 0.0000000e+00 
-1.3963643e-06 2.7786579e-03 0.0000000e+00 
-3.7968198e-06 -3.3963046e-05 0.0000000e+00 
-6.7214017e-07 3.0620596e-03 0.0000000e+00 
1.6020822e-06 3.3384240e-03 0.0000000e+00 
-5.2731178e-07 3.4499622e-03 0.0000000e+00 
-3.7553832e-06 3.4688597e-03 0.0000000e+00 
-9.9633644e-07 1.5728741e-03 0.0000000e+00 
3.2147068e-07 3.4432507e-03 0.0000000e+00 
1.4020754e-06 3.4278780e-03 0.0000000e+00 
1.0367244e-06 3.3386764e-03 0.0000000e+00 
-4.8246715e-08 3.2603308e-03 0.0000000e+00 
-2.2086515e-07 3.1561113e-03 0.0000000e+00 
-3.8262579e-07 2.8642695e-03 0.0000000e+00 
1.9335543e-07 2.3209219e-04 0.0000000e+00 
-3.3781413e-07 2.5136960e-03 0.0000000e+00 
6.1827700e-07 2.2872447e-03 0.0000000e+00 
-3.7193988e-06 2.0878813e-03 0.0000000e+00 
-6.4007844e-07 1.1687927e-03 0.0000000e+00 
-2.3240867e-07 1.8275268e-03 0.0000000e+00 
-2.0568120e-06 1.4468251e-03 0.0000000e+00 
4.2941429e-06 1.0493611e-03 0.0000000e+00 
1.0850456e-06 8.9595880e-04 0.0000000e+00 
5.7143671e-07 8.3083945e-04 0.0000000e+00 
2.4805915e-06 6.6893530e-04 0.0000000e+00 
-1.4648773e-06 3.5391466e-04 0.0000000e+00 
3.2500054e-07 4.3145963e-04 0.0000000e+00 
6.2604732e-07 3.2674122e-04 0.0000000e+00 
3.5711387e-06 3.7861668e-05 0.0000000e+00 
2.2747399e-06 1.2623407e-04 0.0000000e+00 
-2.8848010e-06 1.1392371e-04 0.0000000e+00 
3.2995652e-06 1.4775421e-04 0.0000000e+00 
-2.8230208e-06 3.4767474e-04 0.0000000e+00 
1.4238799e-06 7.0185844e-05 0.0000000e+00 
8.1425333e-07 -3.2135744e-05 0.0000000e+00 
-1.2557607e-06 -2.5960017e-05 0.0000000e+00 
-6.6519842e-06 2.5377315e-03 0.0000000e+00 
8.2925144e-06 2.5385225e-03 0.0000000e+00 
-6.9057960e-06 2.5401530e-03 0.0000000e+00 
9.3352364e-06 2.5497579e-03 0.0000000e+00 
4.6716941e-06 -3.1940806e-05 0.0000000e+00 
-2.9874107e-06 -3.2537464e-05 0.0000000e+00 
2.4310880e-06 -2.0983629e-05 0.0000000e+00 
9.8511000e-06 2.6481878e-03 0.0000000e+00 
7.6902467e-07 2.3494940e-03 0.0000000e+00 
6.8451499e-07 3.0214682e-03 0.0000000e+00 
2.8183238e-06 2.7314739e-03 0.0000000e+00 
2.3839409e-06 2.5403970e-03 0.0000000e+00 
2.2376237e-06 3.1437941e-03 0.0000000e+00 
2.8721381e-06 2.8767912e-03 0.0000000e+00 
9.7760108e-08 2.8064677e-03 0.0000000e+00 
1.2687883e-06 2.6769852e-03 0.0000000e+00 
9.6168162e-07 3.0967433e-03 0.0000000e+00 
-3.8153630e-06 2.5291673e-03 0.0000000e+00 
4.7963986e-06 3.0136819e-03 0.0000000e+00 
-4.3040873e-06 2.9584032e-03 0.0000000e+00 
-2.0760808e-06 3.0708273e-03 0.0000000e+00 
3.5222508e-06 2.9547713e-03 0.0000000e+00 
-4.2395286e-06 2.6449412e-03 0.0000000e+00 
-1.3298978e-06 2.9599355e-03 0.0000000e+00 
1.2666845e-07 2.5125127e-03 0.0000000e+00 
1.4026258e-06 2.6615537e-03 0.0000000e+00 
4.3728494e-07 3.0987002e-03 0.0000000e+00 
-5.8304693e-07 3.0112944e-03 0.0000000e+00 
-2.8201657e-06 2.9056326e-03 0.0000000e+00 
-1.8315709e-06 2.4508433e-03 0.0000000e+00 
-1.5928687e-06 3.1471567e-03 0.0000000e+00 
5.4025845e-06 2.4460356e-03 0.0000000e+00 
-8.9250676e-07 2.5248458e-03 0.0000000e+00 
2.5036384e-06 2.8590797e-03 0.0000000e+00 
7.6451652e-06 2.3506780e-03 0.0000000e+00 
7.2526755e-06 2.3238219e-03 0.0000000e+00 
2.5711474e-06 2.7047913e-03 0.0000000e+00 
-1.4126627e-05 2.6485519e-03 0.0000000e+00 
1.0601192e-06 2.3529411e-03 0.0000000e+00 
-3.3695239e-06 2.3552766e-03 0.0000000e+00 
-2.0201162e-06 2.3743857e-03 0.0000000e+00 
-3.2110079e-06 2.5727507e-03 0.0000000e+00 
1.4955193e-06 2.4521488e-03 0.0000000e+00 
-1.3288022e-07 2.7320653e-03 0.0000000e+00 
-1.2544646e-07 2.5728326e-03 0.0000000e+00 
-6.6095879e-07 2.8547179e-03 0.0000000e+00 
4.5954789e-06 2.3740283e-03 0.0000000e+00 
-4.9665477e-06 2.9449980e-03 0.0000000e+00 
-9.0594887e-07 3.0264207e-03 0.0000000e+00 
-1.4181974e-06 3.0908922e-03 0.0000000e+00 
-1.0252520e-07 3.1499860e-03 0.0000000e+00 
3.6611946e-06 3.1446337e-03 0.0000000e+00 
1.1175058e-06 3.0966343e-03 0.0000000e+00 
-2.3766852e-06 3.0536470e-03 0.0000000e+00 
-5.6144913e-08 3.0378660e-03 0.0000000e+00 
-1.3982400e-06 3.0220384e-03 0.0000000e+00 
-1.0883621e-06 2.9782853e-03 0.0000000e+00 
3.5219703e-06 2.9326228e-03 0.0000000e+00 
-1.4781601e-07 2.9062242e-03 0.0000000e+00 
3.4919983e-06 2.9040368e-03 0.0000000e+00 
2.3413809e-06 2.8649599e-03 0.0000000e+00 
-5.8188652e-06 2.8032644e-03 0.0000000e+00 
-1.0393895e-06 2.7257018e-03 0.0000000e+00 
-2.7873411e-06 2.6778632e-03 0.0000000e+00 
2.5679215e-06 2.6152120e-03 0.0000000e+00 
4.4321132e-07 2.5310102e-03 0.0000000e+00 
-4.5807982e-07 2.4639149e-03 0.0000000e+00 
2.3809641e-06 2.4411315e-03 0.0000000e+00 
3.6363832e-07 2.4685061e-03 0.0000000e+00 
-5.8074858e-07 2.5040375e-03 0.0000000e+00 
4.0383878e-07 2.5592919e-03 0.0000000e+00 
1.7979000e-06 2.6643160e-03 0.0000000e+00 
-3.3891326e-06 2.7948020e-03 0.0000000e+00 
-1.1348130e-06 2.9142275e-03 0.0000000e+00 