# vtk DataFile Version 4.0
vtk output
ASCII
DATASET UNSTRUCTURED_GRID
POINTS 628 float
0.0000000e+00 0.0000000e+00 0.0000000e+00 
1.0000000e+00 0.0000000e+00 0.0000000e+00 
1.0000000e+00 1.0000000e+01 0.0000000e+00 
0.0000000e+00 1.0000000e+01 0.0000000e+00 
0.0000000e+00 5.0000000e+00 0.0000000e+00 
1.0000000e+00 5.0000000e+00 0.0000000e+00 
1.4285715e-01 0.0000000e+00 0.0000000e+00 
2.8571430e-01 0.0000000e+00 0.0000000e+00 
4.2857143e-01 0.0000000e+00 0.0000000e+00 
5.7142860e-01 0.0000000e+00 0.0000000e+00 
7.1428573e-01 0.0000000e+00 0.0000000e+00 
8.5714287e-01 0.0000000e+00 0.0000000e+00 
8.5714287e-01 1.0000000e+01 0.0000000e+00 
7.1428573e-01 1.0000000e+01 0.0000000e+00 
5.7142860e-01 1.0000000e+01 0.0000000e+00 
4.2857143e-01 1.0000000e+01 0.0000000e+00 
2.8571430e-01 1.0000000e+01 0.0000000e+00 
1.4285715e-01 1.0000000e+01 0.0000000e+00 
1.4285715e-01 5.0000000e+00 0.0000000e+00 
2.8571430e-01 5.0000000e+00 0.0000000e+00 
4.2857143e-01 5.0000000e+00 0.0000000e+00 
5.7142860e-01 5.0000000e+00 0.0000000e+00 
7.1428573e-01 5.0000000e+00 0.0000000e+00 
8.5714287e-01 5.0000000e+00 0.0000000e+00 
0.0000000e+00 4.8529410e+00 0.0000000e+00 
0.0000000e+00 4.7058825e+00 0.0000000e+00 
0.0000000e+00 4.5588236e+00 0.0000000e+00 
0.0000000e+00 4.4117646e+00 0.0000000e+00 
0.0000000e+00 4.2647057e+00 0.0000000e+00 
0.0000000e+00 4.1176472e+00 0.0000000e+00 
0.0000000e+00 3.9705882e+00 0.0000000e+00 
0.0000000e+00 3.8235295e+00 0.0000000e+00 
0.0000000e+00 3.6764705e+00 0.0000000e+00 
0.0000000e+00 3.5294118e+00 0.0000000e+00 
0.0000000e+00 3.3823528e+00 0.0000000e+00 
0.0000000e+00 3.2352941e+00 0.0000000e+00 
0.0000000e+00 3.0882354e+00 0.0000000e+00 
0.0000000e+00 2.9411764e+00 0.0000000e+00 
0.0000000e+00 2.7941177e+00 0.0000000e+00 
0.0000000e+00 2.6470587e+00 0.0000000e+00 
0.0000000e+00 2.5000000e+00 0.0000000e+00 
0.0000000e+00 2.3529413e+00 0.0000000e+00 
0.0000000e+00 2.2058823e+00 0.0000000e+00 
0.0000000e+00 2.0588236e+00 0.0000000e+00 
0.0000000e+00 1.9117647e+00 0.0000000e+00 
0.0000000e+00 1.7647059e+00 0.0000000e+00 
0.0000000e+00 1.6176471e+00 0.0000000e+00 
0.0000000e+00 1.4705882e+00 0.0000000e+00 
0.0000000e+00 1.3235294e+00 0.0000000e+00 
0.0000000e+00 1.1764706e+00 0.0000000e+00 
0.0000000e+00 1.0294118e+00 0.0000000e+00 
0.0000000e+00 8.8235295e-01 0.0000000e+00 
0.0000000e+00 7.3529410e-01 0.0000000e+00 
0.0000000e+00 5.8823532e-01 0.0000000e+00 
0.0000000e+00 4.4117647e-01 0.0000000e+00 
0.0000000e+00 2.9411766e-01 0.0000000e+00 
0.0000000e+00 1.4705883e-01 0.0000000e+00 
1.0000000e+00 1.4705883e-01 0.0000000e+00 
1.0000000e+00 2.9411766e-01 0.0000000e+00 
1.0000000e+00 4.4117647e-01 0.0000000e+00 
1.0000000e+00 5.8823532e-01 0.0000000e+00 
1.0000000e+00 7.3529410e-01 0.0000000e+00 
1.0000000e+00 8.8235295e-01 0.0000000e+00 
1.0000000e+00 1.0294118e+00 0.0000000e+00 
1.0000000e+00 1.1764706e+00 0.0000000e+00 
1.0000000e+00 1.3235294e+00 0.0000000e+00 
1.0000000e+00 1.4705882e+00 0.0000000e+00 
1.0000000e+00 1.6176471e+00 0.0000000e+00 
1.0000000e+00 1.7647059e+00 0.0000000e+00 
1.0000000e+00 1.9117647e+00 0.0000000e+00 
1.0000000e+00 2.0588236e+00 0.0000000e+00 
1.0000000e+00 2.2058823e+00 0.0000000e+00 
1.0000000e+00 2.3529413e+00 0.0000000e+00 
1.0000000e+00 2.5000000e+00 0.0000000e+00 
1.0000000e+00 2.6470587e+00 0.0000000e+00 
1.0000000e+00 2.7941177e+00 0.0000000e+00 
1.0000000e+00 2.9411764e+00 0.0000000e+00 
1.0000000e+00 3.0882354e+00 0.0000000e+00 
1.0000000e+00 3.2352941e+00 0.0000000e+00 
1.0000000e+00 3.3823528e+00 0.0000000e+00 
1.0000000e+00 3.5294118e+00 0.0000000e+00 
1.0000000e+00 3.6764705e+00 0.0000000e+00 
1.0000000e+00 3.8235295e+00 0.0000000e+00 
1.0000000e+00 3.9705882e+00 0.0000000e+00 
1.0000000e+00 4.1176472e+00 0.0000000e+00 
1.0000000e+00 4.2647057e+00 0.0000000e+00 
1.0000000e+00 4.4117646e+00 0.0000000e+00 
1.0000000e+00 4.5588236e+00 0.0000000e+00 
1.0000000e+00 4.7058825e+00 0.0000000e+00 
1.0000000e+00 4.8529410e+00 0.0000000e+00 
0.0000000e+00 9.8529415e+00 0.0000000e+00 
0.0000000e+00 9.7058821e+00 0.0000000e+00 
0.0000000e+00 9.5588236e+00 0.0000000e+00 
0.0000000e+00 9.4117651e+00 0.0000000e+00 
0.0000000e+00 9.2647057e+00 0.0000000e+00 
0.0000000e+00 9.1176472e+00 0.0000000e+00 
0.0000000e+00 8.9705887e+00 0.0000000e+00 
0.0000000e+00 8.8235292e+00 0.0000000e+00 
0.0000000e+00 8.6764708e+00 0.0000000e+00 
0.0000000e+00 8.5294113e+00 0.0000000e+00 
0.0000000e+00 8.3823528e+00 0.0000000e+00 
0.0000000e+00 8.2352943e+00 0.0000000e+00 
0.0000000e+00 8.0882349e+00 0.0000000e+00 
0.0000000e+00 7.9411764e+00 0.0000000e+00 
0.0000000e+00 7.7941175e+00 0.0000000e+00 
0.0000000e+00 7.6470590e+00 0.0000000e+00 
0.0000000e+00 7.5000000e+00 0.0000000e+00 
0.0000000e+00 7.3529410e+00 0.0000000e+00 
0.0000000e+00 7.2058825e+00 0.0000000e+00 
0.0000000e+00 7.0588236e+00 0.0000000e+00 
0.0000000e+00 6.9117646e+00 0.0000000e+00 
0.0000000e+00 6.7647057e+00 0.0000000e+00 
0.0000000e+00 6.6176472e+00 0.0000000e+00 
0.0000000e+00 6.4705882e+00 0.0000000e+00 
0.0000000e+00 6.3235292e+00 0.0000000e+00 
0.0000000e+00 6.1764708e+00 0.0000000e+00 
0.0000000e+00 6.0294118e+00 0.0000000e+00 
0.0000000e+00 5.8823528e+00 0.0000000e+00 
0.0000000e+00 5.7352943e+00 0.0000000e+00 
0.0000000e+00 5.5882354e+00 0.0000000e+00 
0.0000000e+00 5.4411764e+00 0.0000000e+00 
0.0000000e+00 5.2941175e+00 0.0000000e+00 
0.0000000e+00 5.1470590e+00 0.0000000e+00 
1.0000000e+00 5.1470590e+00 0.0000000e+00 
1.0000000e+00 5.2941175e+00 0.0000000e+00 
1.0000000e+00 5.4411764e+00 0.0000000e+00 
1.0000000e+00 5.5882354e+00 0.0000000e+00 
1.0000000e+00 5.7352943e+00 0.0000000e+00 
1.0000000e+00 5.8823528e+00 0.0000000e+00 
1.0000000e+00 6.0294118e+00 0.0000000e+00 
1.0000000e+00 6.1764708e+00 0.0000000e+00 
1.0000000e+00 6.3235292e+00 0.0000000e+00 
1.0000000e+00 6.4705882e+00 0.0000000e+00 
1.0000000e+00 6.6176472e+00 0.0000000e+00 
1.0000000e+00 6.7647057e+00 0.0000000e+00 
1.0000000e+00 6.9117646e+00 0.0000000e+00 
1.0000000e+00 7.0588236e+00 0.0000000e+00 
1.0000000e+00 7.2058825e+00 0.0000000e+00 
1.0000000e+00 7.3529410e+00 0.0000000e+00 
1.0000000e+00 7.5000000e+00 0.0000000e+00 
1.0000000e+00 7.6470590e+00 0.0000000e+00 
1.0000000e+00 7.7941175e+00 0.0000000e+00 
1.0000000e+00 7.9411764e+00 0.0000000e+00 
1.0000000e+00 8.0882349e+00 0.0000000e+00 
1.0000000e+00 8.2352943e+00 0.0000000e+00 
1.0000000e+00 8.3823528e+00 0.0000000e+00 
1.0000000e+00 8.5294113e+00 0.0000000e+00 
1.0000000e+00 8.6764708e+00 0.0000000e+00 
1.0000000e+00 8.8235292e+00 0.0000000e+00 
1.0000000e+00 8.9705887e+00 0.0000000e+00 
1.0000000e+00 9.1176472e+00 0.0000000e+00 
1.0000000e+00 9.2647057e+00 0.0000000e+00 
1.0000000e+00 9.4117651e+00 0.0000000e+00 
1.0000000e+00 9.5588236e+00 0.0000000e+00 
1.0000000e+00 9.7058821e+00 0.0000000e+00 
1.0000000e+00 9.8529415e+00 0.0000000e+00 
5.0212586e-01 4.8703580e+00 0.0000000e+00 
5.1041055e-01 1.3732977e-01 0.0000000e+00 
1.3055173e-01 6.6499180e-01 0.0000000e+00 
8.7327349e-01 4.3372407e+00 0.0000000e+00 
8.7331611e-01 3.8958969e+00 0.0000000e+00 
8.7347627e-01 3.4562511e+00 0.0000000e+00 
8.7357801e-01 2.8680170e+00 0.0000000e+00 
1.2843554e-01 2.1327813e+00 0.0000000e+00 
1.2975387e-01 1.5449892e+00 0.0000000e+00 
1.3308091e-01 1.1039938e+00 0.0000000e+00 
1.2937543e-01 2.5737903e+00 0.0000000e+00 
1.2735668e-01 3.1617646e+00 0.0000000e+00 
8.7375563e-01 1.8386052e+00 0.0000000e+00 
8.7355548e-01 2.2778318e+00 0.0000000e+00 
1.2753446e-01 4.1915216e+00 0.0000000e+00 
8.7915283e-01 8.0759794e-01 0.0000000e+00 
8.8115031e-01 1.2498868e+00 0.0000000e+00 
1.2781374e-01 3.7501886e+00 0.0000000e+00 
8.7352717e-01 3.1621344e+00 0.0000000e+00 
1.2961270e-01 1.8389882e+00 0.0000000e+00 
1.2731366e-01 4.4857054e+00 0.0000000e+00 
1.2885660e-01 2.8684020e+00 0.0000000e+00 
8.7380636e-01 1.5444875e+00 0.0000000e+00 
8.7362880e-01 2.5738993e+00 0.0000000e+00 
1.2735668e-01 3.4558823e+00 0.0000000e+00 
8.7264335e-01 5.1470590e-01 0.0000000e+00 
8.7611687e-01 4.6317782e+00 0.0000000e+00 
1.3446054e-01 3.7013325e-01 0.0000000e+00 
1.2296320e-01 4.7760825e+00 0.0000000e+00 
8.8210768e-01 2.2118840e-01 0.0000000e+00 
2.1798968e-01 1.0548568e-01 0.0000000e+00 
7.7656764e-01 4.8704844e+00 0.0000000e+00 
1.2667844e-01 4.6331582e+00 0.0000000e+00 
2.5353336e-01 4.5619426e+00 0.0000000e+00 
2.5451174e-01 4.4132285e+00 0.0000000e+00 
3.8040194e-01 4.4881525e+00 0.0000000e+00 
3.8161713e-01 4.3403850e+00 0.0000000e+00 
5.0654775e-01 4.4141955e+00 0.0000000e+00 
5.0629890e-01 4.2659345e+00 0.0000000e+00 
5.0658631e-01 4.5616083e+00 0.0000000e+00 
3.8184282e-01 4.1932206e+00 0.0000000e+00 
5.0831819e-01 4.1188259e+00 0.0000000e+00 
3.8249290e-01 4.0462651e+00 0.0000000e+00 
5.0818664e-01 3.9732957e+00 0.0000000e+00 
3.8265404e-01 3.8991868e+00 0.0000000e+00 
5.0769192e-01 3.8249388e+00 0.0000000e+00 
3.8307732e-01 3.7517705e+00 0.0000000e+00 
5.0990808e-01 3.6776419e+00 0.0000000e+00 
3.8416636e-01 3.6049941e+00 0.0000000e+00 
5.1177651e-01 3.5322094e+00 0.0000000e+00 
3.8460994e-01 3.4584429e+00 0.0000000e+00 
5.1256055e-01 3.3855147e+00 0.0000000e+00 
3.8520575e-01 3.3115354e+00 0.0000000e+00 
5.1318693e-01 3.2385471e+00 0.0000000e+00 
3.8561273e-01 3.1645203e+00 0.0000000e+00 
5.1375473e-01 3.0915136e+00 0.0000000e+00 
3.8616878e-01 3.0174749e+00 0.0000000e+00 
5.1433694e-01 2.9444630e+00 0.0000000e+00 
3.8656160e-01 2.8704205e+00 0.0000000e+00 
5.1489413e-01 2.7974076e+00 0.0000000e+00 
3.8711417e-01 2.7233641e+00 0.0000000e+00 
5.1547360e-01 2.6503508e+00 0.0000000e+00 
3.8750717e-01 2.5763063e+00 0.0000000e+00 
5.1603019e-01 2.5032935e+00 0.0000000e+00 
3.8805979e-01 2.4292488e+00 0.0000000e+00 
5.1422137e-01 2.3562264e+00 0.0000000e+00 
3.8765049e-01 2.2821872e+00 0.0000000e+00 
5.1307547e-01 2.2071202e+00 0.0000000e+00 
3.8778570e-01 2.1347876e+00 0.0000000e+00 
5.1568961e-01 2.0596735e+00 0.0000000e+00 
3.9013749e-01 1.9876142e+00 0.0000000e+00 
5.1808232e-01 1.9145784e+00 0.0000000e+00 
3.8994926e-01 1.8408588e+00 0.0000000e+00 
5.1884413e-01 1.7678982e+00 0.0000000e+00 
[...]
POINT_DATA 628
FIELD FieldData 1
VELOCITY 3 628  float
0.0000000e+00 0.0000000e+00 0.0000000e+00 
0.0000000e+00 0.0000000e+00 0.0000000e+00 
0.0000000e+00 2.6571590e-03 0.0000000e+00 
0.0000000e+00 2.6489072e-03 0.0000000e+00 
0.0000000e+00 2.5051425e-03 0.0000000e+00 
0.0000000e+00 2.5117723e-03 0.0000000e+00 
0.0000000e+00 0.0000000e+00 0.0000000e+00 
0.0000000e+00 0.0000000e+00 0.0000000e+00 
0.0000000e+00 0.0000000e+00 0.0000000e+00 
0.0000000e+00 0.0000000e+00 0.0000000e+00 
0.0000000e+00 0.0000000e+00 0.0000000e+00 
0.0000000e+00 0.0000000e+00 0.0000000e+00 
-1.1453800e-06 2.6798472e-03 0.0000000e+00 
-1.9850113e-05 2.6495429e-03 0.0000000e+00 
8.1252210e-06 2.6486341e-03 0.0000000e+00 
-2.4819188e-05 2.6031416e-03 0.0000000e+00 
4.3846035e-06 2.6277157e-03 0.0000000e+00 
6.5734280e-06 2.6535059e-03 0.0000000e+00 
-1.1511213e-06 2.5231917e-03 0.0000000e+00 
3.1512379e-06 2.5211656e-03 0.0000000e+00 
-1.1588787e-06 2.5162096e-03 0.0000000e+00 
3.2297376e-06 2.5156019e-03 0.0000000e+00 
-6.0090156e-06 2.5225468e-03 0.0000000e+00 
1.6641938e-07 2.5260625e-03 0.0000000e+00 
0.0000000e+00 2.5096179e-03 0.0000000e+00 
0.0000000e+00 2.6136590e-03 0.0000000e+00 
0.0000000e+00 2.6813084e-03 0.0000000e+00 
0.0000000e+00 2.6553944e-03 0.0000000e+00 
0.0000000e+00 2.5007529e-03 0.0000000e+00 
0.0000000e+00 2.2401405e-03 0.0000000e+00 
0.0000000e+00 2.0530396e-03 0.0000000e+00 
0.0000000e+00 1.8457766e-03 0.0000000e+00 
0.0000000e+00 1.6072119e-03 0.0000000e+00 
0.0000000e+00 1.4071785e-03 0.0000000e+00 
0.0000000e+00 1.2303815e-03 0.0000000e+00 
0.0000000e+00 1.1659999e-03 0.0000000e+00 
0.0000000e+00 1.1144464e-03 0.0000000e+00 
0.0000000e+00 8.9769659e-04 0.0000000e+00 
0.0000000e+00 6.4443151e-04 0.0000000e+00 
0.0000000e+00 4.0452299e-04 0.0000000e+00 
0.0000000e+00 9.8596414e-05 0.0000000e+00 
0.0000000e+00 -2.2890116e-04 0.0000000e+00 
0.0000000e+00 -5.5468472e-04 0.0000000e+00 
0.0000000e+00 -8.4292761e-04 0.0000000e+00 
0.0000000e+00 -9.3553099e-04 0.0000000e+00 
0.0000000e+00 -8.9035928e-04 0.0000000e+00 
0.0000000e+00 -8.6325972e-04 0.0000000e+00 
0.0000000e+00 -7.2297850e-04 0.0000000e+00 
0.0000000e+00 -3.8338368e-04 0.0000000e+00 
0.0000000e+00 -6.7812223e-05 0.0000000e+00 
0.0000000e+00 1.2342400e-04 0.0000000e+00 
0.0000000e+00 3.4081703e-04 0.0000000e+00 
0.0000000e+00 5.5322464e-04 0.0000000e+00 
0.0000000e+00 5.9258292e-04 0.0000000e+00 
0.0000000e+00 5.0057383e-04 0.0000000e+00 
0.0000000e+00 3.9963587e-04 0.0000000e+00 
0.0000000e+00 2.5214971e-04 0.0000000e+00 
0.0000000e+00 2.4937937e-04 0.0000000e+00 
0.0000000e+00 3.9705521e-04 0.0000000e+00 
0.0000000e+00 5.0221436e-04 0.0000000e+00 
0.0000000e+00 5.9386442e-04 0.0000000e+00 
0.0000000e+00 5.5132894e-04 0.0000000e+00 
0.0000000e+00 3.4751630e-04 0.0000000e+00 
0.0000000e+00 1.3270391e-04 0.0000000e+00 
0.0000000e+00 -7.2935640e-05 0.0000000e+00 
0.0000000e+00 -3.8952185e-04 0.0000000e+00 
0.0000000e+00 -7.1582804e-04 0.0000000e+00 
0.0000000e+00 -8.6078671e-04 0.0000000e+00 
0.0000000e+00 -9.0257305e-04 0.0000000e+00 
0.0000000e+00 -9.4195810e-04 0.0000000e+00 
0.0000000e+00 -8.3733816e-04 0.0000000e+00 
0.0000000e+00 -5.5326882e-04 0.0000000e+00 
0.0000000e+00 -2.3328877e-04 0.0000000e+00 
0.0000000e+00 9.9240729e-05 0.0000000e+00 
0.0000000e+00 4.0370837e-04 0.0000000e+00 
0.0000000e+00 6.4321165e-04 0.0000000e+00 
0.0000000e+00 9.0278371e-04 0.0000000e+00 
0.0000000e+00 1.1145200e-03 0.0000000e+00 
0.0000000e+00 1.1624257e-03 0.0000000e+00 
0.0000000e+00 1.2354415e-03 0.0000000e+00 
0.0000000e+00 1.4100255e-03 0.0000000e+00 
0.0000000e+00 1.6023262e-03 0.0000000e+00 
0.0000000e+00 1.8491847e-03 0.0000000e+00 
0.0000000e+00 2.0549588e-03 0.0000000e+00 
0.0000000e+00 2.2374212e-03 0.0000000e+00 
0.0000000e+00 2.5048130e-03 0.0000000e+00 
0.0000000e+00 2.6514025e-03 0.0000000e+00 
0.0000000e+00 2.6735433e-03 0.0000000e+00 
0.0000000e+00 2.6144087e-03 0.0000000e+00 
0.0000000e+00 2.5073518e-03 0.0000000e+00 
0.0000000e+00 2.7091820e-03 0.0000000e+00 
0.0000000e+00 2.8310323e-03 0.0000000e+00 
0.0000000e+00 2.9506192e-03 0.0000000e+00 
0.0000000e+00 2.9390811e-03 0.0000000e+00 
0.0000000e+00 2.8407457e-03 0.0000000e+00 
0.0000000e+00 2.7020345e-03 0.0000000e+00 
0.0000000e+00 2.6631220e-03 0.0000000e+00 
0.0000000e+00 2.7041514e-03 0.0000000e+00 
0.0000000e+00 2.8243875e-03 0.0000000e+00 
0.0000000e+00 2.8973862e-03 0.0000000e+00 
0.0000000e+00 2.9149121e-03 0.0000000e+00 
0.0000000e+00 2.8358707e-03 0.0000000e+00 
0.0000000e+00 2.7643405e-03 0.0000000e+00 
0.0000000e+00 2.7364800e-03 0.0000000e+00 
0.0000000e+00 2.7381838e-03 0.0000000e+00 
0.0000000e+00 2.7517895e-03 0.0000000e+00 
0.0000000e+00 2.7733368e-03 0.0000000e+00 
0.0000000e+00 2.8023268e-03 0.0000000e+00 
0.0000000e+00 2.8543654e-03 0.0000000e+00 
0.0000000e+00 2.9081276e-03 0.0000000e+00 
0.0000000e+00 2.9009038e-03 0.0000000e+00 
0.0000000e+00 2.8196336e-03 0.0000000e+00 
0.0000000e+00 2.6919716e-03 0.0000000e+00 
0.0000000e+00 2.6001467e-03 0.0000000e+00 
0.0000000e+00 2.6425745e-03 0.0000000e+00 
0.0000000e+00 2.7847919e-03 0.0000000e+00 
0.0000000e+00 2.9334610e-03 0.0000000e+00 
0.0000000e+00 2.9476674e-03 0.0000000e+00 
0.0000000e+00 2.8880937e-03 0.0000000e+00 
0.0000000e+00 2.7458400e-03 0.0000000e+00 
0.0000000e+00 2.6886011e-03 0.0000000e+00 
0.0000000e+00 2.6250749e-03 0.0000000e+00 
0.0000000e+00 2.5662060e-03 0.0000000e+00 
0.0000000e+00 2.5685851e-03 0.0000000e+00 
0.0000000e+00 2.6184719e-03 0.0000000e+00 
0.0000000e+00 2.6938887e-03 0.0000000e+00 
0.0000000e+00 2.7412646e-03 0.0000000e+00 
0.0000000e+00 2.8858203e-03 0.0000000e+00 
0.0000000e+00 2.9436629e-03 0.0000000e+00 
0.0000000e+00 2.9359674e-03 0.0000000e+00 
0.0000000e+00 2.7821271e-03 0.0000000e+00 
0.0000000e+00 2.6427365e-03 0.0000000e+00 
0.0000000e+00 2.5994421e-03 0.0000000e+00 
0.0000000e+00 2.6831417e-03 0.0000000e+00 
0.0000000e+00 2.8272658e-03 0.0000000e+00 
0.0000000e+00 2.8988067e-03 0.0000000e+00 
0.0000000e+00 2.9193698e-03 0.0000000e+00 
0.0000000e+00 2.8461902e-03 0.0000000e+00 
0.0000000e+00 2.8031820e-03 0.0000000e+00 
0.0000000e+00 2.7658721e-03 0.0000000e+00 
0.0000000e+00 2.7656129e-03 0.0000000e+00 
0.0000000e+00 2.7376611e-03 0.0000000e+00 
0.0000000e+00 2.7381377e-03 0.0000000e+00 
0.0000000e+00 2.7681743e-03 0.0000000e+00 
0.0000000e+00 2.8463695e-03 0.0000000e+00 
0.0000000e+00 2.9045790e-03 0.0000000e+00 
0.0000000e+00 2.9028438e-03 0.0000000e+00 
0.0000000e+00 2.8152112e-03 0.0000000e+00 
0.0000000e+00 2.7048925e-03 0.0000000e+00 
0.0000000e+00 2.6636391e-03 0.0000000e+00 
0.0000000e+00 2.6977749e-03 0.0000000e+00 
0.0000000e+00 2.8373743e-03 0.0000000e+00 
0.0000000e+00 2.9402070e-03 0.0000000e+00 
0.0000000e+00 2.9465933e-03 0.0000000e+00 
0.0000000e+00 2.8284362e-03 0.0000000e+00 
0.0000000e+00 2.7129077e-03 0.0000000e+00 
3.4308201e-07 2.4956146e-03 0.0000000e+00 
2.8798700e-06 2.3961796e-04 0.0000000e+00 
-3.3147217e-06 5.9861009e-04 0.0000000e+00 
2.7274668e-06 2.6032724e-03 0.0000000e+00 
4.2280703e-07 1.9595486e-03 0.0000000e+00 
-6.1114736e-07 1.3169110e-03 0.0000000e+00 
-1.8111272e-06 7.7172706e-04 0.0000000e+00 
8.8503657e-07 -7.1296212e-04 0.0000000e+00 
-2.6963571e-06 -8.2409289e-04 0.0000000e+00 
-1.4710724e-06 3.7683894e-05 0.0000000e+00 
2.4984310e-08 2.6145251e-04 0.0000000e+00 
1.6048168e-07 1.1548256e-03 0.0000000e+00 
9.6826795e-07 -9.3006564e-04 0.0000000e+00 
-9.7295333e-07 -3.9564449e-04 0.0000000e+00 
7.4773993e-07 2.3625495e-03 0.0000000e+00 
1.7112297e-06 4.6142386e-04 0.0000000e+00 
9.6063445e-07 -2.1310654e-04 0.0000000e+00 
4.3215024e-07 1.7260385e-03 0.0000000e+00 
7.9835149e-07 1.1500611e-03 0.0000000e+00 
4.4224737e-07 -9.2255254e-04 0.0000000e+00 
-1.8341290e-06 2.6791266e-03 0.0000000e+00 
1.5107953e-06 7.6949509e-04 0.0000000e+00 
1.5790709e-08 -8.1678358e-04 0.0000000e+00 
8.8399304e-07 2.6392756e-04 0.0000000e+00 
-1.1844484e-07 1.3119709e-03 0.0000000e+00 
-9.7867724e-07 5.5657898e-04 0.0000000e+00 
-2.8216157e-06 2.6680510e-03 0.0000000e+00 
2.3173527e-06 4.4800324e-04 0.0000000e+00 
-2.5371412e-06 2.5500611e-03 0.0000000e+00 
-2.1548040e-06 3.3582348e-04 0.0000000e+00 
2.4556135e-07 1.8664089e-04 0.0000000e+00 
-1.2849024e-06 2.4831800e-03 0.0000000e+00 
4.4813701e-06 2.6640701e-03 0.0000000e+00 
-1.3879400e-06 2.6789987e-03 0.0000000e+00 
3.4102491e-06 2.6553466e-03 0.0000000e+00 
1.5778738e-06 2.6773957e-03 0.0000000e+00 
2.4230767e-06 2.6004480e-03 0.0000000e+00 
-2.5874877e-07 2.6543201e-03 0.0000000e+00 
-3.2254661e-06 2.4968325e-03 0.0000000e+00 
4.6891384e-07 2.6798204e-03 0.0000000e+00 
-7.0357061e-07 2.3705114e-03 0.0000000e+00 
2.5169886e-06 2.2343195e-03 0.0000000e+00 
3.4284707e-07 2.1397439e-03 0.0000000e+00 
6.4074220e-07 2.0536238e-03 0.0000000e+00 
-8.6301895e-07 1.9626489e-03 0.0000000e+00 
1.0353107e-06 1.8491261e-03 0.0000000e+00 
-1.0509939e-06 1.7214782e-03 0.0000000e+00 
4.4499257e-07 1.6101309e-03 0.0000000e+00 
-1.4732173e-08 1.5091841e-03 0.0000000e+00 
4.8026970e-07 1.4142958e-03 0.0000000e+00 
1.1436138e-06 1.3186588e-03 0.0000000e+00 
-2.6709174e-06 1.2310822e-03 0.0000000e+00 
-2.7318470e-06 1.1809972e-03 0.0000000e+00 
-1.1194993e-07 1.1587734e-03 0.0000000e+00 
2.9697212e-06 1.1517545e-03 0.0000000e+00 
1.5782500e-06 1.1156215e-03 0.0000000e+00 
-8.7464377e-07 1.0305154e-03 0.0000000e+00 
-8.0576882e-07 9.0830645e-04 0.0000000e+00 
2.4650433e-06 7.7038171e-04 0.0000000e+00 
5.8145224e-07 6.4662489e-04 0.0000000e+00 
-1.1668834e-06 5.3232291e-04 0.0000000e+00 
-6.7978050e-07 4.1086521e-04 0.0000000e+00 
-3.8066509e-07 2.6620220e-04 0.0000000e+00 
-4.0079178e-07 1.0760217e-04 0.0000000e+00 
-1.7691128e-06 -5.9389757e-05 0.0000000e+00 
-7.8896920e-07 -2.2125935e-04 0.0000000e+00 
1.2451816e-06 -3.8428168e-04 0.0000000e+00 
3.3625658e-06 -5.5250176e-04 0.0000000e+00 
4.9273833e-08 -7.0788182e-04 0.0000000e+00 
2.3112496e-07 -8.3853339e-04 0.0000000e+00 
-1.3659610e-06 -9.1790356e-04 0.0000000e+00 
-2.3193543e-06 -9.4043644e-04 0.0000000e+00 
-1.4576760e-06 -9.2774804e-04 0.0000000e+00 
7.7987897e-07 -8.9963985e-04 0.0000000e+00 
-6.1634245e-07 -8.8473159e-04 0.0000000e+00 
3.0953138e-06 -8.6329010e-04 0.0000000e+00 
1.5323650e-06 -8.2237832e-04 0.0000000e+00 
-4.4973322e-07 -7.2484568e-04 0.0000000e+00 
-4.7511887e-07 -5.7380833e-04 0.0000000e+00 
-4.4065714e-06 -3.9358056e-04 0.0000000e+00 
9.0940830e-07 -2.1682843e-04 0.0000000e+00 
1.9988715e-06 -7.5196513e-05 0.0000000e+00 
6.9123450e-07 3.6299170e-05 0.0000000e+00 
1.2062821e-06 1.2806828e-04 0.0000000e+00 
-1.3231182e-06 2.2786047e-04 0.0000000e+00 
-3.6905747e-06 3.4160906e-04 0.0000000e+00 
-7.7520446e-07 4.5463201e-04 0.0000000e+00 
8.0278249e-07 5.5085373e-04 0.0000000e+00 
8.1330495e-07 5.9876911e-04 0.0000000e+00 
1.3020045e-06 5.9572427e-04 0.0000000e+00 
1.1116538e-06 5.5859465e-04 0.0000000e+00 
-7.8505593e-07 4.9996283e-04 0.0000000e+00 
-2.0079835e-06 4.4781019e-04 0.0000000e+00 
2.7433841e-06 2.1330849e-03 0.0000000e+00 
-1.6308621e-06 2.6748814e-03 0.0000000e+00 
-6.0756759e-07 1.5085918e-03 0.0000000e+00 
-2.0923480e-06 -9.1756298e-04 0.0000000e+00 
2.2379536e-06 2.6630368e-03 0.0000000e+00 
-1.8855801e-06 1.1792597e-03 0.0000000e+00 
-8.1877528e-07 1.0328861e-03 0.0000000e+00 
-1.2034046e-06 2.2687306e-04 0.0000000e+00 
1.0859268e-06 5.3274346e-04 0.0000000e+00 
7.4388106e-07 -5.8294128e-05 0.0000000e+00 
3.2349274e-06 -8.8517216e-04 0.0000000e+00 
-3.0114074e-06 -5.7756720e-04 0.0000000e+00 
9.4854209e-07 5.9882464e-04 0.0000000e+00 
3.4311665e-06 3.4038958e-04 0.0000000e+00 
1.6359120e-06 -3.8861542e-04 0.0000000e+00 
-9.0825392e-07 -2.2238387e-04 0.0000000e+00 
-2.5652482e-06 2.0581374e-03 0.0000000e+00 
5.6045292e-07 3.9649080e-04 0.0000000e+00 
1.7051017e-06 4.4852111e-04 0.0000000e+00 
1.7973887e-06 3.3765766e-04 0.0000000e+00 
1.8938101e-06 2.6105624e-03 0.0000000e+00 
-3.0183846e-06 2.5508995e-03 0.0000000e+00 
2.9917385e-06 2.5474082e-03 0.0000000e+00 
2.7322947e-06 5.0303579e-04 0.0000000e+00 
-2.0048735e-06 4.0123158e-04 0.0000000e+00 
-2.6508046e-06 -8.7191979e-04 0.0000000e+00 
1.5919102e-06 -9.4560051e-04 0.0000000e+00 
-6.6225647e-07 4.0936205e-04 0.0000000e+00 
1.5960308e-06 9.0432190e-04 0.0000000e+00 
2.5468819e-06 1.1615518e-03 0.0000000e+00 
1.7346498e-06 1.4105878e-03 0.0000000e+00 
-3.2775964e-07 2.6587965e-03 0.0000000e+00 
3.1520372e-06 5.5623637e-04 0.0000000e+00 
-1.0358315e-07 5.9938431e-04 0.0000000e+00 
-1.0643046e-06 4.5013195e-04 0.0000000e+00 
-1.5137957e-06 5.5571803e-04 0.0000000e+00 
1.7159456e-06 2.6005721e-03 0.0000000e+00 
-1.4678235e-06 2.6781438e-03 0.0000000e+00 
1.3196742e-06 5.9689168e-04 0.0000000e+00 
-9.1431258e-07 4.5790075e-04 0.0000000e+00 
-1.2625428e-06 3.4849645e-04 0.0000000e+00 
2.1461627e-08 1.3117804e-04 0.0000000e+00 
-6.3189094e-07 -6.7543144e-05 0.0000000e+00 
-2.0188807e-07 -2.0861624e-04 0.0000000e+00 
3.1934139e-06 3.9817573e-05 0.0000000e+00 
-9.7659120e-07 1.3402979e-04 0.0000000e+00 
-2.7289893e-06 -2.1042069e-04 0.0000000e+00 
-5.3113246e-07 -7.0836279e-04 0.0000000e+00 
-2.0475437e-07 -5.5665890e-04 0.0000000e+00 
-1.3522147e-06 -9.1846852e-04 0.0000000e+00 
-2.3891587e-07 5.3254608e-04 0.0000000e+00 
-1.4433062e-06 1.0504429e-04 0.0000000e+00 
-2.0458597e-06 -6.4519874e-05 0.0000000e+00 
-4.2749491e-07 1.5055321e-03 0.0000000e+00 
-1.8680364e-06 1.2319664e-03 0.0000000e+00 
7.7400779e-07 1.1791122e-03 0.0000000e+00 
-8.5713276e-07 1.1159589e-03 0.0000000e+00 
-1.1224903e-06 1.0259281e-03 0.0000000e+00 
6.5630167e-07 6.4834452e-04 0.0000000e+00 
1.1199702e-06 1.0294741e-03 0.0000000e+00 
1.5589221e-06 2.3652425e-03 0.0000000e+00 
4.5689608e-06 2.4988665e-03 0.0000000e+00 
-3.9103061e-06 2.1290944e-03 0.0000000e+00 
3.9073097e-07 1.7228117e-03 0.0000000e+00 
-4.7820839e-07 1.8533135e-03 0.0000000e+00 
1.1655995e-06 1.5031612e-03 0.0000000e+00 
2.2051320e-06 -9.2117925e-04 0.0000000e+00 
-2.9700343e-06 -9.0556155e-04 0.0000000e+00 
-3.9275023e-06 -8.8271138e-04 0.0000000e+00 
-1.5755600e-07 -7.2753202e-04 0.0000000e+00 
-2.2540428e-06 1.9604226e-03 0.0000000e+00 
1.3142941e-06 1.8513567e-03 0.0000000e+00 
2.6815667e-06 -6.9872476e-05 0.0000000e+00 
-2.3734412e-06 1.1784000e-03 0.0000000e+00 
1.3417139e-06 4.6105540e-04 0.0000000e+00 
4.2800643e-06 2.2523997e-04 0.0000000e+00 
1.2565519e-06 -8.8534295e-04 0.0000000e+00 
1.6386301e-06 5.3101202e-04 0.0000000e+00 
3.0677249e-06 -5.7112041e-04 0.0000000e+00 
1.3114608e-06 -8.2377653e-04 0.0000000e+00 
-4.8713008e-07 -8.4173679e-04 0.0000000e+00 
9.9627323e-07 -5.4921064e-04 0.0000000e+00 
7.3365436e-07 -9.2993194e-04 0.0000000e+00 
1.1422735e-06 2.7042135e-04 0.0000000e+00 
-2.2381801e-06 7.7230652e-04 0.0000000e+00 
1.3184441e-06 1.1500641e-03 0.0000000e+00 
-7.9006617e-07 1.3176845e-03 0.0000000e+00 
-6.7047466e-07 2.1353248e-03 0.0000000e+00 
2.4371734e-06 2.2429181e-03 0.0000000e+00 
-1.4361542e-06 2.5006896e-03 0.0000000e+00 
2.6849915e-07 -5.7043938e-04 0.0000000e+00 
-3.5253429e-06 1.6088987e-03 0.0000000e+00 
9.2195381e-07 -3.8882825e-04 0.0000000e+00 
4.7103586e-06 2.6119375e-03 0.0000000e+00 
-1.5296962e-06 2.4900096e-03 0.0000000e+00 
-2.3553223e-06 5.5060635e-04 0.0000000e+00 
-2.1983510e-06 2.6172046e-03 0.0000000e+00 
5.1423967e-07 2.6521038e-03 0.0000000e+00 
4.8410684e-06 2.5478676e-03 0.0000000e+00 
-1.3009170e-06 3.3163722e-04 0.0000000e+00 
-8.8210179e-08 2.0557181e-03 0.0000000e+00 
-2.0008151e-06 2.6789992e-03 0.0000000e+00 
-2.5247741e-06 2.1945989e-04 0.0000000e+00 
-1.4906136e-06 2.6007432e-03 0.0000000e+00 
-1.9932909e-06 2.3720446e-03 0.0000000e+00 
-3.8089017e-06 2.2383670e-03 0.0000000e+00 
2.0529956e-07 1.9617730e-03 0.0000000e+00 
1.1379412e-06 -2.2525934e-04 0.0000000e+00 
3.2391727e-06 1.7207090e-03 0.0000000e+00 
2.8631889e-06 1.6115891e-03 0.0000000e+00 
-8.1015475e-07 1.4151133e-03 0.0000000e+00 
-4.0940262e-07 1.2342586e-03 0.0000000e+00 
-2.3459297e-06 1.1576568e-03 0.0000000e+00 
2.1565477e-06 1.1143354e-03 0.0000000e+00 
-1.7842003e-06 2.3000914e-04 0.0000000e+00 
-3.4057448e-06 9.1020443e-04 0.0000000e+00 
2.3464203e-07 6.5030070e-04 0.0000000e+00 
1.9913898e-06 4.1318472e-04 0.0000000e+00 
2.7970125e-06 -7.0708315e-04 0.0000000e+00 
2.9413070e-06 1.0593796e-04 0.0000000e+00 
8.7431465e-07 -3.8509912e-04 0.0000000e+00 
-2.3403693e-07 -8.3393831e-04 0.0000000e+00 
-1.3327859e-06 -9.4475318e-04 0.0000000e+00 
3.1989964e-06 -9.0753508e-04 0.0000000e+00 
8.8353545e-07 -8.6917088e-04 0.0000000e+00 
-6.0019096e-07 -6.7576140e-05 0.0000000e+00 
1.0649399e-06 -7.2854775e-04 0.0000000e+00 
1.6331177e-07 -3.9163971e-04 0.0000000e+00 
4.9533293e-07 3.9333414e-04 0.0000000e+00 
-7.5057477e-07 5.0187513e-04 0.0000000e+00 
-9.4819814e-07 5.9542240e-04 0.0000000e+00 
-6.4828743e-07 3.4199943e-04 0.0000000e+00 
-2.4332624e-06 3.8833681e-05 0.0000000e+00 
2.0114633e-06 5.4989517e-04 0.0000000e+00 
3.7277441e-06 1.8824915e-04 0.0000000e+00 
-1.3522639e-06 1.7021550e-04 0.0000000e+00 
8.5577749e-06 2.4961520e-03 0.0000000e+00 
-9.0761087e-06 2.4974539e-03 0.0000000e+00 
8.8304741e-06 2.4982593e-03 0.0000000e+00 
-1.0109711e-05 2.4946267e-03 0.0000000e+00 
-3.0365061e-06 1.7660206e-04 0.0000000e+00 
-1.3626955e-06 1.8403299e-04 0.0000000e+00 
2.4066509e-07 3.0282259e-04 0.0000000e+00 
-9.0701633e-06 2.6942666e-03 0.0000000e+00 
2.8420908e-07 2.5562770e-03 0.0000000e+00 
-4.1417343e-06 2.8939487e-03 0.0000000e+00 
1.9310421e-06 2.8182489e-03 0.0000000e+00 
-4.7605857e-09 2.7604701e-03 0.0000000e+00 
7.5024971e-08 2.8820452e-03 0.0000000e+00 
3.7747857e-06 2.8728356e-03 0.0000000e+00 
3.9521110e-06 2.8624253e-03 0.0000000e+00 
3.3584538e-08 2.7762689e-03 0.0000000e+00 
2.3593493e-06 2.7455289e-03 0.0000000e+00 
4.9635159e-06 2.8706703e-03 0.0000000e+00 
-5.6909385e-06 2.6209259e-03 0.0000000e+00 
-1.4648829e-06 2.7716565e-03 0.0000000e+00 
-1.9337072e-06 2.8135972e-03 0.0000000e+00 
-5.1147157e-07 2.9298509e-03 0.0000000e+00 
-5.6597978e-06 2.6614168e-03 0.0000000e+00 
3.4090997e-06 2.9642989e-03 0.0000000e+00 
-4.8582382e-07 2.7770388e-03 0.0000000e+00 
-2.5061877e-06 2.9201221e-03 0.0000000e+00 
-1.1888765e-06 2.7375733e-03 0.0000000e+00 
2.5160246e-06 2.6146758e-03 0.0000000e+00 
3.2171979e-06 2.7605724e-03 0.0000000e+00 
7.0292685e-07 2.7074437e-03 0.0000000e+00 
1.8192097e-06 2.8835654e-03 0.0000000e+00 
4.5649449e-06 2.8298679e-03 0.0000000e+00 
2.9278501e-06 2.8632677e-03 0.0000000e+00 
-5.4397115e-06 2.8986728e-03 0.0000000e+00 
-3.0246954e-06 2.6605001e-03 0.0000000e+00 
-9.4741763e-06 2.5794683e-03 0.0000000e+00 
8.5175061e-06 2.7726726e-03 0.0000000e+00 
1.5090049e-05 2.6425987e-03 0.0000000e+00 
2.8582569e-06 2.5499461e-03 0.0000000e+00 
3.8641210e-06 2.6604678e-03 0.0000000e+00 
2.3107750e-06 2.6937288e-03 0.0000000e+00 
-6.8131527e-07 2.7474330e-03 0.0000000e+00 
-5.5102773e-06 2.7039370e-03 0.0000000e+00 
1.8326575e-06 2.8103681e-03 0.0000000e+00 
-1.0123314e-06 2.7566231e-03 0.0000000e+00 
-1.0326569e-06 2.8918216e-03 0.0000000e+00 
-1.1720324e-06 2.6922997e-03 0.0000000e+00 
3.7408056e-06 2.9252067e-03 0.0000000e+00 
-3.7815704e-07 2.9447875e-03 0.0000000e+00 
1.4888710e-06 2.9483289e-03 0.0000000e+00 
-3.0489373e-06 2.9276372e-03 0.0000000e+00 
-4.8856409e-06 2.8847386e-03 0.0000000e+00 
1.2207546e-06 2.7788545e-03 0.0000000e+00 
6.9051691e-07 2.7035747e-03 0.0000000e+00 
-8.2613366e-07 2.6494158e-03 0.0000000e+00 
3.7270161e-06 2.6143475e-03 0.0000000e+00 
1.4937433e-06 2.6011658e-03 0.0000000e+00 
1.5378997e-06 2.6073263e-03 0.0000000e+00 
-1.2623775e-06 2.6763431e-03 0.0000000e+00 
-5.1571487e-06 2.7598850e-03 0.0000000e+00 
3.7153920e-06 2.8172543e-03 0.0000000e+00 
3.7797593e-06 2.8658193e-03 0.0000000e+00 
-2.8873390e-06 2.8934856e-03 0.0000000e+00 
-1.0649612e-06 2.9263946e-03 0.0000000e+00 
2.5324459e-06 2.9158036e-03 0.0000000e+00 
4.3732911e-07 2.8703981e-03 0.0000000e+00 
-6.7997922e-07 2.8486503e-03 0.0000000e+00 
1.0967802e-06 2.8310241e-03 0.0000000e+00 
3.3697770e-06 2.8081157e-03 0.0000000e+00 
3.0894976e-06 2.7757615e-03 0.0000000e+00 
-1.9710783e-06 2.7658683e-03 0.0000000e+00 
-5.5347755e-07 2.7712977e-03 0.0000000e+00 
-2.8857148e-06 2.7542787e-03 0.0000000e+00 