# vtk DataFile Version 4.0
vtk output
ASCII
DATASET UNSTRUCTURED_GRID
POINTS 628 float
0.0000000e+00 0.0000000e+00 0.0000000e+00 
1.0000000e+00 0.0000000e+00 0.0000000e+00 
1.0000000e+00 1.0000000e+01 0.0000000e+00 
0.0000000e+00 1.0000000e+01 0.0000000e+00 
0.0000000e+00 5.0000000e+00 0.0000000e+00 
1.0000000e+00 5.0000000e+00 0.0000000e+00 
1.4285715e-01 0.0000000e+00 0.0000000e+00 
2.8571430e-01 0.0000000e+00 0.0000000e+00 
4.2857143e-01 0.0000000e+00 0.0000000e+00 
5.7142860e-01 0.0000000e+00 0.0000000e+00 
7.1428573e-01 0.0000000e+00 0.0000000e+00 
8.5714287e-01 0.0000000e+00 0.0000000e+00 
8.5714287e-01 1.0000000e+01 0.0000000e+00 
7.1428573e-01 1.0000000e+01 0.0000000e+00 
5.7142860e-01 1.0000000e+01 0.0000000e+00 
4.2857143e-01 1.0000000e+01 0.0000000e+00 
2.8571430e-01 1.0000000e+01 0.0000000e+00 
1.4285715e-01 1.0000000e+01 0.0000000e+00 
1.4285715e-01 5.0000000e+00 0.0000000e+00 
2.8571430e-01 5.0000000e+00 0.0000000e+00 
4.2857143e-01 5.0000000e+00 0.0000000e+00 
5.7142860e-01 5.0000000e+00 0.0000000e+00 
7.1428573e-01 5.0000000e+00 0.0000000e+00 
8.5714287e-01 5.0000000e+00 0.0000000e+00 
0.0000000e+00 4.8529410e+00 0.0000000e+00 
0.0000000e+00 4.7058825e+00 0.0000000e+00 
0.0000000e+00 4.5588236e+00 0.0000000e+00 
0.0000000e+00 4.4117646e+00 0.0000000e+00 
0.0000000e+00 4.2647057e+00 0.0000000e+00 
0.0000000e+00 4.1176472e+00 0.0000000e+00 
0.0000000e+00 3.9705882e+00 0.0000000e+00 
0.0000000e+00 3.8235295e+00 0.0000000e+00 
0.0000000e+00 3.6764705e+00 0.0000000e+00 
0.0000000e+00 3.5294118e+00 0.0000000e+00 
0.0000000e+00 3.3823528e+00 0.0000000e+00 
0.0000000e+00 3.2352941e+00 0.0000000e+00 
0.0000000e+00 3.0882354e+00 0.0000000e+00 
0.0000000e+00 2.9411764e+00 0.0000000e+00 
0.0000000e+00 2.7941177e+00 0.0000000e+00 
0.0000000e+00 2.6470587e+00 0.0000000e+00 
0.0000000e+00 2.5000000e+00 0.0000000e+00 
0.0000000e+00 2.3529413e+00 0.0000000e+00 
0.0000000e+00 2.2058823e+00 0.0000000e+00 
0.0000000e+00 2.0588236e+00 0.0000000e+00 
0.0000000e+00 1.9117647e+00 0.0000000e+00 
0.0000000e+00 1.7647059e+00 0.0000000e+00 
0.0000000e+00 1.6176471e+00 0.0000000e+00 
0.0000000e+00 1.4705882e+00 0.0000000e+00 
0.0000000e+00 1.3235294e+00 0.0000000e+00 
0.0000000e+00 1.1764706e+00 0.0000000e+00 
0.0000000e+00 1.0294118e+00 0.0000000e+00 
0.0000000e+00 8.8235295e-01 0.0000000e+00 
0.0000000e+00 7.3529410e-01 0.0000000e+00 
0.0000000e+00 5.8823532e-01 0.0000000e+00 
0.0000000e+00 4.4117647e-01 0.0000000e+00 
0.0000000e+00 2.9411766e-01 0.0000000e+00 
0.0000000e+00 1.4705883e-01 0.0000000e+00 
1.0000000e+00 1.4705883e-01 0.0000000e+00 
1.0000000e+00 2.9411766e-01 0.0000000e+00 
1.0000000e+00 4.4117647e-01 0.0000000e+00 
1.0000000e+00 5.8823532e-01 0.0000000e+00 
1.0000000e+00 7.3529410e-01 0.0000000e+00 
1.0000000e+00 8.8235295e-01 0.0000000e+00 
1.0000000e+00 1.0294118e+00 0.0000000e+00 
1.0000000e+00 1.1764706e+00 0.0000000e+00 
1.0000000e+00 1.3235294e+00 0.0000000e+00 
1.0000000e+00 1.4705882e+00 0.0000000e+00 
1.0000000e+00 1.6176471e+00 0.0000000e+00 
1.0000000e+00 1.7647059e+00 0.0000000e+00 
1.0000000e+00 1.9117647e+00 0.0000000e+00 
1.0000000e+00 2.0588236e+00 0.0000000e+00 
1.0000000e+00 2.2058823e+00 0.0000000e+00 
1.0000000e+00 2.3529413e+00 0.0000000e+00 
1.0000000e+00 2.5000000e+00 0.0000000e+00 
1.0000000e+00 2.6470587e+00 0.0000000e+00 
1.0000000e+00 2.7941177e+00 0.0000000e+00 
1.0000000e+00 2.9411764e+00 0.0000000e+00 
1.0000000e+00 3.0882354e+00 0.0000000e+00 
1.0000000e+00 3.2352941e+00 0.0000000e+00 
1.0000000e+00 3.3823528e+00 0.0000000e+00 
1.0000000e+00 3.5294118e+00 0.0000000e+00 
1.0000000e+00 3.6764705e+00 0.0000000e+00 
1.0000000e+00 3.8235295e+00 0.0000000e+00 
1.0000000e+00 3.9705882e+00 0.0000000e+00 
1.0000000e+00 4.1176472e+00 0.0000000e+00 
1.0000000e+00 4.2647057e+00 0.0000000e+00 
1.0000000e+00 4.4117646e+00 0.0000000e+00 
1.0000000e+00 4.5588236e+00 0.0000000e+00 
1.0000000e+00 4.7058825e+00 0.0000000e+00 
1.0000000e+00 4.8529410e+00 0.0000000e+00 
0.0000000e+00 9.8529415e+00 0.0000000e+00 
0.0000000e+00 9.7058821e+00 0.0000000e+00 
0.0000000e+00 9.5588236e+00 0.0000000e+00 
0.0000000e+00 9.4117651e+00 0.0000000e+00 
0.0000000e+00 9.2647057e+00 0.0000000e+00 
0.0000000e+00 9.1176472e+00 0.0000000e+00 
0.0000000e+00 8.9705887e+00 0.0000000e+00 
0.0000000e+00 8.8235292e+00 0.0000000e+00 
0.0000000e+00 8.6764708e+00 0.0000000e+00 
0.0000000e+00 8.5294113e+00 0.0000000e+00 
0.0000000e+00 8.3823528e+00 0.0000000e+00 
0.0000000e+00 8.2352943e+00 0.0000000e+00 
0.0000000e+00 8.0882349e+00 0.0000000e+00 
0.0000000e+00 7.9411764e+00 0.0000000e+00 
0.0000000e+00 7.7941175e+00 0.0000000e+00 
0.0000000e+00 7.6470590e+00 0.0000000e+00 
0.0000000e+00 7.5000000e+00 0.0000000e+00 
0.0000000e+00 7.3529410e+00 0.0000000e+00 
0.0000000e+00 7.2058825e+00 0.0000000e+00 
0.0000000e+00 7.0588236e+00 0.0000000e+00 
0.0000000e+00 6.9117646e+00 0.0000000e+00 
0.0000000e+00 6.7647057e+00 0.0000000e+00 
0.0000000e+00 6.6176472e+00 0.0000000e+00 
0.0000000e+00 6.4705882e+00 0.0000000e+00 
0.0000000e+00 6.3235292e+00 0.0000000e+00 
0.0000000e+00 6.1764708e+00 0.0000000e+00 
0.0000000e+00 6.0294118e+00 0.0000000e+00 
0.0000000e+00 5.8823528e+00 0.0000000e+00 
0.0000000e+00 5.7352943e+00 0.0000000e+00 
0.0000000e+00 5.5882354e+00 0.0000000e+00 
0.0000000e+00 5.4411764e+00 0.0000000e+00 
0.0000000e+00 5.2941175e+00 0.0000000e+00 
0.0000000e+00 5.1470590e+00 0.0000000e+00 
1.0000000e+00 5.1470590e+00 0.0000000e+00 
1.0000000e+00 5.2941175e+00 0.0000000e+00 
1.0000000e+00 5.4411764e+00 0.0000000e+00 
1.0000000e+00 5.5882354e+00 0.0000000e+00 
1.0000000e+00 5.7352943e+00 0.0000000e+00 
1.0000000e+00 5.8823528e+00 0.0000000e+00 
1.0000000e+00 6.0294118e+00 0.0000000e+00 
1.0000000e+00 6.1764708e+00 0.0000000e+00 
1.0000000e+00 6.3235292e+00 0.0000000e+00 
1.0000000e+00 6.4705882e+00 0.0000000e+00 
1.0000000e+00 6.6176472e+00 0.0000000e+00 
1.0000000e+00 6.7647057e+00 0.0000000e+00 
1.0000000e+00 6.9117646e+00 0.0000000e+00 
1.0000000e+00 7.0588236e+00 0.0000000e+00 
1.0000000e+00 7.2058825e+00 0.0000000e+00 
1.0000000e+00 7.3529410e+00 0.0000000e+00 
1.0000000e+00 7.5000000e+00 0.0000000e+00 
1.0000000e+00 7.6470590e+00 0.0000000e+00 
1.0000000e+00 7.7941175e+00 0.0000000e+00 
1.0000000e+00 7.9411764e+00 0.0000000e+00 
1.0000000e+00 8.0882349e+00 0.0000000e+00 
1.0000000e+00 8.2352943e+00 0.0000000e+00 
1.0000000e+00 8.3823528e+00 0.0000000e+00 
1.0000000e+00 8.5294113e+00 0.0000000e+00 
1.0000000e+00 8.6764708e+00 0.0000000e+00 
1.0000000e+00 8.8235292e+00 0.0000000e+00 
1.0000000e+00 8.9705887e+00 0.0000000e+00 
1.0000000e+00 9.1176472e+00 0.0000000e+00 
1.0000000e+00 9.2647057e+00 0.0000000e+00 
1.0000000e+00 9.4117651e+00 0.0000000e+00 
1.0000000e+00 9.5588236e+00 0.0000000e+00 
1.0000000e+00 9.7058821e+00 0.0000000e+00 
1.0000000e+00 9.8529415e+00 0.0000000e+00 
5.0212586e-01 4.8703580e+00 0.0000000e+00 
5.1041055e-01 1.3732977e-01 0.0000000e+00 
1.3055173e-01 6.6499180e-01 0.0000000e+00 
8.7327349e-01 4.3372407e+00 0.0000000e+00 
8.7331611e-01 3.8958969e+00 0.0000000e+00 
8.7347627e-01 3.4562511e+00 0.0000000e+00 
8.7357801e-01 2.8680170e+00 0.0000000e+00 
1.2843554e-01 2.1327813e+00 0.0000000e+00 
1.2975387e-01 1.5449892e+00 0.0000000e+00 
1.3308091e-01 1.1039938e+00 0.0000000e+00 
1.2937543e-01 2.5737903e+00 0.0000000e+00 
1.2735668e-01 3.1617646e+00 0.0000000e+00 
8.7375563e-01 1.8386052e+00 0.0000000e+00 
8.7355548e-01 2.2778318e+00 0.0000000e+00 
1.2753446e-01 4.1915216e+00 0.0000000e+00 
8.7915283e-01 8.0759794e-01 0.0000000e+00 
8.8115031e-01 1.2498868e+00 0.0000000e+00 
1.2781374e-01 3.7501886e+00 0.0000000e+00 
8.7352717e-01 3.1621344e+00 0.0000000e+00 
1.2961270e-01 1.8389882e+00 0.0000000e+00 
1.2731366e-01 4.4857054e+00 0.0000000e+00 
1.2885660e-01 2.8684020e+00 0.0000000e+00 
8.7380636e-01 1.5444875e+00 0.0000000e+00 
8.7362880e-01 2.5738993e+00 0.0000000e+00 
1.2735668e-01 3.4558823e+00 0.0000000e+00 
8.7264335e-01 5.1470590e-01 0.0000000e+00 
8.7611687e-01 4.6317782e+00 0.0000000e+00 
1.3446054e-01 3.7013325e-01 0.0000000e+00 
1.2296320e-01 4.7760825e+00 0.0000000e+00 
8.8210768e-01 2.2118840e-01 0.0000000e+00 
2.1798968e-01 1.0548568e-01 0.0000000e+00 
7.7656764e-01 4.8704844e+00 0.0000000e+00 
1.2667844e-01 4.6331582e+00 0.0000000e+00 
2.5353336e-01 4.5619426e+00 0.0000000e+00 
2.5451174e-01 4.4132285e+00 0.0000000e+00 
3.8040194e-01 4.4881525e+00 0.0000000e+00 
3.8161713e-01 4.3403850e+00 0.0000000e+00 
5.0654775e-01 4.4141955e+00 0.0000000e+00 
5.0629890e-01 4.2659345e+00 0.0000000e+00 
5.0658631e-01 4.5616083e+00 0.0000000e+00 
3.8184282e-01 4.1932206e+00 0.0000000e+00 
5.0831819e-01 4.1188259e+00 0.0000000e+00 
3.8249290e-01 4.0462651e+00 0.0000000e+00 
5.0818664e-01 3.9732957e+00 0.0000000e+00 
3.8265404e-01 3.8991868e+00 0.0000000e+00 
5.0769192e-01 3.8249388e+00 0.0000000e+00 
3.8307732e-01 3.7517705e+00 0.0000000e+00 
5.0990808e-01 3.6776419e+00 0.0000000e+00 
3.8416636e-01 3.6049941e+00 0.0000000e+00 
5.1177651e-01 3.5322094e+00 0.0000000e+00 
3.8460994e-01 3.4584429e+00 0.0000000e+00 
5.1256055e-01 3.3855147e+00 0.0000000e+00 
3.8520575e-01 3.3115354e+00 0.0000000e+00 
5.1318693e-01 3.2385471e+00 0.0000000e+00 
3.8561273e-01 3.1645203e+00 0.0000000e+00 
5.1375473e-01 3.0915136e+00 0.0000000e+00 
3.8616878e-01 3.0174749e+00 0.0000000e+00 
5.1433694e-01 2.9444630e+00 0.0000000e+00 
3.8656160e-01 2.8704205e+00 0.0000000e+00 
5.1489413e-01 2.7974076e+00 0.0000000e+00 
3.8711417e-01 2.7233641e+00 0.0000000e+00 
5.1547360e-01 2.6503508e+00 0.0000000e+00 
3.8750717e-01 2.5763063e+00 0.0000000e+00 
5.1603019e-01 2.5032935e+00 0.0000000e+00 
3.8805979e-01 2.4292488e+00 0.0000000e+00 
5.1422137e-01 2.3562264e+00 0.0000000e+00 
3.8765049e-01 2.2821872e+00 0.0000000e+00 
5.1307547e-01 2.2071202e+00 0.0000000e+00 
3.8778570e-01 2.1347876e+00 0.0000000e+00 
5.1568961e-01 2.0596735e+00 0.0000000e+00 
3.9013749e-01 1.9876142e+00 0.0000000e+00 
5.1808232e-01 1.9145784e+00 0.0000000e+00 
3.8994926e-01 1.8408588e+00 0.0000000e+00 
5.1884413e-01 1.7678982e+00 0.0000000e+00 
[...]
POINT_DATA 628
FIELD FieldData 1
VELOCITY 3 628  float
0.0000000e+00 0.0000000e+00 0.0000000e+00 
0.0000000e+00 0.0000000e+00 0.0000000e+00 
0.0000000e+00 -2.7718642e-03 0.0000000e+00 
0.0000000e+00 -2.7910636e-03 0.0000000e+00 
0.0000000e+00 -1.5481036e-04 0.0000000e+00 
0.0000000e+00 -1.5449233e-04 0.0000000e+00 
0.0000000e+00 0.0000000e+00 0.0000000e+00 
0.0000000e+00 0.0000000e+00 0.0000000e+00 
0.0000000e+00 0.0000000e+00 0.0000000e+00 
0.0000000e+00 0.0000000e+00 0.0000000e+00 
0.0000000e+00 0.0000000e+00 0.0000000e+00 
0.0000000e+00 0.0000000e+00 0.0000000e+00 
-1.7496824e-06 -2.7660467e-03 0.0000000e+00 
-9.4907828e-06 -2.7832200e-03 0.0000000e+00 
7.5452890e-06 -2.7822878e-03 0.0000000e+00 
-7.0498209e-06 -2.7873132e-03 0.0000000e+00 
-3.7423222e-06 -2.7662178e-03 0.0000000e+00 
3.2021080e-06 -2.7899868e-03 0.0000000e+00 
1.3420695e-06 -1.5728209e-04 0.0000000e+00 
1.3593217e-06 -1.5517567e-04 0.0000000e+00 
1.7502404e-07 -1.5211254e-04 0.0000000e+00 
2.2659642e-06 -1.5608945e-04 0.0000000e+00 
-6.6445455e-07 -1.5413934e-04 0.0000000e+00 
-7.5351932e-07 -1.5518517e-04 0.0000000e+00 
0.0000000e+00 1.1986231e-04 0.0000000e+00 
0.0000000e+00 3.5680539e-04 0.0000000e+00 
0.0000000e+00 5.4011564e-04 0.0000000e+00 
0.0000000e+00 6.7431096e-04 0.0000000e+00 
0.0000000e+00 7.2465179e-04 0.0000000e+00 
0.0000000e+00 7.6316163e-04 0.0000000e+00 
0.0000000e+00 7.8245404e-04 0.0000000e+00 
0.0000000e+00 7.0034032e-04 0.0000000e+00 
0.0000000e+00 4.9922330e-04 0.0000000e+00 
0.0000000e+00 2.8057577e-04 0.0000000e+00 
0.0000000e+00 1.1800452e-04 0.0000000e+00 
0.0000000e+00 1.8804480e-05 0.0000000e+00 
0.0000000e+00 3.4737695e-05 0.0000000e+00 
0.0000000e+00 2.2901695e-05 0.0000000e+00 
0.0000000e+00 -5.3642376e-05 0.0000000e+00 
0.0000000e+00 -1.5441357e-04 0.0000000e+00 
0.0000000e+00 -2.2741751e-04 0.0000000e+00 
0.0000000e+00 -2.9672473e-04 0.0000000e+00 
0.0000000e+00 -3.2032302e-04 0.0000000e+00 
0.0000000e+00 -3.1378164e-04 0.0000000e+00 
0.0000000e+00 -3.7091994e-04 0.0000000e+00 
0.0000000e+00 -3.6358571e-04 0.0000000e+00 
0.0000000e+00 -3.1202685e-04 0.0000000e+00 
0.0000000e+00 -2.2810852e-04 0.0000000e+00 
0.0000000e+00 -6.2248095e-05 0.0000000e+00 
0.0000000e+00 9.7375188e-05 0.0000000e+00 
0.0000000e+00 2.4895271e-04 0.0000000e+00 
0.0000000e+00 3.8575346e-04 0.0000000e+00 
0.0000000e+00 4.6715161e-04 0.0000000e+00 
0.0000000e+00 4.8947573e-04 0.0000000e+00 
0.0000000e+00 4.3747295e-04 0.0000000e+00 
0.0000000e+00 3.3135904e-04 0.0000000e+00 
0.0000000e+00 1.7380637e-04 0.0000000e+00 
0.0000000e+00 1.7463999e-04 0.0000000e+00 
0.0000000e+00 3.2816065e-04 0.0000000e+00 
0.0000000e+00 4.4198090e-04 0.0000000e+00 
0.0000000e+00 4.9122208e-04 0.0000000e+00 
0.0000000e+00 4.6840037e-04 0.0000000e+00 
0.0000000e+00 3.9008635e-04 0.0000000e+00 
0.0000000e+00 2.4917070e-04 0.0000000e+00 
0.0000000e+00 9.5025905e-05 0.0000000e+00 
0.0000000e+00 -6.2993109e-05 0.0000000e+00 
0.0000000e+00 -2.2943312e-04 0.0000000e+00 
0.0000000e+00 -3.0888678e-04 0.0000000e+00 
0.0000000e+00 -3.6341877e-04 0.0000000e+00 
0.0000000e+00 -3.6733088e-04 0.0000000e+00 
0.0000000e+00 -3.1992525e-04 0.0000000e+00 
0.0000000e+00 -3.2097538e-04 0.0000000e+00 
0.0000000e+00 -2.9456394e-04 0.0000000e+00 
0.0000000e+00 -2.3130640e-04 0.0000000e+00 
0.0000000e+00 -1.4890489e-04 0.0000000e+00 
0.0000000e+00 -4.9233484e-05 0.0000000e+00 
0.0000000e+00 2.0694468e-05 0.0000000e+00 
0.0000000e+00 3.0232661e-05 0.0000000e+00 
0.0000000e+00 2.0934756e-05 0.0000000e+00 
0.0000000e+00 1.2023832e-04 0.0000000e+00 
0.0000000e+00 2.8031846e-04 0.0000000e+00 
0.0000000e+00 5.0547393e-04 0.0000000e+00 
0.0000000e+00 6.9884642e-04 0.0000000e+00 
0.0000000e+00 7.8034570e-04 0.0000000e+00 
0.0000000e+00 7.5952412e-04 0.0000000e+00 
0.0000000e+00 7.2529266e-04 0.0000000e+00 
0.0000000e+00 6.7303702e-04 0.0000000e+00 
0.0000000e+00 5.3554977e-04 0.0000000e+00 
0.0000000e+00 3.6185369e-04 0.0000000e+00 
0.0000000e+00 1.1579962e-04 0.0000000e+00 
0.0000000e+00 -2.8023981e-03 0.0000000e+00 
0.0000000e+00 -2.8178114e-03 0.0000000e+00 
0.0000000e+00 -2.7896045e-03 0.0000000e+00 
0.0000000e+00 -2.7528421e-03 0.0000000e+00 
0.0000000e+00 -2.7587109e-03 0.0000000e+00 
0.0000000e+00 -2.7856661e-03 0.0000000e+00 
0.0000000e+00 -2.7663431e-03 0.0000000e+00 
0.0000000e+00 -2.7200100e-03 0.0000000e+00 
0.0000000e+00 -2.7185464e-03 0.0000000e+00 
0.0000000e+00 -2.7585113e-03 0.0000000e+00 
0.0000000e+00 -2.7781983e-03 0.0000000e+00 
0.0000000e+00 -2.7370220e-03 0.0000000e+00 
0.0000000e+00 -2.7236990e-03 0.0000000e+00 
0.0000000e+00 -2.7287344e-03 0.0000000e+00 
0.0000000e+00 -2.6730623e-03 0.0000000e+00 
0.0000000e+00 -2.5415896e-03 0.0000000e+00 
0.0000000e+00 -2.4135336e-03 0.0000000e+00 
0.0000000e+00 -2.3808097e-03 0.0000000e+00 
0.0000000e+00 -2.3874815e-03 0.0000000e+00 
0.0000000e+00 -2.3772288e-03 0.0000000e+00 
0.0000000e+00 -2.3671540e-03 0.0000000e+00 
0.0000000e+00 -2.3330927e-03 0.0000000e+00 
0.0000000e+00 -2.2236370e-03 0.0000000e+00 
0.0000000e+00 -2.0266997e-03 0.0000000e+00 
0.0000000e+00 -1.7709406e-03 0.0000000e+00 
0.0000000e+00 -1.4882451e-03 0.0000000e+00 
0.0000000e+00 -1.2504127e-03 0.0000000e+00 
0.0000000e+00 -1.1138833e-03 0.0000000e+00 
0.0000000e+00 -1.0721593e-03 0.0000000e+00 
0.0000000e+00 -9.8344521e-04 0.0000000e+00 
0.0000000e+00 -8.2930346e-04 0.0000000e+00 
0.0000000e+00 -6.2822772e-04 0.0000000e+00 
0.0000000e+00 -4.2683180e-04 0.0000000e+00 
0.0000000e+00 -4.2648110e-04 0.0000000e+00 
0.0000000e+00 -6.2172534e-04 0.0000000e+00 
0.0000000e+00 -8.3165994e-04 0.0000000e+00 
0.0000000e+00 -9.8434940e-04 0.0000000e+00 
0.0000000e+00 -1.0811492e-03 0.0000000e+00 
0.0000000e+00 -1.1106202e-03 0.0000000e+00 
0.0000000e+00 -1.2577198e-03 0.0000000e+00 
0.0000000e+00 -1.4862302e-03 0.0000000e+00 
0.0000000e+00 -1.7716186e-03 0.0000000e+00 
0.0000000e+00 -2.0192505e-03 0.0000000e+00 
0.0000000e+00 -2.2307152e-03 0.0000000e+00 
0.0000000e+00 -2.3279374e-03 0.0000000e+00 
0.0000000e+00 -2.3639298e-03 0.0000000e+00 
0.0000000e+00 -2.3748425e-03 0.0000000e+00 
0.0000000e+00 -2.3843993e-03 0.0000000e+00 
0.0000000e+00 -2.3820978e-03 0.0000000e+00 
0.0000000e+00 -2.4130996e-03 0.0000000e+00 
0.0000000e+00 -2.5463852e-03 0.0000000e+00 
0.0000000e+00 -2.6735826e-03 0.0000000e+00 
0.0000000e+00 -2.7311561e-03 0.0000000e+00 
0.0000000e+00 -2.7156009e-03 0.0000000e+00 
0.0000000e+00 -2.7380385e-03 0.0000000e+00 
0.0000000e+00 -2.7758111e-03 0.0000000e+00 
0.0000000e+00 -2.7612029e-03 0.0000000e+00 
0.0000000e+00 -2.7165979e-03 0.0000000e+00 
0.0000000e+00 -2.7149552e-03 0.0000000e+00 
0.0000000e+00 -2.7700404e-03 0.0000000e+00 
0.0000000e+00 -2.7835143e-03 0.0000000e+00 
0.0000000e+00 -2.7608667e-03 0.0000000e+00 
0.0000000e+00 -2.7554398e-03 0.0000000e+00 
0.0000000e+00 -2.7831085e-03 0.0000000e+00 
0.0000000e+00 -2.8186182e-03 0.0000000e+00 
0.0000000e+00 -2.7895600e-03 0.0000000e+00 
-3.5187529e-06 8.8063432e-05 0.0000000e+00 
-8.4716100e-07 1.6085782e-04 0.0000000e+00 
2.8066543e-06 4.8864749e-04 0.0000000e+00 
7.6722000e-07 7.0856209e-04 0.0000000e+00 
-2.5431705e-06 7.5465115e-04 0.0000000e+00 
5.5354320e-07 1.9580399e-04 0.0000000e+00 
3.2827274e-06 -1.1097821e-05 0.0000000e+00 
-2.9692524e-06 -3.0989622e-04 0.0000000e+00 
-7.3050479e-08 -2.8222401e-04 0.0000000e+00 
-1.3939826e-06 1.6971804e-04 0.0000000e+00 
4.8361187e-07 -1.9872283e-04 0.0000000e+00 
1.9640795e-06 2.0096415e-05 0.0000000e+00 
9.1028134e-08 -3.7705628e-04 0.0000000e+00 
-2.0133457e-06 -3.1319217e-04 0.0000000e+00 
-2.5191332e-06 7.3585374e-04 0.0000000e+00 
-1.2410430e-06 4.3843550e-04 0.0000000e+00 
1.9201073e-06 1.8843304e-05 0.0000000e+00 
-3.6045071e-06 6.1282725e-04 0.0000000e+00 
6.6999780e-07 1.8772171e-05 0.0000000e+00 
1.4650158e-06 -3.7793681e-04 0.0000000e+00 
1.7066041e-06 6.1499292e-04 0.0000000e+00 
-6.8733112e-07 -9.2993669e-06 0.0000000e+00 
1.3203087e-06 -2.8025455e-04 0.0000000e+00 
-1.8246396e-06 -2.0104527e-04 0.0000000e+00 
5.9152069e-07 1.9734306e-04 0.0000000e+00 
2.0604118e-06 4.7527198e-04 0.0000000e+00 
6.0025587e-07 4.5881080e-04 0.0000000e+00 
2.9112746e-07 3.9444127e-04 0.0000000e+00 
-1.2819004e-06 2.4841944e-04 0.0000000e+00 
1.4067224e-06 2.5207482e-04 0.0000000e+00 
4.0496604e-07 1.2120749e-04 0.0000000e+00 
-1.2182699e-06 8.9082947e-05 0.0000000e+00 
4.3311533e-07 4.5423250e-04 0.0000000e+00 
2.0447119e-06 5.3767103e-04 0.0000000e+00 
2.0563559e-06 6.7009736e-04 0.0000000e+00 
2.9700180e-07 6.1066501e-04 0.0000000e+00 
1.0545598e-06 7.0540688e-04 0.0000000e+00 
-1.7666633e-06 6.6998613e-04 0.0000000e+00 
3.5622443e-07 7.2329975e-04 0.0000000e+00 
-2.4314025e-07 5.3458690e-04 0.0000000e+00 
1.1768368e-07 7.3627586e-04 0.0000000e+00 
-2.3087428e-06 7.5948838e-04 0.0000000e+00 
-4.0118289e-06 7.8263710e-04 0.0000000e+00 
1.0663770e-06 7.8220706e-04 0.0000000e+00 
1.5613658e-06 7.5946288e-04 0.0000000e+00 
4.6611970e-07 7.0007262e-04 0.0000000e+00 
9.7053032e-07 6.1520259e-04 0.0000000e+00 
4.8524987e-07 5.0485943e-04 0.0000000e+00 
1.2093243e-06 3.8743447e-04 0.0000000e+00 
-5.6054610e-08 2.8731322e-04 0.0000000e+00 
-2.0859993e-06 2.0139923e-04 0.0000000e+00 
-1.4987598e-06 1.2625942e-04 0.0000000e+00 
-2.6316932e-06 6.0141734e-05 0.0000000e+00 
2.8685987e-08 2.3545208e-05 0.0000000e+00 
1.8622335e-06 2.2418712e-05 0.0000000e+00 
-6.4117108e-07 3.3664321e-05 0.0000000e+00 
5.8718740e-07 3.6648897e-05 0.0000000e+00 
1.4108145e-06 2.0881567e-05 0.0000000e+00 
1.7502408e-06 -1.0763183e-05 0.0000000e+00 
-1.2656044e-07 -5.1864747e-05 0.0000000e+00 
-2.1997057e-06 -1.0159083e-04 0.0000000e+00 
1.1676814e-06 -1.5549679e-04 0.0000000e+00 
-8.5965945e-07 -1.9893526e-04 0.0000000e+00 
8.6184947e-08 -2.3369696e-04 0.0000000e+00 
1.1987497e-08 -2.6182955e-04 0.0000000e+00 
2.6603809e-07 -2.9112070e-04 0.0000000e+00 
8.7700340e-07 -3.1766729e-04 0.0000000e+00 
-1.3363688e-06 -3.1874361e-04 0.0000000e+00 
-1.6805293e-06 -3.1404782e-04 0.0000000e+00 
-1.6939493e-06 -3.1217304e-04 0.0000000e+00 
2.7466522e-06 -3.3790219e-04 0.0000000e+00 
4.2768038e-06 -3.6502403e-04 0.0000000e+00 
-3.3976789e-07 -3.7540187e-04 0.0000000e+00 
-1.0060247e-06 -3.6453406e-04 0.0000000e+00 
-9.4237976e-07 -3.3520188e-04 0.0000000e+00 
3.4605273e-06 -3.1149163e-04 0.0000000e+00 
1.1448526e-06 -2.8087691e-04 0.0000000e+00 
-2.1381456e-06 -2.3106668e-04 0.0000000e+00 
-2.9311234e-06 -1.5765983e-04 0.0000000e+00 
7.3837214e-07 -6.7352048e-05 0.0000000e+00 
1.9714262e-06 1.6027880e-05 0.0000000e+00 
5.0180313e-07 9.3767521e-05 0.0000000e+00 
-9.6791348e-07 1.7104359e-04 0.0000000e+00 
1.4384168e-06 2.4845824e-04 0.0000000e+00 
1.2233894e-06 3.2717839e-04 0.0000000e+00 
-2.4974293e-06 3.9105184e-04 0.0000000e+00 
-2.4854314e-06 4.3921635e-04 0.0000000e+00 
-4.9200344e-07 4.7186477e-04 0.0000000e+00 
6.3405048e-07 4.8963982e-04 0.0000000e+00 
-7.6469695e-07 4.9209880e-04 0.0000000e+00 
-1.9341707e-07 4.7505682e-04 0.0000000e+00 
1.1533139e-06 4.4265258e-04 0.0000000e+00 
1.1680447e-06 3.9532522e-04 0.0000000e+00 
9.9112845e-07 7.8321208e-04 0.0000000e+00 
-2.0205506e-07 6.1211787e-04 0.0000000e+00 
-4.7941546e-07 3.8868666e-04 0.0000000e+00 
6.6815971e-07 -3.3224601e-04 0.0000000e+00 
-2.0523057e-06 4.5583077e-04 0.0000000e+00 
-4.7845242e-07 6.0315939e-05 0.0000000e+00 
-3.4126782e-07 3.6264330e-05 0.0000000e+00 
1.1107259e-06 3.2154279e-04 0.0000000e+00 
7.0006945e-07 -9.9918798e-05 0.0000000e+00 
-6.1685967e-08 -2.6118741e-04 0.0000000e+00 
6.2975278e-07 -3.3581961e-04 0.0000000e+00 
-1.0948896e-06 -1.5497650e-04 0.0000000e+00 
1.3458186e-06 4.8666046e-04 0.0000000e+00 
-1.0674980e-06 3.9207406e-04 0.0000000e+00 
-1.4793427e-06 -7.0489485e-05 0.0000000e+00 
3.6853867e-06 -2.9457422e-04 0.0000000e+00 
1.3114271e-06 7.8618160e-04 0.0000000e+00 
7.9068954e-08 3.3048290e-04 0.0000000e+00 
7.8426808e-07 3.9216349e-04 0.0000000e+00 
-6.0320565e-07 2.5903099e-04 0.0000000e+00 
3.2629680e-06 3.5210964e-04 0.0000000e+00 
2.1526910e-06 2.4451790e-04 0.0000000e+00 
-2.0040027e-06 2.3598348e-04 0.0000000e+00 
-8.9340108e-07 4.4432833e-04 0.0000000e+00 
-1.7241020e-07 3.4160679e-04 0.0000000e+00 
2.6823400e-07 -3.1281149e-04 0.0000000e+00 
9.1519416e-07 -3.6778473e-04 0.0000000e+00 
-1.7441520e-06 -1.5602224e-04 0.0000000e+00 
-4.6927860e-07 2.4200275e-05 0.0000000e+00 
1.3299896e-06 2.1835693e-05 0.0000000e+00 
-9.0747415e-07 2.8743120e-04 0.0000000e+00 
2.8511452e-06 4.4930942e-04 0.0000000e+00 
-5.9323008e-07 4.7467090e-04 0.0000000e+00 
1.6227158e-06 4.9260654e-04 0.0000000e+00 
-1.2644837e-06 3.9028446e-04 0.0000000e+00 
-1.5489727e-06 4.7654627e-04 0.0000000e+00 
-3.6525941e-07 7.0576108e-04 0.0000000e+00 
-1.0899836e-06 6.1333401e-04 0.0000000e+00 
6.7120811e-07 4.8810671e-04 0.0000000e+00 
-3.2777880e-06 4.3736177e-04 0.0000000e+00 
-2.1678520e-06 2.6847093e-04 0.0000000e+00 
2.5443899e-07 2.5086410e-04 0.0000000e+00 
-1.9743557e-06 9.5384275e-05 0.0000000e+00 
-2.5274392e-06 1.6672881e-05 0.0000000e+00 
-1.2231577e-06 1.7141966e-04 0.0000000e+00 
-1.5069654e-06 2.5359972e-04 0.0000000e+00 
7.1516507e-07 2.0478139e-05 0.0000000e+00 
9.7061923e-07 -3.1478930e-04 0.0000000e+00 
-8.5544855e-07 -3.2328867e-04 0.0000000e+00 
-9.5564417e-07 -3.3854763e-04 0.0000000e+00 
2.9431166e-07 -1.0587217e-04 0.0000000e+00 
3.0798074e-07 -2.3264653e-04 0.0000000e+00 
1.1744542e-06 -2.6164294e-04 0.0000000e+00 
-3.0521358e-06 3.8355420e-04 0.0000000e+00 
-3.4380287e-07 1.2495741e-04 0.0000000e+00 
3.3106062e-06 5.6299425e-05 0.0000000e+00 
1.2721927e-06 3.4434830e-05 0.0000000e+00 
-2.7795381e-06 3.9616330e-05 0.0000000e+00 
-1.1157609e-06 -4.9153979e-05 0.0000000e+00 
2.4755363e-06 3.8567388e-05 0.0000000e+00 
2.5189786e-07 7.3492079e-04 0.0000000e+00 
-1.8527755e-06 7.2345772e-04 0.0000000e+00 
-1.7704159e-06 7.8456296e-04 0.0000000e+00 
1.9997406e-06 6.1522896e-04 0.0000000e+00 
-3.9694896e-07 6.9623557e-04 0.0000000e+00 
1.9402730e-06 3.8464621e-04 0.0000000e+00 
-1.0639942e-06 -3.3870901e-04 0.0000000e+00 
-1.3443200e-06 -3.6263716e-04 0.0000000e+00 
-6.8621256e-07 -3.3600919e-04 0.0000000e+00 
-2.1042310e-06 -2.3414390e-04 0.0000000e+00 
3.7478251e-06 7.5777690e-04 0.0000000e+00 
1.2513796e-06 6.9864804e-04 0.0000000e+00 
3.7403847e-06 -2.6361426e-04 0.0000000e+00 
-4.4330513e-06 6.0512913e-05 0.0000000e+00 
-1.1497884e-06 4.3686695e-04 0.0000000e+00 
-1.0174955e-06 3.2408722e-04 0.0000000e+00 
-1.7928936e-06 -3.3591411e-04 0.0000000e+00 
-5.6602357e-07 -1.0265996e-04 0.0000000e+00 
1.9337813e-07 -1.5618502e-04 0.0000000e+00 
1.7735072e-06 -2.8164170e-04 0.0000000e+00 
-1.9297775e-06 -3.1647910e-04 0.0000000e+00 
-1.9972661e-06 -3.2121278e-04 0.0000000e+00 
2.3700986e-06 -3.7473076e-04 0.0000000e+00 
1.8005558e-06 -1.9838217e-04 0.0000000e+00 
2.9339296e-06 -1.1337789e-05 0.0000000e+00 
-7.3086244e-07 1.7440079e-05 0.0000000e+00 
1.1279470e-06 2.0173829e-04 0.0000000e+00 
2.9225782e-06 7.8390195e-04 0.0000000e+00 
-1.0834954e-06 7.6525210e-04 0.0000000e+00 
-8.9108244e-07 7.2055036e-04 0.0000000e+00 
-1.6071789e-06 -1.5632235e-04 0.0000000e+00 
-2.1391722e-06 5.0043996e-04 0.0000000e+00 
6.0373458e-07 -3.1646556e-04 0.0000000e+00 
2.4246896e-07 3.5177989e-04 0.0000000e+00 
2.9328287e-06 9.6522846e-05 0.0000000e+00 
-1.2785607e-07 4.7326888e-04 0.0000000e+00 
-2.9447986e-06 3.5617067e-04 0.0000000e+00 
1.7355924e-06 6.6854607e-04 0.0000000e+00 
-9.9245540e-07 2.4332893e-04 0.0000000e+00 
-5.0899837e-07 2.5456626e-04 0.0000000e+00 
-1.6232219e-06 7.8654493e-04 0.0000000e+00 
-2.3182997e-06 5.3732487e-04 0.0000000e+00 
5.7570432e-08 1.5162374e-04 0.0000000e+00 
-2.3326684e-06 7.1017438e-04 0.0000000e+00 
-1.3150614e-06 7.3603744e-04 0.0000000e+00 
-4.8407662e-07 7.6658814e-04 0.0000000e+00 
1.8391553e-07 7.5441372e-04 0.0000000e+00 
-1.2126502e-06 -2.9112492e-04 0.0000000e+00 
-5.8243603e-07 6.1290053e-04 0.0000000e+00 
8.9118311e-07 5.0520984e-04 0.0000000e+00 
1.6025473e-06 2.8535351e-04 0.0000000e+00 
-1.8346577e-06 1.2678948e-04 0.0000000e+00 
-1.4382814e-06 2.0359563e-05 0.0000000e+00 
4.6059061e-08 3.2252010e-05 0.0000000e+00 
1.2091945e-07 3.2706614e-04 0.0000000e+00 
3.9145275e-06 2.5245825e-05 0.0000000e+00 
3.5738210e-06 -4.8967060e-05 0.0000000e+00 
-1.3381878e-06 -1.5266612e-04 0.0000000e+00 
-2.7675499e-06 -3.1548200e-04 0.0000000e+00 
9.6921690e-07 -2.3482175e-04 0.0000000e+00 
-6.5773395e-07 -3.1844850e-04 0.0000000e+00 
-7.2622164e-08 -3.1623812e-04 0.0000000e+00 
7.0502074e-07 -3.6477152e-04 0.0000000e+00 
-5.9968364e-08 -3.6532813e-04 0.0000000e+00 
-2.4754340e-07 -3.1415641e-04 0.0000000e+00 
2.3713325e-07 9.6280346e-05 0.0000000e+00 
1.8301820e-06 -2.3414228e-04 0.0000000e+00 
1.2968370e-07 -6.7603120e-05 0.0000000e+00 
1.3335289e-06 3.2528242e-04 0.0000000e+00 
-2.1565743e-06 4.4345891e-04 0.0000000e+00 
3.3900635e-06 4.9127528e-04 0.0000000e+00 
5.5675304e-07 3.9054354e-04 0.0000000e+00 
-2.4969799e-07 1.7038699e-04 0.0000000e+00 
-2.4754256e-06 4.7006458e-04 0.0000000e+00 
-1.3074366e-06 1.2263331e-04 0.0000000e+00 
3.6176382e-07 1.1658506e-04 0.0000000e+00 
-2.6913111e-07 2.8924473e-05 0.0000000e+00 
-2.8079526e-07 3.0576157e-05 0.0000000e+00 
-2.6827488e-06 5.0536753e-05 0.0000000e+00 
2.5089996e-06 4.2558149e-05 0.0000000e+00 
2.1238220e-06 1.1863689e-04 0.0000000e+00 
1.0261809e-06 1.2302356e-04 0.0000000e+00 
-2.5098939e-06 2.2313390e-04 0.0000000e+00 
-6.7269771e-06 -2.7974132e-03 0.0000000e+00 
-2.8770864e-07 -4.0125707e-04 0.0000000e+00 
5.9358814e-07 -2.7482167e-03 0.0000000e+00 
-1.3459235e-06 -1.0444787e-03 0.0000000e+00 
2.7995461e-06 -2.7098088e-03 0.0000000e+00 
1.0420121e-06 -1.3556186e-03 0.0000000e+00 
-1.9334996e-06 -2.7621360e-03 0.0000000e+00 
-7.9486102e-07 -2.3494924e-03 0.0000000e+00 
-1.8446477e-06 -2.4685136e-03 0.0000000e+00 
2.5987993e-06 -2.7180861e-03 0.0000000e+00 
-1.9207198e-06 -2.3830149e-03 0.0000000e+00 
-4.4173740e-07 -1.9082036e-03 0.0000000e+00 
1.8028896e-06 -2.7723450e-03 0.0000000e+00 
1.6164904e-06 -2.7294070e-03 0.0000000e+00 
-1.5747162e-06 -1.0920814e-03 0.0000000e+00 
1.4474435e-06 -2.7407177e-03 0.0000000e+00 
2.2167087e-06 -2.7724102e-03 0.0000000e+00 
-4.9626317e-07 -2.3914850e-03 0.0000000e+00 
-4.0283048e-06 -2.7770547e-03 0.0000000e+00 
1.3032386e-06 -2.7165592e-03 0.0000000e+00 
-1.7452609e-06 -1.9079216e-03 0.0000000e+00 
5.7936381e-07 -2.2882849e-03 0.0000000e+00 
-2.4565662e-07 -9.0834388e-04 0.0000000e+00 
2.6270955e-06 -1.3538217e-03 0.0000000e+00 
-2.9452517e-06 -2.3824645e-03 0.0000000e+00 
4.9381299e-07 -2.7336341e-03 0.0000000e+00 
3.1252323e-08 -2.8129825e-03 0.0000000e+00 
3.2421713e-06 -7.2785455e-04 0.0000000e+00 
2.0581872e-06 -5.3563894e-04 0.0000000e+00 
3.2044966e-06 -2.8156950e-03 0.0000000e+00 
1.1134452e-05 -2.7927421e-03 0.0000000e+00 
1.7610852e-06 -4.0085340e-04 0.0000000e+00 
3.2115199e-07 -7.2979869e-04 0.0000000e+00 
1.0556041e-06 -8.2872564e-04 0.0000000e+00 
-3.1018951e-07 -9.7991887e-04 0.0000000e+00 
4.2589456e-08 -9.0503931e-04 0.0000000e+00 
-1.0536880e-06 -1.0416018e-03 0.0000000e+00 
-3.4430568e-07 -9.8330586e-04 0.0000000e+00 
1.3294809e-06 -1.0713735e-03 0.0000000e+00 
1.9303013e-07 -8.2745642e-04 0.0000000e+00 
3.3338882e-08 -1.0854118e-03 0.0000000e+00 
-1.1887789e-06 -1.1097395e-03 0.0000000e+00 
-6.1083347e-07 -1.1640901e-03 0.0000000e+00 
-3.5087163e-07 -1.2524768e-03 0.0000000e+00 
-2.9815485e-06 -1.3517748e-03 0.0000000e+00 
-4.9921812e-07 -1.4824850e-03 0.0000000e+00 
9.5859275e-07 -1.6293547e-03 0.0000000e+00 
-2.7808178e-06 -1.7669303e-03 0.0000000e+00 
4.8573861e-07 -1.9023677e-03 0.0000000e+00 
1.8790978e-06 -2.0217006e-03 0.0000000e+00 
2.2937930e-07 -2.1417818e-03 0.0000000e+00 
-1.0311509e-06 -2.2285355e-03 0.0000000e+00 
-4.4620978e-07 -2.2908610e-03 0.0000000e+00 
6.3194688e-07 -2.3284904e-03 0.0000000e+00 
-1.5539179e-06 -2.3506708e-03 0.0000000e+00 
-2.0275447e-06 -2.3614450e-03 0.0000000e+00 
3.7400605e-06 -2.3626336e-03 0.0000000e+00 
8.5086089e-07 -2.3748390e-03 0.0000000e+00 
3.7918608e-07 -2.3829769e-03 0.0000000e+00 
1.9930813e-07 -2.3798572e-03 0.0000000e+00 
-8.2824846e-07 -2.3794174e-03 0.0000000e+00 
1.8816321e-06 -2.3811671e-03 0.0000000e+00 