# vtk DataFile Version 4.0
vtk output
ASCII
DATASET UNSTRUCTURED_GRID
POINTS 100 float
0.0000000e+00 0.0000000e+00 0.0000000e+00 
1.0000000e+00 0.0000000e+00 0.0000000e+00 
1.0000000e+00 1.0000000e+01 0.0000000e+00 
0.0000000e+00 1.0000000e+01 0.0000000e+00 
3.3333334e-01 0.0000000e+00 0.0000000e+00 
6.6666669e-01 0.0000000e+00 0.0000000e+00 
1.0000000e+00 4.3478259e-01 0.0000000e+00 
1.0000000e+00 8.6956519e-01 0.0000000e+00 
1.0000000e+00 1.3043479e+00 0.0000000e+00 
1.0000000e+00 1.7391304e+00 0.0000000e+00 
1.0000000e+00 2.1739130e+00 0.0000000e+00 
1.0000000e+00 2.6086957e+00 0.0000000e+00 
1.0000000e+00 3.0434783e+00 0.0000000e+00 
1.0000000e+00 3.4782608e+00 0.0000000e+00 
1.0000000e+00 3.9130435e+00 0.0000000e+00 
1.0000000e+00 4.3478260e+00 0.0000000e+00 
1.0000000e+00 4.7826085e+00 0.0000000e+00 
1.0000000e+00 5.2173915e+00 0.0000000e+00 
1.0000000e+00 5.6521740e+00 0.0000000e+00 
1.0000000e+00 6.0869565e+00 0.0000000e+00 
1.0000000e+00 6.5217390e+00 0.0000000e+00 
1.0000000e+00 6.9565215e+00 0.0000000e+00 
1.0000000e+00 7.3913045e+00 0.0000000e+00 
1.0000000e+00 7.8260870e+00 0.0000000e+00 
1.0000000e+00 8.2608700e+00 0.0000000e+00 
1.0000000e+00 8.6956520e+00 0.0000000e+00 
1.0000000e+00 9.1304350e+00 0.0000000e+00 
1.0000000e+00 9.5652170e+00 0.0000000e+00 
6.6666669e-01 1.0000000e+01 0.0000000e+00 
3.3333334e-01 1.0000000e+01 0.0000000e+00 
0.0000000e+00 9.5652170e+00 0.0000000e+00 
0.0000000e+00 9.1304350e+00 0.0000000e+00 
0.0000000e+00 8.6956520e+00 0.0000000e+00 
0.0000000e+00 8.2608700e+00 0.0000000e+00 
0.0000000e+00 7.8260870e+00 0.0000000e+00 
0.0000000e+00 7.3913045e+00 0.0000000e+00 
0.0000000e+00 6.9565215e+00 0.0000000e+00 
0.0000000e+00 6.5217390e+00 0.0000000e+00 
0.0000000e+00 6.0869565e+00 0.0000000e+00 
0.0000000e+00 5.6521740e+00 0.0000000e+00 
0.0000000e+00 5.2173915e+00 0.0000000e+00 
0.0000000e+00 4.7826085e+00 0.0000000e+00 
0.0000000e+00 4.3478260e+00 0.0000000e+00 
0.0000000e+00 3.9130435e+00 0.0000000e+00 
0.0000000e+00 3.4782608e+00 0.0000000e+00 
0.0000000e+00 3.0434783e+00 0.0000000e+00 
0.0000000e+00 2.6086957e+00 0.0000000e+00 
0.0000000e+00 2.1739130e+00 0.0000000e+00 
0.0000000e+00 1.7391304e+00 0.0000000e+00 
0.0000000e+00 1.3043479e+00 0.0000000e+00 
0.0000000e+00 8.6956519e-01 0.0000000e+00 
0.0000000e+00 4.3478259e-01 0.0000000e+00 
5.1344687e-01 9.7061529e+00 0.0000000e+00 
4.8655313e-01 2.9384753e-01 0.0000000e+00 
6.6897172e-01 1.1634127e+00 0.0000000e+00 
3.3102828e-01 8.8365870e+00 0.0000000e+00 
6.2346721e-01 5.8695650e+00 0.0000000e+00 
6.6666669e-01 4.0579710e+00 0.0000000e+00 
3.7653279e-01 5.0000000e+00 0.0000000e+00 
6.2346721e-01 6.7391305e+00 0.0000000e+00 
6.2346721e-01 7.6086955e+00 0.0000000e+00 
6.2346721e-01 1.9565217e+00 0.0000000e+00 
3.7653279e-01 3.2608695e+00 0.0000000e+00 
3.7653279e-01 2.3913043e+00 0.0000000e+00 
3.7653279e-01 8.0434780e+00 0.0000000e+00 
3.7653279e-01 6.3043480e+00 0.0000000e+00 
3.7653279e-01 7.1739130e+00 0.0000000e+00 
6.2346721e-01 2.8260870e+00 0.0000000e+00 
3.6661035e-01 1.5326614e+00 0.0000000e+00 
6.3338965e-01 8.4673386e+00 0.0000000e+00 
6.6666669e-01 5.3623190e+00 0.0000000e+00 
3.4053326e-01 3.7560387e+00 0.0000000e+00 
6.1671901e-01 4.5548654e+00 0.0000000e+00 
3.5075530e-01 9.3259811e+00 0.0000000e+00 
6.4924473e-01 6.7401856e-01 0.0000000e+00 
7.3728365e-01 9.4039068e+00 0.0000000e+00 
2.6271632e-01 5.9609360e-01 0.0000000e+00 
2.5476670e-01 5.8695650e+00 0.0000000e+00 
3.1629205e-01 4.1991606e+00 0.0000000e+00 
6.8991148e-01 8.9584770e+00 0.0000000e+00 
7.2616655e-01 7.1739130e+00 0.0000000e+00 
7.2667795e-01 8.0412941e+00 0.0000000e+00 
2.6819015e-01 8.4607849e+00 0.0000000e+00 
2.6190877e-01 4.5768919e+00 0.0000000e+00 
7.3180985e-01 1.5392148e+00 0.0000000e+00 
7.3198366e-01 4.9834371e+00 0.0000000e+00 
2.7332208e-01 1.9587063e+00 0.0000000e+00 
3.1008852e-01 1.0415232e+00 0.0000000e+00 
2.7383348e-01 2.8260870e+00 0.0000000e+00 
7.2616655e-01 2.3913043e+00 0.0000000e+00 
7.4523330e-01 3.2608695e+00 0.0000000e+00 
2.7383348e-01 7.6086955e+00 0.0000000e+00 
2.7383348e-01 6.7391305e+00 0.0000000e+00 
7.2616655e-01 6.3043480e+00 0.0000000e+00 
3.2023889e-01 5.4951692e+00 0.0000000e+00 
6.8816102e-01 3.6211755e+00 0.0000000e+00 
2.1652056e-01 2.6494476e-01 0.0000000e+00 
7.8347945e-01 9.7350550e+00 0.0000000e+00 
7.6049292e-01 2.8052974e-01 0.0000000e+00 
2.3950709e-01 9.7194700e+00 0.0000000e+00 

CELLS 146 584
3 74 87 76
3 73 79 75
3 77 94 56
3 56 94 70
3 90 95 62
3 72 83 78
3 72 78 57
3 62 95 71
3 55 79 73
3 54 87 74
3 52 99 73
3 53 98 74
3 73 99 30
3 74 98 6
3 66 92 59
3 64 91 60
3 60 81 64
3 63 86 61
3 62 88 67
3 61 89 63
3 72 85 58
3 67 90 62
3 65 77 56
3 56 93 65
3 58 83 72
3 59 80 66
3 54 84 68
3 68 87 54
3 55 82 69
3 69 79 55
3 70 94 58
3 65 93 59
3 66 80 60
3 57 78 71
3 58 85 70
3 59 92 65
3 67 88 63
3 60 91 66
3 69 82 64
3 71 95 57
3 61 86 68
3 63 89 67
3 64 81 69
3 68 84 61
3 75 97 52
3 76 96 53
3 30 99 3
3 2 97 27
3 0 96 51
3 6 98 1
3 23 60 22
3 47 63 46
3 45 62 44
3 15 57 14
3 15 72 57
3 38 65 37
3 41 58 40
3 44 71 43
3 10 61 9
3 56 70 18
3 25 69 24
3 62 71 44
3 49 68 48
3 12 67 11
3 19 56 18
3 34 64 33
3 36 66 35
3 8 54 7
3 16 72 15
3 21 59 20
3 18 70 17
3 32 55 31
3 31 73 30
3 7 74 6
3 54 74 7
3 55 73 31
3 74 76 53
3 73 75 52
3 69 81 24
3 34 91 64
3 71 78 43
3 10 89 61
3 16 85 72
3 58 94 40
3 57 95 14
3 59 93 20
3 32 82 55
3 41 83 58
3 36 92 66
3 70 85 17
3 21 80 59
3 25 79 69
3 45 88 62
3 63 88 46
3 47 86 63
3 12 90 67
3 23 81 60
3 68 86 48
3 66 91 35
3 38 77 65
3 19 93 56
3 8 84 54
3 60 80 22
3 49 87 68
3 65 92 37
3 67 89 11
3 61 84 9
3 64 82 33
3 27 97 75
3 51 96 76
3 5 53 4
3 29 52 28
3 27 75 26
3 51 76 50
3 75 79 26
3 76 87 50
3 78 83 42
3 40 94 39
3 24 81 23
3 33 82 32
3 39 94 77
3 43 78 42
3 9 84 8
3 17 85 16
3 11 89 10
3 14 95 13
3 13 90 12
3 26 79 25
3 35 91 34
3 37 92 36
3 48 86 47
3 50 87 49
3 46 88 45
3 13 95 90
3 39 77 38
3 20 93 19
3 42 83 41
3 22 80 21
3 29 99 52
3 5 98 53
3 52 97 28
3 53 96 4
3 1 98 5
3 3 99 29
3 4 96 0
3 28 97 2

CELL_TYPES 146
5
5
5
5
5
5
5
5
5
5
5
5
5
5
5
5
5
5
5
5
5
5
5
5
5
5
5
5
5
5
5
5
5
5
5
5
5
5
5
5
5
5
5
5
5
5
5
5
5
5
5
5
5
5
5
5
5
5
5
5
5
5
5
5
5
5
5
5
5
5
5
5
5
5
5
5
5
5
5
5
5
5
5
5
5
5
5
5
5
5
5
5
5
5
5
5
5
5
5
5
5
5
5
5
5
5
5
5
5
5
5
5
5
5
5
5
5
5
5
5
5
5
5
5
5
5
5
5
5
5
5
5
5
5
5
5
5
5
5
5
5
5
5
5
5
5
POINT_DATA 100
FIELD FieldData 1
VELOCITY 3 100  float
0.0000000e+00 0.0000000e+00 0.0000000e+00 
0.0000000e+00 0.0000000e+00 0.0000000e+00 
0.0000000e+00 -2.5172392e-03 0.0000000e+00 
0.0000000e+00 -1.1816554e-03 0.0000000e+00 
0.0000000e+00 0.0000000e+00 0.0000000e+00 
0.0000000e+00 0.0000000e+00 0.0000000e+00 
0.0000000e+00 2.7585583e-04 0.0000000e+00 
0.0000000e+00 4.2832553e-04 0.0000000e+00 
0.0000000e+00 3.3933739e-04 0.0000000e+00 
0.0000000e+00 3.8977287e-04 0.0000000e+00 
0.0000000e+00 -1.9859655e-05 0.0000000e+00 
0.0000000e+00 -8.3710853e-04 0.0000000e+00 
0.0000000e+00 -7.7705167e-04 0.0000000e+00 
0.0000000e+00 -9.3694551e-05 0.0000000e+00 
0.0000000e+00 3.6510889e-04 0.0000000e+00 
0.0000000e+00 5.2377785e-04 0.0000000e+00 
0.0000000e+00 5.7681021e-04 0.0000000e+00 
0.0000000e+00 3.1556434e-04 0.0000000e+00 
0.0000000e+00 4.4532210e-04 0.0000000e+00 
0.0000000e+00 3.6673597e-04 0.0000000e+00 
0.0000000e+00 7.2740579e-05 0.0000000e+00 
0.0000000e+00 -1.4070030e-04 0.0000000e+00 
0.0000000e+00 -6.9884351e-04 0.0000000e+00 
0.0000000e+00 -1.5380363e-03 0.0000000e+00 
0.0000000e+00 -1.6649807e-03 0.0000000e+00 
0.0000000e+00 -1.6107908e-03 0.0000000e+00 
0.0000000e+00 -1.8489199e-03 0.0000000e+00 
0.0000000e+00 -1.6906931e-03 0.0000000e+00 
-1.6223788e-03 5.4144458e-04 0.0000000e+00 
-2.4311184e-03 -2.0474251e-04 0.0000000e+00 
0.0000000e+00 -2.7124030e-03 0.0000000e+00 
0.0000000e+00 -2.0338006e-03 0.0000000e+00 
0.0000000e+00 -1.7658867e-03 0.0000000e+00 
0.0000000e+00 -1.4578871e-03 0.0000000e+00 
0.0000000e+00 -8.9332956e-04 0.0000000e+00 
0.0000000e+00 -9.2482695e-04 0.0000000e+00 
0.0000000e+00 -5.6070433e-04 0.0000000e+00 
0.0000000e+00 -1.8085806e-04 0.0000000e+00 
0.0000000e+00 -4.0974162e-05 0.0000000e+00 
0.0000000e+00 2.3574506e-04 0.0000000e+00 
0.0000000e+00 5.4443424e-04 0.0000000e+00 
0.0000000e+00 5.4533913e-04 0.0000000e+00 
0.0000000e+00 3.2754961e-04 0.0000000e+00 
0.0000000e+00 -1.2899800e-04 0.0000000e+00 
0.0000000e+00 -1.7742948e-04 0.0000000e+00 
0.0000000e+00 2.4694181e-04 0.0000000e+00 
0.0000000e+00 -3.4201537e-05 0.0000000e+00 
0.0000000e+00 -6.6947204e-04 0.0000000e+00 
0.0000000e+00 -5.5722659e-04 0.0000000e+00 
0.0000000e+00 3.4814453e-05 0.0000000e+00 
0.0000000e+00 4.9045921e-04 0.0000000e+00 
0.0000000e+00 6.8315375e-04 0.0000000e+00 
-1.3252574e-03 -1.1005534e-03 0.0000000e+00 
2.4962577e-04 4.3480843e-04 0.0000000e+00 
9.7128170e-05 3.7522803e-04 0.0000000e+00 
-2.1277581e-04 -1.8968112e-03 0.0000000e+00 
1.8531003e-04 5.8682775e-04 0.0000000e+00 
-1.3488909e-04 1.3667124e-04 0.0000000e+00 
1.1065939e-04 7.1153190e-04 0.0000000e+00 
1.3097916e-04 -4.6856319e-05 0.0000000e+00 
-1.1897730e-04 -8.2062645e-04 0.0000000e+00 
7.8368685e-06 5.6286786e-05 0.0000000e+00 
2.6961815e-04 -1.3120059e-04 0.0000000e+00 
-5.7585275e-04 -5.5950455e-04 0.0000000e+00 
4.6816142e-05 -1.3683569e-03 0.0000000e+00 
1.6373112e-07 1.6518244e-04 0.0000000e+00 
7.0394883e-05 -4.8978493e-04 0.0000000e+00 
-2.1935871e-04 -6.8961695e-04 0.0000000e+00 
1.9363864e-04 5.2693522e-05 0.0000000e+00 
8.1008555e-05 -1.4562604e-03 0.0000000e+00 
2.7843640e-04 7.0755405e-04 0.0000000e+00 
-1.7789457e-04 -2.9648404e-04 0.0000000e+00 
8.3392428e-05 4.9893145e-04 0.0000000e+00 
2.3393004e-04 -1.5602319e-03 0.0000000e+00 
3.2300493e-04 5.3747499e-04 0.0000000e+00 
-6.7794591e-04 -2.0198629e-03 0.0000000e+00 
3.5085616e-04 7.1399414e-04 0.0000000e+00 
1.1117873e-04 3.5214805e-04 0.0000000e+00 
-1.0645303e-04 1.1580014e-04 0.0000000e+00 
-1.3218654e-04 -1.8874584e-03 0.0000000e+00 
6.6427597e-06 -4.0702164e-04 0.0000000e+00 
1.4263082e-04 -1.2083050e-03 0.0000000e+00 
-5.1202358e-05 -1.7496197e-03 0.0000000e+00 
9.4242510e-05 4.9584388e-04 0.0000000e+00 
1.7176944e-04 3.3764917e-04 0.0000000e+00 
-1.2429054e-05 5.4521760e-04 0.0000000e+00 
-1.0439734e-04 -5.1459938e-04 0.0000000e+00 
1.5684817e-04 4.3208525e-04 0.0000000e+00 
-4.5073728e-05 -6.0539882e-05 0.0000000e+00 
-4.2637592e-04 -5.0024205e-04 0.0000000e+00 
1.4294022e-04 -4.0929060e-04 0.0000000e+00 
-2.5799239e-04 -1.0977633e-03 0.0000000e+00 
1.5028876e-04 -1.0018440e-04 0.0000000e+00 
1.7154474e-05 2.6465949e-04 0.0000000e+00 
2.9705829e-04 6.7967275e-04 0.0000000e+00 
6.0190669e-05 -6.7939516e-05 0.0000000e+00 
1.7403989e-04 5.1450997e-04 0.0000000e+00 
-1.0897330e-03 -1.1038781e-03 0.0000000e+00 
1.3356013e-04 2.3819281e-04 0.0000000e+00 
-1.1131105e-03 -2.0025610e-03 0.0000000e+00 
CELL_DATA 146
FIELD FieldData 0
