# vtk DataFile Version 4.0
vtk output
ASCII
DATASET UNSTRUCTURED_GRID
POINTS 7661 float
0.0000000e+00 0.0000000e+00 0.0000000e+00 
5.0000000e+00 0.0000000e+00 0.0000000e+00 
5.0000000e+00 5.0000000e+00 0.0000000e+00 
0.0000000e+00 5.0000000e+00 0.0000000e+00 
0.0000000e+00 0.0000000e+00 5.0000000e+00 
5.0000000e+00 0.0000000e+00 5.0000000e+00 
5.0000000e+00 5.0000000e+00 5.0000000e+00 
0.0000000e+00 5.0000000e+00 5.0000000e+00 
1.0000000e+00 5.0000000e+00 0.0000000e+00 
2.0000000e+00 5.0000000e+00 0.0000000e+00 
3.0000000e+00 5.0000000e+00 0.0000000e+00 
5.0000000e-01 0.0000000e+00 0.0000000e+00 
1.0000000e+00 0.0000000e+00 0.0000000e+00 
1.5000000e+00 0.0000000e+00 0.0000000e+00 
2.0000000e+00 0.0000000e+00 0.0000000e+00 
2.5000000e+00 0.0000000e+00 0.0000000e+00 
3.0000000e+00 0.0000000e+00 0.0000000e+00 
3.5000000e+00 0.0000000e+00 0.0000000e+00 
4.0000000e+00 0.0000000e+00 0.0000000e+00 
4.5000000e+00 0.0000000e+00 0.0000000e+00 
2.5000000e-01 0.0000000e+00 0.0000000e+00 
7.5000000e-01 0.0000000e+00 0.0000000e+00 
1.2500000e+00 0.0000000e+00 0.0000000e+00 
1.7500000e+00 0.0000000e+00 0.0000000e+00 
2.2500000e+00 0.0000000e+00 0.0000000e+00 
2.7500000e+00 0.0000000e+00 0.0000000e+00 
3.2500000e+00 0.0000000e+00 0.0000000e+00 
3.7500000e+00 0.0000000e+00 0.0000000e+00 
4.2500000e+00 0.0000000e+00 0.0000000e+00 
4.7500000e+00 0.0000000e+00 0.0000000e+00 
5.0000000e+00 5.0000000e-01 0.0000000e+00 
5.0000000e+00 1.0000000e+00 0.0000000e+00 
5.0000000e+00 1.5000000e+00 0.0000000e+00 
5.0000000e+00 2.0000000e+00 0.0000000e+00 
5.0000000e+00 2.5000000e+00 0.0000000e+00 
5.0000000e+00 3.0000000e+00 0.0000000e+00 
5.0000000e+00 3.5000000e+00 0.0000000e+00 
5.0000000e+00 4.0000000e+00 0.0000000e+00 
5.0000000e+00 4.5000000e+00 0.0000000e+00 
5.0000000e+00 2.5000000e-01 0.0000000e+00 
5.0000000e+00 7.5000000e-01 0.0000000e+00 
5.0000000e+00 1.2500000e+00 0.0000000e+00 
5.0000000e+00 1.7500000e+00 0.0000000e+00 
5.0000000e+00 2.2500000e+00 0.0000000e+00 
5.0000000e+00 2.7500000e+00 0.0000000e+00 
5.0000000e+00 3.2500000e+00 0.0000000e+00 
5.0000000e+00 3.7500000e+00 0.0000000e+00 
5.0000000e+00 4.2500000e+00 0.0000000e+00 
5.0000000e+00 4.7500000e+00 0.0000000e+00 
0.0000000e+00 4.5000000e+00 0.0000000e+00 
0.0000000e+00 4.0000000e+00 0.0000000e+00 
0.0000000e+00 3.5000000e+00 0.0000000e+00 
0.0000000e+00 3.0000000e+00 0.0000000e+00 
0.0000000e+00 2.5000000e+00 0.0000000e+00 
0.0000000e+00 2.0000000e+00 0.0000000e+00 
0.0000000e+00 1.5000000e+00 0.0000000e+00 
0.0000000e+00 1.0000000e+00 0.0000000e+00 
0.0000000e+00 5.0000000e-01 0.0000000e+00 
0.0000000e+00 4.7500000e+00 0.0000000e+00 
0.0000000e+00 4.2500000e+00 0.0000000e+00 
0.0000000e+00 3.7500000e+00 0.0000000e+00 
0.0000000e+00 3.2500000e+00 0.0000000e+00 
0.0000000e+00 2.7500000e+00 0.0000000e+00 
0.0000000e+00 2.2500000e+00 0.0000000e+00 
0.0000000e+00 1.7500000e+00 0.0000000e+00 
0.0000000e+00 1.2500000e+00 0.0000000e+00 
0.0000000e+00 7.5000000e-01 0.0000000e+00 
0.0000000e+00 2.5000000e-01 0.0000000e+00 
0.0000000e+00 0.0000000e+00 5.0000000e-01 
0.0000000e+00 0.0000000e+00 1.0000000e+00 
0.0000000e+00 0.0000000e+00 1.5000000e+00 
0.0000000e+00 0.0000000e+00 2.0000000e+00 
0.0000000e+00 0.0000000e+00 2.5000000e+00 
0.0000000e+00 0.0000000e+00 3.0000000e+00 
0.0000000e+00 0.0000000e+00 3.5000000e+00 
0.0000000e+00 0.0000000e+00 4.0000000e+00 
0.0000000e+00 0.0000000e+00 4.5000000e+00 
0.0000000e+00 0.0000000e+00 2.5000000e-01 
0.0000000e+00 0.0000000e+00 7.5000000e-01 
0.0000000e+00 0.0000000e+00 1.2500000e+00 
0.0000000e+00 0.0000000e+00 1.7500000e+00 
0.0000000e+00 0.0000000e+00 2.2500000e+00 
0.0000000e+00 0.0000000e+00 2.7500000e+00 
0.0000000e+00 0.0000000e+00 3.2500000e+00 
0.0000000e+00 0.0000000e+00 3.7500000e+00 
0.0000000e+00 0.0000000e+00 4.2500000e+00 
0.0000000e+00 0.0000000e+00 4.7500000e+00 
5.0000000e+00 0.0000000e+00 5.0000000e-01 
5.0000000e+00 0.0000000e+00 1.0000000e+00 
5.0000000e+00 0.0000000e+00 1.5000000e+00 
5.0000000e+00 0.0000000e+00 2.0000000e+00 
5.0000000e+00 0.0000000e+00 2.5000000e+00 
5.0000000e+00 0.0000000e+00 3.0000000e+00 
5.0000000e+00 0.0000000e+00 3.5000000e+00 
5.0000000e+00 0.0000000e+00 4.0000000e+00 
5.0000000e+00 0.0000000e+00 4.5000000e+00 
5.0000000e+00 0.0000000e+00 2.5000000e-01 
5.0000000e+00 0.0000000e+00 7.5000000e-01 
5.0000000e+00 0.0000000e+00 1.2500000e+00 
5.0000000e+00 0.0000000e+00 1.7500000e+00 
5.0000000e+00 0.0000000e+00 2.2500000e+00 
5.0000000e+00 0.0000000e+00 2.7500000e+00 
5.0000000e+00 0.0000000e+00 3.2500000e+00 
5.0000000e+00 0.0000000e+00 3.7500000e+00 
5.0000000e+00 0.0000000e+00 4.2500000e+00 
5.0000000e+00 0.0000000e+00 4.7500000e+00 
5.0000000e-01 0.0000000e+00 5.0000000e+00 
1.0000000e+00 0.0000000e+00 5.0000000e+00 
1.5000000e+00 0.0000000e+00 5.0000000e+00 
2.0000000e+00 0.0000000e+00 5.0000000e+00 
2.5000000e+00 0.0000000e+00 5.0000000e+00 
3.0000000e+00 0.0000000e+00 5.0000000e+00 
3.5000000e+00 0.0000000e+00 5.0000000e+00 
4.0000000e+00 0.0000000e+00 5.0000000e+00 
4.5000000e+00 0.0000000e+00 5.0000000e+00 
2.5000000e-01 0.0000000e+00 5.0000000e+00 
7.5000000e-01 0.0000000e+00 5.0000000e+00 
1.2500000e+00 0.0000000e+00 5.0000000e+00 
1.7500000e+00 0.0000000e+00 5.0000000e+00 
2.2500000e+00 0.0000000e+00 5.0000000e+00 
2.7500000e+00 0.0000000e+00 5.0000000e+00 
3.2500000e+00 0.0000000e+00 5.0000000e+00 
3.7500000e+00 0.0000000e+00 5.0000000e+00 
4.2500000e+00 0.0000000e+00 5.0000000e+00 
4.7500000e+00 0.0000000e+00 5.0000000e+00 
5.0000000e+00 5.0000000e+00 5.0000000e-01 
5.0000000e+00 5.0000000e+00 1.0000000e+00 
5.0000000e+00 5.0000000e+00 1.5000000e+00 
5.0000000e+00 5.0000000e+00 2.0000000e+00 
5.0000000e+00 5.0000000e+00 2.5000000e+00 
5.0000000e+00 5.0000000e+00 3.0000000e+00 
5.0000000e+00 5.0000000e+00 3.5000000e+00 
5.0000000e+00 5.0000000e+00 4.0000000e+00 
5.0000000e+00 5.0000000e+00 4.5000000e+00 
5.0000000e+00 5.0000000e+00 2.5000000e-01 
5.0000000e+00 5.0000000e+00 7.5000000e-01 
5.0000000e+00 5.0000000e+00 1.2500000e+00 
5.0000000e+00 5.0000000e+00 1.7500000e+00 
5.0000000e+00 5.0000000e+00 2.2500000e+00 
5.0000000e+00 5.0000000e+00 2.7500000e+00 
5.0000000e+00 5.0000000e+00 3.2500000e+00 
5.0000000e+00 5.0000000e+00 3.7500000e+00 
5.0000000e+00 5.0000000e+00 4.2500000e+00 
5.0000000e+00 5.0000000e+00 4.7500000e+00 
5.0000000e+00 5.0000000e-01 5.0000000e+00 
5.0000000e+00 1.0000000e+00 5.0000000e+00 
5.0000000e+00 1.5000000e+00 5.0000000e+00 
5.0000000e+00 2.0000000e+00 5.0000000e+00 
5.0000000e+00 2.5000000e+00 5.0000000e+00 
5.0000000e+00 3.0000000e+00 5.0000000e+00 
5.0000000e+00 3.5000000e+00 5.0000000e+00 
5.0000000e+00 4.0000000e+00 5.0000000e+00 
5.0000000e+00 4.5000000e+00 5.0000000e+00 
5.0000000e+00 2.5000000e-01 5.0000000e+00 
5.0000000e+00 7.5000000e-01 5.0000000e+00 
5.0000000e+00 1.2500000e+00 5.0000000e+00 
5.0000000e+00 1.7500000e+00 5.0000000e+00 
5.0000000e+00 2.2500000e+00 5.0000000e+00 
5.0000000e+00 2.7500000e+00 5.0000000e+00 
5.0000000e+00 3.2500000e+00 5.0000000e+00 
5.0000000e+00 3.7500000e+00 5.0000000e+00 
5.0000000e+00 4.2500000e+00 5.0000000e+00 
5.0000000e+00 4.7500000e+00 5.0000000e+00 
0.0000000e+00 5.0000000e+00 5.0000000e-01 
0.0000000e+00 5.0000000e+00 1.0000000e+00 
0.0000000e+00 5.0000000e+00 1.5000000e+00 
0.0000000e+00 5.0000000e+00 2.0000000e+00 
0.0000000e+00 5.0000000e+00 2.5000000e+00 
0.0000000e+00 5.0000000e+00 3.0000000e+00 
0.0000000e+00 5.0000000e+00 3.5000000e+00 
0.0000000e+00 5.0000000e+00 4.0000000e+00 
0.0000000e+00 5.0000000e+00 4.5000000e+00 
0.0000000e+00 5.0000000e+00 2.5000000e-01 
0.0000000e+00 5.0000000e+00 7.5000000e-01 
0.0000000e+00 5.0000000e+00 1.2500000e+00 
0.0000000e+00 5.0000000e+00 1.7500000e+00 
0.0000000e+00 5.0000000e+00 2.2500000e+00 
0.0000000e+00 5.0000000e+00 2.7500000e+00 
0.0000000e+00 5.0000000e+00 3.2500000e+00 
0.0000000e+00 5.0000000e+00 3.7500000e+00 
0.0000000e+00 5.0000000e+00 4.2500000e+00 
0.0000000e+00 5.0000000e+00 4.7500000e+00 
4.5000000e+00 5.0000000e+00 5.0000000e+00 
4.0000000e+00 5.0000000e+00 5.0000000e+00 
3.5000000e+00 5.0000000e+00 5.0000000e+00 
3.0000000e+00 5.0000000e+00 5.0000000e+00 
2.5000000e+00 5.0000000e+00 5.0000000e+00 
2.0000000e+00 5.0000000e+00 5.0000000e+00 
1.5000000e+00 5.0000000e+00 5.0000000e+00 
1.0000000e+00 5.0000000e+00 5.0000000e+00 
5.0000000e-01 5.0000000e+00 5.0000000e+00 
4.7500000e+00 5.0000000e+00 5.0000000e+00 
4.2500000e+00 5.0000000e+00 5.0000000e+00 
3.7500000e+00 5.0000000e+00 5.0000000e+00 
3.2500000e+00 5.0000000e+00 5.0000000e+00 
2.7500000e+00 5.0000000e+00 5.0000000e+00 
2.2500000e+00 5.0000000e+00 5.0000000e+00 
1.7500000e+00 5.0000000e+00 5.0000000e+00 
1.2500000e+00 5.0000000e+00 5.0000000e+00 
7.5000000e-01 5.0000000e+00 5.0000000e+00 
2.5000000e-01 5.0000000e+00 5.0000000e+00 
0.0000000e+00 4.5000000e+00 5.0000000e+00 
0.0000000e+00 4.0000000e+00 5.0000000e+00 
0.0000000e+00 3.5000000e+00 5.0000000e+00 
0.0000000e+00 3.0000000e+00 5.0000000e+00 
0.0000000e+00 2.5000000e+00 5.0000000e+00 
0.0000000e+00 2.0000000e+00 5.0000000e+00 
0.0000000e+00 1.5000000e+00 5.0000000e+00 
0.0000000e+00 1.0000000e+00 5.0000000e+00 
0.0000000e+00 5.0000000e-01 5.0000000e+00 
0.0000000e+00 4.7500000e+00 5.0000000e+00 
0.0000000e+00 4.2500000e+00 5.0000000e+00 
0.0000000e+00 3.7500000e+00 5.0000000e+00 
0.0000000e+00 3.2500000e+00 5.0000000e+00 
0.0000000e+00 2.7500000e+00 5.0000000e+00 
0.0000000e+00 2.2500000e+00 5.0000000e+00 
0.0000000e+00 1.7500000e+00 5.0000000e+00 
0.0000000e+00 1.2500000e+00 5.0000000e+00 
0.0000000e+00 7.5000000e-01 5.0000000e+00 
0.0000000e+00 2.5000000e-01 5.0000000e+00 
5.0000000e-01 5.0000000e+00 0.0000000e+00 
2.5000000e-01 5.0000000e+00 0.0000000e+00 
7.5000000e-01 5.0000000e+00 0.0000000e+00 
1.5000000e+00 5.0000000e+00 0.0000000e+00 
1.2500000e+00 5.0000000e+00 0.0000000e+00 
1.7500000e+00 5.0000000e+00 0.0000000e+00 
2.5000000e+00 5.0000000e+00 0.0000000e+00 
2.2500000e+00 5.0000000e+00 0.0000000e+00 
2.7500000e+00 5.0000000e+00 0.0000000e+00 
4.5000000e+00 5.0000000e+00 0.0000000e+00 
[...]
POINT_DATA 7661
FIELD FieldData 1
VELOCITY 3 7661  float
0.0000000e+00 0.0000000e+00 0.0000000e+00 
0.0000000e+00 0.0000000e+00 0.0000000e+00 
6.3775465e-02 1.7262490e-01 0.0000000e+00 
0.0000000e+00 2.3962897e-01 0.0000000e+00 
0.0000000e+00 0.0000000e+00 0.0000000e+00 
0.0000000e+00 0.0000000e+00 0.0000000e+00 
1.6227074e-01 -2.9372841e-02 1.6340198e-01 
0.0000000e+00 1.2937868e-01 3.2937501e-02 
-2.9559603e-01 2.8287657e-02 0.0000000e+00 
-1.3897528e-01 2.4265495e-01 0.0000000e+00 
-1.9796757e-01 3.2691637e-01 0.0000000e+00 
0.0000000e+00 0.0000000e+00 0.0000000e+00 
0.0000000e+00 0.0000000e+00 0.0000000e+00 
0.0000000e+00 0.0000000e+00 0.0000000e+00 
0.0000000e+00 0.0000000e+00 0.0000000e+00 
0.0000000e+00 0.0000000e+00 0.0000000e+00 
0.0000000e+00 0.0000000e+00 0.0000000e+00 
0.0000000e+00 0.0000000e+00 0.0000000e+00 
0.0000000e+00 0.0000000e+00 0.0000000e+00 
0.0000000e+00 0.0000000e+00 0.0000000e+00 
0.0000000e+00 0.0000000e+00 0.0000000e+00 
0.0000000e+00 0.0000000e+00 0.0000000e+00 
0.0000000e+00 0.0000000e+00 0.0000000e+00 
0.0000000e+00 0.0000000e+00 0.0000000e+00 
0.0000000e+00 0.0000000e+00 0.0000000e+00 
0.0000000e+00 0.0000000e+00 0.0000000e+00 
0.0000000e+00 0.0000000e+00 0.0000000e+00 
0.0000000e+00 0.0000000e+00 0.0000000e+00 
0.0000000e+00 0.0000000e+00 0.0000000e+00 
0.0000000e+00 0.0000000e+00 0.0000000e+00 
-5.9582826e-02 6.4334549e-02 0.0000000e+00 
-2.4726912e-02 8.4886804e-02 0.0000000e+00 
-4.6566289e-02 7.4295960e-02 0.0000000e+00 
-2.2438735e-02 2.4390632e-02 0.0000000e+00 
6.4295463e-02 2.2543995e-02 0.0000000e+00 
6.2133502e-03 6.4795405e-02 0.0000000e+00 
-1.0463373e-01 1.1166967e-01 0.0000000e+00 
-1.3349350e-01 7.9858042e-02 0.0000000e+00 
-3.1731389e-02 7.9009697e-02 0.0000000e+00 
-5.0239004e-02 5.1594373e-02 0.0000000e+00 
-3.7593685e-02 6.4777665e-02 0.0000000e+00 
-3.1501077e-02 8.5233442e-02 0.0000000e+00 
-4.2973790e-02 5.8477983e-02 0.0000000e+00 
3.4011375e-02 1.6199293e-02 0.0000000e+00 
4.2402387e-02 4.3367650e-02 0.0000000e+00 
-4.9752861e-02 9.4625436e-02 0.0000000e+00 
-1.3785867e-01 1.0195910e-01 0.0000000e+00 
-9.9799521e-02 8.4556207e-02 0.0000000e+00 
7.7037506e-02 1.1410018e-01 0.0000000e+00 
0.0000000e+00 5.5628996e-02 0.0000000e+00 
0.0000000e+00 1.0955121e-01 0.0000000e+00 
0.0000000e+00 1.6513079e-01 0.0000000e+00 
0.0000000e+00 3.2146087e-01 0.0000000e+00 
0.0000000e+00 3.9034662e-01 0.0000000e+00 
0.0000000e+00 3.1609595e-01 0.0000000e+00 
0.0000000e+00 3.4807998e-01 0.0000000e+00 
0.0000000e+00 1.7320998e-01 0.0000000e+00 
0.0000000e+00 -6.4479731e-02 0.0000000e+00 
0.0000000e+00 1.5228954e-01 0.0000000e+00 
0.0000000e+00 3.7975263e-02 0.0000000e+00 
0.0000000e+00 1.3361971e-01 0.0000000e+00 
0.0000000e+00 2.4032728e-01 0.0000000e+00 
0.0000000e+00 3.5791716e-01 0.0000000e+00 
0.0000000e+00 3.7867445e-01 0.0000000e+00 
0.0000000e+00 2.9533976e-01 0.0000000e+00 
0.0000000e+00 3.1263909e-01 0.0000000e+00 
0.0000000e+00 3.9830621e-02 0.0000000e+00 
0.0000000e+00 -9.2882141e-02 0.0000000e+00 
0.0000000e+00 0.0000000e+00 0.0000000e+00 
0.0000000e+00 0.0000000e+00 0.0000000e+00 
0.0000000e+00 0.0000000e+00 0.0000000e+00 
0.0000000e+00 0.0000000e+00 0.0000000e+00 
0.0000000e+00 0.0000000e+00 0.0000000e+00 
0.0000000e+00 0.0000000e+00 0.0000000e+00 
0.0000000e+00 0.0000000e+00 0.0000000e+00 
0.0000000e+00 0.0000000e+00 0.0000000e+00 
0.0000000e+00 0.0000000e+00 0.0000000e+00 
0.0000000e+00 0.0000000e+00 0.0000000e+00 
0.0000000e+00 0.0000000e+00 0.0000000e+00 
0.0000000e+00 0.0000000e+00 0.0000000e+00 
0.0000000e+00 0.0000000e+00 0.0000000e+00 
0.0000000e+00 0.0000000e+00 0.0000000e+00 
0.0000000e+00 0.0000000e+00 0.0000000e+00 
0.0000000e+00 0.0000000e+00 0.0000000e+00 
0.0000000e+00 0.0000000e+00 0.0000000e+00 
0.0000000e+00 0.0000000e+00 0.0000000e+00 
0.0000000e+00 0.0000000e+00 0.0000000e+00 
0.0000000e+00 0.0000000e+00 0.0000000e+00 
0.0000000e+00 0.0000000e+00 0.0000000e+00 
0.0000000e+00 0.0000000e+00 0.0000000e+00 
0.0000000e+00 0.0000000e+00 0.0000000e+00 
0.0000000e+00 0.0000000e+00 0.0000000e+00 
0.0000000e+00 0.0000000e+00 0.0000000e+00 
0.0000000e+00 0.0000000e+00 0.0000000e+00 
0.0000000e+00 0.0000000e+00 0.0000000e+00 
0.0000000e+00 0.0000000e+00 0.0000000e+00 
0.0000000e+00 0.0000000e+00 0.0000000e+00 
0.0000000e+00 0.0000000e+00 0.0000000e+00 
0.0000000e+00 0.0000000e+00 0.0000000e+00 
0.0000000e+00 0.0000000e+00 0.0000000e+00 
0.0000000e+00 0.0000000e+00 0.0000000e+00 
0.0000000e+00 0.0000000e+00 0.0000000e+00 
0.0000000e+00 0.0000000e+00 0.0000000e+00 
0.0000000e+00 0.0000000e+00 0.0000000e+00 
0.0000000e+00 0.0000000e+00 0.0000000e+00 
0.0000000e+00 0.0000000e+00 0.0000000e+00 
0.0000000e+00 0.0000000e+00 0.0000000e+00 
0.0000000e+00 0.0000000e+00 0.0000000e+00 
0.0000000e+00 0.0000000e+00 0.0000000e+00 
0.0000000e+00 0.0000000e+00 0.0000000e+00 
0.0000000e+00 0.0000000e+00 0.0000000e+00 
0.0000000e+00 0.0000000e+00 0.0000000e+00 
0.0000000e+00 0.0000000e+00 0.0000000e+00 
0.0000000e+00 0.0000000e+00 0.0000000e+00 
0.0000000e+00 0.0000000e+00 0.0000000e+00 
0.0000000e+00 0.0000000e+00 0.0000000e+00 
0.0000000e+00 0.0000000e+00 0.0000000e+00 
0.0000000e+00 0.0000000e+00 0.0000000e+00 
0.0000000e+00 0.0000000e+00 0.0000000e+00 
0.0000000e+00 0.0000000e+00 0.0000000e+00 
0.0000000e+00 0.0000000e+00 0.0000000e+00 
0.0000000e+00 0.0000000e+00 0.0000000e+00 
0.0000000e+00 0.0000000e+00 0.0000000e+00 
0.0000000e+00 0.0000000e+00 0.0000000e+00 
0.0000000e+00 0.0000000e+00 0.0000000e+00 
1.4068203e-01 2.0106384e-01 -2.4511710e-02 
6.1130349e-02 1.8357955e-01 7.6822259e-02 
3.8685437e-02 1.5925433e-01 5.5339519e-02 
1.4370105e-01 1.1097657e-01 -3.4211804e-03 
1.9503139e-01 1.6243392e-01 -2.1355608e-02 
1.8791257e-01 1.4658101e-01 2.9801777e-02 
1.7667772e-01 1.8107879e-01 5.3625356e-02 
1.8712579e-01 1.5681919e-01 1.1204602e-01 
2.0808555e-01 7.9767123e-02 1.6238764e-01 
8.3616398e-02 1.8331373e-01 -3.7513033e-02 
1.2341626e-01 1.9584514e-01 4.1769449e-02 
3.3010591e-02 1.6683815e-01 6.1889034e-02 
9.8137856e-02 1.1598124e-01 3.3786837e-02 
1.8150972e-01 1.2663940e-01 -3.4898773e-02 
2.0110828e-01 1.6320875e-01 1.2254923e-02 
1.6932260e-01 1.6444251e-01 3.8688339e-02 
1.8388653e-01 1.8323018e-01 8.8475853e-02 
1.9514543e-01 1.2957767e-01 1.3200961e-01 
2.0028782e-01 2.6081875e-02 1.8022910e-01 
-2.6977552e-02 7.6047033e-02 -3.3792499e-02 
-7.2587781e-02 1.2233090e-01 -7.9229049e-02 
-9.5949359e-02 1.1993530e-01 -1.0785086e-01 
-1.0984744e-01 9.4253026e-02 -1.0481825e-01 
-4.2395774e-02 1.0719745e-02 -4.3141019e-02 
5.8510214e-02 3.6860052e-02 5.8527287e-02 
1.0857492e-01 8.1670761e-02 1.0947987e-01 
1.3132520e-01 4.3775998e-02 1.3305911e-01 
1.1742869e-01 2.8023705e-02 1.2625775e-01 
-1.7953744e-02 4.3607663e-02 -1.4142025e-02 
-4.7503714e-02 1.0517912e-01 -5.4303307e-02 
-8.7714136e-02 1.2166325e-01 -9.7134404e-02 
-1.1291114e-01 1.0897224e-01 -1.0537808e-01 
-8.4858790e-02 5.1556930e-02 -8.8012129e-02 
8.0203153e-03 1.3889744e-02 5.7503814e-03 
9.3512408e-02 6.3664012e-02 9.5222272e-02 
1.2004378e-01 6.2246434e-02 1.2338619e-01 
1.2635940e-01 4.3994036e-02 1.2927496e-01 
1.2186911e-01 -8.5855564e-03 1.2800579e-01 
0.0000000e+00 -9.1701694e-02 2.1943318e-02 
0.0000000e+00 -8.9532577e-02 -3.9692906e-01 
0.0000000e+00 8.8335805e-02 -1.1339463e-01 
0.0000000e+00 2.3813754e-01 -2.0017347e-01 
0.0000000e+00 3.9482006e-01 -1.3124429e-01 
0.0000000e+00 4.0363500e-01 -1.2778667e-01 
0.0000000e+00 2.6488093e-01 -1.6197620e-01 
0.0000000e+00 1.0442976e-01 1.2316782e-01 
0.0000000e+00 3.9901588e-02 9.6562698e-02 
0.0000000e+00 9.1861203e-02 5.7678357e-02 
0.0000000e+00 -2.1696553e-01 -1.9268842e-01 
0.0000000e+00 1.8861331e-01 -2.8042242e-01 
0.0000000e+00 1.6254490e-02 -1.4901006e-01 
0.0000000e+00 3.4938356e-01 -1.6991438e-01 
0.0000000e+00 3.5374594e-01 -1.2198243e-01 
0.0000000e+00 2.8301251e-01 -1.4691748e-01 
0.0000000e+00 2.4923559e-01 -2.4846217e-02 
0.0000000e+00 1.0247542e-02 1.2406045e-01 
0.0000000e+00 2.6968552e-02 6.1969958e-02 
1.4912581e-01 8.1380464e-02 1.8440321e-01 
1.1461636e-01 1.3812333e-01 1.6500162e-01 
6.8292692e-02 1.9789350e-01 1.2707433e-01 
6.1407718e-03 1.3068466e-01 1.8201533e-01 
-4.5414455e-02 1.4721070e-01 1.9614325e-01 
-1.8279981e-02 8.8644162e-02 1.4393197e-01 
5.0336529e-02 1.7616729e-01 3.9458491e-02 
6.1163366e-02 1.8084842e-01 1.1200041e-01 
-3.6886167e-02 1.2146176e-01 1.5787385e-01 
1.7371529e-01 3.4281135e-02 1.8417297e-01 
1.2077631e-01 1.0661276e-01 1.8274437e-01 
1.0035660e-01 1.9874038e-01 1.4245433e-01 
4.0783197e-02 1.5853243e-01 1.5276660e-01 
-1.1955361e-02 1.6243422e-01 1.8655236e-01 
-4.4731095e-02 1.1408568e-01 1.7887414e-01 
1.4792006e-02 1.1752639e-01 9.7691394e-02 
6.6468783e-02 2.1189335e-01 4.4434041e-02 
2.6716001e-02 1.5104017e-01 1.6755755e-01 
-6.1656427e-02 1.4647466e-01 8.1545204e-02 
0.0000000e+00 8.6552173e-02 1.1696038e-02 
0.0000000e+00 1.3237497e-01 -9.4616733e-02 
0.0000000e+00 1.2771036e-01 -1.0174511e-01 
0.0000000e+00 7.2376825e-02 -1.5842412e-03 
0.0000000e+00 1.9171402e-02 5.5943052e-03 
0.0000000e+00 3.7127722e-02 -1.8849775e-02 
0.0000000e+00 6.3097380e-02 -1.2870676e-02 
0.0000000e+00 7.0927814e-02 -7.7749722e-02 
0.0000000e+00 8.0670975e-02 -4.7936209e-02 
0.0000000e+00 1.0434899e-01 7.6462142e-02 
0.0000000e+00 1.1502028e-01 -6.4552717e-02 
0.0000000e+00 1.4740700e-01 -1.2076776e-01 
0.0000000e+00 9.6596681e-02 -5.2927069e-02 
0.0000000e+00 3.7227672e-02 9.6249813e-03 
0.0000000e+00 2.3622015e-02 -3.7754569e-03 
0.0000000e+00 4.8556957e-02 -1.0779976e-02 
0.0000000e+00 7.0783362e-02 -3.4925550e-02 
0.0000000e+00 8.6703181e-02 -7.2619662e-02 
0.0000000e+00 4.9651626e-02 -5.1905606e-02 
-9.0183979e-03 -1.3689439e-01 0.0000000e+00 
3.8498353e-02 5.6568388e-02 0.0000000e+00 
-1.6376592e-01 -1.7297877e-01 0.0000000e+00 
-2.1165341e-01 2.4294657e-01 0.0000000e+00 
-2.7824613e-01 2.3114143e-01 0.0000000e+00 
-1.7744899e-01 1.7176355e-01 0.0000000e+00 
-3.7439741e-02 2.5820556e-01 0.0000000e+00 
-5.8744539e-02 2.7237687e-01 0.0000000e+00 
-1.3998009e-01 2.8688604e-01 0.0000000e+00 
1.3907005e-01 -1.4130683e-02 0.0000000e+00 
7.0511892e-02 1.2075561e-01 0.0000000e+00 
-1.4174825e-01 2.8688201e-01 0.0000000e+00 
1.1581711e-01 3.2701738e-02 0.0000000e+00 
1.1498824e-01 2.6130981e-03 0.0000000e+00 
-4.0392686e-02 2.5505179e-01 0.0000000e+00 
-1.6919145e-01 2.9749885e-01 0.0000000e+00 
-7.9783738e-02 2.2158363e-01 0.0000000e+00 
-9.2727393e-02 4.8233263e-02 0.0000000e+00 
4.4131923e-02 1.2405208e-01 0.0000000e+00 
2.6246047e-02 2.8854269e-01 0.0000000e+00 
-4.3836039e-02 1.5839607e-01 0.0000000e+00 
-2.9160824e-02 9.4308987e-02 0.0000000e+00 
-6.4937375e-02 8.4556922e-02 0.0000000e+00 
7.9446428e-02 2.8335255e-01 0.0000000e+00 
2.4424501e-02 2.8274955e-02 0.0000000e+00 
-3.0698612e-02 2.8945449e-01 0.0000000e+00 
-2.2656867e-02 7.6376319e-02 0.0000000e+00 
1.0887998e-02 -3.4181915e-02 0.0000000e+00 
-3.9405521e-02 2.6863722e-02 0.0000000e+00 
-5.8159277e-02 -9.1124848e-02 0.0000000e+00 
-1.4894974e-01 1.4690113e-01 0.0000000e+00 
1.5157041e-02 1.5551022e-01 0.0000000e+00 
2.0210274e-02 9.3156278e-02 0.0000000e+00 
2.8586695e-02 1.7433235e-01 0.0000000e+00 
7.4051581e-02 1.6988161e-01 0.0000000e+00 
-5.9144791e-02 1.9737907e-01 0.0000000e+00 
-8.3920494e-02 2.2383609e-01 0.0000000e+00 
1.7371595e-01 2.7172235e-01 0.0000000e+00 
1.5234347e-01 2.6761860e-01 0.0000000e+00 
3.3122272e-04 4.2468962e-01 0.0000000e+00 
2.1943830e-02 3.5043284e-01 0.0000000e+00 
1.2248619e-03 3.2009453e-01 0.0000000e+00 
1.0377511e-02 3.2963187e-01 0.0000000e+00 
-8.0043994e-02 1.7706189e-01 0.0000000e+00 
-2.9446365e-02 1.6769868e-01 0.0000000e+00 
1.2919612e-01 2.3593187e-01 0.0000000e+00 
2.7302496e-02 8.4309325e-02 0.0000000e+00 
5.4123469e-02 2.6665959e-01 0.0000000e+00 
1.2232592e-02 1.3873528e-01 0.0000000e+00 
-1.1485242e-01 1.2148713e-01 0.0000000e+00 
-2.3218853e-02 1.3494319e-01 0.0000000e+00 
-1.7294456e-01 -1.7157685e-02 0.0000000e+00 
-5.5180646e-02 8.7664582e-02 0.0000000e+00 
-7.5708270e-02 1.7873837e-01 0.0000000e+00 
2.7102610e-02 2.3196022e-01 0.0000000e+00 
-2.8065734e-02 1.3121912e-01 0.0000000e+00 
1.6112531e-02 2.2276863e-01 0.0000000e+00 
8.9377165e-03 2.5836971e-01 0.0000000e+00 
-8.8878892e-02 1.6396672e-01 0.0000000e+00 
3.3268854e-02 2.7911255e-01 0.0000000e+00 
8.2639746e-02 3.8963031e-02 0.0000000e+00 
6.7835152e-02 1.6966663e-01 0.0000000e+00 
2.5580421e-02 1.1864726e-01 0.0000000e+00 
1.1644775e-01 2.7890512e-01 0.0000000e+00 
2.2634950e-02 2.8742918e-01 0.0000000e+00 
-9.5602430e-02 1.0191151e-01 0.0000000e+00 
1.2320702e-02 1.2833416e-01 0.0000000e+00 
1.9885765e-02 2.4960896e-01 0.0000000e+00 
-3.4674179e-02 7.8213364e-02 0.0000000e+00 
8.0328502e-02 7.1906842e-02 0.0000000e+00 
-8.4204912e-02 7.0894241e-02 0.0000000e+00 
-3.9675590e-02 9.7707026e-03 0.0000000e+00 
-5.4657396e-02 -3.4759529e-02 0.0000000e+00 
2.6398763e-02 9.4913997e-02 0.0000000e+00 
7.0071635e-03 2.0308474e-01 0.0000000e+00 
8.0258101e-02 2.0066349e-01 0.0000000e+00 
-5.5833451e-02 1.9688664e-01 0.0000000e+00 
-1.1374310e-01 1.5945984e-01 0.0000000e+00 
-9.6998177e-02 -3.7880780e-03 0.0000000e+00 
-1.7565388e-02 -5.2856814e-02 0.0000000e+00 
3.1847164e-02 1.6981025e-01 0.0000000e+00 
-1.0734811e-01 3.5542440e-02 0.0000000e+00 
-6.5860100e-02 9.7476505e-02 0.0000000e+00 
1.6429944e-02 5.1937863e-02 0.0000000e+00 
-6.5709651e-02 3.5787618e-01 0.0000000e+00 
-1.5198723e-02 3.4395379e-01 0.0000000e+00 
-9.4463937e-02 2.0091315e-01 0.0000000e+00 
7.8758169e-03 3.7916556e-01 0.0000000e+00 
-4.0254526e-02 1.9122081e-01 0.0000000e+00 
1.3715002e-02 3.0176753e-01 0.0000000e+00 
-3.9203994e-02 -8.8260293e-02 0.0000000e+00 
-1.1640994e-04 6.0024340e-02 0.0000000e+00 
-5.4655742e-02 2.1036363e-01 0.0000000e+00 
2.3748646e-02 -5.3468146e-03 0.0000000e+00 
1.2964615e-01 1.1930318e-01 0.0000000e+00 
-3.5618138e-02 2.7529863e-03 0.0000000e+00 
-4.7981795e-02 -5.2962027e-02 0.0000000e+00 
-4.8759267e-02 -4.8855614e-02 0.0000000e+00 
-1.1581357e-01 3.0925641e-02 0.0000000e+00 
-7.4680753e-02 6.1120782e-02 0.0000000e+00 
-7.4660003e-02 1.5061417e-01 0.0000000e+00 
-1.0406942e-02 1.9322619e-01 0.0000000e+00 
1.5829802e-02 2.5855517e-01 0.0000000e+00 
2.8577192e-02 8.4891319e-03 0.0000000e+00 
-6.9639720e-02 3.0735428e-02 0.0000000e+00 
-5.1795773e-02 4.6830546e-02 0.0000000e+00 
2.7422937e-02 1.4454441e-01 0.0000000e+00 
-3.4165837e-02 1.6314681e-01 0.0000000e+00 
-1.4225699e-02 1.0697576e-01 0.0000000e+00 
-3.4193020e-02 1.0367829e-01 0.0000000e+00 
4.6079312e-02 -8.3674807e-03 0.0000000e+00 
1.1460973e-01 2.0521161e-01 0.0000000e+00 
-1.8142505e-01 -4.6141658e-02 0.0000000e+00 
1.8300019e-02 -1.2409738e-01 0.0000000e+00 
1.1484678e-02 2.9490264e-02 0.0000000e+00 
-8.6695090e-02 3.5189118e-02 0.0000000e+00 
4.7117464e-02 2.2659440e-01 0.0000000e+00 
2.1764599e-02 9.6019521e-02 0.0000000e+00 
5.7445139e-02 1.6308714e-01 0.0000000e+00 
2.4332305e-02 8.4138647e-02 0.0000000e+00 
-1.5159805e-01 2.1825254e-01 0.0000000e+00 
1.0490867e-02 -9.4078973e-02 0.0000000e+00 
9.0331640e-03 -8.9079715e-02 0.0000000e+00 
2.2701127e-02 -7.9364672e-02 0.0000000e+00 
-5.5202439e-02 2.0851351e-02 0.0000000e+00 
-5.3869028e-02 3.1645667e-02 0.0000000e+00 
-7.5361580e-02 2.7574152e-02 0.0000000e+00 
1.1253401e-01 4.5910969e-02 0.0000000e+00 
-3.2417537e-03 6.7348048e-02 0.0000000e+00 
1.0507590e-01 -5.5332338e-03 0.0000000e+00 
-1.0068441e-01 3.5589032e-02 0.0000000e+00 
-6.5525077e-02 1.1816340e-01 0.0000000e+00 
-1.0408649e-01 -9.8495357e-02 0.0000000e+00 
-1.1786146e-01 -1.8063027e-01 0.0000000e+00 
-9.8170608e-02 -9.6220151e-02 0.0000000e+00 
-1.1893757e-01 1.0568888e-01 0.0000000e+00 
-1.6600889e-01 2.3113780e-01 0.0000000e+00 
8.9129042e-03 -5.8489488e-03 0.0000000e+00 
-1.6652016e-01 2.0372526e-01 0.0000000e+00 
-1.0694984e-01 2.0259167e-01 0.0000000e+00 
-7.7545419e-02 2.3095843e-01 0.0000000e+00 
-7.9271898e-02 2.1094304e-01 0.0000000e+00 
-5.2555729e-02 1.5561348e-01 0.0000000e+00 
-1.1156965e-01 2.2695369e-01 0.0000000e+00 
-1.4420241e-01 2.9507643e-01 0.0000000e+00 
-1.2699270e-01 3.0264029e-01 0.0000000e+00 
-8.4013574e-02 2.8676122e-01 0.0000000e+00 
-2.9156934e-02 2.6367825e-01 0.0000000e+00 
-4.4681784e-03 -4.2208001e-02 0.0000000e+00 
-7.3328577e-03 -8.7107629e-02 0.0000000e+00 
-2.0026302e-02 -8.5749477e-02 0.0000000e+00 
-3.7236609e-02 7.4419845e-03 0.0000000e+00 
-3.4450116e-03 5.9873774e-03 0.0000000e+00 
-2.2200624e-02 2.9670009e-02 0.0000000e+00 
-4.3758668e-02 -9.0023838e-02 0.0000000e+00 
-5.3775825e-02 -5.1840801e-02 0.0000000e+00 
-3.5599776e-02 1.1607477e-02 0.0000000e+00 
-4.6511732e-02 -7.1469690e-03 0.0000000e+00 
-3.9957438e-02 -3.4144718e-02 0.0000000e+00 
-6.1530009e-02 -1.7869618e-02 0.0000000e+00 
-3.7842520e-02 2.0017283e-02 0.0000000e+00 
-4.3085176e-02 -1.1147100e-02 0.0000000e+00 
-9.5928997e-02 3.1819269e-02 0.0000000e+00 
-5.1248807e-02 3.8839366e-02 0.0000000e+00 
-3.6401507e-02 3.7130583e-02 0.0000000e+00 
-8.5205309e-02 7.3341258e-02 0.0000000e+00 
-6.4879701e-02 5.5031560e-02 0.0000000e+00 
-5.8321256e-02 4.5952108e-02 0.0000000e+00 
-6.0210831e-02 8.0313168e-02 0.0000000e+00 
-4.9640365e-02 4.3826975e-02 0.0000000e+00 
-5.8966413e-02 3.9186832e-02 0.0000000e+00 
-5.5969719e-02 7.0892490e-02 0.0000000e+00 
-6.0773641e-02 4.3471251e-02 0.0000000e+00 
-3.5647249e-03 6.2406105e-03 0.0000000e+00 
-5.1373143e-02 2.0428609e-02 0.0000000e+00 
-6.8601958e-02 2.7969476e-02 0.0000000e+00 
-2.5478460e-02 3.9372526e-02 0.0000000e+00 
1.3164439e-02 1.0505095e-02 0.0000000e+00 
3.8592112e-03 -2.8619019e-02 0.0000000e+00 
-2.8581265e-02 6.1635956e-02 0.0000000e+00 
-4.9551327e-02 6.3692898e-02 0.0000000e+00 
-3.2254472e-02 2.0902561e-02 0.0000000e+00 
5.4398105e-02 5.8222320e-02 0.0000000e+00 
3.0014707e-02 7.4485093e-02 0.0000000e+00 
3.9470181e-02 1.1615417e-01 0.0000000e+00 
-8.8671427e-03 2.8156590e-02 0.0000000e+00 
3.9126325e-02 2.7830577e-02 0.0000000e+00 
7.4337376e-03 7.0706122e-02 0.0000000e+00 
-7.2449163e-02 1.1221430e-01 0.0000000e+00 
-3.2991588e-02 6.8373717e-02 0.0000000e+00 
-3.8148802e-02 2.7093414e-02 0.0000000e+00 
-1.5864719e-01 1.0323197e-01 0.0000000e+00 
-1.2268791e-01 1.2127142e-01 0.0000000e+00 
-6.3181952e-02 1.3791570e-01 0.0000000e+00 
-9.7020596e-02 8.3476707e-02 0.0000000e+00 
-1.4806180e-01 1.0009100e-01 0.0000000e+00 
-1.3369831e-01 1.7060485e-01 0.0000000e+00 
-9.6338294e-02 8.5144475e-02 0.0000000e+00 
-1.1466483e-02 3.6361657e-02 0.0000000e+00 
-6.5857224e-02 -6.3749282e-03 0.0000000e+00 
-1.2663305e-01 -6.1612558e-02 0.0000000e+00 
2.3673959e-02 8.4907554e-02 0.0000000e+00 
9.3675572e-03 7.7319905e-02 0.0000000e+00 
1.0331791e-02 5.4808208e-03 0.0000000e+00 
1.0397838e-02 2.2025351e-01 0.0000000e+00 
1.1829662e-02 1.2490951e-01 0.0000000e+00 
1.8752472e-02 9.0805003e-03 0.0000000e+00 
-9.3024978e-03 3.4991843e-01 0.0000000e+00 
1.7000211e-02 3.1670660e-01 0.0000000e+00 
3.4729995e-02 1.9290687e-01 0.0000000e+00 
-3.5372462e-02 3.5922092e-01 0.0000000e+00 
-4.0171947e-02 3.7575972e-01 0.0000000e+00 
-3.0069666e-02 3.2666165e-01 0.0000000e+00 
3.8953830e-02 3.1074631e-01 0.0000000e+00 
1.7272351e-02 3.0299714e-01 0.0000000e+00 
-1.2565317e-02 3.3504239e-01 0.0000000e+00 
-7.1854904e-02 2.3749112e-01 0.0000000e+00 
-2.4688549e-02 3.0493680e-01 0.0000000e+00 
-7.2881457e-04 2.4344438e-01 0.0000000e+00 
2.3562549e-02 2.3259370e-02 0.0000000e+00 
-3.1837378e-02 1.3664922e-01 0.0000000e+00 
-7.5487949e-02 1.8693441e-01 0.0000000e+00 
2.5199942e-02 1.5716868e-02 0.0000000e+00 
-1.4251287e-01 -1.2098641e-01 0.0000000e+00 
-4.3169472e-02 1.6022265e-01 0.0000000e+00 
-1.0478360e-01 1.1891588e-01 0.0000000e+00 
1.5636814e-03 6.7369968e-02 0.0000000e+00 
4.7266524e-02 -9.1870883e-03 0.0000000e+00 
-5.4874200e-02 2.4501329e-02 0.0000000e+00 
-6.0047742e-02 2.9582831e-01 0.0000000e+00 
-2.7201498e-02 2.3196936e-01 0.0000000e+00 
-7.7823281e-02 1.8482512e-01 0.0000000e+00 
-1.8816399e-03 2.3590782e-01 0.0000000e+00 
-3.8100414e-03 4.0634803e-02 0.0000000e+00 
1.9945281e-03 1.0868157e-01 0.0000000e+00 
5.9485767e-02 1.0710440e-01 0.0000000e+00 
1.2422005e-02 1.8953264e-01 0.0000000e+00 