# vtk DataFile Version 4.0
vtk output
ASCII
DATASET UNSTRUCTURED_GRID
POINTS 7661 float
0.0000000e+00 0.0000000e+00 0.0000000e+00 
5.0000000e+00 0.0000000e+00 0.0000000e+00 
5.0000000e+00 5.0000000e+00 0.0000000e+00 
0.0000000e+00 5.0000000e+00 0.0000000e+00 
0.0000000e+00 0.0000000e+00 5.0000000e+00 
5.0000000e+00 0.0000000e+00 5.0000000e+00 
5.0000000e+00 5.0000000e+00 5.0000000e+00 
0.0000000e+00 5.0000000e+00 5.0000000e+00 
1.0000000e+00 5.0000000e+00 0.0000000e+00 
2.0000000e+00 5.0000000e+00 0.0000000e+00 
3.0000000e+00 5.0000000e+00 0.0000000e+00 
5.0000000e-01 0.0000000e+00 0.0000000e+00 
1.0000000e+00 0.0000000e+00 0.0000000e+00 
1.5000000e+00 0.0000000e+00 0.0000000e+00 
2.0000000e+00 0.0000000e+00 0.0000000e+00 
2.5000000e+00 0.0000000e+00 0.0000000e+00 
3.0000000e+00 0.0000000e+00 0.0000000e+00 
3.5000000e+00 0.0000000e+00 0.0000000e+00 
4.0000000e+00 0.0000000e+00 0.0000000e+00 
4.5000000e+00 0.0000000e+00 0.0000000e+00 
2.5000000e-01 0.0000000e+00 0.0000000e+00 
7.5000000e-01 0.0000000e+00 0.0000000e+00 
1.2500000e+00 0.0000000e+00 0.0000000e+00 
1.7500000e+00 0.0000000e+00 0.0000000e+00 
2.2500000e+00 0.0000000e+00 0.0000000e+00 
2.7500000e+00 0.0000000e+00 0.0000000e+00 
3.2500000e+00 0.0000000e+00 0.0000000e+00 
3.7500000e+00 0.0000000e+00 0.0000000e+00 
4.2500000e+00 0.0000000e+00 0.0000000e+00 
4.7500000e+00 0.0000000e+00 0.0000000e+00 
5.0000000e+00 5.0000000e-01 0.0000000e+00 
5.0000000e+00 1.0000000e+00 0.0000000e+00 
5.0000000e+00 1.5000000e+00 0.0000000e+00 
5.0000000e+00 2.0000000e+00 0.0000000e+00 
5.0000000e+00 2.5000000e+00 0.0000000e+00 
5.0000000e+00 3.0000000e+00 0.0000000e+00 
5.0000000e+00 3.5000000e+00 0.0000000e+00 
5.0000000e+00 4.0000000e+00 0.0000000e+00 
5.0000000e+00 4.5000000e+00 0.0000000e+00 
5.0000000e+00 2.5000000e-01 0.0000000e+00 
5.0000000e+00 7.5000000e-01 0.0000000e+00 
5.0000000e+00 1.2500000e+00 0.0000000e+00 
5.0000000e+00 1.7500000e+00 0.0000000e+00 
5.0000000e+00 2.2500000e+00 0.0000000e+00 
5.0000000e+00 2.7500000e+00 0.0000000e+00 
5.0000000e+00 3.2500000e+00 0.0000000e+00 
5.0000000e+00 3.7500000e+00 0.0000000e+00 
5.0000000e+00 4.2500000e+00 0.0000000e+00 
5.0000000e+00 4.7500000e+00 0.0000000e+00 
0.0000000e+00 4.5000000e+00 0.0000000e+00 
0.0000000e+00 4.0000000e+00 0.0000000e+00 
0.0000000e+00 3.5000000e+00 0.0000000e+00 
0.0000000e+00 3.0000000e+00 0.0000000e+00 
0.0000000e+00 2.5000000e+00 0.0000000e+00 
0.0000000e+00 2.0000000e+00 0.0000000e+00 
0.0000000e+00 1.5000000e+00 0.0000000e+00 
0.0000000e+00 1.0000000e+00 0.0000000e+00 
0.0000000e+00 5.0000000e-01 0.0000000e+00 
0.0000000e+00 4.7500000e+00 0.0000000e+00 
0.0000000e+00 4.2500000e+00 0.0000000e+00 
0.0000000e+00 3.7500000e+00 0.0000000e+00 
0.0000000e+00 3.2500000e+00 0.0000000e+00 
0.0000000e+00 2.7500000e+00 0.0000000e+00 
0.0000000e+00 2.2500000e+00 0.0000000e+00 
0.0000000e+00 1.7500000e+00 0.0000000e+00 
0.0000000e+00 1.2500000e+00 0.0000000e+00 
0.0000000e+00 7.5000000e-01 0.0000000e+00 
0.0000000e+00 2.5000000e-01 0.0000000e+00 
0.0000000e+00 0.0000000e+00 5.0000000e-01 
0.0000000e+00 0.0000000e+00 1.0000000e+00 
0.0000000e+00 0.0000000e+00 1.5000000e+00 
0.0000000e+00 0.0000000e+00 2.0000000e+00 
0.0000000e+00 0.0000000e+00 2.5000000e+00 
0.0000000e+00 0.0000000e+00 3.0000000e+00 
0.0000000e+00 0.0000000e+00 3.5000000e+00 
0.0000000e+00 0.0000000e+00 4.0000000e+00 
0.0000000e+00 0.0000000e+00 4.5000000e+00 
0.0000000e+00 0.0000000e+00 2.5000000e-01 
0.0000000e+00 0.0000000e+00 7.5000000e-01 
0.0000000e+00 0.0000000e+00 1.2500000e+00 
0.0000000e+00 0.0000000e+00 1.7500000e+00 
0.0000000e+00 0.0000000e+00 2.2500000e+00 
0.0000000e+00 0.0000000e+00 2.7500000e+00 
0.0000000e+00 0.0000000e+00 3.2500000e+00 
0.0000000e+00 0.0000000e+00 3.7500000e+00 
0.0000000e+00 0.0000000e+00 4.2500000e+00 
0.0000000e+00 0.0000000e+00 4.7500000e+00 
5.0000000e+00 0.0000000e+00 5.0000000e-01 
5.0000000e+00 0.0000000e+00 1.0000000e+00 
5.0000000e+00 0.0000000e+00 1.5000000e+00 
5.0000000e+00 0.0000000e+00 2.0000000e+00 
5.0000000e+00 0.0000000e+00 2.5000000e+00 
5.0000000e+00 0.0000000e+00 3.0000000e+00 
5.0000000e+00 0.0000000e+00 3.5000000e+00 
5.0000000e+00 0.0000000e+00 4.0000000e+00 
5.0000000e+00 0.0000000e+00 4.5000000e+00 
5.0000000e+00 0.0000000e+00 2.5000000e-01 
5.0000000e+00 0.0000000e+00 7.5000000e-01 
5.0000000e+00 0.0000000e+00 1.2500000e+00 
5.0000000e+00 0.0000000e+00 1.7500000e+00 
5.0000000e+00 0.0000000e+00 2.2500000e+00 
5.0000000e+00 0.0000000e+00 2.7500000e+00 
5.0000000e+00 0.0000000e+00 3.2500000e+00 
5.0000000e+00 0.0000000e+00 3.7500000e+00 
5.0000000e+00 0.0000000e+00 4.2500000e+00 
5.0000000e+00 0.0000000e+00 4.7500000e+00 
5.0000000e-01 0.0000000e+00 5.0000000e+00 
1.0000000e+00 0.0000000e+00 5.0000000e+00 
1.5000000e+00 0.0000000e+00 5.0000000e+00 
2.0000000e+00 0.0000000e+00 5.0000000e+00 
2.5000000e+00 0.0000000e+00 5.0000000e+00 
3.0000000e+00 0.0000000e+00 5.0000000e+00 
3.5000000e+00 0.0000000e+00 5.0000000e+00 
4.0000000e+00 0.0000000e+00 5.0000000e+00 
4.5000000e+00 0.0000000e+00 5.0000000e+00 
2.5000000e-01 0.0000000e+00 5.0000000e+00 
7.5000000e-01 0.0000000e+00 5.0000000e+00 
1.2500000e+00 0.0000000e+00 5.0000000e+00 
1.7500000e+00 0.0000000e+00 5.0000000e+00 
2.2500000e+00 0.0000000e+00 5.0000000e+00 
2.7500000e+00 0.0000000e+00 5.0000000e+00 
3.2500000e+00 0.0000000e+00 5.0000000e+00 
3.7500000e+00 0.0000000e+00 5.0000000e+00 
4.2500000e+00 0.0000000e+00 5.0000000e+00 
4.7500000e+00 0.0000000e+00 5.0000000e+00 
5.0000000e+00 5.0000000e+00 5.0000000e-01 
5.0000000e+00 5.0000000e+00 1.0000000e+00 
5.0000000e+00 5.0000000e+00 1.5000000e+00 
5.0000000e+00 5.0000000e+00 2.0000000e+00 
5.0000000e+00 5.0000000e+00 2.5000000e+00 
5.0000000e+00 5.0000000e+00 3.0000000e+00 
5.0000000e+00 5.0000000e+00 3.5000000e+00 
5.0000000e+00 5.0000000e+00 4.0000000e+00 
5.0000000e+00 5.0000000e+00 4.5000000e+00 
5.0000000e+00 5.0000000e+00 2.5000000e-01 
5.0000000e+00 5.0000000e+00 7.5000000e-01 
5.0000000e+00 5.0000000e+00 1.2500000e+00 
5.0000000e+00 5.0000000e+00 1.7500000e+00 
5.0000000e+00 5.0000000e+00 2.2500000e+00 
5.0000000e+00 5.0000000e+00 2.7500000e+00 
5.0000000e+00 5.0000000e+00 3.2500000e+00 
5.0000000e+00 5.0000000e+00 3.7500000e+00 
5.0000000e+00 5.0000000e+00 4.2500000e+00 
5.0000000e+00 5.0000000e+00 4.7500000e+00 
5.0000000e+00 5.0000000e-01 5.0000000e+00 
5.0000000e+00 1.0000000e+00 5.0000000e+00 
5.0000000e+00 1.5000000e+00 5.0000000e+00 
5.0000000e+00 2.0000000e+00 5.0000000e+00 
5.0000000e+00 2.5000000e+00 5.0000000e+00 
5.0000000e+00 3.0000000e+00 5.0000000e+00 
5.0000000e+00 3.5000000e+00 5.0000000e+00 
5.0000000e+00 4.0000000e+00 5.0000000e+00 
5.0000000e+00 4.5000000e+00 5.0000000e+00 
5.0000000e+00 2.5000000e-01 5.0000000e+00 
5.0000000e+00 7.5000000e-01 5.0000000e+00 
5.0000000e+00 1.2500000e+00 5.0000000e+00 
5.0000000e+00 1.7500000e+00 5.0000000e+00 
5.0000000e+00 2.2500000e+00 5.0000000e+00 
5.0000000e+00 2.7500000e+00 5.0000000e+00 
5.0000000e+00 3.2500000e+00 5.0000000e+00 
5.0000000e+00 3.7500000e+00 5.0000000e+00 
5.0000000e+00 4.2500000e+00 5.0000000e+00 
5.0000000e+00 4.7500000e+00 5.0000000e+00 
0.0000000e+00 5.0000000e+00 5.0000000e-01 
0.0000000e+00 5.0000000e+00 1.0000000e+00 
0.0000000e+00 5.0000000e+00 1.5000000e+00 
0.0000000e+00 5.0000000e+00 2.0000000e+00 
0.0000000e+00 5.0000000e+00 2.5000000e+00 
0.0000000e+00 5.0000000e+00 3.0000000e+00 
0.0000000e+00 5.0000000e+00 3.5000000e+00 
0.0000000e+00 5.0000000e+00 4.0000000e+00 
0.0000000e+00 5.0000000e+00 4.5000000e+00 
0.0000000e+00 5.0000000e+00 2.5000000e-01 
0.0000000e+00 5.0000000e+00 7.5000000e-01 
0.0000000e+00 5.0000000e+00 1.2500000e+00 
0.0000000e+00 5.0000000e+00 1.7500000e+00 
0.0000000e+00 5.0000000e+00 2.2500000e+00 
0.0000000e+00 5.0000000e+00 2.7500000e+00 
0.0000000e+00 5.0000000e+00 3.2500000e+00 
0.0000000e+00 5.0000000e+00 3.7500000e+00 
0.0000000e+00 5.0000000e+00 4.2500000e+00 
0.0000000e+00 5.0000000e+00 4.7500000e+00 
4.5000000e+00 5.0000000e+00 5.0000000e+00 
4.0000000e+00 5.0000000e+00 5.0000000e+00 
3.5000000e+00 5.0000000e+00 5.0000000e+00 
3.0000000e+00 5.0000000e+00 5.0000000e+00 
2.5000000e+00 5.0000000e+00 5.0000000e+00 
2.0000000e+00 5.0000000e+00 5.0000000e+00 
1.5000000e+00 5.0000000e+00 5.0000000e+00 
1.0000000e+00 5.0000000e+00 5.0000000e+00 
5.0000000e-01 5.0000000e+00 5.0000000e+00 
4.7500000e+00 5.0000000e+00 5.0000000e+00 
4.2500000e+00 5.0000000e+00 5.0000000e+00 
3.7500000e+00 5.0000000e+00 5.0000000e+00 
3.2500000e+00 5.0000000e+00 5.0000000e+00 
2.7500000e+00 5.0000000e+00 5.0000000e+00 
2.2500000e+00 5.0000000e+00 5.0000000e+00 
1.7500000e+00 5.0000000e+00 5.0000000e+00 
1.2500000e+00 5.0000000e+00 5.0000000e+00 
7.5000000e-01 5.0000000e+00 5.0000000e+00 
2.5000000e-01 5.0000000e+00 5.0000000e+00 
0.0000000e+00 4.5000000e+00 5.0000000e+00 
0.0000000e+00 4.0000000e+00 5.0000000e+00 
0.0000000e+00 3.5000000e+00 5.0000000e+00 
0.0000000e+00 3.0000000e+00 5.0000000e+00 
0.0000000e+00 2.5000000e+00 5.0000000e+00 
0.0000000e+00 2.0000000e+00 5.0000000e+00 
0.0000000e+00 1.5000000e+00 5.0000000e+00 
0.0000000e+00 1.0000000e+00 5.0000000e+00 
0.0000000e+00 5.0000000e-01 5.0000000e+00 
0.0000000e+00 4.7500000e+00 5.0000000e+00 
0.0000000e+00 4.2500000e+00 5.0000000e+00 
0.0000000e+00 3.7500000e+00 5.0000000e+00 
0.0000000e+00 3.2500000e+00 5.0000000e+00 
0.0000000e+00 2.7500000e+00 5.0000000e+00 
0.0000000e+00 2.2500000e+00 5.0000000e+00 
0.0000000e+00 1.7500000e+00 5.0000000e+00 
0.0000000e+00 1.2500000e+00 5.0000000e+00 
0.0000000e+00 7.5000000e-01 5.0000000e+00 
0.0000000e+00 2.5000000e-01 5.0000000e+00 
5.0000000e-01 5.0000000e+00 0.0000000e+00 
2.5000000e-01 5.0000000e+00 0.0000000e+00 
7.5000000e-01 5.0000000e+00 0.0000000e+00 
1.5000000e+00 5.0000000e+00 0.0000000e+00 
1.2500000e+00 5.0000000e+00 0.0000000e+00 
1.7500000e+00 5.0000000e+00 0.0000000e+00 
2.5000000e+00 5.0000000e+00 0.0000000e+00 
2.2500000e+00 5.0000000e+00 0.0000000e+00 
2.7500000e+00 5.0000000e+00 0.0000000e+00 
4.5000000e+00 5.0000000e+00 0.0000000e+00 
[...]
POINT_DATA 7661
FIELD FieldData 1
VELOCITY 3 7661  float
0.0000000e+00 0.0000000e+00 0.0000000e+00 
0.0000000e+00 0.0000000e+00 0.0000000e+00 
1.5265389e-01 1.5881306e-02 0.0000000e+00 
0.0000000e+00 -9.2775049e+00 0.0000000e+00 
0.0000000e+00 0.0000000e+00 0.0000000e+00 
0.0000000e+00 0.0000000e+00 0.0000000e+00 
-1.6539892e-03 -2.7719857e-02 1.6120516e-03 
0.0000000e+00 -4.5129962e-02 -8.4605655e-03 
-8.6674936e-02 -9.7327954e-01 0.0000000e+00 
3.3694082e-01 5.4700346e+00 0.0000000e+00 
-6.4082783e-01 -1.3009571e+00 0.0000000e+00 
0.0000000e+00 0.0000000e+00 0.0000000e+00 
0.0000000e+00 0.0000000e+00 0.0000000e+00 
0.0000000e+00 0.0000000e+00 0.0000000e+00 
0.0000000e+00 0.0000000e+00 0.0000000e+00 
0.0000000e+00 0.0000000e+00 0.0000000e+00 
0.0000000e+00 0.0000000e+00 0.0000000e+00 
0.0000000e+00 0.0000000e+00 0.0000000e+00 
0.0000000e+00 0.0000000e+00 0.0000000e+00 
0.0000000e+00 0.0000000e+00 0.0000000e+00 
0.0000000e+00 0.0000000e+00 0.0000000e+00 
0.0000000e+00 0.0000000e+00 0.0000000e+00 
0.0000000e+00 0.0000000e+00 0.0000000e+00 
0.0000000e+00 0.0000000e+00 0.0000000e+00 
0.0000000e+00 0.0000000e+00 0.0000000e+00 
0.0000000e+00 0.0000000e+00 0.0000000e+00 
0.0000000e+00 0.0000000e+00 0.0000000e+00 
0.0000000e+00 0.0000000e+00 0.0000000e+00 
0.0000000e+00 0.0000000e+00 0.0000000e+00 
0.0000000e+00 0.0000000e+00 0.0000000e+00 
-2.2194909e-03 9.1203703e-03 0.0000000e+00 
7.6107499e-03 -7.5560878e-04 0.0000000e+00 
1.4545812e-02 2.3011595e-03 0.0000000e+00 
4.0777300e-02 6.6337134e-03 0.0000000e+00 
6.0659725e-02 3.1559736e-02 0.0000000e+00 
-6.2493542e-03 -6.9010258e-02 0.0000000e+00 
5.6854837e-02 -3.2299172e-02 0.0000000e+00 
4.3267898e-02 3.0198484e-03 0.0000000e+00 
-1.3302100e-03 4.0922098e-02 0.0000000e+00 
2.9343432e-03 -2.6956957e-04 0.0000000e+00 
7.4936461e-04 -8.0028037e-03 0.0000000e+00 
5.9875576e-03 -2.8854902e-03 0.0000000e+00 
-1.0681931e-02 -7.9715503e-03 0.0000000e+00 
3.2054847e-03 8.1245825e-03 0.0000000e+00 
-4.4093188e-03 -1.1254963e-02 0.0000000e+00 
1.9142862e-02 -2.0640884e-02 0.0000000e+00 
1.9622255e-02 3.3668563e-02 0.0000000e+00 
-2.6426824e-02 -2.4345279e-02 0.0000000e+00 
-2.3131814e-02 -2.5001310e-02 0.0000000e+00 
0.0000000e+00 4.9636748e-01 0.0000000e+00 
0.0000000e+00 -2.5809282e-01 0.0000000e+00 
0.0000000e+00 -9.7946054e-01 0.0000000e+00 
0.0000000e+00 -4.8691196e+00 0.0000000e+00 
0.0000000e+00 -1.8648984e+00 0.0000000e+00 
0.0000000e+00 6.4711291e-01 0.0000000e+00 
0.0000000e+00 3.3534877e-02 0.0000000e+00 
0.0000000e+00 1.7343630e-01 0.0000000e+00 
0.0000000e+00 -4.9055148e-02 0.0000000e+00 
0.0000000e+00 -3.9785900e+00 0.0000000e+00 
0.0000000e+00 2.9646900e+00 0.0000000e+00 
0.0000000e+00 -7.4501771e-01 0.0000000e+00 
0.0000000e+00 -2.7094421e+00 0.0000000e+00 
0.0000000e+00 -2.5201280e+00 0.0000000e+00 
0.0000000e+00 -7.0369703e-01 0.0000000e+00 
0.0000000e+00 1.2074698e-02 0.0000000e+00 
0.0000000e+00 -7.7322125e-01 0.0000000e+00 
0.0000000e+00 -1.7722559e-03 0.0000000e+00 
0.0000000e+00 2.1915577e-02 0.0000000e+00 
0.0000000e+00 0.0000000e+00 0.0000000e+00 
0.0000000e+00 0.0000000e+00 0.0000000e+00 
0.0000000e+00 0.0000000e+00 0.0000000e+00 
0.0000000e+00 0.0000000e+00 0.0000000e+00 
0.0000000e+00 0.0000000e+00 0.0000000e+00 
0.0000000e+00 0.0000000e+00 0.0000000e+00 
0.0000000e+00 0.0000000e+00 0.0000000e+00 
0.0000000e+00 0.0000000e+00 0.0000000e+00 
0.0000000e+00 0.0000000e+00 0.0000000e+00 
0.0000000e+00 0.0000000e+00 0.0000000e+00 
0.0000000e+00 0.0000000e+00 0.0000000e+00 
0.0000000e+00 0.0000000e+00 0.0000000e+00 
0.0000000e+00 0.0000000e+00 0.0000000e+00 
0.0000000e+00 0.0000000e+00 0.0000000e+00 
0.0000000e+00 0.0000000e+00 0.0000000e+00 
0.0000000e+00 0.0000000e+00 0.0000000e+00 
0.0000000e+00 0.0000000e+00 0.0000000e+00 
0.0000000e+00 0.0000000e+00 0.0000000e+00 
0.0000000e+00 0.0000000e+00 0.0000000e+00 
0.0000000e+00 0.0000000e+00 0.0000000e+00 
0.0000000e+00 0.0000000e+00 0.0000000e+00 
0.0000000e+00 0.0000000e+00 0.0000000e+00 
0.0000000e+00 0.0000000e+00 0.0000000e+00 
0.0000000e+00 0.0000000e+00 0.0000000e+00 
0.0000000e+00 0.0000000e+00 0.0000000e+00 
0.0000000e+00 0.0000000e+00 0.0000000e+00 
0.0000000e+00 0.0000000e+00 0.0000000e+00 
0.0000000e+00 0.0000000e+00 0.0000000e+00 
0.0000000e+00 0.0000000e+00 0.0000000e+00 
0.0000000e+00 0.0000000e+00 0.0000000e+00 
0.0000000e+00 0.0000000e+00 0.0000000e+00 
0.0000000e+00 0.0000000e+00 0.0000000e+00 
0.0000000e+00 0.0000000e+00 0.0000000e+00 
0.0000000e+00 0.0000000e+00 0.0000000e+00 
0.0000000e+00 0.0000000e+00 0.0000000e+00 
0.0000000e+00 0.0000000e+00 0.0000000e+00 
0.0000000e+00 0.0000000e+00 0.0000000e+00 
0.0000000e+00 0.0000000e+00 0.0000000e+00 
0.0000000e+00 0.0000000e+00 0.0000000e+00 
0.0000000e+00 0.0000000e+00 0.0000000e+00 
0.0000000e+00 0.0000000e+00 0.0000000e+00 
0.0000000e+00 0.0000000e+00 0.0000000e+00 
0.0000000e+00 0.0000000e+00 0.0000000e+00 
0.0000000e+00 0.0000000e+00 0.0000000e+00 
0.0000000e+00 0.0000000e+00 0.0000000e+00 
0.0000000e+00 0.0000000e+00 0.0000000e+00 
0.0000000e+00 0.0000000e+00 0.0000000e+00 
0.0000000e+00 0.0000000e+00 0.0000000e+00 
0.0000000e+00 0.0000000e+00 0.0000000e+00 
0.0000000e+00 0.0000000e+00 0.0000000e+00 
0.0000000e+00 0.0000000e+00 0.0000000e+00 
0.0000000e+00 0.0000000e+00 0.0000000e+00 
0.0000000e+00 0.0000000e+00 0.0000000e+00 
0.0000000e+00 0.0000000e+00 0.0000000e+00 
0.0000000e+00 0.0000000e+00 0.0000000e+00 
0.0000000e+00 0.0000000e+00 0.0000000e+00 
0.0000000e+00 0.0000000e+00 0.0000000e+00 
-1.0779165e-02 -1.3856241e-02 -9.2396457e-03 
2.3082618e-03 -1.9339114e-02 2.0786751e-02 
-3.4567650e-02 -1.7141042e-02 1.4043080e-03 
-5.3153452e-02 1.5005875e-02 -4.7733847e-02 
-4.2943042e-03 -7.2515957e-02 6.9345557e-03 
-1.9505955e-02 -2.0975320e-02 -7.4162041e-03 
-1.0675726e-02 -1.3106666e-02 -6.7894356e-03 
-1.2421872e-02 -1.6910246e-02 -5.1301746e-03 
-6.0417661e-03 -2.9979523e-02 4.2804102e-03 
4.8435669e-02 -4.5590896e-02 8.4644370e-03 
-4.7489284e-03 1.8626932e-02 1.4675677e-02 
2.9993344e-03 -2.5948411e-02 4.0526027e-03 
-8.2667395e-03 -8.0529870e-03 6.9655809e-03 
5.7234699e-03 -6.7439708e-03 -2.1598976e-02 
-2.4132417e-03 -1.6139513e-02 -5.2600773e-03 
-1.0816678e-02 2.7240270e-03 -6.7436793e-03 
-1.8962765e-03 -4.7411397e-04 2.0830424e-03 
4.0297229e-03 5.6255027e-03 4.3788194e-04 
1.4949437e-03 -2.6232775e-03 1.3595689e-04 
-1.1353502e-03 -2.1675930e-03 -1.9279238e-03 
-8.8773936e-04 -6.6879480e-03 -1.1766609e-03 
-2.1410789e-03 -1.0966104e-03 -1.9940445e-03 
-1.2255795e-03 -6.5143467e-03 2.2936291e-04 
-1.6785740e-03 -7.4515808e-03 1.8597232e-03 
4.1935299e-04 -5.0656344e-03 1.5797489e-04 
-6.2749023e-04 -1.4726369e-02 -2.5848714e-03 
1.5613419e-03 -2.4196247e-02 -1.0514689e-03 
2.3360595e-03 -3.4897052e-02 4.1575506e-03 
3.2250475e-04 -2.7871823e-03 -2.2130623e-04 
-4.7123144e-04 2.6269900e-03 -8.9635956e-04 
-9.1699406e-04 -1.6982815e-03 -2.0120906e-04 
-6.2563963e-04 6.8087713e-04 -1.4707823e-03 
-1.1086038e-03 -1.3828704e-03 -1.4642789e-03 
1.9045812e-05 -8.3015457e-04 9.3314121e-04 
-6.1269465e-04 -1.0879746e-03 -6.6486851e-04 
1.0893261e-04 -9.4057797e-03 1.4363262e-03 
7.7858090e-04 -8.0929894e-04 -2.2342561e-03 
3.7000020e-04 -6.8314229e-03 -6.2496925e-04 
0.0000000e+00 5.0487189e+00 9.4453967e-01 
0.0000000e+00 -4.6423087e+00 4.5969184e-02 
0.0000000e+00 -6.7188495e-01 -9.1008633e-01 
0.0000000e+00 4.6130710e+00 8.7901038e-01 
0.0000000e+00 2.7805078e+00 -1.4678136e+00 
0.0000000e+00 -7.4279755e-01 -2.0942639e-01 
0.0000000e+00 -7.1927750e-01 2.3031149e-02 
0.0000000e+00 -1.1670298e-01 9.7361505e-02 
0.0000000e+00 -4.0668368e-01 -1.5675493e-01 
0.0000000e+00 -4.3013768e+00 3.9148089e-01 
0.0000000e+00 3.3111124e+00 9.8558122e-01 
0.0000000e+00 -6.6314106e+00 -1.0560296e+00 
0.0000000e+00 1.0166285e+00 -2.6697168e+00 
0.0000000e+00 -2.1371942e+00 2.5828233e+00 
0.0000000e+00 1.4834982e+00 9.2580158e-01 
0.0000000e+00 1.2809405e+00 -3.4087736e-02 
0.0000000e+00 1.8910062e-01 -5.6719691e-02 
0.0000000e+00 3.6033332e-01 -4.4365218e-03 
0.0000000e+00 1.0381335e-01 2.4324386e-04 
1.7997579e-03 -2.7400967e-02 -4.0429342e-03 
-7.8479825e-03 -1.3839344e-02 -5.3762868e-03 
-1.4869869e-02 5.9024356e-03 3.1207337e-03 
-3.5809581e-03 -1.3787118e-02 1.4084509e-02 
5.4699264e-02 -4.4196945e-02 2.6013101e-02 
5.7291396e-02 7.6810364e-04 -1.1842004e-02 
5.0716228e-03 1.3040476e-02 -2.9942248e-02 
3.3504918e-02 2.1106690e-02 6.7553390e-04 
-5.7627559e-03 5.7173695e-02 -3.6709405e-02 
1.1668039e-03 -5.8845771e-03 1.1833824e-03 
-4.6765045e-03 4.6750349e-03 -5.7720672e-04 
5.7656192e-03 -5.0495425e-03 6.0563516e-03 
6.7781366e-04 -2.4238441e-02 -9.9514844e-04 
4.4920822e-03 9.9006807e-03 1.0844030e-03 
2.2791717e-02 -3.9152461e-03 -5.7423171e-03 
1.6014267e-03 2.5095331e-02 -2.0660052e-02 
2.7393367e-02 -3.2663718e-02 1.4046008e-02 
6.0239225e-03 1.0883597e-02 -4.2901639e-04 
6.6134338e-03 -2.8318511e-02 2.2998763e-02 
0.0000000e+00 5.5615101e-02 -3.3592929e-03 
0.0000000e+00 1.2505963e-02 2.8103892e-02 
0.0000000e+00 4.2435173e-02 1.0350151e-02 
0.0000000e+00 3.6404382e-02 -1.2671999e-02 
0.0000000e+00 2.6231974e-02 -2.7276478e-03 
0.0000000e+00 1.3970816e-02 -6.3963574e-03 
0.0000000e+00 -3.6988631e-03 4.3167449e-03 
0.0000000e+00 -5.3700814e-03 4.4117942e-03 
0.0000000e+00 1.1526257e-03 6.1241747e-03 
0.0000000e+00 2.3022257e-02 3.3358221e-03 
0.0000000e+00 1.0636282e-02 1.2726036e-02 
0.0000000e+00 9.6425256e-03 2.1192767e-02 
0.0000000e+00 1.2562687e-02 8.1158726e-04 
0.0000000e+00 2.3205480e-02 -7.9235956e-03 
0.0000000e+00 1.6141800e-02 1.5402418e-03 
0.0000000e+00 1.7707011e-02 1.7412291e-03 
0.0000000e+00 1.2468227e-02 -2.2321827e-04 
0.0000000e+00 -2.8646635e-03 2.3103664e-03 
0.0000000e+00 6.8204873e-03 -8.8364986e-04 
3.6407013e+00 1.6542944e+00 0.0000000e+00 
1.3201574e+00 2.7078533e+00 0.0000000e+00 
-9.0518409e-01 2.7246165e-01 0.0000000e+00 
-1.4747072e+00 -1.3325741e+01 0.0000000e+00 
9.6483827e-01 -7.4304547e+00 0.0000000e+00 
-5.3672891e+00 -2.2439294e-01 0.0000000e+00 
-1.4695301e+00 2.0394914e+00 0.0000000e+00 
6.0555631e-01 -2.8875299e+00 0.0000000e+00 
1.3248230e+00 3.3001397e+00 0.0000000e+00 
4.0162203e-01 -3.9548162e-02 0.0000000e+00 
1.2500533e-01 -6.7321801e-01 0.0000000e+00 
-3.9152589e-01 -1.1273042e+00 0.0000000e+00 
-1.4988144e-01 -6.8971582e-02 0.0000000e+00 
-3.2491630e-01 -5.8553431e-02 0.0000000e+00 
-4.3690443e-02 3.4428564e-01 0.0000000e+00 
5.6911945e-01 1.1029111e+00 0.0000000e+00 
-2.7675334e-01 2.7093089e-01 0.0000000e+00 
1.9273480e-02 -1.4978525e-02 0.0000000e+00 
3.1310789e-02 3.4768526e-02 0.0000000e+00 
8.9129418e-01 -2.4337163e+00 0.0000000e+00 
-1.1057476e+00 2.9009573e+00 0.0000000e+00 
-2.6862718e-02 -1.6127646e-01 0.0000000e+00 
-5.1327548e-03 6.7627509e-03 0.0000000e+00 
-9.2450820e-02 -6.2341034e-01 0.0000000e+00 
1.3494380e+00 1.0132999e+00 0.0000000e+00 
2.2031205e-02 7.8626353e-01 0.0000000e+00 
5.6628462e-02 8.8451169e-03 0.0000000e+00 
4.9540610e-03 -2.2001676e-03 0.0000000e+00 
5.7990737e-03 -2.0489667e-03 0.0000000e+00 
3.3901486e-01 9.8402530e-01 0.0000000e+00 
-1.2337024e-01 -2.2145191e-01 0.0000000e+00 
-1.5625346e-01 -4.4359635e-03 0.0000000e+00 
-9.0246117e-01 -3.0326719e+00 0.0000000e+00 
-2.4062676e+00 -4.9505544e+00 0.0000000e+00 
1.2300059e+00 1.9319201e+00 0.0000000e+00 
4.1733584e+00 3.4645345e+00 0.0000000e+00 
1.3290615e+00 -2.2906308e+00 0.0000000e+00 
3.3720803e+00 3.5938352e-01 0.0000000e+00 
-9.1706139e-01 -1.0134020e-01 0.0000000e+00 
-7.4357760e-01 3.0197853e-01 0.0000000e+00 
1.5725926e-02 6.9146371e-01 0.0000000e+00 
-4.6093524e-01 -3.7972218e-01 0.0000000e+00 
9.3589598e-01 5.1255876e-01 0.0000000e+00 
3.0002919e-01 -3.7988377e-04 0.0000000e+00 
1.6973779e-01 -1.3125663e-01 0.0000000e+00 
5.2098626e-01 2.0292165e+00 0.0000000e+00 
4.6021350e-02 9.6099459e-02 0.0000000e+00 
-1.2455350e+00 -4.7649851e+00 0.0000000e+00 
-4.4242833e-03 -1.3104157e-01 0.0000000e+00 
2.2377439e-02 4.6778988e-02 0.0000000e+00 
-1.7382450e-01 3.3601765e-02 0.0000000e+00 
-3.6408477e-02 -4.7951348e-02 0.0000000e+00 
-1.0165724e-01 -2.7572047e-02 0.0000000e+00 
-9.6607707e-02 -5.4268166e-03 0.0000000e+00 
2.2628942e-01 -1.6061869e-01 0.0000000e+00 
-8.7823555e-02 7.1750984e-02 0.0000000e+00 
-1.5340675e-01 -1.0072330e-01 0.0000000e+00 
-1.5645240e-01 1.9266048e-01 0.0000000e+00 
-8.5674375e-01 -5.2687928e-02 0.0000000e+00 
1.0964782e+00 -3.9749926e-01 0.0000000e+00 
4.9983558e-01 4.4401419e-01 0.0000000e+00 
-1.7513487e+00 6.1942613e-01 0.0000000e+00 
4.9286737e+00 1.5329286e+00 0.0000000e+00 
2.0187311e-01 -3.8550272e+00 0.0000000e+00 
-1.2458963e-01 1.0723574e-01 0.0000000e+00 
1.1352603e+00 -3.8766036e+00 0.0000000e+00 
1.9766268e-01 -4.9089062e-01 0.0000000e+00 
-2.0722300e-01 1.1535494e+00 0.0000000e+00 
3.6586709e-02 1.9784519e-02 0.0000000e+00 
3.2408744e-02 6.9178626e-02 0.0000000e+00 
8.7567726e-03 3.5779484e-02 0.0000000e+00 
4.9950991e-02 6.3435532e-02 0.0000000e+00 
2.1351110e-02 1.1866206e-01 0.0000000e+00 
-1.0723492e-01 -9.9179931e-02 0.0000000e+00 
-4.5287013e-01 -7.5668412e-01 0.0000000e+00 
1.5197536e-01 9.7764862e-01 0.0000000e+00 
-3.1677242e-02 9.5997117e-02 0.0000000e+00 
-2.9872760e-02 -2.7984509e-01 0.0000000e+00 
-5.0520026e-03 -2.5752150e-03 0.0000000e+00 
-6.8572123e-04 2.5132648e-03 0.0000000e+00 
-8.2155108e-01 -2.0577736e+00 0.0000000e+00 
4.8750822e-02 1.5308890e-02 0.0000000e+00 
9.7909002e-03 8.4023755e-03 0.0000000e+00 
2.0551490e-02 -7.4944249e-03 0.0000000e+00 
1.0906744e+00 5.8552378e-01 0.0000000e+00 
8.9219886e-01 1.8686384e-01 0.0000000e+00 
-1.6374236e-01 -5.1975898e-02 0.0000000e+00 
2.0332909e+00 2.2516692e+00 0.0000000e+00 
2.9704991e-01 2.3052014e-01 0.0000000e+00 
-1.0048692e+00 -3.5176978e-01 0.0000000e+00 
8.1307493e-02 1.4441251e-02 0.0000000e+00 
1.4242883e+00 -1.5318360e+00 0.0000000e+00 
3.1047091e-01 -7.7567026e-02 0.0000000e+00 
9.2912221e-01 -7.9974979e-02 0.0000000e+00 
3.2415878e-02 1.3133481e+00 0.0000000e+00 
3.4672879e-03 3.3157896e-03 0.0000000e+00 
2.2732442e-02 -7.7640760e-04 0.0000000e+00 
-3.5118258e+00 1.8328115e-01 0.0000000e+00 
-7.8135513e-02 -4.9263877e-01 0.0000000e+00 
-1.3845614e-01 -2.2697231e-01 0.0000000e+00 
-2.8231317e-02 -2.2682965e-01 0.0000000e+00 
-4.8379697e-02 1.3456175e-01 0.0000000e+00 
-7.3228842e-01 -6.2291813e-01 0.0000000e+00 
-1.9019656e-02 1.3347019e-02 0.0000000e+00 
2.7725732e-02 -3.7906203e-02 0.0000000e+00 
-2.7145711e-03 1.5522543e-02 0.0000000e+00 
1.3191558e-01 -1.6221751e-02 0.0000000e+00 
-3.1047529e-02 -9.0862423e-02 0.0000000e+00 
5.7681363e-02 6.3718393e-02 0.0000000e+00 
-2.8701831e-02 -2.0568283e-02 0.0000000e+00 
-3.5367408e+00 -5.9505677e+00 0.0000000e+00 
1.7950225e-01 -2.7092588e+00 0.0000000e+00 
2.0278249e+00 3.5335200e+00 0.0000000e+00 
1.1827583e-02 2.2285746e-02 0.0000000e+00 
3.1958841e-02 -1.0250704e-01 0.0000000e+00 
3.4538540e-04 1.9069212e-03 0.0000000e+00 
5.4488230e-02 -6.1135244e-02 0.0000000e+00 
6.3327155e-03 -7.4020224e-03 0.0000000e+00 
-4.1200140e-01 -1.1484158e+00 0.0000000e+00 
8.0297934e-03 7.0231664e-03 0.0000000e+00 
-2.3160699e-01 -1.2519401e-02 0.0000000e+00 
5.3336681e-03 -2.2710819e-02 0.0000000e+00 
-1.4560543e-02 -2.2812113e-02 0.0000000e+00 
4.6365697e-02 5.8911409e-02 0.0000000e+00 
-3.2296036e-03 3.7195615e-03 0.0000000e+00 
1.4095888e-03 4.4516247e-04 0.0000000e+00 
-4.5188583e-04 -2.5012637e-03 0.0000000e+00 
-3.3697575e-02 6.2736422e-02 0.0000000e+00 
-1.8166833e-03 -1.2781062e-02 0.0000000e+00 
1.6985334e-01 -2.0863490e-01 0.0000000e+00 
1.7548692e+00 2.2556400e-01 0.0000000e+00 
1.0140674e+00 -2.4833214e-01 0.0000000e+00 
1.8671948e+00 4.0923090e+00 0.0000000e+00 
-8.2678026e-01 4.6537957e-01 0.0000000e+00 
-1.6165133e+00 3.3840218e-01 0.0000000e+00 
-1.8411158e+00 -2.1398795e+00 0.0000000e+00 
-2.2343032e+00 -1.0029638e+01 0.0000000e+00 
1.8626693e+00 1.5510825e+00 0.0000000e+00 
-6.5387279e-01 -7.0011430e+00 0.0000000e+00 
-6.4892679e-01 5.4379606e+00 0.0000000e+00 
-4.0061973e-02 -2.2144774e-01 0.0000000e+00 
6.6865098e-01 -2.3082178e+00 0.0000000e+00 
-8.0909693e-01 2.5246348e+00 0.0000000e+00 
3.3153680e-01 2.9141283e+00 0.0000000e+00 
-9.3344504e-01 -5.8240634e-01 0.0000000e+00 
-6.3173324e-02 5.6337059e-01 0.0000000e+00 
1.7152721e-01 1.5582989e-01 0.0000000e+00 
-5.8088247e-02 -5.2282578e-01 0.0000000e+00 
7.1266931e-03 4.3960024e-02 0.0000000e+00 
-9.0733012e-03 -3.6758722e-03 0.0000000e+00 
1.9922333e-02 8.1985883e-02 0.0000000e+00 
-3.1140517e-02 -2.6367303e-02 0.0000000e+00 
8.2997615e-03 -1.7676467e-02 0.0000000e+00 
-2.4850627e-03 -1.5085618e-02 0.0000000e+00 
-8.3915563e-03 6.9513302e-03 0.0000000e+00 
-3.1427946e-02 -1.5586478e-02 0.0000000e+00 
6.8996079e-02 6.3147843e-02 0.0000000e+00 
-4.6561691e-03 -9.3012489e-03 0.0000000e+00 
8.7191602e-03 -1.9695835e-02 0.0000000e+00 
3.3475839e-02 1.6829098e-02 0.0000000e+00 
-2.1255216e-02 -7.9648606e-03 0.0000000e+00 
-3.1397648e-03 -1.8127654e-02 0.0000000e+00 
2.2108914e-02 -6.6725696e-03 0.0000000e+00 
4.3433402e-03 7.0198573e-04 0.0000000e+00 
4.1469340e-03 1.6455745e-02 0.0000000e+00 
6.6529159e-03 -1.9167887e-02 0.0000000e+00 
7.9990401e-05 -4.3901354e-03 0.0000000e+00 
-3.6205854e-03 -8.4665576e-03 0.0000000e+00 
5.6771324e-03 7.0138387e-03 0.0000000e+00 
-1.8875027e-03 -6.3230476e-04 0.0000000e+00 
-3.0002053e-04 -7.0627686e-04 0.0000000e+00 
-2.0897831e-03 7.4393027e-03 0.0000000e+00 
7.0893147e-04 2.4370938e-03 0.0000000e+00 
2.5732387e-04 6.5607689e-03 0.0000000e+00 
7.2458456e-03 8.1846880e-04 0.0000000e+00 
-2.8090980e-03 -6.6030789e-03 0.0000000e+00 
2.9255226e-04 9.2139384e-03 0.0000000e+00 
4.2776288e-03 -2.6535862e-03 0.0000000e+00 
-5.2374555e-03 6.0186260e-03 0.0000000e+00 
2.1479640e-02 2.2994475e-02 0.0000000e+00 
5.9033092e-03 -1.8787242e-02 0.0000000e+00 
5.2376911e-03 7.5328806e-03 0.0000000e+00 
2.5036929e-02 2.9016670e-02 0.0000000e+00 
1.0140765e-02 5.3285300e-03 0.0000000e+00 
3.9344947e-03 1.5818961e-02 0.0000000e+00 
-1.7380904e-02 1.0715015e-02 0.0000000e+00 
9.0630110e-03 -1.8880877e-03 0.0000000e+00 
5.3497613e-03 1.4866699e-02 0.0000000e+00 
2.4792267e-02 6.9906697e-02 0.0000000e+00 
6.2482193e-02 5.5511180e-02 0.0000000e+00 
2.2014808e-02 2.3672167e-02 0.0000000e+00 
1.0007542e-03 2.2467533e-02 0.0000000e+00 
-1.6895548e-02 5.3418800e-02 0.0000000e+00 
-6.9710843e-02 -2.0404761e-01 0.0000000e+00 
-3.0711653e-02 -1.2833531e-02 0.0000000e+00 
-1.0965590e-02 3.9246596e-02 0.0000000e+00 
-2.3523614e-02 -1.9653009e-01 0.0000000e+00 
-2.6492309e-02 -1.0822184e-01 0.0000000e+00 
-2.1810367e+00 6.6147709e-01 0.0000000e+00 
-1.9279014e-02 -7.2495216e-01 0.0000000e+00 
-2.1214831e+00 7.3148471e-01 0.0000000e+00 
-3.4685839e-02 1.0443526e-01 0.0000000e+00 
1.6443744e-01 -1.9714895e-01 0.0000000e+00 
-5.8185136e-01 1.2703277e+00 0.0000000e+00 
2.2074935e+00 -3.1523712e+00 0.0000000e+00 
1.3913213e-01 -1.5840940e+00 0.0000000e+00 
-1.5456604e+00 -1.2297113e+00 0.0000000e+00 
-3.3184907e-01 -3.1800060e+00 0.0000000e+00 
2.1280324e+00 -2.8026631e+00 0.0000000e+00 
3.1950524e+00 -1.0435063e+00 0.0000000e+00 
5.0839579e-01 8.5487127e-01 0.0000000e+00 
-4.8595849e-01 -1.0778570e+00 0.0000000e+00 
5.1422614e-01 -2.8324037e+00 0.0000000e+00 
2.3160249e-01 -2.2471514e-02 0.0000000e+00 
-6.9591600e-01 -3.2743010e-01 0.0000000e+00 
-8.4353977e-01 9.2102307e-01 0.0000000e+00 
4.7368873e-02 -1.3696650e-01 0.0000000e+00 
1.0752217e-01 -1.7510143e-01 0.0000000e+00 
1.1651500e-02 -2.2586823e-01 0.0000000e+00 
-4.1691553e-02 -1.6808760e-01 0.0000000e+00 
3.1556267e-02 2.0309903e-01 0.0000000e+00 
1.0191918e-01 7.7793761e-03 0.0000000e+00 
-2.5012782e-02 -1.4584260e-02 0.0000000e+00 
-9.8685706e-01 4.8037985e-01 0.0000000e+00 
-1.3837777e+00 -5.8377233e+00 0.0000000e+00 
1.4863787e+00 -6.3611984e-01 0.0000000e+00 
-1.8768688e-01 -7.1145302e-01 0.0000000e+00 
7.4655429e-02 2.0860893e-01 0.0000000e+00 
-3.6218166e-02 9.6103743e-02 0.0000000e+00 
-7.0039012e-02 -2.8991550e-01 0.0000000e+00 
8.2838595e-02 6.1698180e-01 0.0000000e+00 
-2.6373893e-01 2.7328762e-01 0.0000000e+00 
-2.1210617e-01 -6.7464954e-01 0.0000000e+00 
3.5298386e-01 -2.1045239e+00 0.0000000e+00 