# vtk DataFile Version 4.0
vtk output
ASCII
DATASET UNSTRUCTURED_GRID
POINTS 7661 float
0.0000000e+00 0.0000000e+00 0.0000000e+00 
5.0000000e+00 0.0000000e+00 0.0000000e+00 
5.0000000e+00 5.0000000e+00 0.0000000e+00 
0.0000000e+00 5.0000000e+00 0.0000000e+00 
0.0000000e+00 0.0000000e+00 5.0000000e+00 
5.0000000e+00 0.0000000e+00 5.0000000e+00 
5.0000000e+00 5.0000000e+00 5.0000000e+00 
0.0000000e+00 5.0000000e+00 5.0000000e+00 
1.0000000e+00 5.0000000e+00 0.0000000e+00 
2.0000000e+00 5.0000000e+00 0.0000000e+00 
3.0000000e+00 5.0000000e+00 0.0000000e+00 
5.0000000e-01 0.0000000e+00 0.0000000e+00 
1.0000000e+00 0.0000000e+00 0.0000000e+00 
1.5000000e+00 0.0000000e+00 0.0000000e+00 
2.0000000e+00 0.0000000e+00 0.0000000e+00 
2.5000000e+00 0.0000000e+00 0.0000000e+00 
3.0000000e+00 0.0000000e+00 0.0000000e+00 
3.5000000e+00 0.0000000e+00 0.0000000e+00 
4.0000000e+00 0.0000000e+00 0.0000000e+00 
4.5000000e+00 0.0000000e+00 0.0000000e+00 
2.5000000e-01 0.0000000e+00 0.0000000e+00 
7.5000000e-01 0.0000000e+00 0.0000000e+00 
1.2500000e+00 0.0000000e+00 0.0000000e+00 
1.7500000e+00 0.0000000e+00 0.0000000e+00 
2.2500000e+00 0.0000000e+00 0.0000000e+00 
2.7500000e+00 0.0000000e+00 0.0000000e+00 
3.2500000e+00 0.0000000e+00 0.0000000e+00 
3.7500000e+00 0.0000000e+00 0.0000000e+00 
4.2500000e+00 0.0000000e+00 0.0000000e+00 
4.7500000e+00 0.0000000e+00 0.0000000e+00 
5.0000000e+00 5.0000000e-01 0.0000000e+00 
5.0000000e+00 1.0000000e+00 0.0000000e+00 
5.0000000e+00 1.5000000e+00 0.0000000e+00 
5.0000000e+00 2.0000000e+00 0.0000000e+00 
5.0000000e+00 2.5000000e+00 0.0000000e+00 
5.0000000e+00 3.0000000e+00 0.0000000e+00 
5.0000000e+00 3.5000000e+00 0.0000000e+00 
5.0000000e+00 4.0000000e+00 0.0000000e+00 
5.0000000e+00 4.5000000e+00 0.0000000e+00 
5.0000000e+00 2.5000000e-01 0.0000000e+00 
5.0000000e+00 7.5000000e-01 0.0000000e+00 
5.0000000e+00 1.2500000e+00 0.0000000e+00 
5.0000000e+00 1.7500000e+00 0.0000000e+00 
5.0000000e+00 2.2500000e+00 0.0000000e+00 
5.0000000e+00 2.7500000e+00 0.0000000e+00 
5.0000000e+00 3.2500000e+00 0.0000000e+00 
5.0000000e+00 3.7500000e+00 0.0000000e+00 
5.0000000e+00 4.2500000e+00 0.0000000e+00 
5.0000000e+00 4.7500000e+00 0.0000000e+00 
0.0000000e+00 4.5000000e+00 0.0000000e+00 
0.0000000e+00 4.0000000e+00 0.0000000e+00 
0.0000000e+00 3.5000000e+00 0.0000000e+00 
0.0000000e+00 3.0000000e+00 0.0000000e+00 
0.0000000e+00 2.5000000e+00 0.0000000e+00 
0.0000000e+00 2.0000000e+00 0.0000000e+00 
0.0000000e+00 1.5000000e+00 0.0000000e+00 
0.0000000e+00 1.0000000e+00 0.0000000e+00 
0.0000000e+00 5.0000000e-01 0.0000000e+00 
0.0000000e+00 4.7500000e+00 0.0000000e+00 
0.0000000e+00 4.2500000e+00 0.0000000e+00 
0.0000000e+00 3.7500000e+00 0.0000000e+00 
0.0000000e+00 3.2500000e+00 0.0000000e+00 
0.0000000e+00 2.7500000e+00 0.0000000e+00 
0.0000000e+00 2.2500000e+00 0.0000000e+00 
0.0000000e+00 1.7500000e+00 0.0000000e+00 
0.0000000e+00 1.2500000e+00 0.0000000e+00 
0.0000000e+00 7.5000000e-01 0.0000000e+00 
0.0000000e+00 2.5000000e-01 0.0000000e+00 
0.0000000e+00 0.0000000e+00 5.0000000e-01 
0.0000000e+00 0.0000000e+00 1.0000000e+00 
0.0000000e+00 0.0000000e+00 1.5000000e+00 
0.0000000e+00 0.0000000e+00 2.0000000e+00 
0.0000000e+00 0.0000000e+00 2.5000000e+00 
0.0000000e+00 0.0000000e+00 3.0000000e+00 
0.0000000e+00 0.0000000e+00 3.5000000e+00 
0.0000000e+00 0.0000000e+00 4.0000000e+00 
0.0000000e+00 0.0000000e+00 4.5000000e+00 
0.0000000e+00 0.0000000e+00 2.5000000e-01 
0.0000000e+00 0.0000000e+00 7.5000000e-01 
0.0000000e+00 0.0000000e+00 1.2500000e+00 
0.0000000e+00 0.0000000e+00 1.7500000e+00 
0.0000000e+00 0.0000000e+00 2.2500000e+00 
0.0000000e+00 0.0000000e+00 2.7500000e+00 
0.0000000e+00 0.0000000e+00 3.2500000e+00 
0.0000000e+00 0.0000000e+00 3.7500000e+00 
0.0000000e+00 0.0000000e+00 4.2500000e+00 
0.0000000e+00 0.0000000e+00 4.7500000e+00 
5.0000000e+00 0.0000000e+00 5.0000000e-01 
5.0000000e+00 0.0000000e+00 1.0000000e+00 
5.0000000e+00 0.0000000e+00 1.5000000e+00 
5.0000000e+00 0.0000000e+00 2.0000000e+00 
5.0000000e+00 0.0000000e+00 2.5000000e+00 
5.0000000e+00 0.0000000e+00 3.0000000e+00 
5.0000000e+00 0.0000000e+00 3.5000000e+00 
5.0000000e+00 0.0000000e+00 4.0000000e+00 
5.0000000e+00 0.0000000e+00 4.5000000e+00 
5.0000000e+00 0.0000000e+00 2.5000000e-01 
5.0000000e+00 0.0000000e+00 7.5000000e-01 
5.0000000e+00 0.0000000e+00 1.2500000e+00 
5.0000000e+00 0.0000000e+00 1.7500000e+00 
5.0000000e+00 0.0000000e+00 2.2500000e+00 
5.0000000e+00 0.0000000e+00 2.7500000e+00 
5.0000000e+00 0.0000000e+00 3.2500000e+00 
5.0000000e+00 0.0000000e+00 3.7500000e+00 
5.0000000e+00 0.0000000e+00 4.2500000e+00 
5.0000000e+00 0.0000000e+00 4.7500000e+00 
5.0000000e-01 0.0000000e+00 5.0000000e+00 
1.0000000e+00 0.0000000e+00 5.0000000e+00 
1.5000000e+00 0.0000000e+00 5.0000000e+00 
2.0000000e+00 0.0000000e+00 5.0000000e+00 
2.5000000e+00 0.0000000e+00 5.0000000e+00 
3.0000000e+00 0.0000000e+00 5.0000000e+00 
3.5000000e+00 0.0000000e+00 5.0000000e+00 
4.0000000e+00 0.0000000e+00 5.0000000e+00 
4.5000000e+00 0.0000000e+00 5.0000000e+00 
2.5000000e-01 0.0000000e+00 5.0000000e+00 
7.5000000e-01 0.0000000e+00 5.0000000e+00 
1.2500000e+00 0.0000000e+00 5.0000000e+00 
1.7500000e+00 0.0000000e+00 5.0000000e+00 
2.2500000e+00 0.0000000e+00 5.0000000e+00 
2.7500000e+00 0.0000000e+00 5.0000000e+00 
3.2500000e+00 0.0000000e+00 5.0000000e+00 
3.7500000e+00 0.0000000e+00 5.0000000e+00 
4.2500000e+00 0.0000000e+00 5.0000000e+00 
4.7500000e+00 0.0000000e+00 5.0000000e+00 
5.0000000e+00 5.0000000e+00 5.0000000e-01 
5.0000000e+00 5.0000000e+00 1.0000000e+00 
5.0000000e+00 5.0000000e+00 1.5000000e+00 
5.0000000e+00 5.0000000e+00 2.0000000e+00 
5.0000000e+00 5.0000000e+00 2.5000000e+00 
5.0000000e+00 5.0000000e+00 3.0000000e+00 
5.0000000e+00 5.0000000e+00 3.5000000e+00 
5.0000000e+00 5.0000000e+00 4.0000000e+00 
5.0000000e+00 5.0000000e+00 4.5000000e+00 
5.0000000e+00 5.0000000e+00 2.5000000e-01 
5.0000000e+00 5.0000000e+00 7.5000000e-01 
5.0000000e+00 5.0000000e+00 1.2500000e+00 
5.0000000e+00 5.0000000e+00 1.7500000e+00 
5.0000000e+00 5.0000000e+00 2.2500000e+00 
5.0000000e+00 5.0000000e+00 2.7500000e+00 
5.0000000e+00 5.0000000e+00 3.2500000e+00 
5.0000000e+00 5.0000000e+00 3.7500000e+00 
5.0000000e+00 5.0000000e+00 4.2500000e+00 
5.0000000e+00 5.0000000e+00 4.7500000e+00 
5.0000000e+00 5.0000000e-01 5.0000000e+00 
5.0000000e+00 1.0000000e+00 5.0000000e+00 
5.0000000e+00 1.5000000e+00 5.0000000e+00 
5.0000000e+00 2.0000000e+00 5.0000000e+00 
5.0000000e+00 2.5000000e+00 5.0000000e+00 
5.0000000e+00 3.0000000e+00 5.0000000e+00 
5.0000000e+00 3.5000000e+00 5.0000000e+00 
5.0000000e+00 4.0000000e+00 5.0000000e+00 
5.0000000e+00 4.5000000e+00 5.0000000e+00 
5.0000000e+00 2.5000000e-01 5.0000000e+00 
5.0000000e+00 7.5000000e-01 5.0000000e+00 
5.0000000e+00 1.2500000e+00 5.0000000e+00 
5.0000000e+00 1.7500000e+00 5.0000000e+00 
5.0000000e+00 2.2500000e+00 5.0000000e+00 
5.0000000e+00 2.7500000e+00 5.0000000e+00 
5.0000000e+00 3.2500000e+00 5.0000000e+00 
5.0000000e+00 3.7500000e+00 5.0000000e+00 
5.0000000e+00 4.2500000e+00 5.0000000e+00 
5.0000000e+00 4.7500000e+00 5.0000000e+00 
0.0000000e+00 5.0000000e+00 5.0000000e-01 
0.0000000e+00 5.0000000e+00 1.0000000e+00 
0.0000000e+00 5.0000000e+00 1.5000000e+00 
0.0000000e+00 5.0000000e+00 2.0000000e+00 
0.0000000e+00 5.0000000e+00 2.5000000e+00 
0.0000000e+00 5.0000000e+00 3.0000000e+00 
0.0000000e+00 5.0000000e+00 3.5000000e+00 
0.0000000e+00 5.0000000e+00 4.0000000e+00 
0.0000000e+00 5.0000000e+00 4.5000000e+00 
0.0000000e+00 5.0000000e+00 2.5000000e-01 
0.0000000e+00 5.0000000e+00 7.5000000e-01 
0.0000000e+00 5.0000000e+00 1.2500000e+00 
0.0000000e+00 5.0000000e+00 1.7500000e+00 
0.0000000e+00 5.0000000e+00 2.2500000e+00 
0.0000000e+00 5.0000000e+00 2.7500000e+00 
0.0000000e+00 5.0000000e+00 3.2500000e+00 
0.0000000e+00 5.0000000e+00 3.7500000e+00 
0.0000000e+00 5.0000000e+00 4.2500000e+00 
0.0000000e+00 5.0000000e+00 4.7500000e+00 
4.5000000e+00 5.0000000e+00 5.0000000e+00 
4.0000000e+00 5.0000000e+00 5.0000000e+00 
3.5000000e+00 5.0000000e+00 5.0000000e+00 
3.0000000e+00 5.0000000e+00 5.0000000e+00 
2.5000000e+00 5.0000000e+00 5.0000000e+00 
2.0000000e+00 5.0000000e+00 5.0000000e+00 
1.5000000e+00 5.0000000e+00 5.0000000e+00 
1.0000000e+00 5.0000000e+00 5.0000000e+00 
5.0000000e-01 5.0000000e+00 5.0000000e+00 
4.7500000e+00 5.0000000e+00 5.0000000e+00 
4.2500000e+00 5.0000000e+00 5.0000000e+00 
3.7500000e+00 5.0000000e+00 5.0000000e+00 
3.2500000e+00 5.0000000e+00 5.0000000e+00 
2.7500000e+00 5.0000000e+00 5.0000000e+00 
2.2500000e+00 5.0000000e+00 5.0000000e+00 
1.7500000e+00 5.0000000e+00 5.0000000e+00 
1.2500000e+00 5.0000000e+00 5.0000000e+00 
7.5000000e-01 5.0000000e+00 5.0000000e+00 
2.5000000e-01 5.0000000e+00 5.0000000e+00 
0.0000000e+00 4.5000000e+00 5.0000000e+00 
0.0000000e+00 4.0000000e+00 5.0000000e+00 
0.0000000e+00 3.5000000e+00 5.0000000e+00 
0.0000000e+00 3.0000000e+00 5.0000000e+00 
0.0000000e+00 2.5000000e+00 5.0000000e+00 
0.0000000e+00 2.0000000e+00 5.0000000e+00 
0.0000000e+00 1.5000000e+00 5.0000000e+00 
0.0000000e+00 1.0000000e+00 5.0000000e+00 
0.0000000e+00 5.0000000e-01 5.0000000e+00 
0.0000000e+00 4.7500000e+00 5.0000000e+00 
0.0000000e+00 4.2500000e+00 5.0000000e+00 
0.0000000e+00 3.7500000e+00 5.0000000e+00 
0.0000000e+00 3.2500000e+00 5.0000000e+00 
0.0000000e+00 2.7500000e+00 5.0000000e+00 
0.0000000e+00 2.2500000e+00 5.0000000e+00 
0.0000000e+00 1.7500000e+00 5.0000000e+00 
0.0000000e+00 1.2500000e+00 5.0000000e+00 
0.0000000e+00 7.5000000e-01 5.0000000e+00 
0.0000000e+00 2.5000000e-01 5.0000000e+00 
5.0000000e-01 5.0000000e+00 0.0000000e+00 
2.5000000e-01 5.0000000e+00 0.0000000e+00 
7.5000000e-01 5.0000000e+00 0.0000000e+00 
1.5000000e+00 5.0000000e+00 0.0000000e+00 
1.2500000e+00 5.0000000e+00 0.0000000e+00 
1.7500000e+00 5.0000000e+00 0.0000000e+00 
2.5000000e+00 5.0000000e+00 0.0000000e+00 
2.2500000e+00 5.0000000e+00 0.0000000e+00 
2.7500000e+00 5.0000000e+00 0.0000000e+00 
4.5000000e+00 5.0000000e+00 0.0000000e+00 
[...]
POINT_DATA 7661
FIELD FieldData 1
VELOCITY 3 7661  float
0.0000000e+00 0.0000000e+00 0.0000000e+00 
0.0000000e+00 0.0000000e+00 0.0000000e+00 
-2.6684543e-02 -1.7154723e-02 0.0000000e+00 
0.0000000e+00 3.3696383e-01 0.0000000e+00 
0.0000000e+00 0.0000000e+00 0.0000000e+00 
0.0000000e+00 0.0000000e+00 0.0000000e+00 
-1.7109878e-02 -4.6152184e-03 -2.1630650e-02 
0.0000000e+00 3.8238026e-02 -1.1321868e-01 
4.1551799e-02 4.4906847e-02 0.0000000e+00 
9.0708621e-02 1.4067382e-01 0.0000000e+00 
1.5711567e-01 -2.6542380e-02 0.0000000e+00 
0.0000000e+00 0.0000000e+00 0.0000000e+00 
0.0000000e+00 0.0000000e+00 0.0000000e+00 
0.0000000e+00 0.0000000e+00 0.0000000e+00 
0.0000000e+00 0.0000000e+00 0.0000000e+00 
0.0000000e+00 0.0000000e+00 0.0000000e+00 
0.0000000e+00 0.0000000e+00 0.0000000e+00 
0.0000000e+00 0.0000000e+00 0.0000000e+00 
0.0000000e+00 0.0000000e+00 0.0000000e+00 
0.0000000e+00 0.0000000e+00 0.0000000e+00 
0.0000000e+00 0.0000000e+00 0.0000000e+00 
0.0000000e+00 0.0000000e+00 0.0000000e+00 
0.0000000e+00 0.0000000e+00 0.0000000e+00 
0.0000000e+00 0.0000000e+00 0.0000000e+00 
0.0000000e+00 0.0000000e+00 0.0000000e+00 
0.0000000e+00 0.0000000e+00 0.0000000e+00 
0.0000000e+00 0.0000000e+00 0.0000000e+00 
0.0000000e+00 0.0000000e+00 0.0000000e+00 
0.0000000e+00 0.0000000e+00 0.0000000e+00 
0.0000000e+00 0.0000000e+00 0.0000000e+00 
-2.3858938e-02 -1.3658694e-02 0.0000000e+00 
-7.8638373e-03 5.6502834e-02 0.0000000e+00 
-7.7481056e-03 5.0987680e-02 0.0000000e+00 
1.7509236e-03 -6.0529020e-03 0.0000000e+00 
4.3045292e-03 1.5411656e-02 0.0000000e+00 
1.0402513e-02 4.5843601e-02 0.0000000e+00 
9.3736527e-03 1.2909723e-02 0.0000000e+00 
-8.3164247e-03 -2.1637859e-02 0.0000000e+00 
3.7384212e-02 -5.4042351e-02 0.0000000e+00 
-1.3645424e-02 -1.1119577e-02 0.0000000e+00 
-1.7272236e-02 2.3978505e-02 0.0000000e+00 
-6.8268897e-03 6.3346550e-02 0.0000000e+00 
-5.3550820e-03 2.6913891e-02 0.0000000e+00 
-1.7785542e-03 -1.1810104e-02 0.0000000e+00 
2.2989325e-03 4.2550143e-02 0.0000000e+00 
1.8860349e-02 3.5032589e-02 0.0000000e+00 
-3.8343057e-04 -4.3839719e-03 0.0000000e+00 
1.2537875e-02 -4.2992443e-02 0.0000000e+00 
2.5696676e-02 -3.1130258e-02 0.0000000e+00 
0.0000000e+00 2.6591751e-01 0.0000000e+00 
0.0000000e+00 2.3394354e-01 0.0000000e+00 
0.0000000e+00 2.6039216e-01 0.0000000e+00 
0.0000000e+00 -1.3716516e-01 0.0000000e+00 
0.0000000e+00 -1.8921813e-01 0.0000000e+00 
0.0000000e+00 4.8396219e-02 0.0000000e+00 
0.0000000e+00 -6.4728126e-02 0.0000000e+00 
0.0000000e+00 -2.0033756e-01 0.0000000e+00 
0.0000000e+00 -1.2199147e-01 0.0000000e+00 
0.0000000e+00 3.0792117e-01 0.0000000e+00 
0.0000000e+00 2.4182123e-01 0.0000000e+00 
0.0000000e+00 2.7652979e-01 0.0000000e+00 
0.0000000e+00 6.4252928e-02 0.0000000e+00 
0.0000000e+00 -2.0606121e-01 0.0000000e+00 
0.0000000e+00 -7.7174447e-02 0.0000000e+00 
0.0000000e+00 4.3234028e-02 0.0000000e+00 
0.0000000e+00 -1.5634446e-01 0.0000000e+00 
0.0000000e+00 -1.7650409e-01 0.0000000e+00 
0.0000000e+00 -6.2525369e-02 0.0000000e+00 
0.0000000e+00 0.0000000e+00 0.0000000e+00 
0.0000000e+00 0.0000000e+00 0.0000000e+00 
0.0000000e+00 0.0000000e+00 0.0000000e+00 
0.0000000e+00 0.0000000e+00 0.0000000e+00 
0.0000000e+00 0.0000000e+00 0.0000000e+00 
0.0000000e+00 0.0000000e+00 0.0000000e+00 
0.0000000e+00 0.0000000e+00 0.0000000e+00 
0.0000000e+00 0.0000000e+00 0.0000000e+00 
0.0000000e+00 0.0000000e+00 0.0000000e+00 
0.0000000e+00 0.0000000e+00 0.0000000e+00 
0.0000000e+00 0.0000000e+00 0.0000000e+00 
0.0000000e+00 0.0000000e+00 0.0000000e+00 
0.0000000e+00 0.0000000e+00 0.0000000e+00 
0.0000000e+00 0.0000000e+00 0.0000000e+00 
0.0000000e+00 0.0000000e+00 0.0000000e+00 
0.0000000e+00 0.0000000e+00 0.0000000e+00 
0.0000000e+00 0.0000000e+00 0.0000000e+00 
0.0000000e+00 0.0000000e+00 0.0000000e+00 
0.0000000e+00 0.0000000e+00 0.0000000e+00 
0.0000000e+00 0.0000000e+00 0.0000000e+00 
0.0000000e+00 0.0000000e+00 0.0000000e+00 
0.0000000e+00 0.0000000e+00 0.0000000e+00 
0.0000000e+00 0.0000000e+00 0.0000000e+00 
0.0000000e+00 0.0000000e+00 0.0000000e+00 
0.0000000e+00 0.0000000e+00 0.0000000e+00 
0.0000000e+00 0.0000000e+00 0.0000000e+00 
0.0000000e+00 0.0000000e+00 0.0000000e+00 
0.0000000e+00 0.0000000e+00 0.0000000e+00 
0.0000000e+00 0.0000000e+00 0.0000000e+00 
0.0000000e+00 0.0000000e+00 0.0000000e+00 
0.0000000e+00 0.0000000e+00 0.0000000e+00 
0.0000000e+00 0.0000000e+00 0.0000000e+00 
0.0000000e+00 0.0000000e+00 0.0000000e+00 
0.0000000e+00 0.0000000e+00 0.0000000e+00 
0.0000000e+00 0.0000000e+00 0.0000000e+00 
0.0000000e+00 0.0000000e+00 0.0000000e+00 
0.0000000e+00 0.0000000e+00 0.0000000e+00 
0.0000000e+00 0.0000000e+00 0.0000000e+00 
0.0000000e+00 0.0000000e+00 0.0000000e+00 
0.0000000e+00 0.0000000e+00 0.0000000e+00 
0.0000000e+00 0.0000000e+00 0.0000000e+00 
0.0000000e+00 0.0000000e+00 0.0000000e+00 
0.0000000e+00 0.0000000e+00 0.0000000e+00 
0.0000000e+00 0.0000000e+00 0.0000000e+00 
0.0000000e+00 0.0000000e+00 0.0000000e+00 
0.0000000e+00 0.0000000e+00 0.0000000e+00 
0.0000000e+00 0.0000000e+00 0.0000000e+00 
0.0000000e+00 0.0000000e+00 0.0000000e+00 
0.0000000e+00 0.0000000e+00 0.0000000e+00 
0.0000000e+00 0.0000000e+00 0.0000000e+00 
0.0000000e+00 0.0000000e+00 0.0000000e+00 
0.0000000e+00 0.0000000e+00 0.0000000e+00 
0.0000000e+00 0.0000000e+00 0.0000000e+00 
0.0000000e+00 0.0000000e+00 0.0000000e+00 
0.0000000e+00 0.0000000e+00 0.0000000e+00 
0.0000000e+00 0.0000000e+00 0.0000000e+00 
0.0000000e+00 0.0000000e+00 0.0000000e+00 
-5.1241564e-03 8.9553781e-02 -8.2998604e-02 
4.4117525e-02 1.3264298e-01 -3.8536873e-02 
-1.8644737e-03 1.1894914e-01 1.2593740e-02 
-4.1484348e-02 1.7357635e-01 -1.6363231e-02 
-3.5970986e-02 1.5144648e-01 3.9688494e-02 
-5.9258111e-02 1.2846588e-01 -4.9489918e-03 
-4.9264736e-02 7.9034969e-02 -1.1544538e-02 
-6.0158629e-02 4.2007569e-02 -3.9518517e-02 
-1.8854033e-02 -8.8675627e-03 -1.9321855e-02 
-2.6095832e-02 2.7073588e-02 -5.6197725e-02 
1.9828765e-02 1.2459935e-01 -6.5673202e-02 
3.2478686e-02 1.3090393e-01 -1.4662914e-03 
-3.6549505e-02 1.2862684e-01 -4.2513465e-03 
-3.4555271e-02 1.8296298e-01 1.1992243e-02 
-5.9070010e-02 1.2909621e-01 1.9146718e-02 
-5.0055906e-02 1.0661971e-01 -6.9013764e-03 
-5.9877627e-02 5.6965422e-02 -2.4192488e-02 
-4.0367883e-02 3.1515211e-02 -3.7129428e-02 
-1.6720243e-02 -2.8035507e-02 -1.9532060e-02 
1.4419556e-02 -2.3503082e-03 1.2744486e-02 
4.7093416e-03 -1.4955171e-03 1.0114078e-02 
-2.4095619e-02 7.2915237e-03 -1.3192936e-02 
-3.1851616e-02 4.0846057e-02 -3.5767488e-02 
-1.7439246e-02 5.7455957e-02 -1.9301947e-02 
-1.1174312e-02 5.4708827e-02 -1.6243218e-02 
4.0495098e-03 4.5054652e-02 -2.7440207e-03 
-8.9082299e-03 3.0560153e-02 -5.6942762e-03 
-1.2065916e-02 -9.9234364e-04 -4.2350423e-03 
6.7472402e-03 -4.9622231e-03 4.7397874e-03 
1.5515095e-02 -4.3459036e-03 1.5306231e-02 
-7.7814204e-03 3.1773569e-03 -2.6249946e-03 
-3.4148645e-02 2.5471298e-02 -2.8314423e-02 
-2.2523701e-02 5.0302021e-02 -2.9628485e-02 
-1.5455713e-02 5.7395525e-02 -1.3852959e-02 
-2.7665403e-03 4.8631661e-02 -7.1088709e-03 
-1.1842436e-03 4.3927789e-02 2.7208321e-04 
-1.1893874e-02 1.2277334e-02 -9.9779535e-03 
-1.0615173e-02 -1.8880867e-03 -9.9380016e-03 
0.0000000e+00 1.9029103e-01 1.0264542e-01 
0.0000000e+00 3.5141535e-02 8.9108355e-02 
0.0000000e+00 1.2668875e-01 -9.9088252e-03 
0.0000000e+00 7.3834985e-02 7.5010069e-02 
0.0000000e+00 -3.2887187e-02 2.1081902e-02 
0.0000000e+00 4.0790245e-02 1.3925296e-01 
0.0000000e+00 -1.6067724e-01 6.1491296e-02 
0.0000000e+00 -1.1500357e-01 9.8931566e-02 
0.0000000e+00 -1.8800814e-01 1.7358720e-02 
0.0000000e+00 2.7013350e-01 6.5207377e-02 
0.0000000e+00 9.9369295e-02 1.1764442e-01 
0.0000000e+00 5.8017518e-02 2.3393253e-02 
0.0000000e+00 1.5397097e-01 1.8182334e-02 
0.0000000e+00 -2.9941280e-03 7.4882820e-02 
0.0000000e+00 7.4929453e-02 3.5856776e-02 
0.0000000e+00 -1.2748021e-01 1.4636888e-01 
0.0000000e+00 -9.2972778e-02 4.9841825e-02 
0.0000000e+00 -2.0432942e-01 8.0989920e-02 
0.0000000e+00 -9.2898361e-02 -4.7500491e-02 
-2.0471582e-02 -1.1533017e-03 -1.5480885e-02 
-3.6028642e-02 3.9321236e-02 -6.2731542e-02 
-3.3633073e-03 6.1288882e-02 -4.4270750e-02 
-2.6849372e-02 9.2587888e-02 -3.5038043e-02 
2.0161172e-02 8.4199846e-02 -2.4742056e-02 
3.0078800e-02 1.4603253e-01 5.6778556e-03 
-1.7506105e-04 1.5664421e-01 -1.2985072e-03 
-3.6248796e-02 1.6145016e-01 2.6806274e-02 
-7.6637261e-02 1.1607109e-01 -4.1006379e-02 
-1.6786385e-02 -2.3496129e-02 -1.8658502e-02 
-3.7979960e-02 3.1770337e-02 -3.7244428e-02 
-1.5278231e-02 4.4210795e-02 -6.4251795e-02 
-2.1009922e-02 9.1929957e-02 -3.6994182e-02 
-9.5426850e-03 8.7810099e-02 -4.0331267e-02 
3.4587543e-02 1.1632922e-01 6.5988686e-04 
4.3358840e-03 1.6052851e-01 -6.8891882e-03 
-6.7393356e-03 1.5209030e-01 1.6333858e-02 
-6.4677574e-02 1.4925550e-01 1.9644405e-04 
-5.2369643e-02 6.8163015e-02 -8.5279241e-02 
0.0000000e+00 -1.4882948e-02 2.2246370e-02 
0.0000000e+00 -2.1197299e-02 6.3046901e-03 
0.0000000e+00 1.6845258e-02 6.2985490e-03 
0.0000000e+00 4.2705875e-02 9.0441834e-03 
0.0000000e+00 2.4025762e-02 1.5086478e-02 
0.0000000e+00 -2.0676641e-02 5.0940868e-03 
0.0000000e+00 4.2140562e-02 -2.7292328e-02 
0.0000000e+00 4.7518343e-02 -9.9773202e-03 
0.0000000e+00 2.9767208e-02 -2.1899033e-02 
0.0000000e+00 1.0771328e-02 -3.2107621e-03 
0.0000000e+00 -2.2924231e-02 1.7898267e-02 
0.0000000e+00 -4.3740803e-03 9.4496245e-03 
0.0000000e+00 3.6897775e-02 5.8839037e-03 
0.0000000e+00 3.8676709e-02 9.4335349e-03 
0.0000000e+00 -2.0992856e-03 1.6101917e-02 
0.0000000e+00 -1.4641142e-04 -1.9571608e-02 
0.0000000e+00 6.1883274e-02 -1.6027020e-02 
0.0000000e+00 3.8240165e-02 -2.5748029e-02 
0.0000000e+00 1.5765464e-02 2.8603165e-03 
7.0757248e-02 2.0430589e-01 0.0000000e+00 
4.9254909e-02 2.7112445e-01 0.0000000e+00 
7.6962307e-02 1.4853473e-01 0.0000000e+00 
-7.3067650e-02 1.1515956e-01 0.0000000e+00 
-3.1874385e-02 7.8828279e-03 0.0000000e+00 
2.0075811e-03 1.9938987e-01 0.0000000e+00 
7.2416387e-02 5.2016448e-02 0.0000000e+00 
9.3018346e-02 4.9845815e-02 0.0000000e+00 
1.0238874e-01 5.4805346e-02 0.0000000e+00 
-3.8707942e-02 -8.4557682e-02 0.0000000e+00 
8.9000255e-02 -1.2119082e-01 0.0000000e+00 
5.7888947e-02 -1.5665382e-01 0.0000000e+00 
-1.5954524e-02 -4.5819554e-02 0.0000000e+00 
1.6019043e-02 -1.7037803e-01 0.0000000e+00 
6.0044538e-02 -8.4633008e-02 0.0000000e+00 
1.2993175e-01 -1.4490524e-01 0.0000000e+00 
4.2427998e-02 8.5310645e-02 0.0000000e+00 
8.0694683e-02 -2.6908634e-02 0.0000000e+00 
-1.5623105e-02 -3.8327053e-02 0.0000000e+00 
6.0508028e-02 -1.7848097e-01 0.0000000e+00 
3.4774695e-02 1.6705230e-01 0.0000000e+00 
2.5507933e-02 1.3161678e-02 0.0000000e+00 
9.3610778e-02 4.2419154e-02 0.0000000e+00 
-5.8850367e-02 -5.7154931e-03 0.0000000e+00 
2.2924546e-02 2.3579688e-01 0.0000000e+00 
4.8986450e-02 -1.1893579e-01 0.0000000e+00 
1.9520093e-02 -9.9203885e-02 0.0000000e+00 
4.4472609e-02 7.0728704e-02 0.0000000e+00 
5.7269566e-02 1.2045731e-01 0.0000000e+00 
8.0258355e-02 1.4276300e-01 0.0000000e+00 
7.2754987e-02 -8.9459524e-02 0.0000000e+00 
-6.2257353e-02 -1.8141907e-01 0.0000000e+00 
4.8747558e-02 3.2271523e-02 0.0000000e+00 
9.0272196e-02 1.5893823e-01 0.0000000e+00 
7.2023191e-02 8.6267099e-02 0.0000000e+00 
-2.1481434e-02 9.2552744e-02 0.0000000e+00 
-5.4373834e-02 2.6857335e-02 0.0000000e+00 
-9.8855346e-03 -4.3969817e-02 0.0000000e+00 
-3.7532214e-02 -8.1871323e-02 0.0000000e+00 
1.1133038e-02 -2.1227376e-01 0.0000000e+00 
2.4717197e-02 -9.6023329e-02 0.0000000e+00 
-8.0715507e-02 -7.6359525e-02 0.0000000e+00 
-1.8083125e-02 -1.0894372e-01 0.0000000e+00 
-9.5786199e-02 -8.5288309e-02 0.0000000e+00 
-5.1983703e-02 -5.3096440e-02 0.0000000e+00 
-6.6484496e-02 -3.4624163e-02 0.0000000e+00 
-3.5218865e-02 -6.1207015e-02 0.0000000e+00 
3.2964568e-03 -9.7491741e-02 0.0000000e+00 
-1.4232261e-01 -1.1098272e-01 0.0000000e+00 
5.5149578e-02 5.9323676e-02 0.0000000e+00 
8.0178879e-02 -4.6195228e-02 0.0000000e+00 
8.0574028e-02 1.2170185e-03 0.0000000e+00 
-4.5076840e-02 -5.4589580e-03 0.0000000e+00 
-7.2891474e-02 -6.3177936e-02 0.0000000e+00 
5.2489709e-02 -3.6743879e-02 0.0000000e+00 
-6.5573067e-03 -5.6802869e-02 0.0000000e+00 
1.6138906e-02 -6.9863953e-02 0.0000000e+00 
-1.4342195e-03 -6.6280842e-02 0.0000000e+00 
1.3148583e-02 -1.0475398e-01 0.0000000e+00 
-4.8838262e-02 -7.6019101e-02 0.0000000e+00 
6.4795673e-02 3.7137743e-02 0.0000000e+00 
7.0702165e-02 1.0915003e-01 0.0000000e+00 
4.7482336e-03 -2.8222919e-02 0.0000000e+00 
-4.9366932e-03 -2.5826448e-01 0.0000000e+00 
-9.2871282e-03 -5.7341218e-02 0.0000000e+00 
3.3860318e-02 7.3193945e-02 0.0000000e+00 
5.2655626e-02 4.3200951e-02 0.0000000e+00 
3.2749228e-02 -1.1768258e-01 0.0000000e+00 
-1.8090339e-02 -3.0631453e-02 0.0000000e+00 
2.2699371e-02 -4.1465625e-02 0.0000000e+00 
-7.4523367e-02 -6.3156180e-02 0.0000000e+00 
-3.2282598e-02 -7.6399064e-03 0.0000000e+00 
2.5523376e-02 2.7631102e-02 0.0000000e+00 
-4.4377290e-02 2.0159208e-03 0.0000000e+00 
-2.1701738e-02 -4.7160231e-02 0.0000000e+00 
2.4802443e-02 -4.7670018e-02 0.0000000e+00 
2.7280688e-02 -8.3261535e-02 0.0000000e+00 
3.5713639e-02 4.6785795e-03 0.0000000e+00 
2.0692306e-02 4.0404126e-02 0.0000000e+00 
-2.4992017e-02 9.3361028e-02 0.0000000e+00 
-4.0075265e-02 1.5590231e-02 0.0000000e+00 
8.3507173e-02 -2.4765447e-02 0.0000000e+00 
1.1685773e-01 6.0283564e-02 0.0000000e+00 
-2.1376546e-02 4.9885761e-02 0.0000000e+00 
-1.8702783e-02 -1.0357949e-01 0.0000000e+00 
2.5724538e-02 -2.0681019e-01 0.0000000e+00 
-3.5859238e-02 -5.9825752e-02 0.0000000e+00 
1.1501452e-02 -2.1479575e-01 0.0000000e+00 
-4.2671625e-02 -5.2715782e-02 0.0000000e+00 
2.7942399e-02 -1.9729902e-01 0.0000000e+00 
5.6905534e-02 -5.8216069e-02 0.0000000e+00 
-2.6548015e-02 6.5557830e-02 0.0000000e+00 
-1.3625222e-02 -3.6555830e-02 0.0000000e+00 
2.2844970e-02 9.6865460e-02 0.0000000e+00 
-1.9866643e-02 -6.8552949e-02 0.0000000e+00 
-7.0056403e-03 1.1723591e-01 0.0000000e+00 
-1.5252741e-02 -8.7840222e-02 0.0000000e+00 
-2.4199883e-02 3.1545925e-01 0.0000000e+00 
6.6609316e-02 -1.7488950e-01 0.0000000e+00 
7.4010275e-02 -1.1986237e-01 0.0000000e+00 
-6.3700765e-02 -9.3223199e-02 0.0000000e+00 
-5.6425374e-02 -1.1013226e-01 0.0000000e+00 
-6.1071295e-02 -9.0978779e-02 0.0000000e+00 
-1.9768035e-02 3.4937397e-02 0.0000000e+00 
-6.4289868e-02 6.0698934e-02 0.0000000e+00 
-4.0267356e-02 5.3100012e-02 0.0000000e+00 
1.9666271e-02 -7.0071138e-02 0.0000000e+00 
-1.5052252e-02 -8.2929321e-02 0.0000000e+00 
-1.6905491e-03 -5.4959979e-02 0.0000000e+00 
3.0805424e-02 4.4970639e-02 0.0000000e+00 
7.2065264e-02 1.1491397e-01 0.0000000e+00 
2.2018789e-03 -1.7164968e-01 0.0000000e+00 
2.6346080e-02 2.8474396e-01 0.0000000e+00 
3.6512956e-02 -1.3689034e-01 0.0000000e+00 
5.1403195e-02 -7.7519380e-02 0.0000000e+00 
1.6934739e-02 9.8273017e-02 0.0000000e+00 
2.0143082e-02 -1.1506368e-01 0.0000000e+00 
-8.0512822e-02 -8.1938565e-02 0.0000000e+00 
-2.8550534e-02 -1.8694000e-02 0.0000000e+00 
-3.9098419e-02 8.8501528e-02 0.0000000e+00 
1.0285215e-01 -8.3905205e-02 0.0000000e+00 
3.2172196e-02 -6.4899184e-02 0.0000000e+00 
1.7286833e-02 -5.4306470e-02 0.0000000e+00 
1.8381139e-02 -1.2665282e-01 0.0000000e+00 
-3.7493750e-03 2.3969248e-02 0.0000000e+00 
2.4174228e-02 4.8789203e-02 0.0000000e+00 
-9.6419165e-03 5.8245275e-02 0.0000000e+00 
1.8446486e-02 -5.3009417e-02 0.0000000e+00 
4.7119472e-02 -6.3539170e-02 0.0000000e+00 
1.1266935e-02 -7.9628795e-02 0.0000000e+00 
-2.0484054e-03 2.9390547e-01 0.0000000e+00 
1.0421069e-02 3.0382103e-01 0.0000000e+00 
4.6011932e-02 2.4062723e-01 0.0000000e+00 
6.4828970e-02 1.9086392e-01 0.0000000e+00 
3.8445290e-02 1.0064319e-01 0.0000000e+00 
9.3181115e-03 1.5783869e-02 0.0000000e+00 
6.0674553e-03 5.4484367e-02 0.0000000e+00 
5.0855845e-02 5.5510893e-02 0.0000000e+00 
4.7070934e-03 1.7238352e-01 0.0000000e+00 
1.7869741e-02 1.8736257e-01 0.0000000e+00 
3.6442339e-02 9.7897433e-02 0.0000000e+00 
6.0267434e-02 5.4050803e-02 0.0000000e+00 
2.5778599e-02 1.1974180e-01 0.0000000e+00 
6.5167561e-02 7.4736878e-02 0.0000000e+00 
7.6275781e-02 4.0738784e-02 0.0000000e+00 
7.6607041e-02 -8.1966817e-02 0.0000000e+00 
6.3259006e-02 -1.7413750e-01 0.0000000e+00 
3.2505207e-02 1.0698861e-02 0.0000000e+00 
3.9244904e-03 -4.3716785e-02 0.0000000e+00 
2.3995565e-02 -6.1357316e-02 0.0000000e+00 
1.1321476e-02 -1.2071416e-01 0.0000000e+00 
2.1228539e-02 -4.9396228e-02 0.0000000e+00 
4.8781708e-03 -4.6553951e-02 0.0000000e+00 
2.5200075e-04 -8.8231884e-02 0.0000000e+00 
5.0894052e-02 -2.1326255e-02 0.0000000e+00 
4.0450018e-02 -4.0908843e-02 0.0000000e+00 
4.4714194e-02 -8.4034532e-02 0.0000000e+00 
3.3159118e-02 -1.4206592e-02 0.0000000e+00 
4.6975661e-02 -6.7842160e-03 0.0000000e+00 
6.9823392e-02 -3.6899623e-02 0.0000000e+00 
4.9633268e-02 -4.2078584e-03 0.0000000e+00 
3.5521079e-02 -2.0168692e-02 0.0000000e+00 
8.0022439e-02 -3.6967214e-02 0.0000000e+00 
7.4173719e-02 2.7346389e-02 0.0000000e+00 
5.8618609e-02 1.7505920e-02 0.0000000e+00 
8.7964676e-02 1.5639322e-02 0.0000000e+00 
9.2128143e-02 4.3848965e-02 0.0000000e+00 
8.9546852e-02 3.3820365e-02 0.0000000e+00 
1.0342124e-01 4.2798497e-02 0.0000000e+00 
4.9171690e-02 6.2443987e-02 0.0000000e+00 
7.8871988e-02 5.8458079e-02 0.0000000e+00 
9.3416259e-02 9.2860006e-02 0.0000000e+00 
3.8077582e-02 1.1091385e-01 0.0000000e+00 
-6.1027198e-03 9.2705458e-02 0.0000000e+00 
-1.2149693e-02 8.4003329e-02 0.0000000e+00 
2.0204631e-03 1.1968078e-01 0.0000000e+00 
2.7720187e-02 7.7079937e-02 0.0000000e+00 
1.3935924e-02 9.1406383e-02 0.0000000e+00 
7.7754855e-03 9.8396771e-02 0.0000000e+00 
-1.2387782e-02 -1.6568830e-02 0.0000000e+00 
1.0698725e-02 3.9645422e-02 0.0000000e+00 
2.4948405e-02 2.6711589e-02 0.0000000e+00 
-1.1598616e-02 -4.0489543e-02 0.0000000e+00 
-8.9809028e-03 -4.4968519e-02 0.0000000e+00 
-9.0961037e-03 -4.3744974e-02 0.0000000e+00 
2.6127478e-04 5.3966097e-03 0.0000000e+00 
-1.4435859e-02 -1.5275283e-02 0.0000000e+00 
-2.9936200e-02 -2.7481999e-02 0.0000000e+00 
1.1368181e-02 8.7952567e-03 0.0000000e+00 
2.1682434e-02 1.5691452e-02 0.0000000e+00 
1.8093515e-02 7.7141137e-03 0.0000000e+00 
1.9673722e-02 -1.6656885e-02 0.0000000e+00 
7.6866089e-03 -1.2543828e-03 0.0000000e+00 
1.1916965e-02 1.6261052e-02 0.0000000e+00 
4.7882829e-02 -6.7260742e-02 0.0000000e+00 
3.2177456e-02 -4.5231648e-02 0.0000000e+00 
4.9106129e-02 -4.0877532e-02 0.0000000e+00 
7.0757426e-02 -9.1116711e-02 0.0000000e+00 
-8.0844313e-03 2.6879743e-01 0.0000000e+00 
-1.2945452e-02 2.8702304e-01 0.0000000e+00 
8.2113929e-03 3.0677652e-01 0.0000000e+00 
2.4161452e-02 2.6296499e-01 0.0000000e+00 
1.6965082e-02 2.6999816e-01 0.0000000e+00 
-1.0745496e-02 2.7660424e-01 0.0000000e+00 
-2.0374602e-02 -2.1525832e-02 0.0000000e+00 
-2.5796358e-02 1.5210597e-01 0.0000000e+00 
1.9295894e-02 1.6761504e-01 0.0000000e+00 
2.1798803e-02 -1.8384638e-01 0.0000000e+00 
2.1575877e-02 -1.7301616e-01 0.0000000e+00 
6.1994395e-03 -8.0163479e-02 0.0000000e+00 
-2.4586329e-03 -3.1754531e-02 0.0000000e+00 
2.9533352e-03 -1.3321738e-01 0.0000000e+00 
1.1991060e-02 -1.5873736e-01 0.0000000e+00 
-4.7508258e-02 -8.6152442e-03 0.0000000e+00 
-2.6306687e-02 4.2678095e-02 0.0000000e+00 
-3.2104526e-02 -4.3713946e-02 0.0000000e+00 
-2.2927858e-02 -1.4186792e-01 0.0000000e+00 
-3.3421498e-02 -8.8224284e-02 0.0000000e+00 
-4.4581357e-02 -3.2901593e-02 0.0000000e+00 
-1.0096877e-02 -1.7083085e-01 0.0000000e+00 
-2.5449691e-02 -1.8177889e-01 0.0000000e+00 
-5.2073974e-02 -1.1619014e-01 0.0000000e+00 
-1.3020539e-02 -1.7786872e-01 0.0000000e+00 
6.6610642e-02 2.2894506e-01 0.0000000e+00 
4.9662735e-02 1.0505068e-01 0.0000000e+00 
4.8057899e-02 6.8448797e-02 0.0000000e+00 
4.4638243e-02 -1.6814300e-01 0.0000000e+00 
3.2267090e-02 -1.6487715e-01 0.0000000e+00 
6.3453302e-02 -1.4490411e-01 0.0000000e+00 
5.3103313e-02 -1.3038813e-01 0.0000000e+00 
4.9353711e-02 -9.6937999e-02 0.0000000e+00 
5.4562982e-02 -1.2467263e-01 0.0000000e+00 
4.8132945e-02 -1.6368151e-01 0.0000000e+00 
7.3834196e-02 5.9769008e-02 0.0000000e+00 
6.0812891e-02 6.2569574e-02 0.0000000e+00 