# vtk DataFile Version 4.0
vtk output
ASCII
DATASET UNSTRUCTURED_GRID
POINTS 7661 float
0.0000000e+00 0.0000000e+00 0.0000000e+00 
5.0000000e+00 0.0000000e+00 0.0000000e+00 
5.0000000e+00 5.0000000e+00 0.0000000e+00 
0.0000000e+00 5.0000000e+00 0.0000000e+00 
0.0000000e+00 0.0000000e+00 5.0000000e+00 
5.0000000e+00 0.0000000e+00 5.0000000e+00 
5.0000000e+00 5.0000000e+00 5.0000000e+00 
0.0000000e+00 5.0000000e+00 5.0000000e+00 
1.0000000e+00 5.0000000e+00 0.0000000e+00 
2.0000000e+00 5.0000000e+00 0.0000000e+00 
3.0000000e+00 5.0000000e+00 0.0000000e+00 
5.0000000e-01 0.0000000e+00 0.0000000e+00 
1.0000000e+00 0.0000000e+00 0.0000000e+00 
1.5000000e+00 0.0000000e+00 0.0000000e+00 
2.0000000e+00 0.0000000e+00 0.0000000e+00 
2.5000000e+00 0.0000000e+00 0.0000000e+00 
3.0000000e+00 0.0000000e+00 0.0000000e+00 
3.5000000e+00 0.0000000e+00 0.0000000e+00 
4.0000000e+00 0.0000000e+00 0.0000000e+00 
4.5000000e+00 0.0000000e+00 0.0000000e+00 
2.5000000e-01 0.0000000e+00 0.0000000e+00 
7.5000000e-01 0.0000000e+00 0.0000000e+00 
1.2500000e+00 0.0000000e+00 0.0000000e+00 
1.7500000e+00 0.0000000e+00 0.0000000e+00 
2.2500000e+00 0.0000000e+00 0.0000000e+00 
2.7500000e+00 0.0000000e+00 0.0000000e+00 
3.2500000e+00 0.0000000e+00 0.0000000e+00 
3.7500000e+00 0.0000000e+00 0.0000000e+00 
4.2500000e+00 0.0000000e+00 0.0000000e+00 
4.7500000e+00 0.0000000e+00 0.0000000e+00 
5.0000000e+00 5.0000000e-01 0.0000000e+00 
5.0000000e+00 1.0000000e+00 0.0000000e+00 
5.0000000e+00 1.5000000e+00 0.0000000e+00 
5.0000000e+00 2.0000000e+00 0.0000000e+00 
5.0000000e+00 2.5000000e+00 0.0000000e+00 
5.0000000e+00 3.0000000e+00 0.0000000e+00 
5.0000000e+00 3.5000000e+00 0.0000000e+00 
5.0000000e+00 4.0000000e+00 0.0000000e+00 
5.0000000e+00 4.5000000e+00 0.0000000e+00 
5.0000000e+00 2.5000000e-01 0.0000000e+00 
5.0000000e+00 7.5000000e-01 0.0000000e+00 
5.0000000e+00 1.2500000e+00 0.0000000e+00 
5.0000000e+00 1.7500000e+00 0.0000000e+00 
5.0000000e+00 2.2500000e+00 0.0000000e+00 
5.0000000e+00 2.7500000e+00 0.0000000e+00 
5.0000000e+00 3.2500000e+00 0.0000000e+00 
5.0000000e+00 3.7500000e+00 0.0000000e+00 
5.0000000e+00 4.2500000e+00 0.0000000e+00 
5.0000000e+00 4.7500000e+00 0.0000000e+00 
0.0000000e+00 4.5000000e+00 0.0000000e+00 
0.0000000e+00 4.0000000e+00 0.0000000e+00 
0.0000000e+00 3.5000000e+00 0.0000000e+00 
0.0000000e+00 3.0000000e+00 0.0000000e+00 
0.0000000e+00 2.5000000e+00 0.0000000e+00 
0.0000000e+00 2.0000000e+00 0.0000000e+00 
0.0000000e+00 1.5000000e+00 0.0000000e+00 
0.0000000e+00 1.0000000e+00 0.0000000e+00 
0.0000000e+00 5.0000000e-01 0.0000000e+00 
0.0000000e+00 4.7500000e+00 0.0000000e+00 
0.0000000e+00 4.2500000e+00 0.0000000e+00 
0.0000000e+00 3.7500000e+00 0.0000000e+00 
0.0000000e+00 3.2500000e+00 0.0000000e+00 
0.0000000e+00 2.7500000e+00 0.0000000e+00 
0.0000000e+00 2.2500000e+00 0.0000000e+00 
0.0000000e+00 1.7500000e+00 0.0000000e+00 
0.0000000e+00 1.2500000e+00 0.0000000e+00 
0.0000000e+00 7.5000000e-01 0.0000000e+00 
0.0000000e+00 2.5000000e-01 0.0000000e+00 
0.0000000e+00 0.0000000e+00 5.0000000e-01 
0.0000000e+00 0.0000000e+00 1.0000000e+00 
0.0000000e+00 0.0000000e+00 1.5000000e+00 
0.0000000e+00 0.0000000e+00 2.0000000e+00 
0.0000000e+00 0.0000000e+00 2.5000000e+00 
0.0000000e+00 0.0000000e+00 3.0000000e+00 
0.0000000e+00 0.0000000e+00 3.5000000e+00 
0.0000000e+00 0.0000000e+00 4.0000000e+00 
0.0000000e+00 0.0000000e+00 4.5000000e+00 
0.0000000e+00 0.0000000e+00 2.5000000e-01 
0.0000000e+00 0.0000000e+00 7.5000000e-01 
0.0000000e+00 0.0000000e+00 1.2500000e+00 
0.0000000e+00 0.0000000e+00 1.7500000e+00 
0.0000000e+00 0.0000000e+00 2.2500000e+00 
0.0000000e+00 0.0000000e+00 2.7500000e+00 
0.0000000e+00 0.0000000e+00 3.2500000e+00 
0.0000000e+00 0.0000000e+00 3.7500000e+00 
0.0000000e+00 0.0000000e+00 4.2500000e+00 
0.0000000e+00 0.0000000e+00 4.7500000e+00 
5.0000000e+00 0.0000000e+00 5.0000000e-01 
5.0000000e+00 0.0000000e+00 1.0000000e+00 
5.0000000e+00 0.0000000e+00 1.5000000e+00 
5.0000000e+00 0.0000000e+00 2.0000000e+00 
5.0000000e+00 0.0000000e+00 2.5000000e+00 
5.0000000e+00 0.0000000e+00 3.0000000e+00 
5.0000000e+00 0.0000000e+00 3.5000000e+00 
5.0000000e+00 0.0000000e+00 4.0000000e+00 
5.0000000e+00 0.0000000e+00 4.5000000e+00 
5.0000000e+00 0.0000000e+00 2.5000000e-01 
5.0000000e+00 0.0000000e+00 7.5000000e-01 
5.0000000e+00 0.0000000e+00 1.2500000e+00 
5.0000000e+00 0.0000000e+00 1.7500000e+00 
5.0000000e+00 0.0000000e+00 2.2500000e+00 
5.0000000e+00 0.0000000e+00 2.7500000e+00 
5.0000000e+00 0.0000000e+00 3.2500000e+00 
5.0000000e+00 0.0000000e+00 3.7500000e+00 
5.0000000e+00 0.0000000e+00 4.2500000e+00 
5.0000000e+00 0.0000000e+00 4.7500000e+00 
5.0000000e-01 0.0000000e+00 5.0000000e+00 
1.0000000e+00 0.0000000e+00 5.0000000e+00 
1.5000000e+00 0.0000000e+00 5.0000000e+00 
2.0000000e+00 0.0000000e+00 5.0000000e+00 
2.5000000e+00 0.0000000e+00 5.0000000e+00 
3.0000000e+00 0.0000000e+00 5.0000000e+00 
3.5000000e+00 0.0000000e+00 5.0000000e+00 
4.0000000e+00 0.0000000e+00 5.0000000e+00 
4.5000000e+00 0.0000000e+00 5.0000000e+00 
2.5000000e-01 0.0000000e+00 5.0000000e+00 
7.5000000e-01 0.0000000e+00 5.0000000e+00 
1.2500000e+00 0.0000000e+00 5.0000000e+00 
1.7500000e+00 0.0000000e+00 5.0000000e+00 
2.2500000e+00 0.0000000e+00 5.0000000e+00 
2.7500000e+00 0.0000000e+00 5.0000000e+00 
3.2500000e+00 0.0000000e+00 5.0000000e+00 
3.7500000e+00 0.0000000e+00 5.0000000e+00 
4.2500000e+00 0.0000000e+00 5.0000000e+00 
4.7500000e+00 0.0000000e+00 5.0000000e+00 
5.0000000e+00 5.0000000e+00 5.0000000e-01 
5.0000000e+00 5.0000000e+00 1.0000000e+00 
5.0000000e+00 5.0000000e+00 1.5000000e+00 
5.0000000e+00 5.0000000e+00 2.0000000e+00 
5.0000000e+00 5.0000000e+00 2.5000000e+00 
5.0000000e+00 5.0000000e+00 3.0000000e+00 
5.0000000e+00 5.0000000e+00 3.5000000e+00 
5.0000000e+00 5.0000000e+00 4.0000000e+00 
5.0000000e+00 5.0000000e+00 4.5000000e+00 
5.0000000e+00 5.0000000e+00 2.5000000e-01 
5.0000000e+00 5.0000000e+00 7.5000000e-01 
5.0000000e+00 5.0000000e+00 1.2500000e+00 
5.0000000e+00 5.0000000e+00 1.7500000e+00 
5.0000000e+00 5.0000000e+00 2.2500000e+00 
5.0000000e+00 5.0000000e+00 2.7500000e+00 
5.0000000e+00 5.0000000e+00 3.2500000e+00 
5.0000000e+00 5.0000000e+00 3.7500000e+00 
5.0000000e+00 5.0000000e+00 4.2500000e+00 
5.0000000e+00 5.0000000e+00 4.7500000e+00 
5.0000000e+00 5.0000000e-01 5.0000000e+00 
5.0000000e+00 1.0000000e+00 5.0000000e+00 
5.0000000e+00 1.5000000e+00 5.0000000e+00 
5.0000000e+00 2.0000000e+00 5.0000000e+00 
5.0000000e+00 2.5000000e+00 5.0000000e+00 
5.0000000e+00 3.0000000e+00 5.0000000e+00 
5.0000000e+00 3.5000000e+00 5.0000000e+00 
5.0000000e+00 4.0000000e+00 5.0000000e+00 
5.0000000e+00 4.5000000e+00 5.0000000e+00 
5.0000000e+00 2.5000000e-01 5.0000000e+00 
5.0000000e+00 7.5000000e-01 5.0000000e+00 
5.0000000e+00 1.2500000e+00 5.0000000e+00 
5.0000000e+00 1.7500000e+00 5.0000000e+00 
5.0000000e+00 2.2500000e+00 5.0000000e+00 
5.0000000e+00 2.7500000e+00 5.0000000e+00 
5.0000000e+00 3.2500000e+00 5.0000000e+00 
5.0000000e+00 3.7500000e+00 5.0000000e+00 
5.0000000e+00 4.2500000e+00 5.0000000e+00 
5.0000000e+00 4.7500000e+00 5.0000000e+00 
0.0000000e+00 5.0000000e+00 5.0000000e-01 
0.0000000e+00 5.0000000e+00 1.0000000e+00 
0.0000000e+00 5.0000000e+00 1.5000000e+00 
0.0000000e+00 5.0000000e+00 2.0000000e+00 
0.0000000e+00 5.0000000e+00 2.5000000e+00 
0.0000000e+00 5.0000000e+00 3.0000000e+00 
0.0000000e+00 5.0000000e+00 3.5000000e+00 
0.0000000e+00 5.0000000e+00 4.0000000e+00 
0.0000000e+00 5.0000000e+00 4.5000000e+00 
0.0000000e+00 5.0000000e+00 2.5000000e-01 
0.0000000e+00 5.0000000e+00 7.5000000e-01 
0.0000000e+00 5.0000000e+00 1.2500000e+00 
0.0000000e+00 5.0000000e+00 1.7500000e+00 
0.0000000e+00 5.0000000e+00 2.2500000e+00 
0.0000000e+00 5.0000000e+00 2.7500000e+00 
0.0000000e+00 5.0000000e+00 3.2500000e+00 
0.0000000e+00 5.0000000e+00 3.7500000e+00 
0.0000000e+00 5.0000000e+00 4.2500000e+00 
0.0000000e+00 5.0000000e+00 4.7500000e+00 
4.5000000e+00 5.0000000e+00 5.0000000e+00 
4.0000000e+00 5.0000000e+00 5.0000000e+00 
3.5000000e+00 5.0000000e+00 5.0000000e+00 
3.0000000e+00 5.0000000e+00 5.0000000e+00 
2.5000000e+00 5.0000000e+00 5.0000000e+00 
2.0000000e+00 5.0000000e+00 5.0000000e+00 
1.5000000e+00 5.0000000e+00 5.0000000e+00 
1.0000000e+00 5.0000000e+00 5.0000000e+00 
5.0000000e-01 5.0000000e+00 5.0000000e+00 
4.7500000e+00 5.0000000e+00 5.0000000e+00 
4.2500000e+00 5.0000000e+00 5.0000000e+00 
3.7500000e+00 5.0000000e+00 5.0000000e+00 
3.2500000e+00 5.0000000e+00 5.0000000e+00 
2.7500000e+00 5.0000000e+00 5.0000000e+00 
2.2500000e+00 5.0000000e+00 5.0000000e+00 
1.7500000e+00 5.0000000e+00 5.0000000e+00 
1.2500000e+00 5.0000000e+00 5.0000000e+00 
7.5000000e-01 5.0000000e+00 5.0000000e+00 
2.5000000e-01 5.0000000e+00 5.0000000e+00 
0.0000000e+00 4.5000000e+00 5.0000000e+00 
0.0000000e+00 4.0000000e+00 5.0000000e+00 
0.0000000e+00 3.5000000e+00 5.0000000e+00 
0.0000000e+00 3.0000000e+00 5.0000000e+00 
0.0000000e+00 2.5000000e+00 5.0000000e+00 
0.0000000e+00 2.0000000e+00 5.0000000e+00 
0.0000000e+00 1.5000000e+00 5.0000000e+00 
0.0000000e+00 1.0000000e+00 5.0000000e+00 
0.0000000e+00 5.0000000e-01 5.0000000e+00 
0.0000000e+00 4.7500000e+00 5.0000000e+00 
0.0000000e+00 4.2500000e+00 5.0000000e+00 
0.0000000e+00 3.7500000e+00 5.0000000e+00 
0.0000000e+00 3.2500000e+00 5.0000000e+00 
0.0000000e+00 2.7500000e+00 5.0000000e+00 
0.0000000e+00 2.2500000e+00 5.0000000e+00 
0.0000000e+00 1.7500000e+00 5.0000000e+00 
0.0000000e+00 1.2500000e+00 5.0000000e+00 
0.0000000e+00 7.5000000e-01 5.0000000e+00 
0.0000000e+00 2.5000000e-01 5.0000000e+00 
5.0000000e-01 5.0000000e+00 0.0000000e+00 
2.5000000e-01 5.0000000e+00 0.0000000e+00 
7.5000000e-01 5.0000000e+00 0.0000000e+00 
1.5000000e+00 5.0000000e+00 0.0000000e+00 
1.2500000e+00 5.0000000e+00 0.0000000e+00 
1.7500000e+00 5.0000000e+00 0.0000000e+00 
2.5000000e+00 5.0000000e+00 0.0000000e+00 
2.2500000e+00 5.0000000e+00 0.0000000e+00 
2.7500000e+00 5.0000000e+00 0.0000000e+00 
4.5000000e+00 5.0000000e+00 0.0000000e+00 
[...]
POINT_DATA 7661
FIELD FieldData 1
VELOCITY 3 7661  float
0.0000000e+00 0.0000000e+00 0.0000000e+00 
0.0000000e+00 0.0000000e+00 0.0000000e+00 
-1.3806883e+00 1.7533680e+00 0.0000000e+00 
0.0000000e+00 1.5902786e+00 0.0000000e+00 
0.0000000e+00 0.0000000e+00 0.0000000e+00 
0.0000000e+00 0.0000000e+00 0.0000000e+00 
-3.6500385e-01 6.4432168e-01 -3.5256392e-01 
0.0000000e+00 1.7222226e+00 -9.8063558e-01 
5.4462415e-01 9.4701387e-02 0.0000000e+00 
5.7739314e-02 -2.0387030e-01 0.0000000e+00 
2.3657438e-01 2.3775771e-01 0.0000000e+00 
0.0000000e+00 0.0000000e+00 0.0000000e+00 
0.0000000e+00 0.0000000e+00 0.0000000e+00 
0.0000000e+00 0.0000000e+00 0.0000000e+00 
0.0000000e+00 0.0000000e+00 0.0000000e+00 
0.0000000e+00 0.0000000e+00 0.0000000e+00 
0.0000000e+00 0.0000000e+00 0.0000000e+00 
0.0000000e+00 0.0000000e+00 0.0000000e+00 
0.0000000e+00 0.0000000e+00 0.0000000e+00 
0.0000000e+00 0.0000000e+00 0.0000000e+00 
0.0000000e+00 0.0000000e+00 0.0000000e+00 
0.0000000e+00 0.0000000e+00 0.0000000e+00 
0.0000000e+00 0.0000000e+00 0.0000000e+00 
0.0000000e+00 0.0000000e+00 0.0000000e+00 
0.0000000e+00 0.0000000e+00 0.0000000e+00 
0.0000000e+00 0.0000000e+00 0.0000000e+00 
0.0000000e+00 0.0000000e+00 0.0000000e+00 
0.0000000e+00 0.0000000e+00 0.0000000e+00 
0.0000000e+00 0.0000000e+00 0.0000000e+00 
0.0000000e+00 0.0000000e+00 0.0000000e+00 
-1.9464104e-01 -2.5122696e-01 0.0000000e+00 
4.5131373e-01 2.9940149e-01 0.0000000e+00 
-2.1529368e-01 -1.8179163e-01 0.0000000e+00 
-3.0981609e-01 -2.1169543e-01 0.0000000e+00 
2.7984965e-01 3.7409562e-01 0.0000000e+00 
1.9968005e-01 6.1339116e-01 0.0000000e+00 
3.3975669e-04 7.1732593e-01 0.0000000e+00 
-1.2901565e-01 8.3214647e-01 0.0000000e+00 
-2.9876891e-01 1.3592880e+00 0.0000000e+00 
-2.5514209e-01 -1.0729450e-01 0.0000000e+00 
2.9880235e-01 6.3781114e-03 0.0000000e+00 
-1.6240846e-02 1.8028271e-01 0.0000000e+00 
-1.4280933e-01 -3.8013104e-01 0.0000000e+00 
1.0488727e-01 1.5736142e-01 0.0000000e+00 
3.0805475e-01 5.3145832e-01 0.0000000e+00 
7.0845805e-02 6.1514676e-01 0.0000000e+00 
-1.1999658e-01 7.0865309e-01 0.0000000e+00 
-2.1550782e-01 1.0593708e+00 0.0000000e+00 
-2.9682520e-01 1.6327636e+00 0.0000000e+00 
0.0000000e+00 -1.0908342e-01 0.0000000e+00 
0.0000000e+00 1.9914383e-01 0.0000000e+00 
0.0000000e+00 6.5018827e-01 0.0000000e+00 
0.0000000e+00 5.5344814e-01 0.0000000e+00 
0.0000000e+00 1.0133238e+00 0.0000000e+00 
0.0000000e+00 -4.0578306e-02 0.0000000e+00 
0.0000000e+00 5.1269323e-02 0.0000000e+00 
0.0000000e+00 -8.6259997e-01 0.0000000e+00 
0.0000000e+00 2.0772421e-01 0.0000000e+00 
0.0000000e+00 4.3260589e-01 0.0000000e+00 
0.0000000e+00 3.8976748e-02 0.0000000e+00 
0.0000000e+00 3.3306763e-01 0.0000000e+00 
0.0000000e+00 6.7274314e-01 0.0000000e+00 
0.0000000e+00 8.5796916e-01 0.0000000e+00 
0.0000000e+00 3.6133114e-01 0.0000000e+00 
0.0000000e+00 -1.4393157e-03 0.0000000e+00 
0.0000000e+00 -1.8758890e-01 0.0000000e+00 
0.0000000e+00 -2.7304226e-01 0.0000000e+00 
0.0000000e+00 -2.2172421e-01 0.0000000e+00 
0.0000000e+00 0.0000000e+00 0.0000000e+00 
0.0000000e+00 0.0000000e+00 0.0000000e+00 
0.0000000e+00 0.0000000e+00 0.0000000e+00 
0.0000000e+00 0.0000000e+00 0.0000000e+00 
0.0000000e+00 0.0000000e+00 0.0000000e+00 
0.0000000e+00 0.0000000e+00 0.0000000e+00 
0.0000000e+00 0.0000000e+00 0.0000000e+00 
0.0000000e+00 0.0000000e+00 0.0000000e+00 
0.0000000e+00 0.0000000e+00 0.0000000e+00 
0.0000000e+00 0.0000000e+00 0.0000000e+00 
0.0000000e+00 0.0000000e+00 0.0000000e+00 
0.0000000e+00 0.0000000e+00 0.0000000e+00 
0.0000000e+00 0.0000000e+00 0.0000000e+00 
0.0000000e+00 0.0000000e+00 0.0000000e+00 
0.0000000e+00 0.0000000e+00 0.0000000e+00 
0.0000000e+00 0.0000000e+00 0.0000000e+00 
0.0000000e+00 0.0000000e+00 0.0000000e+00 
0.0000000e+00 0.0000000e+00 0.0000000e+00 
0.0000000e+00 0.0000000e+00 0.0000000e+00 
0.0000000e+00 0.0000000e+00 0.0000000e+00 
0.0000000e+00 0.0000000e+00 0.0000000e+00 
0.0000000e+00 0.0000000e+00 0.0000000e+00 
0.0000000e+00 0.0000000e+00 0.0000000e+00 
0.0000000e+00 0.0000000e+00 0.0000000e+00 
0.0000000e+00 0.0000000e+00 0.0000000e+00 
0.0000000e+00 0.0000000e+00 0.0000000e+00 
0.0000000e+00 0.0000000e+00 0.0000000e+00 
0.0000000e+00 0.0000000e+00 0.0000000e+00 
0.0000000e+00 0.0000000e+00 0.0000000e+00 
0.0000000e+00 0.0000000e+00 0.0000000e+00 
0.0000000e+00 0.0000000e+00 0.0000000e+00 
0.0000000e+00 0.0000000e+00 0.0000000e+00 
0.0000000e+00 0.0000000e+00 0.0000000e+00 
0.0000000e+00 0.0000000e+00 0.0000000e+00 
0.0000000e+00 0.0000000e+00 0.0000000e+00 
0.0000000e+00 0.0000000e+00 0.0000000e+00 
0.0000000e+00 0.0000000e+00 0.0000000e+00 
0.0000000e+00 0.0000000e+00 0.0000000e+00 
0.0000000e+00 0.0000000e+00 0.0000000e+00 
0.0000000e+00 0.0000000e+00 0.0000000e+00 
0.0000000e+00 0.0000000e+00 0.0000000e+00 
0.0000000e+00 0.0000000e+00 0.0000000e+00 
0.0000000e+00 0.0000000e+00 0.0000000e+00 
0.0000000e+00 0.0000000e+00 0.0000000e+00 
0.0000000e+00 0.0000000e+00 0.0000000e+00 
0.0000000e+00 0.0000000e+00 0.0000000e+00 
0.0000000e+00 0.0000000e+00 0.0000000e+00 
0.0000000e+00 0.0000000e+00 0.0000000e+00 
0.0000000e+00 0.0000000e+00 0.0000000e+00 
0.0000000e+00 0.0000000e+00 0.0000000e+00 
0.0000000e+00 0.0000000e+00 0.0000000e+00 
0.0000000e+00 0.0000000e+00 0.0000000e+00 
0.0000000e+00 0.0000000e+00 0.0000000e+00 
0.0000000e+00 0.0000000e+00 0.0000000e+00 
0.0000000e+00 0.0000000e+00 0.0000000e+00 
0.0000000e+00 0.0000000e+00 0.0000000e+00 
0.0000000e+00 0.0000000e+00 0.0000000e+00 
-8.8620698e-01 1.1163621e+00 4.4667367e-02 
-5.2922028e-01 1.2319428e+00 -1.1055617e-01 
2.3388560e-01 1.0335628e+00 -2.1283063e-01 
1.1009274e+00 2.2785300e-01 5.0013047e-01 
5.4234785e-01 -1.0487170e+00 4.5916140e-01 
-5.6099331e-01 -5.6788694e-02 -3.3697942e-01 
-4.0210614e-01 1.8774812e-01 -1.2982036e-01 
1.9449800e-01 1.5598154e-01 -6.7261003e-02 
9.6289583e-02 -3.0652460e-01 2.0143783e-01 
-1.1896874e+00 1.4630592e+00 1.4171955e-01 
-6.7701197e-01 1.1601611e+00 -8.7301344e-02 
-2.7007499e-01 1.0733372e+00 -1.6780418e-01 
5.5373758e-01 9.9763399e-01 1.2369474e-01 
1.0619655e+00 -4.0904975e-01 6.2187862e-01 
1.9770113e-03 -7.0598811e-01 -3.8759850e-02 
-4.9083501e-01 8.0478765e-02 -2.4378599e-01 
-1.8399394e-01 2.5331399e-01 -1.6618124e-01 
3.4473014e-01 3.8990811e-02 1.4831330e-01 
-3.1754002e-01 -2.5008777e-01 -1.7997898e-01 
-2.0563832e-02 5.0201222e-02 -1.7318461e-02 
1.8076915e-02 -6.5922447e-02 5.3036902e-03 
7.0351273e-02 -7.4510880e-02 7.7610664e-02 
1.3402401e-01 4.4290274e-02 8.6906835e-02 
1.0776283e-01 2.7070310e-02 6.4912200e-02 
6.6710472e-02 -1.1075187e-02 3.6567211e-02 
3.4909967e-02 1.2219899e-02 4.7830854e-02 
1.9322790e-02 2.2689832e-02 9.9925492e-03 
-1.0377063e-02 2.0428015e-01 2.8970323e-03 
-3.1788338e-02 4.8835855e-02 -1.3052325e-02 
-1.9435128e-02 -4.9549909e-03 -2.9322492e-02 
5.5009499e-02 -8.4825456e-02 4.5186561e-02 
9.9114761e-02 -2.1071082e-02 1.1784893e-01 
1.2421305e-01 1.7870197e-02 8.6947203e-02 
8.0257989e-02 3.5967068e-03 4.5795336e-02 
5.1538572e-02 -1.0482544e-02 4.2137805e-02 
1.8982437e-02 2.8095287e-04 2.7796132e-02 
4.2753588e-02 1.0344512e-01 3.1985620e-03 
6.1961166e-03 3.1621456e-01 1.1672143e-02 
0.0000000e+00 5.2635323e-02 6.0785711e-02 
0.0000000e+00 3.8480332e-01 -1.0672873e-01 
0.0000000e+00 -3.8109368e-01 4.9782124e-01 
0.0000000e+00 -1.9723104e-01 8.8787399e-02 
0.0000000e+00 2.4059328e-01 -2.5622213e-01 
0.0000000e+00 -6.1024183e-01 4.9668241e-01 
0.0000000e+00 -1.7424500e-01 2.9800975e-01 
0.0000000e+00 -1.3747721e+00 3.5046387e-01 
0.0000000e+00 -1.4184203e+00 -9.8748541e-01 
0.0000000e+00 4.0669096e-01 2.6835901e-01 
0.0000000e+00 -8.8237546e-02 -1.8314463e-01 
0.0000000e+00 2.2655477e-01 4.6803573e-01 
0.0000000e+00 -1.4913279e-01 2.0261346e-01 
0.0000000e+00 2.7454492e-01 -9.4907686e-02 
0.0000000e+00 -2.1855150e-01 2.6831371e-01 
0.0000000e+00 -1.8702941e-01 8.5257739e-02 
0.0000000e+00 -8.5487980e-01 6.6269386e-01 
0.0000000e+00 -1.4650725e+00 -2.6719213e-01 
0.0000000e+00 -2.7101865e-01 -1.6330180e+00 
3.0039096e-01 -3.9652160e-01 4.9417105e-02 
-9.7898483e-02 3.9058995e-01 1.4190686e-01 
-5.1237237e-01 1.0531193e-01 -8.4532720e-01 
-1.1073106e-01 -9.5866162e-01 9.2670605e-02 
6.5561742e-01 -1.1478618e+00 1.1421816e+00 
3.1904811e-01 5.1862121e-01 1.3381295e+00 
-3.1125188e-01 1.2639387e+00 1.4151770e-01 
-5.1640116e-02 1.0905597e+00 -5.9676784e-01 
-2.1288674e-01 1.3741455e+00 -8.7115711e-01 
-1.7735057e-01 -2.4145165e-01 -3.2679552e-01 
3.1656715e-01 -1.3277095e-03 4.2839184e-01 
-5.3818870e-01 6.0207868e-01 -6.1042780e-01 
-3.3012584e-01 -4.6316981e-01 -4.9053180e-01 
1.7241204e-01 -1.1232930e+00 5.5242622e-01 
5.9849232e-01 -2.8626385e-01 1.4314387e+00 
-3.3288896e-02 9.5221937e-01 6.6969609e-01 
-2.8937924e-01 1.1126819e+00 -3.4459582e-01 
-2.4105346e-02 1.3032055e+00 -6.5907508e-01 
-6.9441855e-02 1.4292532e+00 -1.0139827e+00 
0.0000000e+00 1.6086512e+00 -2.3280029e-01 
0.0000000e+00 1.1538620e+00 2.6982464e-03 
0.0000000e+00 7.0110053e-01 9.1819003e-02 
0.0000000e+00 8.1624132e-01 1.4757659e-01 
0.0000000e+00 5.5018330e-01 4.0862465e-01 
0.0000000e+00 7.1034953e-02 4.1119084e-02 
0.0000000e+00 -5.1655775e-01 -2.9936302e-01 
0.0000000e+00 1.6861369e-01 4.2826283e-01 
0.0000000e+00 8.8958330e-03 -7.5582534e-02 
0.0000000e+00 1.6215481e+00 -2.3387536e-01 
0.0000000e+00 1.4355360e+00 -1.2093933e-01 
0.0000000e+00 8.4633720e-01 -1.4055017e-02 
0.0000000e+00 6.7514002e-01 8.0224596e-02 
0.0000000e+00 7.3291916e-01 3.2189831e-01 
0.0000000e+00 3.4856015e-01 2.3268291e-01 
0.0000000e+00 -3.1902328e-01 -9.9203736e-02 
0.0000000e+00 -1.0642635e-01 -7.8108415e-02 
0.0000000e+00 1.2500693e-01 3.7811571e-01 
0.0000000e+00 4.6639610e-02 -3.2633135e-01 
-3.6889887e-01 -1.3101509e-01 0.0000000e+00 
-1.1927759e-01 3.9546251e-02 0.0000000e+00 
2.0405205e-01 4.5894143e-01 0.0000000e+00 
1.5767911e-01 2.9342017e-01 0.0000000e+00 
1.5382876e-01 1.6364506e-01 0.0000000e+00 
1.7138587e-01 -4.3435869e-01 0.0000000e+00 
-6.9265611e-02 -2.2844274e-01 0.0000000e+00 
-2.2860691e-02 -4.4497252e-02 0.0000000e+00 
1.2783380e-01 7.8688771e-02 0.0000000e+00 
-1.0526631e+00 -1.8469521e+00 0.0000000e+00 
1.5915741e-01 -9.5662206e-01 0.0000000e+00 
3.4172669e-01 -4.6380782e-01 0.0000000e+00 
-1.5717064e+00 -5.8544457e-01 0.0000000e+00 
-3.4133855e-01 -1.6643901e+00 0.0000000e+00 
4.8726922e-01 -7.3320621e-01 0.0000000e+00 
1.4102101e-02 -7.4606843e-02 0.0000000e+00 
2.7810979e-01 4.6341455e-01 0.0000000e+00 
-3.3528376e-01 -4.2119759e-01 0.0000000e+00 
4.5457596e-01 2.1919867e-01 0.0000000e+00 
-6.8586856e-02 2.8946367e-01 0.0000000e+00 
3.4315221e-02 -4.2191002e-01 0.0000000e+00 
-8.9700088e-02 -3.5327721e-01 0.0000000e+00 
9.2349827e-01 8.9593530e-01 0.0000000e+00 
1.9326316e-01 4.5182186e-01 0.0000000e+00 
-2.0361200e-01 -1.8945105e-01 0.0000000e+00 
-1.4421280e-01 -4.7275710e-01 0.0000000e+00 
-4.5151359e-01 2.8349558e-01 0.0000000e+00 
-4.3311276e-02 -7.5160575e-01 0.0000000e+00 
3.3305246e-02 -2.4635845e-01 0.0000000e+00 
7.0105225e-02 1.9815786e-01 0.0000000e+00 
1.4917986e-02 -4.8368800e-01 0.0000000e+00 
4.7535789e-01 8.7758875e-01 0.0000000e+00 
-3.1529486e-01 -3.1171331e-01 0.0000000e+00 
-2.7993217e-02 -1.2796545e-01 0.0000000e+00 
5.6256109e-01 3.0014908e-01 0.0000000e+00 
4.5348767e-02 6.1100721e-01 0.0000000e+00 
-2.9663807e-01 -4.1778320e-01 0.0000000e+00 
-1.8048190e-01 -1.5472117e-01 0.0000000e+00 
7.2872691e-02 2.7760196e-01 0.0000000e+00 
-1.6109793e-02 -8.7069340e-02 0.0000000e+00 
7.7078134e-02 -2.3106277e-01 0.0000000e+00 
-3.1536466e-01 3.7226665e-01 0.0000000e+00 
9.0253286e-02 2.7408475e-01 0.0000000e+00 
-1.3275786e-01 -2.0678271e-01 0.0000000e+00 
5.2366740e-01 5.6273196e-02 0.0000000e+00 
-3.2032323e-01 -4.1691101e-01 0.0000000e+00 
-3.2469224e-02 -4.7620359e-01 0.0000000e+00 
1.3120812e-01 -2.9078716e-01 0.0000000e+00 
-3.0834568e-01 -8.8034362e-01 0.0000000e+00 
-6.1524743e-01 -2.5971651e-01 0.0000000e+00 
-7.5894487e-01 -1.5236160e-01 0.0000000e+00 
2.3376109e-01 -7.2705454e-01 0.0000000e+00 
-5.6798649e-01 -6.7722672e-01 0.0000000e+00 
-3.5562378e-01 1.5953141e-01 0.0000000e+00 
-3.7613806e-01 -5.3938244e-02 0.0000000e+00 
-3.0603859e-01 4.7858378e-01 0.0000000e+00 
-2.9396057e-01 3.0617428e-01 0.0000000e+00 
2.5440663e-01 3.7320487e-02 0.0000000e+00 
-1.1249758e-01 5.5529296e-01 0.0000000e+00 
3.9100596e-03 2.3255350e-01 0.0000000e+00 
-1.4327067e-01 1.3045767e-01 0.0000000e+00 
6.4960040e-02 3.0163723e-01 0.0000000e+00 
-3.0551296e-01 -3.0103794e-01 0.0000000e+00 
3.3130173e-02 -6.0254396e-03 0.0000000e+00 
7.5480416e-02 7.5085096e-02 0.0000000e+00 
-4.1032454e-01 -3.7115872e-01 0.0000000e+00 
-1.9832236e-01 -6.5360898e-01 0.0000000e+00 
-2.8960833e-01 -3.6582369e-01 0.0000000e+00 
6.7868769e-01 9.1678637e-01 0.0000000e+00 
-2.4600840e-01 -7.1223593e-01 0.0000000e+00 
-2.7050889e-01 -4.5420998e-01 0.0000000e+00 
3.0003643e-02 -1.2287836e-01 0.0000000e+00 
-2.0449336e-01 -8.7770939e-01 0.0000000e+00 
-2.0576750e-01 -1.1140224e+00 0.0000000e+00 
-1.7859896e-01 -5.1401889e-01 0.0000000e+00 
1.3539821e-01 -3.5121760e-01 0.0000000e+00 
-2.7063197e-01 -1.2315173e+00 0.0000000e+00 
9.3543738e-02 -6.8853396e-01 0.0000000e+00 
-1.5998747e-02 -1.9577743e-01 0.0000000e+00 
2.0102212e-01 8.0808663e-01 0.0000000e+00 
4.0556747e-01 1.1200968e-01 0.0000000e+00 
4.6840009e-01 1.0851233e-01 0.0000000e+00 
-1.0799803e+00 -7.3983598e-01 0.0000000e+00 
3.2387865e-01 1.5375902e-01 0.0000000e+00 
6.2143955e-02 3.5602280e-01 0.0000000e+00 
2.8459334e-01 4.9837419e-01 0.0000000e+00 
-3.8434303e-01 9.6946843e-03 0.0000000e+00 
4.0293839e-02 -1.3656829e-01 0.0000000e+00 
4.1573957e-01 4.0578505e-01 0.0000000e+00 
1.5844397e-01 7.9264653e-01 0.0000000e+00 
-4.2549512e-01 -3.0649135e-01 0.0000000e+00 
-1.8158157e-01 -1.3037786e-02 0.0000000e+00 
-2.0302472e-01 -3.7521777e-01 0.0000000e+00 
2.8113151e-02 -1.5075254e-02 0.0000000e+00 
-6.3461262e-01 -4.0201533e-01 0.0000000e+00 
-5.5948597e-01 9.8328441e-02 0.0000000e+00 
-2.4899383e-01 9.1665491e-02 0.0000000e+00 
2.5136223e-01 1.3695489e-01 0.0000000e+00 
-1.9416969e-01 -2.0609691e+00 0.0000000e+00 
3.4937855e-02 1.8731491e-01 0.0000000e+00 
-1.9206330e-01 -9.1111887e-01 0.0000000e+00 
-2.5261706e-01 -5.3159475e-02 0.0000000e+00 
-3.1960735e-01 2.3878771e-01 0.0000000e+00 
-5.8304507e-01 -5.4929173e-01 0.0000000e+00 
-8.7965959e-01 -6.9669068e-01 0.0000000e+00 
3.1559625e-01 4.6902528e-01 0.0000000e+00 
-3.6780107e-01 -2.8793046e-01 0.0000000e+00 
-5.4158038e-01 -4.2188317e-01 0.0000000e+00 
-3.7452677e-01 -2.5570786e-01 0.0000000e+00 
-4.7288352e-01 -6.9306260e-01 0.0000000e+00 
1.7793909e-01 -2.0666139e-02 0.0000000e+00 
2.9596969e-01 2.9666427e-01 0.0000000e+00 
2.2726132e-01 1.1673976e-01 0.0000000e+00 
-5.9123492e-01 9.5325932e-02 0.0000000e+00 
-5.3758649e-03 -8.6759847e-01 0.0000000e+00 
6.0309225e-01 9.4120347e-01 0.0000000e+00 
-3.9840198e-01 1.3481669e-01 0.0000000e+00 
-2.0128648e-01 -7.8241491e-01 0.0000000e+00 
-3.1972620e-01 -1.7280714e-01 0.0000000e+00 
4.3807310e-01 1.7165959e-01 0.0000000e+00 
-5.5671585e-01 -9.1328257e-01 0.0000000e+00 
-3.2395521e-01 -5.4026056e-02 0.0000000e+00 
-2.5765643e-01 -2.5036669e-01 0.0000000e+00 
-2.1147013e-01 2.3360582e-01 0.0000000e+00 
-3.9391514e-02 2.6335424e-01 0.0000000e+00 
3.2956970e-01 5.2073681e-01 0.0000000e+00 
1.4824690e-01 5.3838623e-01 0.0000000e+00 
-5.5462670e-01 7.4601792e-02 0.0000000e+00 
-1.0987322e-02 3.6982810e-01 0.0000000e+00 
-6.0295212e-01 -1.5825781e+00 0.0000000e+00 
1.2588310e-01 1.2509068e-02 0.0000000e+00 
-2.8667450e-01 3.5307962e-01 0.0000000e+00 
-7.2271332e-02 -7.4091472e-02 0.0000000e+00 
1.5603241e-01 3.7056836e-01 0.0000000e+00 
2.2110167e-01 2.7881894e-01 0.0000000e+00 
1.9757017e-01 -1.1191463e-01 0.0000000e+00 
-2.2385379e-02 1.4415671e-01 0.0000000e+00 
-1.7162035e-01 -1.2091468e-01 0.0000000e+00 
-1.4366772e-02 -1.2181674e-01 0.0000000e+00 
8.8335298e-02 -4.0839487e-01 0.0000000e+00 
-4.6553470e-02 -1.5922901e-01 0.0000000e+00 
-2.5772187e-01 -3.0157250e-01 0.0000000e+00 
-6.5246269e-02 -1.5947215e-01 0.0000000e+00 
-3.3228728e-03 1.7109429e-02 0.0000000e+00 
3.0760568e-01 2.8398487e-01 0.0000000e+00 
-7.8039570e-03 -6.9762155e-02 0.0000000e+00 
-2.4496718e-01 -1.7028987e-01 0.0000000e+00 
1.7829695e-01 -1.6405298e-01 0.0000000e+00 
-7.6018237e-02 -4.2936247e-02 0.0000000e+00 
-2.2014143e-01 -7.3651686e-02 0.0000000e+00 
-3.2785729e-01 8.8804334e-02 0.0000000e+00 
-7.4686378e-02 4.1470628e-02 0.0000000e+00 
-7.8910910e-02 8.8669844e-02 0.0000000e+00 
-4.9045235e-01 2.4505630e-01 0.0000000e+00 
-4.2348728e-01 -4.2514467e-01 0.0000000e+00 
-1.7739834e-01 -1.7445566e-01 0.0000000e+00 
-3.6325452e-01 -4.6318144e-02 0.0000000e+00 
5.7728175e-02 -1.1332312e-02 0.0000000e+00 
-3.3025861e-01 -3.4151343e-01 0.0000000e+00 
-6.2649471e-01 -6.4943445e-01 0.0000000e+00 
6.9681919e-01 5.3348130e-01 0.0000000e+00 
3.3772701e-01 1.6661026e-01 0.0000000e+00 
1.1879395e-01 -1.0097120e-01 0.0000000e+00 
-7.1403787e-02 -2.3413004e-02 0.0000000e+00 
6.8583113e-01 6.3889980e-01 0.0000000e+00 
9.0544206e-01 7.2203761e-01 0.0000000e+00 
-7.3571312e-01 -4.6771240e-01 0.0000000e+00 
-7.0667934e-01 -5.1647472e-01 0.0000000e+00 
-1.6686623e-01 -1.8986657e-02 0.0000000e+00 
2.6064590e-01 2.3806728e-01 0.0000000e+00 
-3.0336416e-01 -1.6305426e-01 0.0000000e+00 
-7.1693140e-01 -5.9121716e-01 0.0000000e+00 
4.3703541e-01 3.3261287e-01 0.0000000e+00 
5.9093788e-02 -8.8211544e-02 0.0000000e+00 
9.1143042e-02 5.0022227e-01 0.0000000e+00 
1.1833280e-01 6.3551581e-01 0.0000000e+00 
-3.5896692e-01 -4.5973209e-01 0.0000000e+00 
6.7137107e-02 -4.5990416e-01 0.0000000e+00 
-4.2433423e-01 -4.6974435e-01 0.0000000e+00 
4.5445639e-01 4.5296210e-01 0.0000000e+00 
-1.2159478e-01 -8.3578877e-02 0.0000000e+00 
2.6768121e-01 3.2663476e-02 0.0000000e+00 
3.7998846e-01 5.5028558e-01 0.0000000e+00 
4.3009716e-01 6.0878479e-01 0.0000000e+00 
6.4287829e-01 5.6847292e-01 0.0000000e+00 
1.7846131e-01 3.5966909e-01 0.0000000e+00 
3.7483582e-01 5.0555313e-01 0.0000000e+00 
2.1784006e-01 2.9108878e-02 0.0000000e+00 
-9.9048829e-03 3.1886037e-02 0.0000000e+00 
-2.0715963e-02 1.8106270e-01 0.0000000e+00 
-1.1287888e-01 -2.2982098e-01 0.0000000e+00 
-4.5668922e-02 -7.7309748e-03 0.0000000e+00 
-4.4223174e-02 -7.4978411e-02 0.0000000e+00 
-1.8674957e-02 -5.9334403e-01 0.0000000e+00 
-6.2604293e-02 2.5532898e-01 0.0000000e+00 
-1.1119822e-01 1.1011788e-01 0.0000000e+00 
4.8133351e-02 -6.0745716e-01 0.0000000e+00 
8.6040735e-02 -6.1381584e-01 0.0000000e+00 
4.7840986e-02 7.0336252e-02 0.0000000e+00 
2.4742568e-01 -2.5806103e-02 0.0000000e+00 
3.5582337e-01 1.5611345e-01 0.0000000e+00 
-2.0871568e-01 5.1604640e-02 0.0000000e+00 
-1.0781480e-01 3.9835885e-02 0.0000000e+00 
-4.7602269e-04 -6.9396914e-04 0.0000000e+00 
-2.0033915e-01 3.2536164e-01 0.0000000e+00 
-2.5368056e-01 2.5748885e-01 0.0000000e+00 
-1.6590299e-01 -1.4928834e-01 0.0000000e+00 
-1.8166080e-02 6.6228759e-01 0.0000000e+00 
-3.1398177e-02 4.4019464e-01 0.0000000e+00 
-1.6457325e-01 6.5192319e-02 0.0000000e+00 
-3.8192481e-02 2.2043565e-01 0.0000000e+00 
-4.5360036e-02 5.2809215e-01 0.0000000e+00 
1.4817085e-02 4.3680826e-01 0.0000000e+00 
2.0978333e-01 2.2003354e-01 0.0000000e+00 
4.1076422e-02 1.3720267e-01 0.0000000e+00 
-1.2921454e-02 4.2877102e-01 0.0000000e+00 
-3.8567823e-01 -7.7854618e-02 0.0000000e+00 
5.1435687e-02 1.8172659e-01 0.0000000e+00 
1.4137235e-01 2.5188884e-01 0.0000000e+00 
2.8734753e-01 4.0991333e-01 0.0000000e+00 
-1.0144227e-03 -8.7528154e-02 0.0000000e+00 
-4.2911926e-01 2.5922385e-01 0.0000000e+00 
1.8743765e-01 6.4177418e-01 0.0000000e+00 
2.6024893e-01 3.1808916e-01 0.0000000e+00 
-1.9338062e-01 -7.9042852e-02 0.0000000e+00 
-2.5166562e-01 -1.0645336e-02 0.0000000e+00 
-1.8634455e-01 -1.4998389e+00 0.0000000e+00 
-4.2662665e-01 -1.9634821e+00 0.0000000e+00 
-9.3341976e-02 -1.6633044e+00 0.0000000e+00 
8.9964837e-02 -4.0378004e-01 0.0000000e+00 
1.4919500e-01 -8.9392877e-01 0.0000000e+00 
-8.1500068e-02 -1.2505664e+00 0.0000000e+00 
-3.5688451e-01 1.3651009e-01 0.0000000e+00 
-8.9116432e-02 -3.7264172e-02 0.0000000e+00 