# vtk DataFile Version 4.0
vtk output
ASCII
DATASET UNSTRUCTURED_GRID
POINTS 7661 float
0.0000000e+00 0.0000000e+00 0.0000000e+00 
5.0000000e+00 0.0000000e+00 0.0000000e+00 
5.0000000e+00 5.0000000e+00 0.0000000e+00 
0.0000000e+00 5.0000000e+00 0.0000000e+00 
0.0000000e+00 0.0000000e+00 5.0000000e+00 
5.0000000e+00 0.0000000e+00 5.0000000e+00 
5.0000000e+00 5.0000000e+00 5.0000000e+00 
0.0000000e+00 5.0000000e+00 5.0000000e+00 
1.0000000e+00 5.0000000e+00 0.0000000e+00 
2.0000000e+00 5.0000000e+00 0.0000000e+00 
3.0000000e+00 5.0000000e+00 0.0000000e+00 
5.0000000e-01 0.0000000e+00 0.0000000e+00 
1.0000000e+00 0.0000000e+00 0.0000000e+00 
1.5000000e+00 0.0000000e+00 0.0000000e+00 
2.0000000e+00 0.0000000e+00 0.0000000e+00 
2.5000000e+00 0.0000000e+00 0.0000000e+00 
3.0000000e+00 0.0000000e+00 0.0000000e+00 
3.5000000e+00 0.0000000e+00 0.0000000e+00 
4.0000000e+00 0.0000000e+00 0.0000000e+00 
4.5000000e+00 0.0000000e+00 0.0000000e+00 
2.5000000e-01 0.0000000e+00 0.0000000e+00 
7.5000000e-01 0.0000000e+00 0.0000000e+00 
1.2500000e+00 0.0000000e+00 0.0000000e+00 
1.7500000e+00 0.0000000e+00 0.0000000e+00 
2.2500000e+00 0.0000000e+00 0.0000000e+00 
2.7500000e+00 0.0000000e+00 0.0000000e+00 
3.2500000e+00 0.0000000e+00 0.0000000e+00 
3.7500000e+00 0.0000000e+00 0.0000000e+00 
4.2500000e+00 0.0000000e+00 0.0000000e+00 
4.7500000e+00 0.0000000e+00 0.0000000e+00 
5.0000000e+00 5.0000000e-01 0.0000000e+00 
5.0000000e+00 1.0000000e+00 0.0000000e+00 
5.0000000e+00 1.5000000e+00 0.0000000e+00 
5.0000000e+00 2.0000000e+00 0.0000000e+00 
5.0000000e+00 2.5000000e+00 0.0000000e+00 
5.0000000e+00 3.0000000e+00 0.0000000e+00 
5.0000000e+00 3.5000000e+00 0.0000000e+00 
5.0000000e+00 4.0000000e+00 0.0000000e+00 
5.0000000e+00 4.5000000e+00 0.0000000e+00 
5.0000000e+00 2.5000000e-01 0.0000000e+00 
5.0000000e+00 7.5000000e-01 0.0000000e+00 
5.0000000e+00 1.2500000e+00 0.0000000e+00 
5.0000000e+00 1.7500000e+00 0.0000000e+00 
5.0000000e+00 2.2500000e+00 0.0000000e+00 
5.0000000e+00 2.7500000e+00 0.0000000e+00 
5.0000000e+00 3.2500000e+00 0.0000000e+00 
5.0000000e+00 3.7500000e+00 0.0000000e+00 
5.0000000e+00 4.2500000e+00 0.0000000e+00 
5.0000000e+00 4.7500000e+00 0.0000000e+00 
0.0000000e+00 4.5000000e+00 0.0000000e+00 
0.0000000e+00 4.0000000e+00 0.0000000e+00 
0.0000000e+00 3.5000000e+00 0.0000000e+00 
0.0000000e+00 3.0000000e+00 0.0000000e+00 
0.0000000e+00 2.5000000e+00 0.0000000e+00 
0.0000000e+00 2.0000000e+00 0.0000000e+00 
0.0000000e+00 1.5000000e+00 0.0000000e+00 
0.0000000e+00 1.0000000e+00 0.0000000e+00 
0.0000000e+00 5.0000000e-01 0.0000000e+00 
0.0000000e+00 4.7500000e+00 0.0000000e+00 
0.0000000e+00 4.2500000e+00 0.0000000e+00 
0.0000000e+00 3.7500000e+00 0.0000000e+00 
0.0000000e+00 3.2500000e+00 0.0000000e+00 
0.0000000e+00 2.7500000e+00 0.0000000e+00 
0.0000000e+00 2.2500000e+00 0.0000000e+00 
0.0000000e+00 1.7500000e+00 0.0000000e+00 
0.0000000e+00 1.2500000e+00 0.0000000e+00 
0.0000000e+00 7.5000000e-01 0.0000000e+00 
0.0000000e+00 2.5000000e-01 0.0000000e+00 
0.0000000e+00 0.0000000e+00 5.0000000e-01 
0.0000000e+00 0.0000000e+00 1.0000000e+00 
0.0000000e+00 0.0000000e+00 1.5000000e+00 
0.0000000e+00 0.0000000e+00 2.0000000e+00 
0.0000000e+00 0.0000000e+00 2.5000000e+00 
0.0000000e+00 0.0000000e+00 3.0000000e+00 
0.0000000e+00 0.0000000e+00 3.5000000e+00 
0.0000000e+00 0.0000000e+00 4.0000000e+00 
0.0000000e+00 0.0000000e+00 4.5000000e+00 
0.0000000e+00 0.0000000e+00 2.5000000e-01 
0.0000000e+00 0.0000000e+00 7.5000000e-01 
0.0000000e+00 0.0000000e+00 1.2500000e+00 
0.0000000e+00 0.0000000e+00 1.7500000e+00 
0.0000000e+00 0.0000000e+00 2.2500000e+00 
0.0000000e+00 0.0000000e+00 2.7500000e+00 
0.0000000e+00 0.0000000e+00 3.2500000e+00 
0.0000000e+00 0.0000000e+00 3.7500000e+00 
0.0000000e+00 0.0000000e+00 4.2500000e+00 
0.0000000e+00 0.0000000e+00 4.7500000e+00 
5.0000000e+00 0.0000000e+00 5.0000000e-01 
5.0000000e+00 0.0000000e+00 1.0000000e+00 
5.0000000e+00 0.0000000e+00 1.5000000e+00 
5.0000000e+00 0.0000000e+00 2.0000000e+00 
5.0000000e+00 0.0000000e+00 2.5000000e+00 
5.0000000e+00 0.0000000e+00 3.0000000e+00 
5.0000000e+00 0.0000000e+00 3.5000000e+00 
5.0000000e+00 0.0000000e+00 4.0000000e+00 
5.0000000e+00 0.0000000e+00 4.5000000e+00 
5.0000000e+00 0.0000000e+00 2.5000000e-01 
5.0000000e+00 0.0000000e+00 7.5000000e-01 
5.0000000e+00 0.0000000e+00 1.2500000e+00 
5.0000000e+00 0.0000000e+00 1.7500000e+00 
5.0000000e+00 0.0000000e+00 2.2500000e+00 
5.0000000e+00 0.0000000e+00 2.7500000e+00 
5.0000000e+00 0.0000000e+00 3.2500000e+00 
5.0000000e+00 0.0000000e+00 3.7500000e+00 
5.0000000e+00 0.0000000e+00 4.2500000e+00 
5.0000000e+00 0.0000000e+00 4.7500000e+00 
5.0000000e-01 0.0000000e+00 5.0000000e+00 
1.0000000e+00 0.0000000e+00 5.0000000e+00 
1.5000000e+00 0.0000000e+00 5.0000000e+00 
2.0000000e+00 0.0000000e+00 5.0000000e+00 
2.5000000e+00 0.0000000e+00 5.0000000e+00 
3.0000000e+00 0.0000000e+00 5.0000000e+00 
3.5000000e+00 0.0000000e+00 5.0000000e+00 
4.0000000e+00 0.0000000e+00 5.0000000e+00 
4.5000000e+00 0.0000000e+00 5.0000000e+00 
2.5000000e-01 0.0000000e+00 5.0000000e+00 
7.5000000e-01 0.0000000e+00 5.0000000e+00 
1.2500000e+00 0.0000000e+00 5.0000000e+00 
1.7500000e+00 0.0000000e+00 5.0000000e+00 
2.2500000e+00 0.0000000e+00 5.0000000e+00 
2.7500000e+00 0.0000000e+00 5.0000000e+00 
3.2500000e+00 0.0000000e+00 5.0000000e+00 
3.7500000e+00 0.0000000e+00 5.0000000e+00 
4.2500000e+00 0.0000000e+00 5.0000000e+00 
4.7500000e+00 0.0000000e+00 5.0000000e+00 
5.0000000e+00 5.0000000e+00 5.0000000e-01 
5.0000000e+00 5.0000000e+00 1.0000000e+00 
5.0000000e+00 5.0000000e+00 1.5000000e+00 
5.0000000e+00 5.0000000e+00 2.0000000e+00 
5.0000000e+00 5.0000000e+00 2.5000000e+00 
5.0000000e+00 5.0000000e+00 3.0000000e+00 
5.0000000e+00 5.0000000e+00 3.5000000e+00 
5.0000000e+00 5.0000000e+00 4.0000000e+00 
5.0000000e+00 5.0000000e+00 4.5000000e+00 
5.0000000e+00 5.0000000e+00 2.5000000e-01 
5.0000000e+00 5.0000000e+00 7.5000000e-01 
5.0000000e+00 5.0000000e+00 1.2500000e+00 
5.0000000e+00 5.0000000e+00 1.7500000e+00 
5.0000000e+00 5.0000000e+00 2.2500000e+00 
5.0000000e+00 5.0000000e+00 2.7500000e+00 
5.0000000e+00 5.0000000e+00 3.2500000e+00 
5.0000000e+00 5.0000000e+00 3.7500000e+00 
5.0000000e+00 5.0000000e+00 4.2500000e+00 
5.0000000e+00 5.0000000e+00 4.7500000e+00 
5.0000000e+00 5.0000000e-01 5.0000000e+00 
5.0000000e+00 1.0000000e+00 5.0000000e+00 
5.0000000e+00 1.5000000e+00 5.0000000e+00 
5.0000000e+00 2.0000000e+00 5.0000000e+00 
5.0000000e+00 2.5000000e+00 5.0000000e+00 
5.0000000e+00 3.0000000e+00 5.0000000e+00 
5.0000000e+00 3.5000000e+00 5.0000000e+00 
5.0000000e+00 4.0000000e+00 5.0000000e+00 
5.0000000e+00 4.5000000e+00 5.0000000e+00 
5.0000000e+00 2.5000000e-01 5.0000000e+00 
5.0000000e+00 7.5000000e-01 5.0000000e+00 
5.0000000e+00 1.2500000e+00 5.0000000e+00 
5.0000000e+00 1.7500000e+00 5.0000000e+00 
5.0000000e+00 2.2500000e+00 5.0000000e+00 
5.0000000e+00 2.7500000e+00 5.0000000e+00 
5.0000000e+00 3.2500000e+00 5.0000000e+00 
5.0000000e+00 3.7500000e+00 5.0000000e+00 
5.0000000e+00 4.2500000e+00 5.0000000e+00 
5.0000000e+00 4.7500000e+00 5.0000000e+00 
0.0000000e+00 5.0000000e+00 5.0000000e-01 
0.0000000e+00 5.0000000e+00 1.0000000e+00 
0.0000000e+00 5.0000000e+00 1.5000000e+00 
0.0000000e+00 5.0000000e+00 2.0000000e+00 
0.0000000e+00 5.0000000e+00 2.5000000e+00 
0.0000000e+00 5.0000000e+00 3.0000000e+00 
0.0000000e+00 5.0000000e+00 3.5000000e+00 
0.0000000e+00 5.0000000e+00 4.0000000e+00 
0.0000000e+00 5.0000000e+00 4.5000000e+00 
0.0000000e+00 5.0000000e+00 2.5000000e-01 
0.0000000e+00 5.0000000e+00 7.5000000e-01 
0.0000000e+00 5.0000000e+00 1.2500000e+00 
0.0000000e+00 5.0000000e+00 1.7500000e+00 
0.0000000e+00 5.0000000e+00 2.2500000e+00 
0.0000000e+00 5.0000000e+00 2.7500000e+00 
0.0000000e+00 5.0000000e+00 3.2500000e+00 
0.0000000e+00 5.0000000e+00 3.7500000e+00 
0.0000000e+00 5.0000000e+00 4.2500000e+00 
0.0000000e+00 5.0000000e+00 4.7500000e+00 
4.5000000e+00 5.0000000e+00 5.0000000e+00 
4.0000000e+00 5.0000000e+00 5.0000000e+00 
3.5000000e+00 5.0000000e+00 5.0000000e+00 
3.0000000e+00 5.0000000e+00 5.0000000e+00 
2.5000000e+00 5.0000000e+00 5.0000000e+00 
2.0000000e+00 5.0000000e+00 5.0000000e+00 
1.5000000e+00 5.0000000e+00 5.0000000e+00 
1.0000000e+00 5.0000000e+00 5.0000000e+00 
5.0000000e-01 5.0000000e+00 5.0000000e+00 
4.7500000e+00 5.0000000e+00 5.0000000e+00 
4.2500000e+00 5.0000000e+00 5.0000000e+00 
3.7500000e+00 5.0000000e+00 5.0000000e+00 
3.2500000e+00 5.0000000e+00 5.0000000e+00 
2.7500000e+00 5.0000000e+00 5.0000000e+00 
2.2500000e+00 5.0000000e+00 5.0000000e+00 
1.7500000e+00 5.0000000e+00 5.0000000e+00 
1.2500000e+00 5.0000000e+00 5.0000000e+00 
7.5000000e-01 5.0000000e+00 5.0000000e+00 
2.5000000e-01 5.0000000e+00 5.0000000e+00 
0.0000000e+00 4.5000000e+00 5.0000000e+00 
0.0000000e+00 4.0000000e+00 5.0000000e+00 
0.0000000e+00 3.5000000e+00 5.0000000e+00 
0.0000000e+00 3.0000000e+00 5.0000000e+00 
0.0000000e+00 2.5000000e+00 5.0000000e+00 
0.0000000e+00 2.0000000e+00 5.0000000e+00 
0.0000000e+00 1.5000000e+00 5.0000000e+00 
0.0000000e+00 1.0000000e+00 5.0000000e+00 
0.0000000e+00 5.0000000e-01 5.0000000e+00 
0.0000000e+00 4.7500000e+00 5.0000000e+00 
0.0000000e+00 4.2500000e+00 5.0000000e+00 
0.0000000e+00 3.7500000e+00 5.0000000e+00 
0.0000000e+00 3.2500000e+00 5.0000000e+00 
0.0000000e+00 2.7500000e+00 5.0000000e+00 
0.0000000e+00 2.2500000e+00 5.0000000e+00 
0.0000000e+00 1.7500000e+00 5.0000000e+00 
0.0000000e+00 1.2500000e+00 5.0000000e+00 
0.0000000e+00 7.5000000e-01 5.0000000e+00 
0.0000000e+00 2.5000000e-01 5.0000000e+00 
5.0000000e-01 5.0000000e+00 0.0000000e+00 
2.5000000e-01 5.0000000e+00 0.0000000e+00 
7.5000000e-01 5.0000000e+00 0.0000000e+00 
1.5000000e+00 5.0000000e+00 0.0000000e+00 
1.2500000e+00 5.0000000e+00 0.0000000e+00 
1.7500000e+00 5.0000000e+00 0.0000000e+00 
2.5000000e+00 5.0000000e+00 0.0000000e+00 
2.2500000e+00 5.0000000e+00 0.0000000e+00 
2.7500000e+00 5.0000000e+00 0.0000000e+00 
4.5000000e+00 5.0000000e+00 0.0000000e+00 
[...]
POINT_DATA 7661
FIELD FieldData 1
VELOCITY 3 7661  float
0.0000000e+00 0.0000000e+00 0.0000000e+00 
0.0000000e+00 0.0000000e+00 0.0000000e+00 
2.9911458e-01 1.3752814e-01 0.0000000e+00 
0.0000000e+00 7.9346293e-01 0.0000000e+00 
0.0000000e+00 0.0000000e+00 0.0000000e+00 
0.0000000e+00 0.0000000e+00 0.0000000e+00 
2.0173743e-02 -2.1665211e-01 1.1558742e-02 
0.0000000e+00 5.4174312e-03 3.1308743e-01 
-2.0649965e-01 6.9867975e-01 0.0000000e+00 
2.6983130e-01 4.8858380e-01 0.0000000e+00 
4.1512007e-01 2.8559637e-01 0.0000000e+00 
0.0000000e+00 0.0000000e+00 0.0000000e+00 
0.0000000e+00 0.0000000e+00 0.0000000e+00 
0.0000000e+00 0.0000000e+00 0.0000000e+00 
0.0000000e+00 0.0000000e+00 0.0000000e+00 
0.0000000e+00 0.0000000e+00 0.0000000e+00 
0.0000000e+00 0.0000000e+00 0.0000000e+00 
0.0000000e+00 0.0000000e+00 0.0000000e+00 
0.0000000e+00 0.0000000e+00 0.0000000e+00 
0.0000000e+00 0.0000000e+00 0.0000000e+00 
0.0000000e+00 0.0000000e+00 0.0000000e+00 
0.0000000e+00 0.0000000e+00 0.0000000e+00 
0.0000000e+00 0.0000000e+00 0.0000000e+00 
0.0000000e+00 0.0000000e+00 0.0000000e+00 
0.0000000e+00 0.0000000e+00 0.0000000e+00 
0.0000000e+00 0.0000000e+00 0.0000000e+00 
0.0000000e+00 0.0000000e+00 0.0000000e+00 
0.0000000e+00 0.0000000e+00 0.0000000e+00 
0.0000000e+00 0.0000000e+00 0.0000000e+00 
0.0000000e+00 0.0000000e+00 0.0000000e+00 
2.9115388e-02 7.8908958e-02 0.0000000e+00 
-3.0396815e-02 1.1055566e-01 0.0000000e+00 
-1.3792831e-01 2.2088045e-01 0.0000000e+00 
-6.9327630e-02 2.3587954e-01 0.0000000e+00 
1.4558618e-01 2.0485632e-01 0.0000000e+00 
1.1924432e-01 2.6944888e-01 0.0000000e+00 
-2.7466204e-02 2.1589170e-01 0.0000000e+00 
1.1720638e-01 -1.3991619e-02 0.0000000e+00 
6.6400997e-02 8.6852483e-02 0.0000000e+00 
1.2664904e-02 4.6046313e-02 0.0000000e+00 
-4.6924749e-04 1.0830992e-01 0.0000000e+00 
-5.9839517e-02 1.4814132e-01 0.0000000e+00 
-1.3736139e-01 2.2150727e-01 0.0000000e+00 
4.1416630e-02 2.3911603e-01 0.0000000e+00 
1.7011800e-01 2.1254149e-01 0.0000000e+00 
1.6364649e-02 2.9635867e-01 0.0000000e+00 
2.6536250e-02 5.7010449e-02 0.0000000e+00 
1.3334526e-01 5.3434741e-02 0.0000000e+00 
1.3003473e-01 8.2743727e-02 0.0000000e+00 
0.0000000e+00 2.7422491e-01 0.0000000e+00 
0.0000000e+00 4.1100428e-01 0.0000000e+00 
0.0000000e+00 1.7624299e-01 0.0000000e+00 
0.0000000e+00 6.0472060e-02 0.0000000e+00 
0.0000000e+00 2.8216702e-01 0.0000000e+00 
0.0000000e+00 1.2511086e-01 0.0000000e+00 
0.0000000e+00 2.4226335e-01 0.0000000e+00 
0.0000000e+00 7.2960351e-03 0.0000000e+00 
0.0000000e+00 -1.9986430e-01 0.0000000e+00 
0.0000000e+00 5.3097129e-01 0.0000000e+00 
0.0000000e+00 3.3585602e-01 0.0000000e+00 
0.0000000e+00 3.0247754e-01 0.0000000e+00 
0.0000000e+00 2.1258930e-02 0.0000000e+00 
0.0000000e+00 2.6725918e-01 0.0000000e+00 
0.0000000e+00 1.7947218e-01 0.0000000e+00 
0.0000000e+00 1.6906536e-01 0.0000000e+00 
0.0000000e+00 1.6448243e-01 0.0000000e+00 
0.0000000e+00 -1.2999637e-01 0.0000000e+00 
0.0000000e+00 -1.1808395e-01 0.0000000e+00 
0.0000000e+00 0.0000000e+00 0.0000000e+00 
0.0000000e+00 0.0000000e+00 0.0000000e+00 
0.0000000e+00 0.0000000e+00 0.0000000e+00 
0.0000000e+00 0.0000000e+00 0.0000000e+00 
0.0000000e+00 0.0000000e+00 0.0000000e+00 
0.0000000e+00 0.0000000e+00 0.0000000e+00 
0.0000000e+00 0.0000000e+00 0.0000000e+00 
0.0000000e+00 0.0000000e+00 0.0000000e+00 
0.0000000e+00 0.0000000e+00 0.0000000e+00 
0.0000000e+00 0.0000000e+00 0.0000000e+00 
0.0000000e+00 0.0000000e+00 0.0000000e+00 
0.0000000e+00 0.0000000e+00 0.0000000e+00 
0.0000000e+00 0.0000000e+00 0.0000000e+00 
0.0000000e+00 0.0000000e+00 0.0000000e+00 
0.0000000e+00 0.0000000e+00 0.0000000e+00 
0.0000000e+00 0.0000000e+00 0.0000000e+00 
0.0000000e+00 0.0000000e+00 0.0000000e+00 
0.0000000e+00 0.0000000e+00 0.0000000e+00 
0.0000000e+00 0.0000000e+00 0.0000000e+00 
0.0000000e+00 0.0000000e+00 0.0000000e+00 
0.0000000e+00 0.0000000e+00 0.0000000e+00 
0.0000000e+00 0.0000000e+00 0.0000000e+00 
0.0000000e+00 0.0000000e+00 0.0000000e+00 
0.0000000e+00 0.0000000e+00 0.0000000e+00 
0.0000000e+00 0.0000000e+00 0.0000000e+00 
0.0000000e+00 0.0000000e+00 0.0000000e+00 
0.0000000e+00 0.0000000e+00 0.0000000e+00 
0.0000000e+00 0.0000000e+00 0.0000000e+00 
0.0000000e+00 0.0000000e+00 0.0000000e+00 
0.0000000e+00 0.0000000e+00 0.0000000e+00 
0.0000000e+00 0.0000000e+00 0.0000000e+00 
0.0000000e+00 0.0000000e+00 0.0000000e+00 
0.0000000e+00 0.0000000e+00 0.0000000e+00 
0.0000000e+00 0.0000000e+00 0.0000000e+00 
0.0000000e+00 0.0000000e+00 0.0000000e+00 
0.0000000e+00 0.0000000e+00 0.0000000e+00 
0.0000000e+00 0.0000000e+00 0.0000000e+00 
0.0000000e+00 0.0000000e+00 0.0000000e+00 
0.0000000e+00 0.0000000e+00 0.0000000e+00 
0.0000000e+00 0.0000000e+00 0.0000000e+00 
0.0000000e+00 0.0000000e+00 0.0000000e+00 
0.0000000e+00 0.0000000e+00 0.0000000e+00 
0.0000000e+00 0.0000000e+00 0.0000000e+00 
0.0000000e+00 0.0000000e+00 0.0000000e+00 
0.0000000e+00 0.0000000e+00 0.0000000e+00 
0.0000000e+00 0.0000000e+00 0.0000000e+00 
0.0000000e+00 0.0000000e+00 0.0000000e+00 
0.0000000e+00 0.0000000e+00 0.0000000e+00 
0.0000000e+00 0.0000000e+00 0.0000000e+00 
0.0000000e+00 0.0000000e+00 0.0000000e+00 
0.0000000e+00 0.0000000e+00 0.0000000e+00 
0.0000000e+00 0.0000000e+00 0.0000000e+00 
0.0000000e+00 0.0000000e+00 0.0000000e+00 
0.0000000e+00 0.0000000e+00 0.0000000e+00 
0.0000000e+00 0.0000000e+00 0.0000000e+00 
0.0000000e+00 0.0000000e+00 0.0000000e+00 
0.0000000e+00 0.0000000e+00 0.0000000e+00 
2.0433655e-01 8.9799553e-02 8.9469917e-02 
2.2066113e-01 6.6223919e-02 3.2920543e-02 
1.8894453e-01 1.1375143e-01 7.8729272e-02 
1.9486690e-01 3.9534669e-02 2.3168562e-02 
2.3667309e-01 1.1166040e-01 5.4338969e-02 
1.5842961e-01 6.5156877e-02 2.4286325e-01 
2.1460725e-01 -1.6781615e-01 1.6689515e-01 
3.6508060e-01 -3.1319109e-01 1.2222386e-01 
2.8474900e-01 -2.6316580e-01 1.2587981e-01 
2.5158426e-01 1.0090874e-01 6.9071621e-02 
2.0274992e-01 5.7521034e-02 4.5482617e-02 
2.2013873e-01 9.1375165e-02 7.7722371e-02 
1.9479239e-01 5.8995835e-02 4.0646225e-02 
2.1353748e-01 5.2428149e-02 2.0175025e-02 
2.1007223e-01 1.2732668e-01 1.7371039e-01 
1.5221578e-01 -4.8121080e-02 2.1732919e-01 
3.3426023e-01 -2.3731925e-01 1.4480212e-01 
3.3907264e-01 -2.7149290e-01 1.1361694e-01 
1.6307852e-01 -2.5083336e-01 1.0542979e-01 
5.2615136e-02 -9.2283711e-02 4.3452982e-02 
-4.1758012e-02 -1.4588246e-01 -3.0760864e-02 
-7.9517029e-02 -2.1966910e-01 -8.5462928e-02 
-7.8557827e-02 -3.0523062e-01 -5.0276287e-02 
-7.2400071e-02 -2.6518258e-01 -6.0790122e-02 
-7.6690771e-02 -2.9334790e-01 -7.5360611e-02 
-3.2495499e-02 -3.6219609e-01 -4.8962023e-02 
-3.4145825e-02 -2.9951560e-01 -4.9912941e-02 
-3.7007779e-03 -3.2806462e-01 -1.6956711e-02 
5.8327366e-02 -8.3998635e-02 5.0059050e-02 
7.3767505e-03 -1.3076647e-01 1.0666887e-02 
-6.9582112e-02 -1.7779665e-01 -5.6860793e-02 
-7.4559286e-02 -2.5951752e-01 -8.3776996e-02 
-7.7866510e-02 -3.0357075e-01 -5.6657583e-02 
-7.7685796e-02 -2.6407686e-01 -6.7950696e-02 
-6.1334286e-02 -3.4697163e-01 -7.0101544e-02 
-2.9092984e-02 -3.2868075e-01 -3.8599979e-02 
-3.8953133e-02 -3.0940661e-01 -4.6908937e-02 
3.0672248e-02 -2.6129571e-01 1.9938236e-02 
0.0000000e+00 5.2817959e-01 5.7597237e-04 
0.0000000e+00 6.1796415e-01 6.6240780e-02 
0.0000000e+00 4.5404595e-01 8.6980358e-02 
0.0000000e+00 6.8456638e-01 1.9822851e-01 
0.0000000e+00 1.0656197e-01 2.2490500e-01 
0.0000000e+00 3.9388648e-01 4.2264602e-01 
0.0000000e+00 1.7903611e-01 4.0473002e-01 
0.0000000e+00 3.9818954e-02 2.0453598e-01 
0.0000000e+00 1.1478418e-01 2.4543618e-01 
0.0000000e+00 6.3401073e-01 6.1537470e-03 
0.0000000e+00 5.8819258e-01 2.3437591e-02 
0.0000000e+00 5.0509077e-01 9.9603295e-02 
0.0000000e+00 5.2758825e-01 1.0463531e-01 
0.0000000e+00 4.4614017e-01 2.5937223e-01 
0.0000000e+00 3.4736627e-01 2.6754662e-01 
0.0000000e+00 3.2691044e-01 4.0781555e-01 
0.0000000e+00 4.0769756e-02 3.2784241e-01 
0.0000000e+00 1.1716469e-01 2.0153187e-01 
0.0000000e+00 6.2348820e-02 2.7594468e-01 
1.5500776e-01 -1.8770871e-01 3.0206597e-01 
6.5554790e-02 -2.4387540e-01 3.4420162e-01 
2.0999871e-01 -1.9141756e-01 2.0916651e-01 
1.7601205e-01 5.3370435e-02 2.0510952e-01 
5.3753890e-03 4.7789384e-02 2.9208678e-01 
5.9114508e-02 -2.2118479e-02 2.4205747e-01 
7.8430563e-02 1.0500934e-01 2.4438815e-01 
-4.8734847e-02 3.4696098e-02 1.9295092e-01 
-6.0053564e-05 1.1249022e-01 1.8465738e-01 
1.3579448e-01 -2.4460806e-01 1.5508574e-01 
8.9549512e-02 -1.7205535e-01 3.5199231e-01 
1.3466692e-01 -2.5243154e-01 2.8729513e-01 
2.2456887e-01 -6.9080435e-02 1.9986965e-01 
9.5475033e-02 9.7306117e-02 2.4167834e-01 
1.5632741e-02 1.8114548e-02 2.5525418e-01 
1.0575891e-01 2.0188564e-02 2.2305609e-01 
-1.6460804e-02 9.3540557e-02 2.4218358e-01 
1.0071844e-02 5.3520337e-02 1.6261873e-01 
-1.5663898e-02 5.1612459e-02 2.4044427e-01 
0.0000000e+00 -4.5620400e-02 1.2983719e-01 
0.0000000e+00 -4.9922492e-02 5.9400924e-02 
0.0000000e+00 2.1373177e-01 -4.2644436e-03 
0.0000000e+00 2.4425569e-01 1.9730484e-02 
0.0000000e+00 2.5920922e-01 1.6024441e-01 
0.0000000e+00 3.0837545e-01 -4.0602092e-02 
0.0000000e+00 2.6796007e-01 -1.0401622e-01 
0.0000000e+00 6.7445368e-02 -6.2087573e-02 
0.0000000e+00 2.0279063e-02 -4.1164335e-02 
0.0000000e+00 -3.8342059e-02 1.7343687e-01 
0.0000000e+00 -5.7492226e-02 1.4138949e-01 
0.0000000e+00 8.3671927e-02 6.0957987e-03 
0.0000000e+00 2.4752167e-01 1.1017942e-02 
0.0000000e+00 2.6760858e-01 1.0488439e-01 
0.0000000e+00 2.7345309e-01 6.7158855e-02 
0.0000000e+00 3.0964580e-01 -8.8550784e-02 
0.0000000e+00 1.7104602e-01 -6.0849257e-02 
0.0000000e+00 3.8453802e-02 -7.3559694e-02 
0.0000000e+00 5.0479168e-04 -2.8052127e-02 
-8.1788300e-04 2.9151025e-01 0.0000000e+00 
9.4122835e-02 4.8753303e-01 0.0000000e+00 
-1.0880597e-01 4.9366525e-01 0.0000000e+00 
1.1406449e-01 5.3143454e-01 0.0000000e+00 
-9.5372535e-02 7.3550594e-01 0.0000000e+00 
2.2960292e-01 3.5453096e-01 0.0000000e+00 
1.5638243e-01 3.8216472e-01 0.0000000e+00 
2.3240305e-01 4.9461254e-01 0.0000000e+00 
2.5032020e-01 4.0314817e-01 0.0000000e+00 
1.6422234e-01 -5.7378039e-02 0.0000000e+00 
2.8227162e-01 8.5318558e-02 0.0000000e+00 
4.3441600e-01 2.6141626e-01 0.0000000e+00 
1.7128429e-01 9.5608659e-02 0.0000000e+00 
2.4252309e-01 -1.4262077e-02 0.0000000e+00 
3.5939169e-01 1.4864077e-01 0.0000000e+00 
4.1368166e-01 3.0235511e-01 0.0000000e+00 
-1.2709588e-01 5.2878368e-01 0.0000000e+00 
-2.0504363e-02 -7.1409509e-02 0.0000000e+00 
-1.4694746e-01 3.4684974e-01 0.0000000e+00 
9.5552363e-02 3.2479438e-01 0.0000000e+00 
4.7376197e-02 2.5490379e-01 0.0000000e+00 
7.7153340e-02 3.2703972e-01 0.0000000e+00 
1.1359210e-02 1.3036522e-01 0.0000000e+00 
-1.3557017e-01 8.3582968e-02 0.0000000e+00 
-2.4373770e-02 2.6917368e-01 0.0000000e+00 
1.2042304e-01 7.1888588e-02 0.0000000e+00 
-4.7355052e-03 -4.1804146e-02 0.0000000e+00 
-6.7739069e-02 4.2771205e-02 0.0000000e+00 
-3.7068255e-02 -1.3647883e-01 0.0000000e+00 
3.0816498e-01 3.7210470e-01 0.0000000e+00 
9.6179269e-02 1.3017820e-01 0.0000000e+00 
5.1848091e-02 5.6016456e-02 0.0000000e+00 
1.5044925e-01 5.3892046e-01 0.0000000e+00 
1.0337750e-03 4.4178650e-01 0.0000000e+00 
5.2736968e-02 2.2138551e-01 0.0000000e+00 
3.7737358e-02 3.5120440e-01 0.0000000e+00 
1.1581864e-02 2.7740535e-01 0.0000000e+00 
-6.2565155e-02 2.0282994e-01 0.0000000e+00 
-2.6628435e-02 3.9657301e-01 0.0000000e+00 
-6.5179132e-02 1.0166903e-01 0.0000000e+00 
-1.8606031e-01 2.6078978e-01 0.0000000e+00 
7.5337186e-02 3.8361353e-01 0.0000000e+00 
-1.3996425e-01 2.4192566e-01 0.0000000e+00 
8.2055392e-04 1.3616504e-01 0.0000000e+00 
-3.7651088e-02 -3.5722587e-02 0.0000000e+00 
-1.1136860e-01 3.7859297e-01 0.0000000e+00 
1.2244666e-01 7.5818948e-02 0.0000000e+00 
-1.5540572e-01 9.1451876e-02 0.0000000e+00 
-1.0665358e-01 4.2701903e-01 0.0000000e+00 
1.2033504e-01 7.0214130e-02 0.0000000e+00 
4.5564026e-02 8.4472299e-02 0.0000000e+00 
-9.0063944e-02 4.6462648e-02 0.0000000e+00 
-2.5192177e-02 -5.5339538e-02 0.0000000e+00 
4.7791179e-02 -1.2199351e-01 0.0000000e+00 
2.4032846e-02 -2.8770477e-02 0.0000000e+00 
2.9743711e-02 -1.3087877e-02 0.0000000e+00 
-5.9834644e-03 1.0835981e-02 0.0000000e+00 
-5.1958505e-02 5.6192622e-02 0.0000000e+00 
1.7838044e-02 1.2187916e-01 0.0000000e+00 
8.9557387e-02 1.4839302e-01 0.0000000e+00 
1.0540780e-01 3.2649377e-01 0.0000000e+00 
1.4136367e-01 2.5238645e-01 0.0000000e+00 
-1.2730590e-01 1.8310535e-01 0.0000000e+00 
-2.1375416e-02 1.5363893e-01 0.0000000e+00 
1.9334188e-02 -1.0844931e-02 0.0000000e+00 
-2.1866974e-03 4.0940705e-01 0.0000000e+00 
6.0998023e-02 3.2748798e-01 0.0000000e+00 
3.0191828e-02 3.1884718e-01 0.0000000e+00 
4.7795195e-02 1.4286397e-01 0.0000000e+00 
-9.3925118e-02 1.5192556e-01 0.0000000e+00 
-1.2463681e-01 2.3898561e-01 0.0000000e+00 
-5.6638736e-02 4.5345756e-01 0.0000000e+00 
-1.2858361e-01 3.8346913e-01 0.0000000e+00 
2.0032059e-01 2.0125915e-01 0.0000000e+00 
-1.6399848e-01 3.9585942e-01 0.0000000e+00 
2.1544467e-01 4.5217207e-01 0.0000000e+00 
1.2904304e-02 3.2217255e-01 0.0000000e+00 
1.1219475e-01 2.7660635e-01 0.0000000e+00 
5.0041825e-02 1.2260777e-01 0.0000000e+00 
-3.5649668e-02 9.5424820e-03 0.0000000e+00 
7.4196026e-02 4.3483266e-01 0.0000000e+00 
7.7273145e-02 1.7593717e-02 0.0000000e+00 
1.5480973e-02 9.3309052e-04 0.0000000e+00 
-1.9903174e-02 9.2260920e-02 0.0000000e+00 
2.3172952e-02 2.3529740e-01 0.0000000e+00 
-4.3678634e-02 2.2781789e-01 0.0000000e+00 
1.0093618e-01 1.2318771e-01 0.0000000e+00 
9.8866157e-02 1.9979656e-01 0.0000000e+00 
6.0120355e-02 2.4292123e-01 0.0000000e+00 
1.7473031e-02 4.4959477e-01 0.0000000e+00 
8.0502786e-02 -5.0701499e-02 0.0000000e+00 
-1.2251811e-01 1.7926230e-01 0.0000000e+00 
-1.0290336e-01 5.0812334e-01 0.0000000e+00 
-1.9911161e-01 3.6424586e-01 0.0000000e+00 
2.4445418e-01 2.8737691e-01 0.0000000e+00 
-3.6504496e-02 4.7949962e-02 0.0000000e+00 
1.4053057e-01 -1.8729796e-01 0.0000000e+00 
-2.9037922e-04 3.7444288e-01 0.0000000e+00 
1.1557595e-01 1.8508835e-01 0.0000000e+00 
-9.1966324e-02 3.0626121e-01 0.0000000e+00 
-1.0665271e-01 4.8593676e-01 0.0000000e+00 
7.0759319e-02 2.1600979e-03 0.0000000e+00 
1.1312927e-02 1.5094315e-01 0.0000000e+00 
3.4961194e-02 5.8484241e-02 0.0000000e+00 
1.0309960e-02 -5.3471088e-02 0.0000000e+00 
4.7949054e-03 -3.4971561e-02 0.0000000e+00 
-3.3596344e-02 -3.1304881e-02 0.0000000e+00 
4.2534242e-03 -9.8675430e-02 0.0000000e+00 
-6.6768304e-02 -1.0482759e-01 0.0000000e+00 
1.4633453e-02 1.0438806e-02 0.0000000e+00 
1.1726815e-01 2.5075677e-01 0.0000000e+00 
5.5885538e-02 2.0718434e-01 0.0000000e+00 
1.3750997e-01 2.9299417e-01 0.0000000e+00 
-1.4225765e-01 1.3335201e-02 0.0000000e+00 
9.2445046e-02 4.1456107e-02 0.0000000e+00 
-6.3404314e-02 1.8112926e-02 0.0000000e+00 
-4.5581367e-02 -1.1612412e-01 0.0000000e+00 
-4.7195744e-02 2.9399481e-01 0.0000000e+00 
-6.9087334e-02 3.1332576e-01 0.0000000e+00 
-3.4054011e-02 -4.1662790e-02 0.0000000e+00 
-7.7986576e-02 2.5579748e-01 0.0000000e+00 
-7.3281661e-02 1.2217670e-02 0.0000000e+00 
-7.3152110e-02 -4.4923723e-02 0.0000000e+00 
-8.1364416e-02 -1.0228849e-01 0.0000000e+00 
-7.9212422e-03 5.2148383e-02 0.0000000e+00 
-2.5865400e-02 -7.2594974e-03 0.0000000e+00 
-1.2718489e-02 9.7140856e-02 0.0000000e+00 
1.6040565e-01 1.3659120e-01 0.0000000e+00 
3.6237828e-02 8.7531880e-02 0.0000000e+00 
1.7848763e-01 -5.7446756e-03 0.0000000e+00 
3.7664462e-02 3.5666361e-01 0.0000000e+00 
2.4704784e-02 5.1717830e-01 0.0000000e+00 
6.7277573e-02 2.9399225e-01 0.0000000e+00 
1.0471043e-01 3.6534905e-01 0.0000000e+00 
7.1790464e-02 5.4579359e-01 0.0000000e+00 
-7.2734244e-03 6.8160069e-01 0.0000000e+00 
-3.1925235e-03 6.5079367e-01 0.0000000e+00 
2.2643860e-01 4.6088177e-01 0.0000000e+00 
8.2728654e-02 4.0740001e-01 0.0000000e+00 
2.0173512e-01 3.7358248e-01 0.0000000e+00 
1.7164828e-01 4.7905454e-01 0.0000000e+00 
9.3285881e-02 4.2913261e-01 0.0000000e+00 
5.5683088e-02 3.4089127e-01 0.0000000e+00 
7.6802120e-02 4.6009892e-01 0.0000000e+00 
1.6975754e-01 4.0652603e-01 0.0000000e+00 
2.5505736e-01 3.2283828e-01 0.0000000e+00 
2.7008650e-01 2.7912048e-01 0.0000000e+00 
-3.4499820e-02 4.2239183e-01 0.0000000e+00 
9.2841074e-02 -1.1362834e-01 0.0000000e+00 
7.6106563e-03 -4.5812350e-02 0.0000000e+00 
7.7463646e-04 -5.2357819e-02 0.0000000e+00 
3.7756457e-03 -1.9093003e-02 0.0000000e+00 
4.7681522e-02 -6.5191559e-02 0.0000000e+00 
7.5620942e-02 -1.2681696e-01 0.0000000e+00 
2.5546484e-02 -5.0321680e-02 0.0000000e+00 
1.2659162e-02 6.7199772e-04 0.0000000e+00 
1.7050954e-02 -9.7046401e-03 0.0000000e+00 
-2.2316730e-02 -3.2859515e-02 0.0000000e+00 
-6.8720914e-03 -6.5297440e-02 0.0000000e+00 
3.9883018e-02 -9.0962216e-02 0.0000000e+00 
7.0745368e-03 3.6171038e-02 0.0000000e+00 
-1.7296479e-06 3.1198808e-03 0.0000000e+00 
1.9785788e-02 -3.1150263e-02 0.0000000e+00 
-4.8225164e-02 5.3114377e-02 0.0000000e+00 
-1.9201454e-02 7.2246835e-02 0.0000000e+00 
6.0122192e-02 6.9291562e-02 0.0000000e+00 
4.0743623e-02 -3.7939821e-03 0.0000000e+00 
-1.5133825e-02 1.0115664e-02 0.0000000e+00 
-1.9046925e-02 5.8822986e-02 0.0000000e+00 
-3.5421919e-02 -8.4184982e-02 0.0000000e+00 
9.2712324e-03 -5.9941191e-02 0.0000000e+00 
2.5584821e-02 -3.3459984e-02 0.0000000e+00 
-7.2018966e-02 -1.0730224e-01 0.0000000e+00 
-2.9951684e-02 1.2677521e-01 0.0000000e+00 
-1.5562163e-02 1.1978785e-01 0.0000000e+00 
-5.1189382e-02 2.8395591e-02 0.0000000e+00 
-6.3825086e-02 9.3813851e-02 0.0000000e+00 
-5.1114362e-02 1.0671415e-01 0.0000000e+00 
-4.9156167e-02 5.7118408e-02 0.0000000e+00 
-8.3888203e-02 2.6259232e-01 0.0000000e+00 
-7.4166246e-02 1.4910945e-01 0.0000000e+00 
-1.6151953e-03 7.2615057e-02 0.0000000e+00 
-3.4937173e-02 3.7353882e-01 0.0000000e+00 
-9.5030323e-02 3.5697243e-01 0.0000000e+00 
-8.8421695e-02 2.6551402e-01 0.0000000e+00 
1.1594693e-01 3.5395682e-01 0.0000000e+00 
4.1482665e-02 3.7394708e-01 0.0000000e+00 
-1.2236194e-01 3.9749733e-01 0.0000000e+00 
-1.1566716e-02 2.7343810e-01 0.0000000e+00 
8.6806275e-02 3.2717007e-01 0.0000000e+00 
6.6553429e-02 3.9180577e-01 0.0000000e+00 
1.3964593e-01 1.3690549e-01 0.0000000e+00 
6.4783464e-03 1.8452960e-01 0.0000000e+00 
4.9939327e-02 2.8822610e-01 0.0000000e+00 
6.2074956e-02 1.0035515e-01 0.0000000e+00 
1.7757452e-01 1.2853533e-01 0.0000000e+00 
1.6132814e-01 2.2581533e-01 0.0000000e+00 
4.9540974e-02 6.6722602e-02 0.0000000e+00 
-3.5312280e-02 3.8706061e-01 0.0000000e+00 
3.3071481e-02 3.2398087e-01 0.0000000e+00 
1.2401344e-01 3.2663959e-01 0.0000000e+00 
-8.8433893e-03 2.3891659e-01 0.0000000e+00 
-7.6147340e-02 3.3482328e-01 0.0000000e+00 
-1.0831100e-01 3.2719815e-01 0.0000000e+00 
1.6694013e-02 8.1228629e-02 0.0000000e+00 
-5.2962787e-02 1.3848484e-01 0.0000000e+00 
1.3304679e-02 1.9315267e-01 0.0000000e+00 
1.2038215e-02 3.0975309e-01 0.0000000e+00 
8.1892595e-02 2.0273571e-01 0.0000000e+00 
7.5519398e-02 2.1609807e-01 0.0000000e+00 
1.5923617e-02 1.7121702e-01 0.0000000e+00 
-8.5821059e-03 2.4565475e-01 0.0000000e+00 
-2.0077772e-02 3.1661275e-01 0.0000000e+00 
-7.0457794e-02 1.5361696e-01 0.0000000e+00 
-3.3693399e-02 1.4435256e-01 0.0000000e+00 
8.6756386e-03 1.8000610e-01 0.0000000e+00 
4.0113639e-02 1.1468742e-01 0.0000000e+00 
-7.4639576e-03 1.5096426e-01 0.0000000e+00 
-4.3515984e-02 8.7589324e-02 0.0000000e+00 
-2.4824984e-02 -7.7232808e-02 0.0000000e+00 
1.8894557e-02 -1.8934074e-03 0.0000000e+00 
1.0410151e-01 1.1648557e-01 0.0000000e+00 
-3.5622265e-02 2.2418739e-02 0.0000000e+00 
2.3567227e-01 3.2157215e-01 0.0000000e+00 
6.9441713e-02 4.8378772e-01 0.0000000e+00 
-8.5702762e-02 4.5336118e-01 0.0000000e+00 
1.9242871e-01 8.2159415e-02 0.0000000e+00 
1.9806428e-01 4.6142680e-03 0.0000000e+00 
1.2778188e-01 6.8727560e-02 0.0000000e+00 
2.8352571e-01 1.5486081e-01 0.0000000e+00 
2.3412928e-01 8.6245634e-02 0.0000000e+00 
1.1162316e-01 1.1541621e-01 0.0000000e+00 
8.4002972e-02 2.1080925e-01 0.0000000e+00 
-8.1890374e-03 3.0811587e-01 0.0000000e+00 
-4.2038005e-02 4.5632800e-01 0.0000000e+00 
9.8216996e-02 4.3528134e-01 0.0000000e+00 
-2.5249125e-02 4.6721154e-01 0.0000000e+00 
-3.6255058e-02 3.5304615e-01 0.0000000e+00 