# vtk DataFile Version 4.0
vtk output
ASCII
DATASET UNSTRUCTURED_GRID
POINTS 7705 float
0.0000000e+00 3.7700000e+00 0.0000000e+00 
0.0000000e+00 3.7700000e+00 5.0000000e+01 
1.0000000e+01 3.7700000e+00 0.0000000e+00 
1.0000000e+01 3.7700000e+00 5.0000000e+01 
1.0000000e+01 5.7700000e+00 0.0000000e+00 
1.0000000e+01 5.7700000e+00 5.0000000e+01 
0.0000000e+00 5.7700000e+00 0.0000000e+00 
0.0000000e+00 5.7700000e+00 5.0000000e+01 
1.0000000e+01 7.2700000e+00 0.0000000e+00 
1.0000000e+01 7.2700000e+00 5.0000000e+01 
0.0000000e+00 7.2700000e+00 0.0000000e+00 
0.0000000e+00 7.2700000e+00 5.0000000e+01 
1.0000000e+01 9.7700005e+00 0.0000000e+00 
1.0000000e+01 9.7700005e+00 5.0000000e+01 
0.0000000e+00 9.7700005e+00 0.0000000e+00 
0.0000000e+00 9.7700005e+00 5.0000000e+01 
1.0000000e+01 1.1770000e+01 0.0000000e+00 
1.0000000e+01 1.1770000e+01 5.0000000e+01 
0.0000000e+00 1.1770000e+01 0.0000000e+00 
0.0000000e+00 1.1770000e+01 5.0000000e+01 
1.0000000e+01 1.4770000e+01 0.0000000e+00 
1.0000000e+01 1.4770000e+01 5.0000000e+01 
0.0000000e+00 1.4770000e+01 0.0000000e+00 
0.0000000e+00 1.4770000e+01 5.0000000e+01 
1.0000000e+01 1.5070000e+01 0.0000000e+00 
1.0000000e+01 1.5070000e+01 5.0000000e+01 
7.5000000e-01 1.5070000e+01 0.0000000e+00 
7.5000000e-01 1.5070000e+01 5.0000000e+01 
0.0000000e+00 1.5070000e+01 0.0000000e+00 
0.0000000e+00 1.5070000e+01 5.0000000e+01 
7.5000000e-01 1.5070000e+01 5.0000000e-01 
7.5000000e-01 1.5070000e+01 1.0000000e+00 
7.5000000e-01 1.5070000e+01 1.5000000e+00 
7.5000000e-01 1.5070000e+01 2.0000000e+00 
7.5000000e-01 1.5070000e+01 2.5000000e+00 
7.5000000e-01 1.5070000e+01 3.0000000e+00 
7.5000000e-01 1.5070000e+01 3.5000000e+00 
7.5000000e-01 1.5070000e+01 4.0000000e+00 
7.5000000e-01 1.5070000e+01 4.5000000e+00 
7.5000000e-01 1.5070000e+01 5.0000000e+00 
7.5000000e-01 1.5070000e+01 5.5000000e+00 
7.5000000e-01 1.5070000e+01 6.0000000e+00 
7.5000000e-01 1.5070000e+01 6.5000000e+00 
7.5000000e-01 1.5070000e+01 7.0000000e+00 
7.5000000e-01 1.5070000e+01 7.5000000e+00 
7.5000000e-01 1.5070000e+01 8.0000000e+00 
7.5000000e-01 1.5070000e+01 8.5000000e+00 
7.5000000e-01 1.5070000e+01 9.0000000e+00 
7.5000000e-01 1.5070000e+01 9.5000000e+00 
7.5000000e-01 1.5070000e+01 1.0000000e+01 
7.5000000e-01 1.5070000e+01 1.0500000e+01 
7.5000000e-01 1.5070000e+01 1.1000000e+01 
7.5000000e-01 1.5070000e+01 1.1500000e+01 
7.5000000e-01 1.5070000e+01 1.2000000e+01 
7.5000000e-01 1.5070000e+01 1.2500000e+01 
7.5000000e-01 1.5070000e+01 1.3000000e+01 
7.5000000e-01 1.5070000e+01 1.3500000e+01 
7.5000000e-01 1.5070000e+01 1.4000000e+01 
7.5000000e-01 1.5070000e+01 1.4500000e+01 
7.5000000e-01 1.5070000e+01 1.5000000e+01 
7.5000000e-01 1.5070000e+01 1.5500000e+01 
7.5000000e-01 1.5070000e+01 1.6000000e+01 
7.5000000e-01 1.5070000e+01 1.6500000e+01 
7.5000000e-01 1.5070000e+01 1.7000000e+01 
7.5000000e-01 1.5070000e+01 1.7500000e+01 
7.5000000e-01 1.5070000e+01 1.8000000e+01 
7.5000000e-01 1.5070000e+01 1.8500000e+01 
7.5000000e-01 1.5070000e+01 1.9000000e+01 
7.5000000e-01 1.5070000e+01 1.9500000e+01 
7.5000000e-01 1.5070000e+01 2.0000000e+01 
7.5000000e-01 1.5070000e+01 2.0500000e+01 
7.5000000e-01 1.5070000e+01 2.1000000e+01 
7.5000000e-01 1.5070000e+01 2.1500000e+01 
7.5000000e-01 1.5070000e+01 2.2000000e+01 
7.5000000e-01 1.5070000e+01 2.2500000e+01 
7.5000000e-01 1.5070000e+01 2.3000000e+01 
7.5000000e-01 1.5070000e+01 2.3500000e+01 
7.5000000e-01 1.5070000e+01 2.4000000e+01 
7.5000000e-01 1.5070000e+01 2.4500000e+01 
7.5000000e-01 1.5070000e+01 2.5000000e+01 
7.5000000e-01 1.5070000e+01 2.5500000e+01 
7.5000000e-01 1.5070000e+01 2.6000000e+01 
7.5000000e-01 1.5070000e+01 2.6500000e+01 
7.5000000e-01 1.5070000e+01 2.7000000e+01 
7.5000000e-01 1.5070000e+01 2.7500000e+01 
7.5000000e-01 1.5070000e+01 2.8000000e+01 
7.5000000e-01 1.5070000e+01 2.8500000e+01 
7.5000000e-01 1.5070000e+01 2.9000000e+01 
7.5000000e-01 1.5070000e+01 2.9500000e+01 
7.5000000e-01 1.5070000e+01 3.0000000e+01 
7.5000000e-01 1.5070000e+01 3.0500000e+01 
7.5000000e-01 1.5070000e+01 3.1000000e+01 
7.5000000e-01 1.5070000e+01 3.1500000e+01 
7.5000000e-01 1.5070000e+01 3.2000000e+01 
7.5000000e-01 1.5070000e+01 3.2500000e+01 
7.5000000e-01 1.5070000e+01 3.3000000e+01 
7.5000000e-01 1.5070000e+01 3.3500000e+01 
7.5000000e-01 1.5070000e+01 3.4000000e+01 
7.5000000e-01 1.5070000e+01 3.4500000e+01 
7.5000000e-01 1.5070000e+01 3.5000000e+01 
7.5000000e-01 1.5070000e+01 3.5500000e+01 
7.5000000e-01 1.5070000e+01 3.6000000e+01 
7.5000000e-01 1.5070000e+01 3.6500000e+01 
7.5000000e-01 1.5070000e+01 3.7000000e+01 
7.5000000e-01 1.5070000e+01 3.7500000e+01 
7.5000000e-01 1.5070000e+01 3.8000000e+01 
7.5000000e-01 1.5070000e+01 3.8500000e+01 
7.5000000e-01 1.5070000e+01 3.9000000e+01 
7.5000000e-01 1.5070000e+01 3.9500000e+01 
7.5000000e-01 1.5070000e+01 4.0000000e+01 
7.5000000e-01 1.5070000e+01 4.0500000e+01 
7.5000000e-01 1.5070000e+01 4.1000000e+01 
7.5000000e-01 1.5070000e+01 4.1500000e+01 
7.5000000e-01 1.5070000e+01 4.2000000e+01 
7.5000000e-01 1.5070000e+01 4.2500000e+01 
7.5000000e-01 1.5070000e+01 4.3000000e+01 
7.5000000e-01 1.5070000e+01 4.3500000e+01 
7.5000000e-01 1.5070000e+01 4.4000000e+01 
7.5000000e-01 1.5070000e+01 4.4500000e+01 
7.5000000e-01 1.5070000e+01 4.5000000e+01 
7.5000000e-01 1.5070000e+01 4.5500000e+01 
7.5000000e-01 1.5070000e+01 4.6000000e+01 
7.5000000e-01 1.5070000e+01 4.6500000e+01 
7.5000000e-01 1.5070000e+01 4.7000000e+01 
7.5000000e-01 1.5070000e+01 4.7500000e+01 
7.5000000e-01 1.5070000e+01 4.8000000e+01 
7.5000000e-01 1.5070000e+01 4.8500000e+01 
7.5000000e-01 1.5070000e+01 4.9000000e+01 
7.5000000e-01 1.5070000e+01 4.9500000e+01 
7.5000000e-01 1.5095000e+01 0.0000000e+00 
7.5000000e-01 1.5095000e+01 5.0000000e-01 
7.5000000e-01 1.5095000e+01 1.0000000e+00 
7.5000000e-01 1.5095000e+01 1.5000000e+00 
7.5000000e-01 1.5095000e+01 2.0000000e+00 
7.5000000e-01 1.5095000e+01 2.5000000e+00 
7.5000000e-01 1.5095000e+01 3.0000000e+00 
7.5000000e-01 1.5095000e+01 3.5000000e+00 
7.5000000e-01 1.5095000e+01 4.0000000e+00 
7.5000000e-01 1.5095000e+01 4.5000000e+00 
7.5000000e-01 1.5095000e+01 5.0000000e+00 
7.5000000e-01 1.5095000e+01 5.5000000e+00 
7.5000000e-01 1.5095000e+01 6.0000000e+00 
7.5000000e-01 1.5095000e+01 6.5000000e+00 
7.5000000e-01 1.5095000e+01 7.0000000e+00 
7.5000000e-01 1.5095000e+01 7.5000000e+00 
7.5000000e-01 1.5095000e+01 8.0000000e+00 
7.5000000e-01 1.5095000e+01 8.5000000e+00 
7.5000000e-01 1.5095000e+01 9.0000000e+00 
7.5000000e-01 1.5095000e+01 9.5000000e+00 
7.5000000e-01 1.5095000e+01 1.0000000e+01 
7.5000000e-01 1.5095000e+01 1.0500000e+01 
7.5000000e-01 1.5095000e+01 1.1000000e+01 
7.5000000e-01 1.5095000e+01 1.1500000e+01 
7.5000000e-01 1.5095000e+01 1.2000000e+01 
7.5000000e-01 1.5095000e+01 1.2500000e+01 
7.5000000e-01 1.5095000e+01 1.3000000e+01 
7.5000000e-01 1.5095000e+01 1.3500000e+01 
7.5000000e-01 1.5095000e+01 1.4000000e+01 
7.5000000e-01 1.5095000e+01 1.4500000e+01 
7.5000000e-01 1.5095000e+01 1.5000000e+01 
7.5000000e-01 1.5095000e+01 1.5500000e+01 
7.5000000e-01 1.5095000e+01 1.6000000e+01 
7.5000000e-01 1.5095000e+01 1.6500000e+01 
7.5000000e-01 1.5095000e+01 1.7000000e+01 
7.5000000e-01 1.5095000e+01 1.7500000e+01 
7.5000000e-01 1.5095000e+01 1.8000000e+01 
7.5000000e-01 1.5095000e+01 1.8500000e+01 
7.5000000e-01 1.5095000e+01 1.9000000e+01 
7.5000000e-01 1.5095000e+01 1.9500000e+01 
7.5000000e-01 1.5095000e+01 2.0000000e+01 
7.5000000e-01 1.5095000e+01 2.0500000e+01 
7.5000000e-01 1.5095000e+01 2.1000000e+01 
7.5000000e-01 1.5095000e+01 2.1500000e+01 
7.5000000e-01 1.5095000e+01 2.2000000e+01 
7.5000000e-01 1.5095000e+01 2.2500000e+01 
7.5000000e-01 1.5095000e+01 2.3000000e+01 
7.5000000e-01 1.5095000e+01 2.3500000e+01 
7.5000000e-01 1.5095000e+01 2.4000000e+01 
7.5000000e-01 1.5095000e+01 2.4500000e+01 
7.5000000e-01 1.5095000e+01 2.5000000e+01 
7.5000000e-01 1.5095000e+01 2.5500000e+01 
7.5000000e-01 1.5095000e+01 2.6000000e+01 
7.5000000e-01 1.5095000e+01 2.6500000e+01 
7.5000000e-01 1.5095000e+01 2.7000000e+01 
7.5000000e-01 1.5095000e+01 2.7500000e+01 
7.5000000e-01 1.5095000e+01 2.8000000e+01 
7.5000000e-01 1.5095000e+01 2.8500000e+01 
7.5000000e-01 1.5095000e+01 2.9000000e+01 
7.5000000e-01 1.5095000e+01 2.9500000e+01 
7.5000000e-01 1.5095000e+01 3.0000000e+01 
7.5000000e-01 1.5095000e+01 3.0500000e+01 
7.5000000e-01 1.5095000e+01 3.1000000e+01 
7.5000000e-01 1.5095000e+01 3.1500000e+01 
7.5000000e-01 1.5095000e+01 3.2000000e+01 
7.5000000e-01 1.5095000e+01 3.2500000e+01 
7.5000000e-01 1.5095000e+01 3.3000000e+01 
7.5000000e-01 1.5095000e+01 3.3500000e+01 
7.5000000e-01 1.5095000e+01 3.4000000e+01 
7.5000000e-01 1.5095000e+01 3.4500000e+01 
7.5000000e-01 1.5095000e+01 3.5000000e+01 
7.5000000e-01 1.5095000e+01 3.5500000e+01 
7.5000000e-01 1.5095000e+01 3.6000000e+01 
7.5000000e-01 1.5095000e+01 3.6500000e+01 
7.5000000e-01 1.5095000e+01 3.7000000e+01 
7.5000000e-01 1.5095000e+01 3.7500000e+01 
7.5000000e-01 1.5095000e+01 3.8000000e+01 
7.5000000e-01 1.5095000e+01 3.8500000e+01 
7.5000000e-01 1.5095000e+01 3.9000000e+01 
7.5000000e-01 1.5095000e+01 3.9500000e+01 
7.5000000e-01 1.5095000e+01 4.0000000e+01 
7.5000000e-01 1.5095000e+01 4.0500000e+01 
7.5000000e-01 1.5095000e+01 4.1000000e+01 
7.5000000e-01 1.5095000e+01 4.1500000e+01 
7.5000000e-01 1.5095000e+01 4.2000000e+01 
7.5000000e-01 1.5095000e+01 4.2500000e+01 
7.5000000e-01 1.5095000e+01 4.3000000e+01 
7.5000000e-01 1.5095000e+01 4.3500000e+01 
7.5000000e-01 1.5095000e+01 4.4000000e+01 
7.5000000e-01 1.5095000e+01 4.4500000e+01 
7.5000000e-01 1.5095000e+01 4.5000000e+01 
7.5000000e-01 1.5095000e+01 4.5500000e+01 
7.5000000e-01 1.5095000e+01 4.6000000e+01 
7.5000000e-01 1.5095000e+01 4.6500000e+01 
7.5000000e-01 1.5095000e+01 4.7000000e+01 
7.5000000e-01 1.5095000e+01 4.7500000e+01 
7.5000000e-01 1.5095000e+01 4.8000000e+01 
7.5000000e-01 1.5095000e+01 4.8500000e+01 
7.5000000e-01 1.5095000e+01 4.9000000e+01 
7.5000000e-01 1.5095000e+01 4.9500000e+01 
7.5000000e-01 1.5095000e+01 5.0000000e+01 
[...]
POINT_DATA 7705
FIELD FieldData 3
DISPLACEMENT 3 7705  float
0.0000000e+00 0.0000000e+00 0.0000000e+00 
0.0000000e+00 0.0000000e+00 0.0000000e+00 
0.0000000e+00 0.0000000e+00 0.0000000e+00 
0.0000000e+00 0.0000000e+00 0.0000000e+00 
3.7196998e-05 -2.6817126e-05 4.1032635e-07 
-3.5993757e-08 3.8348464e-08 2.0709147e-07 
0.0000000e+00 -6.9628724e-05 0.0000000e+00 
0.0000000e+00 2.4763525e-09 0.0000000e+00 
5.0912964e-05 -3.3895569e-05 5.8457299e-06 
-5.5310704e-08 1.7052915e-07 3.3608870e-07 
0.0000000e+00 -1.3267188e-04 0.0000000e+00 
0.0000000e+00 2.4154881e-08 0.0000000e+00 
4.3447588e-05 -3.5086625e-05 5.3006570e-06 
-9.0912899e-08 3.4694986e-07 3.2345687e-07 
0.0000000e+00 -2.3077508e-04 0.0000000e+00 
0.0000000e+00 6.3571896e-08 0.0000000e+00 
2.7286183e-05 -2.9912437e-05 -9.0972314e-09 
-1.1611796e-07 4.5735592e-07 1.6026236e-07 
0.0000000e+00 -4.0031219e-04 0.0000000e+00 
0.0000000e+00 7.5174142e-08 0.0000000e+00 
-2.8080032e-05 -2.3316154e-05 -1.3568982e-05 
-1.9431079e-07 4.5946985e-07 5.0119713e-08 
0.0000000e+00 -1.0388293e-03 0.0000000e+00 
0.0000000e+00 1.1019482e-07 0.0000000e+00 
-3.4053191e-05 -2.3304763e-05 -1.4536531e-05 
-2.0099272e-07 4.5831553e-07 5.1155208e-08 
-4.3513778e-06 -1.4816668e-03 -3.8053177e-04 
-6.0755163e-08 8.7540862e-08 -2.2720634e-09 
0.0000000e+00 -1.0560137e-03 0.0000000e+00 
0.0000000e+00 1.1029820e-07 0.0000000e+00 
6.2936715e-06 -1.2564770e-03 -2.4665945e-04 
-2.6964790e-05 -8.4221823e-04 -1.3973375e-04 
-1.2139192e-05 -5.9821730e-04 -1.0884587e-04 
-2.9333909e-05 -6.5339817e-04 -8.3941864e-05 
-1.0826033e-05 -8.4063702e-04 -7.7461722e-05 
-4.7207384e-05 -7.7517092e-04 -9.0498579e-05 
-4.7433923e-06 -4.9477362e-04 -1.1297445e-04 
8.6322952e-06 -2.6298279e-04 -7.8915153e-05 
1.1430203e-05 -1.3437305e-04 -6.1619554e-05 
1.6393220e-05 -9.3392249e-05 -4.4295623e-05 
9.8672244e-06 -8.2179737e-05 -2.6171174e-05 
7.9006095e-06 -7.6549411e-05 -3.0425212e-05 
4.1601788e-06 -6.0989150e-05 -2.0967016e-05 
5.4660759e-06 -5.2972966e-05 -2.1549267e-05 
1.3610557e-05 -5.1264196e-05 -2.1924892e-05 
5.5938704e-06 -4.8752448e-05 -1.8709361e-05 
1.5575926e-06 -4.3233013e-05 -1.5346512e-05 
2.4923786e-06 -3.7590882e-05 -1.4995530e-05 
3.3977237e-06 -3.1022031e-05 -1.1010005e-05 
2.6919813e-06 -2.9186043e-05 -6.4144479e-06 
3.5861483e-06 -2.9193665e-05 -5.5000605e-06 
2.4927606e-06 -2.8761520e-05 -5.4776960e-06 
3.5871972e-06 -2.4571113e-05 -2.8734328e-06 
2.7482163e-06 -2.3386261e-05 -1.5198749e-06 
4.6498185e-06 -2.4924097e-05 1.3089809e-07 
2.7656260e-06 -2.8750337e-05 3.4879740e-06 
1.4566552e-06 -2.9923671e-05 3.2303215e-06 
3.9209785e-06 -3.0128136e-05 3.9177421e-06 
1.1175336e-05 -3.1684100e-05 5.5418986e-06 
4.6454288e-06 -3.6335608e-05 8.6459431e-06 
3.5612204e-06 -4.1376221e-05 7.2783155e-06 
6.9073626e-06 -4.4600703e-05 8.2189345e-06 
1.0113491e-05 -4.2633565e-05 5.0687454e-06 
1.0566898e-05 -4.7092144e-05 1.3139460e-05 
1.1653851e-05 -6.1260427e-05 2.0983905e-05 
8.5454703e-06 -9.6025942e-05 4.2911819e-05 
-1.0470259e-06 -1.6417043e-04 4.4397668e-05 
-9.6980302e-06 -3.3080220e-04 4.3493979e-05 
-1.0563475e-05 -5.9782952e-04 6.9871501e-05 
-6.1597333e-05 -7.9737761e-04 2.7619810e-05 
-6.7692190e-06 -6.9014402e-04 -3.8740211e-05 
-1.5487880e-05 -4.9673504e-04 -7.4297936e-06 
-1.8913059e-05 -4.6172255e-04 1.5389518e-05 
-3.5151985e-05 -6.3062948e-04 -2.5743032e-06 
1.1414532e-05 -8.1524241e-04 1.5663876e-05 
-2.2350168e-05 -6.4958440e-04 -3.0389114e-05 
-3.8298117e-06 -3.6878957e-04 -8.4123836e-05 
-1.8019484e-05 -1.6954719e-04 -5.0029212e-05 
1.1098389e-05 -7.5298827e-05 -3.7269907e-05 
5.2999858e-06 -4.9570899e-05 -3.0152045e-05 
4.6631826e-06 -4.2119333e-05 -1.8038274e-05 
3.9711595e-06 -4.1424919e-05 -1.5334963e-05 
5.1084289e-06 -4.0296443e-05 -1.2437569e-05 
2.0181471e-06 -4.1328829e-05 -1.0241039e-05 
5.1468345e-07 -3.7746813e-05 -1.2542329e-05 
3.5950372e-06 -3.0976775e-05 -1.2357870e-05 
4.3542864e-06 -2.3581533e-05 -1.0150356e-05 
4.1060662e-06 -1.7897582e-05 -9.4799761e-06 
4.3620812e-06 -1.4265965e-05 -7.2406310e-06 
2.7244921e-06 -1.3885166e-05 -7.1538166e-06 
1.8976025e-06 -1.3288969e-05 -6.3203338e-06 
1.1594926e-06 -1.2052333e-05 -6.1268629e-06 
1.0398642e-06 -1.0135046e-05 -4.7289559e-06 
4.2507415e-07 -9.2929531e-06 -4.3237274e-06 
1.0049998e-07 -8.2451834e-06 -4.3447167e-06 
4.8726832e-07 -7.0765814e-06 -4.0274977e-06 
1.4705836e-06 -5.7218012e-06 -3.3502949e-06 
6.1618692e-07 -4.2280526e-06 -2.9466087e-06 
4.2050343e-07 -3.3142669e-06 -2.6302941e-06 
6.9571627e-07 -3.1321538e-06 -2.2843574e-06 
8.1755161e-07 -2.9367627e-06 -1.8960301e-06 
3.1125541e-07 -2.5020245e-06 -1.3664334e-06 
4.1362031e-07 -2.1390877e-06 -1.4871330e-06 
3.7360942e-07 -1.8171421e-06 -1.3467754e-06 
5.2366011e-07 -1.3487426e-06 -9.7761210e-07 
1.4944325e-07 -1.1453546e-06 -9.0335180e-07 
1.9422002e-07 -1.1404311e-06 -8.3796436e-07 
3.4901401e-08 -9.8536714e-07 -7.9170354e-07 
3.2723481e-08 -7.3280574e-07 -6.3705585e-07 
2.6763837e-08 -5.9422928e-07 -5.5697791e-07 
5.0880892e-08 -4.9122212e-07 -4.8009758e-07 
9.0471559e-09 -3.6167967e-07 -4.3585430e-07 
6.8855499e-08 -2.2750233e-07 -3.2572044e-07 
6.8238060e-09 -1.6672679e-07 -2.8282767e-07 
-3.2633418e-09 -1.5042859e-07 -2.3400528e-07 
-1.5491693e-08 -1.2970027e-07 -2.1403712e-07 
-1.1351705e-08 -8.3535447e-08 -1.6777948e-07 
-2.2603013e-08 -4.7904670e-08 -1.4093921e-07 
-3.0039782e-08 -2.1687098e-08 -1.1706483e-07 
-3.3113754e-08 1.0824395e-09 -1.0276153e-07 
-3.1886533e-08 2.3806512e-08 -7.7323456e-08 
-3.6220449e-08 3.7789693e-08 -6.0812219e-08 
-3.8242423e-08 4.5757155e-08 -4.7633804e-08 
-4.2083020e-08 5.4267883e-08 -4.0446022e-08 
-5.0353272e-08 6.2692386e-08 -3.0485225e-08 
-4.5278863e-08 7.0111909e-08 -2.5593014e-08 
-4.5520590e-08 7.9174271e-08 -1.9663835e-08 
-4.9924363e-08 8.7147434e-08 -1.3445589e-08 
-5.0207372e-08 8.8782627e-08 -1.1843451e-08 
0.0000000e+00 -1.5319785e-03 0.0000000e+00 
0.0000000e+00 -1.3000636e-03 0.0000000e+00 
0.0000000e+00 -8.5983129e-04 0.0000000e+00 
0.0000000e+00 -6.0927490e-04 0.0000000e+00 
0.0000000e+00 -6.7293464e-04 0.0000000e+00 
0.0000000e+00 -8.7245263e-04 0.0000000e+00 
0.0000000e+00 -8.1076997e-04 0.0000000e+00 
0.0000000e+00 -5.1145942e-04 0.0000000e+00 
0.0000000e+00 -2.6286725e-04 0.0000000e+00 
0.0000000e+00 -1.3381541e-04 0.0000000e+00 
0.0000000e+00 -9.0459282e-05 0.0000000e+00 
0.0000000e+00 -8.0748039e-05 0.0000000e+00 
0.0000000e+00 -7.4572541e-05 0.0000000e+00 
0.0000000e+00 -6.1182967e-05 0.0000000e+00 
0.0000000e+00 -5.2821539e-05 0.0000000e+00 
0.0000000e+00 -5.0806109e-05 0.0000000e+00 
0.0000000e+00 -4.8405142e-05 0.0000000e+00 
0.0000000e+00 -4.2995889e-05 0.0000000e+00 
0.0000000e+00 -3.6998375e-05 0.0000000e+00 
0.0000000e+00 -3.1204450e-05 0.0000000e+00 
0.0000000e+00 -2.8976963e-05 0.0000000e+00 
0.0000000e+00 -2.8950299e-05 0.0000000e+00 
0.0000000e+00 -2.8138746e-05 0.0000000e+00 
0.0000000e+00 -2.4638553e-05 0.0000000e+00 
0.0000000e+00 -2.3188011e-05 0.0000000e+00 
0.0000000e+00 -2.4940104e-05 0.0000000e+00 
0.0000000e+00 -2.8311502e-05 0.0000000e+00 
0.0000000e+00 -2.9597959e-05 0.0000000e+00 
0.0000000e+00 -2.9937557e-05 0.0000000e+00 
0.0000000e+00 -3.1618700e-05 0.0000000e+00 
0.0000000e+00 -3.6093381e-05 0.0000000e+00 
0.0000000e+00 -4.1100480e-05 0.0000000e+00 
0.0000000e+00 -4.3569577e-05 0.0000000e+00 
0.0000000e+00 -4.2283995e-05 0.0000000e+00 
0.0000000e+00 -4.6357378e-05 0.0000000e+00 
0.0000000e+00 -6.0531547e-05 0.0000000e+00 
0.0000000e+00 -9.1701775e-05 0.0000000e+00 
0.0000000e+00 -1.6401848e-04 0.0000000e+00 
0.0000000e+00 -3.3784984e-04 0.0000000e+00 
0.0000000e+00 -6.2001654e-04 0.0000000e+00 
0.0000000e+00 -8.4527617e-04 0.0000000e+00 
0.0000000e+00 -7.1716087e-04 0.0000000e+00 
0.0000000e+00 -5.0584611e-04 0.0000000e+00 
0.0000000e+00 -4.7077012e-04 0.0000000e+00 
0.0000000e+00 -6.5675413e-04 0.0000000e+00 
0.0000000e+00 -8.5478678e-04 0.0000000e+00 
0.0000000e+00 -6.8102346e-04 0.0000000e+00 
0.0000000e+00 -3.7880530e-04 0.0000000e+00 
0.0000000e+00 -1.7006915e-04 0.0000000e+00 
0.0000000e+00 -7.3957592e-05 0.0000000e+00 
0.0000000e+00 -4.6645509e-05 0.0000000e+00 
0.0000000e+00 -4.1212417e-05 0.0000000e+00 
0.0000000e+00 -4.0689556e-05 0.0000000e+00 
0.0000000e+00 -4.0371058e-05 0.0000000e+00 
0.0000000e+00 -4.0756931e-05 0.0000000e+00 
0.0000000e+00 -3.7444584e-05 0.0000000e+00 
0.0000000e+00 -3.0838481e-05 0.0000000e+00 
0.0000000e+00 -2.3512801e-05 0.0000000e+00 
0.0000000e+00 -1.7688686e-05 0.0000000e+00 
0.0000000e+00 -1.4253115e-05 0.0000000e+00 
0.0000000e+00 -1.3638636e-05 0.0000000e+00 
0.0000000e+00 -1.3174526e-05 0.0000000e+00 
0.0000000e+00 -1.1918588e-05 0.0000000e+00 
0.0000000e+00 -1.0195585e-05 0.0000000e+00 
0.0000000e+00 -9.1687161e-06 0.0000000e+00 
0.0000000e+00 -8.1843455e-06 0.0000000e+00 
0.0000000e+00 -7.0539918e-06 0.0000000e+00 
0.0000000e+00 -5.6681497e-06 0.0000000e+00 
0.0000000e+00 -4.2084121e-06 0.0000000e+00 
0.0000000e+00 -3.3028796e-06 0.0000000e+00 
0.0000000e+00 -3.0845629e-06 0.0000000e+00 
0.0000000e+00 -2.8964857e-06 0.0000000e+00 
0.0000000e+00 -2.5003542e-06 0.0000000e+00 
0.0000000e+00 -2.1233411e-06 0.0000000e+00 
0.0000000e+00 -1.7784336e-06 0.0000000e+00 
0.0000000e+00 -1.3620663e-06 0.0000000e+00 
0.0000000e+00 -1.1427230e-06 0.0000000e+00 
0.0000000e+00 -1.1122175e-06 0.0000000e+00 
0.0000000e+00 -9.7493262e-07 0.0000000e+00 
0.0000000e+00 -7.3984086e-07 0.0000000e+00 
0.0000000e+00 -5.8688488e-07 0.0000000e+00 
0.0000000e+00 -4.8384317e-07 0.0000000e+00 
0.0000000e+00 -3.5824809e-07 0.0000000e+00 
0.0000000e+00 -2.2965615e-07 0.0000000e+00 
0.0000000e+00 -1.6406320e-07 0.0000000e+00 
0.0000000e+00 -1.4716571e-07 0.0000000e+00 
0.0000000e+00 -1.2698422e-07 0.0000000e+00 
0.0000000e+00 -8.4863331e-08 0.0000000e+00 
0.0000000e+00 -4.7634586e-08 0.0000000e+00 
0.0000000e+00 -2.1093696e-08 0.0000000e+00 
0.0000000e+00 1.6029735e-09 0.0000000e+00 
0.0000000e+00 2.3192246e-08 0.0000000e+00 
0.0000000e+00 3.7589807e-08 0.0000000e+00 
0.0000000e+00 4.5929951e-08 0.0000000e+00 
0.0000000e+00 5.4009352e-08 0.0000000e+00 
0.0000000e+00 6.2091672e-08 0.0000000e+00 
0.0000000e+00 6.9943461e-08 0.0000000e+00 
0.0000000e+00 7.8948929e-08 0.0000000e+00 
0.0000000e+00 8.6415390e-08 0.0000000e+00 
0.0000000e+00 8.8290051e-08 0.0000000e+00 
0.0000000e+00 8.7583594e-08 0.0000000e+00 
1.4669321e-05 -1.1741280e-04 -3.9138689e-05 
-3.6244222e-05 -8.3988038e-05 -2.8846995e-05 
-1.8730449e-05 -2.6493244e-05 -9.2051932e-06 
0.0000000e+00 0.0000000e+00 0.0000000e+00 
0.0000000e+00 0.0000000e+00 0.0000000e+00 
0.0000000e+00 0.0000000e+00 0.0000000e+00 
0.0000000e+00 0.0000000e+00 0.0000000e+00 
0.0000000e+00 0.0000000e+00 0.0000000e+00 
0.0000000e+00 0.0000000e+00 0.0000000e+00 
0.0000000e+00 0.0000000e+00 0.0000000e+00 
0.0000000e+00 0.0000000e+00 0.0000000e+00 
0.0000000e+00 0.0000000e+00 0.0000000e+00 
0.0000000e+00 0.0000000e+00 0.0000000e+00 
0.0000000e+00 0.0000000e+00 0.0000000e+00 
0.0000000e+00 0.0000000e+00 0.0000000e+00 
0.0000000e+00 0.0000000e+00 0.0000000e+00 
0.0000000e+00 0.0000000e+00 0.0000000e+00 
0.0000000e+00 0.0000000e+00 0.0000000e+00 
0.0000000e+00 0.0000000e+00 0.0000000e+00 
0.0000000e+00 0.0000000e+00 0.0000000e+00 
0.0000000e+00 0.0000000e+00 0.0000000e+00 
0.0000000e+00 0.0000000e+00 0.0000000e+00 
0.0000000e+00 0.0000000e+00 0.0000000e+00 
0.0000000e+00 0.0000000e+00 0.0000000e+00 
0.0000000e+00 0.0000000e+00 0.0000000e+00 
0.0000000e+00 0.0000000e+00 0.0000000e+00 
0.0000000e+00 0.0000000e+00 0.0000000e+00 
0.0000000e+00 0.0000000e+00 0.0000000e+00 
0.0000000e+00 0.0000000e+00 0.0000000e+00 
0.0000000e+00 0.0000000e+00 0.0000000e+00 
0.0000000e+00 0.0000000e+00 0.0000000e+00 
0.0000000e+00 0.0000000e+00 0.0000000e+00 
0.0000000e+00 0.0000000e+00 0.0000000e+00 
0.0000000e+00 0.0000000e+00 0.0000000e+00 
0.0000000e+00 0.0000000e+00 0.0000000e+00 
0.0000000e+00 0.0000000e+00 0.0000000e+00 
0.0000000e+00 0.0000000e+00 0.0000000e+00 
0.0000000e+00 0.0000000e+00 0.0000000e+00 
0.0000000e+00 0.0000000e+00 0.0000000e+00 
0.0000000e+00 0.0000000e+00 0.0000000e+00 
0.0000000e+00 0.0000000e+00 0.0000000e+00 
0.0000000e+00 0.0000000e+00 0.0000000e+00 
0.0000000e+00 0.0000000e+00 0.0000000e+00 
0.0000000e+00 0.0000000e+00 0.0000000e+00 
0.0000000e+00 0.0000000e+00 0.0000000e+00 
0.0000000e+00 0.0000000e+00 0.0000000e+00 
0.0000000e+00 0.0000000e+00 0.0000000e+00 
0.0000000e+00 0.0000000e+00 0.0000000e+00 
0.0000000e+00 0.0000000e+00 0.0000000e+00 
0.0000000e+00 0.0000000e+00 0.0000000e+00 
0.0000000e+00 0.0000000e+00 0.0000000e+00 
0.0000000e+00 0.0000000e+00 0.0000000e+00 
0.0000000e+00 0.0000000e+00 0.0000000e+00 
0.0000000e+00 0.0000000e+00 0.0000000e+00 
0.0000000e+00 0.0000000e+00 0.0000000e+00 
0.0000000e+00 0.0000000e+00 0.0000000e+00 
0.0000000e+00 0.0000000e+00 0.0000000e+00 
0.0000000e+00 0.0000000e+00 0.0000000e+00 
0.0000000e+00 0.0000000e+00 0.0000000e+00 
0.0000000e+00 0.0000000e+00 0.0000000e+00 
0.0000000e+00 0.0000000e+00 0.0000000e+00 
0.0000000e+00 0.0000000e+00 0.0000000e+00 
0.0000000e+00 0.0000000e+00 0.0000000e+00 
0.0000000e+00 0.0000000e+00 0.0000000e+00 
0.0000000e+00 0.0000000e+00 0.0000000e+00 
0.0000000e+00 0.0000000e+00 0.0000000e+00 
0.0000000e+00 0.0000000e+00 0.0000000e+00 
0.0000000e+00 0.0000000e+00 0.0000000e+00 
0.0000000e+00 0.0000000e+00 0.0000000e+00 
0.0000000e+00 0.0000000e+00 0.0000000e+00 
0.0000000e+00 0.0000000e+00 0.0000000e+00 
0.0000000e+00 0.0000000e+00 0.0000000e+00 
0.0000000e+00 0.0000000e+00 0.0000000e+00 
0.0000000e+00 0.0000000e+00 0.0000000e+00 
0.0000000e+00 0.0000000e+00 0.0000000e+00 
0.0000000e+00 0.0000000e+00 0.0000000e+00 
0.0000000e+00 0.0000000e+00 0.0000000e+00 
0.0000000e+00 0.0000000e+00 0.0000000e+00 
0.0000000e+00 0.0000000e+00 0.0000000e+00 
0.0000000e+00 0.0000000e+00 0.0000000e+00 
0.0000000e+00 0.0000000e+00 0.0000000e+00 
0.0000000e+00 0.0000000e+00 0.0000000e+00 
0.0000000e+00 0.0000000e+00 0.0000000e+00 
0.0000000e+00 0.0000000e+00 0.0000000e+00 
0.0000000e+00 0.0000000e+00 0.0000000e+00 
0.0000000e+00 0.0000000e+00 0.0000000e+00 
0.0000000e+00 0.0000000e+00 0.0000000e+00 
0.0000000e+00 0.0000000e+00 0.0000000e+00 
0.0000000e+00 0.0000000e+00 0.0000000e+00 
0.0000000e+00 0.0000000e+00 0.0000000e+00 
0.0000000e+00 0.0000000e+00 0.0000000e+00 
0.0000000e+00 0.0000000e+00 0.0000000e+00 
0.0000000e+00 0.0000000e+00 0.0000000e+00 
0.0000000e+00 0.0000000e+00 0.0000000e+00 
0.0000000e+00 0.0000000e+00 0.0000000e+00 
0.0000000e+00 0.0000000e+00 0.0000000e+00 
0.0000000e+00 0.0000000e+00 0.0000000e+00 
0.0000000e+00 0.0000000e+00 0.0000000e+00 
0.0000000e+00 0.0000000e+00 0.0000000e+00 
0.0000000e+00 0.0000000e+00 0.0000000e+00 
0.0000000e+00 0.0000000e+00 0.0000000e+00 
0.0000000e+00 0.0000000e+00 0.0000000e+00 
0.0000000e+00 0.0000000e+00 0.0000000e+00 
0.0000000e+00 0.0000000e+00 0.0000000e+00 
0.0000000e+00 0.0000000e+00 0.0000000e+00 
0.0000000e+00 0.0000000e+00 0.0000000e+00 
0.0000000e+00 0.0000000e+00 0.0000000e+00 
0.0000000e+00 0.0000000e+00 0.0000000e+00 
0.0000000e+00 0.0000000e+00 0.0000000e+00 
0.0000000e+00 0.0000000e+00 0.0000000e+00 
0.0000000e+00 0.0000000e+00 0.0000000e+00 
0.0000000e+00 0.0000000e+00 0.0000000e+00 
0.0000000e+00 0.0000000e+00 0.0000000e+00 
0.0000000e+00 0.0000000e+00 0.0000000e+00 
0.0000000e+00 0.0000000e+00 0.0000000e+00 
0.0000000e+00 0.0000000e+00 0.0000000e+00 
0.0000000e+00 0.0000000e+00 0.0000000e+00 
0.0000000e+00 0.0000000e+00 0.0000000e+00 
0.0000000e+00 0.0000000e+00 0.0000000e+00 
3.6149999e-05 -2.8447635e-05 3.1095992e-06 
3.5062181e-05 -2.7639848e-05 6.0969664e-06 
3.2828731e-05 -2.4933324e-05 8.3002160e-06 
3.0088318e-05 -2.2367674e-05 9.8560367e-06 
2.7123717e-05 -1.9876717e-05 1.0744496e-05 
2.4088964e-05 -1.6712409e-05 1.0538381e-05 
2.1600616e-05 -1.4979434e-05 1.0131659e-05 
1.8946981e-05 -1.2387783e-05 8.6000364e-06 
1.6969534e-05 -1.0939157e-05 6.9661778e-06 
1.5549074e-05 -1.0091494e-05 4.9070823e-06 
1.4577598e-05 -9.2482869e-06 2.7330980e-06 
1.4086953e-05 -9.1220791e-06 7.2515041e-07 
1.4196509e-05 -8.9537316e-06 -1.1344837e-06 
1.4803932e-05 -9.6486892e-06 -2.6785422e-06 
1.5735945e-05 -1.0639698e-05 -3.8612393e-06 
1.6815051e-05 -1.1641380e-05 -4.5617662e-06 
1.8264815e-05 -1.2785134e-05 -4.5534430e-06 
1.9238971e-05 -1.3977222e-05 -3.8833487e-06 
2.0354097e-05 -1.4526945e-05 -2.7276560e-06 
2.0794190e-05 -1.5518130e-05 -1.2029689e-06 
2.1047939e-05 -1.5676807e-05 6.7466328e-07 
2.0835159e-05 -1.5509713e-05 2.4947149e-06 
2.0036259e-05 -1.4886002e-05 4.3255836e-06 
1.8726039e-05 -1.4063850e-05 6.0043872e-06 
1.7121090e-05 -1.2614290e-05 7.3893534e-06 
1.5340744e-05 -1.1181369e-05 8.1147691e-06 
1.3340736e-05 -9.5136920e-06 8.7734343e-06 
1.1422418e-05 -8.2293736e-06 8.7229409e-06 
9.7011962e-06 -6.8242662e-06 8.4330586e-06 
7.9483380e-06 -5.6023036e-06 7.9103111e-06 
6.4017295e-06 -4.4252747e-06 7.1808963e-06 
5.1486331e-06 -3.4895854e-06 6.3774496e-06 
4.0635409e-06 -2.6390742e-06 5.5400901e-06 
3.1243117e-06 -1.8957186e-06 4.7750036e-06 
2.4472979e-06 -1.4172929e-06 4.0459463e-06 
1.8954944e-06 -9.7603129e-07 3.3901899e-06 
1.4422244e-06 -6.7686159e-07 2.8045717e-06 
1.0801321e-06 -4.6558540e-07 2.3012462e-06 
7.9901417e-07 -2.5316996e-07 1.8657186e-06 
5.9366215e-07 -1.4637399e-07 1.5130121e-06 
4.3391714e-07 -5.6801074e-08 1.2131128e-06 
3.0294552e-07 1.1164548e-08 9.5850373e-07 
2.0981311e-07 4.5413852e-08 7.6310926e-07 
1.3563178e-07 7.1340345e-08 6.0426908e-07 
9.1949680e-08 8.6477812e-08 4.8942536e-07 
4.8075560e-08 9.9784373e-08 4.0103927e-07 
1.5306240e-08 1.0237998e-07 3.2828308e-07 
-6.4431926e-09 1.0391225e-07 2.7586012e-07 
-2.5424979e-08 9.1164686e-08 2.3651116e-07 
2.1305108e-05 -1.8937777e-05 -2.7503320e-06 
-1.3734933e-08 -1.1524296e-08 9.8469862e-08 
0.0000000e+00 -7.2830648e-05 0.0000000e+00 
0.0000000e+00 -7.4014759e-05 0.0000000e+00 
0.0000000e+00 -5.9005564e-05 0.0000000e+00 
0.0000000e+00 -5.9518759e-05 0.0000000e+00 
0.0000000e+00 -5.2108215e-05 0.0000000e+00 
0.0000000e+00 -4.0124927e-05 0.0000000e+00 
0.0000000e+00 -2.6269450e-05 0.0000000e+00 
0.0000000e+00 -2.5383517e-05 0.0000000e+00 
0.0000000e+00 -2.7598140e-05 0.0000000e+00 
0.0000000e+00 -1.9821133e-05 0.0000000e+00 
0.0000000e+00 -1.7955315e-05 0.0000000e+00 
0.0000000e+00 -1.6732156e-05 0.0000000e+00 
0.0000000e+00 -2.2343402e-05 0.0000000e+00 
0.0000000e+00 -1.8617149e-05 0.0000000e+00 
0.0000000e+00 -2.0008700e-05 0.0000000e+00 
0.0000000e+00 -2.7131129e-05 0.0000000e+00 
0.0000000e+00 -3.0521631e-05 0.0000000e+00 
0.0000000e+00 -4.3275420e-05 0.0000000e+00 
0.0000000e+00 -3.4747078e-05 0.0000000e+00 
0.0000000e+00 -3.9699687e-05 0.0000000e+00 
0.0000000e+00 -4.9256945e-05 0.0000000e+00 
0.0000000e+00 -4.6485824e-05 0.0000000e+00 
0.0000000e+00 -4.0368610e-05 0.0000000e+00 
0.0000000e+00 -3.6707948e-05 0.0000000e+00 
0.0000000e+00 -3.4422857e-05 0.0000000e+00 
0.0000000e+00 -2.5793843e-05 0.0000000e+00 
0.0000000e+00 -1.9105468e-05 0.0000000e+00 
0.0000000e+00 -1.9872132e-05 0.0000000e+00 
0.0000000e+00 -1.3745923e-05 0.0000000e+00 
0.0000000e+00 -9.5261266e-06 0.0000000e+00 
0.0000000e+00 -8.0154850e-06 0.0000000e+00 
0.0000000e+00 -7.0470282e-06 0.0000000e+00 
0.0000000e+00 -4.4446197e-06 0.0000000e+00 
0.0000000e+00 -3.1838836e-06 0.0000000e+00 
0.0000000e+00 -2.7772569e-06 0.0000000e+00 
0.0000000e+00 -1.8111058e-06 0.0000000e+00 
0.0000000e+00 -1.1934786e-06 0.0000000e+00 
0.0000000e+00 -7.3024506e-07 0.0000000e+00 
0.0000000e+00 -5.3551258e-07 0.0000000e+00 
0.0000000e+00 -4.7448171e-07 0.0000000e+00 
0.0000000e+00 -2.9497767e-07 0.0000000e+00 
0.0000000e+00 -2.0851704e-07 0.0000000e+00 
0.0000000e+00 -1.4020326e-07 0.0000000e+00 
0.0000000e+00 -7.6084731e-08 0.0000000e+00 
0.0000000e+00 -4.9353197e-08 0.0000000e+00 
0.0000000e+00 -8.9829930e-09 0.0000000e+00 
0.0000000e+00 -1.1630422e-09 0.0000000e+00 
0.0000000e+00 1.1259735e-08 0.0000000e+00 
0.0000000e+00 9.6772279e-09 0.0000000e+00 
3.7119109e-05 -2.1823844e-05 -1.3790703e-06 
3.7446047e-05 -2.3983694e-05 -3.6642796e-06 
3.8077676e-05 -2.9635992e-05 -6.2297395e-06 
3.8267128e-05 -3.8117159e-05 -8.7847538e-06 