# vtk DataFile Version 4.0
vtk output
ASCII
DATASET UNSTRUCTURED_GRID
POINTS 7705 float
0.0000000e+00 3.7700000e+00 0.0000000e+00 
0.0000000e+00 3.7700000e+00 5.0000000e+01 
1.0000000e+01 3.7700000e+00 0.0000000e+00 
1.0000000e+01 3.7700000e+00 5.0000000e+01 
1.0000000e+01 5.7700000e+00 0.0000000e+00 
1.0000000e+01 5.7700000e+00 5.0000000e+01 
0.0000000e+00 5.7700000e+00 0.0000000e+00 
0.0000000e+00 5.7700000e+00 5.0000000e+01 
1.0000000e+01 7.2700000e+00 0.0000000e+00 
1.0000000e+01 7.2700000e+00 5.0000000e+01 
0.0000000e+00 7.2700000e+00 0.0000000e+00 
0.0000000e+00 7.2700000e+00 5.0000000e+01 
1.0000000e+01 9.7700005e+00 0.0000000e+00 
1.0000000e+01 9.7700005e+00 5.0000000e+01 
0.0000000e+00 9.7700005e+00 0.0000000e+00 
0.0000000e+00 9.7700005e+00 5.0000000e+01 
1.0000000e+01 1.1770000e+01 0.0000000e+00 
1.0000000e+01 1.1770000e+01 5.0000000e+01 
0.0000000e+00 1.1770000e+01 0.0000000e+00 
0.0000000e+00 1.1770000e+01 5.0000000e+01 
1.0000000e+01 1.4770000e+01 0.0000000e+00 
1.0000000e+01 1.4770000e+01 5.0000000e+01 
0.0000000e+00 1.4770000e+01 0.0000000e+00 
0.0000000e+00 1.4770000e+01 5.0000000e+01 
1.0000000e+01 1.5070000e+01 0.0000000e+00 
1.0000000e+01 1.5070000e+01 5.0000000e+01 
7.5000000e-01 1.5070000e+01 0.0000000e+00 
7.5000000e-01 1.5070000e+01 5.0000000e+01 
0.0000000e+00 1.5070000e+01 0.0000000e+00 
0.0000000e+00 1.5070000e+01 5.0000000e+01 
7.5000000e-01 1.5070000e+01 5.0000000e-01 
7.5000000e-01 1.5070000e+01 1.0000000e+00 
7.5000000e-01 1.5070000e+01 1.5000000e+00 
7.5000000e-01 1.5070000e+01 2.0000000e+00 
7.5000000e-01 1.5070000e+01 2.5000000e+00 
7.5000000e-01 1.5070000e+01 3.0000000e+00 
7.5000000e-01 1.5070000e+01 3.5000000e+00 
7.5000000e-01 1.5070000e+01 4.0000000e+00 
7.5000000e-01 1.5070000e+01 4.5000000e+00 
7.5000000e-01 1.5070000e+01 5.0000000e+00 
7.5000000e-01 1.5070000e+01 5.5000000e+00 
7.5000000e-01 1.5070000e+01 6.0000000e+00 
7.5000000e-01 1.5070000e+01 6.5000000e+00 
7.5000000e-01 1.5070000e+01 7.0000000e+00 
7.5000000e-01 1.5070000e+01 7.5000000e+00 
7.5000000e-01 1.5070000e+01 8.0000000e+00 
7.5000000e-01 1.5070000e+01 8.5000000e+00 
7.5000000e-01 1.5070000e+01 9.0000000e+00 
7.5000000e-01 1.5070000e+01 9.5000000e+00 
7.5000000e-01 1.5070000e+01 1.0000000e+01 
7.5000000e-01 1.5070000e+01 1.0500000e+01 
7.5000000e-01 1.5070000e+01 1.1000000e+01 
7.5000000e-01 1.5070000e+01 1.1500000e+01 
7.5000000e-01 1.5070000e+01 1.2000000e+01 
7.5000000e-01 1.5070000e+01 1.2500000e+01 
7.5000000e-01 1.5070000e+01 1.3000000e+01 
7.5000000e-01 1.5070000e+01 1.3500000e+01 
7.5000000e-01 1.5070000e+01 1.4000000e+01 
7.5000000e-01 1.5070000e+01 1.4500000e+01 
7.5000000e-01 1.5070000e+01 1.5000000e+01 
7.5000000e-01 1.5070000e+01 1.5500000e+01 
7.5000000e-01 1.5070000e+01 1.6000000e+01 
7.5000000e-01 1.5070000e+01 1.6500000e+01 
7.5000000e-01 1.5070000e+01 1.7000000e+01 
7.5000000e-01 1.5070000e+01 1.7500000e+01 
7.5000000e-01 1.5070000e+01 1.8000000e+01 
7.5000000e-01 1.5070000e+01 1.8500000e+01 
7.5000000e-01 1.5070000e+01 1.9000000e+01 
7.5000000e-01 1.5070000e+01 1.9500000e+01 
7.5000000e-01 1.5070000e+01 2.0000000e+01 
7.5000000e-01 1.5070000e+01 2.0500000e+01 
7.5000000e-01 1.5070000e+01 2.1000000e+01 
7.5000000e-01 1.5070000e+01 2.1500000e+01 
7.5000000e-01 1.5070000e+01 2.2000000e+01 
7.5000000e-01 1.5070000e+01 2.2500000e+01 
7.5000000e-01 1.5070000e+01 2.3000000e+01 
7.5000000e-01 1.5070000e+01 2.3500000e+01 
7.5000000e-01 1.5070000e+01 2.4000000e+01 
7.5000000e-01 1.5070000e+01 2.4500000e+01 
7.5000000e-01 1.5070000e+01 2.5000000e+01 
7.5000000e-01 1.5070000e+01 2.5500000e+01 
7.5000000e-01 1.5070000e+01 2.6000000e+01 
7.5000000e-01 1.5070000e+01 2.6500000e+01 
7.5000000e-01 1.5070000e+01 2.7000000e+01 
7.5000000e-01 1.5070000e+01 2.7500000e+01 
7.5000000e-01 1.5070000e+01 2.8000000e+01 
7.5000000e-01 1.5070000e+01 2.8500000e+01 
7.5000000e-01 1.5070000e+01 2.9000000e+01 
7.5000000e-01 1.5070000e+01 2.9500000e+01 
7.5000000e-01 1.5070000e+01 3.0000000e+01 
7.5000000e-01 1.5070000e+01 3.0500000e+01 
7.5000000e-01 1.5070000e+01 3.1000000e+01 
7.5000000e-01 1.5070000e+01 3.1500000e+01 
7.5000000e-01 1.5070000e+01 3.2000000e+01 
7.5000000e-01 1.5070000e+01 3.2500000e+01 
7.5000000e-01 1.5070000e+01 3.3000000e+01 
7.5000000e-01 1.5070000e+01 3.3500000e+01 
7.5000000e-01 1.5070000e+01 3.4000000e+01 
7.5000000e-01 1.5070000e+01 3.4500000e+01 
7.5000000e-01 1.5070000e+01 3.5000000e+01 
7.5000000e-01 1.5070000e+01 3.5500000e+01 
7.5000000e-01 1.5070000e+01 3.6000000e+01 
7.5000000e-01 1.5070000e+01 3.6500000e+01 
7.5000000e-01 1.5070000e+01 3.7000000e+01 
7.5000000e-01 1.5070000e+01 3.7500000e+01 
7.5000000e-01 1.5070000e+01 3.8000000e+01 
7.5000000e-01 1.5070000e+01 3.8500000e+01 
7.5000000e-01 1.5070000e+01 3.9000000e+01 
7.5000000e-01 1.5070000e+01 3.9500000e+01 
7.5000000e-01 1.5070000e+01 4.0000000e+01 
7.5000000e-01 1.5070000e+01 4.0500000e+01 
7.5000000e-01 1.5070000e+01 4.1000000e+01 
7.5000000e-01 1.5070000e+01 4.1500000e+01 
7.5000000e-01 1.5070000e+01 4.2000000e+01 
7.5000000e-01 1.5070000e+01 4.2500000e+01 
7.5000000e-01 1.5070000e+01 4.3000000e+01 
7.5000000e-01 1.5070000e+01 4.3500000e+01 
7.5000000e-01 1.5070000e+01 4.4000000e+01 
7.5000000e-01 1.5070000e+01 4.4500000e+01 
7.5000000e-01 1.5070000e+01 4.5000000e+01 
7.5000000e-01 1.5070000e+01 4.5500000e+01 
7.5000000e-01 1.5070000e+01 4.6000000e+01 
7.5000000e-01 1.5070000e+01 4.6500000e+01 
7.5000000e-01 1.5070000e+01 4.7000000e+01 
7.5000000e-01 1.5070000e+01 4.7500000e+01 
7.5000000e-01 1.5070000e+01 4.8000000e+01 
7.5000000e-01 1.5070000e+01 4.8500000e+01 
7.5000000e-01 1.5070000e+01 4.9000000e+01 
7.5000000e-01 1.5070000e+01 4.9500000e+01 
7.5000000e-01 1.5095000e+01 0.0000000e+00 
7.5000000e-01 1.5095000e+01 5.0000000e-01 
7.5000000e-01 1.5095000e+01 1.0000000e+00 
7.5000000e-01 1.5095000e+01 1.5000000e+00 
7.5000000e-01 1.5095000e+01 2.0000000e+00 
7.5000000e-01 1.5095000e+01 2.5000000e+00 
7.5000000e-01 1.5095000e+01 3.0000000e+00 
7.5000000e-01 1.5095000e+01 3.5000000e+00 
7.5000000e-01 1.5095000e+01 4.0000000e+00 
7.5000000e-01 1.5095000e+01 4.5000000e+00 
7.5000000e-01 1.5095000e+01 5.0000000e+00 
7.5000000e-01 1.5095000e+01 5.5000000e+00 
7.5000000e-01 1.5095000e+01 6.0000000e+00 
7.5000000e-01 1.5095000e+01 6.5000000e+00 
7.5000000e-01 1.5095000e+01 7.0000000e+00 
7.5000000e-01 1.5095000e+01 7.5000000e+00 
7.5000000e-01 1.5095000e+01 8.0000000e+00 
7.5000000e-01 1.5095000e+01 8.5000000e+00 
7.5000000e-01 1.5095000e+01 9.0000000e+00 
7.5000000e-01 1.5095000e+01 9.5000000e+00 
7.5000000e-01 1.5095000e+01 1.0000000e+01 
7.5000000e-01 1.5095000e+01 1.0500000e+01 
7.5000000e-01 1.5095000e+01 1.1000000e+01 
7.5000000e-01 1.5095000e+01 1.1500000e+01 
7.5000000e-01 1.5095000e+01 1.2000000e+01 
7.5000000e-01 1.5095000e+01 1.2500000e+01 
7.5000000e-01 1.5095000e+01 1.3000000e+01 
7.5000000e-01 1.5095000e+01 1.3500000e+01 
7.5000000e-01 1.5095000e+01 1.4000000e+01 
7.5000000e-01 1.5095000e+01 1.4500000e+01 
7.5000000e-01 1.5095000e+01 1.5000000e+01 
7.5000000e-01 1.5095000e+01 1.5500000e+01 
7.5000000e-01 1.5095000e+01 1.6000000e+01 
7.5000000e-01 1.5095000e+01 1.6500000e+01 
7.5000000e-01 1.5095000e+01 1.7000000e+01 
7.5000000e-01 1.5095000e+01 1.7500000e+01 
7.5000000e-01 1.5095000e+01 1.8000000e+01 
7.5000000e-01 1.5095000e+01 1.8500000e+01 
7.5000000e-01 1.5095000e+01 1.9000000e+01 
7.5000000e-01 1.5095000e+01 1.9500000e+01 
7.5000000e-01 1.5095000e+01 2.0000000e+01 
7.5000000e-01 1.5095000e+01 2.0500000e+01 
7.5000000e-01 1.5095000e+01 2.1000000e+01 
7.5000000e-01 1.5095000e+01 2.1500000e+01 
7.5000000e-01 1.5095000e+01 2.2000000e+01 
7.5000000e-01 1.5095000e+01 2.2500000e+01 
7.5000000e-01 1.5095000e+01 2.3000000e+01 
7.5000000e-01 1.5095000e+01 2.3500000e+01 
7.5000000e-01 1.5095000e+01 2.4000000e+01 
7.5000000e-01 1.5095000e+01 2.4500000e+01 
7.5000000e-01 1.5095000e+01 2.5000000e+01 
7.5000000e-01 1.5095000e+01 2.5500000e+01 
7.5000000e-01 1.5095000e+01 2.6000000e+01 
7.5000000e-01 1.5095000e+01 2.6500000e+01 
7.5000000e-01 1.5095000e+01 2.7000000e+01 
7.5000000e-01 1.5095000e+01 2.7500000e+01 
7.5000000e-01 1.5095000e+01 2.8000000e+01 
7.5000000e-01 1.5095000e+01 2.8500000e+01 
7.5000000e-01 1.5095000e+01 2.9000000e+01 
7.5000000e-01 1.5095000e+01 2.9500000e+01 
7.5000000e-01 1.5095000e+01 3.0000000e+01 
7.5000000e-01 1.5095000e+01 3.0500000e+01 
7.5000000e-01 1.5095000e+01 3.1000000e+01 
7.5000000e-01 1.5095000e+01 3.1500000e+01 
7.5000000e-01 1.5095000e+01 3.2000000e+01 
7.5000000e-01 1.5095000e+01 3.2500000e+01 
7.5000000e-01 1.5095000e+01 3.3000000e+01 
7.5000000e-01 1.5095000e+01 3.3500000e+01 
7.5000000e-01 1.5095000e+01 3.4000000e+01 
7.5000000e-01 1.5095000e+01 3.4500000e+01 
7.5000000e-01 1.5095000e+01 3.5000000e+01 
7.5000000e-01 1.5095000e+01 3.5500000e+01 
7.5000000e-01 1.5095000e+01 3.6000000e+01 
7.5000000e-01 1.5095000e+01 3.6500000e+01 
7.5000000e-01 1.5095000e+01 3.7000000e+01 
7.5000000e-01 1.5095000e+01 3.7500000e+01 
7.5000000e-01 1.5095000e+01 3.8000000e+01 
7.5000000e-01 1.5095000e+01 3.8500000e+01 
7.5000000e-01 1.5095000e+01 3.9000000e+01 
7.5000000e-01 1.5095000e+01 3.9500000e+01 
7.5000000e-01 1.5095000e+01 4.0000000e+01 
7.5000000e-01 1.5095000e+01 4.0500000e+01 
7.5000000e-01 1.5095000e+01 4.1000000e+01 
7.5000000e-01 1.5095000e+01 4.1500000e+01 
7.5000000e-01 1.5095000e+01 4.2000000e+01 
7.5000000e-01 1.5095000e+01 4.2500000e+01 
7.5000000e-01 1.5095000e+01 4.3000000e+01 
7.5000000e-01 1.5095000e+01 4.3500000e+01 
7.5000000e-01 1.5095000e+01 4.4000000e+01 
7.5000000e-01 1.5095000e+01 4.4500000e+01 
7.5000000e-01 1.5095000e+01 4.5000000e+01 
7.5000000e-01 1.5095000e+01 4.5500000e+01 
7.5000000e-01 1.5095000e+01 4.6000000e+01 
7.5000000e-01 1.5095000e+01 4.6500000e+01 
7.5000000e-01 1.5095000e+01 4.7000000e+01 
7.5000000e-01 1.5095000e+01 4.7500000e+01 
7.5000000e-01 1.5095000e+01 4.8000000e+01 
7.5000000e-01 1.5095000e+01 4.8500000e+01 
7.5000000e-01 1.5095000e+01 4.9000000e+01 
7.5000000e-01 1.5095000e+01 4.9500000e+01 
7.5000000e-01 1.5095000e+01 5.0000000e+01 
[...]
POINT_DATA 7705
FIELD FieldData 3
DISPLACEMENT 3 7705  float
0.0000000e+00 0.0000000e+00 0.0000000e+00 
0.0000000e+00 0.0000000e+00 0.0000000e+00 
0.0000000e+00 0.0000000e+00 0.0000000e+00 
0.0000000e+00 0.0000000e+00 0.0000000e+00 
3.7315902e-05 -2.6887903e-05 4.0845771e-07 
-3.6149206e-08 3.8399374e-08 2.0776041e-07 
0.0000000e+00 -7.0520291e-05 0.0000000e+00 
0.0000000e+00 4.4063801e-09 0.0000000e+00 
5.1152270e-05 -3.4017161e-05 5.8979208e-06 
-5.5723596e-08 1.7124732e-07 3.3776348e-07 
0.0000000e+00 -1.2646599e-04 0.0000000e+00 
0.0000000e+00 2.1628034e-08 0.0000000e+00 
4.3657565e-05 -3.5216195e-05 5.3594385e-06 
-9.1595247e-08 3.4831911e-07 3.2510800e-07 
0.0000000e+00 -2.0976568e-04 0.0000000e+00 
0.0000000e+00 5.9547055e-08 0.0000000e+00 
2.7400623e-05 -3.0016121e-05 9.1852848e-10 
-1.1670456e-07 4.5898977e-07 1.6106560e-07 
0.0000000e+00 -3.6398819e-04 0.0000000e+00 
0.0000000e+00 6.7332060e-08 0.0000000e+00 
-2.8188868e-05 -2.3417473e-05 -1.3646463e-05 
-1.9531755e-07 4.6112820e-07 5.0309129e-08 
0.0000000e+00 -1.0827318e-03 0.0000000e+00 
0.0000000e+00 1.1502824e-07 0.0000000e+00 
-3.4165165e-05 -2.3410184e-05 -1.4609039e-05 
-2.0184649e-07 4.5994517e-07 5.1349723e-08 
2.3473311e-05 -1.4474333e-03 -4.3378989e-04 
-6.3119131e-08 8.4187811e-08 -7.0441026e-09 
0.0000000e+00 -1.0532953e-03 0.0000000e+00 
0.0000000e+00 1.0692202e-07 0.0000000e+00 
9.1567919e-05 -1.1896509e-03 -2.6693326e-04 
3.8622642e-05 -7.5084611e-04 -1.3885720e-04 
7.1706803e-05 -5.1671604e-04 -1.0441316e-04 
3.7373247e-05 -6.1060005e-04 -8.4227038e-05 
2.4255938e-05 -8.0566946e-04 -8.5329761e-05 
-1.0259803e-05 -6.8559166e-04 -9.2103015e-05 
4.5349730e-05 -4.0313273e-04 -1.2773363e-04 
3.7348502e-05 -1.9565446e-04 -8.4283463e-05 
3.7689217e-05 -8.9570909e-05 -5.5155273e-05 
2.6601907e-05 -6.3413725e-05 -3.8370246e-05 
2.6452282e-05 -6.3866675e-05 -2.9910210e-05 
1.8675017e-05 -6.5670341e-05 -2.8185361e-05 
1.8406385e-05 -5.7989979e-05 -2.3686192e-05 
1.5884940e-05 -5.0587456e-05 -2.5358262e-05 
1.9202240e-05 -4.5368401e-05 -2.4720077e-05 
1.1494368e-05 -4.0853542e-05 -1.8959963e-05 
1.0821745e-05 -3.8406906e-05 -1.6786937e-05 
8.3513651e-06 -3.4260680e-05 -1.4622749e-05 
1.0096306e-05 -2.7326827e-05 -1.0902217e-05 
6.9886523e-06 -2.4206487e-05 -7.6508441e-06 
9.2387263e-06 -2.4086181e-05 -5.5620876e-06 
7.3217984e-06 -2.3628700e-05 -4.6734099e-06 
8.4169396e-06 -2.1461712e-05 -2.8622032e-06 
6.2970466e-06 -2.1314985e-05 -1.5555522e-06 
9.5000933e-06 -2.3085639e-05 -7.0969172e-08 
7.4624195e-06 -2.6081965e-05 3.0073311e-06 
8.8261068e-06 -2.7195558e-05 4.3623454e-06 
9.8231449e-06 -2.6160931e-05 5.2057144e-06 
1.4406191e-05 -2.6949265e-05 7.1231484e-06 
1.0893773e-05 -3.1000127e-05 9.6244703e-06 
1.3826651e-05 -3.7773545e-05 9.6865824e-06 
1.3238710e-05 -4.2348882e-05 8.9851865e-06 
1.9276302e-05 -4.0080609e-05 8.2992819e-06 
2.0140207e-05 -3.7774014e-05 1.2394737e-05 
3.0112869e-05 -4.7774065e-05 2.1275460e-05 
2.9774814e-05 -8.0845515e-05 3.7330625e-05 
3.6758142e-05 -1.4066877e-04 4.7450303e-05 
3.0083011e-05 -2.8418883e-04 5.0517152e-05 
1.9484170e-05 -5.4621749e-04 7.2496397e-05 
-2.6642290e-05 -7.4458105e-04 2.2997569e-05 
5.0896851e-05 -6.1434729e-04 -4.4717261e-05 
2.8241629e-05 -4.1065339e-04 -5.1484622e-06 
4.3608423e-05 -3.9200590e-04 2.1780928e-05 
-4.4741216e-07 -5.9182139e-04 1.8551137e-06 
4.9702463e-05 -8.0003269e-04 1.0085090e-05 
1.4231156e-05 -6.1271788e-04 -3.7184436e-05 
2.0812982e-05 -3.2753765e-04 -8.6396081e-05 
1.3506053e-05 -1.3997122e-04 -5.0478771e-05 
2.7567623e-05 -6.0889044e-05 -4.2073818e-05 
1.6954209e-05 -4.2466647e-05 -2.8623153e-05 
1.9069610e-05 -3.8302813e-05 -2.0663474e-05 
1.2727253e-05 -3.7390291e-05 -1.6191805e-05 
1.4966213e-05 -3.6693720e-05 -1.5814041e-05 
9.6661006e-06 -3.6361795e-05 -1.2768964e-05 
9.5277992e-06 -3.2484772e-05 -1.3014314e-05 
8.1824346e-06 -2.5574082e-05 -1.2605080e-05 
8.7689641e-06 -1.9360605e-05 -1.0356287e-05 
6.0763373e-06 -1.5551901e-05 -9.1699958e-06 
6.5441304e-06 -1.3642131e-05 -7.9736092e-06 
4.2068214e-06 -1.2763910e-05 -7.5504613e-06 
4.3324935e-06 -1.1645755e-05 -7.0084316e-06 
2.5332406e-06 -1.0337295e-05 -5.8880041e-06 
2.7789322e-06 -9.3395092e-06 -5.2950218e-06 
1.6552485e-06 -9.0056237e-06 -4.7873809e-06 
1.9752006e-06 -8.0226300e-06 -4.7666308e-06 
1.7900202e-06 -6.3606749e-06 -4.3625973e-06 
2.0596888e-06 -4.9316013e-06 -3.4445773e-06 
1.3549127e-06 -3.7822651e-06 -2.8703719e-06 
1.3195279e-06 -3.1480915e-06 -2.7140866e-06 
1.2098826e-06 -2.8324409e-06 -2.3719376e-06 
1.1793375e-06 -2.4929748e-06 -1.9656807e-06 
6.6456204e-07 -2.0375405e-06 -1.4680755e-06 
8.2202234e-07 -1.7518663e-06 -1.5741939e-06 
6.5664773e-07 -1.4542640e-06 -1.2291289e-06 
6.3270761e-07 -1.0851201e-06 -1.0145053e-06 
3.6257529e-07 -1.0037671e-06 -9.9409351e-07 
3.2014509e-07 -9.8809107e-07 -9.3064801e-07 
2.0161302e-07 -8.1463583e-07 -7.6926682e-07 
1.6235707e-07 -6.2195016e-07 -6.5207610e-07 
8.9753605e-08 -5.2633652e-07 -5.8216580e-07 
1.2053803e-07 -4.1616187e-07 -5.0935478e-07 
8.0809514e-08 -2.7358919e-07 -4.2710226e-07 
9.3567188e-08 -1.7513825e-07 -3.3853388e-07 
3.3038464e-08 -1.5582425e-07 -2.8640258e-07 
2.2730566e-08 -1.4851757e-07 -2.4982830e-07 
-2.5000897e-09 -1.2051220e-07 -2.0997719e-07 
-1.0372403e-09 -7.8497422e-08 -1.7518843e-07 
-1.8358476e-08 -4.8392401e-08 -1.4768865e-07 
-2.2620187e-08 -2.5142779e-08 -1.2708291e-07 
-2.9516718e-08 -1.5980155e-09 -1.0288968e-07 
-3.3716940e-08 2.0115012e-08 -7.8533283e-08 
-4.1205592e-08 3.2495418e-08 -6.3384881e-08 
-4.4389058e-08 4.0085013e-08 -5.2250083e-08 
-4.6147790e-08 4.7959237e-08 -4.0127770e-08 
-5.5092819e-08 5.5266437e-08 -3.1339429e-08 
-5.4594242e-08 5.9576212e-08 -2.4644754e-08 
-5.6935061e-08 6.6889477e-08 -1.9345817e-08 
-5.8043675e-08 7.7338385e-08 -1.3860308e-08 
-6.0688379e-08 8.3541003e-08 -1.4490896e-08 
0.0000000e+00 -1.4994130e-03 0.0000000e+00 
0.0000000e+00 -1.2319470e-03 0.0000000e+00 
0.0000000e+00 -7.6980161e-04 0.0000000e+00 
0.0000000e+00 -5.2801485e-04 0.0000000e+00 
0.0000000e+00 -6.3054229e-04 0.0000000e+00 
0.0000000e+00 -8.3933055e-04 0.0000000e+00 
0.0000000e+00 -7.2038895e-04 0.0000000e+00 
0.0000000e+00 -4.1675256e-04 0.0000000e+00 
0.0000000e+00 -1.9469920e-04 0.0000000e+00 
0.0000000e+00 -8.8478941e-05 0.0000000e+00 
0.0000000e+00 -6.0610055e-05 0.0000000e+00 
0.0000000e+00 -6.2482482e-05 0.0000000e+00 
0.0000000e+00 -6.4469707e-05 0.0000000e+00 
0.0000000e+00 -5.7755889e-05 0.0000000e+00 
0.0000000e+00 -5.0429793e-05 0.0000000e+00 
0.0000000e+00 -4.5140478e-05 0.0000000e+00 
0.0000000e+00 -4.0733907e-05 0.0000000e+00 
0.0000000e+00 -3.7963953e-05 0.0000000e+00 
0.0000000e+00 -3.3832286e-05 0.0000000e+00 
0.0000000e+00 -2.7444885e-05 0.0000000e+00 
0.0000000e+00 -2.4064866e-05 0.0000000e+00 
0.0000000e+00 -2.3813980e-05 0.0000000e+00 
0.0000000e+00 -2.3274964e-05 0.0000000e+00 
0.0000000e+00 -2.1423004e-05 0.0000000e+00 
0.0000000e+00 -2.1129274e-05 0.0000000e+00 
0.0000000e+00 -2.3078454e-05 0.0000000e+00 
0.0000000e+00 -2.5892585e-05 0.0000000e+00 
0.0000000e+00 -2.6785794e-05 0.0000000e+00 
0.0000000e+00 -2.6038015e-05 0.0000000e+00 
0.0000000e+00 -2.6844564e-05 0.0000000e+00 
0.0000000e+00 -3.0883839e-05 0.0000000e+00 
0.0000000e+00 -3.7488109e-05 0.0000000e+00 
0.0000000e+00 -4.1716703e-05 0.0000000e+00 
0.0000000e+00 -3.9401195e-05 0.0000000e+00 
0.0000000e+00 -3.7122743e-05 0.0000000e+00 
0.0000000e+00 -4.7547015e-05 0.0000000e+00 
0.0000000e+00 -7.7402270e-05 0.0000000e+00 
0.0000000e+00 -1.3907572e-04 0.0000000e+00 
0.0000000e+00 -2.9221625e-04 0.0000000e+00 
0.0000000e+00 -5.7026063e-04 0.0000000e+00 
0.0000000e+00 -7.9382921e-04 0.0000000e+00 
0.0000000e+00 -6.3828158e-04 0.0000000e+00 
0.0000000e+00 -4.1941178e-04 0.0000000e+00 
0.0000000e+00 -4.0127969e-04 0.0000000e+00 
0.0000000e+00 -6.2014617e-04 0.0000000e+00 
0.0000000e+00 -8.3997753e-04 0.0000000e+00 
0.0000000e+00 -6.4292015e-04 0.0000000e+00 
0.0000000e+00 -3.3716249e-04 0.0000000e+00 
0.0000000e+00 -1.4021368e-04 0.0000000e+00 
0.0000000e+00 -5.9058326e-05 0.0000000e+00 
0.0000000e+00 -4.0015631e-05 0.0000000e+00 
0.0000000e+00 -3.7529768e-05 0.0000000e+00 
0.0000000e+00 -3.6950260e-05 0.0000000e+00 
0.0000000e+00 -3.6596324e-05 0.0000000e+00 
0.0000000e+00 -3.6026249e-05 0.0000000e+00 
0.0000000e+00 -3.2119980e-05 0.0000000e+00 
0.0000000e+00 -2.5509135e-05 0.0000000e+00 
0.0000000e+00 -1.9336881e-05 0.0000000e+00 
0.0000000e+00 -1.5390127e-05 0.0000000e+00 
0.0000000e+00 -1.3508908e-05 0.0000000e+00 
0.0000000e+00 -1.2615733e-05 0.0000000e+00 
0.0000000e+00 -1.1580555e-05 0.0000000e+00 
0.0000000e+00 -1.0275364e-05 0.0000000e+00 
0.0000000e+00 -9.3517210e-06 0.0000000e+00 
0.0000000e+00 -8.9143714e-06 0.0000000e+00 
0.0000000e+00 -7.9363599e-06 0.0000000e+00 
0.0000000e+00 -6.3735442e-06 0.0000000e+00 
0.0000000e+00 -4.9103269e-06 0.0000000e+00 
0.0000000e+00 -3.7554339e-06 0.0000000e+00 
0.0000000e+00 -3.1085931e-06 0.0000000e+00 
0.0000000e+00 -2.8115367e-06 0.0000000e+00 
0.0000000e+00 -2.4754002e-06 0.0000000e+00 
0.0000000e+00 -2.0209516e-06 0.0000000e+00 
0.0000000e+00 -1.7306783e-06 0.0000000e+00 
0.0000000e+00 -1.4321449e-06 0.0000000e+00 
0.0000000e+00 -1.0900757e-06 0.0000000e+00 
0.0000000e+00 -9.8734120e-07 0.0000000e+00 
0.0000000e+00 -9.7009990e-07 0.0000000e+00 
0.0000000e+00 -8.1229450e-07 0.0000000e+00 
0.0000000e+00 -6.2360942e-07 0.0000000e+00 
0.0000000e+00 -5.1800089e-07 0.0000000e+00 
0.0000000e+00 -4.1100725e-07 0.0000000e+00 
0.0000000e+00 -2.7247296e-07 0.0000000e+00 
0.0000000e+00 -1.7586977e-07 0.0000000e+00 
0.0000000e+00 -1.5219129e-07 0.0000000e+00 
0.0000000e+00 -1.4614189e-07 0.0000000e+00 
0.0000000e+00 -1.1951431e-07 0.0000000e+00 
0.0000000e+00 -7.9361186e-08 0.0000000e+00 
0.0000000e+00 -4.7930495e-08 0.0000000e+00 
0.0000000e+00 -2.4583626e-08 0.0000000e+00 
0.0000000e+00 -1.5214867e-09 0.0000000e+00 
0.0000000e+00 1.9600574e-08 0.0000000e+00 
0.0000000e+00 3.2546613e-08 0.0000000e+00 
0.0000000e+00 4.0093585e-08 0.0000000e+00 
0.0000000e+00 4.7698869e-08 0.0000000e+00 
0.0000000e+00 5.4749961e-08 0.0000000e+00 
0.0000000e+00 5.9367448e-08 0.0000000e+00 
0.0000000e+00 6.6699137e-08 0.0000000e+00 
0.0000000e+00 7.6994937e-08 0.0000000e+00 
0.0000000e+00 8.3088750e-08 0.0000000e+00 
0.0000000e+00 8.4012918e-08 0.0000000e+00 
3.7309694e-06 -1.2654481e-04 -4.1368738e-05 
-3.3642955e-05 -8.3530787e-05 -2.7856388e-05 
-1.8765168e-05 -2.6481630e-05 -9.2043620e-06 
0.0000000e+00 0.0000000e+00 0.0000000e+00 
0.0000000e+00 0.0000000e+00 0.0000000e+00 
0.0000000e+00 0.0000000e+00 0.0000000e+00 
0.0000000e+00 0.0000000e+00 0.0000000e+00 
0.0000000e+00 0.0000000e+00 0.0000000e+00 
0.0000000e+00 0.0000000e+00 0.0000000e+00 
0.0000000e+00 0.0000000e+00 0.0000000e+00 
0.0000000e+00 0.0000000e+00 0.0000000e+00 
0.0000000e+00 0.0000000e+00 0.0000000e+00 
0.0000000e+00 0.0000000e+00 0.0000000e+00 
0.0000000e+00 0.0000000e+00 0.0000000e+00 
0.0000000e+00 0.0000000e+00 0.0000000e+00 
0.0000000e+00 0.0000000e+00 0.0000000e+00 
0.0000000e+00 0.0000000e+00 0.0000000e+00 
0.0000000e+00 0.0000000e+00 0.0000000e+00 
0.0000000e+00 0.0000000e+00 0.0000000e+00 
0.0000000e+00 0.0000000e+00 0.0000000e+00 
0.0000000e+00 0.0000000e+00 0.0000000e+00 
0.0000000e+00 0.0000000e+00 0.0000000e+00 
0.0000000e+00 0.0000000e+00 0.0000000e+00 
0.0000000e+00 0.0000000e+00 0.0000000e+00 
0.0000000e+00 0.0000000e+00 0.0000000e+00 
0.0000000e+00 0.0000000e+00 0.0000000e+00 
0.0000000e+00 0.0000000e+00 0.0000000e+00 
0.0000000e+00 0.0000000e+00 0.0000000e+00 
0.0000000e+00 0.0000000e+00 0.0000000e+00 
0.0000000e+00 0.0000000e+00 0.0000000e+00 
0.0000000e+00 0.0000000e+00 0.0000000e+00 
0.0000000e+00 0.0000000e+00 0.0000000e+00 
0.0000000e+00 0.0000000e+00 0.0000000e+00 
0.0000000e+00 0.0000000e+00 0.0000000e+00 
0.0000000e+00 0.0000000e+00 0.0000000e+00 
0.0000000e+00 0.0000000e+00 0.0000000e+00 
0.0000000e+00 0.0000000e+00 0.0000000e+00 
0.0000000e+00 0.0000000e+00 0.0000000e+00 
0.0000000e+00 0.0000000e+00 0.0000000e+00 
0.0000000e+00 0.0000000e+00 0.0000000e+00 
0.0000000e+00 0.0000000e+00 0.0000000e+00 
0.0000000e+00 0.0000000e+00 0.0000000e+00 
0.0000000e+00 0.0000000e+00 0.0000000e+00 
0.0000000e+00 0.0000000e+00 0.0000000e+00 
0.0000000e+00 0.0000000e+00 0.0000000e+00 
0.0000000e+00 0.0000000e+00 0.0000000e+00 
0.0000000e+00 0.0000000e+00 0.0000000e+00 
0.0000000e+00 0.0000000e+00 0.0000000e+00 
0.0000000e+00 0.0000000e+00 0.0000000e+00 
0.0000000e+00 0.0000000e+00 0.0000000e+00 
0.0000000e+00 0.0000000e+00 0.0000000e+00 
0.0000000e+00 0.0000000e+00 0.0000000e+00 
0.0000000e+00 0.0000000e+00 0.0000000e+00 
0.0000000e+00 0.0000000e+00 0.0000000e+00 
0.0000000e+00 0.0000000e+00 0.0000000e+00 
0.0000000e+00 0.0000000e+00 0.0000000e+00 
0.0000000e+00 0.0000000e+00 0.0000000e+00 
0.0000000e+00 0.0000000e+00 0.0000000e+00 
0.0000000e+00 0.0000000e+00 0.0000000e+00 
0.0000000e+00 0.0000000e+00 0.0000000e+00 
0.0000000e+00 0.0000000e+00 0.0000000e+00 
0.0000000e+00 0.0000000e+00 0.0000000e+00 
0.0000000e+00 0.0000000e+00 0.0000000e+00 
0.0000000e+00 0.0000000e+00 0.0000000e+00 
0.0000000e+00 0.0000000e+00 0.0000000e+00 
0.0000000e+00 0.0000000e+00 0.0000000e+00 
0.0000000e+00 0.0000000e+00 0.0000000e+00 
0.0000000e+00 0.0000000e+00 0.0000000e+00 
0.0000000e+00 0.0000000e+00 0.0000000e+00 
0.0000000e+00 0.0000000e+00 0.0000000e+00 
0.0000000e+00 0.0000000e+00 0.0000000e+00 
0.0000000e+00 0.0000000e+00 0.0000000e+00 
0.0000000e+00 0.0000000e+00 0.0000000e+00 
0.0000000e+00 0.0000000e+00 0.0000000e+00 
0.0000000e+00 0.0000000e+00 0.0000000e+00 
0.0000000e+00 0.0000000e+00 0.0000000e+00 
0.0000000e+00 0.0000000e+00 0.0000000e+00 
0.0000000e+00 0.0000000e+00 0.0000000e+00 
0.0000000e+00 0.0000000e+00 0.0000000e+00 
0.0000000e+00 0.0000000e+00 0.0000000e+00 
0.0000000e+00 0.0000000e+00 0.0000000e+00 
0.0000000e+00 0.0000000e+00 0.0000000e+00 
0.0000000e+00 0.0000000e+00 0.0000000e+00 
0.0000000e+00 0.0000000e+00 0.0000000e+00 
0.0000000e+00 0.0000000e+00 0.0000000e+00 
0.0000000e+00 0.0000000e+00 0.0000000e+00 
0.0000000e+00 0.0000000e+00 0.0000000e+00 
0.0000000e+00 0.0000000e+00 0.0000000e+00 
0.0000000e+00 0.0000000e+00 0.0000000e+00 
0.0000000e+00 0.0000000e+00 0.0000000e+00 
0.0000000e+00 0.0000000e+00 0.0000000e+00 
0.0000000e+00 0.0000000e+00 0.0000000e+00 
0.0000000e+00 0.0000000e+00 0.0000000e+00 
0.0000000e+00 0.0000000e+00 0.0000000e+00 
0.0000000e+00 0.0000000e+00 0.0000000e+00 
0.0000000e+00 0.0000000e+00 0.0000000e+00 
0.0000000e+00 0.0000000e+00 0.0000000e+00 
0.0000000e+00 0.0000000e+00 0.0000000e+00 
0.0000000e+00 0.0000000e+00 0.0000000e+00 
0.0000000e+00 0.0000000e+00 0.0000000e+00 
0.0000000e+00 0.0000000e+00 0.0000000e+00 
0.0000000e+00 0.0000000e+00 0.0000000e+00 
0.0000000e+00 0.0000000e+00 0.0000000e+00 
0.0000000e+00 0.0000000e+00 0.0000000e+00 
0.0000000e+00 0.0000000e+00 0.0000000e+00 
0.0000000e+00 0.0000000e+00 0.0000000e+00 
0.0000000e+00 0.0000000e+00 0.0000000e+00 
0.0000000e+00 0.0000000e+00 0.0000000e+00 
0.0000000e+00 0.0000000e+00 0.0000000e+00 
0.0000000e+00 0.0000000e+00 0.0000000e+00 
0.0000000e+00 0.0000000e+00 0.0000000e+00 
0.0000000e+00 0.0000000e+00 0.0000000e+00 
0.0000000e+00 0.0000000e+00 0.0000000e+00 
0.0000000e+00 0.0000000e+00 0.0000000e+00 
0.0000000e+00 0.0000000e+00 0.0000000e+00 
0.0000000e+00 0.0000000e+00 0.0000000e+00 
0.0000000e+00 0.0000000e+00 0.0000000e+00 
0.0000000e+00 0.0000000e+00 0.0000000e+00 
0.0000000e+00 0.0000000e+00 0.0000000e+00 
3.6303027e-05 -2.8533219e-05 3.1375894e-06 
3.5178306e-05 -2.7687203e-05 6.1051924e-06 
3.2955784e-05 -2.4993193e-05 8.3153873e-06 
3.0187413e-05 -2.2404593e-05 9.8701203e-06 
2.7204098e-05 -1.9916319e-05 1.0761455e-05 
2.4175371e-05 -1.6744414e-05 1.0554104e-05 
2.1670478e-05 -1.5013442e-05 1.0147458e-05 
1.9014724e-05 -1.2414303e-05 8.6173895e-06 
1.7026463e-05 -1.0961381e-05 6.9782582e-06 
1.5604444e-05 -1.0114713e-05 4.9167415e-06 
1.4626061e-05 -9.2669961e-06 2.7367523e-06 
1.4136737e-05 -9.1396723e-06 7.2566166e-07 
1.4248055e-05 -8.9735413e-06 -1.1361542e-06 
1.4851074e-05 -9.6685999e-06 -2.6845375e-06 
1.5792737e-05 -1.0659528e-05 -3.8677126e-06 
1.6872478e-05 -1.1661955e-05 -4.5699412e-06 
1.8334522e-05 -1.2807553e-05 -4.5631696e-06 
1.9297482e-05 -1.4008324e-05 -3.8858802e-06 
2.0422498e-05 -1.4557753e-05 -2.7320366e-06 
2.0859634e-05 -1.5548680e-05 -1.2091674e-06 
2.1120793e-05 -1.5707092e-05 6.7737739e-07 
2.0914929e-05 -1.5544116e-05 2.4977742e-06 
2.0102229e-05 -1.4913395e-05 4.3348928e-06 
1.8785584e-05 -1.4092589e-05 6.0131156e-06 
1.7181004e-05 -1.2639581e-05 7.4027489e-06 
1.5391155e-05 -1.1202088e-05 8.1250364e-06 
1.3392614e-05 -9.5306550e-06 8.7867984e-06 
1.1457813e-05 -8.2481702e-06 8.7396174e-06 
9.7354186e-06 -6.8377344e-06 8.4476951e-06 
7.9718666e-06 -5.6139515e-06 7.9228130e-06 
6.4215633e-06 -4.4354861e-06 7.1945392e-06 
5.1654811e-06 -3.4966934e-06 6.3899297e-06 
4.0779905e-06 -2.6451808e-06 5.5515911e-06 
3.1356553e-06 -1.8995719e-06 4.7829412e-06 
2.4551682e-06 -1.4202695e-06 4.0524960e-06 
1.9020124e-06 -9.7754855e-07 3.3956853e-06 
1.4467493e-06 -6.7802267e-07 2.8091169e-06 
1.0838320e-06 -4.6666176e-07 2.3053306e-06 
8.0228648e-07 -2.5356871e-07 1.8688810e-06 
5.9555720e-07 -1.4657329e-07 1.5156494e-06 
4.3550847e-07 -5.6836626e-08 1.2152979e-06 
3.0383637e-07 1.1178725e-08 9.6003703e-07 
2.1055803e-07 4.5430891e-08 7.6448197e-07 
1.3607982e-07 7.1481274e-08 6.0526895e-07 
9.2233421e-08 8.6664926e-08 4.9028267e-07 
4.8304450e-08 1.0002114e-07 4.0166827e-07 
1.5369288e-08 1.0260424e-07 3.2872256e-07 
-6.5755241e-09 1.0414676e-07 2.7638498e-07 
-2.5649703e-08 9.1575693e-08 2.3738100e-07 
2.1398362e-05 -1.8997653e-05 -2.7293215e-06 
-1.3924121e-08 -1.1520799e-08 9.8969039e-08 
0.0000000e+00 -7.8409270e-05 0.0000000e+00 
0.0000000e+00 -8.0086327e-05 0.0000000e+00 
0.0000000e+00 -6.2265208e-05 0.0000000e+00 
0.0000000e+00 -6.0020968e-05 0.0000000e+00 
0.0000000e+00 -4.7332091e-05 0.0000000e+00 
0.0000000e+00 -3.9624447e-05 0.0000000e+00 
0.0000000e+00 -2.9124370e-05 0.0000000e+00 
0.0000000e+00 -2.5650888e-05 0.0000000e+00 
0.0000000e+00 -2.6475276e-05 0.0000000e+00 
0.0000000e+00 -1.9035282e-05 0.0000000e+00 
0.0000000e+00 -1.7821669e-05 0.0000000e+00 
0.0000000e+00 -1.6637476e-05 0.0000000e+00 
0.0000000e+00 -2.2249978e-05 0.0000000e+00 
0.0000000e+00 -1.8409901e-05 0.0000000e+00 
0.0000000e+00 -2.0602527e-05 0.0000000e+00 
0.0000000e+00 -2.9201461e-05 0.0000000e+00 
0.0000000e+00 -3.0629479e-05 0.0000000e+00 
0.0000000e+00 -4.1597836e-05 0.0000000e+00 
0.0000000e+00 -3.8972936e-05 0.0000000e+00 
0.0000000e+00 -3.5955640e-05 0.0000000e+00 
0.0000000e+00 -4.8197351e-05 0.0000000e+00 
0.0000000e+00 -4.3859280e-05 0.0000000e+00 
0.0000000e+00 -4.0344323e-05 0.0000000e+00 
0.0000000e+00 -3.8843129e-05 0.0000000e+00 
0.0000000e+00 -3.3233082e-05 0.0000000e+00 
0.0000000e+00 -2.4876188e-05 0.0000000e+00 
0.0000000e+00 -1.7239909e-05 0.0000000e+00 
0.0000000e+00 -1.9979600e-05 0.0000000e+00 
0.0000000e+00 -1.2966537e-05 0.0000000e+00 
0.0000000e+00 -9.5994710e-06 0.0000000e+00 
0.0000000e+00 -7.7055611e-06 0.0000000e+00 
0.0000000e+00 -6.7124856e-06 0.0000000e+00 
0.0000000e+00 -4.2258171e-06 0.0000000e+00 
0.0000000e+00 -3.1808513e-06 0.0000000e+00 
0.0000000e+00 -2.5502884e-06 0.0000000e+00 
0.0000000e+00 -1.8793849e-06 0.0000000e+00 
0.0000000e+00 -1.0881854e-06 0.0000000e+00 
0.0000000e+00 -8.6653091e-07 0.0000000e+00 
0.0000000e+00 -5.5032541e-07 0.0000000e+00 
0.0000000e+00 -5.0870017e-07 0.0000000e+00 
0.0000000e+00 -2.7452634e-07 0.0000000e+00 
0.0000000e+00 -2.1209895e-07 0.0000000e+00 
0.0000000e+00 -1.4556477e-07 0.0000000e+00 
0.0000000e+00 -7.1707383e-08 0.0000000e+00 
0.0000000e+00 -4.6503448e-08 0.0000000e+00 
0.0000000e+00 -7.9761913e-09 0.0000000e+00 
0.0000000e+00 -1.9358408e-09 0.0000000e+00 
0.0000000e+00 1.1509460e-08 0.0000000e+00 
0.0000000e+00 9.5422656e-09 0.0000000e+00 
3.7258018e-05 -2.1866716e-05 -1.3613120e-06 
3.7523503e-05 -2.4036279e-05 -3.6600486e-06 
3.8142811e-05 -2.9690014e-05 -6.2570266e-06 
3.8340520e-05 -3.8245176e-05 -8.8244133e-06 