# vtk DataFile Version 4.0
vtk output
ASCII
DATASET UNSTRUCTURED_GRID
POINTS 7705 float
0.0000000e+00 3.7700000e+00 0.0000000e+00 
0.0000000e+00 3.7700000e+00 5.0000000e+01 
1.0000000e+01 3.7700000e+00 0.0000000e+00 
1.0000000e+01 3.7700000e+00 5.0000000e+01 
1.0000000e+01 5.7700000e+00 0.0000000e+00 
1.0000000e+01 5.7700000e+00 5.0000000e+01 
0.0000000e+00 5.7700000e+00 0.0000000e+00 
0.0000000e+00 5.7700000e+00 5.0000000e+01 
1.0000000e+01 7.2700000e+00 0.0000000e+00 
1.0000000e+01 7.2700000e+00 5.0000000e+01 
0.0000000e+00 7.2700000e+00 0.0000000e+00 
0.0000000e+00 7.2700000e+00 5.0000000e+01 
1.0000000e+01 9.7700005e+00 0.0000000e+00 
1.0000000e+01 9.7700005e+00 5.0000000e+01 
0.0000000e+00 9.7700005e+00 0.0000000e+00 
0.0000000e+00 9.7700005e+00 5.0000000e+01 
1.0000000e+01 1.1770000e+01 0.0000000e+00 
1.0000000e+01 1.1770000e+01 5.0000000e+01 
0.0000000e+00 1.1770000e+01 0.0000000e+00 
0.0000000e+00 1.1770000e+01 5.0000000e+01 
1.0000000e+01 1.4770000e+01 0.0000000e+00 
1.0000000e+01 1.4770000e+01 5.0000000e+01 
0.0000000e+00 1.4770000e+01 0.0000000e+00 
0.0000000e+00 1.4770000e+01 5.0000000e+01 
1.0000000e+01 1.5070000e+01 0.0000000e+00 
1.0000000e+01 1.5070000e+01 5.0000000e+01 
7.5000000e-01 1.5070000e+01 0.0000000e+00 
7.5000000e-01 1.5070000e+01 5.0000000e+01 
0.0000000e+00 1.5070000e+01 0.0000000e+00 
0.0000000e+00 1.5070000e+01 5.0000000e+01 
7.5000000e-01 1.5070000e+01 5.0000000e-01 
7.5000000e-01 1.5070000e+01 1.0000000e+00 
7.5000000e-01 1.5070000e+01 1.5000000e+00 
7.5000000e-01 1.5070000e+01 2.0000000e+00 
7.5000000e-01 1.5070000e+01 2.5000000e+00 
7.5000000e-01 1.5070000e+01 3.0000000e+00 
7.5000000e-01 1.5070000e+01 3.5000000e+00 
7.5000000e-01 1.5070000e+01 4.0000000e+00 
7.5000000e-01 1.5070000e+01 4.5000000e+00 
7.5000000e-01 1.5070000e+01 5.0000000e+00 
7.5000000e-01 1.5070000e+01 5.5000000e+00 
7.5000000e-01 1.5070000e+01 6.0000000e+00 
7.5000000e-01 1.5070000e+01 6.5000000e+00 
7.5000000e-01 1.5070000e+01 7.0000000e+00 
7.5000000e-01 1.5070000e+01 7.5000000e+00 
7.5000000e-01 1.5070000e+01 8.0000000e+00 
7.5000000e-01 1.5070000e+01 8.5000000e+00 
7.5000000e-01 1.5070000e+01 9.0000000e+00 
7.5000000e-01 1.5070000e+01 9.5000000e+00 
7.5000000e-01 1.5070000e+01 1.0000000e+01 
7.5000000e-01 1.5070000e+01 1.0500000e+01 
7.5000000e-01 1.5070000e+01 1.1000000e+01 
7.5000000e-01 1.5070000e+01 1.1500000e+01 
7.5000000e-01 1.5070000e+01 1.2000000e+01 
7.5000000e-01 1.5070000e+01 1.2500000e+01 
7.5000000e-01 1.5070000e+01 1.3000000e+01 
7.5000000e-01 1.5070000e+01 1.3500000e+01 
7.5000000e-01 1.5070000e+01 1.4000000e+01 
7.5000000e-01 1.5070000e+01 1.4500000e+01 
7.5000000e-01 1.5070000e+01 1.5000000e+01 
7.5000000e-01 1.5070000e+01 1.5500000e+01 
7.5000000e-01 1.5070000e+01 1.6000000e+01 
7.5000000e-01 1.5070000e+01 1.6500000e+01 
7.5000000e-01 1.5070000e+01 1.7000000e+01 
7.5000000e-01 1.5070000e+01 1.7500000e+01 
7.5000000e-01 1.5070000e+01 1.8000000e+01 
7.5000000e-01 1.5070000e+01 1.8500000e+01 
7.5000000e-01 1.5070000e+01 1.9000000e+01 
7.5000000e-01 1.5070000e+01 1.9500000e+01 
7.5000000e-01 1.5070000e+01 2.0000000e+01 
7.5000000e-01 1.5070000e+01 2.0500000e+01 
7.5000000e-01 1.5070000e+01 2.1000000e+01 
7.5000000e-01 1.5070000e+01 2.1500000e+01 
7.5000000e-01 1.5070000e+01 2.2000000e+01 
7.5000000e-01 1.5070000e+01 2.2500000e+01 
7.5000000e-01 1.5070000e+01 2.3000000e+01 
7.5000000e-01 1.5070000e+01 2.3500000e+01 
7.5000000e-01 1.5070000e+01 2.4000000e+01 
7.5000000e-01 1.5070000e+01 2.4500000e+01 
7.5000000e-01 1.5070000e+01 2.5000000e+01 
7.5000000e-01 1.5070000e+01 2.5500000e+01 
7.5000000e-01 1.5070000e+01 2.6000000e+01 
7.5000000e-01 1.5070000e+01 2.6500000e+01 
7.5000000e-01 1.5070000e+01 2.7000000e+01 
7.5000000e-01 1.5070000e+01 2.7500000e+01 
7.5000000e-01 1.5070000e+01 2.8000000e+01 
7.5000000e-01 1.5070000e+01 2.8500000e+01 
7.5000000e-01 1.5070000e+01 2.9000000e+01 
7.5000000e-01 1.5070000e+01 2.9500000e+01 
7.5000000e-01 1.5070000e+01 3.0000000e+01 
7.5000000e-01 1.5070000e+01 3.0500000e+01 
7.5000000e-01 1.5070000e+01 3.1000000e+01 
7.5000000e-01 1.5070000e+01 3.1500000e+01 
7.5000000e-01 1.5070000e+01 3.2000000e+01 
7.5000000e-01 1.5070000e+01 3.2500000e+01 
7.5000000e-01 1.5070000e+01 3.3000000e+01 
7.5000000e-01 1.5070000e+01 3.3500000e+01 
7.5000000e-01 1.5070000e+01 3.4000000e+01 
7.5000000e-01 1.5070000e+01 3.4500000e+01 
7.5000000e-01 1.5070000e+01 3.5000000e+01 
7.5000000e-01 1.5070000e+01 3.5500000e+01 
7.5000000e-01 1.5070000e+01 3.6000000e+01 
7.5000000e-01 1.5070000e+01 3.6500000e+01 
7.5000000e-01 1.5070000e+01 3.7000000e+01 
7.5000000e-01 1.5070000e+01 3.7500000e+01 
7.5000000e-01 1.5070000e+01 3.8000000e+01 
7.5000000e-01 1.5070000e+01 3.8500000e+01 
7.5000000e-01 1.5070000e+01 3.9000000e+01 
7.5000000e-01 1.5070000e+01 3.9500000e+01 
7.5000000e-01 1.5070000e+01 4.0000000e+01 
7.5000000e-01 1.5070000e+01 4.0500000e+01 
7.5000000e-01 1.5070000e+01 4.1000000e+01 
7.5000000e-01 1.5070000e+01 4.1500000e+01 
7.5000000e-01 1.5070000e+01 4.2000000e+01 
7.5000000e-01 1.5070000e+01 4.2500000e+01 
7.5000000e-01 1.5070000e+01 4.3000000e+01 
7.5000000e-01 1.5070000e+01 4.3500000e+01 
7.5000000e-01 1.5070000e+01 4.4000000e+01 
7.5000000e-01 1.5070000e+01 4.4500000e+01 
7.5000000e-01 1.5070000e+01 4.5000000e+01 
7.5000000e-01 1.5070000e+01 4.5500000e+01 
7.5000000e-01 1.5070000e+01 4.6000000e+01 
7.5000000e-01 1.5070000e+01 4.6500000e+01 
7.5000000e-01 1.5070000e+01 4.7000000e+01 
7.5000000e-01 1.5070000e+01 4.7500000e+01 
7.5000000e-01 1.5070000e+01 4.8000000e+01 
7.5000000e-01 1.5070000e+01 4.8500000e+01 
7.5000000e-01 1.5070000e+01 4.9000000e+01 
7.5000000e-01 1.5070000e+01 4.9500000e+01 
7.5000000e-01 1.5095000e+01 0.0000000e+00 
7.5000000e-01 1.5095000e+01 5.0000000e-01 
7.5000000e-01 1.5095000e+01 1.0000000e+00 
7.5000000e-01 1.5095000e+01 1.5000000e+00 
7.5000000e-01 1.5095000e+01 2.0000000e+00 
7.5000000e-01 1.5095000e+01 2.5000000e+00 
7.5000000e-01 1.5095000e+01 3.0000000e+00 
7.5000000e-01 1.5095000e+01 3.5000000e+00 
7.5000000e-01 1.5095000e+01 4.0000000e+00 
7.5000000e-01 1.5095000e+01 4.5000000e+00 
7.5000000e-01 1.5095000e+01 5.0000000e+00 
7.5000000e-01 1.5095000e+01 5.5000000e+00 
7.5000000e-01 1.5095000e+01 6.0000000e+00 
7.5000000e-01 1.5095000e+01 6.5000000e+00 
7.5000000e-01 1.5095000e+01 7.0000000e+00 
7.5000000e-01 1.5095000e+01 7.5000000e+00 
7.5000000e-01 1.5095000e+01 8.0000000e+00 
7.5000000e-01 1.5095000e+01 8.5000000e+00 
7.5000000e-01 1.5095000e+01 9.0000000e+00 
7.5000000e-01 1.5095000e+01 9.5000000e+00 
7.5000000e-01 1.5095000e+01 1.0000000e+01 
7.5000000e-01 1.5095000e+01 1.0500000e+01 
7.5000000e-01 1.5095000e+01 1.1000000e+01 
7.5000000e-01 1.5095000e+01 1.1500000e+01 
7.5000000e-01 1.5095000e+01 1.2000000e+01 
7.5000000e-01 1.5095000e+01 1.2500000e+01 
7.5000000e-01 1.5095000e+01 1.3000000e+01 
7.5000000e-01 1.5095000e+01 1.3500000e+01 
7.5000000e-01 1.5095000e+01 1.4000000e+01 
7.5000000e-01 1.5095000e+01 1.4500000e+01 
7.5000000e-01 1.5095000e+01 1.5000000e+01 
7.5000000e-01 1.5095000e+01 1.5500000e+01 
7.5000000e-01 1.5095000e+01 1.6000000e+01 
7.5000000e-01 1.5095000e+01 1.6500000e+01 
7.5000000e-01 1.5095000e+01 1.7000000e+01 
7.5000000e-01 1.5095000e+01 1.7500000e+01 
7.5000000e-01 1.5095000e+01 1.8000000e+01 
7.5000000e-01 1.5095000e+01 1.8500000e+01 
7.5000000e-01 1.5095000e+01 1.9000000e+01 
7.5000000e-01 1.5095000e+01 1.9500000e+01 
7.5000000e-01 1.5095000e+01 2.0000000e+01 
7.5000000e-01 1.5095000e+01 2.0500000e+01 
7.5000000e-01 1.5095000e+01 2.1000000e+01 
7.5000000e-01 1.5095000e+01 2.1500000e+01 
7.5000000e-01 1.5095000e+01 2.2000000e+01 
7.5000000e-01 1.5095000e+01 2.2500000e+01 
7.5000000e-01 1.5095000e+01 2.3000000e+01 
7.5000000e-01 1.5095000e+01 2.3500000e+01 
7.5000000e-01 1.5095000e+01 2.4000000e+01 
7.5000000e-01 1.5095000e+01 2.4500000e+01 
7.5000000e-01 1.5095000e+01 2.5000000e+01 
7.5000000e-01 1.5095000e+01 2.5500000e+01 
7.5000000e-01 1.5095000e+01 2.6000000e+01 
7.5000000e-01 1.5095000e+01 2.6500000e+01 
7.5000000e-01 1.5095000e+01 2.7000000e+01 
7.5000000e-01 1.5095000e+01 2.7500000e+01 
7.5000000e-01 1.5095000e+01 2.8000000e+01 
7.5000000e-01 1.5095000e+01 2.8500000e+01 
7.5000000e-01 1.5095000e+01 2.9000000e+01 
7.5000000e-01 1.5095000e+01 2.9500000e+01 
7.5000000e-01 1.5095000e+01 3.0000000e+01 
7.5000000e-01 1.5095000e+01 3.0500000e+01 
7.5000000e-01 1.5095000e+01 3.1000000e+01 
7.5000000e-01 1.5095000e+01 3.1500000e+01 
7.5000000e-01 1.5095000e+01 3.2000000e+01 
7.5000000e-01 1.5095000e+01 3.2500000e+01 
7.5000000e-01 1.5095000e+01 3.3000000e+01 
7.5000000e-01 1.5095000e+01 3.3500000e+01 
7.5000000e-01 1.5095000e+01 3.4000000e+01 
7.5000000e-01 1.5095000e+01 3.4500000e+01 
7.5000000e-01 1.5095000e+01 3.5000000e+01 
7.5000000e-01 1.5095000e+01 3.5500000e+01 
7.5000000e-01 1.5095000e+01 3.6000000e+01 
7.5000000e-01 1.5095000e+01 3.6500000e+01 
7.5000000e-01 1.5095000e+01 3.7000000e+01 
7.5000000e-01 1.5095000e+01 3.7500000e+01 
7.5000000e-01 1.5095000e+01 3.8000000e+01 
7.5000000e-01 1.5095000e+01 3.8500000e+01 
7.5000000e-01 1.5095000e+01 3.9000000e+01 
7.5000000e-01 1.5095000e+01 3.9500000e+01 
7.5000000e-01 1.5095000e+01 4.0000000e+01 
7.5000000e-01 1.5095000e+01 4.0500000e+01 
7.5000000e-01 1.5095000e+01 4.1000000e+01 
7.5000000e-01 1.5095000e+01 4.1500000e+01 
7.5000000e-01 1.5095000e+01 4.2000000e+01 
7.5000000e-01 1.5095000e+01 4.2500000e+01 
7.5000000e-01 1.5095000e+01 4.3000000e+01 
7.5000000e-01 1.5095000e+01 4.3500000e+01 
7.5000000e-01 1.5095000e+01 4.4000000e+01 
7.5000000e-01 1.5095000e+01 4.4500000e+01 
7.5000000e-01 1.5095000e+01 4.5000000e+01 
7.5000000e-01 1.5095000e+01 4.5500000e+01 
7.5000000e-01 1.5095000e+01 4.6000000e+01 
7.5000000e-01 1.5095000e+01 4.6500000e+01 
7.5000000e-01 1.5095000e+01 4.7000000e+01 
7.5000000e-01 1.5095000e+01 4.7500000e+01 
7.5000000e-01 1.5095000e+01 4.8000000e+01 
7.5000000e-01 1.5095000e+01 4.8500000e+01 
7.5000000e-01 1.5095000e+01 4.9000000e+01 
7.5000000e-01 1.5095000e+01 4.9500000e+01 
7.5000000e-01 1.5095000e+01 5.0000000e+01 
[...]
POINT_DATA 7705
FIELD FieldData 3
DISPLACEMENT 3 7705  float
0.0000000e+00 0.0000000e+00 0.0000000e+00 
0.0000000e+00 0.0000000e+00 0.0000000e+00 
0.0000000e+00 0.0000000e+00 0.0000000e+00 
0.0000000e+00 0.0000000e+00 0.0000000e+00 
3.6760866e-05 -2.6559983e-05 3.5892955e-07 
-3.5223934e-08 3.7967105e-08 2.0473587e-07 
0.0000000e+00 -6.5650507e-05 0.0000000e+00 
0.0000000e+00 2.6418692e-09 0.0000000e+00 
5.0193416e-05 -3.3555603e-05 5.6420049e-06 
-5.4158793e-08 1.6869481e-07 3.3110456e-07 
0.0000000e+00 -1.3630770e-04 0.0000000e+00 
0.0000000e+00 2.5107887e-08 0.0000000e+00 
4.2792683e-05 -3.4721128e-05 5.1621846e-06 
-8.8733920e-08 3.4329665e-07 3.1837465e-07 
0.0000000e+00 -2.2152516e-04 0.0000000e+00 
0.0000000e+00 7.8423035e-08 0.0000000e+00 
2.6951740e-05 -2.9658097e-05 -6.9758336e-08 
-1.1415517e-07 4.5267640e-07 1.5765418e-07 
0.0000000e+00 -4.6762318e-04 0.0000000e+00 
0.0000000e+00 1.1921966e-07 0.0000000e+00 
-2.7762680e-05 -2.3104330e-05 -1.3315944e-05 
-1.9095253e-07 4.5421299e-07 4.9707907e-08 
0.0000000e+00 -1.0631193e-03 0.0000000e+00 
0.0000000e+00 1.2326137e-07 0.0000000e+00 
-3.3616339e-05 -2.3098202e-05 -1.4233825e-05 
-1.9758556e-07 4.5311705e-07 5.0636782e-08 
-2.0633527e-04 -1.6763681e-03 -2.6904239e-04 
-3.4724835e-08 1.2874547e-07 1.1037574e-08 
0.0000000e+00 -1.0749882e-03 0.0000000e+00 
0.0000000e+00 1.2505096e-07 0.0000000e+00 
-1.7097889e-04 -1.5805702e-03 -1.6137458e-04 
-2.3752765e-04 -1.2515759e-03 -1.4353845e-04 
-2.5242663e-04 -1.0127986e-03 -1.3503159e-04 
-2.1080792e-04 -9.8900346e-04 -9.0928836e-05 
-2.0062065e-04 -1.0918195e-03 -4.4611614e-05 
-1.6889098e-04 -1.0721566e-03 -9.5063195e-05 
-1.0567800e-04 -8.0091035e-04 -1.0930855e-04 
-9.3808427e-05 -5.3135894e-04 -7.7948549e-05 
-7.5616445e-05 -3.4939640e-04 -9.5724776e-05 
-4.5251607e-05 -2.3745907e-04 -7.2885188e-05 
-5.1198913e-05 -1.7161071e-04 -4.5529643e-05 
-3.3323504e-05 -1.4222720e-04 -3.6866291e-05 
-3.8415237e-05 -1.2887841e-04 -3.0678762e-05 
-2.6581993e-05 -1.1294927e-04 -2.4363973e-05 
-2.0147438e-05 -9.4022049e-05 -1.6536531e-05 
-1.8411645e-05 -8.0224454e-05 -1.6585180e-05 
-2.4396215e-05 -7.2472860e-05 -1.4034439e-05 
-1.5101583e-05 -6.8931462e-05 -1.1710613e-05 
-1.6452843e-05 -6.4890322e-05 -1.0772102e-05 
-1.0055643e-05 -5.9501919e-05 -8.7498447e-06 
-1.4574953e-05 -5.4490567e-05 -7.1725931e-06 
-1.1400263e-05 -5.1707357e-05 -5.0264066e-06 
-1.3287316e-05 -5.2167576e-05 -3.5021815e-06 
-8.8055358e-06 -5.2499912e-05 -6.8737660e-07 
-1.3743558e-05 -5.1863546e-05 1.5285970e-06 
-1.2765926e-05 -5.1702838e-05 1.5601034e-06 
-1.9452442e-05 -5.4027543e-05 2.3817668e-06 
-1.5262400e-05 -6.1466249e-05 3.9421980e-06 
-1.2519376e-05 -7.0377391e-05 6.4214614e-06 
-1.6032873e-05 -7.5941913e-05 1.0330693e-05 
-2.5818328e-05 -7.9101832e-05 8.2675642e-06 
-1.8152410e-05 -8.7329856e-05 1.4858666e-05 
-3.0424580e-05 -1.0523073e-04 1.7873383e-05 
-3.7741673e-05 -1.3670897e-04 2.7683558e-05 
-6.7163448e-05 -1.8154083e-04 2.9056566e-05 
-6.9367168e-05 -2.4872442e-04 3.3404984e-05 
-1.0568648e-04 -3.4380591e-04 4.9553986e-05 
-1.1209334e-04 -5.0488539e-04 5.1004423e-05 
-1.4040020e-04 -7.4255548e-04 8.4838910e-05 
-1.3889403e-04 -9.6530397e-04 3.6118054e-05 
-1.1264036e-04 -1.0044684e-03 1.5788927e-06 
-1.3375431e-04 -8.2814129e-04 -5.0422409e-06 
-1.5767610e-04 -7.3620921e-04 -3.2655847e-05 
-1.2214262e-04 -8.2567125e-04 -1.9805459e-05 
-1.1454298e-04 -1.0022678e-03 6.3838274e-07 
-1.0094927e-04 -9.3561452e-04 -4.2255360e-05 
-8.3351311e-05 -6.3837186e-04 -8.7635701e-05 
-6.6890345e-05 -3.7426921e-04 -5.9512593e-05 
-4.9164777e-05 -2.2813155e-04 -4.8390724e-05 
-3.0805983e-05 -1.5743620e-04 -4.1780288e-05 
-4.3367058e-05 -1.1786327e-04 -2.6159840e-05 
-2.4973315e-05 -9.7486132e-05 -2.5313258e-05 
-2.7070137e-05 -8.3284351e-05 -1.3373794e-05 
-1.7704133e-05 -7.1742674e-05 -1.3813235e-05 
-2.1905524e-05 -6.3264619e-05 -1.1699073e-05 
-1.4496361e-05 -5.8165610e-05 -1.1137437e-05 
-1.4893544e-05 -5.1426949e-05 -1.2630407e-05 
-7.8301173e-06 -4.2510710e-05 -1.1660383e-05 
-7.4011891e-06 -3.4034616e-05 -8.8037104e-06 
-5.0324734e-06 -2.8096934e-05 -7.3828023e-06 
-6.0550656e-06 -2.4598619e-05 -6.1307574e-06 
-3.1412619e-06 -2.2058335e-05 -6.9940834e-06 
-3.5649348e-06 -1.9303823e-05 -5.3438152e-06 
-2.1506498e-06 -1.6003178e-05 -4.4245348e-06 
-4.1518228e-06 -1.3387824e-05 -3.0427300e-06 
-3.0537290e-06 -1.2055509e-05 -2.9496387e-06 
-2.1238825e-06 -1.1049341e-05 -3.2401442e-06 
-1.9540360e-06 -9.6759877e-06 -3.3167419e-06 
-2.3420757e-06 -8.0388490e-06 -2.6785181e-06 
-1.5314383e-06 -6.6139664e-06 -2.3450748e-06 
-1.2011891e-06 -5.6166364e-06 -2.0042905e-06 
-9.5007414e-07 -4.9280916e-06 -1.7560299e-06 
-1.1102012e-06 -4.2942052e-06 -1.3142416e-06 
-7.2816363e-07 -3.5725791e-06 -1.5741813e-06 
-4.2831746e-07 -2.9564060e-06 -1.2948983e-06 
-4.0492495e-07 -2.4212143e-06 -9.1888631e-07 
-3.3240514e-07 -2.0085113e-06 -7.3300470e-07 
-3.7866332e-07 -1.7781642e-06 -7.7127129e-07 
-3.6677858e-07 -1.5729745e-06 -7.0339297e-07 
-1.8740647e-07 -1.2627137e-06 -5.9768399e-07 
-2.1627065e-07 -9.2395607e-07 -4.8753759e-07 
-2.0603967e-07 -7.0436215e-07 -4.3775853e-07 
-1.7242444e-07 -5.9853130e-07 -3.6120917e-07 
-1.4009848e-07 -4.8185643e-07 -2.9889119e-07 
-1.2869698e-07 -3.3530560e-07 -2.4675001e-07 
-8.9377117e-08 -2.2191890e-07 -2.3153738e-07 
-7.9685563e-08 -1.5262036e-07 -1.7815680e-07 
-6.4562393e-08 -9.9243266e-08 -1.4270174e-07 
-6.3641238e-08 -4.6233421e-08 -1.0949532e-07 
-5.0480118e-08 -3.3683827e-09 -1.0126241e-07 
-3.6548119e-08 2.8002063e-08 -8.0436557e-08 
-3.0919736e-08 5.2815508e-08 -6.0349123e-08 
-2.6316163e-08 7.4127769e-08 -4.5560942e-08 
-2.8054490e-08 9.2910469e-08 -4.3019774e-08 
-2.1834561e-08 1.1142297e-07 -3.5130547e-08 
-1.5968260e-08 1.2692233e-07 -2.9709206e-08 
-1.0524457e-08 1.3703900e-07 -2.0026739e-08 
-1.8650965e-08 1.3913537e-07 -1.3496905e-08 
-2.1208601e-08 1.3322141e-07 8.9757396e-10 
0.0000000e+00 -1.7207152e-03 0.0000000e+00 
0.0000000e+00 -1.6291244e-03 0.0000000e+00 
0.0000000e+00 -1.2792895e-03 0.0000000e+00 
0.0000000e+00 -1.0224122e-03 0.0000000e+00 
0.0000000e+00 -1.0025628e-03 0.0000000e+00 
0.0000000e+00 -1.1229820e-03 0.0000000e+00 
0.0000000e+00 -1.1207069e-03 0.0000000e+00 
0.0000000e+00 -8.2450168e-04 0.0000000e+00 
0.0000000e+00 -5.3655676e-04 0.0000000e+00 
0.0000000e+00 -3.4980217e-04 0.0000000e+00 
0.0000000e+00 -2.3661648e-04 0.0000000e+00 
0.0000000e+00 -1.7193652e-04 0.0000000e+00 
0.0000000e+00 -1.4216264e-04 0.0000000e+00 
0.0000000e+00 -1.2814744e-04 0.0000000e+00 
0.0000000e+00 -1.1285978e-04 0.0000000e+00 
0.0000000e+00 -9.4466930e-05 0.0000000e+00 
0.0000000e+00 -8.0110214e-05 0.0000000e+00 
0.0000000e+00 -7.2491515e-05 0.0000000e+00 
0.0000000e+00 -6.9018744e-05 0.0000000e+00 
0.0000000e+00 -6.4914260e-05 0.0000000e+00 
0.0000000e+00 -5.9520407e-05 0.0000000e+00 
0.0000000e+00 -5.4564945e-05 0.0000000e+00 
0.0000000e+00 -5.1934454e-05 0.0000000e+00 
0.0000000e+00 -5.2113221e-05 0.0000000e+00 
0.0000000e+00 -5.2503921e-05 0.0000000e+00 
0.0000000e+00 -5.1889125e-05 0.0000000e+00 
0.0000000e+00 -5.1638446e-05 0.0000000e+00 
0.0000000e+00 -5.4193773e-05 0.0000000e+00 
0.0000000e+00 -6.1593841e-05 0.0000000e+00 
0.0000000e+00 -7.0354101e-05 0.0000000e+00 
0.0000000e+00 -7.5653792e-05 0.0000000e+00 
0.0000000e+00 -7.9056801e-05 0.0000000e+00 
0.0000000e+00 -8.7464592e-05 0.0000000e+00 
0.0000000e+00 -1.0547051e-04 0.0000000e+00 
0.0000000e+00 -1.3597441e-04 0.0000000e+00 
0.0000000e+00 -1.8132190e-04 0.0000000e+00 
0.0000000e+00 -2.4757389e-04 0.0000000e+00 
0.0000000e+00 -3.4552618e-04 0.0000000e+00 
0.0000000e+00 -5.1019056e-04 0.0000000e+00 
0.0000000e+00 -7.5983931e-04 0.0000000e+00 
0.0000000e+00 -1.0122847e-03 0.0000000e+00 
0.0000000e+00 -1.0395043e-03 0.0000000e+00 
0.0000000e+00 -8.4731122e-04 0.0000000e+00 
0.0000000e+00 -7.4527238e-04 0.0000000e+00 
0.0000000e+00 -8.4971136e-04 0.0000000e+00 
0.0000000e+00 -1.0380620e-03 0.0000000e+00 
0.0000000e+00 -9.7409100e-04 0.0000000e+00 
0.0000000e+00 -6.5659458e-04 0.0000000e+00 
0.0000000e+00 -3.7849805e-04 0.0000000e+00 
0.0000000e+00 -2.2726283e-04 0.0000000e+00 
0.0000000e+00 -1.5565082e-04 0.0000000e+00 
0.0000000e+00 -1.1774490e-04 0.0000000e+00 
0.0000000e+00 -9.7086289e-05 0.0000000e+00 
0.0000000e+00 -8.3169478e-05 0.0000000e+00 
0.0000000e+00 -7.1831179e-05 0.0000000e+00 
0.0000000e+00 -6.3503125e-05 0.0000000e+00 
0.0000000e+00 -5.8000169e-05 0.0000000e+00 
0.0000000e+00 -5.1322644e-05 0.0000000e+00 
0.0000000e+00 -4.2611926e-05 0.0000000e+00 
0.0000000e+00 -3.4164634e-05 0.0000000e+00 
0.0000000e+00 -2.8154294e-05 0.0000000e+00 
0.0000000e+00 -2.4556781e-05 0.0000000e+00 
0.0000000e+00 -2.2018910e-05 0.0000000e+00 
0.0000000e+00 -1.9275709e-05 0.0000000e+00 
0.0000000e+00 -1.6060569e-05 0.0000000e+00 
0.0000000e+00 -1.3434602e-05 0.0000000e+00 
0.0000000e+00 -1.2018365e-05 0.0000000e+00 
0.0000000e+00 -1.1022447e-05 0.0000000e+00 
0.0000000e+00 -9.6758640e-06 0.0000000e+00 
0.0000000e+00 -8.0591517e-06 0.0000000e+00 
0.0000000e+00 -6.6340635e-06 0.0000000e+00 
0.0000000e+00 -5.6201375e-06 0.0000000e+00 
0.0000000e+00 -4.9237983e-06 0.0000000e+00 
0.0000000e+00 -4.2860934e-06 0.0000000e+00 
0.0000000e+00 -3.5877538e-06 0.0000000e+00 
0.0000000e+00 -2.9555988e-06 0.0000000e+00 
0.0000000e+00 -2.4234423e-06 0.0000000e+00 
0.0000000e+00 -2.0206789e-06 0.0000000e+00 
0.0000000e+00 -1.7767087e-06 0.0000000e+00 
0.0000000e+00 -1.5645645e-06 0.0000000e+00 
0.0000000e+00 -1.2655742e-06 0.0000000e+00 
0.0000000e+00 -9.3219404e-07 0.0000000e+00 
0.0000000e+00 -7.0643279e-07 0.0000000e+00 
0.0000000e+00 -5.9444233e-07 0.0000000e+00 
0.0000000e+00 -4.8115834e-07 0.0000000e+00 
0.0000000e+00 -3.3773455e-07 0.0000000e+00 
0.0000000e+00 -2.2236206e-07 0.0000000e+00 
0.0000000e+00 -1.5171668e-07 0.0000000e+00 
0.0000000e+00 -9.8573928e-08 0.0000000e+00 
0.0000000e+00 -4.6761443e-08 0.0000000e+00 
0.0000000e+00 -3.4319447e-09 0.0000000e+00 
0.0000000e+00 2.8203932e-08 0.0000000e+00 
0.0000000e+00 5.2909932e-08 0.0000000e+00 
0.0000000e+00 7.3990833e-08 0.0000000e+00 
0.0000000e+00 9.3222951e-08 0.0000000e+00 
0.0000000e+00 1.1170862e-07 0.0000000e+00 
0.0000000e+00 1.2710558e-07 0.0000000e+00 
0.0000000e+00 1.3695109e-07 0.0000000e+00 
0.0000000e+00 1.3888695e-07 0.0000000e+00 
0.0000000e+00 1.3336788e-07 0.0000000e+00 
0.0000000e+00 1.2913478e-07 0.0000000e+00 
1.6242344e-06 -8.2093567e-05 -3.1618780e-05 
-2.8202550e-05 -1.0012287e-04 -3.4525434e-05 
-1.8588520e-05 -2.6326676e-05 -9.1811680e-06 
0.0000000e+00 0.0000000e+00 0.0000000e+00 
0.0000000e+00 0.0000000e+00 0.0000000e+00 
0.0000000e+00 0.0000000e+00 0.0000000e+00 
0.0000000e+00 0.0000000e+00 0.0000000e+00 
0.0000000e+00 0.0000000e+00 0.0000000e+00 
0.0000000e+00 0.0000000e+00 0.0000000e+00 
0.0000000e+00 0.0000000e+00 0.0000000e+00 
0.0000000e+00 0.0000000e+00 0.0000000e+00 
0.0000000e+00 0.0000000e+00 0.0000000e+00 
0.0000000e+00 0.0000000e+00 0.0000000e+00 
0.0000000e+00 0.0000000e+00 0.0000000e+00 
0.0000000e+00 0.0000000e+00 0.0000000e+00 
0.0000000e+00 0.0000000e+00 0.0000000e+00 
0.0000000e+00 0.0000000e+00 0.0000000e+00 
0.0000000e+00 0.0000000e+00 0.0000000e+00 
0.0000000e+00 0.0000000e+00 0.0000000e+00 
0.0000000e+00 0.0000000e+00 0.0000000e+00 
0.0000000e+00 0.0000000e+00 0.0000000e+00 
0.0000000e+00 0.0000000e+00 0.0000000e+00 
0.0000000e+00 0.0000000e+00 0.0000000e+00 
0.0000000e+00 0.0000000e+00 0.0000000e+00 
0.0000000e+00 0.0000000e+00 0.0000000e+00 
0.0000000e+00 0.0000000e+00 0.0000000e+00 
0.0000000e+00 0.0000000e+00 0.0000000e+00 
0.0000000e+00 0.0000000e+00 0.0000000e+00 
0.0000000e+00 0.0000000e+00 0.0000000e+00 
0.0000000e+00 0.0000000e+00 0.0000000e+00 
0.0000000e+00 0.0000000e+00 0.0000000e+00 
0.0000000e+00 0.0000000e+00 0.0000000e+00 
0.0000000e+00 0.0000000e+00 0.0000000e+00 
0.0000000e+00 0.0000000e+00 0.0000000e+00 
0.0000000e+00 0.0000000e+00 0.0000000e+00 
0.0000000e+00 0.0000000e+00 0.0000000e+00 
0.0000000e+00 0.0000000e+00 0.0000000e+00 
0.0000000e+00 0.0000000e+00 0.0000000e+00 
0.0000000e+00 0.0000000e+00 0.0000000e+00 
0.0000000e+00 0.0000000e+00 0.0000000e+00 
0.0000000e+00 0.0000000e+00 0.0000000e+00 
0.0000000e+00 0.0000000e+00 0.0000000e+00 
0.0000000e+00 0.0000000e+00 0.0000000e+00 
0.0000000e+00 0.0000000e+00 0.0000000e+00 
0.0000000e+00 0.0000000e+00 0.0000000e+00 
0.0000000e+00 0.0000000e+00 0.0000000e+00 
0.0000000e+00 0.0000000e+00 0.0000000e+00 
0.0000000e+00 0.0000000e+00 0.0000000e+00 
0.0000000e+00 0.0000000e+00 0.0000000e+00 
0.0000000e+00 0.0000000e+00 0.0000000e+00 
0.0000000e+00 0.0000000e+00 0.0000000e+00 
0.0000000e+00 0.0000000e+00 0.0000000e+00 
0.0000000e+00 0.0000000e+00 0.0000000e+00 
0.0000000e+00 0.0000000e+00 0.0000000e+00 
0.0000000e+00 0.0000000e+00 0.0000000e+00 
0.0000000e+00 0.0000000e+00 0.0000000e+00 
0.0000000e+00 0.0000000e+00 0.0000000e+00 
0.0000000e+00 0.0000000e+00 0.0000000e+00 
0.0000000e+00 0.0000000e+00 0.0000000e+00 
0.0000000e+00 0.0000000e+00 0.0000000e+00 
0.0000000e+00 0.0000000e+00 0.0000000e+00 
0.0000000e+00 0.0000000e+00 0.0000000e+00 
0.0000000e+00 0.0000000e+00 0.0000000e+00 
0.0000000e+00 0.0000000e+00 0.0000000e+00 
0.0000000e+00 0.0000000e+00 0.0000000e+00 
0.0000000e+00 0.0000000e+00 0.0000000e+00 
0.0000000e+00 0.0000000e+00 0.0000000e+00 
0.0000000e+00 0.0000000e+00 0.0000000e+00 
0.0000000e+00 0.0000000e+00 0.0000000e+00 
0.0000000e+00 0.0000000e+00 0.0000000e+00 
0.0000000e+00 0.0000000e+00 0.0000000e+00 
0.0000000e+00 0.0000000e+00 0.0000000e+00 
0.0000000e+00 0.0000000e+00 0.0000000e+00 
0.0000000e+00 0.0000000e+00 0.0000000e+00 
0.0000000e+00 0.0000000e+00 0.0000000e+00 
0.0000000e+00 0.0000000e+00 0.0000000e+00 
0.0000000e+00 0.0000000e+00 0.0000000e+00 
0.0000000e+00 0.0000000e+00 0.0000000e+00 
0.0000000e+00 0.0000000e+00 0.0000000e+00 
0.0000000e+00 0.0000000e+00 0.0000000e+00 
0.0000000e+00 0.0000000e+00 0.0000000e+00 
0.0000000e+00 0.0000000e+00 0.0000000e+00 
0.0000000e+00 0.0000000e+00 0.0000000e+00 
0.0000000e+00 0.0000000e+00 0.0000000e+00 
0.0000000e+00 0.0000000e+00 0.0000000e+00 
0.0000000e+00 0.0000000e+00 0.0000000e+00 
0.0000000e+00 0.0000000e+00 0.0000000e+00 
0.0000000e+00 0.0000000e+00 0.0000000e+00 
0.0000000e+00 0.0000000e+00 0.0000000e+00 
0.0000000e+00 0.0000000e+00 0.0000000e+00 
0.0000000e+00 0.0000000e+00 0.0000000e+00 
0.0000000e+00 0.0000000e+00 0.0000000e+00 
0.0000000e+00 0.0000000e+00 0.0000000e+00 
0.0000000e+00 0.0000000e+00 0.0000000e+00 
0.0000000e+00 0.0000000e+00 0.0000000e+00 
0.0000000e+00 0.0000000e+00 0.0000000e+00 
0.0000000e+00 0.0000000e+00 0.0000000e+00 
0.0000000e+00 0.0000000e+00 0.0000000e+00 
0.0000000e+00 0.0000000e+00 0.0000000e+00 
0.0000000e+00 0.0000000e+00 0.0000000e+00 
0.0000000e+00 0.0000000e+00 0.0000000e+00 
0.0000000e+00 0.0000000e+00 0.0000000e+00 
0.0000000e+00 0.0000000e+00 0.0000000e+00 
0.0000000e+00 0.0000000e+00 0.0000000e+00 
0.0000000e+00 0.0000000e+00 0.0000000e+00 
0.0000000e+00 0.0000000e+00 0.0000000e+00 
0.0000000e+00 0.0000000e+00 0.0000000e+00 
0.0000000e+00 0.0000000e+00 0.0000000e+00 
0.0000000e+00 0.0000000e+00 0.0000000e+00 
0.0000000e+00 0.0000000e+00 0.0000000e+00 
0.0000000e+00 0.0000000e+00 0.0000000e+00 
0.0000000e+00 0.0000000e+00 0.0000000e+00 
0.0000000e+00 0.0000000e+00 0.0000000e+00 
0.0000000e+00 0.0000000e+00 0.0000000e+00 
0.0000000e+00 0.0000000e+00 0.0000000e+00 
0.0000000e+00 0.0000000e+00 0.0000000e+00 
0.0000000e+00 0.0000000e+00 0.0000000e+00 
0.0000000e+00 0.0000000e+00 0.0000000e+00 
0.0000000e+00 0.0000000e+00 0.0000000e+00 
3.5742163e-05 -2.8172231e-05 3.0114252e-06 
3.4715969e-05 -2.7445079e-05 6.0012853e-06 
3.2517277e-05 -2.4784200e-05 8.2758779e-06 
2.9792103e-05 -2.2224980e-05 9.7851289e-06 
2.6852960e-05 -1.9767389e-05 1.0690675e-05 
2.3842933e-05 -1.6616083e-05 1.0475667e-05 
2.1387556e-05 -1.4900308e-05 1.0064607e-05 
1.8769844e-05 -1.2312090e-05 8.5486045e-06 
1.6804841e-05 -1.0874507e-05 6.9133052e-06 
1.5399839e-05 -1.0038838e-05 4.8815950e-06 
1.4435265e-05 -9.1953416e-06 2.7123199e-06 
1.3957487e-05 -9.0592794e-06 7.2014245e-07 
1.4060821e-05 -8.8979332e-06 -1.1248815e-06 
1.4648926e-05 -9.5941305e-06 -2.6612988e-06 
1.5581867e-05 -1.0577119e-05 -3.8341877e-06 
1.6649756e-05 -1.1572068e-05 -4.5365550e-06 
1.8090037e-05 -1.2696421e-05 -4.5245515e-06 
1.9071769e-05 -1.3892009e-05 -3.8586386e-06 
2.0152927e-05 -1.4446749e-05 -2.7129799e-06 
2.0595973e-05 -1.5432328e-05 -1.1885826e-06 
2.0838112e-05 -1.5586093e-05 6.6721225e-07 
2.0630048e-05 -1.5413450e-05 2.4811645e-06 
1.9845618e-05 -1.4797676e-05 4.3011887e-06 
1.8549375e-05 -1.3980693e-05 5.9647778e-06 
1.6960030e-05 -1.2535580e-05 7.3447213e-06 
1.5189620e-05 -1.1112440e-05 8.0637992e-06 
1.3207234e-05 -9.4537427e-06 8.7181434e-06 
1.1317764e-05 -8.1828275e-06 8.6654800e-06 
9.6097010e-06 -6.7764963e-06 8.3872328e-06 
7.8664989e-06 -5.5690389e-06 7.8576886e-06 
6.3451575e-06 -4.3973610e-06 7.1358277e-06 
5.1031161e-06 -3.4694726e-06 6.3377802e-06 
4.0283639e-06 -2.6234393e-06 5.5074511e-06 
3.0953704e-06 -1.8839270e-06 4.7447284e-06 
2.4236733e-06 -1.4082767e-06 4.0192340e-06 
1.8776242e-06 -9.7038219e-07 3.3700558e-06 
1.4274414e-06 -6.7403960e-07 2.7872723e-06 
1.0703322e-06 -4.6255772e-07 2.2866925e-06 
7.9146770e-07 -2.5181998e-07 1.8532836e-06 
5.8766216e-07 -1.4544629e-07 1.5025568e-06 
4.2950694e-07 -5.7156424e-08 1.2054097e-06 
2.9994928e-07 1.0882408e-08 9.5284088e-07 
2.0771088e-07 4.4984656e-08 7.5827830e-07 
1.3428219e-07 7.0787962e-08 6.0048131e-07 
9.0906063e-08 8.5785281e-08 4.8626538e-07 
4.7400171e-08 9.9188291e-08 3.9850775e-07 
1.4951029e-08 1.0188279e-07 3.2661870e-07 
-5.7730905e-09 1.0273043e-07 2.7314044e-07 
-2.4770094e-08 8.9937977e-08 2.3384014e-07 
2.1069158e-05 -1.8763581e-05 -2.7939943e-06 
-1.3349538e-08 -1.1496437e-08 9.7389986e-08 
0.0000000e+00 -7.6403565e-05 0.0000000e+00 
0.0000000e+00 -7.1364266e-05 0.0000000e+00 
0.0000000e+00 -7.4314463e-05 0.0000000e+00 
0.0000000e+00 -5.3019223e-05 0.0000000e+00 
0.0000000e+00 -5.2904659e-05 0.0000000e+00 
0.0000000e+00 -4.5769742e-05 0.0000000e+00 
0.0000000e+00 -3.3911394e-05 0.0000000e+00 
0.0000000e+00 -2.9198420e-05 0.0000000e+00 
0.0000000e+00 -2.0985195e-05 0.0000000e+00 
0.0000000e+00 -2.1446422e-05 0.0000000e+00 
0.0000000e+00 -1.7078140e-05 0.0000000e+00 
0.0000000e+00 -1.9436047e-05 0.0000000e+00 
0.0000000e+00 -1.4007660e-05 0.0000000e+00 
0.0000000e+00 -2.0596206e-05 0.0000000e+00 
0.0000000e+00 -2.5226625e-05 0.0000000e+00 
0.0000000e+00 -2.3821116e-05 0.0000000e+00 
0.0000000e+00 -3.7517952e-05 0.0000000e+00 
0.0000000e+00 -3.2664477e-05 0.0000000e+00 
0.0000000e+00 -4.4913952e-05 0.0000000e+00 
0.0000000e+00 -5.0684674e-05 0.0000000e+00 
0.0000000e+00 -4.7779751e-05 0.0000000e+00 
0.0000000e+00 -4.7532434e-05 0.0000000e+00 
0.0000000e+00 -4.5002773e-05 0.0000000e+00 
0.0000000e+00 -3.8271606e-05 0.0000000e+00 
0.0000000e+00 -3.1743682e-05 0.0000000e+00 
0.0000000e+00 -3.0519819e-05 0.0000000e+00 
0.0000000e+00 -2.5855261e-05 0.0000000e+00 
0.0000000e+00 -1.6119779e-05 0.0000000e+00 
0.0000000e+00 -1.5168534e-05 0.0000000e+00 
0.0000000e+00 -1.1137512e-05 0.0000000e+00 
0.0000000e+00 -8.0674208e-06 0.0000000e+00 
0.0000000e+00 -5.5055934e-06 0.0000000e+00 
0.0000000e+00 -5.1560755e-06 0.0000000e+00 
0.0000000e+00 -3.7921250e-06 0.0000000e+00 
0.0000000e+00 -2.5826726e-06 0.0000000e+00 
0.0000000e+00 -2.1762983e-06 0.0000000e+00 
0.0000000e+00 -1.3602048e-06 0.0000000e+00 
0.0000000e+00 -9.5339800e-07 0.0000000e+00 
0.0000000e+00 -8.0608413e-07 0.0000000e+00 
0.0000000e+00 -4.3911490e-07 0.0000000e+00 
0.0000000e+00 -3.4525624e-07 0.0000000e+00 
0.0000000e+00 -1.9388614e-07 0.0000000e+00 
0.0000000e+00 -1.2206550e-07 0.0000000e+00 
0.0000000e+00 -7.4022836e-08 0.0000000e+00 
0.0000000e+00 -4.1611067e-08 0.0000000e+00 
0.0000000e+00 -2.0803766e-08 0.0000000e+00 
0.0000000e+00 7.5544282e-09 0.0000000e+00 
0.0000000e+00 1.0973181e-08 0.0000000e+00 
0.0000000e+00 1.0357644e-08 0.0000000e+00 
3.6690340e-05 -2.1659567e-05 -1.4273965e-06 
3.7017406e-05 -2.3896442e-05 -3.7295590e-06 
3.7866652e-05 -2.9355977e-05 -6.1434507e-06 