# vtk DataFile Version 4.0
vtk output
ASCII
DATASET UNSTRUCTURED_GRID
POINTS 7705 float
0.0000000e+00 3.7700000e+00 0.0000000e+00 
0.0000000e+00 3.7700000e+00 5.0000000e+01 
1.0000000e+01 3.7700000e+00 0.0000000e+00 
1.0000000e+01 3.7700000e+00 5.0000000e+01 
1.0000000e+01 5.7700000e+00 0.0000000e+00 
1.0000000e+01 5.7700000e+00 5.0000000e+01 
0.0000000e+00 5.7700000e+00 0.0000000e+00 
0.0000000e+00 5.7700000e+00 5.0000000e+01 
1.0000000e+01 7.2700000e+00 0.0000000e+00 
1.0000000e+01 7.2700000e+00 5.0000000e+01 
0.0000000e+00 7.2700000e+00 0.0000000e+00 
0.0000000e+00 7.2700000e+00 5.0000000e+01 
1.0000000e+01 9.7700005e+00 0.0000000e+00 
1.0000000e+01 9.7700005e+00 5.0000000e+01 
0.0000000e+00 9.7700005e+00 0.0000000e+00 
0.0000000e+00 9.7700005e+00 5.0000000e+01 
1.0000000e+01 1.1770000e+01 0.0000000e+00 
1.0000000e+01 1.1770000e+01 5.0000000e+01 
0.0000000e+00 1.1770000e+01 0.0000000e+00 
0.0000000e+00 1.1770000e+01 5.0000000e+01 
1.0000000e+01 1.4770000e+01 0.0000000e+00 
1.0000000e+01 1.4770000e+01 5.0000000e+01 
0.0000000e+00 1.4770000e+01 0.0000000e+00 
0.0000000e+00 1.4770000e+01 5.0000000e+01 
1.0000000e+01 1.5070000e+01 0.0000000e+00 
1.0000000e+01 1.5070000e+01 5.0000000e+01 
7.5000000e-01 1.5070000e+01 0.0000000e+00 
7.5000000e-01 1.5070000e+01 5.0000000e+01 
0.0000000e+00 1.5070000e+01 0.0000000e+00 
0.0000000e+00 1.5070000e+01 5.0000000e+01 
7.5000000e-01 1.5070000e+01 5.0000000e-01 
7.5000000e-01 1.5070000e+01 1.0000000e+00 
7.5000000e-01 1.5070000e+01 1.5000000e+00 
7.5000000e-01 1.5070000e+01 2.0000000e+00 
7.5000000e-01 1.5070000e+01 2.5000000e+00 
7.5000000e-01 1.5070000e+01 3.0000000e+00 
7.5000000e-01 1.5070000e+01 3.5000000e+00 
7.5000000e-01 1.5070000e+01 4.0000000e+00 
7.5000000e-01 1.5070000e+01 4.5000000e+00 
7.5000000e-01 1.5070000e+01 5.0000000e+00 
7.5000000e-01 1.5070000e+01 5.5000000e+00 
7.5000000e-01 1.5070000e+01 6.0000000e+00 
7.5000000e-01 1.5070000e+01 6.5000000e+00 
7.5000000e-01 1.5070000e+01 7.0000000e+00 
7.5000000e-01 1.5070000e+01 7.5000000e+00 
7.5000000e-01 1.5070000e+01 8.0000000e+00 
7.5000000e-01 1.5070000e+01 8.5000000e+00 
7.5000000e-01 1.5070000e+01 9.0000000e+00 
7.5000000e-01 1.5070000e+01 9.5000000e+00 
7.5000000e-01 1.5070000e+01 1.0000000e+01 
7.5000000e-01 1.5070000e+01 1.0500000e+01 
7.5000000e-01 1.5070000e+01 1.1000000e+01 
7.5000000e-01 1.5070000e+01 1.1500000e+01 
7.5000000e-01 1.5070000e+01 1.2000000e+01 
7.5000000e-01 1.5070000e+01 1.2500000e+01 
7.5000000e-01 1.5070000e+01 1.3000000e+01 
7.5000000e-01 1.5070000e+01 1.3500000e+01 
7.5000000e-01 1.5070000e+01 1.4000000e+01 
7.5000000e-01 1.5070000e+01 1.4500000e+01 
7.5000000e-01 1.5070000e+01 1.5000000e+01 
7.5000000e-01 1.5070000e+01 1.5500000e+01 
7.5000000e-01 1.5070000e+01 1.6000000e+01 
7.5000000e-01 1.5070000e+01 1.6500000e+01 
7.5000000e-01 1.5070000e+01 1.7000000e+01 
7.5000000e-01 1.5070000e+01 1.7500000e+01 
7.5000000e-01 1.5070000e+01 1.8000000e+01 
7.5000000e-01 1.5070000e+01 1.8500000e+01 
7.5000000e-01 1.5070000e+01 1.9000000e+01 
7.5000000e-01 1.5070000e+01 1.9500000e+01 
7.5000000e-01 1.5070000e+01 2.0000000e+01 
7.5000000e-01 1.5070000e+01 2.0500000e+01 
7.5000000e-01 1.5070000e+01 2.1000000e+01 
7.5000000e-01 1.5070000e+01 2.1500000e+01 
7.5000000e-01 1.5070000e+01 2.2000000e+01 
7.5000000e-01 1.5070000e+01 2.2500000e+01 
7.5000000e-01 1.5070000e+01 2.3000000e+01 
7.5000000e-01 1.5070000e+01 2.3500000e+01 
7.5000000e-01 1.5070000e+01 2.4000000e+01 
7.5000000e-01 1.5070000e+01 2.4500000e+01 
7.5000000e-01 1.5070000e+01 2.5000000e+01 
7.5000000e-01 1.5070000e+01 2.5500000e+01 
7.5000000e-01 1.5070000e+01 2.6000000e+01 
7.5000000e-01 1.5070000e+01 2.6500000e+01 
7.5000000e-01 1.5070000e+01 2.7000000e+01 
7.5000000e-01 1.5070000e+01 2.7500000e+01 
7.5000000e-01 1.5070000e+01 2.8000000e+01 
7.5000000e-01 1.5070000e+01 2.8500000e+01 
7.5000000e-01 1.5070000e+01 2.9000000e+01 
7.5000000e-01 1.5070000e+01 2.9500000e+01 
7.5000000e-01 1.5070000e+01 3.0000000e+01 
7.5000000e-01 1.5070000e+01 3.0500000e+01 
7.5000000e-01 1.5070000e+01 3.1000000e+01 
7.5000000e-01 1.5070000e+01 3.1500000e+01 
7.5000000e-01 1.5070000e+01 3.2000000e+01 
7.5000000e-01 1.5070000e+01 3.2500000e+01 
7.5000000e-01 1.5070000e+01 3.3000000e+01 
7.5000000e-01 1.5070000e+01 3.3500000e+01 
7.5000000e-01 1.5070000e+01 3.4000000e+01 
7.5000000e-01 1.5070000e+01 3.4500000e+01 
7.5000000e-01 1.5070000e+01 3.5000000e+01 
7.5000000e-01 1.5070000e+01 3.5500000e+01 
7.5000000e-01 1.5070000e+01 3.6000000e+01 
7.5000000e-01 1.5070000e+01 3.6500000e+01 
7.5000000e-01 1.5070000e+01 3.7000000e+01 
7.5000000e-01 1.5070000e+01 3.7500000e+01 
7.5000000e-01 1.5070000e+01 3.8000000e+01 
7.5000000e-01 1.5070000e+01 3.8500000e+01 
7.5000000e-01 1.5070000e+01 3.9000000e+01 
7.5000000e-01 1.5070000e+01 3.9500000e+01 
7.5000000e-01 1.5070000e+01 4.0000000e+01 
7.5000000e-01 1.5070000e+01 4.0500000e+01 
7.5000000e-01 1.5070000e+01 4.1000000e+01 
7.5000000e-01 1.5070000e+01 4.1500000e+01 
7.5000000e-01 1.5070000e+01 4.2000000e+01 
7.5000000e-01 1.5070000e+01 4.2500000e+01 
7.5000000e-01 1.5070000e+01 4.3000000e+01 
7.5000000e-01 1.5070000e+01 4.3500000e+01 
7.5000000e-01 1.5070000e+01 4.4000000e+01 
7.5000000e-01 1.5070000e+01 4.4500000e+01 
7.5000000e-01 1.5070000e+01 4.5000000e+01 
7.5000000e-01 1.5070000e+01 4.5500000e+01 
7.5000000e-01 1.5070000e+01 4.6000000e+01 
7.5000000e-01 1.5070000e+01 4.6500000e+01 
7.5000000e-01 1.5070000e+01 4.7000000e+01 
7.5000000e-01 1.5070000e+01 4.7500000e+01 
7.5000000e-01 1.5070000e+01 4.8000000e+01 
7.5000000e-01 1.5070000e+01 4.8500000e+01 
7.5000000e-01 1.5070000e+01 4.9000000e+01 
7.5000000e-01 1.5070000e+01 4.9500000e+01 
7.5000000e-01 1.5095000e+01 0.0000000e+00 
7.5000000e-01 1.5095000e+01 5.0000000e-01 
7.5000000e-01 1.5095000e+01 1.0000000e+00 
7.5000000e-01 1.5095000e+01 1.5000000e+00 
7.5000000e-01 1.5095000e+01 2.0000000e+00 
7.5000000e-01 1.5095000e+01 2.5000000e+00 
7.5000000e-01 1.5095000e+01 3.0000000e+00 
7.5000000e-01 1.5095000e+01 3.5000000e+00 
7.5000000e-01 1.5095000e+01 4.0000000e+00 
7.5000000e-01 1.5095000e+01 4.5000000e+00 
7.5000000e-01 1.5095000e+01 5.0000000e+00 
7.5000000e-01 1.5095000e+01 5.5000000e+00 
7.5000000e-01 1.5095000e+01 6.0000000e+00 
7.5000000e-01 1.5095000e+01 6.5000000e+00 
7.5000000e-01 1.5095000e+01 7.0000000e+00 
7.5000000e-01 1.5095000e+01 7.5000000e+00 
7.5000000e-01 1.5095000e+01 8.0000000e+00 
7.5000000e-01 1.5095000e+01 8.5000000e+00 
7.5000000e-01 1.5095000e+01 9.0000000e+00 
7.5000000e-01 1.5095000e+01 9.5000000e+00 
7.5000000e-01 1.5095000e+01 1.0000000e+01 
7.5000000e-01 1.5095000e+01 1.0500000e+01 
7.5000000e-01 1.5095000e+01 1.1000000e+01 
7.5000000e-01 1.5095000e+01 1.1500000e+01 
7.5000000e-01 1.5095000e+01 1.2000000e+01 
7.5000000e-01 1.5095000e+01 1.2500000e+01 
7.5000000e-01 1.5095000e+01 1.3000000e+01 
7.5000000e-01 1.5095000e+01 1.3500000e+01 
7.5000000e-01 1.5095000e+01 1.4000000e+01 
7.5000000e-01 1.5095000e+01 1.4500000e+01 
7.5000000e-01 1.5095000e+01 1.5000000e+01 
7.5000000e-01 1.5095000e+01 1.5500000e+01 
7.5000000e-01 1.5095000e+01 1.6000000e+01 
7.5000000e-01 1.5095000e+01 1.6500000e+01 
7.5000000e-01 1.5095000e+01 1.7000000e+01 
7.5000000e-01 1.5095000e+01 1.7500000e+01 
7.5000000e-01 1.5095000e+01 1.8000000e+01 
7.5000000e-01 1.5095000e+01 1.8500000e+01 
7.5000000e-01 1.5095000e+01 1.9000000e+01 
7.5000000e-01 1.5095000e+01 1.9500000e+01 
7.5000000e-01 1.5095000e+01 2.0000000e+01 
7.5000000e-01 1.5095000e+01 2.0500000e+01 
7.5000000e-01 1.5095000e+01 2.1000000e+01 
7.5000000e-01 1.5095000e+01 2.1500000e+01 
7.5000000e-01 1.5095000e+01 2.2000000e+01 
7.5000000e-01 1.5095000e+01 2.2500000e+01 
7.5000000e-01 1.5095000e+01 2.3000000e+01 
7.5000000e-01 1.5095000e+01 2.3500000e+01 
7.5000000e-01 1.5095000e+01 2.4000000e+01 
7.5000000e-01 1.5095000e+01 2.4500000e+01 
7.5000000e-01 1.5095000e+01 2.5000000e+01 
7.5000000e-01 1.5095000e+01 2.5500000e+01 
7.5000000e-01 1.5095000e+01 2.6000000e+01 
7.5000000e-01 1.5095000e+01 2.6500000e+01 
7.5000000e-01 1.5095000e+01 2.7000000e+01 
7.5000000e-01 1.5095000e+01 2.7500000e+01 
7.5000000e-01 1.5095000e+01 2.8000000e+01 
7.5000000e-01 1.5095000e+01 2.8500000e+01 
7.5000000e-01 1.5095000e+01 2.9000000e+01 
7.5000000e-01 1.5095000e+01 2.9500000e+01 
7.5000000e-01 1.5095000e+01 3.0000000e+01 
7.5000000e-01 1.5095000e+01 3.0500000e+01 
7.5000000e-01 1.5095000e+01 3.1000000e+01 
7.5000000e-01 1.5095000e+01 3.1500000e+01 
7.5000000e-01 1.5095000e+01 3.2000000e+01 
7.5000000e-01 1.5095000e+01 3.2500000e+01 
7.5000000e-01 1.5095000e+01 3.3000000e+01 
7.5000000e-01 1.5095000e+01 3.3500000e+01 
7.5000000e-01 1.5095000e+01 3.4000000e+01 
7.5000000e-01 1.5095000e+01 3.4500000e+01 
7.5000000e-01 1.5095000e+01 3.5000000e+01 
7.5000000e-01 1.5095000e+01 3.5500000e+01 
7.5000000e-01 1.5095000e+01 3.6000000e+01 
7.5000000e-01 1.5095000e+01 3.6500000e+01 
7.5000000e-01 1.5095000e+01 3.7000000e+01 
7.5000000e-01 1.5095000e+01 3.7500000e+01 
7.5000000e-01 1.5095000e+01 3.8000000e+01 
7.5000000e-01 1.5095000e+01 3.8500000e+01 
7.5000000e-01 1.5095000e+01 3.9000000e+01 
7.5000000e-01 1.5095000e+01 3.9500000e+01 
7.5000000e-01 1.5095000e+01 4.0000000e+01 
7.5000000e-01 1.5095000e+01 4.0500000e+01 
7.5000000e-01 1.5095000e+01 4.1000000e+01 
7.5000000e-01 1.5095000e+01 4.1500000e+01 
7.5000000e-01 1.5095000e+01 4.2000000e+01 
7.5000000e-01 1.5095000e+01 4.2500000e+01 
7.5000000e-01 1.5095000e+01 4.3000000e+01 
7.5000000e-01 1.5095000e+01 4.3500000e+01 
7.5000000e-01 1.5095000e+01 4.4000000e+01 
7.5000000e-01 1.5095000e+01 4.4500000e+01 
7.5000000e-01 1.5095000e+01 4.5000000e+01 
7.5000000e-01 1.5095000e+01 4.5500000e+01 
7.5000000e-01 1.5095000e+01 4.6000000e+01 
7.5000000e-01 1.5095000e+01 4.6500000e+01 
7.5000000e-01 1.5095000e+01 4.7000000e+01 
7.5000000e-01 1.5095000e+01 4.7500000e+01 
7.5000000e-01 1.5095000e+01 4.8000000e+01 
7.5000000e-01 1.5095000e+01 4.8500000e+01 
7.5000000e-01 1.5095000e+01 4.9000000e+01 
7.5000000e-01 1.5095000e+01 4.9500000e+01 
7.5000000e-01 1.5095000e+01 5.0000000e+01 
[...]
POINT_DATA 7705
FIELD FieldData 3
DISPLACEMENT 3 7705  float
0.0000000e+00 0.0000000e+00 0.0000000e+00 
0.0000000e+00 0.0000000e+00 0.0000000e+00 
0.0000000e+00 0.0000000e+00 0.0000000e+00 
0.0000000e+00 0.0000000e+00 0.0000000e+00 
3.7891470e-05 -2.7218583e-05 4.9509333e-07 
-3.7272159e-08 3.9020783e-08 2.1102889e-07 
0.0000000e+00 -2.3147240e-05 0.0000000e+00 
0.0000000e+00 -2.5188457e-10 0.0000000e+00 
5.2045107e-05 -3.4524805e-05 6.1233195e-06 
-5.7674193e-08 1.7363553e-07 3.4385775e-07 
0.0000000e+00 -6.6887274e-05 0.0000000e+00 
0.0000000e+00 1.0876676e-08 0.0000000e+00 
4.4525506e-05 -3.5726298e-05 5.5712853e-06 
-9.4169664e-08 3.5344962e-07 3.3133716e-07 
0.0000000e+00 -1.1769574e-04 0.0000000e+00 
0.0000000e+00 3.7761207e-08 0.0000000e+00 
2.7883483e-05 -3.0453366e-05 7.0971126e-08 
-1.1906792e-07 4.6530408e-07 1.6431494e-07 
0.0000000e+00 -2.1927980e-04 0.0000000e+00 
0.0000000e+00 4.8739391e-08 0.0000000e+00 
-2.8704157e-05 -2.3794562e-05 -1.4006394e-05 
-1.9957454e-07 4.6868493e-07 5.1310732e-08 
0.0000000e+00 -6.0638558e-04 0.0000000e+00 
0.0000000e+00 6.3318758e-08 0.0000000e+00 
-3.4714732e-05 -2.3785809e-05 -1.5055688e-05 
-2.0709631e-07 4.6762813e-07 5.1559404e-08 
-9.5024079e-05 -1.9000252e-03 -4.6550314e-04 
-4.6364416e-08 1.3841463e-07 -6.2827716e-09 
0.0000000e+00 -5.7024305e-04 0.0000000e+00 
0.0000000e+00 6.7140348e-08 0.0000000e+00 
3.6719724e-05 -1.5252501e-03 -2.5534967e-04 
-3.4777557e-05 -1.0658023e-03 -1.6162184e-04 
-1.5356250e-07 -9.0562378e-04 -1.1919277e-04 
-2.5480824e-05 -1.0269799e-03 -1.0353657e-04 
-7.4802498e-05 -1.1449463e-03 -1.0801277e-04 
-4.4622255e-05 -8.5357809e-04 -1.2300260e-04 
1.7214563e-05 -5.3820555e-04 -1.4136247e-04 
3.6253225e-06 -3.5042499e-04 -1.0000582e-04 
2.3778234e-06 -2.5425095e-04 -8.1453036e-05 
-1.4087534e-07 -2.0546885e-04 -6.3312022e-05 
-8.0905505e-07 -1.7499192e-04 -5.3814143e-05 
2.6103245e-07 -1.4918575e-04 -4.5235345e-05 
3.6275123e-06 -1.2986195e-04 -3.9417253e-05 
1.5710469e-06 -1.1565047e-04 -3.3312615e-05 
-1.0156602e-06 -1.0181972e-04 -2.9929002e-05 
8.8771043e-07 -8.6345681e-05 -2.5176370e-05 
2.7419794e-06 -7.3752235e-05 -1.9938465e-05 
2.1275387e-06 -6.5722226e-05 -1.5744379e-05 
2.5069785e-06 -6.0909326e-05 -1.3207763e-05 
1.8586688e-06 -5.6400539e-05 -1.0263939e-05 
1.6866236e-06 -5.3160958e-05 -7.4280470e-06 
1.3383409e-06 -5.0881426e-05 -5.0414815e-06 
1.2252647e-06 -5.0628285e-05 -3.1562911e-06 
1.5085036e-06 -5.0528826e-05 -7.3666303e-07 
1.7745365e-06 -5.1474064e-05 1.6653007e-06 
1.6477975e-06 -5.2420233e-05 3.6466611e-06 
2.1222545e-06 -5.5900655e-05 6.6355010e-06 
7.0223160e-07 -6.3121275e-05 1.0363727e-05 
-1.0082704e-06 -7.1123934e-05 1.2932674e-05 
8.0126205e-07 -7.7511977e-05 1.4195209e-05 
1.8480896e-06 -8.5451153e-05 1.8578930e-05 
5.1662147e-07 -9.7182477e-05 2.1085501e-05 
1.0502846e-07 -1.1427368e-04 2.4808549e-05 
-1.5966740e-06 -1.3507951e-04 2.9865500e-05 
-3.3037400e-06 -1.6465991e-04 3.7503782e-05 
3.3329530e-07 -2.1369419e-04 4.5141849e-05 
6.1157712e-06 -3.1309880e-04 6.4306470e-05 
-6.4910319e-06 -5.1479647e-04 7.4221207e-05 
-4.5515939e-05 -7.9037703e-04 8.6959350e-05 
-4.1680007e-05 -9.2562026e-04 2.0660207e-05 
3.9239087e-05 -7.5280579e-04 -2.8717341e-05 
7.9038646e-06 -5.8231945e-04 3.8919953e-07 
1.7546325e-05 -6.1947654e-04 1.0276852e-05 
-1.7071803e-05 -8.2688162e-04 -5.9867566e-06 
1.3968058e-05 -1.0048958e-03 -1.9219699e-05 
-7.3917195e-06 -7.6947035e-04 -5.8147300e-05 
-1.8404953e-05 -4.7631678e-04 -9.8169512e-05 
-9.6859931e-06 -2.9296795e-04 -6.6240304e-05 
-6.8024547e-06 -1.9892736e-04 -5.8474099e-05 
-2.1175415e-06 -1.5272127e-04 -4.4996374e-05 
-1.8666937e-06 -1.2516988e-04 -3.4426113e-05 
-8.8459871e-07 -1.0483791e-04 -2.9101500e-05 
3.1668861e-07 -8.8716537e-05 -2.5100635e-05 
1.1834427e-06 -7.2929106e-05 -2.2061369e-05 
2.3891198e-06 -6.0712828e-05 -1.8014834e-05 
1.0634666e-06 -5.2546318e-05 -1.5458658e-05 
9.9656779e-07 -4.6623081e-05 -1.4731293e-05 
7.3590621e-07 -4.0894429e-05 -1.2594493e-05 
8.1039633e-07 -3.5915480e-05 -1.1540854e-05 
6.9246562e-07 -3.0728894e-05 -1.0110663e-05 
5.6080938e-07 -2.6457263e-05 -9.1796910e-06 
5.3460479e-07 -2.2637547e-05 -7.7948616e-06 
7.0906452e-07 -1.9649871e-05 -7.0444312e-06 
6.0604981e-07 -1.6697697e-05 -6.1386827e-06 
6.3528336e-07 -1.4389221e-05 -5.3882072e-06 
3.7457210e-07 -1.2713349e-05 -4.6199539e-06 
1.0845116e-07 -1.1100797e-05 -4.0952323e-06 
1.9919621e-07 -9.4640300e-06 -3.5959392e-06 
2.8931129e-07 -7.9886959e-06 -3.1060665e-06 
1.4285197e-07 -6.8288832e-06 -2.7815681e-06 
5.2990544e-08 -5.7574139e-06 -2.4415058e-06 
1.7857171e-07 -4.6710452e-06 -2.1253104e-06 
1.0514144e-07 -4.0427772e-06 -1.7504915e-06 
2.9536283e-08 -3.5397125e-06 -1.5866390e-06 
1.2233413e-08 -3.0487718e-06 -1.4241120e-06 
1.5673912e-08 -2.5514096e-06 -1.2400485e-06 
-1.3911018e-08 -2.0941432e-06 -1.0834311e-06 
7.8195281e-09 -1.7109268e-06 -9.1756169e-07 
2.5817206e-08 -1.3840227e-06 -7.8945391e-07 
1.2749038e-09 -1.1195286e-06 -6.7195174e-07 
-2.1279398e-08 -9.1156863e-07 -5.8987672e-07 
-2.5901912e-08 -7.4472274e-07 -4.9259967e-07 
-3.4194745e-08 -6.0349549e-07 -4.2545656e-07 
-3.5369297e-08 -4.7181729e-07 -3.5467360e-07 
-3.5215596e-08 -3.5823024e-07 -3.0299199e-07 
-3.7149132e-08 -2.6707258e-07 -2.4895252e-07 
-3.6743938e-08 -1.9330663e-07 -2.1086336e-07 
-4.0726668e-08 -1.2658356e-07 -1.7455393e-07 
-4.2213500e-08 -7.0725115e-08 -1.4785525e-07 
-4.1809056e-08 -2.8633954e-08 -1.1826964e-07 
-4.1337014e-08 6.6355312e-09 -9.5476715e-08 
-4.3838021e-08 3.5756802e-08 -7.5992290e-08 
-4.3859064e-08 5.9233479e-08 -6.1554701e-08 
-4.2543764e-08 7.8325989e-08 -4.9496389e-08 
-4.1543132e-08 9.6101608e-08 -3.9238572e-08 
-4.4755250e-08 1.0878013e-07 -2.9679818e-08 
-4.6580784e-08 1.1888770e-07 -2.3371088e-08 
-4.6788088e-08 1.2868162e-07 -1.7845045e-08 
-4.9826248e-08 1.3529130e-07 -1.0994678e-08 
0.0000000e+00 -1.9578349e-03 0.0000000e+00 
0.0000000e+00 -1.5743832e-03 0.0000000e+00 
0.0000000e+00 -1.0881234e-03 0.0000000e+00 
0.0000000e+00 -9.1935619e-04 0.0000000e+00 
0.0000000e+00 -1.0553611e-03 0.0000000e+00 
0.0000000e+00 -1.1882390e-03 0.0000000e+00 
0.0000000e+00 -8.8925881e-04 0.0000000e+00 
0.0000000e+00 -5.4935075e-04 0.0000000e+00 
0.0000000e+00 -3.5071091e-04 0.0000000e+00 
0.0000000e+00 -2.5420915e-04 0.0000000e+00 
0.0000000e+00 -2.0538432e-04 0.0000000e+00 
0.0000000e+00 -1.7502562e-04 0.0000000e+00 
0.0000000e+00 -1.4978783e-04 0.0000000e+00 
0.0000000e+00 -1.3045814e-04 0.0000000e+00 
0.0000000e+00 -1.1587867e-04 0.0000000e+00 
0.0000000e+00 -1.0187423e-04 0.0000000e+00 
0.0000000e+00 -8.6708431e-05 0.0000000e+00 
0.0000000e+00 -7.4161770e-05 0.0000000e+00 
0.0000000e+00 -6.5998225e-05 0.0000000e+00 
0.0000000e+00 -6.0973591e-05 0.0000000e+00 
0.0000000e+00 -5.6626184e-05 0.0000000e+00 
0.0000000e+00 -5.3311847e-05 0.0000000e+00 
0.0000000e+00 -5.1142895e-05 0.0000000e+00 
0.0000000e+00 -5.0703904e-05 0.0000000e+00 
0.0000000e+00 -5.0746647e-05 0.0000000e+00 
0.0000000e+00 -5.1509636e-05 0.0000000e+00 
0.0000000e+00 -5.2634576e-05 0.0000000e+00 
0.0000000e+00 -5.6265912e-05 0.0000000e+00 
0.0000000e+00 -6.3283311e-05 0.0000000e+00 
0.0000000e+00 -7.1135190e-05 0.0000000e+00 
0.0000000e+00 -7.7784694e-05 0.0000000e+00 
0.0000000e+00 -8.5824271e-05 0.0000000e+00 
0.0000000e+00 -9.7646385e-05 0.0000000e+00 
0.0000000e+00 -1.1447455e-04 0.0000000e+00 
0.0000000e+00 -1.3526937e-04 0.0000000e+00 
0.0000000e+00 -1.6427004e-04 0.0000000e+00 
0.0000000e+00 -2.1280863e-04 0.0000000e+00 
0.0000000e+00 -3.1727689e-04 0.0000000e+00 
0.0000000e+00 -5.2626437e-04 0.0000000e+00 
0.0000000e+00 -8.1632228e-04 0.0000000e+00 
0.0000000e+00 -9.8037219e-04 0.0000000e+00 
0.0000000e+00 -7.7959400e-04 0.0000000e+00 
0.0000000e+00 -5.9372629e-04 0.0000000e+00 
0.0000000e+00 -6.3073670e-04 0.0000000e+00 
0.0000000e+00 -8.6297374e-04 0.0000000e+00 
0.0000000e+00 -1.0465649e-03 0.0000000e+00 
0.0000000e+00 -7.9931365e-04 0.0000000e+00 
0.0000000e+00 -4.8614203e-04 0.0000000e+00 
0.0000000e+00 -2.9365064e-04 0.0000000e+00 
0.0000000e+00 -1.9842325e-04 0.0000000e+00 
0.0000000e+00 -1.5210548e-04 0.0000000e+00 
0.0000000e+00 -1.2528236e-04 0.0000000e+00 
0.0000000e+00 -1.0520945e-04 0.0000000e+00 
0.0000000e+00 -8.8757726e-05 0.0000000e+00 
0.0000000e+00 -7.3312032e-05 0.0000000e+00 
0.0000000e+00 -6.1080769e-05 0.0000000e+00 
0.0000000e+00 -5.2779524e-05 0.0000000e+00 
0.0000000e+00 -4.6710928e-05 0.0000000e+00 
0.0000000e+00 -4.1086627e-05 0.0000000e+00 
0.0000000e+00 -3.5961220e-05 0.0000000e+00 
0.0000000e+00 -3.0875195e-05 0.0000000e+00 
0.0000000e+00 -2.6526375e-05 0.0000000e+00 
0.0000000e+00 -2.2751388e-05 0.0000000e+00 
0.0000000e+00 -1.9661280e-05 0.0000000e+00 
0.0000000e+00 -1.6768832e-05 0.0000000e+00 
0.0000000e+00 -1.4456135e-05 0.0000000e+00 
0.0000000e+00 -1.2728505e-05 0.0000000e+00 
0.0000000e+00 -1.1118746e-05 0.0000000e+00 
0.0000000e+00 -9.4875968e-06 0.0000000e+00 
0.0000000e+00 -8.0249119e-06 0.0000000e+00 
0.0000000e+00 -6.8416552e-06 0.0000000e+00 
0.0000000e+00 -5.7524348e-06 0.0000000e+00 
0.0000000e+00 -4.7204890e-06 0.0000000e+00 
0.0000000e+00 -4.0484069e-06 0.0000000e+00 
0.0000000e+00 -3.5461151e-06 0.0000000e+00 
0.0000000e+00 -3.0547419e-06 0.0000000e+00 
0.0000000e+00 -2.5577774e-06 0.0000000e+00 
0.0000000e+00 -2.1020137e-06 0.0000000e+00 
0.0000000e+00 -1.7146481e-06 0.0000000e+00 
0.0000000e+00 -1.3893759e-06 0.0000000e+00 
0.0000000e+00 -1.1235626e-06 0.0000000e+00 
0.0000000e+00 -9.1523651e-07 0.0000000e+00 
0.0000000e+00 -7.4724204e-07 0.0000000e+00 
0.0000000e+00 -6.0443995e-07 0.0000000e+00 
0.0000000e+00 -4.7321763e-07 0.0000000e+00 
0.0000000e+00 -3.5979204e-07 0.0000000e+00 
0.0000000e+00 -2.6808851e-07 0.0000000e+00 
0.0000000e+00 -1.9354344e-07 0.0000000e+00 
0.0000000e+00 -1.2700214e-07 0.0000000e+00 
0.0000000e+00 -7.1456732e-08 0.0000000e+00 
0.0000000e+00 -2.8514279e-08 0.0000000e+00 
0.0000000e+00 6.5790315e-09 0.0000000e+00 
0.0000000e+00 3.5797637e-08 0.0000000e+00 
0.0000000e+00 5.9330144e-08 0.0000000e+00 
0.0000000e+00 7.8791537e-08 0.0000000e+00 
0.0000000e+00 9.6079241e-08 0.0000000e+00 
0.0000000e+00 1.0904790e-07 0.0000000e+00 
0.0000000e+00 1.1942156e-07 0.0000000e+00 
0.0000000e+00 1.2893264e-07 0.0000000e+00 
0.0000000e+00 1.3568399e-07 0.0000000e+00 
0.0000000e+00 1.3844644e-07 0.0000000e+00 
-3.5259236e-05 -1.3507485e-04 -4.7167036e-05 
-3.3156604e-05 -8.6226173e-05 -2.8507386e-05 
-1.8776933e-05 -2.6452464e-05 -9.1964266e-06 
0.0000000e+00 0.0000000e+00 0.0000000e+00 
0.0000000e+00 0.0000000e+00 0.0000000e+00 
0.0000000e+00 0.0000000e+00 0.0000000e+00 
0.0000000e+00 0.0000000e+00 0.0000000e+00 
0.0000000e+00 0.0000000e+00 0.0000000e+00 
0.0000000e+00 0.0000000e+00 0.0000000e+00 
0.0000000e+00 0.0000000e+00 0.0000000e+00 
0.0000000e+00 0.0000000e+00 0.0000000e+00 
0.0000000e+00 0.0000000e+00 0.0000000e+00 
0.0000000e+00 0.0000000e+00 0.0000000e+00 
0.0000000e+00 0.0000000e+00 0.0000000e+00 
0.0000000e+00 0.0000000e+00 0.0000000e+00 
0.0000000e+00 0.0000000e+00 0.0000000e+00 
0.0000000e+00 0.0000000e+00 0.0000000e+00 
0.0000000e+00 0.0000000e+00 0.0000000e+00 
0.0000000e+00 0.0000000e+00 0.0000000e+00 
0.0000000e+00 0.0000000e+00 0.0000000e+00 
0.0000000e+00 0.0000000e+00 0.0000000e+00 
0.0000000e+00 0.0000000e+00 0.0000000e+00 
0.0000000e+00 0.0000000e+00 0.0000000e+00 
0.0000000e+00 0.0000000e+00 0.0000000e+00 
0.0000000e+00 0.0000000e+00 0.0000000e+00 
0.0000000e+00 0.0000000e+00 0.0000000e+00 
0.0000000e+00 0.0000000e+00 0.0000000e+00 
0.0000000e+00 0.0000000e+00 0.0000000e+00 
0.0000000e+00 0.0000000e+00 0.0000000e+00 
0.0000000e+00 0.0000000e+00 0.0000000e+00 
0.0000000e+00 0.0000000e+00 0.0000000e+00 
0.0000000e+00 0.0000000e+00 0.0000000e+00 
0.0000000e+00 0.0000000e+00 0.0000000e+00 
0.0000000e+00 0.0000000e+00 0.0000000e+00 
0.0000000e+00 0.0000000e+00 0.0000000e+00 
0.0000000e+00 0.0000000e+00 0.0000000e+00 
0.0000000e+00 0.0000000e+00 0.0000000e+00 
0.0000000e+00 0.0000000e+00 0.0000000e+00 
0.0000000e+00 0.0000000e+00 0.0000000e+00 
0.0000000e+00 0.0000000e+00 0.0000000e+00 
0.0000000e+00 0.0000000e+00 0.0000000e+00 
0.0000000e+00 0.0000000e+00 0.0000000e+00 
0.0000000e+00 0.0000000e+00 0.0000000e+00 
0.0000000e+00 0.0000000e+00 0.0000000e+00 
0.0000000e+00 0.0000000e+00 0.0000000e+00 
0.0000000e+00 0.0000000e+00 0.0000000e+00 
0.0000000e+00 0.0000000e+00 0.0000000e+00 
0.0000000e+00 0.0000000e+00 0.0000000e+00 
0.0000000e+00 0.0000000e+00 0.0000000e+00 
0.0000000e+00 0.0000000e+00 0.0000000e+00 
0.0000000e+00 0.0000000e+00 0.0000000e+00 
0.0000000e+00 0.0000000e+00 0.0000000e+00 
0.0000000e+00 0.0000000e+00 0.0000000e+00 
0.0000000e+00 0.0000000e+00 0.0000000e+00 
0.0000000e+00 0.0000000e+00 0.0000000e+00 
0.0000000e+00 0.0000000e+00 0.0000000e+00 
0.0000000e+00 0.0000000e+00 0.0000000e+00 
0.0000000e+00 0.0000000e+00 0.0000000e+00 
0.0000000e+00 0.0000000e+00 0.0000000e+00 
0.0000000e+00 0.0000000e+00 0.0000000e+00 
0.0000000e+00 0.0000000e+00 0.0000000e+00 
0.0000000e+00 0.0000000e+00 0.0000000e+00 
0.0000000e+00 0.0000000e+00 0.0000000e+00 
0.0000000e+00 0.0000000e+00 0.0000000e+00 
0.0000000e+00 0.0000000e+00 0.0000000e+00 
0.0000000e+00 0.0000000e+00 0.0000000e+00 
0.0000000e+00 0.0000000e+00 0.0000000e+00 
0.0000000e+00 0.0000000e+00 0.0000000e+00 
0.0000000e+00 0.0000000e+00 0.0000000e+00 
0.0000000e+00 0.0000000e+00 0.0000000e+00 
0.0000000e+00 0.0000000e+00 0.0000000e+00 
0.0000000e+00 0.0000000e+00 0.0000000e+00 
0.0000000e+00 0.0000000e+00 0.0000000e+00 
0.0000000e+00 0.0000000e+00 0.0000000e+00 
0.0000000e+00 0.0000000e+00 0.0000000e+00 
0.0000000e+00 0.0000000e+00 0.0000000e+00 
0.0000000e+00 0.0000000e+00 0.0000000e+00 
0.0000000e+00 0.0000000e+00 0.0000000e+00 
0.0000000e+00 0.0000000e+00 0.0000000e+00 
0.0000000e+00 0.0000000e+00 0.0000000e+00 
0.0000000e+00 0.0000000e+00 0.0000000e+00 
0.0000000e+00 0.0000000e+00 0.0000000e+00 
0.0000000e+00 0.0000000e+00 0.0000000e+00 
0.0000000e+00 0.0000000e+00 0.0000000e+00 
0.0000000e+00 0.0000000e+00 0.0000000e+00 
0.0000000e+00 0.0000000e+00 0.0000000e+00 
0.0000000e+00 0.0000000e+00 0.0000000e+00 
0.0000000e+00 0.0000000e+00 0.0000000e+00 
0.0000000e+00 0.0000000e+00 0.0000000e+00 
0.0000000e+00 0.0000000e+00 0.0000000e+00 
0.0000000e+00 0.0000000e+00 0.0000000e+00 
0.0000000e+00 0.0000000e+00 0.0000000e+00 
0.0000000e+00 0.0000000e+00 0.0000000e+00 
0.0000000e+00 0.0000000e+00 0.0000000e+00 
0.0000000e+00 0.0000000e+00 0.0000000e+00 
0.0000000e+00 0.0000000e+00 0.0000000e+00 
0.0000000e+00 0.0000000e+00 0.0000000e+00 
0.0000000e+00 0.0000000e+00 0.0000000e+00 
0.0000000e+00 0.0000000e+00 0.0000000e+00 
0.0000000e+00 0.0000000e+00 0.0000000e+00 
0.0000000e+00 0.0000000e+00 0.0000000e+00 
0.0000000e+00 0.0000000e+00 0.0000000e+00 
0.0000000e+00 0.0000000e+00 0.0000000e+00 
0.0000000e+00 0.0000000e+00 0.0000000e+00 
0.0000000e+00 0.0000000e+00 0.0000000e+00 
0.0000000e+00 0.0000000e+00 0.0000000e+00 
0.0000000e+00 0.0000000e+00 0.0000000e+00 
0.0000000e+00 0.0000000e+00 0.0000000e+00 
0.0000000e+00 0.0000000e+00 0.0000000e+00 
0.0000000e+00 0.0000000e+00 0.0000000e+00 
0.0000000e+00 0.0000000e+00 0.0000000e+00 
0.0000000e+00 0.0000000e+00 0.0000000e+00 
0.0000000e+00 0.0000000e+00 0.0000000e+00 
0.0000000e+00 0.0000000e+00 0.0000000e+00 
0.0000000e+00 0.0000000e+00 0.0000000e+00 
0.0000000e+00 0.0000000e+00 0.0000000e+00 
0.0000000e+00 0.0000000e+00 0.0000000e+00 
0.0000000e+00 0.0000000e+00 0.0000000e+00 
0.0000000e+00 0.0000000e+00 0.0000000e+00 
3.6722820e-05 -2.8765848e-05 3.2104440e-06 
3.5573608e-05 -2.7910510e-05 6.1251221e-06 
3.3328215e-05 -2.5185265e-05 8.3884306e-06 
3.0530191e-05 -2.2596081e-05 9.9455465e-06 
2.7531241e-05 -2.0077836e-05 1.0845870e-05 
2.4422618e-05 -1.6875681e-05 1.0626915e-05 
2.1942211e-05 -1.5147676e-05 1.0217139e-05 
1.9237137e-05 -1.2511709e-05 8.6845675e-06 
1.7219938e-05 -1.1054203e-05 7.0195283e-06 
1.5798045e-05 -1.0198805e-05 4.9589257e-06 
1.4805320e-05 -9.3452509e-06 2.7529504e-06 
1.4297389e-05 -9.2121363e-06 7.2636266e-07 
1.4408274e-05 -9.0456524e-06 -1.1394778e-06 
1.5014732e-05 -9.7415978e-06 -2.7050171e-06 
1.5965168e-05 -1.0747662e-05 -3.8968328e-06 
1.7058377e-05 -1.1753168e-05 -4.6055220e-06 
1.8525945e-05 -1.2902615e-05 -4.5937040e-06 
1.9538440e-05 -1.4120073e-05 -3.9222905e-06 
2.0656895e-05 -1.4679795e-05 -2.7510923e-06 
2.1117325e-05 -1.5678908e-05 -1.2050717e-06 
2.1349191e-05 -1.5827345e-05 6.7172209e-07 
2.1136497e-05 -1.5658197e-05 2.5212403e-06 
2.0342433e-05 -1.5040485e-05 4.3656951e-06 
1.9020703e-05 -1.4209641e-05 6.0592488e-06 
1.7375522e-05 -1.2743765e-05 7.4587865e-06 
1.5560550e-05 -1.1292368e-05 8.1889730e-06 
1.3524011e-05 -9.6012391e-06 8.8503584e-06 
1.1598457e-05 -8.3194755e-06 8.7997450e-06 
9.8451819e-06 -6.8869699e-06 8.5159145e-06 
8.0674718e-06 -5.6615586e-06 7.9803804e-06 
6.4970395e-06 -4.4733715e-06 7.2453863e-06 
5.2303194e-06 -3.5251253e-06 6.4345377e-06 
4.1301382e-06 -2.6688394e-06 5.5904475e-06 
3.1709865e-06 -1.9144331e-06 4.8180609e-06 
2.4823921e-06 -1.4319999e-06 4.0815867e-06 
1.9211418e-06 -9.8397402e-07 3.4182447e-06 
1.4639714e-06 -6.8488936e-07 2.8306881e-06 
1.0978830e-06 -4.6999784e-07 2.3226401e-06 
8.1110909e-07 -2.5561044e-07 1.8826909e-06 
6.0187932e-07 -1.4778560e-07 1.5264011e-06 
4.4035039e-07 -5.7177918e-08 1.2233716e-06 
3.0772065e-07 1.1148511e-08 9.6722977e-07 
2.1305617e-07 4.5832458e-08 7.6998589e-07 
1.3752721e-07 7.2009797e-08 6.0972565e-07 
9.3151854e-08 8.7380229e-08 4.9363513e-07 
4.8703853e-08 1.0086156e-07 4.0469916e-07 
1.5338133e-08 1.0359139e-07 3.3142578e-07 
-6.5778676e-09 1.0499480e-07 2.7814531e-07 
-2.6377835e-08 9.2426625e-08 2.3976438e-07 
2.1692553e-05 -1.9180792e-05 -2.7480623e-06 
-1.4206883e-08 -1.1701356e-08 1.0038320e-07 
0.0000000e+00 -2.7669548e-05 0.0000000e+00 
0.0000000e+00 -1.9630537e-05 0.0000000e+00 
0.0000000e+00 -2.0428777e-05 0.0000000e+00 
0.0000000e+00 -1.6674894e-05 0.0000000e+00 
0.0000000e+00 -1.4143498e-05 0.0000000e+00 
0.0000000e+00 -1.2116499e-05 0.0000000e+00 
0.0000000e+00 -1.1648094e-05 0.0000000e+00 
0.0000000e+00 -8.6465816e-06 0.0000000e+00 
0.0000000e+00 -4.7945537e-06 0.0000000e+00 
0.0000000e+00 -5.9809026e-06 0.0000000e+00 
0.0000000e+00 -5.8347719e-06 0.0000000e+00 
0.0000000e+00 -5.6194108e-06 0.0000000e+00 
0.0000000e+00 -4.6135665e-06 0.0000000e+00 
0.0000000e+00 -7.3455208e-06 0.0000000e+00 
0.0000000e+00 -7.6482129e-06 0.0000000e+00 
0.0000000e+00 -6.7963952e-06 0.0000000e+00 
0.0000000e+00 -9.8588762e-06 0.0000000e+00 
0.0000000e+00 -9.2784276e-06 0.0000000e+00 
0.0000000e+00 -1.1858324e-05 0.0000000e+00 
0.0000000e+00 -1.7140828e-05 0.0000000e+00 
0.0000000e+00 -1.0786675e-05 0.0000000e+00 
0.0000000e+00 -1.2112535e-05 0.0000000e+00 
0.0000000e+00 -1.2878550e-05 0.0000000e+00 
0.0000000e+00 -9.2428709e-06 0.0000000e+00 
0.0000000e+00 -9.7431084e-06 0.0000000e+00 
0.0000000e+00 -8.7642265e-06 0.0000000e+00 
0.0000000e+00 -1.0172215e-05 0.0000000e+00 
0.0000000e+00 -4.6887671e-06 0.0000000e+00 
0.0000000e+00 -4.2266993e-06 0.0000000e+00 
0.0000000e+00 -3.7042971e-06 0.0000000e+00 
0.0000000e+00 -2.9135483e-06 0.0000000e+00 
0.0000000e+00 -1.5611063e-06 0.0000000e+00 
0.0000000e+00 -1.4163685e-06 0.0000000e+00 
0.0000000e+00 -1.3393122e-06 0.0000000e+00 
0.0000000e+00 -7.9528053e-07 0.0000000e+00 
0.0000000e+00 -5.1409256e-07 0.0000000e+00 
0.0000000e+00 -6.0452624e-07 0.0000000e+00 
0.0000000e+00 -4.2427405e-07 0.0000000e+00 
0.0000000e+00 -2.9736404e-07 0.0000000e+00 
0.0000000e+00 -1.3574194e-07 0.0000000e+00 
0.0000000e+00 -1.2216810e-07 0.0000000e+00 
0.0000000e+00 -7.3814178e-08 0.0000000e+00 
0.0000000e+00 -3.9233090e-08 0.0000000e+00 
0.0000000e+00 -3.0137326e-08 0.0000000e+00 
0.0000000e+00 -1.0608427e-08 0.0000000e+00 
0.0000000e+00 -9.6992183e-09 0.0000000e+00 
0.0000000e+00 2.2867068e-09 0.0000000e+00 
0.0000000e+00 2.8875444e-09 0.0000000e+00 
0.0000000e+00 3.7120527e-09 0.0000000e+00 
3.7621146e-05 -2.1988797e-05 -1.3255417e-06 
3.7748563e-05 -2.4235702e-05 -3.7436262e-06 
3.8411257e-05 -2.9937299e-05 -6.3417474e-06 
3.8622613e-05 -3.8555681e-05 -8.9573550e-06 