# vtk DataFile Version 4.0
vtk output
ASCII
DATASET UNSTRUCTURED_GRID
POINTS 7705 float
0.0000000e+00 3.7700000e+00 0.0000000e+00 
0.0000000e+00 3.7700000e+00 5.0000000e+01 
1.0000000e+01 3.7700000e+00 0.0000000e+00 
1.0000000e+01 3.7700000e+00 5.0000000e+01 
1.0000000e+01 5.7700000e+00 0.0000000e+00 
1.0000000e+01 5.7700000e+00 5.0000000e+01 
0.0000000e+00 5.7700000e+00 0.0000000e+00 
0.0000000e+00 5.7700000e+00 5.0000000e+01 
1.0000000e+01 7.2700000e+00 0.0000000e+00 
1.0000000e+01 7.2700000e+00 5.0000000e+01 
0.0000000e+00 7.2700000e+00 0.0000000e+00 
0.0000000e+00 7.2700000e+00 5.0000000e+01 
1.0000000e+01 9.7700005e+00 0.0000000e+00 
1.0000000e+01 9.7700005e+00 5.0000000e+01 
0.0000000e+00 9.7700005e+00 0.0000000e+00 
0.0000000e+00 9.7700005e+00 5.0000000e+01 
1.0000000e+01 1.1770000e+01 0.0000000e+00 
1.0000000e+01 1.1770000e+01 5.0000000e+01 
0.0000000e+00 1.1770000e+01 0.0000000e+00 
0.0000000e+00 1.1770000e+01 5.0000000e+01 
1.0000000e+01 1.4770000e+01 0.0000000e+00 
1.0000000e+01 1.4770000e+01 5.0000000e+01 
0.0000000e+00 1.4770000e+01 0.0000000e+00 
0.0000000e+00 1.4770000e+01 5.0000000e+01 
1.0000000e+01 1.5070000e+01 0.0000000e+00 
1.0000000e+01 1.5070000e+01 5.0000000e+01 
7.5000000e-01 1.5070000e+01 0.0000000e+00 
7.5000000e-01 1.5070000e+01 5.0000000e+01 
0.0000000e+00 1.5070000e+01 0.0000000e+00 
0.0000000e+00 1.5070000e+01 5.0000000e+01 
7.5000000e-01 1.5070000e+01 5.0000000e-01 
7.5000000e-01 1.5070000e+01 1.0000000e+00 
7.5000000e-01 1.5070000e+01 1.5000000e+00 
7.5000000e-01 1.5070000e+01 2.0000000e+00 
7.5000000e-01 1.5070000e+01 2.5000000e+00 
7.5000000e-01 1.5070000e+01 3.0000000e+00 
7.5000000e-01 1.5070000e+01 3.5000000e+00 
7.5000000e-01 1.5070000e+01 4.0000000e+00 
7.5000000e-01 1.5070000e+01 4.5000000e+00 
7.5000000e-01 1.5070000e+01 5.0000000e+00 
7.5000000e-01 1.5070000e+01 5.5000000e+00 
7.5000000e-01 1.5070000e+01 6.0000000e+00 
7.5000000e-01 1.5070000e+01 6.5000000e+00 
7.5000000e-01 1.5070000e+01 7.0000000e+00 
7.5000000e-01 1.5070000e+01 7.5000000e+00 
7.5000000e-01 1.5070000e+01 8.0000000e+00 
7.5000000e-01 1.5070000e+01 8.5000000e+00 
7.5000000e-01 1.5070000e+01 9.0000000e+00 
7.5000000e-01 1.5070000e+01 9.5000000e+00 
7.5000000e-01 1.5070000e+01 1.0000000e+01 
7.5000000e-01 1.5070000e+01 1.0500000e+01 
7.5000000e-01 1.5070000e+01 1.1000000e+01 
7.5000000e-01 1.5070000e+01 1.1500000e+01 
7.5000000e-01 1.5070000e+01 1.2000000e+01 
7.5000000e-01 1.5070000e+01 1.2500000e+01 
7.5000000e-01 1.5070000e+01 1.3000000e+01 
7.5000000e-01 1.5070000e+01 1.3500000e+01 
7.5000000e-01 1.5070000e+01 1.4000000e+01 
7.5000000e-01 1.5070000e+01 1.4500000e+01 
7.5000000e-01 1.5070000e+01 1.5000000e+01 
7.5000000e-01 1.5070000e+01 1.5500000e+01 
7.5000000e-01 1.5070000e+01 1.6000000e+01 
7.5000000e-01 1.5070000e+01 1.6500000e+01 
7.5000000e-01 1.5070000e+01 1.7000000e+01 
7.5000000e-01 1.5070000e+01 1.7500000e+01 
7.5000000e-01 1.5070000e+01 1.8000000e+01 
7.5000000e-01 1.5070000e+01 1.8500000e+01 
7.5000000e-01 1.5070000e+01 1.9000000e+01 
7.5000000e-01 1.5070000e+01 1.9500000e+01 
7.5000000e-01 1.5070000e+01 2.0000000e+01 
7.5000000e-01 1.5070000e+01 2.0500000e+01 
7.5000000e-01 1.5070000e+01 2.1000000e+01 
7.5000000e-01 1.5070000e+01 2.1500000e+01 
7.5000000e-01 1.5070000e+01 2.2000000e+01 
7.5000000e-01 1.5070000e+01 2.2500000e+01 
7.5000000e-01 1.5070000e+01 2.3000000e+01 
7.5000000e-01 1.5070000e+01 2.3500000e+01 
7.5000000e-01 1.5070000e+01 2.4000000e+01 
7.5000000e-01 1.5070000e+01 2.4500000e+01 
7.5000000e-01 1.5070000e+01 2.5000000e+01 
7.5000000e-01 1.5070000e+01 2.5500000e+01 
7.5000000e-01 1.5070000e+01 2.6000000e+01 
7.5000000e-01 1.5070000e+01 2.6500000e+01 
7.5000000e-01 1.5070000e+01 2.7000000e+01 
7.5000000e-01 1.5070000e+01 2.7500000e+01 
7.5000000e-01 1.5070000e+01 2.8000000e+01 
7.5000000e-01 1.5070000e+01 2.8500000e+01 
7.5000000e-01 1.5070000e+01 2.9000000e+01 
7.5000000e-01 1.5070000e+01 2.9500000e+01 
7.5000000e-01 1.5070000e+01 3.0000000e+01 
7.5000000e-01 1.5070000e+01 3.0500000e+01 
7.5000000e-01 1.5070000e+01 3.1000000e+01 
7.5000000e-01 1.5070000e+01 3.1500000e+01 
7.5000000e-01 1.5070000e+01 3.2000000e+01 
7.5000000e-01 1.5070000e+01 3.2500000e+01 
7.5000000e-01 1.5070000e+01 3.3000000e+01 
7.5000000e-01 1.5070000e+01 3.3500000e+01 
7.5000000e-01 1.5070000e+01 3.4000000e+01 
7.5000000e-01 1.5070000e+01 3.4500000e+01 
7.5000000e-01 1.5070000e+01 3.5000000e+01 
7.5000000e-01 1.5070000e+01 3.5500000e+01 
7.5000000e-01 1.5070000e+01 3.6000000e+01 
7.5000000e-01 1.5070000e+01 3.6500000e+01 
7.5000000e-01 1.5070000e+01 3.7000000e+01 
7.5000000e-01 1.5070000e+01 3.7500000e+01 
7.5000000e-01 1.5070000e+01 3.8000000e+01 
7.5000000e-01 1.5070000e+01 3.8500000e+01 
7.5000000e-01 1.5070000e+01 3.9000000e+01 
7.5000000e-01 1.5070000e+01 3.9500000e+01 
7.5000000e-01 1.5070000e+01 4.0000000e+01 
7.5000000e-01 1.5070000e+01 4.0500000e+01 
7.5000000e-01 1.5070000e+01 4.1000000e+01 
7.5000000e-01 1.5070000e+01 4.1500000e+01 
7.5000000e-01 1.5070000e+01 4.2000000e+01 
7.5000000e-01 1.5070000e+01 4.2500000e+01 
7.5000000e-01 1.5070000e+01 4.3000000e+01 
7.5000000e-01 1.5070000e+01 4.3500000e+01 
7.5000000e-01 1.5070000e+01 4.4000000e+01 
7.5000000e-01 1.5070000e+01 4.4500000e+01 
7.5000000e-01 1.5070000e+01 4.5000000e+01 
7.5000000e-01 1.5070000e+01 4.5500000e+01 
7.5000000e-01 1.5070000e+01 4.6000000e+01 
7.5000000e-01 1.5070000e+01 4.6500000e+01 
7.5000000e-01 1.5070000e+01 4.7000000e+01 
7.5000000e-01 1.5070000e+01 4.7500000e+01 
7.5000000e-01 1.5070000e+01 4.8000000e+01 
7.5000000e-01 1.5070000e+01 4.8500000e+01 
7.5000000e-01 1.5070000e+01 4.9000000e+01 
7.5000000e-01 1.5070000e+01 4.9500000e+01 
7.5000000e-01 1.5095000e+01 0.0000000e+00 
7.5000000e-01 1.5095000e+01 5.0000000e-01 
7.5000000e-01 1.5095000e+01 1.0000000e+00 
7.5000000e-01 1.5095000e+01 1.5000000e+00 
7.5000000e-01 1.5095000e+01 2.0000000e+00 
7.5000000e-01 1.5095000e+01 2.5000000e+00 
7.5000000e-01 1.5095000e+01 3.0000000e+00 
7.5000000e-01 1.5095000e+01 3.5000000e+00 
7.5000000e-01 1.5095000e+01 4.0000000e+00 
7.5000000e-01 1.5095000e+01 4.5000000e+00 
7.5000000e-01 1.5095000e+01 5.0000000e+00 
7.5000000e-01 1.5095000e+01 5.5000000e+00 
7.5000000e-01 1.5095000e+01 6.0000000e+00 
7.5000000e-01 1.5095000e+01 6.5000000e+00 
7.5000000e-01 1.5095000e+01 7.0000000e+00 
7.5000000e-01 1.5095000e+01 7.5000000e+00 
7.5000000e-01 1.5095000e+01 8.0000000e+00 
7.5000000e-01 1.5095000e+01 8.5000000e+00 
7.5000000e-01 1.5095000e+01 9.0000000e+00 
7.5000000e-01 1.5095000e+01 9.5000000e+00 
7.5000000e-01 1.5095000e+01 1.0000000e+01 
7.5000000e-01 1.5095000e+01 1.0500000e+01 
7.5000000e-01 1.5095000e+01 1.1000000e+01 
7.5000000e-01 1.5095000e+01 1.1500000e+01 
7.5000000e-01 1.5095000e+01 1.2000000e+01 
7.5000000e-01 1.5095000e+01 1.2500000e+01 
7.5000000e-01 1.5095000e+01 1.3000000e+01 
7.5000000e-01 1.5095000e+01 1.3500000e+01 
7.5000000e-01 1.5095000e+01 1.4000000e+01 
7.5000000e-01 1.5095000e+01 1.4500000e+01 
7.5000000e-01 1.5095000e+01 1.5000000e+01 
7.5000000e-01 1.5095000e+01 1.5500000e+01 
7.5000000e-01 1.5095000e+01 1.6000000e+01 
7.5000000e-01 1.5095000e+01 1.6500000e+01 
7.5000000e-01 1.5095000e+01 1.7000000e+01 
7.5000000e-01 1.5095000e+01 1.7500000e+01 
7.5000000e-01 1.5095000e+01 1.8000000e+01 
7.5000000e-01 1.5095000e+01 1.8500000e+01 
7.5000000e-01 1.5095000e+01 1.9000000e+01 
7.5000000e-01 1.5095000e+01 1.9500000e+01 
7.5000000e-01 1.5095000e+01 2.0000000e+01 
7.5000000e-01 1.5095000e+01 2.0500000e+01 
7.5000000e-01 1.5095000e+01 2.1000000e+01 
7.5000000e-01 1.5095000e+01 2.1500000e+01 
7.5000000e-01 1.5095000e+01 2.2000000e+01 
7.5000000e-01 1.5095000e+01 2.2500000e+01 
7.5000000e-01 1.5095000e+01 2.3000000e+01 
7.5000000e-01 1.5095000e+01 2.3500000e+01 
7.5000000e-01 1.5095000e+01 2.4000000e+01 
7.5000000e-01 1.5095000e+01 2.4500000e+01 
7.5000000e-01 1.5095000e+01 2.5000000e+01 
7.5000000e-01 1.5095000e+01 2.5500000e+01 
7.5000000e-01 1.5095000e+01 2.6000000e+01 
7.5000000e-01 1.5095000e+01 2.6500000e+01 
7.5000000e-01 1.5095000e+01 2.7000000e+01 
7.5000000e-01 1.5095000e+01 2.7500000e+01 
7.5000000e-01 1.5095000e+01 2.8000000e+01 
7.5000000e-01 1.5095000e+01 2.8500000e+01 
7.5000000e-01 1.5095000e+01 2.9000000e+01 
7.5000000e-01 1.5095000e+01 2.9500000e+01 
7.5000000e-01 1.5095000e+01 3.0000000e+01 
7.5000000e-01 1.5095000e+01 3.0500000e+01 
7.5000000e-01 1.5095000e+01 3.1000000e+01 
7.5000000e-01 1.5095000e+01 3.1500000e+01 
7.5000000e-01 1.5095000e+01 3.2000000e+01 
7.5000000e-01 1.5095000e+01 3.2500000e+01 
7.5000000e-01 1.5095000e+01 3.3000000e+01 
7.5000000e-01 1.5095000e+01 3.3500000e+01 
7.5000000e-01 1.5095000e+01 3.4000000e+01 
7.5000000e-01 1.5095000e+01 3.4500000e+01 
7.5000000e-01 1.5095000e+01 3.5000000e+01 
7.5000000e-01 1.5095000e+01 3.5500000e+01 
7.5000000e-01 1.5095000e+01 3.6000000e+01 
7.5000000e-01 1.5095000e+01 3.6500000e+01 
7.5000000e-01 1.5095000e+01 3.7000000e+01 
7.5000000e-01 1.5095000e+01 3.7500000e+01 
7.5000000e-01 1.5095000e+01 3.8000000e+01 
7.5000000e-01 1.5095000e+01 3.8500000e+01 
7.5000000e-01 1.5095000e+01 3.9000000e+01 
7.5000000e-01 1.5095000e+01 3.9500000e+01 
7.5000000e-01 1.5095000e+01 4.0000000e+01 
7.5000000e-01 1.5095000e+01 4.0500000e+01 
7.5000000e-01 1.5095000e+01 4.1000000e+01 
7.5000000e-01 1.5095000e+01 4.1500000e+01 
7.5000000e-01 1.5095000e+01 4.2000000e+01 
7.5000000e-01 1.5095000e+01 4.2500000e+01 
7.5000000e-01 1.5095000e+01 4.3000000e+01 
7.5000000e-01 1.5095000e+01 4.3500000e+01 
7.5000000e-01 1.5095000e+01 4.4000000e+01 
7.5000000e-01 1.5095000e+01 4.4500000e+01 
7.5000000e-01 1.5095000e+01 4.5000000e+01 
7.5000000e-01 1.5095000e+01 4.5500000e+01 
7.5000000e-01 1.5095000e+01 4.6000000e+01 
7.5000000e-01 1.5095000e+01 4.6500000e+01 
7.5000000e-01 1.5095000e+01 4.7000000e+01 
7.5000000e-01 1.5095000e+01 4.7500000e+01 
7.5000000e-01 1.5095000e+01 4.8000000e+01 
7.5000000e-01 1.5095000e+01 4.8500000e+01 
7.5000000e-01 1.5095000e+01 4.9000000e+01 
7.5000000e-01 1.5095000e+01 4.9500000e+01 
7.5000000e-01 1.5095000e+01 5.0000000e+01 
[...]
POINT_DATA 7705
FIELD FieldData 3
DISPLACEMENT 3 7705  float
0.0000000e+00 0.0000000e+00 0.0000000e+00 
0.0000000e+00 0.0000000e+00 0.0000000e+00 
0.0000000e+00 0.0000000e+00 0.0000000e+00 
0.0000000e+00 0.0000000e+00 0.0000000e+00 
3.7562135e-05 -2.7040638e-05 4.1712053e-07 
-3.6466574e-08 3.8650462e-08 2.0912766e-07 
0.0000000e+00 -5.6334560e-05 0.0000000e+00 
0.0000000e+00 2.0263420e-09 0.0000000e+00 
5.1580377e-05 -3.4271772e-05 5.9660879e-06 
-5.6489355e-08 1.7244209e-07 3.4067159e-07 
0.0000000e+00 -1.1047863e-04 0.0000000e+00 
0.0000000e+00 1.6992402e-08 0.0000000e+00 
4.4091303e-05 -3.5467037e-05 5.4510438e-06 
-9.2638992e-08 3.5090241e-07 3.2811568e-07 
0.0000000e+00 -2.0139191e-04 0.0000000e+00 
0.0000000e+00 6.3313422e-08 0.0000000e+00 
2.7626031e-05 -3.0225536e-05 1.3489242e-08 
-1.1766186e-07 4.6192343e-07 1.6246000e-07 
0.0000000e+00 -3.6068496e-04 0.0000000e+00 
0.0000000e+00 8.3275388e-08 0.0000000e+00 
-2.8416351e-05 -2.3606233e-05 -1.3808621e-05 
-1.9733591e-07 4.6468622e-07 5.0704166e-08 
0.0000000e+00 -9.9633448e-04 0.0000000e+00 
0.0000000e+00 1.0547929e-07 0.0000000e+00 
-3.4404657e-05 -2.3587159e-05 -1.4788724e-05 
-2.0411095e-07 4.6345363e-07 5.1457690e-08 
8.3398245e-06 -1.6107551e-03 -4.7761219e-04 
-5.9608020e-08 1.0574379e-07 -9.0862313e-09 
0.0000000e+00 -1.0818477e-03 0.0000000e+00 
0.0000000e+00 1.2093173e-07 0.0000000e+00 
1.7532674e-04 -1.2461665e-03 -2.6546657e-04 
8.0924387e-05 -7.8571262e-04 -1.4682949e-04 
1.1999575e-04 -6.5273786e-04 -1.1021103e-04 
7.4327749e-05 -7.7264983e-04 -9.5712297e-05 
1.0823284e-05 -8.9554308e-04 -9.4857154e-05 
1.5409352e-05 -6.7934016e-04 -9.9680976e-05 
8.6927947e-05 -3.9094681e-04 -1.3916980e-04 
5.1802723e-05 -2.1128121e-04 -8.9319539e-05 
4.9600534e-05 -1.2936813e-04 -6.3523388e-05 
2.8424745e-05 -1.0498500e-04 -4.4820379e-05 
3.1110212e-05 -9.5114061e-05 -4.3003907e-05 
2.1454816e-05 -9.1696536e-05 -3.3633365e-05 
2.6144018e-05 -8.6582135e-05 -3.3956152e-05 
2.0163265e-05 -7.5462718e-05 -3.0531901e-05 
1.5341198e-05 -6.2904372e-05 -2.7496228e-05 
1.2912241e-05 -5.5237371e-05 -2.0972795e-05 
1.6038510e-05 -4.8607504e-05 -1.9070621e-05 
1.2055262e-05 -4.2946362e-05 -1.4079854e-05 
1.3787814e-05 -3.8771410e-05 -1.1549075e-05 
9.8563287e-06 -3.5654444e-05 -9.4768420e-06 
1.1006501e-05 -3.2484018e-05 -6.3794150e-06 
9.2127220e-06 -3.1583255e-05 -3.9939810e-06 
9.8161609e-06 -3.2269822e-05 -2.9919049e-06 
8.4172261e-06 -3.3267384e-05 -9.8440194e-07 
1.0831994e-05 -3.3150729e-05 9.0214820e-07 
9.6064305e-06 -3.4235007e-05 2.8362667e-06 
1.2822407e-05 -3.6400947e-05 5.8080100e-06 
1.1417414e-05 -3.9053299e-05 8.6960354e-06 
1.0574293e-05 -4.2226504e-05 1.1316728e-05 
1.3053762e-05 -4.8117421e-05 1.2285675e-05 
1.8388364e-05 -5.4240296e-05 1.5369069e-05 
1.5282243e-05 -6.0357957e-05 1.4939159e-05 
2.1324086e-05 -6.6429158e-05 1.8635681e-05 
2.1412410e-05 -7.5106975e-05 2.0604393e-05 
3.2052980e-05 -8.7162931e-05 2.9083818e-05 
3.6264959e-05 -1.2405521e-04 3.4485693e-05 
5.8206333e-05 -2.0171922e-04 5.4820903e-05 
5.1273932e-05 -3.5614584e-04 6.5274209e-05 
2.0247902e-05 -5.9767562e-04 8.3037776e-05 
1.0714133e-05 -7.7302585e-04 1.8548884e-05 
1.0876564e-04 -6.0681684e-04 -3.7039059e-05 
6.4879925e-05 -4.1352925e-04 2.0625478e-06 
9.4116760e-05 -4.2749904e-04 1.8222554e-05 
3.7539361e-05 -6.5961672e-04 4.9464120e-06 
7.9192825e-05 -8.7996421e-04 -7.9005968e-06 
5.1326515e-05 -6.6101359e-04 -5.1603536e-05 
3.3348737e-05 -3.6469856e-04 -9.2022303e-05 
3.9313541e-05 -1.9181814e-04 -5.6565033e-05 
2.8816918e-05 -1.1511124e-04 -5.1908853e-05 
2.2410890e-05 -8.7098466e-05 -3.3356286e-05 
2.3185707e-05 -7.3569106e-05 -2.8480703e-05 
1.6536735e-05 -6.4645450e-05 -2.2528982e-05 
1.8199366e-05 -5.4544187e-05 -2.1715205e-05 
1.3431650e-05 -4.5577119e-05 -1.8795199e-05 
1.4736239e-05 -3.7489273e-05 -1.5360669e-05 
9.4350335e-06 -3.1180411e-05 -1.3427823e-05 
9.8253986e-06 -2.6795453e-05 -1.2498814e-05 
6.3455577e-06 -2.5061567e-05 -1.0349642e-05 
6.6207272e-06 -2.2732782e-05 -1.0233603e-05 
4.7229546e-06 -1.9831203e-05 -8.9613723e-06 
5.0728368e-06 -1.6518838e-05 -8.4524081e-06 
3.5138457e-06 -1.4480281e-05 -6.5334266e-06 
3.8275803e-06 -1.2992898e-05 -6.4342653e-06 
2.7673577e-06 -1.1724838e-05 -5.5499122e-06 
3.2307578e-06 -1.0168592e-05 -5.1386905e-06 
2.4734779e-06 -8.4266630e-06 -4.5198572e-06 
1.8855793e-06 -6.9792004e-06 -3.8622538e-06 
1.7021480e-06 -6.2129452e-06 -3.2236849e-06 
1.7261694e-06 -5.3835111e-06 -2.8881807e-06 
1.2734548e-06 -4.2691477e-06 -2.6139055e-06 
1.0237318e-06 -3.3541924e-06 -2.2419258e-06 
8.7432920e-07 -2.9779478e-06 -1.8934167e-06 
8.5771563e-07 -2.3655809e-06 -1.6548973e-06 
6.5573460e-07 -1.9843992e-06 -1.3246985e-06 
4.8828167e-07 -1.8608630e-06 -1.2760412e-06 
4.3931209e-07 -1.6232534e-06 -1.1633405e-06 
3.1478001e-07 -1.3045010e-06 -1.0461840e-06 
2.7093782e-07 -1.0807274e-06 -8.1938282e-07 
2.4503214e-07 -9.0870242e-07 -7.3270962e-07 
1.4542839e-07 -7.0946248e-07 -6.4558355e-07 
1.3745891e-07 -5.1753506e-07 -5.6195699e-07 
1.0700395e-07 -4.1328289e-07 -4.4182224e-07 
6.5655698e-08 -3.4912225e-07 -3.9278234e-07 
3.4764923e-08 -2.8938084e-07 -3.2290723e-07 
2.8462523e-08 -2.2577508e-07 -2.8416713e-07 
7.9817197e-10 -1.6939367e-07 -2.2501860e-07 
-3.6853947e-09 -1.2063110e-07 -1.9651156e-07 
-2.1590253e-08 -8.2096740e-08 -1.6256301e-07 
-2.3604413e-08 -4.3434355e-08 -1.4192761e-07 
-3.1209790e-08 -1.2071008e-08 -1.0791296e-07 
-3.8544353e-08 1.0856299e-08 -8.7108454e-08 
-4.6680597e-08 2.8911796e-08 -7.0395636e-08 
-5.0004942e-08 4.5623402e-08 -5.9070899e-08 
-4.9415522e-08 5.7620699e-08 -4.3585569e-08 
-5.3092236e-08 6.6057375e-08 -3.5603257e-08 
-5.9053367e-08 7.5569396e-08 -2.6510675e-08 
-6.3584551e-08 8.3399968e-08 -2.1140636e-08 
-6.2574209e-08 8.8660840e-08 -1.5958813e-08 
-6.8561256e-08 9.8250439e-08 -1.3179510e-08 
0.0000000e+00 -1.6614026e-03 0.0000000e+00 
0.0000000e+00 -1.2952981e-03 0.0000000e+00 
0.0000000e+00 -8.1085513e-04 0.0000000e+00 
0.0000000e+00 -6.6038867e-04 0.0000000e+00 
0.0000000e+00 -7.9656643e-04 0.0000000e+00 
0.0000000e+00 -9.3826110e-04 0.0000000e+00 
0.0000000e+00 -7.1304489e-04 0.0000000e+00 
0.0000000e+00 -4.0131027e-04 0.0000000e+00 
0.0000000e+00 -2.1059296e-04 0.0000000e+00 
0.0000000e+00 -1.2838452e-04 0.0000000e+00 
0.0000000e+00 -1.0339655e-04 0.0000000e+00 
0.0000000e+00 -9.4834111e-05 0.0000000e+00 
0.0000000e+00 -9.1618647e-05 0.0000000e+00 
0.0000000e+00 -8.6289481e-05 0.0000000e+00 
0.0000000e+00 -7.5339034e-05 0.0000000e+00 
0.0000000e+00 -6.3168816e-05 0.0000000e+00 
0.0000000e+00 -5.5135235e-05 0.0000000e+00 
0.0000000e+00 -4.8601552e-05 0.0000000e+00 
0.0000000e+00 -4.2943007e-05 0.0000000e+00 
0.0000000e+00 -3.8685659e-05 0.0000000e+00 
0.0000000e+00 -3.5514709e-05 0.0000000e+00 
0.0000000e+00 -3.2582906e-05 0.0000000e+00 
0.0000000e+00 -3.1667732e-05 0.0000000e+00 
0.0000000e+00 -3.2229247e-05 0.0000000e+00 
0.0000000e+00 -3.3147087e-05 0.0000000e+00 
0.0000000e+00 -3.3158623e-05 0.0000000e+00 
0.0000000e+00 -3.4244673e-05 0.0000000e+00 
0.0000000e+00 -3.6453563e-05 0.0000000e+00 
0.0000000e+00 -3.8963226e-05 0.0000000e+00 
0.0000000e+00 -4.2308700e-05 0.0000000e+00 
0.0000000e+00 -4.8063743e-05 0.0000000e+00 
0.0000000e+00 -5.4196804e-05 0.0000000e+00 
0.0000000e+00 -6.0262690e-05 0.0000000e+00 
0.0000000e+00 -6.6400506e-05 0.0000000e+00 
0.0000000e+00 -7.4238334e-05 0.0000000e+00 
0.0000000e+00 -8.6693712e-05 0.0000000e+00 
0.0000000e+00 -1.2273161e-04 0.0000000e+00 
0.0000000e+00 -2.0329600e-04 0.0000000e+00 
0.0000000e+00 -3.6370708e-04 0.0000000e+00 
0.0000000e+00 -6.2384317e-04 0.0000000e+00 
0.0000000e+00 -8.2548050e-04 0.0000000e+00 
0.0000000e+00 -6.3228811e-04 0.0000000e+00 
0.0000000e+00 -4.2165295e-04 0.0000000e+00 
0.0000000e+00 -4.3684512e-04 0.0000000e+00 
0.0000000e+00 -6.9111167e-04 0.0000000e+00 
0.0000000e+00 -9.2163956e-04 0.0000000e+00 
0.0000000e+00 -6.9121853e-04 0.0000000e+00 
0.0000000e+00 -3.7556485e-04 0.0000000e+00 
0.0000000e+00 -1.9186264e-04 0.0000000e+00 
0.0000000e+00 -1.1402728e-04 0.0000000e+00 
0.0000000e+00 -8.6116634e-05 0.0000000e+00 
0.0000000e+00 -7.3312724e-05 0.0000000e+00 
0.0000000e+00 -6.4397900e-05 0.0000000e+00 
0.0000000e+00 -5.4515593e-05 0.0000000e+00 
0.0000000e+00 -4.5452827e-05 0.0000000e+00 
0.0000000e+00 -3.7477319e-05 0.0000000e+00 
0.0000000e+00 -3.1051524e-05 0.0000000e+00 
0.0000000e+00 -2.6859174e-05 0.0000000e+00 
0.0000000e+00 -2.4948387e-05 0.0000000e+00 
0.0000000e+00 -2.2704577e-05 0.0000000e+00 
0.0000000e+00 -1.9808265e-05 0.0000000e+00 
0.0000000e+00 -1.6597163e-05 0.0000000e+00 
0.0000000e+00 -1.4477070e-05 0.0000000e+00 
0.0000000e+00 -1.2963119e-05 0.0000000e+00 
0.0000000e+00 -1.1699109e-05 0.0000000e+00 
0.0000000e+00 -1.0159615e-05 0.0000000e+00 
0.0000000e+00 -8.4187250e-06 0.0000000e+00 
0.0000000e+00 -7.0217238e-06 0.0000000e+00 
0.0000000e+00 -6.2066129e-06 0.0000000e+00 
0.0000000e+00 -5.3708973e-06 0.0000000e+00 
0.0000000e+00 -4.2751562e-06 0.0000000e+00 
0.0000000e+00 -3.3900374e-06 0.0000000e+00 
0.0000000e+00 -2.9366345e-06 0.0000000e+00 
0.0000000e+00 -2.3836396e-06 0.0000000e+00 
0.0000000e+00 -1.9989445e-06 0.0000000e+00 
0.0000000e+00 -1.8451748e-06 0.0000000e+00 
0.0000000e+00 -1.6228980e-06 0.0000000e+00 
0.0000000e+00 -1.3160161e-06 0.0000000e+00 
0.0000000e+00 -1.0817740e-06 0.0000000e+00 
0.0000000e+00 -9.0294679e-07 0.0000000e+00 
0.0000000e+00 -7.0757608e-07 0.0000000e+00 
0.0000000e+00 -5.2217280e-07 0.0000000e+00 
0.0000000e+00 -4.1285929e-07 0.0000000e+00 
0.0000000e+00 -3.4797031e-07 0.0000000e+00 
0.0000000e+00 -2.8932490e-07 0.0000000e+00 
0.0000000e+00 -2.2648801e-07 0.0000000e+00 
0.0000000e+00 -1.6927004e-07 0.0000000e+00 
0.0000000e+00 -1.2066222e-07 0.0000000e+00 
0.0000000e+00 -8.1369855e-08 0.0000000e+00 
0.0000000e+00 -4.3816673e-08 0.0000000e+00 
0.0000000e+00 -1.2198932e-08 0.0000000e+00 
0.0000000e+00 1.0928956e-08 0.0000000e+00 
0.0000000e+00 2.9090362e-08 0.0000000e+00 
0.0000000e+00 4.5373504e-08 0.0000000e+00 
0.0000000e+00 5.7606311e-08 0.0000000e+00 
0.0000000e+00 6.6275398e-08 0.0000000e+00 
0.0000000e+00 7.5522905e-08 0.0000000e+00 
0.0000000e+00 8.3116731e-08 0.0000000e+00 
0.0000000e+00 8.9146987e-08 0.0000000e+00 
0.0000000e+00 9.8653381e-08 0.0000000e+00 
0.0000000e+00 1.0504230e-07 0.0000000e+00 
-2.9758068e-05 -1.3779517e-04 -4.6746474e-05 
-3.2926608e-05 -8.6137668e-05 -2.8419550e-05 
-1.8785584e-05 -2.6455826e-05 -9.1973443e-06 
0.0000000e+00 0.0000000e+00 0.0000000e+00 
0.0000000e+00 0.0000000e+00 0.0000000e+00 
0.0000000e+00 0.0000000e+00 0.0000000e+00 
0.0000000e+00 0.0000000e+00 0.0000000e+00 
0.0000000e+00 0.0000000e+00 0.0000000e+00 
0.0000000e+00 0.0000000e+00 0.0000000e+00 
0.0000000e+00 0.0000000e+00 0.0000000e+00 
0.0000000e+00 0.0000000e+00 0.0000000e+00 
0.0000000e+00 0.0000000e+00 0.0000000e+00 
0.0000000e+00 0.0000000e+00 0.0000000e+00 
0.0000000e+00 0.0000000e+00 0.0000000e+00 
0.0000000e+00 0.0000000e+00 0.0000000e+00 
0.0000000e+00 0.0000000e+00 0.0000000e+00 
0.0000000e+00 0.0000000e+00 0.0000000e+00 
0.0000000e+00 0.0000000e+00 0.0000000e+00 
0.0000000e+00 0.0000000e+00 0.0000000e+00 
0.0000000e+00 0.0000000e+00 0.0000000e+00 
0.0000000e+00 0.0000000e+00 0.0000000e+00 
0.0000000e+00 0.0000000e+00 0.0000000e+00 
0.0000000e+00 0.0000000e+00 0.0000000e+00 
0.0000000e+00 0.0000000e+00 0.0000000e+00 
0.0000000e+00 0.0000000e+00 0.0000000e+00 
0.0000000e+00 0.0000000e+00 0.0000000e+00 
0.0000000e+00 0.0000000e+00 0.0000000e+00 
0.0000000e+00 0.0000000e+00 0.0000000e+00 
0.0000000e+00 0.0000000e+00 0.0000000e+00 
0.0000000e+00 0.0000000e+00 0.0000000e+00 
0.0000000e+00 0.0000000e+00 0.0000000e+00 
0.0000000e+00 0.0000000e+00 0.0000000e+00 
0.0000000e+00 0.0000000e+00 0.0000000e+00 
0.0000000e+00 0.0000000e+00 0.0000000e+00 
0.0000000e+00 0.0000000e+00 0.0000000e+00 
0.0000000e+00 0.0000000e+00 0.0000000e+00 
0.0000000e+00 0.0000000e+00 0.0000000e+00 
0.0000000e+00 0.0000000e+00 0.0000000e+00 
0.0000000e+00 0.0000000e+00 0.0000000e+00 
0.0000000e+00 0.0000000e+00 0.0000000e+00 
0.0000000e+00 0.0000000e+00 0.0000000e+00 
0.0000000e+00 0.0000000e+00 0.0000000e+00 
0.0000000e+00 0.0000000e+00 0.0000000e+00 
0.0000000e+00 0.0000000e+00 0.0000000e+00 
0.0000000e+00 0.0000000e+00 0.0000000e+00 
0.0000000e+00 0.0000000e+00 0.0000000e+00 
0.0000000e+00 0.0000000e+00 0.0000000e+00 
0.0000000e+00 0.0000000e+00 0.0000000e+00 
0.0000000e+00 0.0000000e+00 0.0000000e+00 
0.0000000e+00 0.0000000e+00 0.0000000e+00 
0.0000000e+00 0.0000000e+00 0.0000000e+00 
0.0000000e+00 0.0000000e+00 0.0000000e+00 
0.0000000e+00 0.0000000e+00 0.0000000e+00 
0.0000000e+00 0.0000000e+00 0.0000000e+00 
0.0000000e+00 0.0000000e+00 0.0000000e+00 
0.0000000e+00 0.0000000e+00 0.0000000e+00 
0.0000000e+00 0.0000000e+00 0.0000000e+00 
0.0000000e+00 0.0000000e+00 0.0000000e+00 
0.0000000e+00 0.0000000e+00 0.0000000e+00 
0.0000000e+00 0.0000000e+00 0.0000000e+00 
0.0000000e+00 0.0000000e+00 0.0000000e+00 
0.0000000e+00 0.0000000e+00 0.0000000e+00 
0.0000000e+00 0.0000000e+00 0.0000000e+00 
0.0000000e+00 0.0000000e+00 0.0000000e+00 
0.0000000e+00 0.0000000e+00 0.0000000e+00 
0.0000000e+00 0.0000000e+00 0.0000000e+00 
0.0000000e+00 0.0000000e+00 0.0000000e+00 
0.0000000e+00 0.0000000e+00 0.0000000e+00 
0.0000000e+00 0.0000000e+00 0.0000000e+00 
0.0000000e+00 0.0000000e+00 0.0000000e+00 
0.0000000e+00 0.0000000e+00 0.0000000e+00 
0.0000000e+00 0.0000000e+00 0.0000000e+00 
0.0000000e+00 0.0000000e+00 0.0000000e+00 
0.0000000e+00 0.0000000e+00 0.0000000e+00 
0.0000000e+00 0.0000000e+00 0.0000000e+00 
0.0000000e+00 0.0000000e+00 0.0000000e+00 
0.0000000e+00 0.0000000e+00 0.0000000e+00 
0.0000000e+00 0.0000000e+00 0.0000000e+00 
0.0000000e+00 0.0000000e+00 0.0000000e+00 
0.0000000e+00 0.0000000e+00 0.0000000e+00 
0.0000000e+00 0.0000000e+00 0.0000000e+00 
0.0000000e+00 0.0000000e+00 0.0000000e+00 
0.0000000e+00 0.0000000e+00 0.0000000e+00 
0.0000000e+00 0.0000000e+00 0.0000000e+00 
0.0000000e+00 0.0000000e+00 0.0000000e+00 
0.0000000e+00 0.0000000e+00 0.0000000e+00 
0.0000000e+00 0.0000000e+00 0.0000000e+00 
0.0000000e+00 0.0000000e+00 0.0000000e+00 
0.0000000e+00 0.0000000e+00 0.0000000e+00 
0.0000000e+00 0.0000000e+00 0.0000000e+00 
0.0000000e+00 0.0000000e+00 0.0000000e+00 
0.0000000e+00 0.0000000e+00 0.0000000e+00 
0.0000000e+00 0.0000000e+00 0.0000000e+00 
0.0000000e+00 0.0000000e+00 0.0000000e+00 
0.0000000e+00 0.0000000e+00 0.0000000e+00 
0.0000000e+00 0.0000000e+00 0.0000000e+00 
0.0000000e+00 0.0000000e+00 0.0000000e+00 
0.0000000e+00 0.0000000e+00 0.0000000e+00 
0.0000000e+00 0.0000000e+00 0.0000000e+00 
0.0000000e+00 0.0000000e+00 0.0000000e+00 
0.0000000e+00 0.0000000e+00 0.0000000e+00 
0.0000000e+00 0.0000000e+00 0.0000000e+00 
0.0000000e+00 0.0000000e+00 0.0000000e+00 
0.0000000e+00 0.0000000e+00 0.0000000e+00 
0.0000000e+00 0.0000000e+00 0.0000000e+00 
0.0000000e+00 0.0000000e+00 0.0000000e+00 
0.0000000e+00 0.0000000e+00 0.0000000e+00 
0.0000000e+00 0.0000000e+00 0.0000000e+00 
0.0000000e+00 0.0000000e+00 0.0000000e+00 
0.0000000e+00 0.0000000e+00 0.0000000e+00 
0.0000000e+00 0.0000000e+00 0.0000000e+00 
0.0000000e+00 0.0000000e+00 0.0000000e+00 
0.0000000e+00 0.0000000e+00 0.0000000e+00 
0.0000000e+00 0.0000000e+00 0.0000000e+00 
0.0000000e+00 0.0000000e+00 0.0000000e+00 
0.0000000e+00 0.0000000e+00 0.0000000e+00 
0.0000000e+00 0.0000000e+00 0.0000000e+00 
0.0000000e+00 0.0000000e+00 0.0000000e+00 
0.0000000e+00 0.0000000e+00 0.0000000e+00 
3.6552810e-05 -2.8660888e-05 3.1936599e-06 
3.5376870e-05 -2.7783475e-05 6.0995517e-06 
3.3155156e-05 -2.5079897e-05 8.3527166e-06 
3.0346588e-05 -2.2486160e-05 9.8988330e-06 
2.7346008e-05 -1.9996953e-05 1.0799004e-05 
2.4291783e-05 -1.6803458e-05 1.0583143e-05 
2.1796232e-05 -1.5085981e-05 1.0172534e-05 
1.9138412e-05 -1.2459860e-05 8.6512955e-06 
1.7130125e-05 -1.1005171e-05 6.9870584e-06 
1.5697527e-05 -1.0160337e-05 4.9397440e-06 
1.4712598e-05 -9.3078697e-06 2.7407370e-06 
1.4226196e-05 -9.1687589e-06 7.2436285e-07 
1.4333928e-05 -9.0079993e-06 -1.1326883e-06 
1.4925073e-05 -9.7071179e-06 -2.6981031e-06 
1.5882868e-05 -1.0698734e-05 -3.8763010e-06 
1.6968999e-05 -1.1702969e-05 -4.5876000e-06 
1.8437715e-05 -1.2844263e-05 -4.5743486e-06 
1.9443931e-05 -1.4064884e-05 -3.9027764e-06 
2.0529753e-05 -1.4609896e-05 -2.7394985e-06 
2.0986381e-05 -1.5616773e-05 -1.2022252e-06 
2.1243271e-05 -1.5760412e-05 6.6817876e-07 
2.1037313e-05 -1.5595497e-05 2.5125382e-06 
2.0222205e-05 -1.4969729e-05 4.3482537e-06 
1.8898460e-05 -1.4152057e-05 6.0336924e-06 
1.7274775e-05 -1.2686169e-05 7.4256714e-06 
1.5472322e-05 -1.1240724e-05 8.1461185e-06 
1.3461815e-05 -9.5609339e-06 8.8126708e-06 
1.1532321e-05 -8.2847419e-06 8.7614144e-06 
9.7943448e-06 -6.8565114e-06 8.4793819e-06 
8.0115478e-06 -5.6375820e-06 7.9454767e-06 
6.4629698e-06 -4.4539411e-06 7.2157895e-06 
5.1995557e-06 -3.5119892e-06 6.4117062e-06 
4.1047988e-06 -2.6578784e-06 5.5704663e-06 
3.1548470e-06 -1.9063801e-06 4.7975532e-06 
2.4676569e-06 -1.4257269e-06 4.0627533e-06 
1.9128963e-06 -9.8010844e-07 3.4051232e-06 
1.4541585e-06 -6.8131868e-07 2.8182149e-06 
1.0906566e-06 -4.6852344e-07 2.3130906e-06 
8.0687585e-07 -2.5434295e-07 1.8742393e-06 
5.9861640e-07 -1.4697254e-07 1.5197551e-06 
4.3806230e-07 -5.7202527e-08 1.2190338e-06 
3.0547125e-07 1.1100570e-08 9.6304711e-07 
2.1172700e-07 4.5543484e-08 7.6685211e-07 
1.3681179e-07 7.1756524e-08 6.0704440e-07 
9.2603727e-08 8.6982411e-08 4.9174832e-07 
4.8523166e-08 1.0042245e-07 4.0282407e-07 
1.5318145e-08 1.0313161e-07 3.2982882e-07 
-6.5758918e-09 1.0452678e-07 2.7705752e-07 
-2.6158983e-08 9.2097729e-08 2.3872732e-07 
2.1580332e-05 -1.9092744e-05 -2.7361427e-06 
-1.4114286e-08 -1.1586851e-08 9.9847625e-08 
0.0000000e+00 -6.9862930e-05 0.0000000e+00 
0.0000000e+00 -6.1373139e-05 0.0000000e+00 
0.0000000e+00 -5.4648721e-05 0.0000000e+00 
0.0000000e+00 -4.4988428e-05 0.0000000e+00 
0.0000000e+00 -3.4383283e-05 0.0000000e+00 
0.0000000e+00 -3.1166219e-05 0.0000000e+00 
0.0000000e+00 -2.8107126e-05 0.0000000e+00 
0.0000000e+00 -2.2031685e-05 0.0000000e+00 
0.0000000e+00 -1.6175547e-05 0.0000000e+00 
0.0000000e+00 -1.5172101e-05 0.0000000e+00 
0.0000000e+00 -1.4285015e-05 0.0000000e+00 
0.0000000e+00 -1.4223561e-05 0.0000000e+00 
0.0000000e+00 -1.3753370e-05 0.0000000e+00 
0.0000000e+00 -1.6777425e-05 0.0000000e+00 
0.0000000e+00 -1.9043522e-05 0.0000000e+00 
0.0000000e+00 -2.1969017e-05 0.0000000e+00 
0.0000000e+00 -2.6115647e-05 0.0000000e+00 
0.0000000e+00 -2.6659218e-05 0.0000000e+00 
0.0000000e+00 -3.7079601e-05 0.0000000e+00 
0.0000000e+00 -3.2719043e-05 0.0000000e+00 
0.0000000e+00 -3.3558976e-05 0.0000000e+00 
0.0000000e+00 -3.2238186e-05 0.0000000e+00 
0.0000000e+00 -3.3121491e-05 0.0000000e+00 
0.0000000e+00 -3.0067073e-05 0.0000000e+00 
0.0000000e+00 -2.4285348e-05 0.0000000e+00 
0.0000000e+00 -2.1167680e-05 0.0000000e+00 
0.0000000e+00 -1.7348664e-05 0.0000000e+00 
0.0000000e+00 -1.3839455e-05 0.0000000e+00 
0.0000000e+00 -1.0251450e-05 0.0000000e+00 
0.0000000e+00 -8.6983509e-06 0.0000000e+00 
0.0000000e+00 -6.3164257e-06 0.0000000e+00 
0.0000000e+00 -4.4716512e-06 0.0000000e+00 
0.0000000e+00 -3.4962979e-06 0.0000000e+00 
0.0000000e+00 -2.9045812e-06 0.0000000e+00 
0.0000000e+00 -1.8103844e-06 0.0000000e+00 
0.0000000e+00 -1.5711561e-06 0.0000000e+00 
0.0000000e+00 -1.1045322e-06 0.0000000e+00 
0.0000000e+00 -9.3253686e-07 0.0000000e+00 
0.0000000e+00 -5.9420660e-07 0.0000000e+00 
0.0000000e+00 -3.8351823e-07 0.0000000e+00 
0.0000000e+00 -2.5844344e-07 0.0000000e+00 
0.0000000e+00 -1.8013880e-07 0.0000000e+00 
0.0000000e+00 -1.0909524e-07 0.0000000e+00 
0.0000000e+00 -5.9295356e-08 0.0000000e+00 
0.0000000e+00 -3.1544680e-08 0.0000000e+00 
0.0000000e+00 -1.5272514e-08 0.0000000e+00 
0.0000000e+00 2.5993969e-09 0.0000000e+00 
0.0000000e+00 8.3349381e-09 0.0000000e+00 
0.0000000e+00 9.1952170e-09 0.0000000e+00 
3.7464684e-05 -2.1928481e-05 -1.3178493e-06 
3.7593221e-05 -2.4134621e-05 -3.7038299e-06 
3.8258469e-05 -2.9809402e-05 -6.2994163e-06 
3.8473871e-05 -3.8386544e-05 -8.8930346e-06 