# vtk DataFile Version 4.0
vtk output
ASCII
DATASET UNSTRUCTURED_GRID
POINTS 44 float
0.0000000e+00 0.0000000e+00 0.0000000e+00 
1.0000000e+00 0.0000000e+00 0.0000000e+00 
1.0000000e+00 1.0000000e+01 0.0000000e+00 
0.0000000e+00 1.0000000e+01 0.0000000e+00 
0.0000000e+00 0.0000000e+00 1.0000000e+00 
1.0000000e+00 0.0000000e+00 1.0000000e+00 
1.0000000e+00 1.0000000e+01 1.0000000e+00 
0.0000000e+00 1.0000000e+01 1.0000000e+00 
1.0000000e+00 1.0000000e+00 0.0000000e+00 
1.0000000e+00 2.0000000e+00 0.0000000e+00 
1.0000000e+00 3.0000000e+00 0.0000000e+00 
1.0000000e+00 4.0000000e+00 0.0000000e+00 
1.0000000e+00 5.0000000e+00 0.0000000e+00 
1.0000000e+00 6.0000000e+00 0.0000000e+00 
1.0000000e+00 7.0000000e+00 0.0000000e+00 
1.0000000e+00 8.0000000e+00 0.0000000e+00 
1.0000000e+00 9.0000000e+00 0.0000000e+00 
0.0000000e+00 9.0000000e+00 0.0000000e+00 
0.0000000e+00 8.0000000e+00 0.0000000e+00 
0.0000000e+00 7.0000000e+00 0.0000000e+00 
0.0000000e+00 6.0000000e+00 0.0000000e+00 
0.0000000e+00 5.0000000e+00 0.0000000e+00 
0.0000000e+00 4.0000000e+00 0.0000000e+00 
0.0000000e+00 3.0000000e+00 0.0000000e+00 
0.0000000e+00 2.0000000e+00 0.0000000e+00 
0.0000000e+00 1.0000000e+00 0.0000000e+00 
1.0000000e+00 1.0000000e+00 1.0000000e+00 
1.0000000e+00 2.0000000e+00 1.0000000e+00 
1.0000000e+00 3.0000000e+00 1.0000000e+00 
1.0000000e+00 4.0000000e+00 1.0000000e+00 
1.0000000e+00 5.0000000e+00 1.0000000e+00 
1.0000000e+00 6.0000000e+00 1.0000000e+00 
1.0000000e+00 7.0000000e+00 1.0000000e+00 
1.0000000e+00 8.0000000e+00 1.0000000e+00 
1.0000000e+00 9.0000000e+00 1.0000000e+00 
0.0000000e+00 9.0000000e+00 1.0000000e+00 
0.0000000e+00 8.0000000e+00 1.0000000e+00 
0.0000000e+00 7.0000000e+00 1.0000000e+00 
0.0000000e+00 6.0000000e+00 1.0000000e+00 
0.0000000e+00 5.0000000e+00 1.0000000e+00 
0.0000000e+00 4.0000000e+00 1.0000000e+00 
0.0000000e+00 3.0000000e+00 1.0000000e+00 
0.0000000e+00 2.0000000e+00 1.0000000e+00 
0.0000000e+00 1.0000000e+00 1.0000000e+00 

CELLS 10 90
8 0 1 8 25 4 5 26 43
8 25 8 9 24 43 26 27 42
8 24 9 10 23 42 27 28 41
8 23 10 11 22 41 28 29 40
8 22 11 12 21 40 29 30 39
8 21 12 13 20 39 30 31 38
8 20 13 14 19 38 31 32 37
8 19 14 15 18 37 32 33 36
8 18 15 16 17 36 33 34 35
8 17 16 2 3 35 34 6 7

CELL_TYPES 10
12
12
12
12
12
12
12
12
12
12
POINT_DATA 44
FIELD FieldData 2
DISPLACEMENT 3 44  float
0.0000000e+00 -2.2564327e-06 0.0000000e+00 
0.0000000e+00 -2.2564327e-06 0.0000000e+00 
0.0000000e+00 -3.1626535e-06 0.0000000e+00 
0.0000000e+00 -3.1626535e-06 0.0000000e+00 
0.0000000e+00 -2.2564327e-06 0.0000000e+00 
0.0000000e+00 -2.2564327e-06 0.0000000e+00 
0.0000000e+00 -3.1626535e-06 0.0000000e+00 
0.0000000e+00 -3.1626535e-06 0.0000000e+00 
0.0000000e+00 -2.3475916e-06 0.0000000e+00 
0.0000000e+00 -2.4386870e-06 0.0000000e+00 
0.0000000e+00 -2.5302654e-06 0.0000000e+00 
0.0000000e+00 -2.6211567e-06 0.0000000e+00 
0.0000000e+00 -2.7112242e-06 0.0000000e+00 
0.0000000e+00 -2.8018801e-06 0.0000000e+00 
0.0000000e+00 -2.8923864e-06 0.0000000e+00 
0.0000000e+00 -2.9824230e-06 0.0000000e+00 
0.0000000e+00 -3.0728620e-06 0.0000000e+00 
0.0000000e+00 -3.0728620e-06 0.0000000e+00 
0.0000000e+00 -2.9824230e-06 0.0000000e+00 
0.0000000e+00 -2.8923864e-06 0.0000000e+00 
0.0000000e+00 -2.8018801e-06 0.0000000e+00 
0.0000000e+00 -2.7112242e-06 0.0000000e+00 
0.0000000e+00 -2.6211567e-06 0.0000000e+00 
0.0000000e+00 -2.5302654e-06 0.0000000e+00 
0.0000000e+00 -2.4386870e-06 0.0000000e+00 
0.0000000e+00 -2.3475916e-06 0.0000000e+00 
0.0000000e+00 -2.3475916e-06 0.0000000e+00 
0.0000000e+00 -2.4386870e-06 0.0000000e+00 
0.0000000e+00 -2.5302654e-06 0.0000000e+00 
0.0000000e+00 -2.6211567e-06 0.0000000e+00 
0.0000000e+00 -2.7112242e-06 0.0000000e+00 
0.0000000e+00 -2.8018801e-06 0.0000000e+00 
0.0000000e+00 -2.8923864e-06 0.0000000e+00 
0.0000000e+00 -2.9824230e-06 0.0000000e+00 
0.0000000e+00 -3.0728620e-06 0.0000000e+00 
0.0000000e+00 -3.0728620e-06 0.0000000e+00 
0.0000000e+00 -2.9824230e-06 0.0000000e+00 
0.0000000e+00 -2.8923864e-06 0.0000000e+00 
0.0000000e+00 -2.8018801e-06 0.0000000e+00 
0.0000000e+00 -2.7112242e-06 0.0000000e+00 
0.0000000e+00 -2.6211567e-06 0.0000000e+00 
0.0000000e+00 -2.5302654e-06 0.0000000e+00 
0.0000000e+00 -2.4386870e-06 0.0000000e+00 
0.0000000e+00 -2.3475916e-06 0.0000000e+00 
VELOCITY 3 44  float
0.0000000e+00 -2.1245658e-05 0.0000000e+00 
0.0000000e+00 -2.1245658e-05 0.0000000e+00 
0.0000000e+00 -2.1406711e-05 0.0000000e+00 
0.0000000e+00 -2.1406711e-05 0.0000000e+00 
0.0000000e+00 -2.1245658e-05 0.0000000e+00 
0.0000000e+00 -2.1245658e-05 0.0000000e+00 
0.0000000e+00 -2.1406711e-05 0.0000000e+00 
0.0000000e+00 -2.1406711e-05 0.0000000e+00 
0.0000000e+00 -2.1115629e-05 0.0000000e+00 
0.0000000e+00 -2.1385536e-05 0.0000000e+00 
0.0000000e+00 -2.1432186e-05 0.0000000e+00 
0.0000000e+00 -2.1115347e-05 0.0000000e+00 
0.0000000e+00 -2.1159409e-05 0.0000000e+00 
0.0000000e+00 -2.1290165e-05 0.0000000e+00 
0.0000000e+00 -2.1084001e-05 0.0000000e+00 
0.0000000e+00 -2.1352522e-05 0.0000000e+00 
0.0000000e+00 -2.1282267e-05 0.0000000e+00 
0.0000000e+00 -2.1282267e-05 0.0000000e+00 
0.0000000e+00 -2.1352522e-05 0.0000000e+00 
0.0000000e+00 -2.1084001e-05 0.0000000e+00 
0.0000000e+00 -2.1290165e-05 0.0000000e+00 
0.0000000e+00 -2.1159409e-05 0.0000000e+00 
0.0000000e+00 -2.1115347e-05 0.0000000e+00 
0.0000000e+00 -2.1432186e-05 0.0000000e+00 
0.0000000e+00 -2.1385536e-05 0.0000000e+00 
0.0000000e+00 -2.1115629e-05 0.0000000e+00 
0.0000000e+00 -2.1115629e-05 0.0000000e+00 
0.0000000e+00 -2.1385536e-05 0.0000000e+00 
0.0000000e+00 -2.1432186e-05 0.0000000e+00 
0.0000000e+00 -2.1115347e-05 0.0000000e+00 
0.0000000e+00 -2.1159409e-05 0.0000000e+00 
0.0000000e+00 -2.1290165e-05 0.0000000e+00 
0.0000000e+00 -2.1084001e-05 0.0000000e+00 
0.0000000e+00 -2.1352522e-05 0.0000000e+00 
0.0000000e+00 -2.1282267e-05 0.0000000e+00 
0.0000000e+00 -2.1282267e-05 0.0000000e+00 
0.0000000e+00 -2.1352522e-05 0.0000000e+00 
0.0000000e+00 -2.1084001e-05 0.0000000e+00 
0.0000000e+00 -2.1290165e-05 0.0000000e+00 
0.0000000e+00 -2.1159409e-05 0.0000000e+00 
0.0000000e+00 -2.1115347e-05 0.0000000e+00 
0.0000000e+00 -2.1432186e-05 0.0000000e+00 
0.0000000e+00 -2.1385536e-05 0.0000000e+00 
0.0000000e+00 -2.1115629e-05 0.0000000e+00 
CELL_DATA 10
FIELD FieldData 0
