# vtk DataFile Version 4.0
vtk output
ASCII
DATASET UNSTRUCTURED_GRID
POINTS 395 float
0.0000000e+00 0.0000000e+00 0.0000000e+00 
5.0000000e+00 0.0000000e+00 0.0000000e+00 
5.0000000e+00 3.0000000e+00 0.0000000e+00 
0.0000000e+00 3.0000000e+00 0.0000000e+00 
0.0000000e+00 0.0000000e+00 1.0000000e+01 
5.0000000e+00 0.0000000e+00 1.0000000e+01 
5.0000000e+00 3.0000000e+00 1.0000000e+01 
0.0000000e+00 3.0000000e+00 1.0000000e+01 
1.0000000e+00 3.0000000e+00 5.0000000e-01 
1.0000000e+00 3.0000000e+00 1.0000000e+00 
1.0000000e+00 3.0000000e+00 1.5000000e+00 
1.0000000e+00 3.0000000e+00 2.0000000e+00 
1.0000000e+00 3.0000000e+00 2.5000000e+00 
1.0000000e+00 3.0000000e+00 3.0000000e+00 
1.0000000e+00 3.0000000e+00 3.5000000e+00 
1.0000000e+00 3.0000000e+00 4.0000000e+00 
1.0000000e+00 3.0000000e+00 4.5000000e+00 
1.0000000e+00 3.0000000e+00 5.0000000e+00 
1.0000000e+00 3.0000000e+00 5.5000000e+00 
1.0000000e+00 3.0000000e+00 6.0000000e+00 
1.0000000e+00 3.0000000e+00 6.5000000e+00 
1.0000000e+00 3.0000000e+00 7.0000000e+00 
1.0000000e+00 3.0000000e+00 7.5000000e+00 
1.0000000e+00 3.0000000e+00 8.0000000e+00 
1.0000000e+00 3.0000000e+00 8.5000000e+00 
1.0000000e+00 3.0000000e+00 9.0000000e+00 
1.0000000e+00 3.0000000e+00 9.5000000e+00 
1.0000000e+00 3.0000000e+00 0.0000000e+00 
1.0000000e+00 3.0000000e+00 1.0000000e+01 
1.0000000e+00 3.0250001e+00 0.0000000e+00 
1.0000000e+00 3.0250001e+00 5.0000000e-01 
1.0000000e+00 3.0250001e+00 1.0000000e+00 
1.0000000e+00 3.0250001e+00 1.5000000e+00 
1.0000000e+00 3.0250001e+00 2.0000000e+00 
1.0000000e+00 3.0250001e+00 2.5000000e+00 
1.0000000e+00 3.0250001e+00 3.0000000e+00 
1.0000000e+00 3.0250001e+00 3.5000000e+00 
1.0000000e+00 3.0250001e+00 4.0000000e+00 
1.0000000e+00 3.0250001e+00 4.5000000e+00 
1.0000000e+00 3.0250001e+00 5.0000000e+00 
1.0000000e+00 3.0250001e+00 5.5000000e+00 
1.0000000e+00 3.0250001e+00 6.0000000e+00 
1.0000000e+00 3.0250001e+00 6.5000000e+00 
1.0000000e+00 3.0250001e+00 7.0000000e+00 
1.0000000e+00 3.0250001e+00 7.5000000e+00 
1.0000000e+00 3.0250001e+00 8.0000000e+00 
1.0000000e+00 3.0250001e+00 8.5000000e+00 
1.0000000e+00 3.0250001e+00 9.0000000e+00 
1.0000000e+00 3.0250001e+00 9.5000000e+00 
1.0000000e+00 3.0250001e+00 1.0000000e+01 
1.0000000e+00 0.0000000e+00 0.0000000e+00 
2.0000000e+00 0.0000000e+00 0.0000000e+00 
3.0000000e+00 0.0000000e+00 0.0000000e+00 
4.0000000e+00 0.0000000e+00 0.0000000e+00 
5.0000000e+00 1.0000000e+00 0.0000000e+00 
5.0000000e+00 2.0000000e+00 0.0000000e+00 
0.0000000e+00 2.0000000e+00 0.0000000e+00 
0.0000000e+00 1.0000000e+00 0.0000000e+00 
0.0000000e+00 0.0000000e+00 1.0000000e+00 
0.0000000e+00 0.0000000e+00 2.0000000e+00 
0.0000000e+00 0.0000000e+00 3.0000000e+00 
0.0000000e+00 0.0000000e+00 4.0000000e+00 
0.0000000e+00 0.0000000e+00 5.0000000e+00 
0.0000000e+00 0.0000000e+00 6.0000000e+00 
0.0000000e+00 0.0000000e+00 7.0000000e+00 
0.0000000e+00 0.0000000e+00 8.0000000e+00 
0.0000000e+00 0.0000000e+00 9.0000000e+00 
5.0000000e+00 0.0000000e+00 1.0000000e+00 
5.0000000e+00 0.0000000e+00 2.0000000e+00 
5.0000000e+00 0.0000000e+00 3.0000000e+00 
5.0000000e+00 0.0000000e+00 4.0000000e+00 
5.0000000e+00 0.0000000e+00 5.0000000e+00 
5.0000000e+00 0.0000000e+00 6.0000000e+00 
5.0000000e+00 0.0000000e+00 7.0000000e+00 
5.0000000e+00 0.0000000e+00 8.0000000e+00 
5.0000000e+00 0.0000000e+00 9.0000000e+00 
1.0000000e+00 0.0000000e+00 1.0000000e+01 
2.0000000e+00 0.0000000e+00 1.0000000e+01 
3.0000000e+00 0.0000000e+00 1.0000000e+01 
4.0000000e+00 0.0000000e+00 1.0000000e+01 
5.0000000e+00 3.0000000e+00 1.0000000e+00 
5.0000000e+00 3.0000000e+00 2.0000000e+00 
5.0000000e+00 3.0000000e+00 3.0000000e+00 
5.0000000e+00 3.0000000e+00 4.0000000e+00 
5.0000000e+00 3.0000000e+00 5.0000000e+00 
5.0000000e+00 3.0000000e+00 6.0000000e+00 
5.0000000e+00 3.0000000e+00 7.0000000e+00 
5.0000000e+00 3.0000000e+00 8.0000000e+00 
5.0000000e+00 3.0000000e+00 9.0000000e+00 
5.0000000e+00 1.0000000e+00 1.0000000e+01 
5.0000000e+00 2.0000000e+00 1.0000000e+01 
0.0000000e+00 3.0000000e+00 1.0000000e+00 
0.0000000e+00 3.0000000e+00 2.0000000e+00 
0.0000000e+00 3.0000000e+00 3.0000000e+00 
0.0000000e+00 3.0000000e+00 4.0000000e+00 
0.0000000e+00 3.0000000e+00 5.0000000e+00 
0.0000000e+00 3.0000000e+00 6.0000000e+00 
0.0000000e+00 3.0000000e+00 7.0000000e+00 
0.0000000e+00 3.0000000e+00 8.0000000e+00 
0.0000000e+00 3.0000000e+00 9.0000000e+00 
0.0000000e+00 2.0000000e+00 1.0000000e+01 
0.0000000e+00 1.0000000e+00 1.0000000e+01 
4.0000000e+00 3.0000000e+00 0.0000000e+00 
3.0000000e+00 3.0000000e+00 0.0000000e+00 
2.0000000e+00 3.0000000e+00 0.0000000e+00 
4.0000000e+00 3.0000000e+00 1.0000000e+01 
3.0000000e+00 3.0000000e+00 1.0000000e+01 
2.0000000e+00 3.0000000e+00 1.0000000e+01 
1.5046000e+00 2.2345026e+00 0.0000000e+00 
4.0618000e+00 1.5000000e+00 0.0000000e+00 
2.5000000e+00 8.6602539e-01 0.0000000e+00 
2.4957771e+00 2.1843948e+00 0.0000000e+00 
1.5046000e+00 7.6549745e-01 0.0000000e+00 
3.4700506e+00 2.2420573e+00 0.0000000e+00 
3.4707544e+00 7.6634604e-01 0.0000000e+00 
8.6322361e-01 1.5000000e+00 0.0000000e+00 
2.0000000e+00 1.5000000e+00 0.0000000e+00 
2.9960666e+00 1.5025520e+00 0.0000000e+00 
4.2679491e+00 7.3205084e-01 0.0000000e+00 
4.2679491e+00 2.2679491e+00 0.0000000e+00 
7.2695929e-01 2.2730408e+00 0.0000000e+00 
7.2695929e-01 7.2695929e-01 0.0000000e+00 
4.1822505e+00 0.0000000e+00 2.5515697e+00 
4.2017918e+00 0.0000000e+00 4.4725966e+00 
4.1114569e+00 0.0000000e+00 6.5092020e+00 
8.6602539e-01 0.0000000e+00 3.5000000e+00 
8.4778279e-01 0.0000000e+00 5.4684029e+00 
8.9629614e-01 0.0000000e+00 7.5867257e+00 
2.5566745e+00 0.0000000e+00 8.1853306e-01 
2.4918270e+00 0.0000000e+00 9.1386929e+00 
8.4677207e-01 0.0000000e+00 1.5042374e+00 
4.0943027e+00 0.0000000e+00 8.4081745e+00 
8.6281651e-01 0.0000000e+00 2.5007062e+00 
1.7315160e+00 0.0000000e+00 3.0001178e+00 
1.7319617e+00 0.0000000e+00 4.0000196e+00 
2.5980761e+00 0.0000000e+00 3.5000000e+00 
2.5536871e+00 0.0000000e+00 4.4963923e+00 
2.5928419e+00 0.0000000e+00 2.4239938e+00 
1.5037409e+00 0.0000000e+00 9.1535149e+00 
1.8433737e+00 0.0000000e+00 8.1858873e+00 
3.0000000e+00 0.0000000e+00 8.2679491e+00 
2.5000000e+00 0.0000000e+00 7.4019237e+00 
3.5042722e+00 0.0000000e+00 7.4271150e+00 
3.0310018e+00 0.0000000e+00 6.5282087e+00 
2.0373929e+00 0.0000000e+00 6.5307913e+00 
3.4767809e+00 0.0000000e+00 5.8031492e+00 
2.5452602e+00 0.0000000e+00 5.5720768e+00 
1.6456656e+00 0.0000000e+00 1.9697139e+00 
8.6297011e-01 0.0000000e+00 4.4947371e+00 
1.0111579e+00 0.0000000e+00 6.5282545e+00 
3.4994321e+00 0.0000000e+00 8.4691072e-01 
4.1860156e+00 0.0000000e+00 3.5040276e+00 
1.7320508e+00 0.0000000e+00 5.0000000e+00 
4.0544066e+00 0.0000000e+00 1.5781221e+00 
1.5817389e+00 0.0000000e+00 9.3943578e-01 
8.3166349e-01 0.0000000e+00 8.5090933e+00 
3.4686174e+00 0.0000000e+00 9.1752682e+00 
3.0709300e+00 0.0000000e+00 1.5799091e+00 
3.3927374e+00 0.0000000e+00 3.0399952e+00 
3.3826034e+00 0.0000000e+00 3.9747651e+00 
4.3420062e+00 0.0000000e+00 7.4688983e+00 
3.4023225e+00 0.0000000e+00 4.9314723e+00 
1.6740381e+00 0.0000000e+00 7.3014426e+00 
4.2715640e+00 0.0000000e+00 5.4758859e+00 
1.6225953e+00 0.0000000e+00 5.8104177e+00 
4.2679491e+00 0.0000000e+00 9.2679491e+00 
7.3205084e-01 0.0000000e+00 7.3205084e-01 
4.2679491e+00 0.0000000e+00 7.3205084e-01 
7.3205084e-01 0.0000000e+00 9.2679491e+00 
3.4586334e+00 0.0000000e+00 2.2347178e+00 
2.2895701e+00 0.0000000e+00 1.5463171e+00 
5.0000000e+00 2.2345026e+00 1.5046000e+00 
5.0000000e+00 1.5000000e+00 9.0618000e+00 
5.0000000e+00 2.1339746e+00 3.5000000e+00 
5.0000000e+00 2.1339746e+00 5.5000000e+00 
5.0000000e+00 2.1339746e+00 7.5000000e+00 
5.0000000e+00 8.6602539e-01 2.5000000e+00 
5.0000000e+00 8.6602539e-01 4.5000000e+00 
5.0000000e+00 8.6602539e-01 6.5000000e+00 
5.0000000e+00 8.6602539e-01 3.5000000e+00 
5.0000000e+00 8.6602539e-01 5.5000000e+00 
5.0000000e+00 2.1584709e+00 2.5001996e+00 
5.0000000e+00 2.1339746e+00 4.5000000e+00 
5.0000000e+00 2.1339746e+00 6.5000000e+00 
5.0000000e+00 8.6602539e-01 7.5000000e+00 
5.0000000e+00 7.6549745e-01 1.5046000e+00 
5.0000000e+00 7.6634604e-01 8.4707546e+00 
5.0000000e+00 2.2336540e+00 8.4707546e+00 
5.0000000e+00 1.5000000e+00 8.6322361e-01 
5.0000000e+00 1.5000000e+00 5.0000000e+00 
5.0000000e+00 1.5000000e+00 7.0000000e+00 
5.0000000e+00 1.5000000e+00 2.0000000e+00 
5.0000000e+00 1.5000000e+00 6.0000000e+00 
5.0000000e+00 1.5000000e+00 4.0000000e+00 
5.0000000e+00 1.5000000e+00 3.0000000e+00 
5.0000000e+00 1.5000000e+00 7.9977231e+00 
5.0000000e+00 2.2679491e+00 9.2679491e+00 
5.0000000e+00 7.3205084e-01 9.2679491e+00 
5.0000000e+00 2.2730408e+00 7.2695929e-01 
5.0000000e+00 7.2695929e-01 7.2695929e-01 
0.0000000e+00 7.6549745e-01 1.5046000e+00 
0.0000000e+00 1.5000000e+00 9.0618000e+00 
0.0000000e+00 7.6689392e-01 3.5202229e+00 
0.0000000e+00 8.4174728e-01 6.5073700e+00 
0.0000000e+00 2.1339746e+00 2.5000000e+00 
0.0000000e+00 2.1503205e+00 4.5283122e+00 
0.0000000e+00 2.1339746e+00 7.5000000e+00 
0.0000000e+00 7.5539857e-01 2.5041373e+00 
0.0000000e+00 2.1917200e+00 3.5330307e+00 
0.0000000e+00 2.1758037e+00 5.5047188e+00 
0.0000000e+00 1.4323456e+00 5.0621295e+00 
0.0000000e+00 2.1560361e+00 6.5002046e+00 
0.0000000e+00 8.3464229e-01 7.4971519e+00 
0.0000000e+00 2.2345026e+00 1.5046000e+00 
0.0000000e+00 2.2336540e+00 8.4707546e+00 
0.0000000e+00 7.6111549e-01 8.4702797e+00 
0.0000000e+00 1.5000000e+00 8.6322361e-01 
0.0000000e+00 1.4454463e+00 4.0239491e+00 
0.0000000e+00 7.3467791e-01 5.5115833e+00 
0.0000000e+00 1.5000000e+00 2.0000000e+00 
0.0000000e+00 1.4948297e+00 6.9999175e+00 
0.0000000e+00 1.4754088e+00 3.0096834e+00 
0.0000000e+00 1.5025774e+00 6.0000000e+00 
0.0000000e+00 7.2989392e-01 4.5196476e+00 
0.0000000e+00 1.4981872e+00 7.9961324e+00 
0.0000000e+00 7.3205084e-01 9.2679491e+00 
0.0000000e+00 2.2679491e+00 9.2679491e+00 
0.0000000e+00 2.2730408e+00 7.2695929e-01 
0.0000000e+00 7.2695929e-01 7.2695929e-01 
1.5046000e+00 7.6549745e-01 1.0000000e+01 
[...]
POINT_DATA 395
FIELD FieldData 2
DISPLACEMENT 3 395  float
0.0000000e+00 0.0000000e+00 0.0000000e+00 
0.0000000e+00 0.0000000e+00 0.0000000e+00 
0.0000000e+00 1.2289617e-07 0.0000000e+00 
0.0000000e+00 -5.5636760e-06 0.0000000e+00 
0.0000000e+00 0.0000000e+00 0.0000000e+00 
0.0000000e+00 0.0000000e+00 0.0000000e+00 
0.0000000e+00 2.8170052e-07 0.0000000e+00 
0.0000000e+00 1.5783060e-08 0.0000000e+00 
-9.3110026e-07 -2.4331300e-06 2.6502016e-06 
-2.4653016e-06 -6.0155694e-06 6.5021163e-06 
-3.1293393e-06 -1.5319378e-05 8.6633581e-06 
-6.1286969e-06 -3.7244154e-05 1.4634033e-05 
-6.1609644e-06 -8.0305363e-05 8.2940169e-06 
-1.0834502e-05 -1.5088412e-04 1.1807607e-05 
-1.2028512e-05 -2.2735605e-04 2.1355336e-06 
-3.6406836e-06 -2.4516229e-04 -1.0395043e-05 
-4.8411454e-07 -1.7851600e-04 -4.7422973e-06 
-2.3476252e-06 -1.0202038e-04 -9.3176250e-06 
-3.1970933e-06 -5.0514725e-05 -1.6565962e-05 
-3.1613752e-06 -2.1824555e-05 -1.0071114e-05 
-1.8234319e-06 -8.3461409e-06 -6.4423566e-06 
-1.2236862e-06 -2.8422232e-06 -4.2940255e-06 
-1.0481867e-06 -9.9280044e-07 -3.0148640e-06 
-4.2270983e-07 -4.1153859e-07 -1.5781034e-06 
-1.8408018e-07 -1.8938115e-07 -1.0742904e-06 
-1.6634168e-07 -3.5361076e-08 -5.6618319e-07 
-5.9717486e-08 9.0515790e-08 -2.0257390e-07 
0.0000000e+00 -8.5573924e-07 0.0000000e+00 
0.0000000e+00 1.7692635e-07 0.0000000e+00 
0.0000000e+00 -8.1850709e-07 0.0000000e+00 
0.0000000e+00 -2.3780010e-06 0.0000000e+00 
0.0000000e+00 -5.9102986e-06 0.0000000e+00 
0.0000000e+00 -1.5215182e-05 0.0000000e+00 
0.0000000e+00 -3.7142534e-05 0.0000000e+00 
0.0000000e+00 -8.0862366e-05 0.0000000e+00 
0.0000000e+00 -1.5268635e-04 0.0000000e+00 
0.0000000e+00 -2.3063555e-04 0.0000000e+00 
0.0000000e+00 -2.4881258e-04 0.0000000e+00 
0.0000000e+00 -1.8175192e-04 0.0000000e+00 
0.0000000e+00 -1.0340813e-04 0.0000000e+00 
0.0000000e+00 -5.0634735e-05 0.0000000e+00 
0.0000000e+00 -2.1788135e-05 0.0000000e+00 
0.0000000e+00 -8.2415572e-06 0.0000000e+00 
0.0000000e+00 -2.7733065e-06 0.0000000e+00 
0.0000000e+00 -9.3785997e-07 0.0000000e+00 
0.0000000e+00 -3.8905736e-07 0.0000000e+00 
0.0000000e+00 -1.8037693e-07 0.0000000e+00 
0.0000000e+00 -3.3942733e-08 0.0000000e+00 
0.0000000e+00 8.8212246e-08 0.0000000e+00 
0.0000000e+00 1.7819568e-07 0.0000000e+00 
0.0000000e+00 0.0000000e+00 0.0000000e+00 
0.0000000e+00 0.0000000e+00 0.0000000e+00 
0.0000000e+00 0.0000000e+00 0.0000000e+00 
0.0000000e+00 0.0000000e+00 0.0000000e+00 
0.0000000e+00 -8.8005095e-08 0.0000000e+00 
0.0000000e+00 8.0207826e-08 0.0000000e+00 
0.0000000e+00 -5.0517206e-06 0.0000000e+00 
0.0000000e+00 -3.4632783e-06 0.0000000e+00 
0.0000000e+00 0.0000000e+00 0.0000000e+00 
0.0000000e+00 0.0000000e+00 0.0000000e+00 
0.0000000e+00 0.0000000e+00 0.0000000e+00 
0.0000000e+00 0.0000000e+00 0.0000000e+00 
0.0000000e+00 0.0000000e+00 0.0000000e+00 
0.0000000e+00 0.0000000e+00 0.0000000e+00 
0.0000000e+00 0.0000000e+00 0.0000000e+00 
0.0000000e+00 0.0000000e+00 0.0000000e+00 
0.0000000e+00 0.0000000e+00 0.0000000e+00 
0.0000000e+00 0.0000000e+00 0.0000000e+00 
0.0000000e+00 0.0000000e+00 0.0000000e+00 
0.0000000e+00 0.0000000e+00 0.0000000e+00 
0.0000000e+00 0.0000000e+00 0.0000000e+00 
0.0000000e+00 0.0000000e+00 0.0000000e+00 
0.0000000e+00 0.0000000e+00 0.0000000e+00 
0.0000000e+00 0.0000000e+00 0.0000000e+00 
0.0000000e+00 0.0000000e+00 0.0000000e+00 
0.0000000e+00 0.0000000e+00 0.0000000e+00 
0.0000000e+00 0.0000000e+00 0.0000000e+00 
0.0000000e+00 0.0000000e+00 0.0000000e+00 
0.0000000e+00 0.0000000e+00 0.0000000e+00 
0.0000000e+00 0.0000000e+00 0.0000000e+00 
0.0000000e+00 -1.5525404e-07 0.0000000e+00 
0.0000000e+00 -2.2741560e-07 0.0000000e+00 
0.0000000e+00 -5.1417754e-07 0.0000000e+00 
0.0000000e+00 -1.6771550e-06 0.0000000e+00 
0.0000000e+00 -9.5709868e-07 0.0000000e+00 
0.0000000e+00 -3.9708897e-07 0.0000000e+00 
0.0000000e+00 -1.4101623e-07 0.0000000e+00 
0.0000000e+00 2.9704401e-07 0.0000000e+00 
0.0000000e+00 2.3793902e-07 0.0000000e+00 
0.0000000e+00 1.0623986e-07 0.0000000e+00 
0.0000000e+00 2.3812480e-07 0.0000000e+00 
0.0000000e+00 -1.0466227e-05 0.0000000e+00 
0.0000000e+00 -3.8628044e-05 0.0000000e+00 
0.0000000e+00 -7.6255332e-05 0.0000000e+00 
0.0000000e+00 -9.8722536e-05 0.0000000e+00 
0.0000000e+00 -5.9580925e-05 0.0000000e+00 
0.0000000e+00 -2.2959672e-05 0.0000000e+00 
0.0000000e+00 -6.5829122e-06 0.0000000e+00 
0.0000000e+00 -1.5273280e-06 0.0000000e+00 
0.0000000e+00 -2.2939102e-07 0.0000000e+00 
0.0000000e+00 -1.3191352e-08 0.0000000e+00 
0.0000000e+00 -1.7000112e-08 0.0000000e+00 
0.0000000e+00 -4.1965350e-07 0.0000000e+00 
0.0000000e+00 -1.5095119e-06 0.0000000e+00 
0.0000000e+00 -3.1861518e-06 0.0000000e+00 
0.0000000e+00 2.7181611e-07 0.0000000e+00 
0.0000000e+00 3.4470389e-07 0.0000000e+00 
0.0000000e+00 2.2247978e-07 0.0000000e+00 
0.0000000e+00 -2.1615811e-06 0.0000000e+00 
0.0000000e+00 -8.0302982e-08 0.0000000e+00 
0.0000000e+00 -1.2379434e-06 0.0000000e+00 
0.0000000e+00 -1.3700792e-06 0.0000000e+00 
0.0000000e+00 -1.6865544e-06 0.0000000e+00 
0.0000000e+00 -5.2510977e-08 0.0000000e+00 
0.0000000e+00 -4.6451521e-07 0.0000000e+00 
0.0000000e+00 -2.8960346e-06 0.0000000e+00 
0.0000000e+00 -1.1081869e-06 0.0000000e+00 
0.0000000e+00 -6.6568464e-07 0.0000000e+00 
0.0000000e+00 -1.9753794e-07 0.0000000e+00 
0.0000000e+00 1.5901809e-07 0.0000000e+00 
0.0000000e+00 -3.1272355e-06 0.0000000e+00 
0.0000000e+00 -1.7310348e-06 0.0000000e+00 
0.0000000e+00 0.0000000e+00 0.0000000e+00 
0.0000000e+00 0.0000000e+00 0.0000000e+00 
0.0000000e+00 0.0000000e+00 0.0000000e+00 
0.0000000e+00 0.0000000e+00 0.0000000e+00 
0.0000000e+00 0.0000000e+00 0.0000000e+00 
0.0000000e+00 0.0000000e+00 0.0000000e+00 
0.0000000e+00 0.0000000e+00 0.0000000e+00 
0.0000000e+00 0.0000000e+00 0.0000000e+00 
0.0000000e+00 0.0000000e+00 0.0000000e+00 
0.0000000e+00 0.0000000e+00 0.0000000e+00 
0.0000000e+00 0.0000000e+00 0.0000000e+00 
0.0000000e+00 0.0000000e+00 0.0000000e+00 
0.0000000e+00 0.0000000e+00 0.0000000e+00 
0.0000000e+00 0.0000000e+00 0.0000000e+00 
0.0000000e+00 0.0000000e+00 0.0000000e+00 
0.0000000e+00 0.0000000e+00 0.0000000e+00 
0.0000000e+00 0.0000000e+00 0.0000000e+00 
0.0000000e+00 0.0000000e+00 0.0000000e+00 
0.0000000e+00 0.0000000e+00 0.0000000e+00 
0.0000000e+00 0.0000000e+00 0.0000000e+00 
0.0000000e+00 0.0000000e+00 0.0000000e+00 
0.0000000e+00 0.0000000e+00 0.0000000e+00 
0.0000000e+00 0.0000000e+00 0.0000000e+00 
0.0000000e+00 0.0000000e+00 0.0000000e+00 
0.0000000e+00 0.0000000e+00 0.0000000e+00 
0.0000000e+00 0.0000000e+00 0.0000000e+00 
0.0000000e+00 0.0000000e+00 0.0000000e+00 
0.0000000e+00 0.0000000e+00 0.0000000e+00 
0.0000000e+00 0.0000000e+00 0.0000000e+00 
0.0000000e+00 0.0000000e+00 0.0000000e+00 
0.0000000e+00 0.0000000e+00 0.0000000e+00 
0.0000000e+00 0.0000000e+00 0.0000000e+00 
0.0000000e+00 0.0000000e+00 0.0000000e+00 
0.0000000e+00 0.0000000e+00 0.0000000e+00 
0.0000000e+00 0.0000000e+00 0.0000000e+00 
0.0000000e+00 0.0000000e+00 0.0000000e+00 
0.0000000e+00 0.0000000e+00 0.0000000e+00 
0.0000000e+00 0.0000000e+00 0.0000000e+00 
0.0000000e+00 0.0000000e+00 0.0000000e+00 
0.0000000e+00 0.0000000e+00 0.0000000e+00 
0.0000000e+00 0.0000000e+00 0.0000000e+00 
0.0000000e+00 0.0000000e+00 0.0000000e+00 
0.0000000e+00 0.0000000e+00 0.0000000e+00 
0.0000000e+00 0.0000000e+00 0.0000000e+00 
0.0000000e+00 0.0000000e+00 0.0000000e+00 
0.0000000e+00 0.0000000e+00 0.0000000e+00 
0.0000000e+00 0.0000000e+00 0.0000000e+00 
0.0000000e+00 0.0000000e+00 0.0000000e+00 
0.0000000e+00 0.0000000e+00 0.0000000e+00 
0.0000000e+00 1.2208826e-08 0.0000000e+00 
0.0000000e+00 1.6072636e-07 0.0000000e+00 
0.0000000e+00 -5.1252005e-07 0.0000000e+00 
0.0000000e+00 -7.8810913e-08 0.0000000e+00 
0.0000000e+00 3.2268383e-07 0.0000000e+00 
0.0000000e+00 -6.5386286e-07 0.0000000e+00 
0.0000000e+00 -6.5419113e-07 0.0000000e+00 
0.0000000e+00 -2.4800536e-07 0.0000000e+00 
0.0000000e+00 -1.3502877e-06 0.0000000e+00 
0.0000000e+00 -5.4233999e-07 0.0000000e+00 
0.0000000e+00 -3.0122874e-07 0.0000000e+00 
0.0000000e+00 -4.3520259e-07 0.0000000e+00 
0.0000000e+00 8.5596504e-08 0.0000000e+00 
0.0000000e+00 -6.1637465e-08 0.0000000e+00 
0.0000000e+00 -2.4959516e-07 0.0000000e+00 
0.0000000e+00 5.3966893e-08 0.0000000e+00 
0.0000000e+00 2.4403678e-07 0.0000000e+00 
0.0000000e+00 -1.0225791e-08 0.0000000e+00 
0.0000000e+00 -3.8171964e-07 0.0000000e+00 
0.0000000e+00 -3.3579802e-08 0.0000000e+00 
0.0000000e+00 -2.1784264e-07 0.0000000e+00 
0.0000000e+00 -2.4478592e-07 0.0000000e+00 
0.0000000e+00 -9.8013663e-07 0.0000000e+00 
0.0000000e+00 -8.4790344e-07 0.0000000e+00 
0.0000000e+00 1.6445628e-07 0.0000000e+00 
0.0000000e+00 2.6186780e-07 0.0000000e+00 
0.0000000e+00 5.7541445e-08 0.0000000e+00 
0.0000000e+00 1.6889253e-07 0.0000000e+00 
0.0000000e+00 -1.5155490e-07 0.0000000e+00 
0.0000000e+00 -9.4319366e-06 0.0000000e+00 
0.0000000e+00 -2.0804055e-07 0.0000000e+00 
0.0000000e+00 -2.5691574e-05 0.0000000e+00 
0.0000000e+00 -6.6129946e-06 0.0000000e+00 
0.0000000e+00 -5.2316202e-05 0.0000000e+00 
0.0000000e+00 -6.9348032e-05 0.0000000e+00 
0.0000000e+00 -3.1173142e-06 0.0000000e+00 
0.0000000e+00 -1.5872358e-05 0.0000000e+00 
0.0000000e+00 -7.6262033e-05 0.0000000e+00 
0.0000000e+00 -3.5677040e-05 0.0000000e+00 
0.0000000e+00 -3.4499219e-05 0.0000000e+00 
0.0000000e+00 -1.1968215e-05 0.0000000e+00 
0.0000000e+00 -1.9061883e-06 0.0000000e+00 
0.0000000e+00 -2.0016518e-05 0.0000000e+00 
0.0000000e+00 -8.0012074e-07 0.0000000e+00 
0.0000000e+00 -3.0177296e-07 0.0000000e+00 
0.0000000e+00 -7.7380919e-06 0.0000000e+00 
0.0000000e+00 -5.0451730e-05 0.0000000e+00 
0.0000000e+00 -1.2074910e-05 0.0000000e+00 
0.0000000e+00 -2.5209623e-05 0.0000000e+00 
0.0000000e+00 -5.3361396e-06 0.0000000e+00 
0.0000000e+00 -4.8765785e-05 0.0000000e+00 
0.0000000e+00 -1.7483935e-05 0.0000000e+00 
0.0000000e+00 -2.1722666e-05 0.0000000e+00 
0.0000000e+00 -1.4627964e-06 0.0000000e+00 
0.0000000e+00 -1.2701190e-07 0.0000000e+00 
0.0000000e+00 -1.1828078e-07 0.0000000e+00 
0.0000000e+00 -8.1748994e-06 0.0000000e+00 
0.0000000e+00 -3.7100524e-06 0.0000000e+00 
0.0000000e+00 2.0568002e-08 0.0000000e+00 
0.0000000e+00 1.9457903e-07 0.0000000e+00 
0.0000000e+00 3.6217574e-07 0.0000000e+00 
0.0000000e+00 3.1592376e-07 0.0000000e+00 
0.0000000e+00 3.6496058e-08 0.0000000e+00 
0.0000000e+00 3.1230221e-07 0.0000000e+00 
0.0000000e+00 7.9166050e-08 0.0000000e+00 
0.0000000e+00 1.0873300e-07 0.0000000e+00 
0.0000000e+00 2.1693445e-07 0.0000000e+00 
0.0000000e+00 2.1987006e-07 0.0000000e+00 
0.0000000e+00 7.3951298e-08 0.0000000e+00 
0.0000000e+00 3.0964043e-07 0.0000000e+00 
0.0000000e+00 1.5891246e-07 0.0000000e+00 
0.0000000e+00 4.9397265e-08 0.0000000e+00 
-2.0713017e-06 -6.5279469e-06 -5.4329953e-06 
-7.4273516e-06 -4.1733612e-05 8.5444080e-06 
-1.5152165e-05 -1.0717704e-04 -1.0974716e-07 
-3.8025855e-06 -5.0599003e-05 -1.0600406e-05 
-4.0049736e-07 -4.7851648e-07 -1.5293045e-06 
-3.0628144e-06 -2.6257385e-06 -6.3825200e-07 
-4.6955958e-07 7.4174409e-08 -6.0419939e-07 
-2.7823489e-06 -2.2350016e-06 7.5290211e-07 
-3.4681200e-06 -1.1227085e-05 6.4078085e-06 
-1.1005537e-07 2.6985293e-07 -4.1107077e-07 
-1.6209067e-06 -1.2854177e-06 1.4653904e-06 
-1.0754275e-07 1.8129477e-07 -3.1807824e-07 
-3.2840248e-06 -2.8696381e-06 -2.9109464e-07 
-5.9354315e-06 -7.6624920e-06 1.8418239e-06 
-5.2821310e-06 -6.6675648e-06 2.4526910e-06 
-8.0673581e-06 -1.7660126e-05 3.5300188e-06 
-1.3079583e-05 -2.1690985e-05 1.8554466e-06 
-4.7012732e-06 -1.1223454e-05 4.7405424e-06 
-1.4099664e-05 -4.2310017e-05 3.7863431e-06 
-5.4157986e-06 -8.5489173e-06 -2.4977723e-07 
-6.7125134e-06 -9.1485326e-06 -1.5785096e-06 
-9.9026838e-06 -2.3656159e-05 -3.2509345e-06 
-8.1788194e-06 -1.7175746e-05 -4.0687337e-06 
-5.0186554e-06 -7.4847549e-06 -3.3006993e-06 
-5.0282729e-06 -1.2659928e-05 -5.1720899e-06 
-2.6518717e-06 -4.6349969e-06 -3.1591562e-06 
-2.8554180e-06 -2.1806693e-06 -2.4919007e-06 
-1.3125428e-05 -4.2759955e-05 -6.1675423e-06 
-3.6584670e-06 -7.2566563e-06 -4.5130414e-06 
-1.9243594e-06 -2.5334907e-06 -2.5749789e-06 
-4.5415668e-06 -1.9350835e-05 -8.5962811e-06 
-2.1863393e-06 -2.9146838e-06 2.2510344e-06 
-1.4340441e-05 -4.1544132e-05 8.3538374e-08 
-1.8652479e-06 -1.8138759e-06 -1.0824574e-06 
-1.3846926e-07 2.8169006e-07 -2.1736237e-07 
-4.2812167e-07 2.2218117e-07 -8.3314512e-07 
-3.6491446e-07 -7.7459056e-08 -8.0003446e-07 
-7.7449715e-07 -9.0963306e-07 -1.4586099e-06 
-1.4628448e-07 2.6786697e-07 -2.2365570e-07 
-1.9537974e-06 -1.0041779e-06 1.1111176e-06 
-8.2994475e-06 -3.2833788e-05 7.9421061e-06 
-4.6408518e-06 -1.7313316e-05 6.5990007e-06 
-2.1134019e-06 -3.6347931e-06 -3.5555940e-06 
-7.9427110e-07 -1.2745121e-06 -2.1071160e-06 
-1.0764695e-06 -9.1266804e-07 -1.7492393e-06 
-9.7770371e-06 -7.7397744e-05 7.7885043e-06 
-1.4064590e-05 -1.0222312e-04 -2.9303608e-06 
-1.6819307e-05 -6.6663401e-05 -1.3992923e-05 
-9.0610678e-07 -2.6967200e-06 -3.3945009e-06 
-1.0903953e-05 -1.1762806e-04 5.8489022e-06 
-2.3669546e-07 9.5518899e-09 -6.8656999e-07 
-9.4416987e-07 -3.0603923e-07 -8.5782347e-07 
-8.6332248e-06 -3.0374940e-05 -9.0280528e-06 
-1.4599649e-06 -4.1795038e-06 3.4744439e-06 
-3.3049103e-06 -1.4884616e-05 -8.2730139e-06 
-8.6762464e-07 -1.1336587e-06 -2.2126353e-06 
-5.4188763e-06 -2.2451781e-05 9.9787603e-06 
-3.6280130e-07 2.0051077e-07 -6.7162154e-07 
-1.6582312e-07 2.3982560e-07 -5.4268645e-07 
-1.7313981e-06 -1.7351097e-06 -1.9816450e-06 
-9.3116547e-08 3.0781354e-07 -1.5226935e-07 
-3.6598851e-06 -3.7501329e-06 2.5874269e-06 
-8.6716517e-07 -2.9134517e-07 6.4282773e-07 
-3.3546983e-06 -8.6306009e-06 5.6176355e-06 
-4.8857701e-06 -2.9333843e-05 -9.6954900e-06 
-1.2336529e-06 -7.7708438e-07 -8.3241440e-07 
-1.6295495e-05 -5.9350172e-05 -2.8874304e-06 
-1.6180014e-05 -6.8898873e-05 2.2506708e-06 
-2.3016958e-06 -8.2482975e-06 -6.1077471e-06 
-1.6480222e-06 -3.6863521e-06 3.0177875e-06 
2.3483831e-07 -1.0315133e-04 4.1496132e-06 
-1.6413793e-06 -7.3231713e-05 7.6240685e-06 
-1.2308344e-05 -1.3732104e-04 -1.7643202e-06 
-9.9129556e-06 -1.2748087e-04 -4.0482309e-06 
-6.2063800e-06 -5.3955646e-05 7.8804615e-06 
-5.0730764e-06 -9.1205307e-05 -7.0633423e-06 
-4.5620886e-06 -6.3558400e-05 -6.9376638e-06 
-1.4927450e-06 -3.2078893e-05 -6.7253486e-06 
-1.0388405e-06 -2.0162315e-05 -6.8042332e-06 
-5.0976962e-07 -9.4153074e-06 -4.8962497e-06 
-3.7478051e-07 -3.9209358e-06 -3.2024921e-06 
-2.2668269e-07 -1.7336602e-06 -1.7948922e-06 
-2.3333264e-07 -7.9635464e-07 -1.2202953e-06 
-1.0534888e-07 -3.0995793e-07 -7.5349288e-07 
-4.8641091e-08 -2.4364084e-08 -3.0379400e-07 
-2.6012776e-06 -3.1430474e-05 9.6293397e-06 
-1.6234318e-06 -1.3992791e-05 6.2097397e-06 
-5.0508260e-07 -6.4094374e-06 3.5913731e-06 
9.6876020e-06 -4.2780539e-05 -2.2060594e-06 
2.6451596e-06 -1.2091716e-05 6.0175653e-06 
5.6579006e-07 -1.3483115e-06 1.6241098e-06 
2.9979296e-06 -1.1041756e-05 -6.2116997e-06 
8.5773763e-06 -2.0366062e-05 2.8447935e-06 
4.6888435e-06 -5.4157656e-05 8.5820247e-06 
1.8041789e-06 -2.4962112e-06 1.9212650e-06 
6.0514781e-06 -1.0547269e-05 -2.1584503e-06 
6.4370298e-08 -7.5890263e-08 4.4453373e-07 
3.8420009e-07 -6.6951025e-06 2.3172363e-06 
3.0966833e-06 -4.4539129e-06 -2.6030464e-06 
3.8330347e-07 -8.3588098e-08 6.6999928e-07 
3.1005154e-06 -4.3682452e-05 -7.5082230e-06 
1.9070845e-06 -2.5445725e-05 4.8543293e-06 
3.1899526e-06 -4.3232658e-06 2.2101410e-07 
-1.8406858e-09 -1.4633096e-06 5.0953639e-07 
4.9366822e-06 -9.8595861e-05 -3.7738417e-07 
1.0749676e-06 -2.0710786e-05 -2.7041056e-06 
2.3930388e-06 -2.2663901e-06 1.2031672e-06 
5.3424387e-06 -1.3205895e-05 -4.0691039e-06 
1.0839888e-06 -6.1560072e-06 1.4453367e-06 
7.9470892e-06 -4.0023529e-05 -6.7472183e-07 
3.0815477e-06 -8.7889612e-06 1.5701665e-06 
2.5248773e-06 -1.5367586e-05 -3.0252061e-06 
2.6970945e-06 -2.0504683e-06 -9.2532883e-07 
5.2621851e-07 -3.3599511e-07 8.2194350e-07 
8.1115638e-07 -3.8696621e-06 3.0023202e-06 
5.7782568e-08 7.2141894e-08 2.2186470e-07 
6.0187142e-07 -7.0688372e-07 4.6720848e-07 
5.4032057e-07 -4.2550550e-06 -9.4517736e-07 
9.0068388e-06 -1.6722066e-05 6.0629452e-07 
2.9294438e-07 -1.2757515e-06 5.4794350e-07 
1.0452548e-07 1.1529555e-07 2.1941563e-07 
1.4600932e-06 -2.5405543e-06 -1.6528259e-07 
4.6086084e-06 -2.2911354e-05 -4.7216795e-06 
7.1231229e-06 -2.1287526e-05 2.6676701e-06 
6.6084490e-06 -5.1446437e-05 -3.1685788e-06 
4.3109135e-06 -7.0267861e-06 3.9711435e-06 
3.1297052e-06 -2.9955374e-06 -5.6982094e-07 
4.5612792e-06 -2.7148051e-05 3.8742232e-06 
4.1302386e-07 -6.2277417e-07 -2.4994844e-07 
3.8853268e-06 -1.9853005e-05 6.3246548e-06 
-1.8706355e-06 -8.0503574e-05 -5.5097053e-06 
6.3125590e-08 -5.5110327e-06 -6.1918632e-07 
2.0584842e-07 -2.7370689e-07 7.6174319e-07 
8.6337884e-08 2.1192587e-07 1.2810652e-07 
8.7630963e-07 -1.0402825e-06 1.6737010e-06 
1.9566946e-06 -3.1725199e-06 -2.3965035e-06 
1.9537877e-06 -1.3723748e-05 -2.7598654e-07 
5.4692447e-07 -1.2575447e-06 -1.1132666e-07 
7.0031279e-09 -3.9457848e-07 1.2094264e-07 
1.4798118e-07 -4.9471385e-07 9.4531475e-07 
1.4250031e-06 -1.0923100e-06 -8.7186498e-07 
2.1124688e-06 -3.6346630e-06 3.3113258e-06 
5.4230331e-06 -6.9132498e-06 1.8429015e-06 
2.7883743e-07 -4.5585054e-07 2.6713622e-07 
-1.4247583e-07 -1.5166021e-05 1.9030172e-07 
-1.1862333e-07 -2.5032582e-06 2.7722902e-07 
1.0037248e-06 -5.7656193e-06 -3.1633276e-06 
-7.9480822e-09 7.6822715e-08 2.2805207e-08 
1.4991382e-07 1.5014010e-08 3.3901438e-07 
4.4592792e-08 2.8899819e-07 9.3886676e-08 
1.0999044e-06 -4.0691179e-06 2.7356847e-07 
6.2502313e-06 -5.5120152e-05 1.5074866e-06 
TOTAL_DISPLACEMENT 3 395  float
0.0000000e+00 0.0000000e+00 0.0000000e+00 
0.0000000e+00 0.0000000e+00 0.0000000e+00 
0.0000000e+00 0.0000000e+00 0.0000000e+00 
0.0000000e+00 0.0000000e+00 0.0000000e+00 
0.0000000e+00 0.0000000e+00 0.0000000e+00 
0.0000000e+00 0.0000000e+00 0.0000000e+00 
0.0000000e+00 0.0000000e+00 0.0000000e+00 
0.0000000e+00 0.0000000e+00 0.0000000e+00 
0.0000000e+00 0.0000000e+00 0.0000000e+00 
0.0000000e+00 0.0000000e+00 0.0000000e+00 
0.0000000e+00 0.0000000e+00 0.0000000e+00 
0.0000000e+00 0.0000000e+00 0.0000000e+00 
0.0000000e+00 0.0000000e+00 0.0000000e+00 
0.0000000e+00 0.0000000e+00 0.0000000e+00 
0.0000000e+00 0.0000000e+00 0.0000000e+00 
0.0000000e+00 0.0000000e+00 0.0000000e+00 
0.0000000e+00 0.0000000e+00 0.0000000e+00 
0.0000000e+00 0.0000000e+00 0.0000000e+00 
0.0000000e+00 0.0000000e+00 0.0000000e+00 
0.0000000e+00 0.0000000e+00 0.0000000e+00 
0.0000000e+00 0.0000000e+00 0.0000000e+00 
0.0000000e+00 0.0000000e+00 0.0000000e+00 
0.0000000e+00 0.0000000e+00 0.0000000e+00 
0.0000000e+00 0.0000000e+00 0.0000000e+00 
0.0000000e+00 0.0000000e+00 0.0000000e+00 
0.0000000e+00 0.0000000e+00 0.0000000e+00 
0.0000000e+00 0.0000000e+00 0.0000000e+00 
0.0000000e+00 0.0000000e+00 0.0000000e+00 
0.0000000e+00 0.0000000e+00 0.0000000e+00 
0.0000000e+00 0.0000000e+00 0.0000000e+00 
0.0000000e+00 0.0000000e+00 0.0000000e+00 
0.0000000e+00 0.0000000e+00 0.0000000e+00 
0.0000000e+00 0.0000000e+00 0.0000000e+00 
0.0000000e+00 0.0000000e+00 0.0000000e+00 
0.0000000e+00 0.0000000e+00 0.0000000e+00 
0.0000000e+00 0.0000000e+00 0.0000000e+00 
0.0000000e+00 0.0000000e+00 0.0000000e+00 
0.0000000e+00 0.0000000e+00 0.0000000e+00 
0.0000000e+00 0.0000000e+00 0.0000000e+00 
0.0000000e+00 0.0000000e+00 0.0000000e+00 
0.0000000e+00 0.0000000e+00 0.0000000e+00 
0.0000000e+00 0.0000000e+00 0.0000000e+00 
0.0000000e+00 0.0000000e+00 0.0000000e+00 
0.0000000e+00 0.0000000e+00 0.0000000e+00 
0.0000000e+00 0.0000000e+00 0.0000000e+00 
0.0000000e+00 0.0000000e+00 0.0000000e+00 
0.0000000e+00 0.0000000e+00 0.0000000e+00 
0.0000000e+00 0.0000000e+00 0.0000000e+00 
0.0000000e+00 0.0000000e+00 0.0000000e+00 
0.0000000e+00 0.0000000e+00 0.0000000e+00 
0.0000000e+00 0.0000000e+00 0.0000000e+00 
0.0000000e+00 0.0000000e+00 0.0000000e+00 
0.0000000e+00 0.0000000e+00 0.0000000e+00 
0.0000000e+00 0.0000000e+00 0.0000000e+00 
0.0000000e+00 0.0000000e+00 0.0000000e+00 
0.0000000e+00 0.0000000e+00 0.0000000e+00 
0.0000000e+00 0.0000000e+00 0.0000000e+00 