# vtk DataFile Version 4.0
vtk output
ASCII
DATASET UNSTRUCTURED_GRID
POINTS 395 float
0.0000000e+00 0.0000000e+00 0.0000000e+00 
5.0000000e+00 0.0000000e+00 0.0000000e+00 
5.0000000e+00 3.0000000e+00 0.0000000e+00 
0.0000000e+00 3.0000000e+00 0.0000000e+00 
0.0000000e+00 0.0000000e+00 1.0000000e+01 
5.0000000e+00 0.0000000e+00 1.0000000e+01 
5.0000000e+00 3.0000000e+00 1.0000000e+01 
0.0000000e+00 3.0000000e+00 1.0000000e+01 
1.0000000e+00 3.0000000e+00 5.0000000e-01 
1.0000000e+00 3.0000000e+00 1.0000000e+00 
1.0000000e+00 3.0000000e+00 1.5000000e+00 
1.0000000e+00 3.0000000e+00 2.0000000e+00 
1.0000000e+00 3.0000000e+00 2.5000000e+00 
1.0000000e+00 3.0000000e+00 3.0000000e+00 
1.0000000e+00 3.0000000e+00 3.5000000e+00 
1.0000000e+00 3.0000000e+00 4.0000000e+00 
1.0000000e+00 3.0000000e+00 4.5000000e+00 
1.0000000e+00 3.0000000e+00 5.0000000e+00 
1.0000000e+00 3.0000000e+00 5.5000000e+00 
1.0000000e+00 3.0000000e+00 6.0000000e+00 
1.0000000e+00 3.0000000e+00 6.5000000e+00 
1.0000000e+00 3.0000000e+00 7.0000000e+00 
1.0000000e+00 3.0000000e+00 7.5000000e+00 
1.0000000e+00 3.0000000e+00 8.0000000e+00 
1.0000000e+00 3.0000000e+00 8.5000000e+00 
1.0000000e+00 3.0000000e+00 9.0000000e+00 
1.0000000e+00 3.0000000e+00 9.5000000e+00 
1.0000000e+00 3.0000000e+00 0.0000000e+00 
1.0000000e+00 3.0000000e+00 1.0000000e+01 
1.0000000e+00 3.0250001e+00 0.0000000e+00 
1.0000000e+00 3.0250001e+00 5.0000000e-01 
1.0000000e+00 3.0250001e+00 1.0000000e+00 
1.0000000e+00 3.0250001e+00 1.5000000e+00 
1.0000000e+00 3.0250001e+00 2.0000000e+00 
1.0000000e+00 3.0250001e+00 2.5000000e+00 
1.0000000e+00 3.0250001e+00 3.0000000e+00 
1.0000000e+00 3.0250001e+00 3.5000000e+00 
1.0000000e+00 3.0250001e+00 4.0000000e+00 
1.0000000e+00 3.0250001e+00 4.5000000e+00 
1.0000000e+00 3.0250001e+00 5.0000000e+00 
1.0000000e+00 3.0250001e+00 5.5000000e+00 
1.0000000e+00 3.0250001e+00 6.0000000e+00 
1.0000000e+00 3.0250001e+00 6.5000000e+00 
1.0000000e+00 3.0250001e+00 7.0000000e+00 
1.0000000e+00 3.0250001e+00 7.5000000e+00 
1.0000000e+00 3.0250001e+00 8.0000000e+00 
1.0000000e+00 3.0250001e+00 8.5000000e+00 
1.0000000e+00 3.0250001e+00 9.0000000e+00 
1.0000000e+00 3.0250001e+00 9.5000000e+00 
1.0000000e+00 3.0250001e+00 1.0000000e+01 
1.0000000e+00 0.0000000e+00 0.0000000e+00 
2.0000000e+00 0.0000000e+00 0.0000000e+00 
3.0000000e+00 0.0000000e+00 0.0000000e+00 
4.0000000e+00 0.0000000e+00 0.0000000e+00 
5.0000000e+00 1.0000000e+00 0.0000000e+00 
5.0000000e+00 2.0000000e+00 0.0000000e+00 
0.0000000e+00 2.0000000e+00 0.0000000e+00 
0.0000000e+00 1.0000000e+00 0.0000000e+00 
0.0000000e+00 0.0000000e+00 1.0000000e+00 
0.0000000e+00 0.0000000e+00 2.0000000e+00 
0.0000000e+00 0.0000000e+00 3.0000000e+00 
0.0000000e+00 0.0000000e+00 4.0000000e+00 
0.0000000e+00 0.0000000e+00 5.0000000e+00 
0.0000000e+00 0.0000000e+00 6.0000000e+00 
0.0000000e+00 0.0000000e+00 7.0000000e+00 
0.0000000e+00 0.0000000e+00 8.0000000e+00 
0.0000000e+00 0.0000000e+00 9.0000000e+00 
5.0000000e+00 0.0000000e+00 1.0000000e+00 
5.0000000e+00 0.0000000e+00 2.0000000e+00 
5.0000000e+00 0.0000000e+00 3.0000000e+00 
5.0000000e+00 0.0000000e+00 4.0000000e+00 
5.0000000e+00 0.0000000e+00 5.0000000e+00 
5.0000000e+00 0.0000000e+00 6.0000000e+00 
5.0000000e+00 0.0000000e+00 7.0000000e+00 
5.0000000e+00 0.0000000e+00 8.0000000e+00 
5.0000000e+00 0.0000000e+00 9.0000000e+00 
1.0000000e+00 0.0000000e+00 1.0000000e+01 
2.0000000e+00 0.0000000e+00 1.0000000e+01 
3.0000000e+00 0.0000000e+00 1.0000000e+01 
4.0000000e+00 0.0000000e+00 1.0000000e+01 
5.0000000e+00 3.0000000e+00 1.0000000e+00 
5.0000000e+00 3.0000000e+00 2.0000000e+00 
5.0000000e+00 3.0000000e+00 3.0000000e+00 
5.0000000e+00 3.0000000e+00 4.0000000e+00 
5.0000000e+00 3.0000000e+00 5.0000000e+00 
5.0000000e+00 3.0000000e+00 6.0000000e+00 
5.0000000e+00 3.0000000e+00 7.0000000e+00 
5.0000000e+00 3.0000000e+00 8.0000000e+00 
5.0000000e+00 3.0000000e+00 9.0000000e+00 
5.0000000e+00 1.0000000e+00 1.0000000e+01 
5.0000000e+00 2.0000000e+00 1.0000000e+01 
0.0000000e+00 3.0000000e+00 1.0000000e+00 
0.0000000e+00 3.0000000e+00 2.0000000e+00 
0.0000000e+00 3.0000000e+00 3.0000000e+00 
0.0000000e+00 3.0000000e+00 4.0000000e+00 
0.0000000e+00 3.0000000e+00 5.0000000e+00 
0.0000000e+00 3.0000000e+00 6.0000000e+00 
0.0000000e+00 3.0000000e+00 7.0000000e+00 
0.0000000e+00 3.0000000e+00 8.0000000e+00 
0.0000000e+00 3.0000000e+00 9.0000000e+00 
0.0000000e+00 2.0000000e+00 1.0000000e+01 
0.0000000e+00 1.0000000e+00 1.0000000e+01 
4.0000000e+00 3.0000000e+00 0.0000000e+00 
3.0000000e+00 3.0000000e+00 0.0000000e+00 
2.0000000e+00 3.0000000e+00 0.0000000e+00 
4.0000000e+00 3.0000000e+00 1.0000000e+01 
3.0000000e+00 3.0000000e+00 1.0000000e+01 
2.0000000e+00 3.0000000e+00 1.0000000e+01 
1.5046000e+00 2.2345026e+00 0.0000000e+00 
4.0618000e+00 1.5000000e+00 0.0000000e+00 
2.5000000e+00 8.6602539e-01 0.0000000e+00 
2.4957771e+00 2.1843948e+00 0.0000000e+00 
1.5046000e+00 7.6549745e-01 0.0000000e+00 
3.4700506e+00 2.2420573e+00 0.0000000e+00 
3.4707544e+00 7.6634604e-01 0.0000000e+00 
8.6322361e-01 1.5000000e+00 0.0000000e+00 
2.0000000e+00 1.5000000e+00 0.0000000e+00 
2.9960666e+00 1.5025520e+00 0.0000000e+00 
4.2679491e+00 7.3205084e-01 0.0000000e+00 
4.2679491e+00 2.2679491e+00 0.0000000e+00 
7.2695929e-01 2.2730408e+00 0.0000000e+00 
7.2695929e-01 7.2695929e-01 0.0000000e+00 
4.1822505e+00 0.0000000e+00 2.5515697e+00 
4.2017918e+00 0.0000000e+00 4.4725966e+00 
4.1114569e+00 0.0000000e+00 6.5092020e+00 
8.6602539e-01 0.0000000e+00 3.5000000e+00 
8.4778279e-01 0.0000000e+00 5.4684029e+00 
8.9629614e-01 0.0000000e+00 7.5867257e+00 
2.5566745e+00 0.0000000e+00 8.1853306e-01 
2.4918270e+00 0.0000000e+00 9.1386929e+00 
8.4677207e-01 0.0000000e+00 1.5042374e+00 
4.0943027e+00 0.0000000e+00 8.4081745e+00 
8.6281651e-01 0.0000000e+00 2.5007062e+00 
1.7315160e+00 0.0000000e+00 3.0001178e+00 
1.7319617e+00 0.0000000e+00 4.0000196e+00 
2.5980761e+00 0.0000000e+00 3.5000000e+00 
2.5536871e+00 0.0000000e+00 4.4963923e+00 
2.5928419e+00 0.0000000e+00 2.4239938e+00 
1.5037409e+00 0.0000000e+00 9.1535149e+00 
1.8433737e+00 0.0000000e+00 8.1858873e+00 
3.0000000e+00 0.0000000e+00 8.2679491e+00 
2.5000000e+00 0.0000000e+00 7.4019237e+00 
3.5042722e+00 0.0000000e+00 7.4271150e+00 
3.0310018e+00 0.0000000e+00 6.5282087e+00 
2.0373929e+00 0.0000000e+00 6.5307913e+00 
3.4767809e+00 0.0000000e+00 5.8031492e+00 
2.5452602e+00 0.0000000e+00 5.5720768e+00 
1.6456656e+00 0.0000000e+00 1.9697139e+00 
8.6297011e-01 0.0000000e+00 4.4947371e+00 
1.0111579e+00 0.0000000e+00 6.5282545e+00 
3.4994321e+00 0.0000000e+00 8.4691072e-01 
4.1860156e+00 0.0000000e+00 3.5040276e+00 
1.7320508e+00 0.0000000e+00 5.0000000e+00 
4.0544066e+00 0.0000000e+00 1.5781221e+00 
1.5817389e+00 0.0000000e+00 9.3943578e-01 
8.3166349e-01 0.0000000e+00 8.5090933e+00 
3.4686174e+00 0.0000000e+00 9.1752682e+00 
3.0709300e+00 0.0000000e+00 1.5799091e+00 
3.3927374e+00 0.0000000e+00 3.0399952e+00 
3.3826034e+00 0.0000000e+00 3.9747651e+00 
4.3420062e+00 0.0000000e+00 7.4688983e+00 
3.4023225e+00 0.0000000e+00 4.9314723e+00 
1.6740381e+00 0.0000000e+00 7.3014426e+00 
4.2715640e+00 0.0000000e+00 5.4758859e+00 
1.6225953e+00 0.0000000e+00 5.8104177e+00 
4.2679491e+00 0.0000000e+00 9.2679491e+00 
7.3205084e-01 0.0000000e+00 7.3205084e-01 
4.2679491e+00 0.0000000e+00 7.3205084e-01 
7.3205084e-01 0.0000000e+00 9.2679491e+00 
3.4586334e+00 0.0000000e+00 2.2347178e+00 
2.2895701e+00 0.0000000e+00 1.5463171e+00 
5.0000000e+00 2.2345026e+00 1.5046000e+00 
5.0000000e+00 1.5000000e+00 9.0618000e+00 
5.0000000e+00 2.1339746e+00 3.5000000e+00 
5.0000000e+00 2.1339746e+00 5.5000000e+00 
5.0000000e+00 2.1339746e+00 7.5000000e+00 
5.0000000e+00 8.6602539e-01 2.5000000e+00 
5.0000000e+00 8.6602539e-01 4.5000000e+00 
5.0000000e+00 8.6602539e-01 6.5000000e+00 
5.0000000e+00 8.6602539e-01 3.5000000e+00 
5.0000000e+00 8.6602539e-01 5.5000000e+00 
5.0000000e+00 2.1584709e+00 2.5001996e+00 
5.0000000e+00 2.1339746e+00 4.5000000e+00 
5.0000000e+00 2.1339746e+00 6.5000000e+00 
5.0000000e+00 8.6602539e-01 7.5000000e+00 
5.0000000e+00 7.6549745e-01 1.5046000e+00 
5.0000000e+00 7.6634604e-01 8.4707546e+00 
5.0000000e+00 2.2336540e+00 8.4707546e+00 
5.0000000e+00 1.5000000e+00 8.6322361e-01 
5.0000000e+00 1.5000000e+00 5.0000000e+00 
5.0000000e+00 1.5000000e+00 7.0000000e+00 
5.0000000e+00 1.5000000e+00 2.0000000e+00 
5.0000000e+00 1.5000000e+00 6.0000000e+00 
5.0000000e+00 1.5000000e+00 4.0000000e+00 
5.0000000e+00 1.5000000e+00 3.0000000e+00 
5.0000000e+00 1.5000000e+00 7.9977231e+00 
5.0000000e+00 2.2679491e+00 9.2679491e+00 
5.0000000e+00 7.3205084e-01 9.2679491e+00 
5.0000000e+00 2.2730408e+00 7.2695929e-01 
5.0000000e+00 7.2695929e-01 7.2695929e-01 
0.0000000e+00 7.6549745e-01 1.5046000e+00 
0.0000000e+00 1.5000000e+00 9.0618000e+00 
0.0000000e+00 7.6689392e-01 3.5202229e+00 
0.0000000e+00 8.4174728e-01 6.5073700e+00 
0.0000000e+00 2.1339746e+00 2.5000000e+00 
0.0000000e+00 2.1503205e+00 4.5283122e+00 
0.0000000e+00 2.1339746e+00 7.5000000e+00 
0.0000000e+00 7.5539857e-01 2.5041373e+00 
0.0000000e+00 2.1917200e+00 3.5330307e+00 
0.0000000e+00 2.1758037e+00 5.5047188e+00 
0.0000000e+00 1.4323456e+00 5.0621295e+00 
0.0000000e+00 2.1560361e+00 6.5002046e+00 
0.0000000e+00 8.3464229e-01 7.4971519e+00 
0.0000000e+00 2.2345026e+00 1.5046000e+00 
0.0000000e+00 2.2336540e+00 8.4707546e+00 
0.0000000e+00 7.6111549e-01 8.4702797e+00 
0.0000000e+00 1.5000000e+00 8.6322361e-01 
0.0000000e+00 1.4454463e+00 4.0239491e+00 
0.0000000e+00 7.3467791e-01 5.5115833e+00 
0.0000000e+00 1.5000000e+00 2.0000000e+00 
0.0000000e+00 1.4948297e+00 6.9999175e+00 
0.0000000e+00 1.4754088e+00 3.0096834e+00 
0.0000000e+00 1.5025774e+00 6.0000000e+00 
0.0000000e+00 7.2989392e-01 4.5196476e+00 
0.0000000e+00 1.4981872e+00 7.9961324e+00 
0.0000000e+00 7.3205084e-01 9.2679491e+00 
0.0000000e+00 2.2679491e+00 9.2679491e+00 
0.0000000e+00 2.2730408e+00 7.2695929e-01 
0.0000000e+00 7.2695929e-01 7.2695929e-01 
1.5046000e+00 7.6549745e-01 1.0000000e+01 
[...]
POINT_DATA 395
FIELD FieldData 2
DISPLACEMENT 3 395  float
0.0000000e+00 0.0000000e+00 0.0000000e+00 
0.0000000e+00 0.0000000e+00 0.0000000e+00 
0.0000000e+00 -2.4415865e-06 0.0000000e+00 
0.0000000e+00 -6.6663488e-05 0.0000000e+00 
0.0000000e+00 0.0000000e+00 0.0000000e+00 
0.0000000e+00 0.0000000e+00 0.0000000e+00 
0.0000000e+00 3.7148240e-09 0.0000000e+00 
0.0000000e+00 1.1677012e-08 0.0000000e+00 
-3.3649694e-06 -1.0204969e-04 -1.5636981e-06 
-5.0797726e-06 -1.7055847e-04 1.1305064e-05 
-2.4591266e-06 -2.3464790e-04 -4.4433682e-06 
-5.5382593e-06 -2.4449357e-04 -1.3511305e-05 
-6.1558098e-06 -1.7270578e-04 -6.8425061e-06 
-8.8578799e-06 -9.5057781e-05 -1.4723669e-05 
-4.8377301e-06 -4.4158067e-05 -1.3053316e-05 
-3.2763960e-06 -1.7537604e-05 -1.0626488e-05 
-2.0667439e-06 -6.1521860e-06 -7.2449757e-06 
-1.0900073e-06 -1.9914205e-06 -4.8551510e-06 
-7.4923707e-07 -6.5027228e-07 -3.1400612e-06 
-4.2524633e-07 -2.9095187e-07 -1.9492738e-06 
-2.5810627e-07 -1.7853631e-07 -9.5754604e-07 
-1.1659271e-07 -9.5390980e-08 -5.8279301e-07 
-9.9368222e-08 -3.6892278e-08 -3.7223242e-07 
-5.1429364e-08 5.9737588e-09 -1.8042159e-07 
-2.6984026e-08 2.8713075e-08 -1.0097586e-07 
-2.2392209e-08 3.3203808e-08 -4.5071278e-08 
-8.5000993e-09 3.0042759e-08 -1.3171385e-08 
0.0000000e+00 -5.0910097e-05 0.0000000e+00 
0.0000000e+00 2.3836135e-08 0.0000000e+00 
0.0000000e+00 -5.0183073e-05 0.0000000e+00 
0.0000000e+00 -1.0297506e-04 0.0000000e+00 
0.0000000e+00 -1.7181049e-04 0.0000000e+00 
0.0000000e+00 -2.3851752e-04 0.0000000e+00 
0.0000000e+00 -2.4801085e-04 0.0000000e+00 
0.0000000e+00 -1.7606786e-04 0.0000000e+00 
0.0000000e+00 -9.6367119e-05 0.0000000e+00 
0.0000000e+00 -4.4330165e-05 0.0000000e+00 
0.0000000e+00 -1.7479329e-05 0.0000000e+00 
0.0000000e+00 -6.0177117e-06 0.0000000e+00 
0.0000000e+00 -1.8976873e-06 0.0000000e+00 
0.0000000e+00 -6.1315092e-07 0.0000000e+00 
0.0000000e+00 -2.7319305e-07 0.0000000e+00 
0.0000000e+00 -1.7049295e-07 0.0000000e+00 
0.0000000e+00 -9.5408339e-08 0.0000000e+00 
0.0000000e+00 -3.6357822e-08 0.0000000e+00 
0.0000000e+00 5.7883769e-09 0.0000000e+00 
0.0000000e+00 2.8297650e-08 0.0000000e+00 
0.0000000e+00 3.3353505e-08 0.0000000e+00 
0.0000000e+00 3.0026214e-08 0.0000000e+00 
0.0000000e+00 2.3888047e-08 0.0000000e+00 
0.0000000e+00 0.0000000e+00 0.0000000e+00 
0.0000000e+00 0.0000000e+00 0.0000000e+00 
0.0000000e+00 0.0000000e+00 0.0000000e+00 
0.0000000e+00 0.0000000e+00 0.0000000e+00 
0.0000000e+00 -1.5253786e-06 0.0000000e+00 
0.0000000e+00 -2.2940869e-06 0.0000000e+00 
0.0000000e+00 -5.4146058e-05 0.0000000e+00 
0.0000000e+00 -2.8997170e-05 0.0000000e+00 
0.0000000e+00 0.0000000e+00 0.0000000e+00 
0.0000000e+00 0.0000000e+00 0.0000000e+00 
0.0000000e+00 0.0000000e+00 0.0000000e+00 
0.0000000e+00 0.0000000e+00 0.0000000e+00 
0.0000000e+00 0.0000000e+00 0.0000000e+00 
0.0000000e+00 0.0000000e+00 0.0000000e+00 
0.0000000e+00 0.0000000e+00 0.0000000e+00 
0.0000000e+00 0.0000000e+00 0.0000000e+00 
0.0000000e+00 0.0000000e+00 0.0000000e+00 
0.0000000e+00 0.0000000e+00 0.0000000e+00 
0.0000000e+00 0.0000000e+00 0.0000000e+00 
0.0000000e+00 0.0000000e+00 0.0000000e+00 
0.0000000e+00 0.0000000e+00 0.0000000e+00 
0.0000000e+00 0.0000000e+00 0.0000000e+00 
0.0000000e+00 0.0000000e+00 0.0000000e+00 
0.0000000e+00 0.0000000e+00 0.0000000e+00 
0.0000000e+00 0.0000000e+00 0.0000000e+00 
0.0000000e+00 0.0000000e+00 0.0000000e+00 
0.0000000e+00 0.0000000e+00 0.0000000e+00 
0.0000000e+00 0.0000000e+00 0.0000000e+00 
0.0000000e+00 0.0000000e+00 0.0000000e+00 
0.0000000e+00 0.0000000e+00 0.0000000e+00 
0.0000000e+00 -2.6188054e-06 0.0000000e+00 
0.0000000e+00 -1.1312413e-06 0.0000000e+00 
0.0000000e+00 -7.6576953e-07 0.0000000e+00 
0.0000000e+00 -5.5626555e-07 0.0000000e+00 
0.0000000e+00 2.0315893e-07 0.0000000e+00 
0.0000000e+00 2.4732859e-07 0.0000000e+00 
0.0000000e+00 1.7944024e-07 0.0000000e+00 
0.0000000e+00 1.1631723e-07 0.0000000e+00 
0.0000000e+00 3.0821873e-08 0.0000000e+00 
0.0000000e+00 2.6091798e-10 0.0000000e+00 
0.0000000e+00 4.8807358e-09 0.0000000e+00 
0.0000000e+00 -9.1523696e-05 0.0000000e+00 
0.0000000e+00 -1.0466764e-04 0.0000000e+00 
0.0000000e+00 -6.2744555e-05 0.0000000e+00 
0.0000000e+00 -2.1420528e-05 0.0000000e+00 
0.0000000e+00 -5.1089969e-06 0.0000000e+00 
0.0000000e+00 -1.1340197e-06 0.0000000e+00 
0.0000000e+00 -2.7012427e-07 0.0000000e+00 
0.0000000e+00 -3.4872482e-08 0.0000000e+00 
0.0000000e+00 1.0463337e-08 0.0000000e+00 
0.0000000e+00 6.5293357e-09 0.0000000e+00 
0.0000000e+00 2.2868774e-09 0.0000000e+00 
0.0000000e+00 -5.6944154e-06 0.0000000e+00 
0.0000000e+00 -1.6748403e-05 0.0000000e+00 
0.0000000e+00 -3.8809532e-05 0.0000000e+00 
0.0000000e+00 1.5726309e-08 0.0000000e+00 
0.0000000e+00 2.9463576e-08 0.0000000e+00 
0.0000000e+00 2.7290264e-08 0.0000000e+00 
0.0000000e+00 -4.7353362e-05 0.0000000e+00 
0.0000000e+00 -3.6891527e-06 0.0000000e+00 
0.0000000e+00 -1.0986931e-05 0.0000000e+00 
0.0000000e+00 -2.3909482e-05 0.0000000e+00 
0.0000000e+00 -1.6810825e-05 0.0000000e+00 
0.0000000e+00 -8.8341803e-06 0.0000000e+00 
0.0000000e+00 -4.7746330e-06 0.0000000e+00 
0.0000000e+00 -4.1587889e-05 0.0000000e+00 
0.0000000e+00 -2.4848074e-05 0.0000000e+00 
0.0000000e+00 -1.2817558e-05 0.0000000e+00 
0.0000000e+00 -2.0857281e-06 0.0000000e+00 
0.0000000e+00 -3.4516238e-06 0.0000000e+00 
0.0000000e+00 -5.8295682e-05 0.0000000e+00 
0.0000000e+00 -1.9732806e-05 0.0000000e+00 
0.0000000e+00 0.0000000e+00 0.0000000e+00 
0.0000000e+00 0.0000000e+00 0.0000000e+00 
0.0000000e+00 0.0000000e+00 0.0000000e+00 
0.0000000e+00 0.0000000e+00 0.0000000e+00 
0.0000000e+00 0.0000000e+00 0.0000000e+00 
0.0000000e+00 0.0000000e+00 0.0000000e+00 
0.0000000e+00 0.0000000e+00 0.0000000e+00 
0.0000000e+00 0.0000000e+00 0.0000000e+00 
0.0000000e+00 0.0000000e+00 0.0000000e+00 
0.0000000e+00 0.0000000e+00 0.0000000e+00 
0.0000000e+00 0.0000000e+00 0.0000000e+00 
0.0000000e+00 0.0000000e+00 0.0000000e+00 
0.0000000e+00 0.0000000e+00 0.0000000e+00 
0.0000000e+00 0.0000000e+00 0.0000000e+00 
0.0000000e+00 0.0000000e+00 0.0000000e+00 
0.0000000e+00 0.0000000e+00 0.0000000e+00 
0.0000000e+00 0.0000000e+00 0.0000000e+00 
0.0000000e+00 0.0000000e+00 0.0000000e+00 
0.0000000e+00 0.0000000e+00 0.0000000e+00 
0.0000000e+00 0.0000000e+00 0.0000000e+00 
0.0000000e+00 0.0000000e+00 0.0000000e+00 
0.0000000e+00 0.0000000e+00 0.0000000e+00 
0.0000000e+00 0.0000000e+00 0.0000000e+00 
0.0000000e+00 0.0000000e+00 0.0000000e+00 
0.0000000e+00 0.0000000e+00 0.0000000e+00 
0.0000000e+00 0.0000000e+00 0.0000000e+00 
0.0000000e+00 0.0000000e+00 0.0000000e+00 
0.0000000e+00 0.0000000e+00 0.0000000e+00 
0.0000000e+00 0.0000000e+00 0.0000000e+00 
0.0000000e+00 0.0000000e+00 0.0000000e+00 
0.0000000e+00 0.0000000e+00 0.0000000e+00 
0.0000000e+00 0.0000000e+00 0.0000000e+00 
0.0000000e+00 0.0000000e+00 0.0000000e+00 
0.0000000e+00 0.0000000e+00 0.0000000e+00 
0.0000000e+00 0.0000000e+00 0.0000000e+00 
0.0000000e+00 0.0000000e+00 0.0000000e+00 
0.0000000e+00 0.0000000e+00 0.0000000e+00 
0.0000000e+00 0.0000000e+00 0.0000000e+00 
0.0000000e+00 0.0000000e+00 0.0000000e+00 
0.0000000e+00 0.0000000e+00 0.0000000e+00 
0.0000000e+00 0.0000000e+00 0.0000000e+00 
0.0000000e+00 0.0000000e+00 0.0000000e+00 
0.0000000e+00 0.0000000e+00 0.0000000e+00 
0.0000000e+00 0.0000000e+00 0.0000000e+00 
0.0000000e+00 0.0000000e+00 0.0000000e+00 
0.0000000e+00 0.0000000e+00 0.0000000e+00 
0.0000000e+00 0.0000000e+00 0.0000000e+00 
0.0000000e+00 0.0000000e+00 0.0000000e+00 
0.0000000e+00 0.0000000e+00 0.0000000e+00 
0.0000000e+00 -1.1050271e-06 0.0000000e+00 
0.0000000e+00 1.3445161e-08 0.0000000e+00 
0.0000000e+00 -5.5328917e-07 0.0000000e+00 
0.0000000e+00 3.7888935e-07 0.0000000e+00 
0.0000000e+00 1.5819279e-07 0.0000000e+00 
0.0000000e+00 -1.0943503e-06 0.0000000e+00 
0.0000000e+00 2.3443990e-08 0.0000000e+00 
0.0000000e+00 5.6831798e-08 0.0000000e+00 
0.0000000e+00 -9.3964076e-07 0.0000000e+00 
0.0000000e+00 5.4739992e-08 0.0000000e+00 
0.0000000e+00 -8.8471836e-07 0.0000000e+00 
0.0000000e+00 2.7070791e-07 0.0000000e+00 
0.0000000e+00 2.8487480e-07 0.0000000e+00 
0.0000000e+00 5.1197841e-08 0.0000000e+00 
0.0000000e+00 -1.0033325e-06 0.0000000e+00 
0.0000000e+00 1.9186773e-08 0.0000000e+00 
0.0000000e+00 6.9207317e-08 0.0000000e+00 
0.0000000e+00 -1.4607326e-06 0.0000000e+00 
0.0000000e+00 2.7125057e-07 0.0000000e+00 
0.0000000e+00 1.2446820e-07 0.0000000e+00 
0.0000000e+00 -8.5082803e-07 0.0000000e+00 
0.0000000e+00 2.0549022e-07 0.0000000e+00 
0.0000000e+00 -1.3557717e-07 0.0000000e+00 
0.0000000e+00 -7.1397415e-07 0.0000000e+00 
0.0000000e+00 8.1804927e-08 0.0000000e+00 
0.0000000e+00 1.6102929e-08 0.0000000e+00 
0.0000000e+00 2.7065568e-09 0.0000000e+00 
0.0000000e+00 -1.6503509e-06 0.0000000e+00 
0.0000000e+00 -9.9061015e-07 0.0000000e+00 
0.0000000e+00 -2.8334116e-05 0.0000000e+00 
0.0000000e+00 7.6335986e-09 0.0000000e+00 
0.0000000e+00 -1.2229128e-05 0.0000000e+00 
0.0000000e+00 -4.3755216e-07 0.0000000e+00 
0.0000000e+00 -7.1732531e-05 0.0000000e+00 
0.0000000e+00 -9.6504727e-06 0.0000000e+00 
0.0000000e+00 -1.1850510e-07 0.0000000e+00 
0.0000000e+00 -2.3457551e-05 0.0000000e+00 
0.0000000e+00 -3.6117111e-05 0.0000000e+00 
0.0000000e+00 -2.3432333e-06 0.0000000e+00 
0.0000000e+00 -4.0052623e-06 0.0000000e+00 
0.0000000e+00 -5.6183376e-07 0.0000000e+00 
0.0000000e+00 -8.2107363e-08 0.0000000e+00 
0.0000000e+00 -8.9564550e-05 0.0000000e+00 
0.0000000e+00 -1.2779834e-08 0.0000000e+00 
0.0000000e+00 1.3923502e-09 0.0000000e+00 
0.0000000e+00 -4.8114511e-05 0.0000000e+00 
0.0000000e+00 -1.3371066e-05 0.0000000e+00 
0.0000000e+00 -1.1359497e-06 0.0000000e+00 
0.0000000e+00 -5.8387246e-05 0.0000000e+00 
0.0000000e+00 -2.4503206e-07 0.0000000e+00 
0.0000000e+00 -3.8670118e-05 0.0000000e+00 
0.0000000e+00 -1.1644141e-06 0.0000000e+00 
0.0000000e+00 -4.8896836e-06 0.0000000e+00 
0.0000000e+00 -4.4997197e-08 0.0000000e+00 
0.0000000e+00 -1.6584614e-09 0.0000000e+00 
0.0000000e+00 1.2972798e-08 0.0000000e+00 
0.0000000e+00 -6.9072157e-05 0.0000000e+00 
0.0000000e+00 -2.2865099e-05 0.0000000e+00 
0.0000000e+00 4.0041406e-09 0.0000000e+00 
0.0000000e+00 6.7370451e-09 0.0000000e+00 
0.0000000e+00 3.4178033e-08 0.0000000e+00 
0.0000000e+00 3.0233188e-08 0.0000000e+00 
0.0000000e+00 7.9696640e-09 0.0000000e+00 
0.0000000e+00 2.3064580e-08 0.0000000e+00 
0.0000000e+00 4.4830308e-09 0.0000000e+00 
0.0000000e+00 1.5579205e-08 0.0000000e+00 
0.0000000e+00 2.4398846e-08 0.0000000e+00 
0.0000000e+00 2.0138755e-08 0.0000000e+00 
0.0000000e+00 -1.0045329e-09 0.0000000e+00 
0.0000000e+00 1.0038628e-08 0.0000000e+00 
0.0000000e+00 2.2391609e-08 0.0000000e+00 
0.0000000e+00 2.9265173e-09 0.0000000e+00 
-2.8420430e-07 -1.3320414e-07 -9.0650906e-07 
-1.0167321e-05 -9.8004166e-05 -7.4911063e-06 
-5.8871292e-06 -2.5703719e-05 -1.1184972e-05 
-1.0882184e-06 -1.7090180e-06 -3.6959534e-06 
-5.2464916e-08 6.1030541e-08 -1.5579293e-07 
-1.2645982e-06 -3.3232416e-07 -1.0515606e-06 
-7.9509007e-08 1.9462072e-07 -7.1492039e-08 
-2.8277057e-06 -2.9318458e-06 -7.4674170e-07 
-8.8041652e-06 -1.0462532e-04 -1.6208501e-06 
-1.7774076e-08 5.3443028e-08 -3.1072336e-08 
-6.6998987e-06 -1.0756362e-05 2.0852715e-07 
-1.4945439e-08 3.7646558e-08 -1.9219433e-08 
-1.9073049e-06 -1.5098237e-06 -1.3335449e-06 
-5.6995150e-06 -7.2294069e-06 -2.3382959e-06 
-6.8006752e-06 -1.1369481e-05 -1.7472161e-06 
-8.5770234e-06 -1.9992032e-05 -4.0346958e-06 
-7.6867263e-06 -1.1129177e-05 -5.9334011e-06 
-1.1211771e-05 -3.1220799e-05 -2.1729593e-06 
-1.1010591e-05 -2.8690574e-05 -8.9059795e-06 
-2.7643532e-06 -3.0583478e-06 -2.3034411e-06 
-2.3156831e-06 -1.7829713e-06 -2.1426590e-06 
-3.4561426e-06 -6.2699532e-06 -4.4285725e-06 
-1.9562983e-06 -2.6181287e-06 -3.2074963e-06 
-1.1930726e-06 -7.6139719e-07 -1.5901294e-06 
-7.3717382e-07 -9.5478265e-07 -1.8896307e-06 
-4.9853730e-07 -9.1684349e-09 -7.5003442e-07 
-6.4152943e-07 2.1086434e-07 -8.0737891e-07 
-3.1063785e-06 -6.4284163e-06 -5.5257142e-06 
-6.4463330e-07 -2.2995052e-07 -1.3204163e-06 
-3.3017676e-07 1.4306917e-07 -5.5867446e-07 
-7.4041725e-07 -7.1776276e-07 -2.1637284e-06 
-9.1591783e-06 -2.5417823e-05 -2.9184454e-07 
-6.2571007e-06 -1.6181521e-05 -6.5123313e-06 
-5.8109032e-07 2.5782151e-07 -6.0269764e-07 
-1.6701822e-08 4.7260990e-08 -1.9417922e-11 
-6.5122862e-08 1.1308641e-07 -8.6790855e-08 
-5.2054350e-08 9.3168786e-08 -7.1339059e-08 
-1.2608648e-07 1.2475822e-07 -2.2005007e-07 
-1.8423643e-08 8.7352554e-08 -1.9480206e-09 
-4.6020850e-06 -4.5861589e-06 -4.0970565e-07 
-1.1764208e-05 -5.4341726e-05 -8.2482084e-06 
-1.2444839e-05 -6.5401589e-05 -2.2262825e-06 
-2.8964539e-07 5.2983104e-08 -6.1210352e-07 
-1.1016382e-07 9.9361259e-08 -2.8550025e-07 
-1.7209705e-07 1.4476196e-07 -2.6319262e-07 
-1.0034892e-05 -8.1137725e-05 -1.1085033e-05 
-3.8406492e-06 -1.2499964e-05 -9.8111414e-06 
-1.2297130e-06 -5.2361861e-06 -5.7303996e-06 
-1.5078868e-07 -1.2222147e-08 -4.5409931e-07 
-7.5500675e-06 -5.3411459e-05 -1.3683547e-05 
-3.2816949e-08 5.5702660e-08 -5.7120864e-08 
-1.8910866e-07 2.7844268e-07 -1.8800093e-07 
-1.4316373e-06 -2.7366218e-06 -3.3996330e-06 
-1.4499825e-05 -6.7772569e-05 3.1097056e-06 
-4.3171258e-07 -5.1572050e-07 -1.4995329e-06 
-1.0542337e-07 4.9540649e-08 -2.5937496e-07 
-1.6363034e-05 -1.1493982e-04 -5.2777796e-06 
-5.6845415e-08 1.5806987e-07 -5.1724143e-08 
-2.5582285e-08 5.4093967e-08 -3.9722853e-08 
-2.9712803e-07 1.4850917e-07 -4.1279145e-07 
-7.5838047e-09 2.7131646e-08 1.8014553e-09 
-8.5096890e-06 -1.5048253e-05 -1.5039160e-06 
-3.0973190e-06 -4.1109538e-06 -8.0396319e-08 
-1.4683891e-05 -5.6559980e-05 1.4562637e-06 
-7.1918259e-07 -8.3012628e-07 -2.6651812e-06 
-3.2308020e-07 2.9578268e-07 -3.2183920e-07 
-5.3337303e-06 -1.4067932e-05 -8.2286797e-06 
-6.4244073e-06 -2.5305217e-05 -9.2517812e-06 
-3.4917855e-07 -2.0110251e-07 -1.1595414e-06 
-1.0035099e-05 -4.2154395e-05 1.0137256e-06 
-9.8744454e-07 -5.1634099e-05 -1.0167138e-05 
-1.2659519e-06 -8.8872788e-05 -1.0838673e-05 
-2.3953403e-06 -2.9210907e-05 -9.4984089e-06 
-1.0155533e-06 -1.4898091e-05 -6.7021178e-06 
-1.2760920e-05 -1.3585326e-04 -7.1098962e-06 
-6.9795300e-07 -7.1172285e-06 -4.9847422e-06 
-2.8884904e-07 -3.0567505e-06 -3.4003815e-06 
-2.1538743e-07 -1.2346527e-06 -1.9743727e-06 
-1.5032204e-07 -8.4538897e-07 -1.3343135e-06 
-6.7686670e-08 -3.9373370e-07 -7.1362433e-07 
-4.7786450e-08 -1.0133091e-07 -4.0586599e-07 
-3.1044483e-08 -1.0900224e-08 -2.1249174e-07 
-3.2521466e-08 7.5764550e-09 -1.2351012e-07 
-1.2891634e-08 1.2054201e-08 -6.4395060e-08 
-7.2625794e-09 1.9099415e-08 -2.1396373e-08 
-8.8809111e-06 -1.2835671e-04 -3.4551231e-06 
-1.4681617e-05 -1.3469055e-04 -4.7896583e-07 
-2.1910494e-06 -8.9573434e-05 2.8821589e-06 
4.4598046e-06 -1.9887246e-05 7.0806504e-06 
1.1139113e-07 -6.7578520e-07 1.0066807e-06 
3.1162894e-08 6.1931345e-08 1.9901537e-07 
1.1550858e-05 -4.6156387e-05 1.2419875e-06 
1.3693048e-06 -3.6644717e-06 2.7277738e-06 
9.3545140e-08 -5.5267283e-06 2.1997255e-06 
1.8255697e-07 4.1996024e-08 4.8780373e-07 
5.6789763e-06 -9.8681221e-06 3.2591659e-06 
-3.0496434e-09 4.2394490e-08 2.7708724e-08 
-6.1152967e-08 -1.1857528e-07 6.6238194e-08 
6.7517240e-06 -1.2255206e-05 9.2387700e-07 
2.1744883e-08 9.8966815e-08 8.2084682e-08 
7.8042058e-06 -6.2223276e-05 6.7231472e-06 
-5.6949531e-08 -1.1652580e-06 1.9137455e-07 
1.2736948e-06 -9.4832006e-07 1.1419970e-06 
-2.1539003e-08 4.2410495e-08 -1.4718571e-08 
3.3092331e-07 -2.4402390e-05 2.9605594e-06 
4.1659782e-06 -1.0293353e-04 -1.6602706e-06 
5.6068717e-07 -7.9656807e-08 7.3378749e-07 
7.6515535e-06 -1.5808990e-05 4.2954616e-06 
-8.7614723e-08 -3.0971698e-08 2.6738411e-08 
1.4342074e-06 -1.4134704e-05 2.8600732e-06 
2.7123968e-07 -5.6603602e-07 5.5920316e-07 
6.3285356e-06 -2.5488536e-05 1.5167772e-06 
3.5108103e-06 -3.0407175e-06 8.1634977e-07 
4.0640039e-08 8.7161901e-08 1.5052329e-07 
6.8022089e-08 -1.2844691e-07 4.3331875e-07 
-7.3001907e-09 5.9146771e-08 1.1596094e-08 
9.2690925e-08 2.6835156e-07 1.6781618e-07 
3.9717138e-06 -3.3120450e-05 -1.4115300e-06 
4.2557749e-06 -6.2665567e-06 4.5994934e-06 
-3.7694413e-08 1.6916579e-07 9.2180530e-09 
2.5477929e-09 2.9580136e-08 2.3476893e-08 
1.0495544e-06 -2.3786922e-06 4.5185013e-07 
4.9445725e-06 -2.5944242e-05 4.6785349e-06 
1.5733661e-06 -5.1274901e-06 4.4038588e-06 
3.2785765e-06 -3.2757322e-05 3.9979845e-06 
7.0319709e-07 -7.3837049e-07 1.5996334e-06 
2.3459756e-06 -2.3697489e-06 1.6027933e-06 
-1.7581748e-09 -2.1972130e-06 5.6110423e-07 
1.1480973e-06 -4.3110317e-06 -1.6959321e-07 
1.6518425e-07 -2.1665007e-06 1.8869830e-06 
-6.6254483e-07 -5.8611247e-05 5.3636109e-06 
3.7755251e-06 -7.6412820e-05 -5.2281835e-06 
5.4833480e-09 2.2269736e-08 7.9624122e-08 
-1.3293848e-09 1.1644816e-07 1.9039367e-08 
8.6789484e-08 1.0867439e-08 2.9869273e-07 
7.2869325e-06 -1.6292859e-05 4.5914635e-07 
1.0647932e-06 -4.8850252e-06 5.2064593e-07 
1.0438077e-06 -3.3189172e-06 -6.8767503e-09 
-1.9728574e-08 1.1025588e-07 -1.1914888e-08 
3.5103991e-09 1.3021466e-08 9.7154931e-08 
3.1925690e-06 -3.0666988e-06 3.1203232e-08 
1.9140580e-07 -1.9866992e-07 7.4780019e-07 
1.7054614e-06 -1.7761901e-06 2.1692917e-06 
-7.9240303e-09 2.1983692e-07 6.4818501e-08 
-1.8311624e-07 -3.8183089e-07 -4.7756907e-07 
-5.7763927e-08 9.7078498e-08 -5.4993237e-08 
4.8465645e-06 -3.1425992e-05 -5.6590926e-07 
-4.3933359e-09 3.2424566e-08 4.6417492e-10 
5.6645866e-09 2.2403345e-08 2.9453442e-08 
-4.2327990e-09 5.2947875e-08 1.1422465e-08 
9.8742845e-08 -9.3036000e-08 3.2643382e-07 
-8.4309897e-07 -6.9826328e-06 -6.4852816e-07 
TOTAL_DISPLACEMENT 3 395  float
0.0000000e+00 0.0000000e+00 0.0000000e+00 
0.0000000e+00 0.0000000e+00 0.0000000e+00 
0.0000000e+00 0.0000000e+00 0.0000000e+00 
0.0000000e+00 0.0000000e+00 0.0000000e+00 
0.0000000e+00 0.0000000e+00 0.0000000e+00 
0.0000000e+00 0.0000000e+00 0.0000000e+00 
0.0000000e+00 0.0000000e+00 0.0000000e+00 
0.0000000e+00 0.0000000e+00 0.0000000e+00 
0.0000000e+00 0.0000000e+00 0.0000000e+00 
0.0000000e+00 0.0000000e+00 0.0000000e+00 
0.0000000e+00 0.0000000e+00 0.0000000e+00 
0.0000000e+00 0.0000000e+00 0.0000000e+00 
0.0000000e+00 0.0000000e+00 0.0000000e+00 
0.0000000e+00 0.0000000e+00 0.0000000e+00 
0.0000000e+00 0.0000000e+00 0.0000000e+00 
0.0000000e+00 0.0000000e+00 0.0000000e+00 
0.0000000e+00 0.0000000e+00 0.0000000e+00 
0.0000000e+00 0.0000000e+00 0.0000000e+00 
0.0000000e+00 0.0000000e+00 0.0000000e+00 
0.0000000e+00 0.0000000e+00 0.0000000e+00 
0.0000000e+00 0.0000000e+00 0.0000000e+00 
0.0000000e+00 0.0000000e+00 0.0000000e+00 
0.0000000e+00 0.0000000e+00 0.0000000e+00 
0.0000000e+00 0.0000000e+00 0.0000000e+00 
0.0000000e+00 0.0000000e+00 0.0000000e+00 
0.0000000e+00 0.0000000e+00 0.0000000e+00 
0.0000000e+00 0.0000000e+00 0.0000000e+00 
0.0000000e+00 0.0000000e+00 0.0000000e+00 
0.0000000e+00 0.0000000e+00 0.0000000e+00 
0.0000000e+00 0.0000000e+00 0.0000000e+00 
0.0000000e+00 0.0000000e+00 0.0000000e+00 
0.0000000e+00 0.0000000e+00 0.0000000e+00 
0.0000000e+00 0.0000000e+00 0.0000000e+00 
0.0000000e+00 0.0000000e+00 0.0000000e+00 
0.0000000e+00 0.0000000e+00 0.0000000e+00 
0.0000000e+00 0.0000000e+00 0.0000000e+00 
0.0000000e+00 0.0000000e+00 0.0000000e+00 
0.0000000e+00 0.0000000e+00 0.0000000e+00 
0.0000000e+00 0.0000000e+00 0.0000000e+00 
0.0000000e+00 0.0000000e+00 0.0000000e+00 
0.0000000e+00 0.0000000e+00 0.0000000e+00 
0.0000000e+00 0.0000000e+00 0.0000000e+00 
0.0000000e+00 0.0000000e+00 0.0000000e+00 
0.0000000e+00 0.0000000e+00 0.0000000e+00 
0.0000000e+00 0.0000000e+00 0.0000000e+00 
0.0000000e+00 0.0000000e+00 0.0000000e+00 
0.0000000e+00 0.0000000e+00 0.0000000e+00 
0.0000000e+00 0.0000000e+00 0.0000000e+00 
0.0000000e+00 0.0000000e+00 0.0000000e+00 
0.0000000e+00 0.0000000e+00 0.0000000e+00 
0.0000000e+00 0.0000000e+00 0.0000000e+00 
0.0000000e+00 0.0000000e+00 0.0000000e+00 
0.0000000e+00 0.0000000e+00 0.0000000e+00 
0.0000000e+00 0.0000000e+00 0.0000000e+00 
0.0000000e+00 0.0000000e+00 0.0000000e+00 
0.0000000e+00 0.0000000e+00 0.0000000e+00 
0.0000000e+00 0.0000000e+00 0.0000000e+00 