# vtk DataFile Version 4.0
vtk output
ASCII
DATASET UNSTRUCTURED_GRID
POINTS 395 float
0.0000000e+00 0.0000000e+00 0.0000000e+00 
5.0000000e+00 0.0000000e+00 0.0000000e+00 
5.0000000e+00 3.0000000e+00 0.0000000e+00 
0.0000000e+00 3.0000000e+00 0.0000000e+00 
0.0000000e+00 0.0000000e+00 1.0000000e+01 
5.0000000e+00 0.0000000e+00 1.0000000e+01 
5.0000000e+00 3.0000000e+00 1.0000000e+01 
0.0000000e+00 3.0000000e+00 1.0000000e+01 
1.0000000e+00 3.0000000e+00 5.0000000e-01 
1.0000000e+00 3.0000000e+00 1.0000000e+00 
1.0000000e+00 3.0000000e+00 1.5000000e+00 
1.0000000e+00 3.0000000e+00 2.0000000e+00 
1.0000000e+00 3.0000000e+00 2.5000000e+00 
1.0000000e+00 3.0000000e+00 3.0000000e+00 
1.0000000e+00 3.0000000e+00 3.5000000e+00 
1.0000000e+00 3.0000000e+00 4.0000000e+00 
1.0000000e+00 3.0000000e+00 4.5000000e+00 
1.0000000e+00 3.0000000e+00 5.0000000e+00 
1.0000000e+00 3.0000000e+00 5.5000000e+00 
1.0000000e+00 3.0000000e+00 6.0000000e+00 
1.0000000e+00 3.0000000e+00 6.5000000e+00 
1.0000000e+00 3.0000000e+00 7.0000000e+00 
1.0000000e+00 3.0000000e+00 7.5000000e+00 
1.0000000e+00 3.0000000e+00 8.0000000e+00 
1.0000000e+00 3.0000000e+00 8.5000000e+00 
1.0000000e+00 3.0000000e+00 9.0000000e+00 
1.0000000e+00 3.0000000e+00 9.5000000e+00 
1.0000000e+00 3.0000000e+00 0.0000000e+00 
1.0000000e+00 3.0000000e+00 1.0000000e+01 
1.0000000e+00 3.0250001e+00 0.0000000e+00 
1.0000000e+00 3.0250001e+00 5.0000000e-01 
1.0000000e+00 3.0250001e+00 1.0000000e+00 
1.0000000e+00 3.0250001e+00 1.5000000e+00 
1.0000000e+00 3.0250001e+00 2.0000000e+00 
1.0000000e+00 3.0250001e+00 2.5000000e+00 
1.0000000e+00 3.0250001e+00 3.0000000e+00 
1.0000000e+00 3.0250001e+00 3.5000000e+00 
1.0000000e+00 3.0250001e+00 4.0000000e+00 
1.0000000e+00 3.0250001e+00 4.5000000e+00 
1.0000000e+00 3.0250001e+00 5.0000000e+00 
1.0000000e+00 3.0250001e+00 5.5000000e+00 
1.0000000e+00 3.0250001e+00 6.0000000e+00 
1.0000000e+00 3.0250001e+00 6.5000000e+00 
1.0000000e+00 3.0250001e+00 7.0000000e+00 
1.0000000e+00 3.0250001e+00 7.5000000e+00 
1.0000000e+00 3.0250001e+00 8.0000000e+00 
1.0000000e+00 3.0250001e+00 8.5000000e+00 
1.0000000e+00 3.0250001e+00 9.0000000e+00 
1.0000000e+00 3.0250001e+00 9.5000000e+00 
1.0000000e+00 3.0250001e+00 1.0000000e+01 
1.0000000e+00 0.0000000e+00 0.0000000e+00 
2.0000000e+00 0.0000000e+00 0.0000000e+00 
3.0000000e+00 0.0000000e+00 0.0000000e+00 
4.0000000e+00 0.0000000e+00 0.0000000e+00 
5.0000000e+00 1.0000000e+00 0.0000000e+00 
5.0000000e+00 2.0000000e+00 0.0000000e+00 
0.0000000e+00 2.0000000e+00 0.0000000e+00 
0.0000000e+00 1.0000000e+00 0.0000000e+00 
0.0000000e+00 0.0000000e+00 1.0000000e+00 
0.0000000e+00 0.0000000e+00 2.0000000e+00 
0.0000000e+00 0.0000000e+00 3.0000000e+00 
0.0000000e+00 0.0000000e+00 4.0000000e+00 
0.0000000e+00 0.0000000e+00 5.0000000e+00 
0.0000000e+00 0.0000000e+00 6.0000000e+00 
0.0000000e+00 0.0000000e+00 7.0000000e+00 
0.0000000e+00 0.0000000e+00 8.0000000e+00 
0.0000000e+00 0.0000000e+00 9.0000000e+00 
5.0000000e+00 0.0000000e+00 1.0000000e+00 
5.0000000e+00 0.0000000e+00 2.0000000e+00 
5.0000000e+00 0.0000000e+00 3.0000000e+00 
5.0000000e+00 0.0000000e+00 4.0000000e+00 
5.0000000e+00 0.0000000e+00 5.0000000e+00 
5.0000000e+00 0.0000000e+00 6.0000000e+00 
5.0000000e+00 0.0000000e+00 7.0000000e+00 
5.0000000e+00 0.0000000e+00 8.0000000e+00 
5.0000000e+00 0.0000000e+00 9.0000000e+00 
1.0000000e+00 0.0000000e+00 1.0000000e+01 
2.0000000e+00 0.0000000e+00 1.0000000e+01 
3.0000000e+00 0.0000000e+00 1.0000000e+01 
4.0000000e+00 0.0000000e+00 1.0000000e+01 
5.0000000e+00 3.0000000e+00 1.0000000e+00 
5.0000000e+00 3.0000000e+00 2.0000000e+00 
5.0000000e+00 3.0000000e+00 3.0000000e+00 
5.0000000e+00 3.0000000e+00 4.0000000e+00 
5.0000000e+00 3.0000000e+00 5.0000000e+00 
5.0000000e+00 3.0000000e+00 6.0000000e+00 
5.0000000e+00 3.0000000e+00 7.0000000e+00 
5.0000000e+00 3.0000000e+00 8.0000000e+00 
5.0000000e+00 3.0000000e+00 9.0000000e+00 
5.0000000e+00 1.0000000e+00 1.0000000e+01 
5.0000000e+00 2.0000000e+00 1.0000000e+01 
0.0000000e+00 3.0000000e+00 1.0000000e+00 
0.0000000e+00 3.0000000e+00 2.0000000e+00 
0.0000000e+00 3.0000000e+00 3.0000000e+00 
0.0000000e+00 3.0000000e+00 4.0000000e+00 
0.0000000e+00 3.0000000e+00 5.0000000e+00 
0.0000000e+00 3.0000000e+00 6.0000000e+00 
0.0000000e+00 3.0000000e+00 7.0000000e+00 
0.0000000e+00 3.0000000e+00 8.0000000e+00 
0.0000000e+00 3.0000000e+00 9.0000000e+00 
0.0000000e+00 2.0000000e+00 1.0000000e+01 
0.0000000e+00 1.0000000e+00 1.0000000e+01 
4.0000000e+00 3.0000000e+00 0.0000000e+00 
3.0000000e+00 3.0000000e+00 0.0000000e+00 
2.0000000e+00 3.0000000e+00 0.0000000e+00 
4.0000000e+00 3.0000000e+00 1.0000000e+01 
3.0000000e+00 3.0000000e+00 1.0000000e+01 
2.0000000e+00 3.0000000e+00 1.0000000e+01 
1.5046000e+00 2.2345026e+00 0.0000000e+00 
4.0618000e+00 1.5000000e+00 0.0000000e+00 
2.5000000e+00 8.6602539e-01 0.0000000e+00 
2.4957771e+00 2.1843948e+00 0.0000000e+00 
1.5046000e+00 7.6549745e-01 0.0000000e+00 
3.4700506e+00 2.2420573e+00 0.0000000e+00 
3.4707544e+00 7.6634604e-01 0.0000000e+00 
8.6322361e-01 1.5000000e+00 0.0000000e+00 
2.0000000e+00 1.5000000e+00 0.0000000e+00 
2.9960666e+00 1.5025520e+00 0.0000000e+00 
4.2679491e+00 7.3205084e-01 0.0000000e+00 
4.2679491e+00 2.2679491e+00 0.0000000e+00 
7.2695929e-01 2.2730408e+00 0.0000000e+00 
7.2695929e-01 7.2695929e-01 0.0000000e+00 
4.1822505e+00 0.0000000e+00 2.5515697e+00 
4.2017918e+00 0.0000000e+00 4.4725966e+00 
4.1114569e+00 0.0000000e+00 6.5092020e+00 
8.6602539e-01 0.0000000e+00 3.5000000e+00 
8.4778279e-01 0.0000000e+00 5.4684029e+00 
8.9629614e-01 0.0000000e+00 7.5867257e+00 
2.5566745e+00 0.0000000e+00 8.1853306e-01 
2.4918270e+00 0.0000000e+00 9.1386929e+00 
8.4677207e-01 0.0000000e+00 1.5042374e+00 
4.0943027e+00 0.0000000e+00 8.4081745e+00 
8.6281651e-01 0.0000000e+00 2.5007062e+00 
1.7315160e+00 0.0000000e+00 3.0001178e+00 
1.7319617e+00 0.0000000e+00 4.0000196e+00 
2.5980761e+00 0.0000000e+00 3.5000000e+00 
2.5536871e+00 0.0000000e+00 4.4963923e+00 
2.5928419e+00 0.0000000e+00 2.4239938e+00 
1.5037409e+00 0.0000000e+00 9.1535149e+00 
1.8433737e+00 0.0000000e+00 8.1858873e+00 
3.0000000e+00 0.0000000e+00 8.2679491e+00 
2.5000000e+00 0.0000000e+00 7.4019237e+00 
3.5042722e+00 0.0000000e+00 7.4271150e+00 
3.0310018e+00 0.0000000e+00 6.5282087e+00 
2.0373929e+00 0.0000000e+00 6.5307913e+00 
3.4767809e+00 0.0000000e+00 5.8031492e+00 
2.5452602e+00 0.0000000e+00 5.5720768e+00 
1.6456656e+00 0.0000000e+00 1.9697139e+00 
8.6297011e-01 0.0000000e+00 4.4947371e+00 
1.0111579e+00 0.0000000e+00 6.5282545e+00 
3.4994321e+00 0.0000000e+00 8.4691072e-01 
4.1860156e+00 0.0000000e+00 3.5040276e+00 
1.7320508e+00 0.0000000e+00 5.0000000e+00 
4.0544066e+00 0.0000000e+00 1.5781221e+00 
1.5817389e+00 0.0000000e+00 9.3943578e-01 
8.3166349e-01 0.0000000e+00 8.5090933e+00 
3.4686174e+00 0.0000000e+00 9.1752682e+00 
3.0709300e+00 0.0000000e+00 1.5799091e+00 
3.3927374e+00 0.0000000e+00 3.0399952e+00 
3.3826034e+00 0.0000000e+00 3.9747651e+00 
4.3420062e+00 0.0000000e+00 7.4688983e+00 
3.4023225e+00 0.0000000e+00 4.9314723e+00 
1.6740381e+00 0.0000000e+00 7.3014426e+00 
4.2715640e+00 0.0000000e+00 5.4758859e+00 
1.6225953e+00 0.0000000e+00 5.8104177e+00 
4.2679491e+00 0.0000000e+00 9.2679491e+00 
7.3205084e-01 0.0000000e+00 7.3205084e-01 
4.2679491e+00 0.0000000e+00 7.3205084e-01 
7.3205084e-01 0.0000000e+00 9.2679491e+00 
3.4586334e+00 0.0000000e+00 2.2347178e+00 
2.2895701e+00 0.0000000e+00 1.5463171e+00 
5.0000000e+00 2.2345026e+00 1.5046000e+00 
5.0000000e+00 1.5000000e+00 9.0618000e+00 
5.0000000e+00 2.1339746e+00 3.5000000e+00 
5.0000000e+00 2.1339746e+00 5.5000000e+00 
5.0000000e+00 2.1339746e+00 7.5000000e+00 
5.0000000e+00 8.6602539e-01 2.5000000e+00 
5.0000000e+00 8.6602539e-01 4.5000000e+00 
5.0000000e+00 8.6602539e-01 6.5000000e+00 
5.0000000e+00 8.6602539e-01 3.5000000e+00 
5.0000000e+00 8.6602539e-01 5.5000000e+00 
5.0000000e+00 2.1584709e+00 2.5001996e+00 
5.0000000e+00 2.1339746e+00 4.5000000e+00 
5.0000000e+00 2.1339746e+00 6.5000000e+00 
5.0000000e+00 8.6602539e-01 7.5000000e+00 
5.0000000e+00 7.6549745e-01 1.5046000e+00 
5.0000000e+00 7.6634604e-01 8.4707546e+00 
5.0000000e+00 2.2336540e+00 8.4707546e+00 
5.0000000e+00 1.5000000e+00 8.6322361e-01 
5.0000000e+00 1.5000000e+00 5.0000000e+00 
5.0000000e+00 1.5000000e+00 7.0000000e+00 
5.0000000e+00 1.5000000e+00 2.0000000e+00 
5.0000000e+00 1.5000000e+00 6.0000000e+00 
5.0000000e+00 1.5000000e+00 4.0000000e+00 
5.0000000e+00 1.5000000e+00 3.0000000e+00 
5.0000000e+00 1.5000000e+00 7.9977231e+00 
5.0000000e+00 2.2679491e+00 9.2679491e+00 
5.0000000e+00 7.3205084e-01 9.2679491e+00 
5.0000000e+00 2.2730408e+00 7.2695929e-01 
5.0000000e+00 7.2695929e-01 7.2695929e-01 
0.0000000e+00 7.6549745e-01 1.5046000e+00 
0.0000000e+00 1.5000000e+00 9.0618000e+00 
0.0000000e+00 7.6689392e-01 3.5202229e+00 
0.0000000e+00 8.4174728e-01 6.5073700e+00 
0.0000000e+00 2.1339746e+00 2.5000000e+00 
0.0000000e+00 2.1503205e+00 4.5283122e+00 
0.0000000e+00 2.1339746e+00 7.5000000e+00 
0.0000000e+00 7.5539857e-01 2.5041373e+00 
0.0000000e+00 2.1917200e+00 3.5330307e+00 
0.0000000e+00 2.1758037e+00 5.5047188e+00 
0.0000000e+00 1.4323456e+00 5.0621295e+00 
0.0000000e+00 2.1560361e+00 6.5002046e+00 
0.0000000e+00 8.3464229e-01 7.4971519e+00 
0.0000000e+00 2.2345026e+00 1.5046000e+00 
0.0000000e+00 2.2336540e+00 8.4707546e+00 
0.0000000e+00 7.6111549e-01 8.4702797e+00 
0.0000000e+00 1.5000000e+00 8.6322361e-01 
0.0000000e+00 1.4454463e+00 4.0239491e+00 
0.0000000e+00 7.3467791e-01 5.5115833e+00 
0.0000000e+00 1.5000000e+00 2.0000000e+00 
0.0000000e+00 1.4948297e+00 6.9999175e+00 
0.0000000e+00 1.4754088e+00 3.0096834e+00 
0.0000000e+00 1.5025774e+00 6.0000000e+00 
0.0000000e+00 7.2989392e-01 4.5196476e+00 
0.0000000e+00 1.4981872e+00 7.9961324e+00 
0.0000000e+00 7.3205084e-01 9.2679491e+00 
0.0000000e+00 2.2679491e+00 9.2679491e+00 
0.0000000e+00 2.2730408e+00 7.2695929e-01 
0.0000000e+00 7.2695929e-01 7.2695929e-01 
1.5046000e+00 7.6549745e-01 1.0000000e+01 
[...]
POINT_DATA 395
FIELD FieldData 2
DISPLACEMENT 3 395  float
0.0000000e+00 0.0000000e+00 0.0000000e+00 
0.0000000e+00 0.0000000e+00 0.0000000e+00 
0.0000000e+00 3.7281816e-07 0.0000000e+00 
0.0000000e+00 1.2179689e-07 0.0000000e+00 
0.0000000e+00 0.0000000e+00 0.0000000e+00 
0.0000000e+00 0.0000000e+00 0.0000000e+00 
0.0000000e+00 2.5829627e-07 0.0000000e+00 
0.0000000e+00 -3.1924894e-06 0.0000000e+00 
-1.0801374e-07 2.8243403e-07 4.2786351e-07 
-2.4704610e-07 6.8587063e-08 1.0522566e-06 
-3.6526649e-07 -3.6303678e-07 1.6934190e-06 
-7.2558134e-07 -1.2670824e-06 2.9940868e-06 
-9.1222944e-07 -3.2894957e-06 4.2967749e-06 
-2.5983436e-06 -7.9912697e-06 7.8594212e-06 
-3.2390476e-06 -1.8924868e-05 1.1544740e-05 
-4.6230521e-06 -4.2725213e-05 1.7067230e-05 
-2.7868755e-06 -8.7825327e-05 1.0646922e-05 
-3.0742883e-06 -1.5939485e-04 4.8490042e-06 
-3.4965146e-06 -2.3684007e-04 1.0119890e-05 
-7.9802089e-07 -2.5168608e-04 -8.1910539e-06 
3.1335318e-08 -1.8435207e-04 -2.1399683e-05 
-1.4224486e-06 -1.0361307e-04 -9.4767274e-06 
-5.3214721e-06 -5.1356801e-05 -1.5099045e-05 
-2.6905943e-06 -2.2161561e-05 -1.0272684e-05 
-1.4551873e-06 -8.9466903e-06 -6.4085266e-06 
-1.1954552e-06 -3.2367539e-06 -4.4875796e-06 
-5.3719708e-07 -1.1274321e-06 -1.7825279e-06 
0.0000000e+00 3.4148599e-07 0.0000000e+00 
0.0000000e+00 -6.1844798e-07 0.0000000e+00 
0.0000000e+00 3.4267939e-07 0.0000000e+00 
0.0000000e+00 2.8163495e-07 0.0000000e+00 
0.0000000e+00 7.2416697e-08 0.0000000e+00 
0.0000000e+00 -3.5616333e-07 0.0000000e+00 
0.0000000e+00 -1.2466153e-06 0.0000000e+00 
0.0000000e+00 -3.2325079e-06 0.0000000e+00 
0.0000000e+00 -7.8844587e-06 0.0000000e+00 
0.0000000e+00 -1.8816818e-05 0.0000000e+00 
0.0000000e+00 -4.2661861e-05 0.0000000e+00 
0.0000000e+00 -8.8312598e-05 0.0000000e+00 
0.0000000e+00 -1.6136032e-04 0.0000000e+00 
0.0000000e+00 -2.3976777e-04 0.0000000e+00 
0.0000000e+00 -2.5583178e-04 0.0000000e+00 
0.0000000e+00 -1.8702343e-04 0.0000000e+00 
0.0000000e+00 -1.0540386e-04 0.0000000e+00 
0.0000000e+00 -5.1346156e-05 0.0000000e+00 
0.0000000e+00 -2.2189439e-05 0.0000000e+00 
0.0000000e+00 -8.7805811e-06 0.0000000e+00 
0.0000000e+00 -3.1661871e-06 0.0000000e+00 
0.0000000e+00 -1.0825319e-06 0.0000000e+00 
0.0000000e+00 -5.9369239e-07 0.0000000e+00 
0.0000000e+00 0.0000000e+00 0.0000000e+00 
0.0000000e+00 0.0000000e+00 0.0000000e+00 
0.0000000e+00 0.0000000e+00 0.0000000e+00 
0.0000000e+00 0.0000000e+00 0.0000000e+00 
0.0000000e+00 1.5517020e-07 0.0000000e+00 
0.0000000e+00 3.2885649e-07 0.0000000e+00 
0.0000000e+00 6.6452998e-08 0.0000000e+00 
0.0000000e+00 -2.9034915e-08 0.0000000e+00 
0.0000000e+00 0.0000000e+00 0.0000000e+00 
0.0000000e+00 0.0000000e+00 0.0000000e+00 
0.0000000e+00 0.0000000e+00 0.0000000e+00 
0.0000000e+00 0.0000000e+00 0.0000000e+00 
0.0000000e+00 0.0000000e+00 0.0000000e+00 
0.0000000e+00 0.0000000e+00 0.0000000e+00 
0.0000000e+00 0.0000000e+00 0.0000000e+00 
0.0000000e+00 0.0000000e+00 0.0000000e+00 
0.0000000e+00 0.0000000e+00 0.0000000e+00 
0.0000000e+00 0.0000000e+00 0.0000000e+00 
0.0000000e+00 0.0000000e+00 0.0000000e+00 
0.0000000e+00 0.0000000e+00 0.0000000e+00 
0.0000000e+00 0.0000000e+00 0.0000000e+00 
0.0000000e+00 0.0000000e+00 0.0000000e+00 
0.0000000e+00 0.0000000e+00 0.0000000e+00 
0.0000000e+00 0.0000000e+00 0.0000000e+00 
0.0000000e+00 0.0000000e+00 0.0000000e+00 
0.0000000e+00 0.0000000e+00 0.0000000e+00 
0.0000000e+00 0.0000000e+00 0.0000000e+00 
0.0000000e+00 0.0000000e+00 0.0000000e+00 
0.0000000e+00 0.0000000e+00 0.0000000e+00 
0.0000000e+00 0.0000000e+00 0.0000000e+00 
0.0000000e+00 3.5475881e-07 0.0000000e+00 
0.0000000e+00 3.9981370e-07 0.0000000e+00 
0.0000000e+00 3.6048621e-07 0.0000000e+00 
0.0000000e+00 -1.0050427e-06 0.0000000e+00 
0.0000000e+00 -1.8036319e-06 0.0000000e+00 
0.0000000e+00 -1.6025685e-06 0.0000000e+00 
0.0000000e+00 -1.3665817e-06 0.0000000e+00 
0.0000000e+00 -1.4876234e-07 0.0000000e+00 
0.0000000e+00 -1.2689777e-07 0.0000000e+00 
0.0000000e+00 -1.0983219e-08 0.0000000e+00 
0.0000000e+00 1.7891851e-07 0.0000000e+00 
0.0000000e+00 -3.3456988e-07 0.0000000e+00 
0.0000000e+00 -3.0830456e-06 0.0000000e+00 
0.0000000e+00 -1.3056378e-05 0.0000000e+00 
0.0000000e+00 -3.9768740e-05 0.0000000e+00 
0.0000000e+00 -8.5177046e-05 0.0000000e+00 
0.0000000e+00 -9.7640353e-05 0.0000000e+00 
0.0000000e+00 -6.0593429e-05 0.0000000e+00 
0.0000000e+00 -2.1981898e-05 0.0000000e+00 
0.0000000e+00 -6.3675166e-06 0.0000000e+00 
0.0000000e+00 -2.9257030e-06 0.0000000e+00 
0.0000000e+00 -1.7659448e-06 0.0000000e+00 
0.0000000e+00 3.5150731e-07 0.0000000e+00 
0.0000000e+00 3.5323120e-07 0.0000000e+00 
0.0000000e+00 3.3340578e-07 0.0000000e+00 
0.0000000e+00 -1.5577950e-07 0.0000000e+00 
0.0000000e+00 -4.1329724e-07 0.0000000e+00 
0.0000000e+00 -1.5517971e-06 0.0000000e+00 
0.0000000e+00 4.6810817e-07 0.0000000e+00 
0.0000000e+00 3.0405255e-07 0.0000000e+00 
0.0000000e+00 1.1908729e-07 0.0000000e+00 
0.0000000e+00 5.2325913e-07 0.0000000e+00 
0.0000000e+00 8.0306776e-08 0.0000000e+00 
0.0000000e+00 4.9509373e-07 0.0000000e+00 
0.0000000e+00 1.0832966e-07 0.0000000e+00 
0.0000000e+00 2.7190498e-07 0.0000000e+00 
0.0000000e+00 4.2644359e-07 0.0000000e+00 
0.0000000e+00 3.7961428e-07 0.0000000e+00 
0.0000000e+00 1.0650839e-07 0.0000000e+00 
0.0000000e+00 4.1888191e-07 0.0000000e+00 
0.0000000e+00 3.3747071e-07 0.0000000e+00 
0.0000000e+00 7.9505035e-08 0.0000000e+00 
0.0000000e+00 0.0000000e+00 0.0000000e+00 
0.0000000e+00 0.0000000e+00 0.0000000e+00 
0.0000000e+00 0.0000000e+00 0.0000000e+00 
0.0000000e+00 0.0000000e+00 0.0000000e+00 
0.0000000e+00 0.0000000e+00 0.0000000e+00 
0.0000000e+00 0.0000000e+00 0.0000000e+00 
0.0000000e+00 0.0000000e+00 0.0000000e+00 
0.0000000e+00 0.0000000e+00 0.0000000e+00 
0.0000000e+00 0.0000000e+00 0.0000000e+00 
0.0000000e+00 0.0000000e+00 0.0000000e+00 
0.0000000e+00 0.0000000e+00 0.0000000e+00 
0.0000000e+00 0.0000000e+00 0.0000000e+00 
0.0000000e+00 0.0000000e+00 0.0000000e+00 
0.0000000e+00 0.0000000e+00 0.0000000e+00 
0.0000000e+00 0.0000000e+00 0.0000000e+00 
0.0000000e+00 0.0000000e+00 0.0000000e+00 
0.0000000e+00 0.0000000e+00 0.0000000e+00 
0.0000000e+00 0.0000000e+00 0.0000000e+00 
0.0000000e+00 0.0000000e+00 0.0000000e+00 
0.0000000e+00 0.0000000e+00 0.0000000e+00 
0.0000000e+00 0.0000000e+00 0.0000000e+00 
0.0000000e+00 0.0000000e+00 0.0000000e+00 
0.0000000e+00 0.0000000e+00 0.0000000e+00 
0.0000000e+00 0.0000000e+00 0.0000000e+00 
0.0000000e+00 0.0000000e+00 0.0000000e+00 
0.0000000e+00 0.0000000e+00 0.0000000e+00 
0.0000000e+00 0.0000000e+00 0.0000000e+00 
0.0000000e+00 0.0000000e+00 0.0000000e+00 
0.0000000e+00 0.0000000e+00 0.0000000e+00 
0.0000000e+00 0.0000000e+00 0.0000000e+00 
0.0000000e+00 0.0000000e+00 0.0000000e+00 
0.0000000e+00 0.0000000e+00 0.0000000e+00 
0.0000000e+00 0.0000000e+00 0.0000000e+00 
0.0000000e+00 0.0000000e+00 0.0000000e+00 
0.0000000e+00 0.0000000e+00 0.0000000e+00 
0.0000000e+00 0.0000000e+00 0.0000000e+00 
0.0000000e+00 0.0000000e+00 0.0000000e+00 
0.0000000e+00 0.0000000e+00 0.0000000e+00 
0.0000000e+00 0.0000000e+00 0.0000000e+00 
0.0000000e+00 0.0000000e+00 0.0000000e+00 
0.0000000e+00 0.0000000e+00 0.0000000e+00 
0.0000000e+00 0.0000000e+00 0.0000000e+00 
0.0000000e+00 0.0000000e+00 0.0000000e+00 
0.0000000e+00 0.0000000e+00 0.0000000e+00 
0.0000000e+00 0.0000000e+00 0.0000000e+00 
0.0000000e+00 0.0000000e+00 0.0000000e+00 
0.0000000e+00 0.0000000e+00 0.0000000e+00 
0.0000000e+00 0.0000000e+00 0.0000000e+00 
0.0000000e+00 0.0000000e+00 0.0000000e+00 
0.0000000e+00 3.9011434e-07 0.0000000e+00 
0.0000000e+00 9.4144674e-09 0.0000000e+00 
0.0000000e+00 3.7728134e-07 0.0000000e+00 
0.0000000e+00 -7.1379884e-07 0.0000000e+00 
0.0000000e+00 3.2309387e-08 0.0000000e+00 
0.0000000e+00 4.2207522e-09 0.0000000e+00 
0.0000000e+00 -6.1569358e-07 0.0000000e+00 
0.0000000e+00 -8.8649142e-07 0.0000000e+00 
0.0000000e+00 -5.2098517e-07 0.0000000e+00 
0.0000000e+00 -1.0968685e-06 0.0000000e+00 
0.0000000e+00 3.5769594e-07 0.0000000e+00 
0.0000000e+00 -3.6291752e-07 0.0000000e+00 
0.0000000e+00 -7.0290747e-07 0.0000000e+00 
0.0000000e+00 -7.3178984e-07 0.0000000e+00 
0.0000000e+00 1.0918008e-07 0.0000000e+00 
0.0000000e+00 -2.1299856e-07 0.0000000e+00 
0.0000000e+00 -1.1218315e-07 0.0000000e+00 
0.0000000e+00 2.7176486e-07 0.0000000e+00 
0.0000000e+00 -8.6818687e-07 0.0000000e+00 
0.0000000e+00 -7.2777624e-07 0.0000000e+00 
0.0000000e+00 2.7164737e-07 0.0000000e+00 
0.0000000e+00 -1.0590650e-06 0.0000000e+00 
0.0000000e+00 -5.6683109e-07 0.0000000e+00 
0.0000000e+00 1.8620396e-08 0.0000000e+00 
0.0000000e+00 -2.9815752e-07 0.0000000e+00 
0.0000000e+00 2.9727050e-07 0.0000000e+00 
0.0000000e+00 -8.1189775e-08 0.0000000e+00 
0.0000000e+00 3.7384916e-07 0.0000000e+00 
0.0000000e+00 9.5781502e-08 0.0000000e+00 
0.0000000e+00 -9.0325528e-07 0.0000000e+00 
0.0000000e+00 -5.0048361e-06 0.0000000e+00 
0.0000000e+00 -8.8946790e-06 0.0000000e+00 
0.0000000e+00 -2.5499499e-05 0.0000000e+00 
0.0000000e+00 -6.4392057e-06 0.0000000e+00 
0.0000000e+00 -5.1082578e-05 0.0000000e+00 
0.0000000e+00 -3.3036402e-05 0.0000000e+00 
0.0000000e+00 -2.3178300e-06 0.0000000e+00 
0.0000000e+00 -2.0688787e-05 0.0000000e+00 
0.0000000e+00 -8.3095743e-05 0.0000000e+00 
0.0000000e+00 -4.2487012e-05 0.0000000e+00 
0.0000000e+00 -6.6241591e-05 0.0000000e+00 
0.0000000e+00 -1.4326865e-05 0.0000000e+00 
0.0000000e+00 -1.3374953e-06 0.0000000e+00 
0.0000000e+00 -1.2193855e-05 0.0000000e+00 
0.0000000e+00 -4.7839881e-06 0.0000000e+00 
0.0000000e+00 -3.2894445e-07 0.0000000e+00 
0.0000000e+00 -2.5310201e-05 0.0000000e+00 
0.0000000e+00 -2.3129405e-05 0.0000000e+00 
0.0000000e+00 -2.8123363e-06 0.0000000e+00 
0.0000000e+00 -3.5404631e-05 0.0000000e+00 
0.0000000e+00 -8.9041223e-06 0.0000000e+00 
0.0000000e+00 -5.3996533e-05 0.0000000e+00 
0.0000000e+00 -1.6363834e-05 0.0000000e+00 
0.0000000e+00 -1.5890984e-05 0.0000000e+00 
0.0000000e+00 -2.4832684e-06 0.0000000e+00 
0.0000000e+00 -4.8247880e-06 0.0000000e+00 
0.0000000e+00 -1.8234327e-07 0.0000000e+00 
0.0000000e+00 -1.4766636e-07 0.0000000e+00 
0.0000000e+00 -9.7232544e-07 0.0000000e+00 
0.0000000e+00 -9.9522879e-09 0.0000000e+00 
0.0000000e+00 -2.4679696e-07 0.0000000e+00 
0.0000000e+00 -4.2714785e-07 0.0000000e+00 
0.0000000e+00 -8.6763902e-07 0.0000000e+00 
0.0000000e+00 -1.7815434e-07 0.0000000e+00 
0.0000000e+00 -2.1968440e-07 0.0000000e+00 
0.0000000e+00 -1.5880097e-06 0.0000000e+00 
0.0000000e+00 -6.5207615e-07 0.0000000e+00 
0.0000000e+00 -4.0206245e-07 0.0000000e+00 
0.0000000e+00 -9.2753936e-08 0.0000000e+00 
0.0000000e+00 2.5616089e-07 0.0000000e+00 
0.0000000e+00 -1.6206953e-06 0.0000000e+00 
0.0000000e+00 -7.7656273e-07 0.0000000e+00 
-8.6893679e-06 -7.4708674e-05 -1.1188238e-05 
-1.1502183e-06 -2.5342142e-06 3.5251437e-06 
-6.7170995e-06 -2.5007736e-05 1.1103043e-05 
-5.3443650e-06 -1.1324798e-04 4.9203986e-06 
-3.6494703e-06 -1.4048191e-05 -9.7420889e-06 
-2.4567155e-06 -2.2467079e-06 1.0041756e-06 
-2.0635373e-06 -1.6655050e-06 -1.1480150e-06 
-8.8016145e-07 -9.7597969e-08 6.2613259e-07 
-3.6233396e-07 -1.7236117e-07 1.4562781e-06 
-1.3289568e-06 -1.6404493e-06 -2.0184193e-06 
-2.6391467e-07 3.6876008e-07 4.0817270e-07 
-9.5677706e-07 -1.7461892e-06 -2.4947158e-06 
-2.0057580e-06 -1.0865040e-06 9.9687406e-07 
-1.9130787e-06 -1.7567947e-06 2.0275183e-06 
-1.3631098e-06 -3.6231057e-07 1.5746061e-06 
-2.0641876e-06 -2.3792857e-06 3.0161623e-06 
-4.1222447e-06 -6.9269881e-06 4.5756665e-06 
-8.4509077e-07 -6.1385185e-07 1.6789069e-06 
-3.5040202e-06 -7.9950596e-06 5.2039077e-06 
-3.3670622e-06 -4.5460461e-06 2.3395014e-06 
-5.0317090e-06 -8.0638692e-06 2.6375060e-06 
-6.7454339e-06 -1.3508294e-05 4.4771850e-06 
-9.5417481e-06 -2.1774338e-05 3.1836619e-06 
-8.2459637e-06 -1.2636214e-05 6.2535958e-07 
-1.2742709e-05 -3.2766631e-05 2.8926698e-07 
-8.5745987e-06 -1.6431724e-05 -2.5947074e-06 
-6.2318368e-06 -7.0165988e-06 -5.6960369e-07 
-1.3377656e-05 -3.3190270e-05 8.3736131e-06 
-1.1169692e-05 -3.5065877e-05 -1.4737767e-06 
-8.7566132e-06 -1.5949392e-05 -3.0429555e-06 
-1.3117448e-05 -7.6307726e-05 1.1235963e-06 
-3.3287486e-07 3.5622779e-07 6.7001338e-07 
-5.8343758e-06 -1.2363375e-05 5.5171326e-06 
-3.0251358e-06 -3.5605103e-06 3.1943171e-07 
-1.1177603e-06 -6.6093293e-07 -1.1033102e-06 
-3.1460927e-06 -2.8887016e-06 -3.0831361e-06 
-2.9764253e-06 -6.6237708e-06 -4.3793925e-06 
-5.5147307e-06 -1.0416439e-05 -4.1128633e-06 
-1.0376630e-06 -5.4489016e-07 -9.4027678e-07 
-3.8954659e-07 3.7419716e-07 3.7683353e-07 
-1.8063320e-06 -2.4462372e-06 3.6976849e-06 
-7.2696844e-07 -7.6873340e-07 2.1444641e-06 
-1.1814753e-05 -3.1150801e-05 -8.1570806e-06 
-7.2059515e-06 -1.9543511e-05 -8.4913199e-06 
-5.9030094e-06 -6.7786646e-06 -3.9716656e-06 
-2.0459183e-06 -5.2439545e-06 5.9049357e-06 
-7.5428848e-06 -4.5118959e-05 1.3106092e-05 
-2.0950492e-05 -7.6260927e-05 1.5532012e-05 
-1.1323130e-05 -4.5176315e-05 -1.6022595e-05 
-3.8367830e-06 -1.2049213e-05 8.6352120e-06 
-1.8576577e-06 -5.7215257e-06 -4.4654971e-06 
-2.7644646e-06 -2.1733156e-06 -8.9080015e-07 
-1.3240313e-05 -4.9322796e-05 4.6011628e-06 
-1.8872190e-07 2.8908221e-07 6.1643789e-07 
-1.8734450e-05 -9.9929282e-05 -8.7650606e-06 
-6.2634444e-06 -2.8614993e-05 -1.2049804e-05 
-6.3560390e-07 -1.1153088e-06 2.3741056e-06 
-2.5105526e-06 -1.8698527e-06 -2.3134419e-06 
-1.5892950e-06 -2.4199369e-06 -3.5606190e-06 
-5.8477472e-06 -7.8055036e-06 -2.0468412e-06 
-7.4443045e-07 2.1398090e-08 -6.8577157e-07 
-7.0981940e-07 2.1530457e-07 1.0814188e-06 
-1.3708011e-07 4.0543171e-07 1.8248761e-07 
-4.1494076e-07 -1.2339758e-07 1.2176092e-06 
-7.6695778e-06 -1.2905301e-04 -2.0773475e-06 
-2.5274153e-06 -2.5318766e-06 -1.8306454e-07 
-7.2473727e-06 -2.3571491e-05 8.9287887e-06 
-6.2671170e-06 -1.5611118e-05 8.2281940e-06 
-1.3960570e-05 -5.9979171e-05 -8.9322066e-06 
-2.3076483e-07 3.4807491e-07 6.1437032e-07 
-1.2020463e-06 -1.8278319e-05 7.7960549e-06 
-1.2577833e-07 -8.3970799e-06 3.6668164e-06 
-2.2881322e-06 -3.4017037e-05 1.0609033e-05 
-3.9330052e-06 -5.7186582e-05 8.5596630e-06 
-3.8083107e-07 -3.7341119e-06 3.0208694e-06 
-6.2564695e-06 -9.1415881e-05 7.7359236e-06 
-9.3727103e-06 -1.1860356e-04 4.1982362e-06 
-1.0749824e-05 -1.3751132e-04 -1.6134780e-07 
-4.9852788e-06 -1.1771583e-04 -6.9594635e-06 
-4.7424592e-06 -9.0229783e-05 -1.2138848e-05 
-3.7460375e-06 -6.2871288e-05 -9.1627071e-06 
-1.6802379e-06 -3.1959502e-05 -6.6966231e-06 
-1.5229461e-06 -1.7300959e-05 -6.4906790e-06 
-9.6159351e-07 -8.2555862e-06 -4.9560713e-06 
-4.5777543e-07 -3.7011564e-06 -2.3982880e-06 
-1.7588359e-07 -2.1213245e-06 2.1739002e-06 
-2.0121307e-07 -4.6057175e-07 1.2179074e-06 
-6.5358769e-08 3.5231398e-08 5.8303453e-07 
3.0858469e-06 -1.0537749e-05 -5.3577278e-06 
1.0477819e-05 -4.5772209e-05 1.6245120e-06 
4.6203040e-06 -1.7103741e-05 5.6048134e-06 
2.7752736e-07 -5.1432283e-07 -1.1957503e-06 
7.9316569e-06 -1.8959276e-05 -3.9300417e-06 
4.0262248e-06 -5.2787058e-05 -7.3956126e-06 
6.4705273e-06 -9.5993655e-06 1.9728575e-06 
1.7685549e-06 -2.2370805e-06 -2.0649870e-06 
9.5435655e-07 -5.6964868e-06 3.3275483e-06 
3.7382606e-06 -6.3953397e-05 6.6035404e-06 
5.3963021e-07 -1.1278615e-07 -9.1970628e-07 
2.2988813e-06 -2.9906678e-06 2.1431554e-06 
2.0644035e-07 -4.5831616e-06 -1.4769256e-06 
2.8815900e-06 -1.0136203e-04 -3.2802320e-06 
2.2954521e-06 -3.0481372e-06 -1.0876836e-06 
1.1573229e-06 -2.6262696e-05 5.9272493e-06 
1.9469949e-06 -2.4673396e-05 -2.8251968e-06 
-3.4686046e-08 -9.3443731e-07 1.4627354e-07 
3.6046963e-06 -4.2553334e-06 -1.1307866e-07 
1.1883507e-06 -2.1595720e-06 -2.5126060e-06 
5.4694779e-06 -3.7775229e-05 2.2129095e-06 
2.8458455e-06 -1.4989858e-05 -2.6411210e-06 
5.6145691e-06 -1.7852986e-05 -3.9665065e-07 
2.5009939e-07 -1.4669163e-06 -6.5476297e-07 
7.4308895e-07 -3.2179400e-07 -7.0320903e-07 
2.3485313e-06 -2.4658343e-06 1.4681037e-06 
3.9701686e-06 -2.5835650e-05 4.9442901e-06 
6.0738489e-07 -3.7129789e-06 1.5870427e-06 
1.2911894e-06 -2.9307419e-06 3.9358210e-07 
-2.5032309e-08 2.7811856e-07 -8.4283727e-08 
4.0041486e-06 -7.4391883e-06 -3.8979215e-06 
2.7344081e-06 -1.3438941e-05 2.5034483e-06 
7.2804278e-07 -5.1238715e-07 6.7182282e-07 
5.6982401e-07 -3.4041759e-07 -3.8809011e-07 
6.5121446e-07 -3.8593307e-06 -2.5279010e-06 
5.8142168e-06 -1.7536966e-05 -5.2850833e-06 
6.3812075e-07 -8.9769128e-06 -1.3539993e-06 
8.1915814e-06 -1.3817795e-05 -9.0457803e-08 
1.4890800e-06 -1.0342929e-06 -1.3107669e-06 
9.1694392e-06 -4.6464855e-05 -2.1436831e-06 
6.2514559e-08 3.8559909e-07 -8.1331102e-08 
6.3748703e-06 -3.1378939e-05 -3.0302776e-06 
3.9477544e-07 -9.9974823e-06 -7.0646723e-07 
-6.1170141e-08 2.8118151e-07 1.5284557e-07 
1.9792067e-06 -4.7714097e-06 3.4614136e-06 
3.9065966e-07 -8.6867135e-07 3.5037010e-07 
4.6983114e-06 -7.4052182e-06 3.1543668e-06 
1.9255691e-07 2.2598929e-08 -6.1278911e-07 
2.6209648e-07 -6.0447705e-06 -1.5745890e-07 
1.1981808e-07 2.8222814e-07 -1.1936658e-07 
7.7408328e-07 -1.0907200e-05 1.2647099e-06 
1.5670172e-06 -8.0473810e-06 4.0473160e-06 
2.5403764e-07 3.5168458e-08 -3.2611803e-07 
8.7350854e-06 -1.5957532e-05 3.3600270e-06 
4.6100049e-06 -5.5216879e-06 -1.7491149e-06 
1.5052020e-06 -4.9070554e-06 6.6577604e-07 
1.5923350e-06 -1.1956423e-04 1.0094299e-06 
3.2127139e-06 -3.1747320e-05 2.4045573e-06 
9.1435517e-08 -1.6915513e-07 -6.4928366e-07 
1.2091536e-07 -3.3612321e-06 4.1915843e-07 
1.2787442e-06 -1.7006180e-06 1.5448512e-06 
2.9801902e-07 -6.2524066e-07 2.6846206e-07 
1.4803493e-06 -6.4033302e-06 -2.4557443e-07 
3.0535407e-06 -3.9584775e-05 -2.2060353e-06 
TOTAL_DISPLACEMENT 3 395  float
0.0000000e+00 0.0000000e+00 0.0000000e+00 
0.0000000e+00 0.0000000e+00 0.0000000e+00 
0.0000000e+00 0.0000000e+00 0.0000000e+00 
0.0000000e+00 0.0000000e+00 0.0000000e+00 
0.0000000e+00 0.0000000e+00 0.0000000e+00 
0.0000000e+00 0.0000000e+00 0.0000000e+00 
0.0000000e+00 0.0000000e+00 0.0000000e+00 
0.0000000e+00 0.0000000e+00 0.0000000e+00 
0.0000000e+00 0.0000000e+00 0.0000000e+00 
0.0000000e+00 0.0000000e+00 0.0000000e+00 
0.0000000e+00 0.0000000e+00 0.0000000e+00 
0.0000000e+00 0.0000000e+00 0.0000000e+00 
0.0000000e+00 0.0000000e+00 0.0000000e+00 
0.0000000e+00 0.0000000e+00 0.0000000e+00 
0.0000000e+00 0.0000000e+00 0.0000000e+00 
0.0000000e+00 0.0000000e+00 0.0000000e+00 
0.0000000e+00 0.0000000e+00 0.0000000e+00 
0.0000000e+00 0.0000000e+00 0.0000000e+00 
0.0000000e+00 0.0000000e+00 0.0000000e+00 
0.0000000e+00 0.0000000e+00 0.0000000e+00 
0.0000000e+00 0.0000000e+00 0.0000000e+00 
0.0000000e+00 0.0000000e+00 0.0000000e+00 
0.0000000e+00 0.0000000e+00 0.0000000e+00 
0.0000000e+00 0.0000000e+00 0.0000000e+00 
0.0000000e+00 0.0000000e+00 0.0000000e+00 
0.0000000e+00 0.0000000e+00 0.0000000e+00 
0.0000000e+00 0.0000000e+00 0.0000000e+00 
0.0000000e+00 0.0000000e+00 0.0000000e+00 
0.0000000e+00 0.0000000e+00 0.0000000e+00 
0.0000000e+00 0.0000000e+00 0.0000000e+00 
0.0000000e+00 0.0000000e+00 0.0000000e+00 
0.0000000e+00 0.0000000e+00 0.0000000e+00 
0.0000000e+00 0.0000000e+00 0.0000000e+00 
0.0000000e+00 0.0000000e+00 0.0000000e+00 
0.0000000e+00 0.0000000e+00 0.0000000e+00 
0.0000000e+00 0.0000000e+00 0.0000000e+00 
0.0000000e+00 0.0000000e+00 0.0000000e+00 
0.0000000e+00 0.0000000e+00 0.0000000e+00 
0.0000000e+00 0.0000000e+00 0.0000000e+00 
0.0000000e+00 0.0000000e+00 0.0000000e+00 
0.0000000e+00 0.0000000e+00 0.0000000e+00 
0.0000000e+00 0.0000000e+00 0.0000000e+00 
0.0000000e+00 0.0000000e+00 0.0000000e+00 
0.0000000e+00 0.0000000e+00 0.0000000e+00 
0.0000000e+00 0.0000000e+00 0.0000000e+00 
0.0000000e+00 0.0000000e+00 0.0000000e+00 
0.0000000e+00 0.0000000e+00 0.0000000e+00 
0.0000000e+00 0.0000000e+00 0.0000000e+00 
0.0000000e+00 0.0000000e+00 0.0000000e+00 
0.0000000e+00 0.0000000e+00 0.0000000e+00 
0.0000000e+00 0.0000000e+00 0.0000000e+00 
0.0000000e+00 0.0000000e+00 0.0000000e+00 
0.0000000e+00 0.0000000e+00 0.0000000e+00 
0.0000000e+00 0.0000000e+00 0.0000000e+00 
0.0000000e+00 0.0000000e+00 0.0000000e+00 
0.0000000e+00 0.0000000e+00 0.0000000e+00 
0.0000000e+00 0.0000000e+00 0.0000000e+00 