# vtk DataFile Version 4.0
vtk output
ASCII
DATASET UNSTRUCTURED_GRID
POINTS 395 float
0.0000000e+00 0.0000000e+00 0.0000000e+00 
5.0000000e+00 0.0000000e+00 0.0000000e+00 
5.0000000e+00 3.0000000e+00 0.0000000e+00 
0.0000000e+00 3.0000000e+00 0.0000000e+00 
0.0000000e+00 0.0000000e+00 1.0000000e+01 
5.0000000e+00 0.0000000e+00 1.0000000e+01 
5.0000000e+00 3.0000000e+00 1.0000000e+01 
0.0000000e+00 3.0000000e+00 1.0000000e+01 
1.0000000e+00 3.0000000e+00 5.0000000e-01 
1.0000000e+00 3.0000000e+00 1.0000000e+00 
1.0000000e+00 3.0000000e+00 1.5000000e+00 
1.0000000e+00 3.0000000e+00 2.0000000e+00 
1.0000000e+00 3.0000000e+00 2.5000000e+00 
1.0000000e+00 3.0000000e+00 3.0000000e+00 
1.0000000e+00 3.0000000e+00 3.5000000e+00 
1.0000000e+00 3.0000000e+00 4.0000000e+00 
1.0000000e+00 3.0000000e+00 4.5000000e+00 
1.0000000e+00 3.0000000e+00 5.0000000e+00 
1.0000000e+00 3.0000000e+00 5.5000000e+00 
1.0000000e+00 3.0000000e+00 6.0000000e+00 
1.0000000e+00 3.0000000e+00 6.5000000e+00 
1.0000000e+00 3.0000000e+00 7.0000000e+00 
1.0000000e+00 3.0000000e+00 7.5000000e+00 
1.0000000e+00 3.0000000e+00 8.0000000e+00 
1.0000000e+00 3.0000000e+00 8.5000000e+00 
1.0000000e+00 3.0000000e+00 9.0000000e+00 
1.0000000e+00 3.0000000e+00 9.5000000e+00 
1.0000000e+00 3.0000000e+00 0.0000000e+00 
1.0000000e+00 3.0000000e+00 1.0000000e+01 
1.0000000e+00 3.0250001e+00 0.0000000e+00 
1.0000000e+00 3.0250001e+00 5.0000000e-01 
1.0000000e+00 3.0250001e+00 1.0000000e+00 
1.0000000e+00 3.0250001e+00 1.5000000e+00 
1.0000000e+00 3.0250001e+00 2.0000000e+00 
1.0000000e+00 3.0250001e+00 2.5000000e+00 
1.0000000e+00 3.0250001e+00 3.0000000e+00 
1.0000000e+00 3.0250001e+00 3.5000000e+00 
1.0000000e+00 3.0250001e+00 4.0000000e+00 
1.0000000e+00 3.0250001e+00 4.5000000e+00 
1.0000000e+00 3.0250001e+00 5.0000000e+00 
1.0000000e+00 3.0250001e+00 5.5000000e+00 
1.0000000e+00 3.0250001e+00 6.0000000e+00 
1.0000000e+00 3.0250001e+00 6.5000000e+00 
1.0000000e+00 3.0250001e+00 7.0000000e+00 
1.0000000e+00 3.0250001e+00 7.5000000e+00 
1.0000000e+00 3.0250001e+00 8.0000000e+00 
1.0000000e+00 3.0250001e+00 8.5000000e+00 
1.0000000e+00 3.0250001e+00 9.0000000e+00 
1.0000000e+00 3.0250001e+00 9.5000000e+00 
1.0000000e+00 3.0250001e+00 1.0000000e+01 
1.0000000e+00 0.0000000e+00 0.0000000e+00 
2.0000000e+00 0.0000000e+00 0.0000000e+00 
3.0000000e+00 0.0000000e+00 0.0000000e+00 
4.0000000e+00 0.0000000e+00 0.0000000e+00 
5.0000000e+00 1.0000000e+00 0.0000000e+00 
5.0000000e+00 2.0000000e+00 0.0000000e+00 
0.0000000e+00 2.0000000e+00 0.0000000e+00 
0.0000000e+00 1.0000000e+00 0.0000000e+00 
0.0000000e+00 0.0000000e+00 1.0000000e+00 
0.0000000e+00 0.0000000e+00 2.0000000e+00 
0.0000000e+00 0.0000000e+00 3.0000000e+00 
0.0000000e+00 0.0000000e+00 4.0000000e+00 
0.0000000e+00 0.0000000e+00 5.0000000e+00 
0.0000000e+00 0.0000000e+00 6.0000000e+00 
0.0000000e+00 0.0000000e+00 7.0000000e+00 
0.0000000e+00 0.0000000e+00 8.0000000e+00 
0.0000000e+00 0.0000000e+00 9.0000000e+00 
5.0000000e+00 0.0000000e+00 1.0000000e+00 
5.0000000e+00 0.0000000e+00 2.0000000e+00 
5.0000000e+00 0.0000000e+00 3.0000000e+00 
5.0000000e+00 0.0000000e+00 4.0000000e+00 
5.0000000e+00 0.0000000e+00 5.0000000e+00 
5.0000000e+00 0.0000000e+00 6.0000000e+00 
5.0000000e+00 0.0000000e+00 7.0000000e+00 
5.0000000e+00 0.0000000e+00 8.0000000e+00 
5.0000000e+00 0.0000000e+00 9.0000000e+00 
1.0000000e+00 0.0000000e+00 1.0000000e+01 
2.0000000e+00 0.0000000e+00 1.0000000e+01 
3.0000000e+00 0.0000000e+00 1.0000000e+01 
4.0000000e+00 0.0000000e+00 1.0000000e+01 
5.0000000e+00 3.0000000e+00 1.0000000e+00 
5.0000000e+00 3.0000000e+00 2.0000000e+00 
5.0000000e+00 3.0000000e+00 3.0000000e+00 
5.0000000e+00 3.0000000e+00 4.0000000e+00 
5.0000000e+00 3.0000000e+00 5.0000000e+00 
5.0000000e+00 3.0000000e+00 6.0000000e+00 
5.0000000e+00 3.0000000e+00 7.0000000e+00 
5.0000000e+00 3.0000000e+00 8.0000000e+00 
5.0000000e+00 3.0000000e+00 9.0000000e+00 
5.0000000e+00 1.0000000e+00 1.0000000e+01 
5.0000000e+00 2.0000000e+00 1.0000000e+01 
0.0000000e+00 3.0000000e+00 1.0000000e+00 
0.0000000e+00 3.0000000e+00 2.0000000e+00 
0.0000000e+00 3.0000000e+00 3.0000000e+00 
0.0000000e+00 3.0000000e+00 4.0000000e+00 
0.0000000e+00 3.0000000e+00 5.0000000e+00 
0.0000000e+00 3.0000000e+00 6.0000000e+00 
0.0000000e+00 3.0000000e+00 7.0000000e+00 
0.0000000e+00 3.0000000e+00 8.0000000e+00 
0.0000000e+00 3.0000000e+00 9.0000000e+00 
0.0000000e+00 2.0000000e+00 1.0000000e+01 
0.0000000e+00 1.0000000e+00 1.0000000e+01 
4.0000000e+00 3.0000000e+00 0.0000000e+00 
3.0000000e+00 3.0000000e+00 0.0000000e+00 
2.0000000e+00 3.0000000e+00 0.0000000e+00 
4.0000000e+00 3.0000000e+00 1.0000000e+01 
3.0000000e+00 3.0000000e+00 1.0000000e+01 
2.0000000e+00 3.0000000e+00 1.0000000e+01 
1.5046000e+00 2.2345026e+00 0.0000000e+00 
4.0618000e+00 1.5000000e+00 0.0000000e+00 
2.5000000e+00 8.6602539e-01 0.0000000e+00 
2.4957771e+00 2.1843948e+00 0.0000000e+00 
1.5046000e+00 7.6549745e-01 0.0000000e+00 
3.4700506e+00 2.2420573e+00 0.0000000e+00 
3.4707544e+00 7.6634604e-01 0.0000000e+00 
8.6322361e-01 1.5000000e+00 0.0000000e+00 
2.0000000e+00 1.5000000e+00 0.0000000e+00 
2.9960666e+00 1.5025520e+00 0.0000000e+00 
4.2679491e+00 7.3205084e-01 0.0000000e+00 
4.2679491e+00 2.2679491e+00 0.0000000e+00 
7.2695929e-01 2.2730408e+00 0.0000000e+00 
7.2695929e-01 7.2695929e-01 0.0000000e+00 
4.1822505e+00 0.0000000e+00 2.5515697e+00 
4.2017918e+00 0.0000000e+00 4.4725966e+00 
4.1114569e+00 0.0000000e+00 6.5092020e+00 
8.6602539e-01 0.0000000e+00 3.5000000e+00 
8.4778279e-01 0.0000000e+00 5.4684029e+00 
8.9629614e-01 0.0000000e+00 7.5867257e+00 
2.5566745e+00 0.0000000e+00 8.1853306e-01 
2.4918270e+00 0.0000000e+00 9.1386929e+00 
8.4677207e-01 0.0000000e+00 1.5042374e+00 
4.0943027e+00 0.0000000e+00 8.4081745e+00 
8.6281651e-01 0.0000000e+00 2.5007062e+00 
1.7315160e+00 0.0000000e+00 3.0001178e+00 
1.7319617e+00 0.0000000e+00 4.0000196e+00 
2.5980761e+00 0.0000000e+00 3.5000000e+00 
2.5536871e+00 0.0000000e+00 4.4963923e+00 
2.5928419e+00 0.0000000e+00 2.4239938e+00 
1.5037409e+00 0.0000000e+00 9.1535149e+00 
1.8433737e+00 0.0000000e+00 8.1858873e+00 
3.0000000e+00 0.0000000e+00 8.2679491e+00 
2.5000000e+00 0.0000000e+00 7.4019237e+00 
3.5042722e+00 0.0000000e+00 7.4271150e+00 
3.0310018e+00 0.0000000e+00 6.5282087e+00 
2.0373929e+00 0.0000000e+00 6.5307913e+00 
3.4767809e+00 0.0000000e+00 5.8031492e+00 
2.5452602e+00 0.0000000e+00 5.5720768e+00 
1.6456656e+00 0.0000000e+00 1.9697139e+00 
8.6297011e-01 0.0000000e+00 4.4947371e+00 
1.0111579e+00 0.0000000e+00 6.5282545e+00 
3.4994321e+00 0.0000000e+00 8.4691072e-01 
4.1860156e+00 0.0000000e+00 3.5040276e+00 
1.7320508e+00 0.0000000e+00 5.0000000e+00 
4.0544066e+00 0.0000000e+00 1.5781221e+00 
1.5817389e+00 0.0000000e+00 9.3943578e-01 
8.3166349e-01 0.0000000e+00 8.5090933e+00 
3.4686174e+00 0.0000000e+00 9.1752682e+00 
3.0709300e+00 0.0000000e+00 1.5799091e+00 
3.3927374e+00 0.0000000e+00 3.0399952e+00 
3.3826034e+00 0.0000000e+00 3.9747651e+00 
4.3420062e+00 0.0000000e+00 7.4688983e+00 
3.4023225e+00 0.0000000e+00 4.9314723e+00 
1.6740381e+00 0.0000000e+00 7.3014426e+00 
4.2715640e+00 0.0000000e+00 5.4758859e+00 
1.6225953e+00 0.0000000e+00 5.8104177e+00 
4.2679491e+00 0.0000000e+00 9.2679491e+00 
7.3205084e-01 0.0000000e+00 7.3205084e-01 
4.2679491e+00 0.0000000e+00 7.3205084e-01 
7.3205084e-01 0.0000000e+00 9.2679491e+00 
3.4586334e+00 0.0000000e+00 2.2347178e+00 
2.2895701e+00 0.0000000e+00 1.5463171e+00 
5.0000000e+00 2.2345026e+00 1.5046000e+00 
5.0000000e+00 1.5000000e+00 9.0618000e+00 
5.0000000e+00 2.1339746e+00 3.5000000e+00 
5.0000000e+00 2.1339746e+00 5.5000000e+00 
5.0000000e+00 2.1339746e+00 7.5000000e+00 
5.0000000e+00 8.6602539e-01 2.5000000e+00 
5.0000000e+00 8.6602539e-01 4.5000000e+00 
5.0000000e+00 8.6602539e-01 6.5000000e+00 
5.0000000e+00 8.6602539e-01 3.5000000e+00 
5.0000000e+00 8.6602539e-01 5.5000000e+00 
5.0000000e+00 2.1584709e+00 2.5001996e+00 
5.0000000e+00 2.1339746e+00 4.5000000e+00 
5.0000000e+00 2.1339746e+00 6.5000000e+00 
5.0000000e+00 8.6602539e-01 7.5000000e+00 
5.0000000e+00 7.6549745e-01 1.5046000e+00 
5.0000000e+00 7.6634604e-01 8.4707546e+00 
5.0000000e+00 2.2336540e+00 8.4707546e+00 
5.0000000e+00 1.5000000e+00 8.6322361e-01 
5.0000000e+00 1.5000000e+00 5.0000000e+00 
5.0000000e+00 1.5000000e+00 7.0000000e+00 
5.0000000e+00 1.5000000e+00 2.0000000e+00 
5.0000000e+00 1.5000000e+00 6.0000000e+00 
5.0000000e+00 1.5000000e+00 4.0000000e+00 
5.0000000e+00 1.5000000e+00 3.0000000e+00 
5.0000000e+00 1.5000000e+00 7.9977231e+00 
5.0000000e+00 2.2679491e+00 9.2679491e+00 
5.0000000e+00 7.3205084e-01 9.2679491e+00 
5.0000000e+00 2.2730408e+00 7.2695929e-01 
5.0000000e+00 7.2695929e-01 7.2695929e-01 
0.0000000e+00 7.6549745e-01 1.5046000e+00 
0.0000000e+00 1.5000000e+00 9.0618000e+00 
0.0000000e+00 7.6689392e-01 3.5202229e+00 
0.0000000e+00 8.4174728e-01 6.5073700e+00 
0.0000000e+00 2.1339746e+00 2.5000000e+00 
0.0000000e+00 2.1503205e+00 4.5283122e+00 
0.0000000e+00 2.1339746e+00 7.5000000e+00 
0.0000000e+00 7.5539857e-01 2.5041373e+00 
0.0000000e+00 2.1917200e+00 3.5330307e+00 
0.0000000e+00 2.1758037e+00 5.5047188e+00 
0.0000000e+00 1.4323456e+00 5.0621295e+00 
0.0000000e+00 2.1560361e+00 6.5002046e+00 
0.0000000e+00 8.3464229e-01 7.4971519e+00 
0.0000000e+00 2.2345026e+00 1.5046000e+00 
0.0000000e+00 2.2336540e+00 8.4707546e+00 
0.0000000e+00 7.6111549e-01 8.4702797e+00 
0.0000000e+00 1.5000000e+00 8.6322361e-01 
0.0000000e+00 1.4454463e+00 4.0239491e+00 
0.0000000e+00 7.3467791e-01 5.5115833e+00 
0.0000000e+00 1.5000000e+00 2.0000000e+00 
0.0000000e+00 1.4948297e+00 6.9999175e+00 
0.0000000e+00 1.4754088e+00 3.0096834e+00 
0.0000000e+00 1.5025774e+00 6.0000000e+00 
0.0000000e+00 7.2989392e-01 4.5196476e+00 
0.0000000e+00 1.4981872e+00 7.9961324e+00 
0.0000000e+00 7.3205084e-01 9.2679491e+00 
0.0000000e+00 2.2679491e+00 9.2679491e+00 
0.0000000e+00 2.2730408e+00 7.2695929e-01 
0.0000000e+00 7.2695929e-01 7.2695929e-01 
1.5046000e+00 7.6549745e-01 1.0000000e+01 
[...]
POINT_DATA 395
FIELD FieldData 2
DISPLACEMENT 3 395  float
0.0000000e+00 0.0000000e+00 0.0000000e+00 
0.0000000e+00 0.0000000e+00 0.0000000e+00 
0.0000000e+00 3.0755683e-07 0.0000000e+00 
0.0000000e+00 -6.0038694e-08 0.0000000e+00 
0.0000000e+00 0.0000000e+00 0.0000000e+00 
0.0000000e+00 0.0000000e+00 0.0000000e+00 
0.0000000e+00 3.1961906e-07 0.0000000e+00 
0.0000000e+00 -3.2339171e-06 0.0000000e+00 
-8.5550923e-08 1.1116573e-07 4.1217933e-07 
-1.7663740e-07 -6.8233796e-09 1.0208960e-06 
-2.4519852e-07 -2.9091768e-07 1.6671324e-06 
-5.6877548e-07 -1.0324618e-06 2.9404109e-06 
-7.8439967e-07 -2.9185085e-06 4.1988137e-06 
-2.5886718e-06 -7.5499606e-06 7.6461456e-06 
-3.4356540e-06 -1.8499097e-05 1.1186485e-05 
-5.0445410e-06 -4.2396568e-05 1.6582930e-05 
-3.3831041e-06 -8.7642999e-05 1.0068828e-05 
-3.7159489e-06 -1.5936086e-04 4.3256350e-06 
-3.9280371e-06 -2.3691783e-04 9.8563896e-06 
-8.7723186e-07 -2.5184991e-04 -8.1194648e-06 
2.6512936e-07 -1.8458621e-04 -2.1038095e-05 
-1.0263481e-06 -1.0390049e-04 -8.9760670e-06 
-4.9356686e-06 -5.1687894e-05 -1.4640949e-05 
-2.4149504e-06 -2.2512879e-05 -9.9594317e-06 
-1.2770463e-06 -9.2909468e-06 -6.2090085e-06 
-1.1083615e-06 -3.5278758e-06 -4.4098138e-06 
-4.9795727e-07 -1.1990961e-06 -1.7181299e-06 
0.0000000e+00 1.5720607e-07 0.0000000e+00 
0.0000000e+00 -1.0658806e-07 0.0000000e+00 
0.0000000e+00 1.6062585e-07 0.0000000e+00 
0.0000000e+00 1.1065427e-07 0.0000000e+00 
0.0000000e+00 -3.2089515e-09 0.0000000e+00 
0.0000000e+00 -2.8466039e-07 0.0000000e+00 
0.0000000e+00 -1.0129658e-06 0.0000000e+00 
0.0000000e+00 -2.8634454e-06 0.0000000e+00 
0.0000000e+00 -7.4439654e-06 0.0000000e+00 
0.0000000e+00 -1.8390958e-05 0.0000000e+00 
0.0000000e+00 -4.2332413e-05 0.0000000e+00 
0.0000000e+00 -8.8128458e-05 0.0000000e+00 
0.0000000e+00 -1.6132402e-04 0.0000000e+00 
0.0000000e+00 -2.3984580e-04 0.0000000e+00 
0.0000000e+00 -2.5599630e-04 0.0000000e+00 
0.0000000e+00 -1.8725774e-04 0.0000000e+00 
0.0000000e+00 -1.0569426e-04 0.0000000e+00 
0.0000000e+00 -5.1677333e-05 0.0000000e+00 
0.0000000e+00 -2.2541248e-05 0.0000000e+00 
0.0000000e+00 -9.1287920e-06 0.0000000e+00 
0.0000000e+00 -3.4609016e-06 0.0000000e+00 
0.0000000e+00 -1.1613345e-06 0.0000000e+00 
0.0000000e+00 -6.5964088e-08 0.0000000e+00 
0.0000000e+00 0.0000000e+00 0.0000000e+00 
0.0000000e+00 0.0000000e+00 0.0000000e+00 
0.0000000e+00 0.0000000e+00 0.0000000e+00 
0.0000000e+00 0.0000000e+00 0.0000000e+00 
0.0000000e+00 1.2171957e-07 0.0000000e+00 
0.0000000e+00 2.6803625e-07 0.0000000e+00 
0.0000000e+00 -7.8341870e-08 0.0000000e+00 
0.0000000e+00 -1.0183947e-07 0.0000000e+00 
0.0000000e+00 0.0000000e+00 0.0000000e+00 
0.0000000e+00 0.0000000e+00 0.0000000e+00 
0.0000000e+00 0.0000000e+00 0.0000000e+00 
0.0000000e+00 0.0000000e+00 0.0000000e+00 
0.0000000e+00 0.0000000e+00 0.0000000e+00 
0.0000000e+00 0.0000000e+00 0.0000000e+00 
0.0000000e+00 0.0000000e+00 0.0000000e+00 
0.0000000e+00 0.0000000e+00 0.0000000e+00 
0.0000000e+00 0.0000000e+00 0.0000000e+00 
0.0000000e+00 0.0000000e+00 0.0000000e+00 
0.0000000e+00 0.0000000e+00 0.0000000e+00 
0.0000000e+00 0.0000000e+00 0.0000000e+00 
0.0000000e+00 0.0000000e+00 0.0000000e+00 
0.0000000e+00 0.0000000e+00 0.0000000e+00 
0.0000000e+00 0.0000000e+00 0.0000000e+00 
0.0000000e+00 0.0000000e+00 0.0000000e+00 
0.0000000e+00 0.0000000e+00 0.0000000e+00 
0.0000000e+00 0.0000000e+00 0.0000000e+00 
0.0000000e+00 0.0000000e+00 0.0000000e+00 
0.0000000e+00 0.0000000e+00 0.0000000e+00 
0.0000000e+00 0.0000000e+00 0.0000000e+00 
0.0000000e+00 0.0000000e+00 0.0000000e+00 
0.0000000e+00 2.6761955e-07 0.0000000e+00 
0.0000000e+00 2.9184653e-07 0.0000000e+00 
0.0000000e+00 2.9111382e-07 0.0000000e+00 
0.0000000e+00 -9.8618136e-07 0.0000000e+00 
0.0000000e+00 -1.7626440e-06 0.0000000e+00 
0.0000000e+00 -1.5714269e-06 0.0000000e+00 
0.0000000e+00 -1.3510237e-06 0.0000000e+00 
0.0000000e+00 -1.2101171e-07 0.0000000e+00 
0.0000000e+00 -8.6244363e-08 0.0000000e+00 
0.0000000e+00 1.5234361e-08 0.0000000e+00 
0.0000000e+00 2.2824526e-07 0.0000000e+00 
0.0000000e+00 -4.1520425e-07 0.0000000e+00 
0.0000000e+00 -2.8868703e-06 0.0000000e+00 
0.0000000e+00 -1.2712044e-05 0.0000000e+00 
0.0000000e+00 -3.9467377e-05 0.0000000e+00 
0.0000000e+00 -8.5142296e-05 0.0000000e+00 
0.0000000e+00 -9.7753757e-05 0.0000000e+00 
0.0000000e+00 -6.0878960e-05 0.0000000e+00 
0.0000000e+00 -2.2307058e-05 0.0000000e+00 
0.0000000e+00 -6.5541403e-06 0.0000000e+00 
0.0000000e+00 -2.9135385e-06 0.0000000e+00 
0.0000000e+00 -1.7829542e-06 0.0000000e+00 
0.0000000e+00 2.6235040e-07 0.0000000e+00 
0.0000000e+00 2.1531790e-07 0.0000000e+00 
0.0000000e+00 1.6269618e-07 0.0000000e+00 
0.0000000e+00 -1.3200450e-07 0.0000000e+00 
0.0000000e+00 -4.3884128e-07 0.0000000e+00 
0.0000000e+00 -1.6161918e-06 0.0000000e+00 
0.0000000e+00 2.9104217e-07 0.0000000e+00 
0.0000000e+00 2.3616852e-07 0.0000000e+00 
0.0000000e+00 5.8272683e-08 0.0000000e+00 
0.0000000e+00 3.6184321e-07 0.0000000e+00 
0.0000000e+00 2.1748425e-08 0.0000000e+00 
0.0000000e+00 3.6671875e-07 0.0000000e+00 
0.0000000e+00 5.9275589e-08 0.0000000e+00 
0.0000000e+00 1.5277551e-07 0.0000000e+00 
0.0000000e+00 2.9047629e-07 0.0000000e+00 
0.0000000e+00 2.7139330e-07 0.0000000e+00 
0.0000000e+00 7.5453826e-08 0.0000000e+00 
0.0000000e+00 3.3750510e-07 0.0000000e+00 
0.0000000e+00 1.6207464e-07 0.0000000e+00 
0.0000000e+00 2.1385159e-08 0.0000000e+00 
0.0000000e+00 0.0000000e+00 0.0000000e+00 
0.0000000e+00 0.0000000e+00 0.0000000e+00 
0.0000000e+00 0.0000000e+00 0.0000000e+00 
0.0000000e+00 0.0000000e+00 0.0000000e+00 
0.0000000e+00 0.0000000e+00 0.0000000e+00 
0.0000000e+00 0.0000000e+00 0.0000000e+00 
0.0000000e+00 0.0000000e+00 0.0000000e+00 
0.0000000e+00 0.0000000e+00 0.0000000e+00 
0.0000000e+00 0.0000000e+00 0.0000000e+00 
0.0000000e+00 0.0000000e+00 0.0000000e+00 
0.0000000e+00 0.0000000e+00 0.0000000e+00 
0.0000000e+00 0.0000000e+00 0.0000000e+00 
0.0000000e+00 0.0000000e+00 0.0000000e+00 
0.0000000e+00 0.0000000e+00 0.0000000e+00 
0.0000000e+00 0.0000000e+00 0.0000000e+00 
0.0000000e+00 0.0000000e+00 0.0000000e+00 
0.0000000e+00 0.0000000e+00 0.0000000e+00 
0.0000000e+00 0.0000000e+00 0.0000000e+00 
0.0000000e+00 0.0000000e+00 0.0000000e+00 
0.0000000e+00 0.0000000e+00 0.0000000e+00 
0.0000000e+00 0.0000000e+00 0.0000000e+00 
0.0000000e+00 0.0000000e+00 0.0000000e+00 
0.0000000e+00 0.0000000e+00 0.0000000e+00 
0.0000000e+00 0.0000000e+00 0.0000000e+00 
0.0000000e+00 0.0000000e+00 0.0000000e+00 
0.0000000e+00 0.0000000e+00 0.0000000e+00 
0.0000000e+00 0.0000000e+00 0.0000000e+00 
0.0000000e+00 0.0000000e+00 0.0000000e+00 
0.0000000e+00 0.0000000e+00 0.0000000e+00 
0.0000000e+00 0.0000000e+00 0.0000000e+00 
0.0000000e+00 0.0000000e+00 0.0000000e+00 
0.0000000e+00 0.0000000e+00 0.0000000e+00 
0.0000000e+00 0.0000000e+00 0.0000000e+00 
0.0000000e+00 0.0000000e+00 0.0000000e+00 
0.0000000e+00 0.0000000e+00 0.0000000e+00 
0.0000000e+00 0.0000000e+00 0.0000000e+00 
0.0000000e+00 0.0000000e+00 0.0000000e+00 
0.0000000e+00 0.0000000e+00 0.0000000e+00 
0.0000000e+00 0.0000000e+00 0.0000000e+00 
0.0000000e+00 0.0000000e+00 0.0000000e+00 
0.0000000e+00 0.0000000e+00 0.0000000e+00 
0.0000000e+00 0.0000000e+00 0.0000000e+00 
0.0000000e+00 0.0000000e+00 0.0000000e+00 
0.0000000e+00 0.0000000e+00 0.0000000e+00 
0.0000000e+00 0.0000000e+00 0.0000000e+00 
0.0000000e+00 0.0000000e+00 0.0000000e+00 
0.0000000e+00 0.0000000e+00 0.0000000e+00 
0.0000000e+00 0.0000000e+00 0.0000000e+00 
0.0000000e+00 0.0000000e+00 0.0000000e+00 
0.0000000e+00 2.9533487e-07 0.0000000e+00 
0.0000000e+00 4.4809561e-08 0.0000000e+00 
0.0000000e+00 3.4359456e-07 0.0000000e+00 
0.0000000e+00 -6.6644259e-07 0.0000000e+00 
0.0000000e+00 5.5937249e-08 0.0000000e+00 
0.0000000e+00 -3.3688728e-08 0.0000000e+00 
0.0000000e+00 -5.9456806e-07 0.0000000e+00 
0.0000000e+00 -8.6827424e-07 0.0000000e+00 
0.0000000e+00 -5.2155110e-07 0.0000000e+00 
0.0000000e+00 -1.0693897e-06 0.0000000e+00 
0.0000000e+00 2.6411416e-07 0.0000000e+00 
0.0000000e+00 -3.2695598e-07 0.0000000e+00 
0.0000000e+00 -6.7263710e-07 0.0000000e+00 
0.0000000e+00 -7.3012467e-07 0.0000000e+00 
0.0000000e+00 6.9680148e-08 0.0000000e+00 
0.0000000e+00 -2.0588249e-07 0.0000000e+00 
0.0000000e+00 -8.5010683e-08 0.0000000e+00 
0.0000000e+00 2.1534724e-07 0.0000000e+00 
0.0000000e+00 -8.2933093e-07 0.0000000e+00 
0.0000000e+00 -7.0768328e-07 0.0000000e+00 
0.0000000e+00 1.9869975e-07 0.0000000e+00 
0.0000000e+00 -1.0271800e-06 0.0000000e+00 
0.0000000e+00 -5.5649190e-07 0.0000000e+00 
0.0000000e+00 -2.4465042e-08 0.0000000e+00 
0.0000000e+00 -2.9073405e-07 0.0000000e+00 
0.0000000e+00 3.5528734e-07 0.0000000e+00 
0.0000000e+00 -6.3958908e-08 0.0000000e+00 
0.0000000e+00 3.0269027e-07 0.0000000e+00 
0.0000000e+00 6.9323292e-08 0.0000000e+00 
0.0000000e+00 -8.5575573e-07 0.0000000e+00 
0.0000000e+00 -5.1220277e-06 0.0000000e+00 
0.0000000e+00 -8.7956496e-06 0.0000000e+00 
0.0000000e+00 -2.5532599e-05 0.0000000e+00 
0.0000000e+00 -6.1693599e-06 0.0000000e+00 
0.0000000e+00 -5.1032392e-05 0.0000000e+00 
0.0000000e+00 -3.3269836e-05 0.0000000e+00 
0.0000000e+00 -2.2124918e-06 0.0000000e+00 
0.0000000e+00 -2.0445383e-05 0.0000000e+00 
0.0000000e+00 -8.3178355e-05 0.0000000e+00 
0.0000000e+00 -4.2480937e-05 0.0000000e+00 
0.0000000e+00 -6.6352644e-05 0.0000000e+00 
0.0000000e+00 -1.4418358e-05 0.0000000e+00 
0.0000000e+00 -1.2712464e-06 0.0000000e+00 
0.0000000e+00 -1.2409851e-05 0.0000000e+00 
0.0000000e+00 -4.8715201e-06 0.0000000e+00 
0.0000000e+00 -3.8744403e-07 0.0000000e+00 
0.0000000e+00 -2.5204845e-05 0.0000000e+00 
0.0000000e+00 -2.3136819e-05 0.0000000e+00 
0.0000000e+00 -2.6541718e-06 0.0000000e+00 
0.0000000e+00 -3.5521582e-05 0.0000000e+00 
0.0000000e+00 -8.6806876e-06 0.0000000e+00 
0.0000000e+00 -5.4027892e-05 0.0000000e+00 
0.0000000e+00 -1.6351967e-05 0.0000000e+00 
0.0000000e+00 -1.6070302e-05 0.0000000e+00 
0.0000000e+00 -2.5330874e-06 0.0000000e+00 
0.0000000e+00 -4.9497876e-06 0.0000000e+00 
0.0000000e+00 -2.8849732e-07 0.0000000e+00 
0.0000000e+00 -1.7688316e-07 0.0000000e+00 
0.0000000e+00 -1.0072346e-06 0.0000000e+00 
0.0000000e+00 1.2602902e-08 0.0000000e+00 
0.0000000e+00 -2.8692571e-07 0.0000000e+00 
0.0000000e+00 -4.2898074e-07 0.0000000e+00 
0.0000000e+00 -9.0282373e-07 0.0000000e+00 
0.0000000e+00 -1.8138682e-07 0.0000000e+00 
0.0000000e+00 -2.2043285e-07 0.0000000e+00 
0.0000000e+00 -1.6274892e-06 0.0000000e+00 
0.0000000e+00 -6.9301393e-07 0.0000000e+00 
0.0000000e+00 -4.2511968e-07 0.0000000e+00 
0.0000000e+00 -8.0428229e-08 0.0000000e+00 
0.0000000e+00 2.9851432e-07 0.0000000e+00 
0.0000000e+00 -1.5667389e-06 0.0000000e+00 
0.0000000e+00 -7.9493071e-07 0.0000000e+00 
-8.4391622e-06 -7.4952542e-05 -1.0860136e-05 
-9.3945613e-07 -2.2129175e-06 3.4950440e-06 
-6.9818670e-06 -2.4592589e-05 1.0767135e-05 
-5.9351773e-06 -1.1329616e-04 4.5369316e-06 
-3.4139812e-06 -1.4363696e-05 -9.5074101e-06 
-2.4357726e-06 -2.1422136e-06 1.0293605e-06 
-2.1033179e-06 -1.7174305e-06 -1.1829626e-06 
-8.0950917e-07 -1.4319559e-07 5.9975599e-07 
-2.4505610e-07 -1.6640487e-07 1.4312952e-06 
-1.2943449e-06 -1.7533898e-06 -2.0221696e-06 
-2.6888938e-07 2.5698344e-07 3.7035920e-07 
-9.2348358e-07 -1.8673524e-06 -2.4725716e-06 
-1.9380107e-06 -1.0405114e-06 1.0090503e-06 
-1.7580477e-06 -1.6127728e-06 2.0440666e-06 
-1.2346669e-06 -3.3020740e-07 1.5533892e-06 
-1.8388948e-06 -2.1146489e-06 3.0471435e-06 
-3.9911083e-06 -6.5629747e-06 4.5990218e-06 
-6.9841167e-07 -5.5691817e-07 1.6471105e-06 
-3.3517588e-06 -7.5672674e-06 5.1572697e-06 
-3.2938658e-06 -4.3219425e-06 2.3923490e-06 
-5.0961708e-06 -7.8546691e-06 2.6573944e-06 
-6.8874961e-06 -1.3147440e-05 4.4529656e-06 
-9.8809242e-06 -2.1598718e-05 3.0597769e-06 
-8.4589637e-06 -1.2576746e-05 5.7744677e-07 
-1.3060772e-05 -3.2811247e-05 1.7141491e-07 
-8.7118469e-06 -1.6534763e-05 -2.6587752e-06 
-6.3406728e-06 -7.0258834e-06 -5.9069725e-07 
-1.3833535e-05 -3.2981010e-05 8.1314283e-06 
-1.1259223e-05 -3.5237841e-05 -1.4834031e-06 
-8.7729741e-06 -1.6170761e-05 -3.0360718e-06 
-1.3414341e-05 -7.6421878e-05 1.0072463e-06 
-3.1807693e-07 2.2413970e-07 6.2507223e-07 
-5.8460523e-06 -1.1908893e-05 5.4515390e-06 
-3.0773351e-06 -3.4770601e-06 3.3667848e-07 
-1.1137480e-06 -6.9594967e-07 -1.1241993e-06 
-3.1148211e-06 -3.0812439e-06 -3.0922765e-06 
-2.8550596e-06 -6.8811473e-06 -4.3118862e-06 
-5.4456427e-06 -1.0675547e-05 -4.0842428e-06 
-1.0495602e-06 -5.5461965e-07 -9.6707743e-07 
-3.7303693e-07 2.7068694e-07 3.4054020e-07 
-1.5690646e-06 -2.1311373e-06 3.6850854e-06 
-5.5393747e-07 -6.5424609e-07 2.1298374e-06 
-1.1650352e-05 -3.1417796e-05 -7.9754327e-06 
-6.9673692e-06 -1.9840494e-05 -8.2674023e-06 
-5.9335871e-06 -6.9404587e-06 -4.0000223e-06 
-1.8899627e-06 -4.8059196e-06 5.8085834e-06 
-8.0208029e-06 -4.4842909e-05 1.2671987e-05 
-2.1567130e-05 -7.6163466e-05 1.5099305e-05 
-1.0983733e-05 -4.5457829e-05 -1.5644375e-05 
-3.8541707e-06 -1.1557639e-05 8.4309540e-06 
-1.7154624e-06 -5.9812055e-06 -4.3631662e-06 
-2.8195025e-06 -2.1737428e-06 -9.1185353e-07 
-1.3762394e-05 -4.9283397e-05 4.3338346e-06 
-1.6042769e-07 1.4094697e-07 5.8314436e-07 
-1.8732424e-05 -1.0010389e-04 -8.6372338e-06 
-5.9282634e-06 -2.8937309e-05 -1.1697712e-05 
-4.6649828e-07 -9.5957341e-07 2.3382524e-06 
-2.5236905e-06 -1.9884178e-06 -2.3587058e-06 
-1.5118005e-06 -2.5917395e-06 -3.5210617e-06 
-5.9295176e-06 -7.9137808e-06 -2.0822349e-06 
-7.5165696e-07 5.1469431e-08 -6.9628766e-07 
-6.5150618e-07 1.4035815e-07 1.0319366e-06 
-1.4304838e-07 3.1407143e-07 1.6609198e-07 
-3.2992727e-07 -1.6588299e-07 1.1694380e-06 
-7.9784122e-06 -1.2918410e-04 -2.2207309e-06 
-2.5746670e-06 -2.4982699e-06 -1.8815196e-07 
-7.5256903e-06 -2.3198740e-05 8.7057797e-06 
-6.3322905e-06 -1.5149408e-05 8.0720301e-06 
-1.3882936e-05 -6.0168644e-05 -8.7833487e-06 
-2.1262700e-07 1.9440293e-07 5.7427656e-07 
-1.3509060e-06 -1.7867753e-05 7.5264688e-06 
-1.1530535e-07 -8.0265008e-06 3.5203591e-06 
-2.5753964e-06 -3.3696080e-05 1.0206445e-05 
-4.3600348e-06 -5.7000576e-05 8.0879545e-06 
-2.8560666e-07 -3.4394311e-06 2.9533226e-06 
-6.7542660e-06 -9.1394832e-05 7.2979105e-06 
-9.7441462e-06 -1.1867584e-04 3.9175093e-06 
-1.0860169e-05 -1.3760007e-04 -1.6503562e-07 
-4.8933339e-06 -1.1789387e-04 -6.7666724e-06 
-4.4645235e-06 -9.0459405e-05 -1.1765376e-05 
-3.4295374e-06 -6.3148123e-05 -8.7540093e-06 
-1.4308710e-06 -3.2296855e-05 -6.3907255e-06 
-1.3300458e-06 -1.7623901e-05 -6.2799386e-06 
-8.6533441e-07 -8.4981766e-06 -4.8588659e-06 
-4.1244931e-07 -3.7989205e-06 -2.3787122e-06 
-9.4180102e-08 -1.9683866e-06 2.1210035e-06 
-1.3269535e-07 -4.8132432e-07 1.1956413e-06 
-3.9351097e-08 -1.1209955e-07 5.6520241e-07 
3.0141211e-06 -1.0215532e-05 -5.4640764e-06 
1.0454495e-05 -4.5785186e-05 1.5171439e-06 
4.8069105e-06 -1.7396214e-05 5.7036978e-06 
3.4256902e-07 -4.6081718e-07 -1.0686148e-06 
7.7003087e-06 -1.8736508e-05 -4.1216090e-06 
3.6235585e-06 -5.2674106e-05 -7.7981931e-06 
6.4864657e-06 -9.6863105e-06 1.8571498e-06 
1.7885087e-06 -2.0579948e-06 -1.9508984e-06 
1.0372939e-06 -5.9248378e-06 3.4458685e-06 
3.9890829e-06 -6.4121275e-05 6.8192480e-06 
5.3749244e-07 -1.4971531e-07 -8.5870516e-07 
2.3797709e-06 -3.1468942e-06 2.1311987e-06 
2.7350325e-07 -4.2936163e-06 -1.4589905e-06 
2.7583328e-06 -1.0139096e-04 -3.3751976e-06 
2.2484248e-06 -2.9016517e-06 -1.0633396e-06 
1.4192983e-06 -2.6590882e-05 6.1887558e-06 
1.6707870e-06 -2.4341289e-05 -3.2152204e-06 
9.0982290e-08 -7.7365979e-07 2.3084617e-07 
3.5588309e-06 -4.1988010e-06 -1.8022222e-07 
1.2215778e-06 -2.0196799e-06 -2.4195992e-06 
5.5134074e-06 -3.7923757e-05 2.1797482e-06 
2.6955331e-06 -1.4585340e-05 -2.7779540e-06 
5.4424877e-06 -1.7803934e-05 -5.7284916e-07 
3.6032250e-07 -1.3140379e-06 -5.5078630e-07 
7.2039649e-07 -3.3405789e-07 -6.6075529e-07 
2.3888172e-06 -2.5183535e-06 1.4189983e-06 
4.0660229e-06 -2.5921518e-05 4.9527944e-06 
6.9363557e-07 -3.9093361e-06 1.6524760e-06 
1.2638030e-06 -2.9279242e-06 3.3015286e-07 
2.3015405e-09 1.7862718e-07 -4.8299423e-08 
3.9154215e-06 -7.2245657e-06 -3.9225883e-06 
2.8516552e-06 -1.3730410e-05 2.5085842e-06 
7.7386460e-07 -5.3253461e-07 6.7868410e-07 
5.8100079e-07 -3.2690349e-07 -3.5673176e-07 
6.5866959e-07 -3.6899753e-06 -2.4812632e-06 
5.6629742e-06 -1.7401351e-05 -5.4557299e-06 
6.7769037e-07 -8.5313286e-06 -1.4067850e-06 
8.1056214e-06 -1.3750840e-05 -2.3924429e-07 
1.4687041e-06 -9.8291423e-07 -1.2575991e-06 
8.8238648e-06 -4.6378522e-05 -2.4510189e-06 
5.1702120e-08 2.9189914e-07 -8.8014225e-08 
6.2924341e-06 -3.1332554e-05 -3.1882435e-06 
3.5833111e-07 -9.6235826e-06 -8.6217415e-07 
-1.3448910e-08 1.7709939e-07 2.0428794e-07 
2.0584303e-06 -4.9441555e-06 3.5191701e-06 
4.1466342e-07 -9.0677895e-07 3.3126435e-07 
4.7894177e-06 -7.5678422e-06 3.1142781e-06 
1.9551206e-07 -1.8776561e-08 -5.6099464e-07 
2.4495301e-07 -5.7398884e-06 -1.0215059e-07 
1.2241188e-07 2.0852450e-07 -1.1547824e-07 
9.6340887e-07 -1.1242214e-05 1.3999588e-06 
1.6362030e-06 -8.2225306e-06 4.1156568e-06 
2.4230962e-07 -7.6074107e-09 -3.1266484e-07 
8.7861299e-06 -1.6051874e-05 3.2671053e-06 
4.5329703e-06 -5.3915628e-06 -1.7973070e-06 
1.5296288e-06 -5.0450376e-06 5.9928715e-07 
1.6744292e-06 -1.1970274e-04 1.1598703e-06 
3.4912891e-06 -3.2048050e-05 2.6215880e-06 
1.2634348e-07 -1.6102656e-07 -5.7337758e-07 
1.6037724e-07 -3.5080034e-06 4.9146695e-07 
1.3395837e-06 -1.7816807e-06 1.5744762e-06 
3.4797665e-07 -6.8248573e-07 2.7175147e-07 
1.3805792e-06 -6.2682070e-06 -2.7633180e-07 
2.5792885e-06 -3.9356877e-05 -2.6072455e-06 
TOTAL_DISPLACEMENT 3 395  float
0.0000000e+00 0.0000000e+00 0.0000000e+00 
0.0000000e+00 0.0000000e+00 0.0000000e+00 
0.0000000e+00 0.0000000e+00 0.0000000e+00 
0.0000000e+00 0.0000000e+00 0.0000000e+00 
0.0000000e+00 0.0000000e+00 0.0000000e+00 
0.0000000e+00 0.0000000e+00 0.0000000e+00 
0.0000000e+00 0.0000000e+00 0.0000000e+00 
0.0000000e+00 0.0000000e+00 0.0000000e+00 
0.0000000e+00 0.0000000e+00 0.0000000e+00 
0.0000000e+00 0.0000000e+00 0.0000000e+00 
0.0000000e+00 0.0000000e+00 0.0000000e+00 
0.0000000e+00 0.0000000e+00 0.0000000e+00 
0.0000000e+00 0.0000000e+00 0.0000000e+00 
0.0000000e+00 0.0000000e+00 0.0000000e+00 
0.0000000e+00 0.0000000e+00 0.0000000e+00 
0.0000000e+00 0.0000000e+00 0.0000000e+00 
0.0000000e+00 0.0000000e+00 0.0000000e+00 
0.0000000e+00 0.0000000e+00 0.0000000e+00 
0.0000000e+00 0.0000000e+00 0.0000000e+00 
0.0000000e+00 0.0000000e+00 0.0000000e+00 
0.0000000e+00 0.0000000e+00 0.0000000e+00 
0.0000000e+00 0.0000000e+00 0.0000000e+00 
0.0000000e+00 0.0000000e+00 0.0000000e+00 
0.0000000e+00 0.0000000e+00 0.0000000e+00 
0.0000000e+00 0.0000000e+00 0.0000000e+00 
0.0000000e+00 0.0000000e+00 0.0000000e+00 
0.0000000e+00 0.0000000e+00 0.0000000e+00 
0.0000000e+00 0.0000000e+00 0.0000000e+00 
0.0000000e+00 0.0000000e+00 0.0000000e+00 
0.0000000e+00 0.0000000e+00 0.0000000e+00 
0.0000000e+00 0.0000000e+00 0.0000000e+00 
0.0000000e+00 0.0000000e+00 0.0000000e+00 
0.0000000e+00 0.0000000e+00 0.0000000e+00 
0.0000000e+00 0.0000000e+00 0.0000000e+00 
0.0000000e+00 0.0000000e+00 0.0000000e+00 
0.0000000e+00 0.0000000e+00 0.0000000e+00 
0.0000000e+00 0.0000000e+00 0.0000000e+00 
0.0000000e+00 0.0000000e+00 0.0000000e+00 
0.0000000e+00 0.0000000e+00 0.0000000e+00 
0.0000000e+00 0.0000000e+00 0.0000000e+00 
0.0000000e+00 0.0000000e+00 0.0000000e+00 
0.0000000e+00 0.0000000e+00 0.0000000e+00 
0.0000000e+00 0.0000000e+00 0.0000000e+00 
0.0000000e+00 0.0000000e+00 0.0000000e+00 
0.0000000e+00 0.0000000e+00 0.0000000e+00 
0.0000000e+00 0.0000000e+00 0.0000000e+00 
0.0000000e+00 0.0000000e+00 0.0000000e+00 
0.0000000e+00 0.0000000e+00 0.0000000e+00 
0.0000000e+00 0.0000000e+00 0.0000000e+00 
0.0000000e+00 0.0000000e+00 0.0000000e+00 
0.0000000e+00 0.0000000e+00 0.0000000e+00 
0.0000000e+00 0.0000000e+00 0.0000000e+00 
0.0000000e+00 0.0000000e+00 0.0000000e+00 
0.0000000e+00 0.0000000e+00 0.0000000e+00 
0.0000000e+00 0.0000000e+00 0.0000000e+00 
0.0000000e+00 0.0000000e+00 0.0000000e+00 
0.0000000e+00 0.0000000e+00 0.0000000e+00 