# vtk DataFile Version 4.0
vtk output
ASCII
DATASET UNSTRUCTURED_GRID
POINTS 395 float
0.0000000e+00 0.0000000e+00 0.0000000e+00 
5.0000000e+00 0.0000000e+00 0.0000000e+00 
5.0000000e+00 3.0000000e+00 0.0000000e+00 
0.0000000e+00 3.0000000e+00 0.0000000e+00 
0.0000000e+00 0.0000000e+00 1.0000000e+01 
5.0000000e+00 0.0000000e+00 1.0000000e+01 
5.0000000e+00 3.0000000e+00 1.0000000e+01 
0.0000000e+00 3.0000000e+00 1.0000000e+01 
1.0000000e+00 3.0000000e+00 5.0000000e-01 
1.0000000e+00 3.0000000e+00 1.0000000e+00 
1.0000000e+00 3.0000000e+00 1.5000000e+00 
1.0000000e+00 3.0000000e+00 2.0000000e+00 
1.0000000e+00 3.0000000e+00 2.5000000e+00 
1.0000000e+00 3.0000000e+00 3.0000000e+00 
1.0000000e+00 3.0000000e+00 3.5000000e+00 
1.0000000e+00 3.0000000e+00 4.0000000e+00 
1.0000000e+00 3.0000000e+00 4.5000000e+00 
1.0000000e+00 3.0000000e+00 5.0000000e+00 
1.0000000e+00 3.0000000e+00 5.5000000e+00 
1.0000000e+00 3.0000000e+00 6.0000000e+00 
1.0000000e+00 3.0000000e+00 6.5000000e+00 
1.0000000e+00 3.0000000e+00 7.0000000e+00 
1.0000000e+00 3.0000000e+00 7.5000000e+00 
1.0000000e+00 3.0000000e+00 8.0000000e+00 
1.0000000e+00 3.0000000e+00 8.5000000e+00 
1.0000000e+00 3.0000000e+00 9.0000000e+00 
1.0000000e+00 3.0000000e+00 9.5000000e+00 
1.0000000e+00 3.0000000e+00 0.0000000e+00 
1.0000000e+00 3.0000000e+00 1.0000000e+01 
1.0000000e+00 3.0250001e+00 0.0000000e+00 
1.0000000e+00 3.0250001e+00 5.0000000e-01 
1.0000000e+00 3.0250001e+00 1.0000000e+00 
1.0000000e+00 3.0250001e+00 1.5000000e+00 
1.0000000e+00 3.0250001e+00 2.0000000e+00 
1.0000000e+00 3.0250001e+00 2.5000000e+00 
1.0000000e+00 3.0250001e+00 3.0000000e+00 
1.0000000e+00 3.0250001e+00 3.5000000e+00 
1.0000000e+00 3.0250001e+00 4.0000000e+00 
1.0000000e+00 3.0250001e+00 4.5000000e+00 
1.0000000e+00 3.0250001e+00 5.0000000e+00 
1.0000000e+00 3.0250001e+00 5.5000000e+00 
1.0000000e+00 3.0250001e+00 6.0000000e+00 
1.0000000e+00 3.0250001e+00 6.5000000e+00 
1.0000000e+00 3.0250001e+00 7.0000000e+00 
1.0000000e+00 3.0250001e+00 7.5000000e+00 
1.0000000e+00 3.0250001e+00 8.0000000e+00 
1.0000000e+00 3.0250001e+00 8.5000000e+00 
1.0000000e+00 3.0250001e+00 9.0000000e+00 
1.0000000e+00 3.0250001e+00 9.5000000e+00 
1.0000000e+00 3.0250001e+00 1.0000000e+01 
1.0000000e+00 0.0000000e+00 0.0000000e+00 
2.0000000e+00 0.0000000e+00 0.0000000e+00 
3.0000000e+00 0.0000000e+00 0.0000000e+00 
4.0000000e+00 0.0000000e+00 0.0000000e+00 
5.0000000e+00 1.0000000e+00 0.0000000e+00 
5.0000000e+00 2.0000000e+00 0.0000000e+00 
0.0000000e+00 2.0000000e+00 0.0000000e+00 
0.0000000e+00 1.0000000e+00 0.0000000e+00 
0.0000000e+00 0.0000000e+00 1.0000000e+00 
0.0000000e+00 0.0000000e+00 2.0000000e+00 
0.0000000e+00 0.0000000e+00 3.0000000e+00 
0.0000000e+00 0.0000000e+00 4.0000000e+00 
0.0000000e+00 0.0000000e+00 5.0000000e+00 
0.0000000e+00 0.0000000e+00 6.0000000e+00 
0.0000000e+00 0.0000000e+00 7.0000000e+00 
0.0000000e+00 0.0000000e+00 8.0000000e+00 
0.0000000e+00 0.0000000e+00 9.0000000e+00 
5.0000000e+00 0.0000000e+00 1.0000000e+00 
5.0000000e+00 0.0000000e+00 2.0000000e+00 
5.0000000e+00 0.0000000e+00 3.0000000e+00 
5.0000000e+00 0.0000000e+00 4.0000000e+00 
5.0000000e+00 0.0000000e+00 5.0000000e+00 
5.0000000e+00 0.0000000e+00 6.0000000e+00 
5.0000000e+00 0.0000000e+00 7.0000000e+00 
5.0000000e+00 0.0000000e+00 8.0000000e+00 
5.0000000e+00 0.0000000e+00 9.0000000e+00 
1.0000000e+00 0.0000000e+00 1.0000000e+01 
2.0000000e+00 0.0000000e+00 1.0000000e+01 
3.0000000e+00 0.0000000e+00 1.0000000e+01 
4.0000000e+00 0.0000000e+00 1.0000000e+01 
5.0000000e+00 3.0000000e+00 1.0000000e+00 
5.0000000e+00 3.0000000e+00 2.0000000e+00 
5.0000000e+00 3.0000000e+00 3.0000000e+00 
5.0000000e+00 3.0000000e+00 4.0000000e+00 
5.0000000e+00 3.0000000e+00 5.0000000e+00 
5.0000000e+00 3.0000000e+00 6.0000000e+00 
5.0000000e+00 3.0000000e+00 7.0000000e+00 
5.0000000e+00 3.0000000e+00 8.0000000e+00 
5.0000000e+00 3.0000000e+00 9.0000000e+00 
5.0000000e+00 1.0000000e+00 1.0000000e+01 
5.0000000e+00 2.0000000e+00 1.0000000e+01 
0.0000000e+00 3.0000000e+00 1.0000000e+00 
0.0000000e+00 3.0000000e+00 2.0000000e+00 
0.0000000e+00 3.0000000e+00 3.0000000e+00 
0.0000000e+00 3.0000000e+00 4.0000000e+00 
0.0000000e+00 3.0000000e+00 5.0000000e+00 
0.0000000e+00 3.0000000e+00 6.0000000e+00 
0.0000000e+00 3.0000000e+00 7.0000000e+00 
0.0000000e+00 3.0000000e+00 8.0000000e+00 
0.0000000e+00 3.0000000e+00 9.0000000e+00 
0.0000000e+00 2.0000000e+00 1.0000000e+01 
0.0000000e+00 1.0000000e+00 1.0000000e+01 
4.0000000e+00 3.0000000e+00 0.0000000e+00 
3.0000000e+00 3.0000000e+00 0.0000000e+00 
2.0000000e+00 3.0000000e+00 0.0000000e+00 
4.0000000e+00 3.0000000e+00 1.0000000e+01 
3.0000000e+00 3.0000000e+00 1.0000000e+01 
2.0000000e+00 3.0000000e+00 1.0000000e+01 
1.5046000e+00 2.2345026e+00 0.0000000e+00 
4.0618000e+00 1.5000000e+00 0.0000000e+00 
2.5000000e+00 8.6602539e-01 0.0000000e+00 
2.4957771e+00 2.1843948e+00 0.0000000e+00 
1.5046000e+00 7.6549745e-01 0.0000000e+00 
3.4700506e+00 2.2420573e+00 0.0000000e+00 
3.4707544e+00 7.6634604e-01 0.0000000e+00 
8.6322361e-01 1.5000000e+00 0.0000000e+00 
2.0000000e+00 1.5000000e+00 0.0000000e+00 
2.9960666e+00 1.5025520e+00 0.0000000e+00 
4.2679491e+00 7.3205084e-01 0.0000000e+00 
4.2679491e+00 2.2679491e+00 0.0000000e+00 
7.2695929e-01 2.2730408e+00 0.0000000e+00 
7.2695929e-01 7.2695929e-01 0.0000000e+00 
4.1822505e+00 0.0000000e+00 2.5515697e+00 
4.2017918e+00 0.0000000e+00 4.4725966e+00 
4.1114569e+00 0.0000000e+00 6.5092020e+00 
8.6602539e-01 0.0000000e+00 3.5000000e+00 
8.4778279e-01 0.0000000e+00 5.4684029e+00 
8.9629614e-01 0.0000000e+00 7.5867257e+00 
2.5566745e+00 0.0000000e+00 8.1853306e-01 
2.4918270e+00 0.0000000e+00 9.1386929e+00 
8.4677207e-01 0.0000000e+00 1.5042374e+00 
4.0943027e+00 0.0000000e+00 8.4081745e+00 
8.6281651e-01 0.0000000e+00 2.5007062e+00 
1.7315160e+00 0.0000000e+00 3.0001178e+00 
1.7319617e+00 0.0000000e+00 4.0000196e+00 
2.5980761e+00 0.0000000e+00 3.5000000e+00 
2.5536871e+00 0.0000000e+00 4.4963923e+00 
2.5928419e+00 0.0000000e+00 2.4239938e+00 
1.5037409e+00 0.0000000e+00 9.1535149e+00 
1.8433737e+00 0.0000000e+00 8.1858873e+00 
3.0000000e+00 0.0000000e+00 8.2679491e+00 
2.5000000e+00 0.0000000e+00 7.4019237e+00 
3.5042722e+00 0.0000000e+00 7.4271150e+00 
3.0310018e+00 0.0000000e+00 6.5282087e+00 
2.0373929e+00 0.0000000e+00 6.5307913e+00 
3.4767809e+00 0.0000000e+00 5.8031492e+00 
2.5452602e+00 0.0000000e+00 5.5720768e+00 
1.6456656e+00 0.0000000e+00 1.9697139e+00 
8.6297011e-01 0.0000000e+00 4.4947371e+00 
1.0111579e+00 0.0000000e+00 6.5282545e+00 
3.4994321e+00 0.0000000e+00 8.4691072e-01 
4.1860156e+00 0.0000000e+00 3.5040276e+00 
1.7320508e+00 0.0000000e+00 5.0000000e+00 
4.0544066e+00 0.0000000e+00 1.5781221e+00 
1.5817389e+00 0.0000000e+00 9.3943578e-01 
8.3166349e-01 0.0000000e+00 8.5090933e+00 
3.4686174e+00 0.0000000e+00 9.1752682e+00 
3.0709300e+00 0.0000000e+00 1.5799091e+00 
3.3927374e+00 0.0000000e+00 3.0399952e+00 
3.3826034e+00 0.0000000e+00 3.9747651e+00 
4.3420062e+00 0.0000000e+00 7.4688983e+00 
3.4023225e+00 0.0000000e+00 4.9314723e+00 
1.6740381e+00 0.0000000e+00 7.3014426e+00 
4.2715640e+00 0.0000000e+00 5.4758859e+00 
1.6225953e+00 0.0000000e+00 5.8104177e+00 
4.2679491e+00 0.0000000e+00 9.2679491e+00 
7.3205084e-01 0.0000000e+00 7.3205084e-01 
4.2679491e+00 0.0000000e+00 7.3205084e-01 
7.3205084e-01 0.0000000e+00 9.2679491e+00 
3.4586334e+00 0.0000000e+00 2.2347178e+00 
2.2895701e+00 0.0000000e+00 1.5463171e+00 
5.0000000e+00 2.2345026e+00 1.5046000e+00 
5.0000000e+00 1.5000000e+00 9.0618000e+00 
5.0000000e+00 2.1339746e+00 3.5000000e+00 
5.0000000e+00 2.1339746e+00 5.5000000e+00 
5.0000000e+00 2.1339746e+00 7.5000000e+00 
5.0000000e+00 8.6602539e-01 2.5000000e+00 
5.0000000e+00 8.6602539e-01 4.5000000e+00 
5.0000000e+00 8.6602539e-01 6.5000000e+00 
5.0000000e+00 8.6602539e-01 3.5000000e+00 
5.0000000e+00 8.6602539e-01 5.5000000e+00 
5.0000000e+00 2.1584709e+00 2.5001996e+00 
5.0000000e+00 2.1339746e+00 4.5000000e+00 
5.0000000e+00 2.1339746e+00 6.5000000e+00 
5.0000000e+00 8.6602539e-01 7.5000000e+00 
5.0000000e+00 7.6549745e-01 1.5046000e+00 
5.0000000e+00 7.6634604e-01 8.4707546e+00 
5.0000000e+00 2.2336540e+00 8.4707546e+00 
5.0000000e+00 1.5000000e+00 8.6322361e-01 
5.0000000e+00 1.5000000e+00 5.0000000e+00 
5.0000000e+00 1.5000000e+00 7.0000000e+00 
5.0000000e+00 1.5000000e+00 2.0000000e+00 
5.0000000e+00 1.5000000e+00 6.0000000e+00 
5.0000000e+00 1.5000000e+00 4.0000000e+00 
5.0000000e+00 1.5000000e+00 3.0000000e+00 
5.0000000e+00 1.5000000e+00 7.9977231e+00 
5.0000000e+00 2.2679491e+00 9.2679491e+00 
5.0000000e+00 7.3205084e-01 9.2679491e+00 
5.0000000e+00 2.2730408e+00 7.2695929e-01 
5.0000000e+00 7.2695929e-01 7.2695929e-01 
0.0000000e+00 7.6549745e-01 1.5046000e+00 
0.0000000e+00 1.5000000e+00 9.0618000e+00 
0.0000000e+00 7.6689392e-01 3.5202229e+00 
0.0000000e+00 8.4174728e-01 6.5073700e+00 
0.0000000e+00 2.1339746e+00 2.5000000e+00 
0.0000000e+00 2.1503205e+00 4.5283122e+00 
0.0000000e+00 2.1339746e+00 7.5000000e+00 
0.0000000e+00 7.5539857e-01 2.5041373e+00 
0.0000000e+00 2.1917200e+00 3.5330307e+00 
0.0000000e+00 2.1758037e+00 5.5047188e+00 
0.0000000e+00 1.4323456e+00 5.0621295e+00 
0.0000000e+00 2.1560361e+00 6.5002046e+00 
0.0000000e+00 8.3464229e-01 7.4971519e+00 
0.0000000e+00 2.2345026e+00 1.5046000e+00 
0.0000000e+00 2.2336540e+00 8.4707546e+00 
0.0000000e+00 7.6111549e-01 8.4702797e+00 
0.0000000e+00 1.5000000e+00 8.6322361e-01 
0.0000000e+00 1.4454463e+00 4.0239491e+00 
0.0000000e+00 7.3467791e-01 5.5115833e+00 
0.0000000e+00 1.5000000e+00 2.0000000e+00 
0.0000000e+00 1.4948297e+00 6.9999175e+00 
0.0000000e+00 1.4754088e+00 3.0096834e+00 
0.0000000e+00 1.5025774e+00 6.0000000e+00 
0.0000000e+00 7.2989392e-01 4.5196476e+00 
0.0000000e+00 1.4981872e+00 7.9961324e+00 
0.0000000e+00 7.3205084e-01 9.2679491e+00 
0.0000000e+00 2.2679491e+00 9.2679491e+00 
0.0000000e+00 2.2730408e+00 7.2695929e-01 
0.0000000e+00 7.2695929e-01 7.2695929e-01 
1.5046000e+00 7.6549745e-01 1.0000000e+01 
[...]
POINT_DATA 395
FIELD FieldData 2
DISPLACEMENT 3 395  float
0.0000000e+00 0.0000000e+00 0.0000000e+00 
0.0000000e+00 0.0000000e+00 0.0000000e+00 
0.0000000e+00 5.0512188e-08 0.0000000e+00 
0.0000000e+00 9.8131041e-09 0.0000000e+00 
0.0000000e+00 0.0000000e+00 0.0000000e+00 
0.0000000e+00 0.0000000e+00 0.0000000e+00 
0.0000000e+00 -5.0674253e-06 0.0000000e+00 
0.0000000e+00 -1.0664581e-04 0.0000000e+00 
-6.0059060e-09 2.5698558e-08 -3.7227481e-09 
-9.6835775e-09 5.7165632e-08 -4.5538426e-09 
-1.2906540e-08 1.0490450e-07 1.4829509e-08 
-1.7451546e-08 1.6001216e-07 6.7313799e-08 
-2.0482368e-08 2.0474421e-07 1.7018421e-07 
-9.3114686e-08 2.0251659e-07 4.5591631e-07 
-1.6886422e-07 1.3289454e-07 8.2231514e-07 
-3.0006578e-07 -4.3625914e-08 1.4405235e-06 
-4.1601857e-07 -4.2389735e-07 2.3550283e-06 
-8.6348064e-07 -1.3125169e-06 3.7191894e-06 
-1.2394622e-06 -3.4286290e-06 4.8874167e-06 
-1.9963738e-06 -8.4331814e-06 7.2413295e-06 
-4.0652453e-06 -1.9555806e-05 1.3430958e-05 
-4.3627524e-06 -4.1849515e-05 1.3443289e-05 
-4.8714137e-06 -8.2281025e-05 1.7825767e-05 
-1.0783388e-05 -1.4492054e-04 2.2643029e-05 
-6.1461974e-06 -2.0965486e-04 1.0692593e-05 
-2.0104977e-05 -2.4499095e-04 9.1642078e-06 
-8.8428014e-06 -2.1626212e-04 8.3535715e-06 
0.0000000e+00 1.4986437e-08 0.0000000e+00 
0.0000000e+00 -1.9738403e-04 0.0000000e+00 
0.0000000e+00 1.5466684e-08 0.0000000e+00 
0.0000000e+00 2.6283098e-08 0.0000000e+00 
0.0000000e+00 5.7539030e-08 0.0000000e+00 
0.0000000e+00 1.0531958e-07 0.0000000e+00 
0.0000000e+00 1.6074372e-07 0.0000000e+00 
0.0000000e+00 2.0375393e-07 0.0000000e+00 
0.0000000e+00 2.0231344e-07 0.0000000e+00 
0.0000000e+00 1.3313254e-07 0.0000000e+00 
0.0000000e+00 -3.9764743e-08 0.0000000e+00 
0.0000000e+00 -4.1654334e-07 0.0000000e+00 
0.0000000e+00 -1.2896666e-06 0.0000000e+00 
0.0000000e+00 -3.3833333e-06 0.0000000e+00 
0.0000000e+00 -8.3691139e-06 0.0000000e+00 
0.0000000e+00 -1.9444573e-05 0.0000000e+00 
0.0000000e+00 -4.1798125e-05 0.0000000e+00 
0.0000000e+00 -8.2711056e-05 0.0000000e+00 
0.0000000e+00 -1.4555009e-04 0.0000000e+00 
0.0000000e+00 -2.1445865e-04 0.0000000e+00 
0.0000000e+00 -2.4839657e-04 0.0000000e+00 
0.0000000e+00 -2.1944811e-04 0.0000000e+00 
0.0000000e+00 -1.9856967e-04 0.0000000e+00 
0.0000000e+00 0.0000000e+00 0.0000000e+00 
0.0000000e+00 0.0000000e+00 0.0000000e+00 
0.0000000e+00 0.0000000e+00 0.0000000e+00 
0.0000000e+00 0.0000000e+00 0.0000000e+00 
0.0000000e+00 2.5818659e-08 0.0000000e+00 
0.0000000e+00 4.5023651e-08 0.0000000e+00 
0.0000000e+00 1.0473830e-08 0.0000000e+00 
0.0000000e+00 6.2138557e-09 0.0000000e+00 
0.0000000e+00 0.0000000e+00 0.0000000e+00 
0.0000000e+00 0.0000000e+00 0.0000000e+00 
0.0000000e+00 0.0000000e+00 0.0000000e+00 
0.0000000e+00 0.0000000e+00 0.0000000e+00 
0.0000000e+00 0.0000000e+00 0.0000000e+00 
0.0000000e+00 0.0000000e+00 0.0000000e+00 
0.0000000e+00 0.0000000e+00 0.0000000e+00 
0.0000000e+00 0.0000000e+00 0.0000000e+00 
0.0000000e+00 0.0000000e+00 0.0000000e+00 
0.0000000e+00 0.0000000e+00 0.0000000e+00 
0.0000000e+00 0.0000000e+00 0.0000000e+00 
0.0000000e+00 0.0000000e+00 0.0000000e+00 
0.0000000e+00 0.0000000e+00 0.0000000e+00 
0.0000000e+00 0.0000000e+00 0.0000000e+00 
0.0000000e+00 0.0000000e+00 0.0000000e+00 
0.0000000e+00 0.0000000e+00 0.0000000e+00 
0.0000000e+00 0.0000000e+00 0.0000000e+00 
0.0000000e+00 0.0000000e+00 0.0000000e+00 
0.0000000e+00 0.0000000e+00 0.0000000e+00 
0.0000000e+00 0.0000000e+00 0.0000000e+00 
0.0000000e+00 0.0000000e+00 0.0000000e+00 
0.0000000e+00 0.0000000e+00 0.0000000e+00 
0.0000000e+00 6.4976476e-08 0.0000000e+00 
0.0000000e+00 1.3610037e-07 0.0000000e+00 
0.0000000e+00 2.8174171e-07 0.0000000e+00 
0.0000000e+00 2.8310495e-07 0.0000000e+00 
0.0000000e+00 8.9694389e-08 0.0000000e+00 
0.0000000e+00 -1.7897574e-07 0.0000000e+00 
0.0000000e+00 -9.4439008e-07 0.0000000e+00 
0.0000000e+00 -1.7731741e-06 0.0000000e+00 
0.0000000e+00 -4.1699063e-06 0.0000000e+00 
0.0000000e+00 -2.7000065e-06 0.0000000e+00 
0.0000000e+00 -4.6700288e-06 0.0000000e+00 
0.0000000e+00 4.2238216e-08 0.0000000e+00 
0.0000000e+00 1.2238391e-07 0.0000000e+00 
0.0000000e+00 9.4119308e-08 0.0000000e+00 
0.0000000e+00 -4.5433549e-07 0.0000000e+00 
0.0000000e+00 -3.1030308e-06 0.0000000e+00 
0.0000000e+00 -1.1837500e-05 0.0000000e+00 
0.0000000e+00 -3.9995095e-05 0.0000000e+00 
0.0000000e+00 -8.2995306e-05 0.0000000e+00 
0.0000000e+00 -1.2240255e-04 0.0000000e+00 
0.0000000e+00 -8.7453620e-05 0.0000000e+00 
0.0000000e+00 -4.5545818e-05 0.0000000e+00 
0.0000000e+00 4.9158498e-08 0.0000000e+00 
0.0000000e+00 4.1783210e-08 0.0000000e+00 
0.0000000e+00 3.2642635e-08 0.0000000e+00 
0.0000000e+00 -9.1869861e-06 0.0000000e+00 
0.0000000e+00 -2.4552359e-05 0.0000000e+00 
0.0000000e+00 -6.1561033e-05 0.0000000e+00 
0.0000000e+00 2.0553701e-08 0.0000000e+00 
0.0000000e+00 3.6016072e-08 0.0000000e+00 
0.0000000e+00 1.7691393e-08 0.0000000e+00 
0.0000000e+00 3.6872795e-08 0.0000000e+00 
0.0000000e+00 8.3604910e-09 0.0000000e+00 
0.0000000e+00 4.1245158e-08 0.0000000e+00 
0.0000000e+00 1.5397003e-08 0.0000000e+00 
0.0000000e+00 1.2457886e-08 0.0000000e+00 
0.0000000e+00 2.0234079e-08 0.0000000e+00 
0.0000000e+00 2.8256657e-08 0.0000000e+00 
0.0000000e+00 1.6989448e-08 0.0000000e+00 
0.0000000e+00 4.6755023e-08 0.0000000e+00 
0.0000000e+00 1.2375611e-08 0.0000000e+00 
0.0000000e+00 4.4638564e-09 0.0000000e+00 
0.0000000e+00 0.0000000e+00 0.0000000e+00 
0.0000000e+00 0.0000000e+00 0.0000000e+00 
0.0000000e+00 0.0000000e+00 0.0000000e+00 
0.0000000e+00 0.0000000e+00 0.0000000e+00 
0.0000000e+00 0.0000000e+00 0.0000000e+00 
0.0000000e+00 0.0000000e+00 0.0000000e+00 
0.0000000e+00 0.0000000e+00 0.0000000e+00 
0.0000000e+00 0.0000000e+00 0.0000000e+00 
0.0000000e+00 0.0000000e+00 0.0000000e+00 
0.0000000e+00 0.0000000e+00 0.0000000e+00 
0.0000000e+00 0.0000000e+00 0.0000000e+00 
0.0000000e+00 0.0000000e+00 0.0000000e+00 
0.0000000e+00 0.0000000e+00 0.0000000e+00 
0.0000000e+00 0.0000000e+00 0.0000000e+00 
0.0000000e+00 0.0000000e+00 0.0000000e+00 
0.0000000e+00 0.0000000e+00 0.0000000e+00 
0.0000000e+00 0.0000000e+00 0.0000000e+00 
0.0000000e+00 0.0000000e+00 0.0000000e+00 
0.0000000e+00 0.0000000e+00 0.0000000e+00 
0.0000000e+00 0.0000000e+00 0.0000000e+00 
0.0000000e+00 0.0000000e+00 0.0000000e+00 
0.0000000e+00 0.0000000e+00 0.0000000e+00 
0.0000000e+00 0.0000000e+00 0.0000000e+00 
0.0000000e+00 0.0000000e+00 0.0000000e+00 
0.0000000e+00 0.0000000e+00 0.0000000e+00 
0.0000000e+00 0.0000000e+00 0.0000000e+00 
0.0000000e+00 0.0000000e+00 0.0000000e+00 
0.0000000e+00 0.0000000e+00 0.0000000e+00 
0.0000000e+00 0.0000000e+00 0.0000000e+00 
0.0000000e+00 0.0000000e+00 0.0000000e+00 
0.0000000e+00 0.0000000e+00 0.0000000e+00 
0.0000000e+00 0.0000000e+00 0.0000000e+00 
0.0000000e+00 0.0000000e+00 0.0000000e+00 
0.0000000e+00 0.0000000e+00 0.0000000e+00 
0.0000000e+00 0.0000000e+00 0.0000000e+00 
0.0000000e+00 0.0000000e+00 0.0000000e+00 
0.0000000e+00 0.0000000e+00 0.0000000e+00 
0.0000000e+00 0.0000000e+00 0.0000000e+00 
0.0000000e+00 0.0000000e+00 0.0000000e+00 
0.0000000e+00 0.0000000e+00 0.0000000e+00 
0.0000000e+00 0.0000000e+00 0.0000000e+00 
0.0000000e+00 0.0000000e+00 0.0000000e+00 
0.0000000e+00 0.0000000e+00 0.0000000e+00 
0.0000000e+00 0.0000000e+00 0.0000000e+00 
0.0000000e+00 0.0000000e+00 0.0000000e+00 
0.0000000e+00 0.0000000e+00 0.0000000e+00 
0.0000000e+00 0.0000000e+00 0.0000000e+00 
0.0000000e+00 0.0000000e+00 0.0000000e+00 
0.0000000e+00 0.0000000e+00 0.0000000e+00 
0.0000000e+00 8.8224851e-08 0.0000000e+00 
0.0000000e+00 -2.5730744e-06 0.0000000e+00 
0.0000000e+00 3.5123082e-07 0.0000000e+00 
0.0000000e+00 3.2219569e-07 0.0000000e+00 
0.0000000e+00 -8.3485838e-07 0.0000000e+00 
0.0000000e+00 7.6467153e-08 0.0000000e+00 
0.0000000e+00 1.1324111e-07 0.0000000e+00 
0.0000000e+00 -5.1770581e-07 0.0000000e+00 
0.0000000e+00 1.0059935e-07 0.0000000e+00 
0.0000000e+00 -1.1768214e-07 0.0000000e+00 
0.0000000e+00 1.7631481e-07 0.0000000e+00 
0.0000000e+00 4.1982273e-07 0.0000000e+00 
0.0000000e+00 -7.3865628e-08 0.0000000e+00 
0.0000000e+00 -1.1729303e-06 0.0000000e+00 
0.0000000e+00 3.5023497e-08 0.0000000e+00 
0.0000000e+00 -1.7173419e-06 0.0000000e+00 
0.0000000e+00 -2.2068859e-06 0.0000000e+00 
0.0000000e+00 4.6401411e-08 0.0000000e+00 
0.0000000e+00 2.2871646e-07 0.0000000e+00 
0.0000000e+00 -6.9964176e-07 0.0000000e+00 
0.0000000e+00 9.9807160e-08 0.0000000e+00 
0.0000000e+00 -1.6208122e-07 0.0000000e+00 
0.0000000e+00 2.3629671e-07 0.0000000e+00 
0.0000000e+00 1.9198522e-07 0.0000000e+00 
0.0000000e+00 -1.5407968e-06 0.0000000e+00 
0.0000000e+00 -2.8186112e-06 0.0000000e+00 
0.0000000e+00 -1.5411645e-06 0.0000000e+00 
0.0000000e+00 5.6181062e-08 0.0000000e+00 
0.0000000e+00 2.2158627e-08 0.0000000e+00 
0.0000000e+00 2.5899487e-08 0.0000000e+00 
0.0000000e+00 -6.8008972e-05 0.0000000e+00 
0.0000000e+00 -1.1574800e-07 0.0000000e+00 
0.0000000e+00 -7.9616357e-06 0.0000000e+00 
0.0000000e+00 1.3132397e-07 0.0000000e+00 
0.0000000e+00 -1.3560439e-06 0.0000000e+00 
0.0000000e+00 -5.1560510e-05 0.0000000e+00 
0.0000000e+00 4.3351250e-08 0.0000000e+00 
0.0000000e+00 -8.8040103e-08 0.0000000e+00 
0.0000000e+00 -6.3492012e-06 0.0000000e+00 
0.0000000e+00 -3.0405274e-06 0.0000000e+00 
0.0000000e+00 -2.0460440e-05 0.0000000e+00 
0.0000000e+00 -1.9190520e-05 0.0000000e+00 
0.0000000e+00 7.5786517e-08 0.0000000e+00 
0.0000000e+00 -8.8016175e-05 0.0000000e+00 
0.0000000e+00 -2.8130144e-05 0.0000000e+00 
0.0000000e+00 1.9578231e-08 0.0000000e+00 
0.0000000e+00 -4.8026317e-07 0.0000000e+00 
0.0000000e+00 -3.2331504e-06 0.0000000e+00 
0.0000000e+00 7.9004501e-08 0.0000000e+00 
0.0000000e+00 -2.4641999e-05 0.0000000e+00 
0.0000000e+00 3.7061898e-08 0.0000000e+00 
0.0000000e+00 -9.5359301e-06 0.0000000e+00 
0.0000000e+00 -7.7569587e-07 0.0000000e+00 
0.0000000e+00 -4.6414039e-05 0.0000000e+00 
0.0000000e+00 -3.1728090e-05 0.0000000e+00 
0.0000000e+00 -1.0008726e-04 0.0000000e+00 
0.0000000e+00 2.3511907e-08 0.0000000e+00 
0.0000000e+00 9.3244141e-09 0.0000000e+00 
0.0000000e+00 -2.4522884e-05 0.0000000e+00 
0.0000000e+00 -6.2446838e-06 0.0000000e+00 
0.0000000e+00 -3.3072738e-05 0.0000000e+00 
0.0000000e+00 -8.9507754e-05 0.0000000e+00 
0.0000000e+00 -1.5386038e-05 0.0000000e+00 
0.0000000e+00 -1.4692843e-05 0.0000000e+00 
0.0000000e+00 -5.7049483e-06 0.0000000e+00 
0.0000000e+00 -7.4416945e-05 0.0000000e+00 
0.0000000e+00 -3.8926071e-05 0.0000000e+00 
0.0000000e+00 -1.6401216e-05 0.0000000e+00 
0.0000000e+00 -3.2500534e-06 0.0000000e+00 
0.0000000e+00 -7.2747516e-06 0.0000000e+00 
0.0000000e+00 -1.2134045e-04 0.0000000e+00 
0.0000000e+00 -3.5216661e-05 0.0000000e+00 
-5.5029063e-06 -2.4061319e-05 1.1587198e-05 
-3.4361868e-08 1.9495202e-07 1.3607715e-07 
-3.5529698e-07 1.0202958e-07 1.1047910e-06 
-1.1584816e-06 -3.1709280e-06 4.4083422e-06 
-1.9682519e-05 -1.0349316e-04 2.0501182e-05 
-3.7599261e-07 3.2480756e-07 5.4920582e-07 
-3.6645981e-06 -3.2309438e-06 2.3033347e-06 
-4.9904674e-08 2.1615148e-07 4.3500538e-08 
-1.3750008e-08 8.5944343e-08 1.5617823e-08 
-1.2208807e-05 -3.6858062e-05 4.0779346e-06 
-1.4028941e-08 6.1079753e-08 3.6481078e-09 
-1.6841141e-05 -1.2996464e-04 5.7133188e-06 
-2.0063668e-07 3.1166954e-07 2.8122216e-07 
-1.3252269e-07 2.7714771e-07 2.2843082e-07 
-6.7370628e-08 2.0906575e-07 1.0635210e-07 
-1.0160765e-07 2.6123968e-07 2.5982487e-07 
-2.5866484e-07 2.4589656e-07 6.1818042e-07 
-3.7057806e-08 1.4213227e-07 5.6120598e-08 
-1.6600765e-07 2.3442770e-07 4.6338226e-07 
-3.8922423e-07 2.5670650e-07 5.7094053e-07 
-6.2180294e-07 -4.2732442e-08 1.0733340e-06 
-7.6333862e-07 4.0240099e-08 1.5756374e-06 
-1.2245220e-06 -8.8715501e-07 2.3889643e-06 
-1.9222141e-06 -1.3299082e-06 2.7077258e-06 
-2.9967196e-06 -3.7381537e-06 4.3045870e-06 
-3.9144184e-06 -4.7399490e-06 4.4135281e-06 
-2.3181292e-06 -1.7849724e-06 2.8979796e-06 
-9.7760176e-07 -6.9456945e-07 2.1122466e-06 
-4.6390364e-06 -8.7246781e-06 5.5049832e-06 
-5.4715574e-06 -9.6183858e-06 5.1058137e-06 
-2.9947346e-06 -6.3626462e-06 6.4332157e-06 
-1.3402711e-08 6.0641966e-08 1.4646135e-08 
-3.2197354e-07 2.0150461e-07 9.0847846e-07 
-1.1664330e-06 9.4908749e-08 1.1797230e-06 
-5.6700428e-06 -1.2958902e-05 9.1356281e-07 
-1.0018553e-05 -2.0844009e-05 4.8653874e-06 
-1.5232844e-05 -4.6948891e-05 6.8971258e-06 
-1.1170172e-05 -1.7870498e-05 6.3999173e-06 
-3.6553158e-06 -5.1679140e-06 9.1619836e-07 
-1.5394699e-08 1.0666918e-07 -6.7835226e-09 
-6.6609971e-08 2.2696240e-07 1.6744684e-07 
-3.3153409e-08 1.4601409e-07 6.1498973e-08 
-7.4796176e-06 -2.0310436e-05 1.0306677e-05 
-1.4273998e-05 -4.0385057e-05 1.3017106e-05 
-7.6396964e-06 -8.1349099e-06 5.7777274e-06 
-8.6636497e-08 2.6209582e-07 3.0875896e-07 
-4.8143869e-07 -3.2971261e-07 1.6822801e-06 
-7.3291693e-07 -1.4153392e-06 3.0194110e-06 
-1.1779339e-05 -4.3387798e-05 1.8654215e-05 
-1.5396833e-07 2.3606182e-07 6.2373226e-07 
-9.5052774e-06 -1.2308033e-04 7.0390524e-06 
-1.8634214e-06 -8.4233142e-07 1.6650217e-06 
-1.3250658e-06 -2.1312226e-06 3.4592451e-06 
-9.1851176e-09 3.7744691e-08 -3.4826060e-09 
-4.0781542e-06 -1.2546388e-05 9.0818039e-06 
-1.3499674e-05 -7.4228548e-05 1.9424455e-05 
-2.3235906e-08 1.2571711e-07 4.9506291e-08 
-7.4323925e-06 -9.9181734e-06 3.4903237e-06 
-1.2625834e-05 -8.4108069e-05 8.2025090e-06 
-3.4649067e-06 -3.6724623e-06 3.7953762e-06 
-3.4137383e-06 -6.8616405e-06 8.6789709e-07 
-2.9369765e-08 1.1193554e-07 4.5063850e-08 
-5.7801834e-09 6.2184519e-08 -4.6360795e-09 
-1.7689048e-08 7.8806778e-08 1.1245286e-08 
-2.2773020e-06 -6.2512931e-06 5.9984081e-06 
-1.0933746e-06 -2.1899726e-07 1.1568206e-06 
-5.2080878e-07 -5.7073439e-08 1.3024285e-06 
-3.0084476e-07 2.0275424e-07 8.6626125e-07 
-5.8531641e-06 -1.4174475e-05 9.9274730e-06 
-1.0079589e-08 4.7276707e-08 3.1143019e-09 
-2.7520048e-08 -8.2024849e-09 5.3773209e-07 
9.6374793e-09 1.7603379e-07 1.6730336e-07 
-1.3683915e-07 -2.2032003e-07 1.0819980e-06 
-1.1536975e-07 -6.5387030e-07 1.6119410e-06 
-4.8536393e-09 1.5882560e-07 8.9795897e-08 
-3.2792062e-07 -2.1946996e-06 2.6556054e-06 
-4.2545261e-07 -4.0772379e-06 3.4089760e-06 
-9.4647044e-07 -9.1286074e-06 5.3581516e-06 
-1.4098973e-06 -1.7093944e-05 8.0670761e-06 
-2.1798196e-06 -3.2809596e-05 1.1219901e-05 
-3.1005061e-06 -5.4291137e-05 1.0140816e-05 
-5.3685003e-06 -9.6227690e-05 7.3356578e-06 
-6.2520321e-06 -1.5037993e-04 9.4987163e-06 
-5.9868667e-06 -1.6008964e-04 6.6701245e-06 
-1.3539272e-07 -1.4374638e-04 2.4434576e-06 
-4.0203680e-09 1.0392761e-07 3.5988968e-08 
-7.4692155e-09 6.7331051e-08 6.6788113e-09 
-5.7530114e-09 2.7090616e-08 -3.8440691e-09 
6.6895133e-08 1.4513184e-07 -4.0205975e-07 
1.5748674e-06 -7.1403010e-06 -4.1142880e-06 
7.4097898e-06 -2.8752396e-05 -7.8236581e-06 
-6.3632868e-09 8.8960320e-08 -4.9352979e-09 
4.2682788e-07 -5.9802107e-07 -1.0018825e-06 
-2.4537493e-07 -9.4979418e-07 -3.7366920e-07 
3.3151530e-06 -4.1049834e-06 -2.9717032e-06 
4.7876128e-08 2.3301540e-07 -1.5918283e-07 
8.0304162e-06 -8.5833599e-05 -5.1381626e-06 
1.6148770e-06 -2.3140525e-05 -4.4875942e-06 
9.4954233e-10 8.2577522e-08 -2.0525382e-08 
6.3091547e-06 -1.1402489e-05 -2.9735800e-06 
-2.1021529e-08 2.0254954e-07 2.9455700e-08 
4.5330474e-08 -6.7710794e-06 -9.2720477e-08 
1.6971798e-07 2.6171585e-07 -3.4618097e-07 
3.7024367e-06 -6.6001427e-05 -1.0209100e-05 
-6.7616902e-08 8.9530523e-08 1.6077308e-07 
-9.6731476e-09 1.2232334e-07 2.2074486e-08 
8.4761336e-07 -5.5557689e-07 -1.2057706e-06 
2.4161039e-08 1.1113779e-07 -1.4530524e-07 
5.4618039e-07 -1.0077401e-05 -1.4553028e-06 
-1.0500833e-07 1.6721677e-07 7.4597487e-08 
5.3762574e-07 -2.0231716e-06 -6.5926815e-07 
-2.6583978e-08 1.8184917e-07 2.2449681e-08 
2.0012918e-08 1.0093378e-07 -4.7237766e-08 
2.8453189e-06 -2.7728559e-06 -1.9076710e-06 
2.9551163e-06 -1.1505894e-05 -6.2796798e-06 
7.7959858e-06 -3.5061847e-05 -3.1502107e-06 
6.7352920e-07 -8.3658466e-07 -7.0994099e-07 
-6.3068883e-09 5.9006769e-08 8.1384117e-09 
1.8595239e-07 3.7996760e-08 -6.2684643e-07 
3.2010403e-06 -1.5857975e-05 -2.6752996e-06 
3.1512729e-06 -5.2016649e-06 -6.2720869e-07 
6.8075874e-09 2.8302222e-07 -5.4934166e-08 
-4.5116222e-09 6.7781016e-08 -1.1327877e-07 
1.0702991e-07 -4.2001824e-07 -1.0304769e-06 
-5.8770247e-08 3.1477583e-07 1.2763489e-07 
1.6625628e-06 -2.0108698e-06 -2.8882173e-06 
1.2965864e-07 1.3058791e-07 -1.9603530e-07 
2.5431513e-07 -2.7959109e-06 -7.7137349e-07 
-4.0927581e-09 6.7576906e-08 4.8632931e-10 
3.5280939e-07 -2.9130144e-06 -2.4516658e-06 
-1.5772958e-08 2.3110860e-07 8.7457806e-08 
-5.1966635e-09 4.2126899e-08 8.9369907e-09 
1.0411893e-05 -2.7397340e-05 -5.6940653e-06 
1.0102467e-06 -4.3196683e-06 -3.9767576e-07 
6.6083867e-06 -9.7991006e-06 -4.9739674e-06 
-1.7579976e-09 3.9865260e-08 -7.1224528e-09 
-1.2806464e-07 3.4236169e-07 1.2374194e-07 
-6.1663981e-09 1.5057313e-07 -8.7469179e-09 
5.6812646e-06 -4.5397301e-05 -3.0242861e-06 
4.7674048e-06 -3.5688077e-05 -6.9531006e-06 
1.7031364e-09 3.8002160e-08 -5.6178555e-09 
3.9727793e-06 -6.4299038e-06 -5.0710623e-06 
5.6839508e-07 -2.1296488e-07 -1.0744227e-06 
1.6703227e-06 -4.6868859e-06 -7.3111232e-07 
-5.8629502e-07 -1.3422214e-05 1.6131978e-06 
2.2607858e-06 -2.8472505e-05 -2.3179525e-06 
1.0118277e-09 3.3687613e-08 -4.0930903e-09 
-6.7884045e-08 -1.2898516e-04 -9.1618108e-07 
6.3068651e-06 -1.6165741e-05 -1.9440856e-06 
2.0485707e-06 -1.3419914e-05 -3.6402218e-07 
3.6276688e-08 -1.2432646e-07 -1.0186709e-07 
-4.5472441e-07 -5.1314299e-07 5.9768541e-07 
TOTAL_DISPLACEMENT 3 395  float
0.0000000e+00 0.0000000e+00 0.0000000e+00 
0.0000000e+00 0.0000000e+00 0.0000000e+00 
0.0000000e+00 0.0000000e+00 0.0000000e+00 
0.0000000e+00 0.0000000e+00 0.0000000e+00 
0.0000000e+00 0.0000000e+00 0.0000000e+00 
0.0000000e+00 0.0000000e+00 0.0000000e+00 
0.0000000e+00 0.0000000e+00 0.0000000e+00 
0.0000000e+00 0.0000000e+00 0.0000000e+00 
0.0000000e+00 0.0000000e+00 0.0000000e+00 
0.0000000e+00 0.0000000e+00 0.0000000e+00 
0.0000000e+00 0.0000000e+00 0.0000000e+00 
0.0000000e+00 0.0000000e+00 0.0000000e+00 
0.0000000e+00 0.0000000e+00 0.0000000e+00 
0.0000000e+00 0.0000000e+00 0.0000000e+00 
0.0000000e+00 0.0000000e+00 0.0000000e+00 
0.0000000e+00 0.0000000e+00 0.0000000e+00 
0.0000000e+00 0.0000000e+00 0.0000000e+00 
0.0000000e+00 0.0000000e+00 0.0000000e+00 
0.0000000e+00 0.0000000e+00 0.0000000e+00 
0.0000000e+00 0.0000000e+00 0.0000000e+00 
0.0000000e+00 0.0000000e+00 0.0000000e+00 
0.0000000e+00 0.0000000e+00 0.0000000e+00 
0.0000000e+00 0.0000000e+00 0.0000000e+00 
0.0000000e+00 0.0000000e+00 0.0000000e+00 
0.0000000e+00 0.0000000e+00 0.0000000e+00 
0.0000000e+00 0.0000000e+00 0.0000000e+00 
0.0000000e+00 0.0000000e+00 0.0000000e+00 
0.0000000e+00 0.0000000e+00 0.0000000e+00 
0.0000000e+00 0.0000000e+00 0.0000000e+00 
0.0000000e+00 0.0000000e+00 0.0000000e+00 
0.0000000e+00 0.0000000e+00 0.0000000e+00 
0.0000000e+00 0.0000000e+00 0.0000000e+00 
0.0000000e+00 0.0000000e+00 0.0000000e+00 
0.0000000e+00 0.0000000e+00 0.0000000e+00 
0.0000000e+00 0.0000000e+00 0.0000000e+00 
0.0000000e+00 0.0000000e+00 0.0000000e+00 
0.0000000e+00 0.0000000e+00 0.0000000e+00 
0.0000000e+00 0.0000000e+00 0.0000000e+00 
0.0000000e+00 0.0000000e+00 0.0000000e+00 
0.0000000e+00 0.0000000e+00 0.0000000e+00 
0.0000000e+00 0.0000000e+00 0.0000000e+00 
0.0000000e+00 0.0000000e+00 0.0000000e+00 
0.0000000e+00 0.0000000e+00 0.0000000e+00 
0.0000000e+00 0.0000000e+00 0.0000000e+00 
0.0000000e+00 0.0000000e+00 0.0000000e+00 
0.0000000e+00 0.0000000e+00 0.0000000e+00 
0.0000000e+00 0.0000000e+00 0.0000000e+00 
0.0000000e+00 0.0000000e+00 0.0000000e+00 
0.0000000e+00 0.0000000e+00 0.0000000e+00 
0.0000000e+00 0.0000000e+00 0.0000000e+00 
0.0000000e+00 0.0000000e+00 0.0000000e+00 
0.0000000e+00 0.0000000e+00 0.0000000e+00 
0.0000000e+00 0.0000000e+00 0.0000000e+00 
0.0000000e+00 0.0000000e+00 0.0000000e+00 
0.0000000e+00 0.0000000e+00 0.0000000e+00 
0.0000000e+00 0.0000000e+00 0.0000000e+00 
0.0000000e+00 0.0000000e+00 0.0000000e+00 
0.0000000e+00 0.0000000e+00 0.0000000e+00 
0.0000000e+00 0.0000000e+00 0.0000000e+00 