# vtk DataFile Version 4.0
vtk output
ASCII
DATASET UNSTRUCTURED_GRID
POINTS 395 float
0.0000000e+00 0.0000000e+00 0.0000000e+00 
5.0000000e+00 0.0000000e+00 0.0000000e+00 
5.0000000e+00 3.0000000e+00 0.0000000e+00 
0.0000000e+00 3.0000000e+00 0.0000000e+00 
0.0000000e+00 0.0000000e+00 1.0000000e+01 
5.0000000e+00 0.0000000e+00 1.0000000e+01 
5.0000000e+00 3.0000000e+00 1.0000000e+01 
0.0000000e+00 3.0000000e+00 1.0000000e+01 
1.0000000e+00 3.0000000e+00 5.0000000e-01 
1.0000000e+00 3.0000000e+00 1.0000000e+00 
1.0000000e+00 3.0000000e+00 1.5000000e+00 
1.0000000e+00 3.0000000e+00 2.0000000e+00 
1.0000000e+00 3.0000000e+00 2.5000000e+00 
1.0000000e+00 3.0000000e+00 3.0000000e+00 
1.0000000e+00 3.0000000e+00 3.5000000e+00 
1.0000000e+00 3.0000000e+00 4.0000000e+00 
1.0000000e+00 3.0000000e+00 4.5000000e+00 
1.0000000e+00 3.0000000e+00 5.0000000e+00 
1.0000000e+00 3.0000000e+00 5.5000000e+00 
1.0000000e+00 3.0000000e+00 6.0000000e+00 
1.0000000e+00 3.0000000e+00 6.5000000e+00 
1.0000000e+00 3.0000000e+00 7.0000000e+00 
1.0000000e+00 3.0000000e+00 7.5000000e+00 
1.0000000e+00 3.0000000e+00 8.0000000e+00 
1.0000000e+00 3.0000000e+00 8.5000000e+00 
1.0000000e+00 3.0000000e+00 9.0000000e+00 
1.0000000e+00 3.0000000e+00 9.5000000e+00 
1.0000000e+00 3.0000000e+00 0.0000000e+00 
1.0000000e+00 3.0000000e+00 1.0000000e+01 
1.0000000e+00 3.0250001e+00 0.0000000e+00 
1.0000000e+00 3.0250001e+00 5.0000000e-01 
1.0000000e+00 3.0250001e+00 1.0000000e+00 
1.0000000e+00 3.0250001e+00 1.5000000e+00 
1.0000000e+00 3.0250001e+00 2.0000000e+00 
1.0000000e+00 3.0250001e+00 2.5000000e+00 
1.0000000e+00 3.0250001e+00 3.0000000e+00 
1.0000000e+00 3.0250001e+00 3.5000000e+00 
1.0000000e+00 3.0250001e+00 4.0000000e+00 
1.0000000e+00 3.0250001e+00 4.5000000e+00 
1.0000000e+00 3.0250001e+00 5.0000000e+00 
1.0000000e+00 3.0250001e+00 5.5000000e+00 
1.0000000e+00 3.0250001e+00 6.0000000e+00 
1.0000000e+00 3.0250001e+00 6.5000000e+00 
1.0000000e+00 3.0250001e+00 7.0000000e+00 
1.0000000e+00 3.0250001e+00 7.5000000e+00 
1.0000000e+00 3.0250001e+00 8.0000000e+00 
1.0000000e+00 3.0250001e+00 8.5000000e+00 
1.0000000e+00 3.0250001e+00 9.0000000e+00 
1.0000000e+00 3.0250001e+00 9.5000000e+00 
1.0000000e+00 3.0250001e+00 1.0000000e+01 
1.0000000e+00 0.0000000e+00 0.0000000e+00 
2.0000000e+00 0.0000000e+00 0.0000000e+00 
3.0000000e+00 0.0000000e+00 0.0000000e+00 
4.0000000e+00 0.0000000e+00 0.0000000e+00 
5.0000000e+00 1.0000000e+00 0.0000000e+00 
5.0000000e+00 2.0000000e+00 0.0000000e+00 
0.0000000e+00 2.0000000e+00 0.0000000e+00 
0.0000000e+00 1.0000000e+00 0.0000000e+00 
0.0000000e+00 0.0000000e+00 1.0000000e+00 
0.0000000e+00 0.0000000e+00 2.0000000e+00 
0.0000000e+00 0.0000000e+00 3.0000000e+00 
0.0000000e+00 0.0000000e+00 4.0000000e+00 
0.0000000e+00 0.0000000e+00 5.0000000e+00 
0.0000000e+00 0.0000000e+00 6.0000000e+00 
0.0000000e+00 0.0000000e+00 7.0000000e+00 
0.0000000e+00 0.0000000e+00 8.0000000e+00 
0.0000000e+00 0.0000000e+00 9.0000000e+00 
5.0000000e+00 0.0000000e+00 1.0000000e+00 
5.0000000e+00 0.0000000e+00 2.0000000e+00 
5.0000000e+00 0.0000000e+00 3.0000000e+00 
5.0000000e+00 0.0000000e+00 4.0000000e+00 
5.0000000e+00 0.0000000e+00 5.0000000e+00 
5.0000000e+00 0.0000000e+00 6.0000000e+00 
5.0000000e+00 0.0000000e+00 7.0000000e+00 
5.0000000e+00 0.0000000e+00 8.0000000e+00 
5.0000000e+00 0.0000000e+00 9.0000000e+00 
1.0000000e+00 0.0000000e+00 1.0000000e+01 
2.0000000e+00 0.0000000e+00 1.0000000e+01 
3.0000000e+00 0.0000000e+00 1.0000000e+01 
4.0000000e+00 0.0000000e+00 1.0000000e+01 
5.0000000e+00 3.0000000e+00 1.0000000e+00 
5.0000000e+00 3.0000000e+00 2.0000000e+00 
5.0000000e+00 3.0000000e+00 3.0000000e+00 
5.0000000e+00 3.0000000e+00 4.0000000e+00 
5.0000000e+00 3.0000000e+00 5.0000000e+00 
5.0000000e+00 3.0000000e+00 6.0000000e+00 
5.0000000e+00 3.0000000e+00 7.0000000e+00 
5.0000000e+00 3.0000000e+00 8.0000000e+00 
5.0000000e+00 3.0000000e+00 9.0000000e+00 
5.0000000e+00 1.0000000e+00 1.0000000e+01 
5.0000000e+00 2.0000000e+00 1.0000000e+01 
0.0000000e+00 3.0000000e+00 1.0000000e+00 
0.0000000e+00 3.0000000e+00 2.0000000e+00 
0.0000000e+00 3.0000000e+00 3.0000000e+00 
0.0000000e+00 3.0000000e+00 4.0000000e+00 
0.0000000e+00 3.0000000e+00 5.0000000e+00 
0.0000000e+00 3.0000000e+00 6.0000000e+00 
0.0000000e+00 3.0000000e+00 7.0000000e+00 
0.0000000e+00 3.0000000e+00 8.0000000e+00 
0.0000000e+00 3.0000000e+00 9.0000000e+00 
0.0000000e+00 2.0000000e+00 1.0000000e+01 
0.0000000e+00 1.0000000e+00 1.0000000e+01 
4.0000000e+00 3.0000000e+00 0.0000000e+00 
3.0000000e+00 3.0000000e+00 0.0000000e+00 
2.0000000e+00 3.0000000e+00 0.0000000e+00 
4.0000000e+00 3.0000000e+00 1.0000000e+01 
3.0000000e+00 3.0000000e+00 1.0000000e+01 
2.0000000e+00 3.0000000e+00 1.0000000e+01 
1.5046000e+00 2.2345026e+00 0.0000000e+00 
4.0618000e+00 1.5000000e+00 0.0000000e+00 
2.5000000e+00 8.6602539e-01 0.0000000e+00 
2.4957771e+00 2.1843948e+00 0.0000000e+00 
1.5046000e+00 7.6549745e-01 0.0000000e+00 
3.4700506e+00 2.2420573e+00 0.0000000e+00 
3.4707544e+00 7.6634604e-01 0.0000000e+00 
8.6322361e-01 1.5000000e+00 0.0000000e+00 
2.0000000e+00 1.5000000e+00 0.0000000e+00 
2.9960666e+00 1.5025520e+00 0.0000000e+00 
4.2679491e+00 7.3205084e-01 0.0000000e+00 
4.2679491e+00 2.2679491e+00 0.0000000e+00 
7.2695929e-01 2.2730408e+00 0.0000000e+00 
7.2695929e-01 7.2695929e-01 0.0000000e+00 
4.1822505e+00 0.0000000e+00 2.5515697e+00 
4.2017918e+00 0.0000000e+00 4.4725966e+00 
4.1114569e+00 0.0000000e+00 6.5092020e+00 
8.6602539e-01 0.0000000e+00 3.5000000e+00 
8.4778279e-01 0.0000000e+00 5.4684029e+00 
8.9629614e-01 0.0000000e+00 7.5867257e+00 
2.5566745e+00 0.0000000e+00 8.1853306e-01 
2.4918270e+00 0.0000000e+00 9.1386929e+00 
8.4677207e-01 0.0000000e+00 1.5042374e+00 
4.0943027e+00 0.0000000e+00 8.4081745e+00 
8.6281651e-01 0.0000000e+00 2.5007062e+00 
1.7315160e+00 0.0000000e+00 3.0001178e+00 
1.7319617e+00 0.0000000e+00 4.0000196e+00 
2.5980761e+00 0.0000000e+00 3.5000000e+00 
2.5536871e+00 0.0000000e+00 4.4963923e+00 
2.5928419e+00 0.0000000e+00 2.4239938e+00 
1.5037409e+00 0.0000000e+00 9.1535149e+00 
1.8433737e+00 0.0000000e+00 8.1858873e+00 
3.0000000e+00 0.0000000e+00 8.2679491e+00 
2.5000000e+00 0.0000000e+00 7.4019237e+00 
3.5042722e+00 0.0000000e+00 7.4271150e+00 
3.0310018e+00 0.0000000e+00 6.5282087e+00 
2.0373929e+00 0.0000000e+00 6.5307913e+00 
3.4767809e+00 0.0000000e+00 5.8031492e+00 
2.5452602e+00 0.0000000e+00 5.5720768e+00 
1.6456656e+00 0.0000000e+00 1.9697139e+00 
8.6297011e-01 0.0000000e+00 4.4947371e+00 
1.0111579e+00 0.0000000e+00 6.5282545e+00 
3.4994321e+00 0.0000000e+00 8.4691072e-01 
4.1860156e+00 0.0000000e+00 3.5040276e+00 
1.7320508e+00 0.0000000e+00 5.0000000e+00 
4.0544066e+00 0.0000000e+00 1.5781221e+00 
1.5817389e+00 0.0000000e+00 9.3943578e-01 
8.3166349e-01 0.0000000e+00 8.5090933e+00 
3.4686174e+00 0.0000000e+00 9.1752682e+00 
3.0709300e+00 0.0000000e+00 1.5799091e+00 
3.3927374e+00 0.0000000e+00 3.0399952e+00 
3.3826034e+00 0.0000000e+00 3.9747651e+00 
4.3420062e+00 0.0000000e+00 7.4688983e+00 
3.4023225e+00 0.0000000e+00 4.9314723e+00 
1.6740381e+00 0.0000000e+00 7.3014426e+00 
4.2715640e+00 0.0000000e+00 5.4758859e+00 
1.6225953e+00 0.0000000e+00 5.8104177e+00 
4.2679491e+00 0.0000000e+00 9.2679491e+00 
7.3205084e-01 0.0000000e+00 7.3205084e-01 
4.2679491e+00 0.0000000e+00 7.3205084e-01 
7.3205084e-01 0.0000000e+00 9.2679491e+00 
3.4586334e+00 0.0000000e+00 2.2347178e+00 
2.2895701e+00 0.0000000e+00 1.5463171e+00 
5.0000000e+00 2.2345026e+00 1.5046000e+00 
5.0000000e+00 1.5000000e+00 9.0618000e+00 
5.0000000e+00 2.1339746e+00 3.5000000e+00 
5.0000000e+00 2.1339746e+00 5.5000000e+00 
5.0000000e+00 2.1339746e+00 7.5000000e+00 
5.0000000e+00 8.6602539e-01 2.5000000e+00 
5.0000000e+00 8.6602539e-01 4.5000000e+00 
5.0000000e+00 8.6602539e-01 6.5000000e+00 
5.0000000e+00 8.6602539e-01 3.5000000e+00 
5.0000000e+00 8.6602539e-01 5.5000000e+00 
5.0000000e+00 2.1584709e+00 2.5001996e+00 
5.0000000e+00 2.1339746e+00 4.5000000e+00 
5.0000000e+00 2.1339746e+00 6.5000000e+00 
5.0000000e+00 8.6602539e-01 7.5000000e+00 
5.0000000e+00 7.6549745e-01 1.5046000e+00 
5.0000000e+00 7.6634604e-01 8.4707546e+00 
5.0000000e+00 2.2336540e+00 8.4707546e+00 
5.0000000e+00 1.5000000e+00 8.6322361e-01 
5.0000000e+00 1.5000000e+00 5.0000000e+00 
5.0000000e+00 1.5000000e+00 7.0000000e+00 
5.0000000e+00 1.5000000e+00 2.0000000e+00 
5.0000000e+00 1.5000000e+00 6.0000000e+00 
5.0000000e+00 1.5000000e+00 4.0000000e+00 
5.0000000e+00 1.5000000e+00 3.0000000e+00 
5.0000000e+00 1.5000000e+00 7.9977231e+00 
5.0000000e+00 2.2679491e+00 9.2679491e+00 
5.0000000e+00 7.3205084e-01 9.2679491e+00 
5.0000000e+00 2.2730408e+00 7.2695929e-01 
5.0000000e+00 7.2695929e-01 7.2695929e-01 
0.0000000e+00 7.6549745e-01 1.5046000e+00 
0.0000000e+00 1.5000000e+00 9.0618000e+00 
0.0000000e+00 7.6689392e-01 3.5202229e+00 
0.0000000e+00 8.4174728e-01 6.5073700e+00 
0.0000000e+00 2.1339746e+00 2.5000000e+00 
0.0000000e+00 2.1503205e+00 4.5283122e+00 
0.0000000e+00 2.1339746e+00 7.5000000e+00 
0.0000000e+00 7.5539857e-01 2.5041373e+00 
0.0000000e+00 2.1917200e+00 3.5330307e+00 
0.0000000e+00 2.1758037e+00 5.5047188e+00 
0.0000000e+00 1.4323456e+00 5.0621295e+00 
0.0000000e+00 2.1560361e+00 6.5002046e+00 
0.0000000e+00 8.3464229e-01 7.4971519e+00 
0.0000000e+00 2.2345026e+00 1.5046000e+00 
0.0000000e+00 2.2336540e+00 8.4707546e+00 
0.0000000e+00 7.6111549e-01 8.4702797e+00 
0.0000000e+00 1.5000000e+00 8.6322361e-01 
0.0000000e+00 1.4454463e+00 4.0239491e+00 
0.0000000e+00 7.3467791e-01 5.5115833e+00 
0.0000000e+00 1.5000000e+00 2.0000000e+00 
0.0000000e+00 1.4948297e+00 6.9999175e+00 
0.0000000e+00 1.4754088e+00 3.0096834e+00 
0.0000000e+00 1.5025774e+00 6.0000000e+00 
0.0000000e+00 7.2989392e-01 4.5196476e+00 
0.0000000e+00 1.4981872e+00 7.9961324e+00 
0.0000000e+00 7.3205084e-01 9.2679491e+00 
0.0000000e+00 2.2679491e+00 9.2679491e+00 
0.0000000e+00 2.2730408e+00 7.2695929e-01 
0.0000000e+00 7.2695929e-01 7.2695929e-01 
1.5046000e+00 7.6549745e-01 1.0000000e+01 
[...]
POINT_DATA 395
FIELD FieldData 2
DISPLACEMENT 3 395  float
0.0000000e+00 0.0000000e+00 0.0000000e+00 
0.0000000e+00 0.0000000e+00 0.0000000e+00 
0.0000000e+00 3.5518661e-07 0.0000000e+00 
0.0000000e+00 -9.1447197e-07 0.0000000e+00 
0.0000000e+00 0.0000000e+00 0.0000000e+00 
0.0000000e+00 0.0000000e+00 0.0000000e+00 
0.0000000e+00 3.7145634e-07 0.0000000e+00 
0.0000000e+00 -5.2331472e-07 0.0000000e+00 
-2.4292797e-07 -3.9589725e-08 1.1498568e-06 
-6.8105550e-07 -4.7241690e-07 2.6732955e-06 
-1.0121929e-06 -1.9352033e-06 4.1401722e-06 
-2.2323286e-06 -6.2833756e-06 6.9874100e-06 
-2.8162563e-06 -1.7458178e-05 7.4681161e-06 
-6.4196424e-06 -4.2047213e-05 1.2770747e-05 
-7.5205912e-06 -8.7917040e-05 1.4996301e-05 
-5.6136955e-06 -1.5643954e-04 1.8937857e-05 
1.9493098e-06 -2.2222217e-04 3.6816498e-06 
-1.7972111e-07 -2.3566240e-04 -6.5956378e-06 
-2.1960955e-06 -1.7981447e-04 -1.9520152e-05 
-4.2061242e-06 -1.0581936e-04 -1.6142298e-05 
-2.8254528e-06 -5.1852669e-05 -1.5263446e-05 
-2.4607912e-06 -2.1366301e-05 -8.7398739e-06 
-2.8757122e-06 -8.0048339e-06 -7.6451242e-06 
-1.1148318e-06 -2.7889280e-06 -4.2565393e-06 
-4.8635070e-07 -1.1520498e-06 -2.9409407e-06 
-4.1151094e-07 -4.9744330e-07 -1.6392556e-06 
-1.6739696e-07 -1.8103871e-07 -6.3517973e-07 
0.0000000e+00 9.4290691e-08 0.0000000e+00 
0.0000000e+00 6.3287442e-09 0.0000000e+00 
0.0000000e+00 1.0106001e-07 0.0000000e+00 
0.0000000e+00 -3.1695393e-08 0.0000000e+00 
0.0000000e+00 -4.4615706e-07 0.0000000e+00 
0.0000000e+00 -1.8776367e-06 0.0000000e+00 
0.0000000e+00 -6.1956971e-06 0.0000000e+00 
0.0000000e+00 -1.7354394e-05 0.0000000e+00 
0.0000000e+00 -4.2094849e-05 0.0000000e+00 
0.0000000e+00 -8.8469911e-05 0.0000000e+00 
0.0000000e+00 -1.5752799e-04 0.0000000e+00 
0.0000000e+00 -2.2568791e-04 0.0000000e+00 
0.0000000e+00 -2.4067164e-04 0.0000000e+00 
0.0000000e+00 -1.8191592e-04 0.0000000e+00 
0.0000000e+00 -1.0707245e-04 0.0000000e+00 
0.0000000e+00 -5.2211879e-05 0.0000000e+00 
0.0000000e+00 -2.1460231e-05 0.0000000e+00 
0.0000000e+00 -7.8225221e-06 0.0000000e+00 
0.0000000e+00 -2.7136557e-06 0.0000000e+00 
0.0000000e+00 -1.0802704e-06 0.0000000e+00 
0.0000000e+00 -4.8320845e-07 0.0000000e+00 
0.0000000e+00 -1.7941431e-07 0.0000000e+00 
0.0000000e+00 1.0321077e-08 0.0000000e+00 
0.0000000e+00 0.0000000e+00 0.0000000e+00 
0.0000000e+00 0.0000000e+00 0.0000000e+00 
0.0000000e+00 0.0000000e+00 0.0000000e+00 
0.0000000e+00 0.0000000e+00 0.0000000e+00 
0.0000000e+00 1.0461316e-07 0.0000000e+00 
0.0000000e+00 3.0650273e-07 0.0000000e+00 
0.0000000e+00 -9.2260495e-07 0.0000000e+00 
0.0000000e+00 -7.4400458e-07 0.0000000e+00 
0.0000000e+00 0.0000000e+00 0.0000000e+00 
0.0000000e+00 0.0000000e+00 0.0000000e+00 
0.0000000e+00 0.0000000e+00 0.0000000e+00 
0.0000000e+00 0.0000000e+00 0.0000000e+00 
0.0000000e+00 0.0000000e+00 0.0000000e+00 
0.0000000e+00 0.0000000e+00 0.0000000e+00 
0.0000000e+00 0.0000000e+00 0.0000000e+00 
0.0000000e+00 0.0000000e+00 0.0000000e+00 
0.0000000e+00 0.0000000e+00 0.0000000e+00 
0.0000000e+00 0.0000000e+00 0.0000000e+00 
0.0000000e+00 0.0000000e+00 0.0000000e+00 
0.0000000e+00 0.0000000e+00 0.0000000e+00 
0.0000000e+00 0.0000000e+00 0.0000000e+00 
0.0000000e+00 0.0000000e+00 0.0000000e+00 
0.0000000e+00 0.0000000e+00 0.0000000e+00 
0.0000000e+00 0.0000000e+00 0.0000000e+00 
0.0000000e+00 0.0000000e+00 0.0000000e+00 
0.0000000e+00 0.0000000e+00 0.0000000e+00 
0.0000000e+00 0.0000000e+00 0.0000000e+00 
0.0000000e+00 0.0000000e+00 0.0000000e+00 
0.0000000e+00 0.0000000e+00 0.0000000e+00 
0.0000000e+00 0.0000000e+00 0.0000000e+00 
0.0000000e+00 2.3839566e-07 0.0000000e+00 
0.0000000e+00 1.9987593e-07 0.0000000e+00 
0.0000000e+00 1.2064195e-08 0.0000000e+00 
0.0000000e+00 -1.5681934e-06 0.0000000e+00 
0.0000000e+00 -1.7064593e-06 0.0000000e+00 
0.0000000e+00 -1.1903110e-06 0.0000000e+00 
0.0000000e+00 -8.1342029e-07 0.0000000e+00 
0.0000000e+00 1.3463168e-07 0.0000000e+00 
0.0000000e+00 1.7252691e-07 0.0000000e+00 
0.0000000e+00 1.1121148e-07 0.0000000e+00 
0.0000000e+00 3.0435945e-07 0.0000000e+00 
0.0000000e+00 -2.3775910e-06 0.0000000e+00 
0.0000000e+00 -1.1761886e-05 0.0000000e+00 
0.0000000e+00 -3.6664940e-05 0.0000000e+00 
0.0000000e+00 -8.5367195e-05 0.0000000e+00 
0.0000000e+00 -1.0165353e-04 0.0000000e+00 
0.0000000e+00 -6.0657876e-05 0.0000000e+00 
0.0000000e+00 -2.2331409e-05 0.0000000e+00 
0.0000000e+00 -6.1221485e-06 0.0000000e+00 
0.0000000e+00 -1.3278319e-06 0.0000000e+00 
0.0000000e+00 -5.3404057e-07 0.0000000e+00 
0.0000000e+00 -3.3246798e-07 0.0000000e+00 
0.0000000e+00 2.1324506e-07 0.0000000e+00 
0.0000000e+00 3.2603474e-08 0.0000000e+00 
0.0000000e+00 -2.2400185e-07 0.0000000e+00 
0.0000000e+00 2.5359893e-07 0.0000000e+00 
0.0000000e+00 3.2411472e-07 0.0000000e+00 
0.0000000e+00 -6.0952088e-10 0.0000000e+00 
0.0000000e+00 2.2505964e-07 0.0000000e+00 
0.0000000e+00 2.6287998e-07 0.0000000e+00 
0.0000000e+00 -1.4013800e-07 0.0000000e+00 
0.0000000e+00 3.3537390e-07 0.0000000e+00 
0.0000000e+00 -2.3487901e-07 0.0000000e+00 
0.0000000e+00 4.9900251e-07 0.0000000e+00 
0.0000000e+00 -7.6514377e-09 0.0000000e+00 
0.0000000e+00 -1.6300208e-07 0.0000000e+00 
0.0000000e+00 3.2681172e-07 0.0000000e+00 
0.0000000e+00 2.8946980e-07 0.0000000e+00 
0.0000000e+00 4.0158568e-08 0.0000000e+00 
0.0000000e+00 4.2533358e-07 0.0000000e+00 
0.0000000e+00 -1.4682256e-07 0.0000000e+00 
0.0000000e+00 -2.2554968e-07 0.0000000e+00 
0.0000000e+00 0.0000000e+00 0.0000000e+00 
0.0000000e+00 0.0000000e+00 0.0000000e+00 
0.0000000e+00 0.0000000e+00 0.0000000e+00 
0.0000000e+00 0.0000000e+00 0.0000000e+00 
0.0000000e+00 0.0000000e+00 0.0000000e+00 
0.0000000e+00 0.0000000e+00 0.0000000e+00 
0.0000000e+00 0.0000000e+00 0.0000000e+00 
0.0000000e+00 0.0000000e+00 0.0000000e+00 
0.0000000e+00 0.0000000e+00 0.0000000e+00 
0.0000000e+00 0.0000000e+00 0.0000000e+00 
0.0000000e+00 0.0000000e+00 0.0000000e+00 
0.0000000e+00 0.0000000e+00 0.0000000e+00 
0.0000000e+00 0.0000000e+00 0.0000000e+00 
0.0000000e+00 0.0000000e+00 0.0000000e+00 
0.0000000e+00 0.0000000e+00 0.0000000e+00 
0.0000000e+00 0.0000000e+00 0.0000000e+00 
0.0000000e+00 0.0000000e+00 0.0000000e+00 
0.0000000e+00 0.0000000e+00 0.0000000e+00 
0.0000000e+00 0.0000000e+00 0.0000000e+00 
0.0000000e+00 0.0000000e+00 0.0000000e+00 
0.0000000e+00 0.0000000e+00 0.0000000e+00 
0.0000000e+00 0.0000000e+00 0.0000000e+00 
0.0000000e+00 0.0000000e+00 0.0000000e+00 
0.0000000e+00 0.0000000e+00 0.0000000e+00 
0.0000000e+00 0.0000000e+00 0.0000000e+00 
0.0000000e+00 0.0000000e+00 0.0000000e+00 
0.0000000e+00 0.0000000e+00 0.0000000e+00 
0.0000000e+00 0.0000000e+00 0.0000000e+00 
0.0000000e+00 0.0000000e+00 0.0000000e+00 
0.0000000e+00 0.0000000e+00 0.0000000e+00 
0.0000000e+00 0.0000000e+00 0.0000000e+00 
0.0000000e+00 0.0000000e+00 0.0000000e+00 
0.0000000e+00 0.0000000e+00 0.0000000e+00 
0.0000000e+00 0.0000000e+00 0.0000000e+00 
0.0000000e+00 0.0000000e+00 0.0000000e+00 
0.0000000e+00 0.0000000e+00 0.0000000e+00 
0.0000000e+00 0.0000000e+00 0.0000000e+00 
0.0000000e+00 0.0000000e+00 0.0000000e+00 
0.0000000e+00 0.0000000e+00 0.0000000e+00 
0.0000000e+00 0.0000000e+00 0.0000000e+00 
0.0000000e+00 0.0000000e+00 0.0000000e+00 
0.0000000e+00 0.0000000e+00 0.0000000e+00 
0.0000000e+00 0.0000000e+00 0.0000000e+00 
0.0000000e+00 0.0000000e+00 0.0000000e+00 
0.0000000e+00 0.0000000e+00 0.0000000e+00 
0.0000000e+00 0.0000000e+00 0.0000000e+00 
0.0000000e+00 0.0000000e+00 0.0000000e+00 
0.0000000e+00 0.0000000e+00 0.0000000e+00 
0.0000000e+00 0.0000000e+00 0.0000000e+00 
0.0000000e+00 2.9269711e-07 0.0000000e+00 
0.0000000e+00 1.5749239e-07 0.0000000e+00 
0.0000000e+00 1.5144810e-08 0.0000000e+00 
0.0000000e+00 -5.9059056e-07 0.0000000e+00 
0.0000000e+00 1.9061680e-07 0.0000000e+00 
0.0000000e+00 -2.5608480e-07 0.0000000e+00 
0.0000000e+00 -7.9479634e-07 0.0000000e+00 
0.0000000e+00 -6.0673591e-07 0.0000000e+00 
0.0000000e+00 -9.7082022e-07 0.0000000e+00 
0.0000000e+00 -9.7136945e-07 0.0000000e+00 
0.0000000e+00 1.2727713e-07 0.0000000e+00 
0.0000000e+00 -5.8690227e-07 0.0000000e+00 
0.0000000e+00 -4.0325719e-07 0.0000000e+00 
0.0000000e+00 -3.4853568e-07 0.0000000e+00 
0.0000000e+00 -8.1559420e-10 0.0000000e+00 
0.0000000e+00 -2.2804148e-08 0.0000000e+00 
0.0000000e+00 1.4045359e-07 0.0000000e+00 
0.0000000e+00 2.1898794e-07 0.0000000e+00 
0.0000000e+00 -8.4361244e-07 0.0000000e+00 
0.0000000e+00 -3.9958155e-07 0.0000000e+00 
0.0000000e+00 1.1324481e-07 0.0000000e+00 
0.0000000e+00 -7.7901524e-07 0.0000000e+00 
0.0000000e+00 -9.3994919e-07 0.0000000e+00 
0.0000000e+00 -3.7416706e-07 0.0000000e+00 
0.0000000e+00 -3.7264405e-09 0.0000000e+00 
0.0000000e+00 3.3669585e-07 0.0000000e+00 
0.0000000e+00 3.3674734e-08 0.0000000e+00 
0.0000000e+00 3.5789117e-07 0.0000000e+00 
0.0000000e+00 2.7123642e-08 0.0000000e+00 
0.0000000e+00 -3.2429252e-06 0.0000000e+00 
0.0000000e+00 -1.1933880e-06 0.0000000e+00 
0.0000000e+00 -1.8179175e-05 0.0000000e+00 
0.0000000e+00 -1.5717249e-05 0.0000000e+00 
0.0000000e+00 -2.0818894e-05 0.0000000e+00 
0.0000000e+00 -8.1822393e-05 0.0000000e+00 
0.0000000e+00 -1.0921272e-05 0.0000000e+00 
0.0000000e+00 -6.8891477e-06 0.0000000e+00 
0.0000000e+00 -4.7746456e-05 0.0000000e+00 
0.0000000e+00 -7.3255651e-05 0.0000000e+00 
0.0000000e+00 -5.0935407e-05 0.0000000e+00 
0.0000000e+00 -3.3295284e-05 0.0000000e+00 
0.0000000e+00 -5.9105369e-06 0.0000000e+00 
0.0000000e+00 -5.7324746e-06 0.0000000e+00 
0.0000000e+00 -3.2991538e-06 0.0000000e+00 
0.0000000e+00 -1.3534434e-06 0.0000000e+00 
0.0000000e+00 -2.0332316e-06 0.0000000e+00 
0.0000000e+00 -4.5549998e-05 0.0000000e+00 
0.0000000e+00 -2.1091688e-05 0.0000000e+00 
0.0000000e+00 -9.4097013e-06 0.0000000e+00 
0.0000000e+00 -1.5808837e-05 0.0000000e+00 
0.0000000e+00 -2.3820136e-05 0.0000000e+00 
0.0000000e+00 -3.8303511e-05 0.0000000e+00 
0.0000000e+00 -2.3818204e-05 0.0000000e+00 
0.0000000e+00 -5.2439491e-06 0.0000000e+00 
0.0000000e+00 -6.3419702e-07 0.0000000e+00 
0.0000000e+00 -9.8840849e-07 0.0000000e+00 
0.0000000e+00 -1.8421947e-06 0.0000000e+00 
0.0000000e+00 -9.5951964e-07 0.0000000e+00 
0.0000000e+00 -1.6821360e-07 0.0000000e+00 
0.0000000e+00 2.2036784e-07 0.0000000e+00 
0.0000000e+00 4.1477321e-07 0.0000000e+00 
0.0000000e+00 3.7892642e-07 0.0000000e+00 
0.0000000e+00 -1.4948930e-07 0.0000000e+00 
0.0000000e+00 3.2760880e-07 0.0000000e+00 
0.0000000e+00 3.9742414e-08 0.0000000e+00 
0.0000000e+00 -1.0134818e-07 0.0000000e+00 
0.0000000e+00 1.5046516e-07 0.0000000e+00 
0.0000000e+00 1.7998519e-07 0.0000000e+00 
0.0000000e+00 6.2493747e-08 0.0000000e+00 
0.0000000e+00 4.1752335e-07 0.0000000e+00 
0.0000000e+00 -6.3637458e-08 0.0000000e+00 
0.0000000e+00 -4.0820851e-08 0.0000000e+00 
-5.1031025e-06 -2.6032591e-05 -1.0306437e-05 
-3.1238301e-06 -1.1377456e-05 6.6424977e-06 
-1.3585199e-05 -6.9320558e-05 1.1509714e-05 
-3.2516868e-06 -1.1960574e-04 -7.3599135e-06 
-1.2154028e-06 -2.9880371e-06 -4.2680258e-06 
-3.1659888e-06 -2.9582545e-06 2.9827541e-07 
-1.1131226e-06 -6.4498289e-07 -1.0845799e-06 
-1.7007911e-06 -9.0953830e-07 8.5297904e-07 
-9.7499776e-07 -1.9765614e-06 3.3940585e-06 
-3.9444464e-07 -4.5647724e-08 -1.0537677e-06 
-6.4396068e-07 4.9378013e-08 8.3491062e-07 
-3.0111886e-07 -8.8197531e-08 -9.6476413e-07 
-2.9100847e-06 -2.1247392e-06 6.3036327e-07 
-3.7190139e-06 -4.2079409e-06 2.5857696e-06 
-2.8872128e-06 -2.2722404e-06 2.4160456e-06 
-4.5521379e-06 -7.5646753e-06 4.3181885e-06 
-8.8117731e-06 -1.4807147e-05 5.2017931e-06 
-1.9482202e-06 -3.3388540e-06 3.2708128e-06 
-8.2403640e-06 -2.1918180e-05 7.0023880e-06 
-4.9533664e-06 -7.4956588e-06 1.6019521e-06 
-6.9385842e-06 -1.0371769e-05 8.2005562e-07 
-9.8049495e-06 -2.1966131e-05 1.4095466e-06 
-1.1043721e-05 -2.4603378e-05 -7.8720689e-07 
-7.6114738e-06 -1.2072985e-05 -2.3254645e-06 
-9.6647182e-06 -2.5832023e-05 -4.7449848e-06 
-5.4290049e-06 -1.0732782e-05 -4.2726710e-06 
-4.8195370e-06 -4.9500754e-06 -2.5134752e-06 
-1.8265091e-05 -5.1672723e-05 2.5563284e-06 
-7.2994021e-06 -1.9517820e-05 -5.0397944e-06 
-4.5821366e-06 -7.8293324e-06 -3.7910245e-06 
-9.0086342e-06 -5.1283710e-05 -8.7185663e-06 
-7.9968135e-07 -2.2931536e-07 1.3559339e-06 
-1.1626201e-05 -2.7961150e-05 5.1939364e-06 
-2.6436753e-06 -3.3144199e-06 -6.7351550e-07 
-4.3555318e-07 1.1735537e-07 -6.0776716e-07 
-1.2495267e-06 -5.3079293e-07 -1.8922777e-06 
-1.0939752e-06 -1.5759676e-06 -2.1081416e-06 
-2.2391298e-06 -3.9397596e-06 -2.8923967e-06 
-4.4566673e-07 3.5016011e-08 -5.8039399e-07 
-8.9821179e-07 2.3823809e-08 7.3422751e-07 
-4.2814504e-06 -1.0294352e-05 6.8562185e-06 
-1.6980423e-06 -4.4036592e-06 4.3963155e-06 
-5.6401973e-06 -1.2849292e-05 -6.7335750e-06 
-2.5195361e-06 -6.0238467e-06 -4.8339107e-06 
-2.7878700e-06 -3.2223145e-06 -3.2330263e-06 
-5.0465233e-06 -2.3426062e-05 9.6775093e-06 
-1.5270214e-05 -1.0168266e-04 1.2021560e-05 
-3.2890137e-05 -1.1121562e-04 2.9315743e-08 
-3.0593510e-06 -1.2454947e-05 -8.4326421e-06 
-8.2417446e-06 -4.5851706e-05 1.2067336e-05 
-6.6607709e-07 -8.9981506e-07 -1.9459674e-06 
-1.8317329e-06 -1.3385434e-06 -1.1896302e-06 
-1.4011032e-05 -5.3999654e-05 -5.6372637e-06 
-3.8807255e-07 -3.5354512e-07 1.5655639e-06 
-9.5011737e-06 -4.8568614e-05 -1.3558963e-05 
-2.4875981e-06 -6.3808293e-06 -5.7862462e-06 
-1.6819555e-06 -5.3252147e-06 5.3501849e-06 
-1.0607886e-06 -4.5779956e-07 -1.5248082e-06 
-5.0659690e-07 -1.1347189e-07 -1.5586081e-06 
-3.6517870e-06 -4.6631822e-06 -2.8315503e-06 
-2.9513802e-07 3.1761169e-07 -4.0120887e-07 
-1.6344123e-06 -7.0128374e-07 1.9319898e-06 
-3.5821401e-07 2.8000403e-07 3.7440506e-07 
-1.0146982e-06 -1.7902814e-06 2.8480320e-06 
-8.1456374e-06 -8.6159554e-05 -1.0359487e-05 
-1.9899574e-06 -1.9502265e-06 -7.9062846e-07 
-1.3707087e-05 -4.9235980e-05 7.5402718e-06 
-1.3321750e-05 -4.1595649e-05 9.5285859e-06 
-6.4270939e-06 -2.6745789e-05 -1.0146781e-05 
-5.2500320e-07 -3.0084439e-07 1.4678964e-06 
-1.6418672e-06 -5.2482981e-05 1.0440064e-05 
-8.4240168e-07 -2.7984928e-05 6.2792296e-06 
-6.3986172e-06 -8.9481080e-05 9.8366663e-06 
-9.4541620e-06 -1.2422237e-04 2.4384728e-06 
-1.6528659e-06 -1.5087009e-05 5.7906054e-06 
-8.3530340e-06 -1.3511979e-04 -2.2565312e-06 
-1.0595919e-05 -1.3011842e-04 -5.1037446e-06 
-5.0387871e-06 -8.8108900e-05 -7.6258852e-06 
-2.6697628e-06 -6.1210427e-05 -1.0925600e-05 
-1.4092033e-06 -3.3792679e-05 -1.0119166e-05 
-9.8968508e-07 -1.7689295e-05 -6.8919367e-06 
-5.1120549e-07 -8.0869304e-06 -4.1107855e-06 
-5.4142998e-07 -3.7502537e-06 -3.1622535e-06 
-2.9666671e-07 -1.5874814e-06 -2.1115839e-06 
-1.3794005e-07 -6.6093776e-07 -8.9760255e-07 
-6.7619476e-07 -8.5481506e-06 4.9671862e-06 
-4.3423464e-07 -2.8420850e-06 3.0066610e-06 
-1.2408033e-07 -1.0976728e-06 1.5565635e-06 
6.2931217e-06 -2.5944941e-05 -6.9447597e-06 
6.6000603e-06 -2.9781817e-05 7.4833374e-06 
1.7441631e-06 -5.7660563e-06 3.5018961e-06 
1.0605233e-06 -2.9923908e-06 -3.0484516e-06 
1.0588034e-05 -2.5296913e-05 -1.2206948e-06 
4.7878530e-06 -7.6627730e-05 8.1799563e-08 
3.8391186e-06 -5.9912259e-06 2.4397932e-06 
3.6421413e-06 -5.5632590e-06 -2.8020818e-06 
2.4244272e-07 -1.1302679e-06 1.2757678e-06 
1.6405273e-06 -2.4911020e-05 5.6092667e-06 
1.4339348e-06 -1.3046944e-06 -1.7485747e-06 
9.8469218e-07 -1.0098958e-06 1.3201176e-06 
9.3184877e-07 -1.6438033e-05 -4.7038907e-06 
3.2775749e-06 -6.6583882e-05 6.2439694e-06 
3.0863248e-06 -4.3417685e-06 -7.3491458e-07 
2.7392505e-07 -7.0197384e-06 2.0736404e-06 
4.3414307e-06 -6.4511914e-05 -7.0974661e-06 
2.8603932e-07 -4.9121591e-06 -3.5293323e-07 
3.3249105e-06 -3.8485618e-06 6.9227832e-07 
2.7975138e-06 -6.2104891e-06 -4.0323675e-06 
3.0923743e-06 -1.8825573e-05 2.6698997e-06 
6.2125960e-06 -3.0832540e-05 -3.9158881e-06 
5.1217294e-06 -1.5757732e-05 9.3192159e-07 
1.0095341e-06 -5.6656304e-06 -1.7426720e-06 
1.5482118e-06 -9.8427893e-07 -9.4853226e-07 
1.2203080e-06 -1.2369228e-06 1.2685946e-06 
2.0141758e-06 -1.2051029e-05 5.0957183e-06 
1.6701657e-07 -7.3758292e-07 6.1562355e-07 
9.4345648e-07 -1.9919894e-06 4.7979989e-07 
1.4262800e-07 -5.4983332e-07 -2.8699517e-07 
6.8690574e-06 -1.3574539e-05 -3.2780283e-06 
9.5363026e-07 -5.2733285e-06 1.3592962e-06 
2.9032694e-07 -3.0733680e-08 4.2167349e-07 
1.0536561e-06 -1.2514406e-06 -3.9753735e-07 
1.9259198e-06 -1.0806421e-05 -4.3374089e-06 
8.0235195e-06 -2.5015323e-05 -2.9739554e-06 
2.5548768e-06 -2.6009646e-05 -3.8471157e-06 
6.9148864e-06 -1.2136118e-05 3.2430239e-06 
2.3673767e-06 -1.9714148e-06 -1.3334491e-06 
8.8285633e-06 -4.8236252e-05 2.4578453e-06 
1.7136077e-07 1.7753078e-07 -1.5846173e-07 
6.1174887e-06 -3.1639505e-05 3.7401708e-06 
1.6972619e-07 -3.3356326e-05 -4.2849019e-06 
1.3498805e-08 -5.0550682e-07 2.0678642e-07 
6.7184743e-07 -1.4197706e-06 1.7865046e-06 
1.7426240e-07 -1.4258444e-07 1.9528611e-07 
2.1950761e-06 -3.2897797e-06 2.7480376e-06 
6.8576230e-07 -6.9573355e-07 -1.3323936e-06 
9.7638190e-07 -1.1276322e-05 -4.7169951e-07 
2.9083554e-07 -1.7003418e-07 -1.1412288e-07 
9.5060571e-08 -2.9050811e-06 4.1545917e-07 
5.1634441e-07 -2.2982954e-06 2.1699818e-06 
6.4633838e-07 -3.0141339e-07 -5.9472700e-07 
4.9439118e-06 -9.1672864e-06 4.5801103e-06 
5.7852831e-06 -7.4860814e-06 -1.3258287e-07 
6.5234127e-07 -2.2111403e-06 3.7833891e-07 
2.2666366e-07 -5.4116073e-05 1.8365397e-06 
2.4329810e-07 -1.0786441e-05 1.0094465e-06 
3.6547905e-07 -1.3685033e-06 -1.5349895e-06 
3.9260850e-10 -4.3998699e-07 5.7184444e-08 
4.5702132e-07 -3.8450708e-07 7.9316919e-07 
1.0718896e-07 1.5317571e-07 1.4970880e-07 
1.5101677e-06 -6.4219303e-06 -8.0687400e-08 
8.9689438e-06 -6.6284498e-05 -1.8507936e-06 
TOTAL_DISPLACEMENT 3 395  float
0.0000000e+00 0.0000000e+00 0.0000000e+00 
0.0000000e+00 0.0000000e+00 0.0000000e+00 
0.0000000e+00 0.0000000e+00 0.0000000e+00 
0.0000000e+00 0.0000000e+00 0.0000000e+00 
0.0000000e+00 0.0000000e+00 0.0000000e+00 
0.0000000e+00 0.0000000e+00 0.0000000e+00 
0.0000000e+00 0.0000000e+00 0.0000000e+00 
0.0000000e+00 0.0000000e+00 0.0000000e+00 
0.0000000e+00 0.0000000e+00 0.0000000e+00 
0.0000000e+00 0.0000000e+00 0.0000000e+00 
0.0000000e+00 0.0000000e+00 0.0000000e+00 
0.0000000e+00 0.0000000e+00 0.0000000e+00 
0.0000000e+00 0.0000000e+00 0.0000000e+00 
0.0000000e+00 0.0000000e+00 0.0000000e+00 
0.0000000e+00 0.0000000e+00 0.0000000e+00 
0.0000000e+00 0.0000000e+00 0.0000000e+00 
0.0000000e+00 0.0000000e+00 0.0000000e+00 
0.0000000e+00 0.0000000e+00 0.0000000e+00 
0.0000000e+00 0.0000000e+00 0.0000000e+00 
0.0000000e+00 0.0000000e+00 0.0000000e+00 
0.0000000e+00 0.0000000e+00 0.0000000e+00 
0.0000000e+00 0.0000000e+00 0.0000000e+00 
0.0000000e+00 0.0000000e+00 0.0000000e+00 
0.0000000e+00 0.0000000e+00 0.0000000e+00 
0.0000000e+00 0.0000000e+00 0.0000000e+00 
0.0000000e+00 0.0000000e+00 0.0000000e+00 
0.0000000e+00 0.0000000e+00 0.0000000e+00 
0.0000000e+00 0.0000000e+00 0.0000000e+00 
0.0000000e+00 0.0000000e+00 0.0000000e+00 
0.0000000e+00 0.0000000e+00 0.0000000e+00 
0.0000000e+00 0.0000000e+00 0.0000000e+00 
0.0000000e+00 0.0000000e+00 0.0000000e+00 
0.0000000e+00 0.0000000e+00 0.0000000e+00 
0.0000000e+00 0.0000000e+00 0.0000000e+00 
0.0000000e+00 0.0000000e+00 0.0000000e+00 
0.0000000e+00 0.0000000e+00 0.0000000e+00 
0.0000000e+00 0.0000000e+00 0.0000000e+00 
0.0000000e+00 0.0000000e+00 0.0000000e+00 
0.0000000e+00 0.0000000e+00 0.0000000e+00 
0.0000000e+00 0.0000000e+00 0.0000000e+00 
0.0000000e+00 0.0000000e+00 0.0000000e+00 
0.0000000e+00 0.0000000e+00 0.0000000e+00 
0.0000000e+00 0.0000000e+00 0.0000000e+00 
0.0000000e+00 0.0000000e+00 0.0000000e+00 
0.0000000e+00 0.0000000e+00 0.0000000e+00 
0.0000000e+00 0.0000000e+00 0.0000000e+00 
0.0000000e+00 0.0000000e+00 0.0000000e+00 
0.0000000e+00 0.0000000e+00 0.0000000e+00 
0.0000000e+00 0.0000000e+00 0.0000000e+00 
0.0000000e+00 0.0000000e+00 0.0000000e+00 
0.0000000e+00 0.0000000e+00 0.0000000e+00 
0.0000000e+00 0.0000000e+00 0.0000000e+00 
0.0000000e+00 0.0000000e+00 0.0000000e+00 
0.0000000e+00 0.0000000e+00 0.0000000e+00 
0.0000000e+00 0.0000000e+00 0.0000000e+00 
0.0000000e+00 0.0000000e+00 0.0000000e+00 
0.0000000e+00 0.0000000e+00 0.0000000e+00 