# vtk DataFile Version 4.0
vtk output
ASCII
DATASET UNSTRUCTURED_GRID
POINTS 766 float
0.0000000e+00 0.0000000e+00 0.0000000e+00 
0.0000000e+00 0.0000000e+00 5.0000000e+01 
5.0000000e+00 0.0000000e+00 0.0000000e+00 
5.0000000e+00 0.0000000e+00 5.0000000e+01 
5.0000000e+00 1.0000000e+00 0.0000000e+00 
5.0000000e+00 1.0000000e+00 5.0000000e+01 
0.0000000e+00 1.0000000e+00 0.0000000e+00 
0.0000000e+00 1.0000000e+00 5.0000000e+01 
5.0000000e+00 2.0000000e+00 0.0000000e+00 
5.0000000e+00 2.0000000e+00 5.0000000e+01 
3.0000000e+00 2.0000000e+00 0.0000000e+00 
3.0000000e+00 2.0000000e+00 5.0000000e+01 
0.0000000e+00 2.0000000e+00 0.0000000e+00 
0.0000000e+00 2.0000000e+00 5.0000000e+01 
1.5000000e+00 3.0000000e+00 0.0000000e+00 
1.5000000e+00 3.0000000e+00 5.0000000e+01 
7.5000000e-01 3.0000000e+00 0.0000000e+00 
7.5000000e-01 3.0000000e+00 5.0000000e+01 
0.0000000e+00 3.0000000e+00 0.0000000e+00 
0.0000000e+00 3.0000000e+00 5.0000000e+01 
7.5000000e-01 3.0000000e+00 5.0000000e-01 
7.5000000e-01 3.0000000e+00 1.0000000e+00 
7.5000000e-01 3.0000000e+00 1.5000000e+00 
7.5000000e-01 3.0000000e+00 2.0000000e+00 
7.5000000e-01 3.0000000e+00 2.5000000e+00 
7.5000000e-01 3.0000000e+00 3.0000000e+00 
7.5000000e-01 3.0000000e+00 3.5000000e+00 
7.5000000e-01 3.0000000e+00 4.0000000e+00 
7.5000000e-01 3.0000000e+00 4.5000000e+00 
7.5000000e-01 3.0000000e+00 5.0000000e+00 
7.5000000e-01 3.0000000e+00 5.5000000e+00 
7.5000000e-01 3.0000000e+00 6.0000000e+00 
7.5000000e-01 3.0000000e+00 6.5000000e+00 
7.5000000e-01 3.0000000e+00 7.0000000e+00 
7.5000000e-01 3.0000000e+00 7.5000000e+00 
7.5000000e-01 3.0000000e+00 8.0000000e+00 
7.5000000e-01 3.0000000e+00 8.5000000e+00 
7.5000000e-01 3.0000000e+00 9.0000000e+00 
7.5000000e-01 3.0000000e+00 9.5000000e+00 
7.5000000e-01 3.0000000e+00 1.0000000e+01 
7.5000000e-01 3.0000000e+00 1.0500000e+01 
7.5000000e-01 3.0000000e+00 1.1000000e+01 
7.5000000e-01 3.0000000e+00 1.1500000e+01 
7.5000000e-01 3.0000000e+00 1.2000000e+01 
7.5000000e-01 3.0000000e+00 1.2500000e+01 
7.5000000e-01 3.0000000e+00 1.3000000e+01 
7.5000000e-01 3.0000000e+00 1.3500000e+01 
7.5000000e-01 3.0000000e+00 1.4000000e+01 
7.5000000e-01 3.0000000e+00 1.4500000e+01 
7.5000000e-01 3.0000000e+00 1.5000000e+01 
7.5000000e-01 3.0000000e+00 1.5500000e+01 
7.5000000e-01 3.0000000e+00 1.6000000e+01 
7.5000000e-01 3.0000000e+00 1.6500000e+01 
7.5000000e-01 3.0000000e+00 1.7000000e+01 
7.5000000e-01 3.0000000e+00 1.7500000e+01 
7.5000000e-01 3.0000000e+00 1.8000000e+01 
7.5000000e-01 3.0000000e+00 1.8500000e+01 
7.5000000e-01 3.0000000e+00 1.9000000e+01 
7.5000000e-01 3.0000000e+00 1.9500000e+01 
7.5000000e-01 3.0000000e+00 2.0000000e+01 
7.5000000e-01 3.0000000e+00 2.0500000e+01 
7.5000000e-01 3.0000000e+00 2.1000000e+01 
7.5000000e-01 3.0000000e+00 2.1500000e+01 
7.5000000e-01 3.0000000e+00 2.2000000e+01 
7.5000000e-01 3.0000000e+00 2.2500000e+01 
7.5000000e-01 3.0000000e+00 2.3000000e+01 
7.5000000e-01 3.0000000e+00 2.3500000e+01 
7.5000000e-01 3.0000000e+00 2.4000000e+01 
7.5000000e-01 3.0000000e+00 2.4500000e+01 
7.5000000e-01 3.0000000e+00 2.5000000e+01 
7.5000000e-01 3.0000000e+00 2.5500000e+01 
7.5000000e-01 3.0000000e+00 2.6000000e+01 
7.5000000e-01 3.0000000e+00 2.6500000e+01 
7.5000000e-01 3.0000000e+00 2.7000000e+01 
7.5000000e-01 3.0000000e+00 2.7500000e+01 
7.5000000e-01 3.0000000e+00 2.8000000e+01 
7.5000000e-01 3.0000000e+00 2.8500000e+01 
7.5000000e-01 3.0000000e+00 2.9000000e+01 
7.5000000e-01 3.0000000e+00 2.9500000e+01 
7.5000000e-01 3.0000000e+00 3.0000000e+01 
7.5000000e-01 3.0000000e+00 3.0500000e+01 
7.5000000e-01 3.0000000e+00 3.1000000e+01 
7.5000000e-01 3.0000000e+00 3.1500000e+01 
7.5000000e-01 3.0000000e+00 3.2000000e+01 
7.5000000e-01 3.0000000e+00 3.2500000e+01 
7.5000000e-01 3.0000000e+00 3.3000000e+01 
7.5000000e-01 3.0000000e+00 3.3500000e+01 
7.5000000e-01 3.0000000e+00 3.4000000e+01 
7.5000000e-01 3.0000000e+00 3.4500000e+01 
7.5000000e-01 3.0000000e+00 3.5000000e+01 
7.5000000e-01 3.0000000e+00 3.5500000e+01 
7.5000000e-01 3.0000000e+00 3.6000000e+01 
7.5000000e-01 3.0000000e+00 3.6500000e+01 
7.5000000e-01 3.0000000e+00 3.7000000e+01 
7.5000000e-01 3.0000000e+00 3.7500000e+01 
7.5000000e-01 3.0000000e+00 3.8000000e+01 
7.5000000e-01 3.0000000e+00 3.8500000e+01 
7.5000000e-01 3.0000000e+00 3.9000000e+01 
7.5000000e-01 3.0000000e+00 3.9500000e+01 
7.5000000e-01 3.0000000e+00 4.0000000e+01 
7.5000000e-01 3.0000000e+00 4.0500000e+01 
7.5000000e-01 3.0000000e+00 4.1000000e+01 
7.5000000e-01 3.0000000e+00 4.1500000e+01 
7.5000000e-01 3.0000000e+00 4.2000000e+01 
7.5000000e-01 3.0000000e+00 4.2500000e+01 
7.5000000e-01 3.0000000e+00 4.3000000e+01 
7.5000000e-01 3.0000000e+00 4.3500000e+01 
7.5000000e-01 3.0000000e+00 4.4000000e+01 
7.5000000e-01 3.0000000e+00 4.4500000e+01 
7.5000000e-01 3.0000000e+00 4.5000000e+01 
7.5000000e-01 3.0000000e+00 4.5500000e+01 
7.5000000e-01 3.0000000e+00 4.6000000e+01 
7.5000000e-01 3.0000000e+00 4.6500000e+01 
7.5000000e-01 3.0000000e+00 4.7000000e+01 
7.5000000e-01 3.0000000e+00 4.7500000e+01 
7.5000000e-01 3.0000000e+00 4.8000000e+01 
7.5000000e-01 3.0000000e+00 4.8500000e+01 
7.5000000e-01 3.0000000e+00 4.9000000e+01 
7.5000000e-01 3.0000000e+00 4.9500000e+01 
7.5000000e-01 3.0250001e+00 0.0000000e+00 
7.5000000e-01 3.0250001e+00 5.0000000e-01 
7.5000000e-01 3.0250001e+00 1.0000000e+00 
7.5000000e-01 3.0250001e+00 1.5000000e+00 
7.5000000e-01 3.0250001e+00 2.0000000e+00 
7.5000000e-01 3.0250001e+00 2.5000000e+00 
7.5000000e-01 3.0250001e+00 3.0000000e+00 
7.5000000e-01 3.0250001e+00 3.5000000e+00 
7.5000000e-01 3.0250001e+00 4.0000000e+00 
7.5000000e-01 3.0250001e+00 4.5000000e+00 
7.5000000e-01 3.0250001e+00 5.0000000e+00 
7.5000000e-01 3.0250001e+00 5.5000000e+00 
7.5000000e-01 3.0250001e+00 6.0000000e+00 
7.5000000e-01 3.0250001e+00 6.5000000e+00 
7.5000000e-01 3.0250001e+00 7.0000000e+00 
7.5000000e-01 3.0250001e+00 7.5000000e+00 
7.5000000e-01 3.0250001e+00 8.0000000e+00 
7.5000000e-01 3.0250001e+00 8.5000000e+00 
7.5000000e-01 3.0250001e+00 9.0000000e+00 
7.5000000e-01 3.0250001e+00 9.5000000e+00 
7.5000000e-01 3.0250001e+00 1.0000000e+01 
7.5000000e-01 3.0250001e+00 1.0500000e+01 
7.5000000e-01 3.0250001e+00 1.1000000e+01 
7.5000000e-01 3.0250001e+00 1.1500000e+01 
7.5000000e-01 3.0250001e+00 1.2000000e+01 
7.5000000e-01 3.0250001e+00 1.2500000e+01 
7.5000000e-01 3.0250001e+00 1.3000000e+01 
7.5000000e-01 3.0250001e+00 1.3500000e+01 
7.5000000e-01 3.0250001e+00 1.4000000e+01 
7.5000000e-01 3.0250001e+00 1.4500000e+01 
7.5000000e-01 3.0250001e+00 1.5000000e+01 
7.5000000e-01 3.0250001e+00 1.5500000e+01 
7.5000000e-01 3.0250001e+00 1.6000000e+01 
7.5000000e-01 3.0250001e+00 1.6500000e+01 
7.5000000e-01 3.0250001e+00 1.7000000e+01 
7.5000000e-01 3.0250001e+00 1.7500000e+01 
7.5000000e-01 3.0250001e+00 1.8000000e+01 
7.5000000e-01 3.0250001e+00 1.8500000e+01 
7.5000000e-01 3.0250001e+00 1.9000000e+01 
7.5000000e-01 3.0250001e+00 1.9500000e+01 
7.5000000e-01 3.0250001e+00 2.0000000e+01 
7.5000000e-01 3.0250001e+00 2.0500000e+01 
7.5000000e-01 3.0250001e+00 2.1000000e+01 
7.5000000e-01 3.0250001e+00 2.1500000e+01 
7.5000000e-01 3.0250001e+00 2.2000000e+01 
7.5000000e-01 3.0250001e+00 2.2500000e+01 
7.5000000e-01 3.0250001e+00 2.3000000e+01 
7.5000000e-01 3.0250001e+00 2.3500000e+01 
7.5000000e-01 3.0250001e+00 2.4000000e+01 
7.5000000e-01 3.0250001e+00 2.4500000e+01 
7.5000000e-01 3.0250001e+00 2.5000000e+01 
7.5000000e-01 3.0250001e+00 2.5500000e+01 
7.5000000e-01 3.0250001e+00 2.6000000e+01 
7.5000000e-01 3.0250001e+00 2.6500000e+01 
7.5000000e-01 3.0250001e+00 2.7000000e+01 
7.5000000e-01 3.0250001e+00 2.7500000e+01 
7.5000000e-01 3.0250001e+00 2.8000000e+01 
7.5000000e-01 3.0250001e+00 2.8500000e+01 
7.5000000e-01 3.0250001e+00 2.9000000e+01 
7.5000000e-01 3.0250001e+00 2.9500000e+01 
7.5000000e-01 3.0250001e+00 3.0000000e+01 
7.5000000e-01 3.0250001e+00 3.0500000e+01 
7.5000000e-01 3.0250001e+00 3.1000000e+01 
7.5000000e-01 3.0250001e+00 3.1500000e+01 
7.5000000e-01 3.0250001e+00 3.2000000e+01 
7.5000000e-01 3.0250001e+00 3.2500000e+01 
7.5000000e-01 3.0250001e+00 3.3000000e+01 
7.5000000e-01 3.0250001e+00 3.3500000e+01 
7.5000000e-01 3.0250001e+00 3.4000000e+01 
7.5000000e-01 3.0250001e+00 3.4500000e+01 
7.5000000e-01 3.0250001e+00 3.5000000e+01 
7.5000000e-01 3.0250001e+00 3.5500000e+01 
7.5000000e-01 3.0250001e+00 3.6000000e+01 
7.5000000e-01 3.0250001e+00 3.6500000e+01 
7.5000000e-01 3.0250001e+00 3.7000000e+01 
7.5000000e-01 3.0250001e+00 3.7500000e+01 
7.5000000e-01 3.0250001e+00 3.8000000e+01 
7.5000000e-01 3.0250001e+00 3.8500000e+01 
7.5000000e-01 3.0250001e+00 3.9000000e+01 
7.5000000e-01 3.0250001e+00 3.9500000e+01 
7.5000000e-01 3.0250001e+00 4.0000000e+01 
7.5000000e-01 3.0250001e+00 4.0500000e+01 
7.5000000e-01 3.0250001e+00 4.1000000e+01 
7.5000000e-01 3.0250001e+00 4.1500000e+01 
7.5000000e-01 3.0250001e+00 4.2000000e+01 
7.5000000e-01 3.0250001e+00 4.2500000e+01 
7.5000000e-01 3.0250001e+00 4.3000000e+01 
7.5000000e-01 3.0250001e+00 4.3500000e+01 
7.5000000e-01 3.0250001e+00 4.4000000e+01 
7.5000000e-01 3.0250001e+00 4.4500000e+01 
7.5000000e-01 3.0250001e+00 4.5000000e+01 
7.5000000e-01 3.0250001e+00 4.5500000e+01 
7.5000000e-01 3.0250001e+00 4.6000000e+01 
7.5000000e-01 3.0250001e+00 4.6500000e+01 
7.5000000e-01 3.0250001e+00 4.7000000e+01 
7.5000000e-01 3.0250001e+00 4.7500000e+01 
7.5000000e-01 3.0250001e+00 4.8000000e+01 
7.5000000e-01 3.0250001e+00 4.8500000e+01 
7.5000000e-01 3.0250001e+00 4.9000000e+01 
7.5000000e-01 3.0250001e+00 4.9500000e+01 
7.5000000e-01 3.0250001e+00 5.0000000e+01 
3.0000000e+00 2.0000000e+00 3.6000000e+01 
8.0487806e-01 3.0000000e+00 3.6000000e+01 
0.0000000e+00 0.0000000e+00 2.0000000e+00 
0.0000000e+00 0.0000000e+00 4.0000000e+00 
0.0000000e+00 0.0000000e+00 6.0000000e+00 
0.0000000e+00 0.0000000e+00 8.0000000e+00 
0.0000000e+00 0.0000000e+00 1.0000000e+01 
0.0000000e+00 0.0000000e+00 1.2000000e+01 
0.0000000e+00 0.0000000e+00 1.4000000e+01 
0.0000000e+00 0.0000000e+00 1.6000000e+01 
[...]
POINT_DATA 766
FIELD FieldData 3
DISPLACEMENT 3 766  float
0.0000000e+00 0.0000000e+00 0.0000000e+00 
0.0000000e+00 0.0000000e+00 0.0000000e+00 
0.0000000e+00 0.0000000e+00 0.0000000e+00 
0.0000000e+00 0.0000000e+00 0.0000000e+00 
5.8704126e-07 5.6325945e-07 2.5014062e-06 
-2.5018448e-06 -3.9747559e-07 -1.6068569e-07 
0.0000000e+00 -1.0539890e-05 0.0000000e+00 
0.0000000e+00 -1.5039250e-05 0.0000000e+00 
1.0602763e-06 1.5535690e-07 3.3449842e-06 
-4.0655987e-06 2.0505585e-07 4.3529244e-06 
-1.8817500e-06 1.0170986e-06 5.0122635e-06 
2.8306897e-06 -4.5273850e-06 -7.4314535e-06 
0.0000000e+00 -2.1705000e-05 0.0000000e+00 
0.0000000e+00 -2.5978268e-05 0.0000000e+00 
-7.7047343e-06 -9.2609598e-06 1.2098240e-05 
-1.0501044e-05 -1.0434212e-06 3.9624418e-05 
-1.9850773e-05 -2.6387082e-05 2.2351237e-06 
-3.1421860e-05 1.9046065e-05 1.5879157e-05 
0.0000000e+00 -1.0270448e-05 0.0000000e+00 
0.0000000e+00 -4.6585465e-05 0.0000000e+00 
-1.6342205e-05 -2.5650197e-05 -1.1305157e-05 
-1.2168878e-05 -2.4434386e-05 -1.3985020e-05 
-1.7690336e-05 -2.3361643e-05 -1.7723658e-05 
-1.2839199e-05 -2.9750210e-05 -1.2596793e-05 
-1.6294613e-05 -4.3587592e-05 -4.7786139e-06 
-5.4510961e-06 -5.9492148e-05 -2.7345325e-06 
-1.1767729e-05 -7.2877272e-05 -2.0890595e-06 
-3.3016640e-06 -7.7779296e-05 3.3729059e-06 
-5.1294264e-06 -7.9449819e-05 -2.3762339e-06 
-8.3021487e-06 -8.9838904e-05 5.5737605e-08 
-9.2752606e-07 -1.1476745e-04 6.0526179e-07 
1.1747793e-06 -1.3809314e-04 -1.7965958e-06 
-6.3271614e-06 -1.4295484e-04 1.3060292e-05 
-1.6716707e-05 -1.2799233e-04 2.0155726e-06 
-1.7801063e-05 -1.0560936e-04 -9.7265502e-06 
-2.5502663e-05 -8.8126835e-05 -1.2176090e-05 
-2.1350554e-05 -7.9705191e-05 -3.1000334e-05 
-2.0359321e-05 -7.0563699e-05 -2.9142335e-05 
-1.7617556e-05 -4.4359582e-05 -1.1829392e-05 
-2.2057298e-05 -1.5856700e-05 -1.5514723e-05 
-1.8680626e-05 1.9760519e-06 -1.5350321e-05 
-1.9708191e-06 6.5280392e-06 1.2983693e-05 
-2.8042516e-05 4.0621308e-06 -3.4571615e-06 
-1.7849238e-06 1.8320148e-06 -1.0875028e-05 
-9.7778147e-06 1.7938279e-06 2.5745043e-05 
-2.1063954e-06 -4.6072264e-06 7.6981469e-06 
1.2441470e-05 -3.4867233e-05 -5.3241979e-06 
1.9316682e-05 -4.5552722e-05 4.4818342e-05 
3.6771246e-05 -2.1121519e-05 2.1156457e-05 
7.4012096e-06 5.0411677e-06 1.4958036e-05 
3.4886263e-05 1.6474339e-06 7.4324751e-05 
-2.1897999e-05 -8.5171814e-05 5.4987933e-05 
-8.0839163e-05 -2.6804677e-04 8.9328598e-05 
-4.8324480e-05 -5.3134805e-04 1.2660657e-04 
-1.1975680e-04 -9.0516231e-04 1.6651912e-04 
-1.3129071e-04 -1.4945185e-03 1.1915855e-04 
-2.8697590e-04 -2.3944394e-03 1.8782423e-04 
-3.0701360e-04 -3.4497508e-03 1.8580467e-04 
-2.1431499e-04 -4.3197884e-03 1.2260031e-04 
-1.7954527e-04 -4.3639340e-03 1.2883544e-04 
-2.7835421e-04 -4.1122241e-03 6.6233428e-05 
-3.7712671e-04 -4.0056524e-03 6.4288368e-05 
-2.6541040e-04 -4.2351396e-03 3.4881039e-05 
-1.2119413e-04 -4.3024486e-03 -1.6373660e-05 
-1.3889356e-04 -3.6879412e-03 -9.8351840e-05 
-2.2958961e-04 -2.7074399e-03 -1.4621594e-04 
-2.1017239e-04 -1.8087039e-03 -1.6282850e-04 
-7.9868565e-05 -1.0970114e-03 -1.0609942e-04 
-4.6196255e-05 -6.3316786e-04 -1.4681387e-04 
-4.4572254e-05 -3.5300365e-04 -1.2358946e-04 
-3.4473938e-05 -1.9239690e-04 -1.0054655e-04 
-2.6182395e-05 -1.1338409e-04 -7.7869379e-05 
-2.6517167e-05 -9.7417411e-05 -5.4697590e-05 
-2.5019428e-05 -1.0608028e-04 -4.6219666e-05 
-3.0503528e-05 -1.0325058e-04 -4.0820789e-05 
-4.1490224e-05 -9.1257411e-05 -4.9944490e-05 
-3.8386846e-05 -8.5808781e-05 -6.7052781e-05 
-4.2008021e-05 -9.3160270e-05 -4.9157439e-05 
-4.7211546e-05 -9.5916919e-05 -4.5196233e-05 
-3.7175410e-05 -8.3636980e-05 -6.9125213e-05 
-2.8319591e-05 -5.0533548e-05 -5.2589890e-05 
-1.4092659e-05 -1.3128430e-05 -5.3830630e-05 
-2.1922211e-05 4.3151163e-06 -9.6407864e-05 
1.4534588e-05 2.2848844e-05 -8.4649502e-05 
1.8267892e-05 5.7565387e-05 -6.4483815e-05 
2.3365516e-05 9.8708857e-05 -6.8932553e-05 
6.4248117e-05 1.2752946e-04 -4.9266386e-05 
2.3586172e-05 1.4927173e-04 -1.6401063e-06 
7.2623712e-05 1.7644231e-04 -1.1648214e-05 
5.0167553e-05 2.1475961e-04 2.6888876e-05 
3.3102184e-05 2.5651520e-04 1.1698957e-04 
5.7783709e-05 2.0402847e-04 9.9851306e-05 
-8.7459433e-05 2.3176638e-06 9.6401331e-05 
-1.4465458e-05 -3.4835350e-04 1.9439164e-04 
-8.1005237e-05 -8.6186867e-04 2.3689019e-04 
-1.3071996e-04 -1.5388750e-03 1.3429410e-04 
-2.3251009e-04 -2.4181488e-03 2.1600383e-04 
-3.2192285e-04 -3.3817887e-03 1.8444567e-04 
-1.8274336e-04 -4.1622454e-03 9.9960766e-05 
-1.8055351e-04 -4.1919998e-03 1.0890212e-04 
-2.9719828e-04 -3.9994298e-03 5.8665497e-05 
-3.4712543e-04 -3.9479467e-03 2.0923062e-05 
-2.2218868e-04 -4.1578119e-03 -2.8309758e-05 
-6.1737723e-05 -4.1307672e-03 -6.1469196e-05 
-7.4223208e-05 -3.3910463e-03 -1.5938870e-04 
-1.5616612e-04 -2.3266014e-03 -1.8324422e-04 
-1.5497849e-04 -1.4069628e-03 -1.5677878e-04 
-4.4849676e-05 -7.1799674e-04 -7.4566335e-05 
-2.0660833e-05 -2.7913463e-04 -1.0955248e-04 
-1.7358328e-05 -2.0194615e-05 -8.1648686e-05 
-1.9276671e-05 1.0960799e-04 -7.0766248e-05 
-9.9198314e-06 1.5293970e-04 -6.4513210e-05 
7.9978076e-07 1.4351930e-04 -4.2716980e-05 
9.1172005e-06 1.1713128e-04 -2.2290797e-05 
6.0839197e-06 9.6240175e-05 -7.4841655e-06 
2.4971694e-06 7.9250334e-05 1.8441366e-05 
-1.4982817e-06 6.2184234e-05 3.6477333e-05 
-5.5500182e-06 4.3424217e-05 4.2412757e-05 
-1.1754883e-05 2.6104959e-05 4.7888061e-05 
0.0000000e+00 -2.6512342e-05 0.0000000e+00 
0.0000000e+00 -2.5707670e-05 0.0000000e+00 
0.0000000e+00 -2.3953125e-05 0.0000000e+00 
0.0000000e+00 -2.3520714e-05 0.0000000e+00 
0.0000000e+00 -2.9910965e-05 0.0000000e+00 
0.0000000e+00 -4.3676497e-05 0.0000000e+00 
0.0000000e+00 -5.9893897e-05 0.0000000e+00 
0.0000000e+00 -7.2396899e-05 0.0000000e+00 
0.0000000e+00 -7.7201694e-05 0.0000000e+00 
0.0000000e+00 -7.9615318e-05 0.0000000e+00 
0.0000000e+00 -9.0989473e-05 0.0000000e+00 
0.0000000e+00 -1.1503072e-04 0.0000000e+00 
0.0000000e+00 -1.3757880e-04 0.0000000e+00 
0.0000000e+00 -1.4228502e-04 0.0000000e+00 
0.0000000e+00 -1.2767891e-04 0.0000000e+00 
0.0000000e+00 -1.0594283e-04 0.0000000e+00 
0.0000000e+00 -8.9074536e-05 0.0000000e+00 
0.0000000e+00 -8.0193546e-05 0.0000000e+00 
0.0000000e+00 -6.8984838e-05 0.0000000e+00 
0.0000000e+00 -4.4343818e-05 0.0000000e+00 
0.0000000e+00 -1.6255106e-05 0.0000000e+00 
0.0000000e+00 1.5956404e-06 0.0000000e+00 
0.0000000e+00 6.1012856e-06 0.0000000e+00 
0.0000000e+00 4.4376820e-06 0.0000000e+00 
0.0000000e+00 2.8461075e-06 0.0000000e+00 
0.0000000e+00 2.2930772e-06 0.0000000e+00 
0.0000000e+00 -7.7963705e-06 0.0000000e+00 
0.0000000e+00 -3.3991586e-05 0.0000000e+00 
0.0000000e+00 -4.3417785e-05 0.0000000e+00 
0.0000000e+00 -2.0686784e-05 0.0000000e+00 
0.0000000e+00 7.3686329e-06 0.0000000e+00 
0.0000000e+00 -4.6343109e-07 0.0000000e+00 
0.0000000e+00 -8.7656932e-05 0.0000000e+00 
0.0000000e+00 -2.6621224e-04 0.0000000e+00 
0.0000000e+00 -5.2754546e-04 0.0000000e+00 
0.0000000e+00 -9.0504001e-04 0.0000000e+00 
0.0000000e+00 -1.5051446e-03 0.0000000e+00 
0.0000000e+00 -2.4046947e-03 0.0000000e+00 
0.0000000e+00 -3.4864771e-03 0.0000000e+00 
0.0000000e+00 -4.3416750e-03 0.0000000e+00 
0.0000000e+00 -4.3897396e-03 0.0000000e+00 
0.0000000e+00 -4.1261152e-03 0.0000000e+00 
0.0000000e+00 -4.0401048e-03 0.0000000e+00 
0.0000000e+00 -4.2571672e-03 0.0000000e+00 
0.0000000e+00 -4.3358789e-03 0.0000000e+00 
0.0000000e+00 -3.7041367e-03 0.0000000e+00 
0.0000000e+00 -2.7259514e-03 0.0000000e+00 
0.0000000e+00 -1.8116924e-03 0.0000000e+00 
0.0000000e+00 -1.1022600e-03 0.0000000e+00 
0.0000000e+00 -6.3254824e-04 0.0000000e+00 
0.0000000e+00 -3.5107805e-04 0.0000000e+00 
0.0000000e+00 -1.9174826e-04 0.0000000e+00 
0.0000000e+00 -1.1498592e-04 0.0000000e+00 
0.0000000e+00 -9.7308548e-05 0.0000000e+00 
0.0000000e+00 -1.0368883e-04 0.0000000e+00 
0.0000000e+00 -1.0240908e-04 0.0000000e+00 
0.0000000e+00 -9.1981543e-05 0.0000000e+00 
0.0000000e+00 -8.7115346e-05 0.0000000e+00 
0.0000000e+00 -9.2901289e-05 0.0000000e+00 
0.0000000e+00 -9.5612479e-05 0.0000000e+00 
0.0000000e+00 -8.2453182e-05 0.0000000e+00 
0.0000000e+00 -5.0216757e-05 0.0000000e+00 
0.0000000e+00 -1.5540101e-05 0.0000000e+00 
0.0000000e+00 4.7185245e-06 0.0000000e+00 
0.0000000e+00 2.4283398e-05 0.0000000e+00 
0.0000000e+00 5.7990510e-05 0.0000000e+00 
0.0000000e+00 9.7876240e-05 0.0000000e+00 
0.0000000e+00 1.2686546e-04 0.0000000e+00 
0.0000000e+00 1.4891375e-04 0.0000000e+00 
0.0000000e+00 1.7725618e-04 0.0000000e+00 
0.0000000e+00 2.1992932e-04 0.0000000e+00 
0.0000000e+00 2.5524283e-04 0.0000000e+00 
0.0000000e+00 2.0156562e-04 0.0000000e+00 
0.0000000e+00 2.4367439e-06 0.0000000e+00 
0.0000000e+00 -3.5028259e-04 0.0000000e+00 
0.0000000e+00 -8.6017302e-04 0.0000000e+00 
0.0000000e+00 -1.5448037e-03 0.0000000e+00 
0.0000000e+00 -2.4269000e-03 0.0000000e+00 
0.0000000e+00 -3.4193019e-03 0.0000000e+00 
0.0000000e+00 -4.1859024e-03 0.0000000e+00 
0.0000000e+00 -4.2197257e-03 0.0000000e+00 
0.0000000e+00 -4.0125642e-03 0.0000000e+00 
0.0000000e+00 -3.9787670e-03 0.0000000e+00 
0.0000000e+00 -4.1790595e-03 0.0000000e+00 
0.0000000e+00 -4.1637160e-03 0.0000000e+00 
0.0000000e+00 -3.4080565e-03 0.0000000e+00 
0.0000000e+00 -2.3459203e-03 0.0000000e+00 
0.0000000e+00 -1.4099345e-03 0.0000000e+00 
0.0000000e+00 -7.2101457e-04 0.0000000e+00 
0.0000000e+00 -2.7810445e-04 0.0000000e+00 
0.0000000e+00 -2.0083924e-05 0.0000000e+00 
0.0000000e+00 1.0991511e-04 0.0000000e+00 
0.0000000e+00 1.5334133e-04 0.0000000e+00 
0.0000000e+00 1.4462351e-04 0.0000000e+00 
0.0000000e+00 1.1825937e-04 0.0000000e+00 
0.0000000e+00 9.5920899e-05 0.0000000e+00 
0.0000000e+00 7.8954625e-05 0.0000000e+00 
0.0000000e+00 6.2203086e-05 0.0000000e+00 
0.0000000e+00 4.3426753e-05 0.0000000e+00 
0.0000000e+00 2.6318185e-05 0.0000000e+00 
0.0000000e+00 1.9109508e-05 0.0000000e+00 
1.9108451e-05 4.2262120e-05 3.1235708e-05 
3.7921684e-05 2.1086076e-04 9.5648466e-05 
0.0000000e+00 0.0000000e+00 0.0000000e+00 
0.0000000e+00 0.0000000e+00 0.0000000e+00 
0.0000000e+00 0.0000000e+00 0.0000000e+00 
0.0000000e+00 0.0000000e+00 0.0000000e+00 
0.0000000e+00 0.0000000e+00 0.0000000e+00 
0.0000000e+00 0.0000000e+00 0.0000000e+00 
0.0000000e+00 0.0000000e+00 0.0000000e+00 
0.0000000e+00 0.0000000e+00 0.0000000e+00 
0.0000000e+00 0.0000000e+00 0.0000000e+00 
0.0000000e+00 0.0000000e+00 0.0000000e+00 
0.0000000e+00 0.0000000e+00 0.0000000e+00 
0.0000000e+00 0.0000000e+00 0.0000000e+00 
0.0000000e+00 0.0000000e+00 0.0000000e+00 
0.0000000e+00 0.0000000e+00 0.0000000e+00 
0.0000000e+00 0.0000000e+00 0.0000000e+00 
0.0000000e+00 0.0000000e+00 0.0000000e+00 
0.0000000e+00 0.0000000e+00 0.0000000e+00 
0.0000000e+00 0.0000000e+00 0.0000000e+00 
0.0000000e+00 0.0000000e+00 0.0000000e+00 
0.0000000e+00 0.0000000e+00 0.0000000e+00 
0.0000000e+00 0.0000000e+00 0.0000000e+00 
0.0000000e+00 0.0000000e+00 0.0000000e+00 
0.0000000e+00 0.0000000e+00 0.0000000e+00 
0.0000000e+00 0.0000000e+00 0.0000000e+00 
0.0000000e+00 0.0000000e+00 0.0000000e+00 
0.0000000e+00 0.0000000e+00 0.0000000e+00 
0.0000000e+00 0.0000000e+00 0.0000000e+00 
0.0000000e+00 0.0000000e+00 0.0000000e+00 
0.0000000e+00 0.0000000e+00 0.0000000e+00 
0.0000000e+00 0.0000000e+00 0.0000000e+00 
0.0000000e+00 0.0000000e+00 0.0000000e+00 
0.0000000e+00 0.0000000e+00 0.0000000e+00 
0.0000000e+00 0.0000000e+00 0.0000000e+00 
0.0000000e+00 0.0000000e+00 0.0000000e+00 
0.0000000e+00 0.0000000e+00 0.0000000e+00 
0.0000000e+00 0.0000000e+00 0.0000000e+00 
0.0000000e+00 0.0000000e+00 0.0000000e+00 
0.0000000e+00 0.0000000e+00 0.0000000e+00 
0.0000000e+00 0.0000000e+00 0.0000000e+00 
0.0000000e+00 0.0000000e+00 0.0000000e+00 
0.0000000e+00 0.0000000e+00 0.0000000e+00 
0.0000000e+00 0.0000000e+00 0.0000000e+00 
0.0000000e+00 0.0000000e+00 0.0000000e+00 
0.0000000e+00 0.0000000e+00 0.0000000e+00 
0.0000000e+00 0.0000000e+00 0.0000000e+00 
0.0000000e+00 0.0000000e+00 0.0000000e+00 
0.0000000e+00 0.0000000e+00 0.0000000e+00 
0.0000000e+00 0.0000000e+00 0.0000000e+00 
0.0000000e+00 0.0000000e+00 0.0000000e+00 
0.0000000e+00 0.0000000e+00 0.0000000e+00 
0.0000000e+00 0.0000000e+00 0.0000000e+00 
0.0000000e+00 0.0000000e+00 0.0000000e+00 
6.2090521e-07 9.7256986e-07 -1.2312794e-06 
3.3068043e-06 1.9802135e-06 -6.6960497e-06 
2.1550914e-06 -1.3608849e-06 -4.5144384e-06 
-8.6081030e-07 -1.6732325e-06 -3.5952323e-07 
-4.5858328e-06 -2.3473683e-06 2.2196825e-06 
-1.0382207e-05 2.2833837e-07 1.1050723e-06 
-2.7277274e-06 -3.4306138e-06 -1.0779471e-06 
1.4508954e-05 -2.2960273e-06 -4.2962129e-06 
3.7320020e-05 -1.5734571e-06 -8.3704363e-06 
5.6169993e-05 -1.8338698e-06 -3.2513383e-06 
5.1637911e-05 -2.8431616e-06 8.4795611e-06 
2.7933513e-05 -1.6986866e-06 5.1519091e-06 
9.0565127e-06 1.9643526e-06 6.0093845e-07 
2.2962997e-06 1.3814082e-06 -2.5789213e-06 
-1.9557945e-06 2.2830859e-06 -2.5517582e-07 
-8.2706147e-06 -1.7330996e-06 1.8180414e-06 
-3.9902620e-06 1.3038215e-06 2.8193056e-06 
1.0388237e-05 -2.2170179e-06 2.2276261e-06 
3.4450793e-05 -1.1771289e-05 -6.9659095e-06 
5.4195494e-05 -1.2071981e-05 -1.0488214e-06 
4.1116607e-05 -8.7537874e-06 1.5715075e-05 
2.0026426e-05 -1.2281569e-06 1.3662830e-05 
4.2932079e-06 2.3026400e-06 3.6509787e-06 
1.2472706e-06 3.3032857e-06 -4.8798133e-06 
0.0000000e+00 -1.3899506e-05 0.0000000e+00 
0.0000000e+00 4.6180924e-07 0.0000000e+00 
0.0000000e+00 -1.6637963e-05 0.0000000e+00 
0.0000000e+00 -2.6731421e-05 0.0000000e+00 
0.0000000e+00 -3.7706432e-05 0.0000000e+00 
0.0000000e+00 -2.5604950e-05 0.0000000e+00 
0.0000000e+00 1.6864700e-05 0.0000000e+00 
0.0000000e+00 -8.3681742e-05 0.0000000e+00 
0.0000000e+00 -2.3726141e-04 0.0000000e+00 
0.0000000e+00 -5.4216856e-04 0.0000000e+00 
0.0000000e+00 -5.4465467e-04 0.0000000e+00 
0.0000000e+00 -2.1837086e-04 0.0000000e+00 
0.0000000e+00 -4.8800015e-05 0.0000000e+00 
0.0000000e+00 -3.8331818e-05 0.0000000e+00 
0.0000000e+00 -5.4047567e-05 0.0000000e+00 
0.0000000e+00 2.0291682e-05 0.0000000e+00 
0.0000000e+00 5.2424726e-05 0.0000000e+00 
0.0000000e+00 6.1187425e-06 0.0000000e+00 
0.0000000e+00 -2.0231708e-04 0.0000000e+00 
0.0000000e+00 -5.5343285e-04 0.0000000e+00 
0.0000000e+00 -5.2859844e-04 0.0000000e+00 
0.0000000e+00 -1.1912770e-04 0.0000000e+00 
0.0000000e+00 2.8280861e-05 0.0000000e+00 
0.0000000e+00 2.7798955e-05 0.0000000e+00 
1.1801185e-06 -3.2527998e-07 1.2298243e-06 
3.3354629e-06 -7.6439064e-06 -2.3928733e-06 
9.0206818e-08 -2.2319070e-07 -9.5928344e-06 
4.1291546e-06 -6.7414667e-06 -1.2991773e-05 
1.1773177e-07 3.7745374e-06 -1.7883679e-06 
-8.2013372e-07 5.0976769e-06 -6.0151001e-06 
-4.7345546e-07 -2.9633393e-06 -3.9956708e-06 
-4.0595441e-07 -2.1441901e-06 -3.3786673e-06 
-5.6434569e-06 -2.1835826e-06 2.3081163e-06 
-1.0010095e-05 1.4622710e-06 6.8319383e-07 
-5.2359674e-06 -5.3391869e-07 -9.7739701e-07 
1.7638415e-05 -3.6351496e-06 -9.0944905e-06 
3.5682751e-05 -1.2307783e-06 -3.2276387e-06 
3.8763446e-05 -1.4823250e-06 1.2871081e-06 
2.6356192e-05 3.2700277e-07 9.4708939e-06 
8.9649047e-06 3.9654128e-06 7.0393673e-07 
4.6734776e-06 1.8581204e-06 -4.5184820e-06 
2.4996592e-07 -2.0149364e-06 -6.1996020e-06 
-5.8750961e-06 -6.3737559e-07 3.3250610e-06 
-2.0025741e-06 1.6168162e-06 -3.1455183e-06 
3.9792294e-06 4.3026839e-06 3.8515423e-06 
2.2553309e-05 -4.7213744e-06 2.3139510e-06 
2.8230643e-05 -9.6220301e-06 5.9954632e-06 
3.4680608e-05 -1.3519083e-05 -6.8811084e-07 
3.5665078e-05 3.6498636e-06 1.1739859e-05 
2.1193124e-05 1.9471192e-06 6.7349461e-06 
1.0017633e-05 4.6436217e-06 2.3637244e-06 
6.7330898e-06 3.0627200e-06 -3.8434682e-06 
-4.4490257e-06 -1.2458773e-05 -2.7899543e-07 
0.0000000e+00 -1.2527232e-05 0.0000000e+00 
0.0000000e+00 -8.3976074e-06 0.0000000e+00 
0.0000000e+00 -4.7707133e-05 0.0000000e+00 
0.0000000e+00 -6.0202692e-05 0.0000000e+00 
0.0000000e+00 -1.9763183e-06 0.0000000e+00 
0.0000000e+00 -4.3828004e-05 0.0000000e+00 
0.0000000e+00 -7.9432648e-05 0.0000000e+00 
0.0000000e+00 -1.3423380e-05 0.0000000e+00 
0.0000000e+00 -5.2167382e-04 0.0000000e+00 
0.0000000e+00 -1.2639423e-03 0.0000000e+00 
0.0000000e+00 -1.1920686e-03 0.0000000e+00 
0.0000000e+00 -4.3908454e-04 0.0000000e+00 
0.0000000e+00 -7.2400959e-05 0.0000000e+00 
0.0000000e+00 -6.0527153e-05 0.0000000e+00 
0.0000000e+00 -3.6026944e-05 0.0000000e+00 
0.0000000e+00 -4.4074983e-05 0.0000000e+00 
0.0000000e+00 1.1217083e-04 0.0000000e+00 
0.0000000e+00 1.3796912e-04 0.0000000e+00 
0.0000000e+00 -5.4057385e-04 0.0000000e+00 
0.0000000e+00 -1.2203684e-03 0.0000000e+00 
0.0000000e+00 -1.1526222e-03 0.0000000e+00 
0.0000000e+00 -2.3090444e-04 0.0000000e+00 
0.0000000e+00 5.2752483e-05 0.0000000e+00 
0.0000000e+00 5.1882940e-05 0.0000000e+00 
5.0344765e-06 -4.3469686e-06 -6.0399175e-06 
-2.6789976e-05 -1.9605603e-05 -5.5021287e-06 
-2.9871967e-06 -6.3767511e-05 1.4355092e-05 
2.7059718e-06 -9.4763644e-05 -4.0813661e-06 
-3.5019904e-05 -7.7557168e-05 -4.0506962e-05 
-2.8711445e-05 -8.2131828e-06 -3.8696780e-05 
-6.5414156e-06 9.2801183e-06 -2.8475372e-06 
3.6599838e-05 -2.0933927e-05 6.2365230e-05 
-1.5629035e-06 -5.6173161e-05 1.0639393e-04 
-3.1869518e-04 -5.5132934e-04 3.1363126e-04 
-7.3291687e-04 -1.4712490e-03 1.3312827e-04 
-6.5679889e-04 -1.5181056e-03 -9.8814802e-05 
-1.6880865e-04 -4.3015770e-04 -2.3604864e-04 
-1.5885496e-05 -1.0802702e-04 -1.0262087e-04 
-4.9719853e-05 -8.6832719e-05 -8.4540930e-05 
-3.9975719e-05 -4.6923971e-05 -1.0076601e-04 
4.6762671e-06 1.9905594e-05 -1.0980889e-04 
8.3079292e-05 1.4118799e-04 -3.1865016e-05 
5.8190933e-05 1.1055848e-04 1.3855308e-04 
-2.9346504e-04 -4.7934780e-04 3.4809127e-04 
-7.0778478e-04 -1.3547725e-03 9.2276299e-05 
-5.8829249e-04 -1.4428669e-03 -1.6269334e-04 
-1.1203153e-04 -1.9590053e-04 -1.8726324e-04 
8.2605029e-06 8.2147191e-05 -6.4376603e-05 
8.1638300e-06 6.0602819e-05 5.7505063e-06 
0.0000000e+00 -2.9406972e-05 0.0000000e+00 
0.0000000e+00 -3.9672825e-05 0.0000000e+00 
0.0000000e+00 -1.0276747e-04 0.0000000e+00 
0.0000000e+00 -5.3600794e-05 0.0000000e+00 
0.0000000e+00 -6.0535012e-06 0.0000000e+00 
0.0000000e+00 -1.2116362e-04 0.0000000e+00 
0.0000000e+00 -5.0814077e-05 0.0000000e+00 
0.0000000e+00 3.6600708e-05 0.0000000e+00 
0.0000000e+00 -9.1131625e-04 0.0000000e+00 
0.0000000e+00 -2.4344546e-03 0.0000000e+00 
0.0000000e+00 -2.3025742e-03 0.0000000e+00 
0.0000000e+00 -7.2530436e-04 0.0000000e+00 
0.0000000e+00 -5.7552748e-05 0.0000000e+00 
0.0000000e+00 -4.6830217e-05 0.0000000e+00 
0.0000000e+00 -1.0208585e-04 0.0000000e+00 
0.0000000e+00 -6.7852758e-05 0.0000000e+00 
0.0000000e+00 1.8262991e-04 0.0000000e+00 
0.0000000e+00 2.1548154e-04 0.0000000e+00 
0.0000000e+00 -1.0034861e-03 0.0000000e+00 
0.0000000e+00 -2.3979289e-03 0.0000000e+00 
0.0000000e+00 -2.2073160e-03 0.0000000e+00 
0.0000000e+00 -3.8974016e-04 0.0000000e+00 
0.0000000e+00 1.1649077e-04 0.0000000e+00 
0.0000000e+00 6.9211550e-05 0.0000000e+00 
-6.7469105e-06 -3.0220306e-07 -7.3076294e-06 
2.0524944e-06 -1.1129097e-05 -7.6129791e-06 
4.2022759e-07 -2.2739054e-05 -5.4507204e-06 
-7.2528787e-06 -1.0773298e-05 -5.2157266e-06 
-1.5694377e-05 1.4500941e-06 -5.4839993e-06 
-8.6987984e-06 8.2750848e-06 8.1513127e-07 
8.1787903e-06 1.2110586e-05 1.0569053e-05 
2.5098820e-05 1.2914038e-05 1.9597679e-05 
5.3268432e-05 -6.7005014e-05 1.3773393e-05 
4.2916556e-05 -1.1947929e-04 3.1616760e-06 
3.7671001e-05 -1.2285374e-04 1.1658676e-05 
4.1001378e-05 -8.2313236e-05 -8.9659915e-07 
1.0864744e-06 -1.2365170e-05 -1.8459983e-05 
-9.0675157e-06 -8.6237433e-06 -2.2045713e-05 
-1.1386411e-05 -1.0706253e-05 -2.3265176e-05 
-4.5046227e-06 1.0136618e-05 -2.1969814e-05 
7.8704188e-06 3.9945906e-05 9.3114699e-07 
4.1286978e-05 -6.9669870e-05 2.2404327e-05 
4.9521757e-05 -1.1831906e-04 -5.1599864e-06 
3.7669572e-05 -1.1233008e-04 1.3910737e-05 
3.4580778e-05 -2.6627456e-05 9.9817580e-06 
7.7783716e-06 1.8746452e-05 -6.2833901e-06 
3.2440107e-06 1.9494635e-05 -1.0696730e-05 
4.5231060e-05 1.0498477e-04 8.6521970e-05 
0.0000000e+00 0.0000000e+00 0.0000000e+00 
0.0000000e+00 0.0000000e+00 0.0000000e+00 
0.0000000e+00 0.0000000e+00 0.0000000e+00 