# vtk DataFile Version 4.0
vtk output
ASCII
DATASET UNSTRUCTURED_GRID
POINTS 766 float
0.0000000e+00 0.0000000e+00 0.0000000e+00 
0.0000000e+00 0.0000000e+00 5.0000000e+01 
5.0000000e+00 0.0000000e+00 0.0000000e+00 
5.0000000e+00 0.0000000e+00 5.0000000e+01 
5.0000000e+00 1.0000000e+00 0.0000000e+00 
5.0000000e+00 1.0000000e+00 5.0000000e+01 
0.0000000e+00 1.0000000e+00 0.0000000e+00 
0.0000000e+00 1.0000000e+00 5.0000000e+01 
5.0000000e+00 2.0000000e+00 0.0000000e+00 
5.0000000e+00 2.0000000e+00 5.0000000e+01 
3.0000000e+00 2.0000000e+00 0.0000000e+00 
3.0000000e+00 2.0000000e+00 5.0000000e+01 
0.0000000e+00 2.0000000e+00 0.0000000e+00 
0.0000000e+00 2.0000000e+00 5.0000000e+01 
1.5000000e+00 3.0000000e+00 0.0000000e+00 
1.5000000e+00 3.0000000e+00 5.0000000e+01 
7.5000000e-01 3.0000000e+00 0.0000000e+00 
7.5000000e-01 3.0000000e+00 5.0000000e+01 
0.0000000e+00 3.0000000e+00 0.0000000e+00 
0.0000000e+00 3.0000000e+00 5.0000000e+01 
7.5000000e-01 3.0000000e+00 5.0000000e-01 
7.5000000e-01 3.0000000e+00 1.0000000e+00 
7.5000000e-01 3.0000000e+00 1.5000000e+00 
7.5000000e-01 3.0000000e+00 2.0000000e+00 
7.5000000e-01 3.0000000e+00 2.5000000e+00 
7.5000000e-01 3.0000000e+00 3.0000000e+00 
7.5000000e-01 3.0000000e+00 3.5000000e+00 
7.5000000e-01 3.0000000e+00 4.0000000e+00 
7.5000000e-01 3.0000000e+00 4.5000000e+00 
7.5000000e-01 3.0000000e+00 5.0000000e+00 
7.5000000e-01 3.0000000e+00 5.5000000e+00 
7.5000000e-01 3.0000000e+00 6.0000000e+00 
7.5000000e-01 3.0000000e+00 6.5000000e+00 
7.5000000e-01 3.0000000e+00 7.0000000e+00 
7.5000000e-01 3.0000000e+00 7.5000000e+00 
7.5000000e-01 3.0000000e+00 8.0000000e+00 
7.5000000e-01 3.0000000e+00 8.5000000e+00 
7.5000000e-01 3.0000000e+00 9.0000000e+00 
7.5000000e-01 3.0000000e+00 9.5000000e+00 
7.5000000e-01 3.0000000e+00 1.0000000e+01 
7.5000000e-01 3.0000000e+00 1.0500000e+01 
7.5000000e-01 3.0000000e+00 1.1000000e+01 
7.5000000e-01 3.0000000e+00 1.1500000e+01 
7.5000000e-01 3.0000000e+00 1.2000000e+01 
7.5000000e-01 3.0000000e+00 1.2500000e+01 
7.5000000e-01 3.0000000e+00 1.3000000e+01 
7.5000000e-01 3.0000000e+00 1.3500000e+01 
7.5000000e-01 3.0000000e+00 1.4000000e+01 
7.5000000e-01 3.0000000e+00 1.4500000e+01 
7.5000000e-01 3.0000000e+00 1.5000000e+01 
7.5000000e-01 3.0000000e+00 1.5500000e+01 
7.5000000e-01 3.0000000e+00 1.6000000e+01 
7.5000000e-01 3.0000000e+00 1.6500000e+01 
7.5000000e-01 3.0000000e+00 1.7000000e+01 
7.5000000e-01 3.0000000e+00 1.7500000e+01 
7.5000000e-01 3.0000000e+00 1.8000000e+01 
7.5000000e-01 3.0000000e+00 1.8500000e+01 
7.5000000e-01 3.0000000e+00 1.9000000e+01 
7.5000000e-01 3.0000000e+00 1.9500000e+01 
7.5000000e-01 3.0000000e+00 2.0000000e+01 
7.5000000e-01 3.0000000e+00 2.0500000e+01 
7.5000000e-01 3.0000000e+00 2.1000000e+01 
7.5000000e-01 3.0000000e+00 2.1500000e+01 
7.5000000e-01 3.0000000e+00 2.2000000e+01 
7.5000000e-01 3.0000000e+00 2.2500000e+01 
7.5000000e-01 3.0000000e+00 2.3000000e+01 
7.5000000e-01 3.0000000e+00 2.3500000e+01 
7.5000000e-01 3.0000000e+00 2.4000000e+01 
7.5000000e-01 3.0000000e+00 2.4500000e+01 
7.5000000e-01 3.0000000e+00 2.5000000e+01 
7.5000000e-01 3.0000000e+00 2.5500000e+01 
7.5000000e-01 3.0000000e+00 2.6000000e+01 
7.5000000e-01 3.0000000e+00 2.6500000e+01 
7.5000000e-01 3.0000000e+00 2.7000000e+01 
7.5000000e-01 3.0000000e+00 2.7500000e+01 
7.5000000e-01 3.0000000e+00 2.8000000e+01 
7.5000000e-01 3.0000000e+00 2.8500000e+01 
7.5000000e-01 3.0000000e+00 2.9000000e+01 
7.5000000e-01 3.0000000e+00 2.9500000e+01 
7.5000000e-01 3.0000000e+00 3.0000000e+01 
7.5000000e-01 3.0000000e+00 3.0500000e+01 
7.5000000e-01 3.0000000e+00 3.1000000e+01 
7.5000000e-01 3.0000000e+00 3.1500000e+01 
7.5000000e-01 3.0000000e+00 3.2000000e+01 
7.5000000e-01 3.0000000e+00 3.2500000e+01 
7.5000000e-01 3.0000000e+00 3.3000000e+01 
7.5000000e-01 3.0000000e+00 3.3500000e+01 
7.5000000e-01 3.0000000e+00 3.4000000e+01 
7.5000000e-01 3.0000000e+00 3.4500000e+01 
7.5000000e-01 3.0000000e+00 3.5000000e+01 
7.5000000e-01 3.0000000e+00 3.5500000e+01 
7.5000000e-01 3.0000000e+00 3.6000000e+01 
7.5000000e-01 3.0000000e+00 3.6500000e+01 
7.5000000e-01 3.0000000e+00 3.7000000e+01 
7.5000000e-01 3.0000000e+00 3.7500000e+01 
7.5000000e-01 3.0000000e+00 3.8000000e+01 
7.5000000e-01 3.0000000e+00 3.8500000e+01 
7.5000000e-01 3.0000000e+00 3.9000000e+01 
7.5000000e-01 3.0000000e+00 3.9500000e+01 
7.5000000e-01 3.0000000e+00 4.0000000e+01 
7.5000000e-01 3.0000000e+00 4.0500000e+01 
7.5000000e-01 3.0000000e+00 4.1000000e+01 
7.5000000e-01 3.0000000e+00 4.1500000e+01 
7.5000000e-01 3.0000000e+00 4.2000000e+01 
7.5000000e-01 3.0000000e+00 4.2500000e+01 
7.5000000e-01 3.0000000e+00 4.3000000e+01 
7.5000000e-01 3.0000000e+00 4.3500000e+01 
7.5000000e-01 3.0000000e+00 4.4000000e+01 
7.5000000e-01 3.0000000e+00 4.4500000e+01 
7.5000000e-01 3.0000000e+00 4.5000000e+01 
7.5000000e-01 3.0000000e+00 4.5500000e+01 
7.5000000e-01 3.0000000e+00 4.6000000e+01 
7.5000000e-01 3.0000000e+00 4.6500000e+01 
7.5000000e-01 3.0000000e+00 4.7000000e+01 
7.5000000e-01 3.0000000e+00 4.7500000e+01 
7.5000000e-01 3.0000000e+00 4.8000000e+01 
7.5000000e-01 3.0000000e+00 4.8500000e+01 
7.5000000e-01 3.0000000e+00 4.9000000e+01 
7.5000000e-01 3.0000000e+00 4.9500000e+01 
7.5000000e-01 3.0250001e+00 0.0000000e+00 
7.5000000e-01 3.0250001e+00 5.0000000e-01 
7.5000000e-01 3.0250001e+00 1.0000000e+00 
7.5000000e-01 3.0250001e+00 1.5000000e+00 
7.5000000e-01 3.0250001e+00 2.0000000e+00 
7.5000000e-01 3.0250001e+00 2.5000000e+00 
7.5000000e-01 3.0250001e+00 3.0000000e+00 
7.5000000e-01 3.0250001e+00 3.5000000e+00 
7.5000000e-01 3.0250001e+00 4.0000000e+00 
7.5000000e-01 3.0250001e+00 4.5000000e+00 
7.5000000e-01 3.0250001e+00 5.0000000e+00 
7.5000000e-01 3.0250001e+00 5.5000000e+00 
7.5000000e-01 3.0250001e+00 6.0000000e+00 
7.5000000e-01 3.0250001e+00 6.5000000e+00 
7.5000000e-01 3.0250001e+00 7.0000000e+00 
7.5000000e-01 3.0250001e+00 7.5000000e+00 
7.5000000e-01 3.0250001e+00 8.0000000e+00 
7.5000000e-01 3.0250001e+00 8.5000000e+00 
7.5000000e-01 3.0250001e+00 9.0000000e+00 
7.5000000e-01 3.0250001e+00 9.5000000e+00 
7.5000000e-01 3.0250001e+00 1.0000000e+01 
7.5000000e-01 3.0250001e+00 1.0500000e+01 
7.5000000e-01 3.0250001e+00 1.1000000e+01 
7.5000000e-01 3.0250001e+00 1.1500000e+01 
7.5000000e-01 3.0250001e+00 1.2000000e+01 
7.5000000e-01 3.0250001e+00 1.2500000e+01 
7.5000000e-01 3.0250001e+00 1.3000000e+01 
7.5000000e-01 3.0250001e+00 1.3500000e+01 
7.5000000e-01 3.0250001e+00 1.4000000e+01 
7.5000000e-01 3.0250001e+00 1.4500000e+01 
7.5000000e-01 3.0250001e+00 1.5000000e+01 
7.5000000e-01 3.0250001e+00 1.5500000e+01 
7.5000000e-01 3.0250001e+00 1.6000000e+01 
7.5000000e-01 3.0250001e+00 1.6500000e+01 
7.5000000e-01 3.0250001e+00 1.7000000e+01 
7.5000000e-01 3.0250001e+00 1.7500000e+01 
7.5000000e-01 3.0250001e+00 1.8000000e+01 
7.5000000e-01 3.0250001e+00 1.8500000e+01 
7.5000000e-01 3.0250001e+00 1.9000000e+01 
7.5000000e-01 3.0250001e+00 1.9500000e+01 
7.5000000e-01 3.0250001e+00 2.0000000e+01 
7.5000000e-01 3.0250001e+00 2.0500000e+01 
7.5000000e-01 3.0250001e+00 2.1000000e+01 
7.5000000e-01 3.0250001e+00 2.1500000e+01 
7.5000000e-01 3.0250001e+00 2.2000000e+01 
7.5000000e-01 3.0250001e+00 2.2500000e+01 
7.5000000e-01 3.0250001e+00 2.3000000e+01 
7.5000000e-01 3.0250001e+00 2.3500000e+01 
7.5000000e-01 3.0250001e+00 2.4000000e+01 
7.5000000e-01 3.0250001e+00 2.4500000e+01 
7.5000000e-01 3.0250001e+00 2.5000000e+01 
7.5000000e-01 3.0250001e+00 2.5500000e+01 
7.5000000e-01 3.0250001e+00 2.6000000e+01 
7.5000000e-01 3.0250001e+00 2.6500000e+01 
7.5000000e-01 3.0250001e+00 2.7000000e+01 
7.5000000e-01 3.0250001e+00 2.7500000e+01 
7.5000000e-01 3.0250001e+00 2.8000000e+01 
7.5000000e-01 3.0250001e+00 2.8500000e+01 
7.5000000e-01 3.0250001e+00 2.9000000e+01 
7.5000000e-01 3.0250001e+00 2.9500000e+01 
7.5000000e-01 3.0250001e+00 3.0000000e+01 
7.5000000e-01 3.0250001e+00 3.0500000e+01 
7.5000000e-01 3.0250001e+00 3.1000000e+01 
7.5000000e-01 3.0250001e+00 3.1500000e+01 
7.5000000e-01 3.0250001e+00 3.2000000e+01 
7.5000000e-01 3.0250001e+00 3.2500000e+01 
7.5000000e-01 3.0250001e+00 3.3000000e+01 
7.5000000e-01 3.0250001e+00 3.3500000e+01 
7.5000000e-01 3.0250001e+00 3.4000000e+01 
7.5000000e-01 3.0250001e+00 3.4500000e+01 
7.5000000e-01 3.0250001e+00 3.5000000e+01 
7.5000000e-01 3.0250001e+00 3.5500000e+01 
7.5000000e-01 3.0250001e+00 3.6000000e+01 
7.5000000e-01 3.0250001e+00 3.6500000e+01 
7.5000000e-01 3.0250001e+00 3.7000000e+01 
7.5000000e-01 3.0250001e+00 3.7500000e+01 
7.5000000e-01 3.0250001e+00 3.8000000e+01 
7.5000000e-01 3.0250001e+00 3.8500000e+01 
7.5000000e-01 3.0250001e+00 3.9000000e+01 
7.5000000e-01 3.0250001e+00 3.9500000e+01 
7.5000000e-01 3.0250001e+00 4.0000000e+01 
7.5000000e-01 3.0250001e+00 4.0500000e+01 
7.5000000e-01 3.0250001e+00 4.1000000e+01 
7.5000000e-01 3.0250001e+00 4.1500000e+01 
7.5000000e-01 3.0250001e+00 4.2000000e+01 
7.5000000e-01 3.0250001e+00 4.2500000e+01 
7.5000000e-01 3.0250001e+00 4.3000000e+01 
7.5000000e-01 3.0250001e+00 4.3500000e+01 
7.5000000e-01 3.0250001e+00 4.4000000e+01 
7.5000000e-01 3.0250001e+00 4.4500000e+01 
7.5000000e-01 3.0250001e+00 4.5000000e+01 
7.5000000e-01 3.0250001e+00 4.5500000e+01 
7.5000000e-01 3.0250001e+00 4.6000000e+01 
7.5000000e-01 3.0250001e+00 4.6500000e+01 
7.5000000e-01 3.0250001e+00 4.7000000e+01 
7.5000000e-01 3.0250001e+00 4.7500000e+01 
7.5000000e-01 3.0250001e+00 4.8000000e+01 
7.5000000e-01 3.0250001e+00 4.8500000e+01 
7.5000000e-01 3.0250001e+00 4.9000000e+01 
7.5000000e-01 3.0250001e+00 4.9500000e+01 
7.5000000e-01 3.0250001e+00 5.0000000e+01 
3.0000000e+00 2.0000000e+00 3.6000000e+01 
8.0487806e-01 3.0000000e+00 3.6000000e+01 
0.0000000e+00 0.0000000e+00 2.0000000e+00 
0.0000000e+00 0.0000000e+00 4.0000000e+00 
0.0000000e+00 0.0000000e+00 6.0000000e+00 
0.0000000e+00 0.0000000e+00 8.0000000e+00 
0.0000000e+00 0.0000000e+00 1.0000000e+01 
0.0000000e+00 0.0000000e+00 1.2000000e+01 
0.0000000e+00 0.0000000e+00 1.4000000e+01 
0.0000000e+00 0.0000000e+00 1.6000000e+01 
[...]
POINT_DATA 766
FIELD FieldData 3
DISPLACEMENT 3 766  float
0.0000000e+00 0.0000000e+00 0.0000000e+00 
0.0000000e+00 0.0000000e+00 0.0000000e+00 
0.0000000e+00 0.0000000e+00 0.0000000e+00 
0.0000000e+00 0.0000000e+00 0.0000000e+00 
-1.5862545e-06 7.4738335e-07 3.7630404e-08 
2.0870307e-06 3.0451093e-07 2.4099872e-06 
0.0000000e+00 1.6229853e-05 0.0000000e+00 
0.0000000e+00 2.3544715e-05 0.0000000e+00 
-2.8859363e-06 1.6820827e-06 5.3649615e-07 
3.7618588e-06 -7.8257074e-07 -1.5026974e-06 
-5.7739919e-07 2.2571912e-06 6.7005503e-06 
2.1715548e-06 8.3023315e-06 4.8747283e-06 
0.0000000e+00 2.3139344e-05 0.0000000e+00 
0.0000000e+00 5.1720039e-05 0.0000000e+00 
6.7317987e-06 1.1588211e-05 2.5877605e-05 
1.7870632e-05 4.1351879e-05 -2.1256568e-05 
2.4179781e-05 -2.9287916e-05 2.1997830e-05 
3.0054365e-05 2.2700506e-05 -8.9649748e-06 
0.0000000e+00 2.3313063e-05 0.0000000e+00 
0.0000000e+00 1.1044645e-04 0.0000000e+00 
1.4662918e-05 -3.0317906e-05 2.8627222e-05 
-4.1599178e-06 -3.7141825e-05 2.5608697e-05 
4.3613486e-06 -5.7285873e-05 3.2385549e-05 
-2.0077784e-06 -7.8716686e-05 3.2222302e-05 
5.0413933e-06 -9.0594032e-05 1.9367915e-05 
-1.5190014e-05 -8.6518194e-05 1.2467868e-05 
2.6290272e-06 -7.4680211e-05 -1.4195221e-05 
-1.0802106e-05 -6.5353015e-05 -2.6202883e-05 
-9.5917567e-06 -6.2108367e-05 -3.5530626e-05 
-2.0184827e-05 -5.6171815e-05 -3.3948560e-05 
-1.4773297e-05 -3.2463184e-05 -2.6183083e-05 
-2.0617697e-05 -7.2722119e-06 -3.8336802e-05 
-2.5651887e-05 8.2446759e-06 -4.5130972e-05 
-6.5058780e-06 1.5549149e-05 -2.3169334e-05 
-3.3015829e-05 2.2340342e-05 -3.4237666e-05 
6.4706992e-06 3.4243207e-05 -3.4925280e-05 
1.1279491e-05 4.8830749e-05 1.1606210e-06 
2.0998919e-05 5.5548509e-05 -1.4992475e-05 
3.4251552e-05 3.7308597e-05 -3.1181011e-05 
3.1592190e-05 3.9809318e-05 1.0682098e-05 
4.6577250e-05 8.0648446e-05 -1.1267914e-05 
1.9945215e-05 1.2274529e-04 -1.1319668e-05 
4.8919621e-05 1.2724620e-04 5.5525648e-05 
-1.3669115e-06 3.7919373e-05 5.0390790e-05 
-5.2000731e-05 -1.6115044e-04 9.8227494e-05 
-1.3193654e-05 -4.5002671e-04 1.4491063e-04 
-8.6905085e-05 -8.5416477e-04 1.8999560e-04 
-1.1237034e-04 -1.4716049e-03 1.4638787e-04 
-2.8327524e-04 -2.3947642e-03 2.1679254e-04 
-3.1352963e-04 -3.4671118e-03 2.1539809e-04 
-2.1087087e-04 -4.3423478e-03 1.4431360e-04 
-1.6497976e-04 -4.3723769e-03 1.4045136e-04 
-2.7302056e-04 -4.0942132e-03 6.6282671e-05 
-3.7209736e-04 -3.9521572e-03 6.0354854e-05 
-2.5293397e-04 -4.1379542e-03 3.2703105e-05 
-9.3726136e-05 -4.1674119e-03 -1.0935249e-05 
-1.2796682e-04 -3.5362639e-03 -1.0139805e-04 
-2.2681124e-04 -2.5555340e-03 -1.5103143e-04 
-2.0312039e-04 -1.6649794e-03 -1.6094862e-04 
-5.9332106e-05 -9.7148539e-04 -1.0072877e-04 
-3.2670410e-05 -5.3638098e-04 -1.3120288e-04 
-3.9202489e-05 -2.8691444e-04 -1.0654589e-04 
-2.8036571e-05 -1.5063958e-04 -8.6221837e-05 
-2.1891268e-05 -8.7287830e-05 -6.7625362e-05 
-3.1866221e-05 -7.7437631e-05 -5.7836605e-05 
-3.6267760e-05 -8.3996420e-05 -6.0834034e-05 
-3.0037605e-05 -7.3744624e-05 -5.5606386e-05 
-2.8050736e-05 -6.2279672e-05 -6.3150670e-05 
-3.5100980e-05 -7.5191027e-05 -7.8268153e-05 
-3.6956775e-05 -1.1385910e-04 -4.8512276e-05 
-4.2259755e-05 -1.5137365e-04 -3.2484528e-05 
-2.6901427e-05 -1.7018025e-04 -5.2923155e-05 
-4.5392699e-05 -1.5960772e-04 -4.0110914e-05 
-4.1958272e-05 -1.3472994e-04 -4.7047728e-05 
-4.3240136e-05 -1.2007052e-04 -8.5170577e-05 
5.6909512e-06 -9.0985937e-05 -6.1042840e-05 
2.5334541e-05 -3.4833531e-05 -3.9170263e-05 
1.6047172e-05 2.9463201e-05 -4.7509966e-05 
6.0875158e-05 7.1644274e-05 -3.0705141e-05 
3.8535003e-05 1.0135255e-04 3.7823445e-06 
6.1869636e-05 1.4260561e-04 -6.8847103e-06 
7.6436780e-05 2.0525554e-04 2.7636272e-05 
5.5971101e-05 2.8016351e-04 7.4391042e-05 
4.3043790e-05 2.5934164e-04 6.1093153e-05 
-2.5567326e-05 7.6370525e-05 9.8513621e-05 
-1.2314808e-05 -2.4743163e-04 1.2442582e-04 
-1.0031606e-04 -7.2025292e-04 1.5107710e-04 
-1.2645578e-04 -1.3562761e-03 1.1912666e-04 
-2.0746265e-04 -2.2035476e-03 1.9634872e-04 
-2.2381522e-04 -3.1586648e-03 2.0465783e-04 
-1.1135955e-04 -3.9759930e-03 9.9701560e-05 
-3.8430071e-04 -4.0438185e-03 1.3276876e-04 
-2.2043053e-04 -3.7943544e-03 1.6151431e-04 
-2.7540338e-04 -3.6947934e-03 8.2470724e-05 
-1.7264174e-04 -3.9330097e-03 3.4948291e-05 
-2.2031430e-05 -3.9659850e-03 9.0910526e-06 
-7.4322576e-05 -3.3010973e-03 -9.9734345e-05 
-1.6242982e-04 -2.3159916e-03 -1.4448684e-04 
-1.6730880e-04 -1.4645811e-03 -1.3820070e-04 
-7.0545975e-05 -8.2143687e-04 -7.9711164e-05 
-3.9300870e-05 -3.9775495e-04 -1.2094647e-04 
-3.5734418e-05 -1.2435172e-04 -9.7909586e-05 
-2.7773292e-05 4.4851200e-05 -8.8650253e-05 
-8.8382658e-06 1.3620153e-04 -8.1526261e-05 
2.8502307e-06 1.6904512e-04 -7.3618183e-05 
1.2290413e-05 1.7450619e-04 -6.3870422e-05 
1.8034469e-05 1.7148799e-04 -6.6848399e-05 
2.5811167e-05 1.5576922e-04 -7.0511254e-05 
2.6559977e-05 1.1644417e-04 -4.6010959e-05 
2.9499161e-05 6.1694838e-05 -2.1127558e-05 
1.5749991e-05 5.2198429e-06 1.8503849e-06 
-4.6977057e-06 -4.4897104e-05 1.8835190e-05 
-1.1283434e-05 -8.6342618e-05 2.6353418e-05 
-1.6734570e-05 -1.1556723e-04 2.1538583e-05 
-1.3876540e-05 -1.2321564e-04 1.1873660e-05 
-9.2557921e-06 -1.0365813e-04 -2.3085038e-06 
-1.0225345e-06 -6.4924505e-05 -1.4194567e-05 
6.1337118e-06 -2.2105445e-05 -1.9904797e-05 
1.2639353e-05 1.0764117e-05 -1.8999892e-05 
0.0000000e+00 -2.8782351e-05 0.0000000e+00 
0.0000000e+00 -3.0131690e-05 0.0000000e+00 
0.0000000e+00 -3.8358434e-05 0.0000000e+00 
0.0000000e+00 -5.7638041e-05 0.0000000e+00 
0.0000000e+00 -7.8682380e-05 0.0000000e+00 
0.0000000e+00 -8.9723027e-05 0.0000000e+00 
0.0000000e+00 -8.5988133e-05 0.0000000e+00 
0.0000000e+00 -7.4880278e-05 0.0000000e+00 
0.0000000e+00 -6.6282300e-05 0.0000000e+00 
0.0000000e+00 -6.2664323e-05 0.0000000e+00 
0.0000000e+00 -5.4593082e-05 0.0000000e+00 
0.0000000e+00 -3.2604741e-05 0.0000000e+00 
0.0000000e+00 -7.7165896e-06 0.0000000e+00 
0.0000000e+00 8.0198042e-06 0.0000000e+00 
0.0000000e+00 1.5243142e-05 0.0000000e+00 
0.0000000e+00 2.2797609e-05 0.0000000e+00 
0.0000000e+00 3.5099998e-05 0.0000000e+00 
0.0000000e+00 4.9208378e-05 0.0000000e+00 
0.0000000e+00 5.2272924e-05 0.0000000e+00 
0.0000000e+00 3.8229929e-05 0.0000000e+00 
0.0000000e+00 4.2260999e-05 0.0000000e+00 
0.0000000e+00 8.1225335e-05 0.0000000e+00 
0.0000000e+00 1.2475772e-04 0.0000000e+00 
0.0000000e+00 1.2516089e-04 0.0000000e+00 
0.0000000e+00 3.5139023e-05 0.0000000e+00 
0.0000000e+00 -1.5931283e-04 0.0000000e+00 
0.0000000e+00 -4.4636466e-04 0.0000000e+00 
0.0000000e+00 -8.5385307e-04 0.0000000e+00 
0.0000000e+00 -1.4821767e-03 0.0000000e+00 
0.0000000e+00 -2.4052295e-03 0.0000000e+00 
0.0000000e+00 -3.5042365e-03 0.0000000e+00 
0.0000000e+00 -4.3648514e-03 0.0000000e+00 
0.0000000e+00 -4.3988097e-03 0.0000000e+00 
0.0000000e+00 -4.1082394e-03 0.0000000e+00 
0.0000000e+00 -3.9858874e-03 0.0000000e+00 
0.0000000e+00 -4.1594435e-03 0.0000000e+00 
0.0000000e+00 -4.2003803e-03 0.0000000e+00 
0.0000000e+00 -3.5521220e-03 0.0000000e+00 
0.0000000e+00 -2.5734594e-03 0.0000000e+00 
0.0000000e+00 -1.6679616e-03 0.0000000e+00 
0.0000000e+00 -9.7720930e-04 0.0000000e+00 
0.0000000e+00 -5.3575361e-04 0.0000000e+00 
0.0000000e+00 -2.8466296e-04 0.0000000e+00 
0.0000000e+00 -1.4988503e-04 0.0000000e+00 
0.0000000e+00 -8.8775851e-05 0.0000000e+00 
0.0000000e+00 -7.7225246e-05 0.0000000e+00 
0.0000000e+00 -8.1057144e-05 0.0000000e+00 
0.0000000e+00 -7.3069430e-05 0.0000000e+00 
0.0000000e+00 -6.3784340e-05 0.0000000e+00 
0.0000000e+00 -7.6760502e-05 0.0000000e+00 
0.0000000e+00 -1.1355666e-04 0.0000000e+00 
0.0000000e+00 -1.5090150e-04 0.0000000e+00 
0.0000000e+00 -1.6866680e-04 0.0000000e+00 
0.0000000e+00 -1.5920494e-04 0.0000000e+00 
0.0000000e+00 -1.3750653e-04 0.0000000e+00 
0.0000000e+00 -1.1957241e-04 0.0000000e+00 
0.0000000e+00 -8.9311601e-05 0.0000000e+00 
0.0000000e+00 -3.4281973e-05 0.0000000e+00 
0.0000000e+00 2.7927837e-05 0.0000000e+00 
0.0000000e+00 7.0620554e-05 0.0000000e+00 
0.0000000e+00 1.0125353e-04 0.0000000e+00 
0.0000000e+00 1.4364283e-04 0.0000000e+00 
0.0000000e+00 2.1097819e-04 0.0000000e+00 
0.0000000e+00 2.7894718e-04 0.0000000e+00 
0.0000000e+00 2.5506751e-04 0.0000000e+00 
0.0000000e+00 7.7092132e-05 0.0000000e+00 
0.0000000e+00 -2.4814517e-04 0.0000000e+00 
0.0000000e+00 -7.1854668e-04 0.0000000e+00 
0.0000000e+00 -1.3615352e-03 0.0000000e+00 
0.0000000e+00 -2.2119086e-03 0.0000000e+00 
0.0000000e+00 -3.2015052e-03 0.0000000e+00 
0.0000000e+00 -4.0049455e-03 0.0000000e+00 
0.0000000e+00 -4.0610656e-03 0.0000000e+00 
0.0000000e+00 -3.8091361e-03 0.0000000e+00 
0.0000000e+00 -3.7324494e-03 0.0000000e+00 
0.0000000e+00 -3.9533330e-03 0.0000000e+00 
0.0000000e+00 -3.9987992e-03 0.0000000e+00 
0.0000000e+00 -3.3182995e-03 0.0000000e+00 
0.0000000e+00 -2.3349370e-03 0.0000000e+00 
0.0000000e+00 -1.4674454e-03 0.0000000e+00 
0.0000000e+00 -8.2424068e-04 0.0000000e+00 
0.0000000e+00 -3.9660442e-04 0.0000000e+00 
0.0000000e+00 -1.2354636e-04 0.0000000e+00 
0.0000000e+00 4.5112869e-05 0.0000000e+00 
0.0000000e+00 1.3597986e-04 0.0000000e+00 
0.0000000e+00 1.6990653e-04 0.0000000e+00 
0.0000000e+00 1.7560950e-04 0.0000000e+00 
0.0000000e+00 1.7164978e-04 0.0000000e+00 
0.0000000e+00 1.5477800e-04 0.0000000e+00 
0.0000000e+00 1.1629146e-04 0.0000000e+00 
0.0000000e+00 6.2112107e-05 0.0000000e+00 
0.0000000e+00 5.4845677e-06 0.0000000e+00 
0.0000000e+00 -4.5083008e-05 0.0000000e+00 
0.0000000e+00 -8.6674343e-05 0.0000000e+00 
0.0000000e+00 -1.1529791e-04 0.0000000e+00 
0.0000000e+00 -1.2249079e-04 0.0000000e+00 
0.0000000e+00 -1.0336239e-04 0.0000000e+00 
0.0000000e+00 -6.5046595e-05 0.0000000e+00 
0.0000000e+00 -2.2279881e-05 0.0000000e+00 
0.0000000e+00 1.0401390e-05 0.0000000e+00 
0.0000000e+00 2.2507418e-05 0.0000000e+00 
8.4323437e-05 -9.2718612e-05 6.6005400e-06 
-2.3293949e-04 -3.6972575e-03 1.6205377e-04 
0.0000000e+00 0.0000000e+00 0.0000000e+00 
0.0000000e+00 0.0000000e+00 0.0000000e+00 
0.0000000e+00 0.0000000e+00 0.0000000e+00 
0.0000000e+00 0.0000000e+00 0.0000000e+00 
0.0000000e+00 0.0000000e+00 0.0000000e+00 
0.0000000e+00 0.0000000e+00 0.0000000e+00 
0.0000000e+00 0.0000000e+00 0.0000000e+00 
0.0000000e+00 0.0000000e+00 0.0000000e+00 
0.0000000e+00 0.0000000e+00 0.0000000e+00 
0.0000000e+00 0.0000000e+00 0.0000000e+00 
0.0000000e+00 0.0000000e+00 0.0000000e+00 
0.0000000e+00 0.0000000e+00 0.0000000e+00 
0.0000000e+00 0.0000000e+00 0.0000000e+00 
0.0000000e+00 0.0000000e+00 0.0000000e+00 
0.0000000e+00 0.0000000e+00 0.0000000e+00 
0.0000000e+00 0.0000000e+00 0.0000000e+00 
0.0000000e+00 0.0000000e+00 0.0000000e+00 
0.0000000e+00 0.0000000e+00 0.0000000e+00 
0.0000000e+00 0.0000000e+00 0.0000000e+00 
0.0000000e+00 0.0000000e+00 0.0000000e+00 
0.0000000e+00 0.0000000e+00 0.0000000e+00 
0.0000000e+00 0.0000000e+00 0.0000000e+00 
0.0000000e+00 0.0000000e+00 0.0000000e+00 
0.0000000e+00 0.0000000e+00 0.0000000e+00 
0.0000000e+00 0.0000000e+00 0.0000000e+00 
0.0000000e+00 0.0000000e+00 0.0000000e+00 
0.0000000e+00 0.0000000e+00 0.0000000e+00 
0.0000000e+00 0.0000000e+00 0.0000000e+00 
0.0000000e+00 0.0000000e+00 0.0000000e+00 
0.0000000e+00 0.0000000e+00 0.0000000e+00 
0.0000000e+00 0.0000000e+00 0.0000000e+00 
0.0000000e+00 0.0000000e+00 0.0000000e+00 
0.0000000e+00 0.0000000e+00 0.0000000e+00 
0.0000000e+00 0.0000000e+00 0.0000000e+00 
0.0000000e+00 0.0000000e+00 0.0000000e+00 
0.0000000e+00 0.0000000e+00 0.0000000e+00 
0.0000000e+00 0.0000000e+00 0.0000000e+00 
0.0000000e+00 0.0000000e+00 0.0000000e+00 
0.0000000e+00 0.0000000e+00 0.0000000e+00 
0.0000000e+00 0.0000000e+00 0.0000000e+00 
0.0000000e+00 0.0000000e+00 0.0000000e+00 
0.0000000e+00 0.0000000e+00 0.0000000e+00 
0.0000000e+00 0.0000000e+00 0.0000000e+00 
0.0000000e+00 0.0000000e+00 0.0000000e+00 
0.0000000e+00 0.0000000e+00 0.0000000e+00 
0.0000000e+00 0.0000000e+00 0.0000000e+00 
0.0000000e+00 0.0000000e+00 0.0000000e+00 
0.0000000e+00 0.0000000e+00 0.0000000e+00 
0.0000000e+00 0.0000000e+00 0.0000000e+00 
0.0000000e+00 0.0000000e+00 0.0000000e+00 
0.0000000e+00 0.0000000e+00 0.0000000e+00 
0.0000000e+00 0.0000000e+00 0.0000000e+00 
3.4438308e-06 -1.9133020e-06 -2.5889417e-06 
1.6919349e-06 -5.4309144e-06 -1.0487959e-06 
-6.7697815e-06 -1.2310174e-06 4.2410770e-06 
-5.6034510e-06 2.9500393e-06 2.4752828e-07 
-1.6804206e-07 4.6629766e-06 -5.0018052e-06 
1.7776189e-05 4.7870994e-06 -7.5353855e-06 
4.2124488e-05 -1.4976372e-06 -1.2260108e-05 
5.7183261e-05 -5.2837700e-06 -8.1527323e-06 
4.8328464e-05 -6.4945907e-06 8.2073839e-06 
2.2989130e-05 -8.5579632e-06 4.2745319e-06 
9.3136996e-06 -6.5709705e-06 -2.4237293e-06 
3.8009821e-06 -1.4420728e-07 -2.9129865e-07 
-6.2305918e-07 -7.9517457e-07 8.6328682e-06 
-6.2557956e-06 4.3333889e-06 4.8271195e-06 
-2.0738466e-06 7.3250640e-06 4.4672279e-06 
1.2121463e-05 2.2793583e-06 2.4176493e-06 
3.2322332e-05 -9.9984363e-06 -1.2180605e-05 
5.2591335e-05 -1.5299209e-05 -1.9510158e-07 
4.6257264e-05 -1.2179505e-05 1.6950755e-05 
1.9616669e-05 -3.7801262e-06 8.2225906e-06 
2.2598385e-06 2.4019359e-06 -2.7726151e-06 
-1.8609843e-06 2.0947855e-06 -5.3012309e-06 
-2.5144260e-07 -1.0764918e-06 9.2770925e-08 
7.3340118e-07 -3.7426350e-06 5.2390933e-06 
0.0000000e+00 -1.1857413e-05 0.0000000e+00 
0.0000000e+00 -2.1019177e-05 0.0000000e+00 
0.0000000e+00 -4.0418268e-05 0.0000000e+00 
0.0000000e+00 3.2868036e-06 0.0000000e+00 
0.0000000e+00 7.7698845e-05 0.0000000e+00 
0.0000000e+00 -6.7423430e-06 0.0000000e+00 
0.0000000e+00 -2.1809508e-04 0.0000000e+00 
0.0000000e+00 -5.6292501e-04 0.0000000e+00 
0.0000000e+00 -5.5377634e-04 0.0000000e+00 
0.0000000e+00 -1.9023538e-04 0.0000000e+00 
0.0000000e+00 -6.1389619e-05 0.0000000e+00 
0.0000000e+00 -4.4490283e-05 0.0000000e+00 
0.0000000e+00 -8.0133635e-05 0.0000000e+00 
0.0000000e+00 3.2160006e-05 0.0000000e+00 
0.0000000e+00 7.5866374e-05 0.0000000e+00 
0.0000000e+00 -4.1328732e-07 0.0000000e+00 
0.0000000e+00 -1.7224140e-04 0.0000000e+00 
0.0000000e+00 -5.8213132e-04 0.0000000e+00 
0.0000000e+00 -4.9692538e-04 0.0000000e+00 
0.0000000e+00 -1.5904661e-04 0.0000000e+00 
0.0000000e+00 2.5798105e-05 0.0000000e+00 
0.0000000e+00 4.8942056e-05 0.0000000e+00 
0.0000000e+00 -1.8580784e-05 0.0000000e+00 
0.0000000e+00 -3.9938117e-05 0.0000000e+00 
-1.2143004e-06 1.2298227e-06 7.2265368e-07 
-3.9286742e-06 7.0880028e-06 -1.7588704e-07 
1.0259056e-06 3.1306178e-07 8.7742146e-06 
-2.5872896e-06 1.3247963e-05 1.2994747e-05 
1.1136367e-06 -1.5794061e-06 6.2716282e-07 
-1.6461026e-06 -8.3168188e-06 -8.6211020e-07 
-1.0068399e-05 -4.0935815e-06 5.6968969e-07 
-7.3236010e-06 8.2019496e-06 1.2644143e-06 
1.3017785e-06 8.0217569e-06 -8.0730479e-06 
2.2550601e-05 4.6178639e-06 -1.0482860e-05 
3.9170947e-05 3.0455632e-07 -1.6870841e-06 
3.2731576e-05 -3.0149224e-06 2.4507278e-07 
1.7425291e-05 -1.5332583e-06 7.9436122e-06 
-1.1431575e-06 -2.5714089e-06 2.6191224e-06 
-3.5687697e-06 -6.2393278e-06 -1.0710926e-05 
-9.8205719e-06 -2.2672125e-06 -2.6893065e-06 
-1.4153543e-05 -3.2093485e-06 8.6124119e-06 
-6.6546309e-06 9.0732410e-06 -1.4949886e-06 
-2.2244119e-07 1.2389532e-05 2.7417200e-06 
2.0403313e-05 7.6052964e-07 1.4072574e-06 
3.4810033e-05 -8.4157391e-06 -2.2114239e-06 
4.5915142e-05 -1.5620188e-05 7.2108596e-06 
2.8431661e-05 -9.7972443e-06 1.8614108e-05 
6.2408185e-06 2.3161515e-06 1.5188685e-07 
3.2565006e-06 3.5313426e-06 -5.2079517e-06 
-1.1743796e-06 4.8496963e-07 -3.1613367e-06 
-4.7008139e-06 -2.7072008e-06 4.0870164e-06 
-3.6532824e-06 -3.9278093e-06 3.9618576e-06 
-3.1215731e-07 6.4327428e-06 5.7036877e-06 
0.0000000e+00 -3.5745077e-05 0.0000000e+00 
0.0000000e+00 -5.6062894e-05 0.0000000e+00 
0.0000000e+00 -1.2541738e-05 0.0000000e+00 
0.0000000e+00 2.7084700e-06 0.0000000e+00 
0.0000000e+00 1.9039719e-05 0.0000000e+00 
0.0000000e+00 1.0903549e-04 0.0000000e+00 
0.0000000e+00 -4.8870157e-04 0.0000000e+00 
0.0000000e+00 -1.3002929e-03 0.0000000e+00 
0.0000000e+00 -1.1948957e-03 0.0000000e+00 
0.0000000e+00 -3.8864609e-04 0.0000000e+00 
0.0000000e+00 -1.0568403e-04 0.0000000e+00 
0.0000000e+00 -5.8794711e-05 0.0000000e+00 
0.0000000e+00 -9.6399403e-05 0.0000000e+00 
0.0000000e+00 -3.6166268e-05 0.0000000e+00 
0.0000000e+00 1.2583465e-04 0.0000000e+00 
0.0000000e+00 1.4789910e-04 0.0000000e+00 
0.0000000e+00 -4.6862598e-04 0.0000000e+00 
0.0000000e+00 -1.2792271e-03 0.0000000e+00 
0.0000000e+00 -1.0792963e-03 0.0000000e+00 
0.0000000e+00 -3.0952095e-04 0.0000000e+00 
0.0000000e+00 5.3556083e-05 0.0000000e+00 
0.0000000e+00 9.4051269e-05 0.0000000e+00 
0.0000000e+00 -3.1262181e-05 0.0000000e+00 
0.0000000e+00 -7.5940712e-05 0.0000000e+00 
-3.1108148e-06 1.9479228e-05 1.1074319e-05 
-6.0515572e-06 -5.6423298e-05 2.3761435e-05 
-1.9900537e-05 -4.4511638e-05 -4.2500171e-05 
-1.8556764e-05 1.5636913e-05 -3.9659339e-05 
-4.2482184e-06 3.2899734e-05 -2.8914654e-05 
5.2897602e-05 2.4954708e-05 2.2225908e-05 
2.1303857e-05 2.4408782e-05 1.1204700e-04 
-3.0187826e-04 -5.2518275e-04 3.2697953e-04 
-7.3527847e-04 -1.4154053e-03 1.1927637e-04 
-6.0985540e-04 -1.4089625e-03 -8.4606523e-05 
-1.4879357e-04 -2.9383181e-04 -2.0528617e-04 
-2.1701868e-05 -4.2860109e-05 -7.8963021e-05 
-3.6808960e-05 -2.5213203e-05 -5.1893869e-05 
-4.5540484e-05 -7.6600605e-05 -1.2185206e-05 
-1.1329353e-05 -3.8842689e-05 -7.3093608e-05 
8.1674683e-05 4.8599581e-05 -3.9552702e-05 
5.4128417e-05 1.5519820e-04 1.0749776e-04 
-2.7907657e-04 -6.4960174e-04 3.1678344e-04 
-6.5465819e-04 -2.0341869e-03 1.7517596e-04 
-5.3576520e-04 -1.5062992e-03 -7.5020122e-05 
-1.4526231e-04 -2.6033539e-04 -1.9460251e-04 
3.9243423e-06 7.5140328e-05 -1.1457815e-04 
4.4896991e-05 9.7740558e-05 -7.4760035e-05 
-1.1515690e-05 -3.6674235e-05 5.1318573e-05 
-1.7566124e-05 -8.6098611e-05 2.0417306e-06 
0.0000000e+00 -7.5584241e-05 0.0000000e+00 
0.0000000e+00 -3.7200178e-05 0.0000000e+00 
0.0000000e+00 -2.8527573e-05 0.0000000e+00 
0.0000000e+00 -6.6155939e-05 0.0000000e+00 
0.0000000e+00 6.7139757e-05 0.0000000e+00 
0.0000000e+00 1.8450424e-04 0.0000000e+00 
0.0000000e+00 -8.8948436e-04 0.0000000e+00 
0.0000000e+00 -2.4705476e-03 0.0000000e+00 
0.0000000e+00 -2.2837063e-03 0.0000000e+00 
0.0000000e+00 -6.5837515e-04 0.0000000e+00 
0.0000000e+00 -1.2365921e-04 0.0000000e+00 
0.0000000e+00 -2.4950612e-05 0.0000000e+00 
0.0000000e+00 -2.1180337e-04 0.0000000e+00 
0.0000000e+00 -1.1612082e-04 0.0000000e+00 
0.0000000e+00 1.9127717e-04 0.0000000e+00 
0.0000000e+00 2.3533845e-04 0.0000000e+00 
0.0000000e+00 -8.2902302e-04 0.0000000e+00 
0.0000000e+00 -2.3905213e-03 0.0000000e+00 
0.0000000e+00 -2.0681301e-03 0.0000000e+00 
0.0000000e+00 -5.1391229e-04 0.0000000e+00 
0.0000000e+00 1.1817703e-04 0.0000000e+00 
0.0000000e+00 1.4188471e-04 0.0000000e+00 
0.0000000e+00 -5.1640509e-05 0.0000000e+00 
0.0000000e+00 -1.1530041e-04 0.0000000e+00 
4.8914530e-06 -1.6440101e-05 -1.3594693e-07 
-5.1135080e-06 -1.9345516e-05 -2.4357041e-06 
-1.0830750e-05 -2.8600741e-06 -4.1892927e-06 
-6.0846614e-06 3.4689122e-06 -1.1241355e-05 
1.0369438e-05 1.6549397e-05 -1.0109458e-07 
2.7279561e-05 2.8495515e-05 2.1288979e-05 
5.4971049e-05 -6.7412613e-05 1.4617096e-05 
4.4627996e-05 -1.2611273e-04 3.3505480e-06 
4.0660263e-05 -1.2955928e-04 1.6354650e-05 
3.1323216e-05 -8.2598293e-05 9.9208746e-06 
-8.5908823e-06 -2.7237467e-05 -2.1964372e-05 
-1.0960151e-05 -3.0702333e-05 -2.0658035e-05 
-2.1165923e-05 -3.5769328e-05 -1.0768570e-05 
-1.1411434e-05 -7.7121067e-06 -1.3168842e-05 
9.8575010e-06 2.7275892e-05 5.1223296e-06 
1.5154371e-05 4.0750576e-05 3.5878395e-05 
3.8887156e-05 -4.9259987e-05 2.4774126e-05 
4.1163043e-05 -9.4619638e-05 2.2997492e-05 
3.2074578e-05 -6.0345279e-05 1.6113792e-05 
6.1195698e-07 1.9772782e-05 -2.3969555e-05 
-1.4993923e-06 1.7989261e-05 -2.1317725e-05 
-6.0384000e-06 -1.1768971e-05 -2.6871226e-06 
-7.7909626e-06 -2.4501929e-05 9.3923236e-06 
-9.9012861e-05 -1.1955897e-03 6.8124835e-05 
0.0000000e+00 0.0000000e+00 0.0000000e+00 
0.0000000e+00 0.0000000e+00 0.0000000e+00 
0.0000000e+00 0.0000000e+00 0.0000000e+00 
0.0000000e+00 0.0000000e+00 0.0000000e+00 