# vtk DataFile Version 4.0
vtk output
ASCII
DATASET UNSTRUCTURED_GRID
POINTS 661 float
0.0000000e+00 0.0000000e+00 0.0000000e+00 
0.0000000e+00 0.0000000e+00 4.0000000e+01 
5.0000000e+00 0.0000000e+00 0.0000000e+00 
5.0000000e+00 0.0000000e+00 4.0000000e+01 
5.0000000e+00 1.0000000e+00 0.0000000e+00 
5.0000000e+00 1.0000000e+00 4.0000000e+01 
0.0000000e+00 1.0000000e+00 0.0000000e+00 
0.0000000e+00 1.0000000e+00 4.0000000e+01 
5.0000000e+00 2.0000000e+00 0.0000000e+00 
5.0000000e+00 2.0000000e+00 4.0000000e+01 
3.0000000e+00 2.0000000e+00 0.0000000e+00 
3.0000000e+00 2.0000000e+00 4.0000000e+01 
0.0000000e+00 2.0000000e+00 0.0000000e+00 
0.0000000e+00 2.0000000e+00 4.0000000e+01 
1.5000000e+00 3.0000000e+00 0.0000000e+00 
1.5000000e+00 3.0000000e+00 4.0000000e+01 
7.5000000e-01 3.0000000e+00 0.0000000e+00 
7.5000000e-01 3.0000000e+00 4.0000000e+01 
0.0000000e+00 3.0000000e+00 0.0000000e+00 
0.0000000e+00 3.0000000e+00 4.0000000e+01 
7.5000000e-01 3.0000000e+00 5.0000000e-01 
7.5000000e-01 3.0000000e+00 1.0000000e+00 
7.5000000e-01 3.0000000e+00 1.5000000e+00 
7.5000000e-01 3.0000000e+00 2.0000000e+00 
7.5000000e-01 3.0000000e+00 2.5000000e+00 
7.5000000e-01 3.0000000e+00 3.0000000e+00 
7.5000000e-01 3.0000000e+00 3.5000000e+00 
7.5000000e-01 3.0000000e+00 4.0000000e+00 
7.5000000e-01 3.0000000e+00 4.5000000e+00 
7.5000000e-01 3.0000000e+00 5.0000000e+00 
7.5000000e-01 3.0000000e+00 5.5000000e+00 
7.5000000e-01 3.0000000e+00 6.0000000e+00 
7.5000000e-01 3.0000000e+00 6.5000000e+00 
7.5000000e-01 3.0000000e+00 7.0000000e+00 
7.5000000e-01 3.0000000e+00 7.5000000e+00 
7.5000000e-01 3.0000000e+00 8.0000000e+00 
7.5000000e-01 3.0000000e+00 8.5000000e+00 
7.5000000e-01 3.0000000e+00 9.0000000e+00 
7.5000000e-01 3.0000000e+00 9.5000000e+00 
7.5000000e-01 3.0000000e+00 1.0000000e+01 
7.5000000e-01 3.0000000e+00 1.0500000e+01 
7.5000000e-01 3.0000000e+00 1.1000000e+01 
7.5000000e-01 3.0000000e+00 1.1500000e+01 
7.5000000e-01 3.0000000e+00 1.2000000e+01 
7.5000000e-01 3.0000000e+00 1.2500000e+01 
7.5000000e-01 3.0000000e+00 1.3000000e+01 
7.5000000e-01 3.0000000e+00 1.3500000e+01 
7.5000000e-01 3.0000000e+00 1.4000000e+01 
7.5000000e-01 3.0000000e+00 1.4500000e+01 
7.5000000e-01 3.0000000e+00 1.5000000e+01 
7.5000000e-01 3.0000000e+00 1.5500000e+01 
7.5000000e-01 3.0000000e+00 1.6000000e+01 
7.5000000e-01 3.0000000e+00 1.6500000e+01 
7.5000000e-01 3.0000000e+00 1.7000000e+01 
7.5000000e-01 3.0000000e+00 1.7500000e+01 
7.5000000e-01 3.0000000e+00 1.8000000e+01 
7.5000000e-01 3.0000000e+00 1.8500000e+01 
7.5000000e-01 3.0000000e+00 1.9000000e+01 
7.5000000e-01 3.0000000e+00 1.9500000e+01 
7.5000000e-01 3.0000000e+00 2.0000000e+01 
7.5000000e-01 3.0000000e+00 2.0500000e+01 
7.5000000e-01 3.0000000e+00 2.1000000e+01 
7.5000000e-01 3.0000000e+00 2.1500000e+01 
7.5000000e-01 3.0000000e+00 2.2000000e+01 
7.5000000e-01 3.0000000e+00 2.2500000e+01 
7.5000000e-01 3.0000000e+00 2.3000000e+01 
7.5000000e-01 3.0000000e+00 2.3500000e+01 
7.5000000e-01 3.0000000e+00 2.4000000e+01 
7.5000000e-01 3.0000000e+00 2.4500000e+01 
7.5000000e-01 3.0000000e+00 2.5000000e+01 
7.5000000e-01 3.0000000e+00 2.5500000e+01 
7.5000000e-01 3.0000000e+00 2.6000000e+01 
7.5000000e-01 3.0000000e+00 2.6500000e+01 
7.5000000e-01 3.0000000e+00 2.7000000e+01 
7.5000000e-01 3.0000000e+00 2.7500000e+01 
7.5000000e-01 3.0000000e+00 2.8000000e+01 
7.5000000e-01 3.0000000e+00 2.8500000e+01 
7.5000000e-01 3.0000000e+00 2.9000000e+01 
7.5000000e-01 3.0000000e+00 2.9500000e+01 
7.5000000e-01 3.0000000e+00 3.0000000e+01 
7.5000000e-01 3.0000000e+00 3.0500000e+01 
7.5000000e-01 3.0000000e+00 3.1000000e+01 
7.5000000e-01 3.0000000e+00 3.1500000e+01 
7.5000000e-01 3.0000000e+00 3.2000000e+01 
7.5000000e-01 3.0000000e+00 3.2500000e+01 
7.5000000e-01 3.0000000e+00 3.3000000e+01 
7.5000000e-01 3.0000000e+00 3.3500000e+01 
7.5000000e-01 3.0000000e+00 3.4000000e+01 
7.5000000e-01 3.0000000e+00 3.4500000e+01 
7.5000000e-01 3.0000000e+00 3.5000000e+01 
7.5000000e-01 3.0000000e+00 3.5500000e+01 
7.5000000e-01 3.0000000e+00 3.6000000e+01 
7.5000000e-01 3.0000000e+00 3.6500000e+01 
7.5000000e-01 3.0000000e+00 3.7000000e+01 
7.5000000e-01 3.0000000e+00 3.7500000e+01 
7.5000000e-01 3.0000000e+00 3.8000000e+01 
7.5000000e-01 3.0000000e+00 3.8500000e+01 
7.5000000e-01 3.0000000e+00 3.9000000e+01 
7.5000000e-01 3.0000000e+00 3.9500000e+01 
7.5000000e-01 3.0000000e+00 4.0500000e+01 
7.5000000e-01 3.0000000e+00 4.1000000e+01 
7.5000000e-01 3.0000000e+00 4.1500000e+01 
7.5000000e-01 3.0000000e+00 4.2000000e+01 
7.5000000e-01 3.0000000e+00 4.2500000e+01 
7.5000000e-01 3.0000000e+00 4.3000000e+01 
7.5000000e-01 3.0000000e+00 4.3500000e+01 
7.5000000e-01 3.0000000e+00 4.4000000e+01 
7.5000000e-01 3.0000000e+00 4.4500000e+01 
7.5000000e-01 3.0000000e+00 4.5000000e+01 
7.5000000e-01 3.0000000e+00 4.5500000e+01 
7.5000000e-01 3.0000000e+00 4.6000000e+01 
7.5000000e-01 3.0000000e+00 4.6500000e+01 
7.5000000e-01 3.0000000e+00 4.7000000e+01 
7.5000000e-01 3.0000000e+00 4.7500000e+01 
7.5000000e-01 3.0000000e+00 4.8000000e+01 
7.5000000e-01 3.0000000e+00 4.8500000e+01 
7.5000000e-01 3.0000000e+00 4.9000000e+01 
7.5000000e-01 3.0000000e+00 4.9500000e+01 
7.5000000e-01 3.0000000e+00 5.0000000e+01 
7.5000000e-01 3.0250001e+00 0.0000000e+00 
7.5000000e-01 3.0250001e+00 5.0000000e-01 
7.5000000e-01 3.0250001e+00 1.0000000e+00 
7.5000000e-01 3.0250001e+00 1.5000000e+00 
7.5000000e-01 3.0250001e+00 2.0000000e+00 
7.5000000e-01 3.0250001e+00 2.5000000e+00 
7.5000000e-01 3.0250001e+00 3.0000000e+00 
7.5000000e-01 3.0250001e+00 3.5000000e+00 
7.5000000e-01 3.0250001e+00 4.0000000e+00 
7.5000000e-01 3.0250001e+00 4.5000000e+00 
7.5000000e-01 3.0250001e+00 5.0000000e+00 
7.5000000e-01 3.0250001e+00 5.5000000e+00 
7.5000000e-01 3.0250001e+00 6.0000000e+00 
7.5000000e-01 3.0250001e+00 6.5000000e+00 
7.5000000e-01 3.0250001e+00 7.0000000e+00 
7.5000000e-01 3.0250001e+00 7.5000000e+00 
7.5000000e-01 3.0250001e+00 8.0000000e+00 
7.5000000e-01 3.0250001e+00 8.5000000e+00 
7.5000000e-01 3.0250001e+00 9.0000000e+00 
7.5000000e-01 3.0250001e+00 9.5000000e+00 
7.5000000e-01 3.0250001e+00 1.0000000e+01 
7.5000000e-01 3.0250001e+00 1.0500000e+01 
7.5000000e-01 3.0250001e+00 1.1000000e+01 
7.5000000e-01 3.0250001e+00 1.1500000e+01 
7.5000000e-01 3.0250001e+00 1.2000000e+01 
7.5000000e-01 3.0250001e+00 1.2500000e+01 
7.5000000e-01 3.0250001e+00 1.3000000e+01 
7.5000000e-01 3.0250001e+00 1.3500000e+01 
7.5000000e-01 3.0250001e+00 1.4000000e+01 
7.5000000e-01 3.0250001e+00 1.4500000e+01 
7.5000000e-01 3.0250001e+00 1.5000000e+01 
7.5000000e-01 3.0250001e+00 1.5500000e+01 
7.5000000e-01 3.0250001e+00 1.6000000e+01 
7.5000000e-01 3.0250001e+00 1.6500000e+01 
7.5000000e-01 3.0250001e+00 1.7000000e+01 
7.5000000e-01 3.0250001e+00 1.7500000e+01 
7.5000000e-01 3.0250001e+00 1.8000000e+01 
7.5000000e-01 3.0250001e+00 1.8500000e+01 
7.5000000e-01 3.0250001e+00 1.9000000e+01 
7.5000000e-01 3.0250001e+00 1.9500000e+01 
7.5000000e-01 3.0250001e+00 2.0000000e+01 
7.5000000e-01 3.0250001e+00 2.0500000e+01 
7.5000000e-01 3.0250001e+00 2.1000000e+01 
7.5000000e-01 3.0250001e+00 2.1500000e+01 
7.5000000e-01 3.0250001e+00 2.2000000e+01 
7.5000000e-01 3.0250001e+00 2.2500000e+01 
7.5000000e-01 3.0250001e+00 2.3000000e+01 
7.5000000e-01 3.0250001e+00 2.3500000e+01 
7.5000000e-01 3.0250001e+00 2.4000000e+01 
7.5000000e-01 3.0250001e+00 2.4500000e+01 
7.5000000e-01 3.0250001e+00 2.5000000e+01 
7.5000000e-01 3.0250001e+00 2.5500000e+01 
7.5000000e-01 3.0250001e+00 2.6000000e+01 
7.5000000e-01 3.0250001e+00 2.6500000e+01 
7.5000000e-01 3.0250001e+00 2.7000000e+01 
7.5000000e-01 3.0250001e+00 2.7500000e+01 
7.5000000e-01 3.0250001e+00 2.8000000e+01 
7.5000000e-01 3.0250001e+00 2.8500000e+01 
7.5000000e-01 3.0250001e+00 2.9000000e+01 
7.5000000e-01 3.0250001e+00 2.9500000e+01 
7.5000000e-01 3.0250001e+00 3.0000000e+01 
7.5000000e-01 3.0250001e+00 3.0500000e+01 
7.5000000e-01 3.0250001e+00 3.1000000e+01 
7.5000000e-01 3.0250001e+00 3.1500000e+01 
7.5000000e-01 3.0250001e+00 3.2000000e+01 
7.5000000e-01 3.0250001e+00 3.2500000e+01 
7.5000000e-01 3.0250001e+00 3.3000000e+01 
7.5000000e-01 3.0250001e+00 3.3500000e+01 
7.5000000e-01 3.0250001e+00 3.4000000e+01 
7.5000000e-01 3.0250001e+00 3.4500000e+01 
7.5000000e-01 3.0250001e+00 3.5000000e+01 
7.5000000e-01 3.0250001e+00 3.5500000e+01 
7.5000000e-01 3.0250001e+00 3.6000000e+01 
7.5000000e-01 3.0250001e+00 3.6500000e+01 
7.5000000e-01 3.0250001e+00 3.7000000e+01 
7.5000000e-01 3.0250001e+00 3.7500000e+01 
7.5000000e-01 3.0250001e+00 3.8000000e+01 
7.5000000e-01 3.0250001e+00 3.8500000e+01 
7.5000000e-01 3.0250001e+00 3.9000000e+01 
7.5000000e-01 3.0250001e+00 3.9500000e+01 
7.5000000e-01 3.0250001e+00 4.0000000e+01 
7.5000000e-01 3.0250001e+00 4.0500000e+01 
7.5000000e-01 3.0250001e+00 4.1000000e+01 
7.5000000e-01 3.0250001e+00 4.1500000e+01 
7.5000000e-01 3.0250001e+00 4.2000000e+01 
7.5000000e-01 3.0250001e+00 4.2500000e+01 
7.5000000e-01 3.0250001e+00 4.3000000e+01 
7.5000000e-01 3.0250001e+00 4.3500000e+01 
7.5000000e-01 3.0250001e+00 4.4000000e+01 
7.5000000e-01 3.0250001e+00 4.4500000e+01 
7.5000000e-01 3.0250001e+00 4.5000000e+01 
7.5000000e-01 3.0250001e+00 4.5500000e+01 
7.5000000e-01 3.0250001e+00 4.6000000e+01 
7.5000000e-01 3.0250001e+00 4.6500000e+01 
7.5000000e-01 3.0250001e+00 4.7000000e+01 
7.5000000e-01 3.0250001e+00 4.7500000e+01 
7.5000000e-01 3.0250001e+00 4.8000000e+01 
7.5000000e-01 3.0250001e+00 4.8500000e+01 
7.5000000e-01 3.0250001e+00 4.9000000e+01 
7.5000000e-01 3.0250001e+00 4.9500000e+01 
7.5000000e-01 3.0250001e+00 5.0000000e+01 
3.0000000e+00 2.0000000e+00 3.6000000e+01 
8.0487806e-01 3.0000000e+00 3.6000000e+01 
0.0000000e+00 0.0000000e+00 2.0000000e+00 
0.0000000e+00 0.0000000e+00 4.0000000e+00 
0.0000000e+00 0.0000000e+00 6.0000000e+00 
0.0000000e+00 0.0000000e+00 8.0000000e+00 
0.0000000e+00 0.0000000e+00 1.0000000e+01 
0.0000000e+00 0.0000000e+00 1.2000000e+01 
0.0000000e+00 0.0000000e+00 1.4000000e+01 
0.0000000e+00 0.0000000e+00 1.6000000e+01 
[...]
POINT_DATA 661
FIELD FieldData 3
DISPLACEMENT 3 661  float
0.0000000e+00 0.0000000e+00 0.0000000e+00 
0.0000000e+00 0.0000000e+00 0.0000000e+00 
0.0000000e+00 0.0000000e+00 0.0000000e+00 
0.0000000e+00 0.0000000e+00 0.0000000e+00 
-9.3479241e-07 2.1969247e-06 -1.0246638e-06 
8.8835368e-06 7.9439897e-06 1.5300442e-05 
0.0000000e+00 2.5489730e-05 0.0000000e+00 
0.0000000e+00 -1.3148050e-04 0.0000000e+00 
-3.4283589e-06 1.5976602e-06 9.6362839e-07 
2.6102249e-05 9.1720931e-06 -9.7489624e-07 
2.9557626e-07 3.1743782e-06 8.3048735e-06 
3.7158523e-05 7.1586153e-05 -9.9072884e-07 
0.0000000e+00 2.8328064e-05 0.0000000e+00 
0.0000000e+00 -2.5308493e-04 0.0000000e+00 
-6.7743404e-06 3.9056299e-06 2.8366070e-05 
-6.1253348e-05 -4.5063640e-05 -1.8826697e-04 
2.8120536e-05 -3.9605366e-05 2.6428817e-05 
-5.6146790e-05 -5.3492520e-04 -2.1235942e-04 
0.0000000e+00 4.0332368e-05 0.0000000e+00 
0.0000000e+00 -9.4800133e-05 0.0000000e+00 
2.0126390e-06 -3.5876663e-05 2.6039703e-05 
3.8149592e-06 -3.2070500e-05 2.8325596e-05 
2.0086786e-06 -3.9795388e-05 1.7067141e-05 
-2.3707073e-06 -6.4441323e-05 2.3868877e-05 
-1.3115745e-06 -9.5234696e-05 1.6094627e-05 
-9.7038037e-06 -1.1273254e-04 4.4329913e-06 
-4.3176137e-06 -1.0382328e-04 -7.2093126e-06 
-1.1206587e-05 -7.8235069e-05 -2.0871385e-05 
-5.1726702e-06 -5.3586791e-05 -4.7304064e-05 
-1.2288398e-05 -4.1039257e-05 -3.7138081e-05 
-2.6910029e-05 -3.2605691e-05 -4.2160264e-05 
-1.5272522e-05 -2.1702657e-05 -5.9733757e-05 
-3.2905333e-05 2.8871315e-07 -3.5043184e-05 
-7.8001676e-06 3.1675139e-05 -4.9761413e-05 
-1.7602382e-05 5.6885743e-05 -5.9417096e-05 
1.2813389e-06 8.3106301e-05 -2.4185789e-05 
3.7656195e-05 1.0668571e-04 -3.3861012e-05 
9.6518661e-06 1.2059566e-04 -2.2228514e-05 
7.1123170e-05 1.2358458e-04 -2.9693708e-06 
3.3689343e-05 1.3833329e-04 -7.8733768e-07 
5.9682363e-05 1.7955936e-04 -9.0941530e-06 
6.4158587e-05 2.2802727e-04 1.5889123e-05 
4.6023779e-05 2.6055612e-04 5.5300348e-05 
4.4456283e-05 1.9322072e-04 6.8463320e-05 
-2.4386984e-05 -1.1495088e-05 1.4571201e-04 
2.2503224e-05 -3.2795029e-04 1.6974103e-04 
-6.5524451e-05 -7.7689864e-04 2.0806293e-04 
-8.4061794e-05 -1.4144436e-03 1.9362113e-04 
-2.5190224e-04 -2.3268412e-03 2.5051131e-04 
-3.2041900e-04 -3.3946042e-03 2.5618862e-04 
-2.1001023e-04 -4.3112431e-03 1.9641015e-04 
-2.1228300e-04 -4.4273809e-03 1.8027569e-04 
-3.2415145e-04 -4.2611556e-03 1.1920022e-04 
-4.1851730e-04 -4.2314716e-03 7.2375042e-05 
-2.9617376e-04 -4.5104269e-03 1.0245887e-05 
-1.5538407e-04 -4.5718937e-03 -5.8629488e-05 
-1.6223131e-04 -3.8609456e-03 -1.7093460e-04 
-2.4006558e-04 -2.7606604e-03 -2.2075020e-04 
-2.1318356e-04 -1.7733456e-03 -2.3618355e-04 
-6.1675411e-05 -1.0159415e-03 -1.8421117e-04 
-2.5043621e-05 -5.2725786e-04 -1.9948477e-04 
-2.9615144e-06 -2.2344370e-04 -1.4986334e-04 
-8.9466575e-06 -4.2964846e-05 -1.0619609e-04 
6.0052065e-07 4.4585955e-05 -6.3252053e-05 
9.6617559e-06 5.4075725e-05 -5.9563001e-05 
-3.3444073e-06 2.2515002e-05 -3.3159096e-05 
-1.6538690e-05 -1.6612916e-05 -2.3232682e-05 
-3.5620855e-05 -5.3806958e-05 -2.7414610e-05 
-5.6257239e-05 -9.0020570e-05 -1.2462521e-05 
-2.7902008e-05 -1.2501693e-04 -1.8726048e-05 
-5.4589065e-05 -1.5913014e-04 -3.5073503e-05 
-3.1962329e-05 -1.8262088e-04 -2.5253243e-05 
-3.7859809e-05 -1.8597482e-04 -1.8580782e-05 
-3.7264017e-05 -1.6125134e-04 -5.6318608e-05 
-1.3190021e-07 -1.1546023e-04 -5.4991524e-05 
-5.5271321e-06 -4.9964150e-05 -4.4230641e-05 
6.5811641e-05 1.9045385e-05 -7.9724516e-05 
2.9721001e-05 7.6829558e-05 -3.1571410e-05 
8.3619227e-05 1.3023100e-04 -1.5662396e-06 
4.9384391e-05 1.6393133e-04 -3.3001255e-05 
4.1064875e-05 1.9177543e-04 1.7194930e-05 
9.4696203e-05 2.3658910e-04 3.5935085e-05 
2.3224191e-05 2.9576605e-04 4.1013282e-05 
4.9089151e-05 2.7867215e-04 9.9634264e-05 
-2.7007020e-05 8.7604982e-05 1.3978235e-04 
-5.2866624e-05 -2.9627539e-04 1.6888509e-04 
-9.7037191e-05 -8.8493701e-04 2.1012152e-04 
-1.6407558e-04 -1.6243478e-03 1.5530469e-04 
-2.5573772e-04 -2.5152739e-03 2.1232113e-04 
-3.1848095e-04 -3.4430104e-03 1.8530012e-04 
-1.7736135e-04 -4.1536591e-03 7.7885270e-05 
-4.0571875e-04 -4.1831085e-03 1.0431491e-04 
-2.7429627e-04 -4.0153195e-03 9.0982758e-05 
-2.8205285e-04 -4.0048375e-03 -8.5725414e-06 
-8.9743975e-05 -4.2240764e-03 -1.3646120e-04 
-1.5768873e-04 -4.2137657e-03 -2.1848232e-04 
-1.4885333e-04 -3.4167056e-03 -3.4477352e-04 
-1.8001514e-04 -2.3075943e-03 -3.4420018e-04 
-1.3298584e-04 -1.3418731e-03 -1.1008758e-04 
0.0000000e+00 1.0056236e-04 0.0000000e+00 
0.0000000e+00 5.7589106e-04 0.0000000e+00 
0.0000000e+00 8.8680891e-04 0.0000000e+00 
0.0000000e+00 1.0352333e-03 0.0000000e+00 
0.0000000e+00 1.0485053e-03 0.0000000e+00 
0.0000000e+00 9.7369269e-04 0.0000000e+00 
0.0000000e+00 8.5381517e-04 0.0000000e+00 
0.0000000e+00 7.1252283e-04 0.0000000e+00 
0.0000000e+00 5.5956218e-04 0.0000000e+00 
0.0000000e+00 4.0433084e-04 0.0000000e+00 
0.0000000e+00 2.6004159e-04 0.0000000e+00 
0.0000000e+00 1.3716533e-04 0.0000000e+00 
0.0000000e+00 3.7779064e-05 0.0000000e+00 
0.0000000e+00 -4.2077878e-05 0.0000000e+00 
0.0000000e+00 -1.0658100e-04 0.0000000e+00 
0.0000000e+00 -1.5792109e-04 0.0000000e+00 
0.0000000e+00 -1.9776003e-04 0.0000000e+00 
0.0000000e+00 -2.2768260e-04 0.0000000e+00 
0.0000000e+00 -2.4747400e-04 0.0000000e+00 
0.0000000e+00 -2.5468264e-04 0.0000000e+00 
0.0000000e+00 -3.9451541e-05 0.0000000e+00 
0.0000000e+00 -3.5831199e-05 0.0000000e+00 
0.0000000e+00 -3.2129909e-05 0.0000000e+00 
0.0000000e+00 -4.0353825e-05 0.0000000e+00 
0.0000000e+00 -6.4892200e-05 0.0000000e+00 
0.0000000e+00 -9.5195210e-05 0.0000000e+00 
0.0000000e+00 -1.1183537e-04 0.0000000e+00 
0.0000000e+00 -1.0346762e-04 0.0000000e+00 
0.0000000e+00 -7.8351201e-05 0.0000000e+00 
0.0000000e+00 -5.4341046e-05 0.0000000e+00 
0.0000000e+00 -4.1159379e-05 0.0000000e+00 
0.0000000e+00 -3.2734970e-05 0.0000000e+00 
0.0000000e+00 -2.1168849e-05 0.0000000e+00 
0.0000000e+00 8.6755335e-07 0.0000000e+00 
0.0000000e+00 3.0401927e-05 0.0000000e+00 
0.0000000e+00 5.7485111e-05 0.0000000e+00 
0.0000000e+00 8.3574712e-05 0.0000000e+00 
0.0000000e+00 1.0653851e-04 0.0000000e+00 
0.0000000e+00 1.1972614e-04 0.0000000e+00 
0.0000000e+00 1.2338758e-04 0.0000000e+00 
0.0000000e+00 1.3914744e-04 0.0000000e+00 
0.0000000e+00 1.8013075e-04 0.0000000e+00 
0.0000000e+00 2.3221182e-04 0.0000000e+00 
0.0000000e+00 2.5898530e-04 0.0000000e+00 
0.0000000e+00 1.8968379e-04 0.0000000e+00 
0.0000000e+00 -1.0107713e-05 0.0000000e+00 
0.0000000e+00 -3.2690252e-04 0.0000000e+00 
0.0000000e+00 -7.7500090e-04 0.0000000e+00 
0.0000000e+00 -1.4224213e-03 0.0000000e+00 
0.0000000e+00 -2.3368406e-03 0.0000000e+00 
0.0000000e+00 -3.4331237e-03 0.0000000e+00 
0.0000000e+00 -4.3337028e-03 0.0000000e+00 
0.0000000e+00 -4.4525126e-03 0.0000000e+00 
0.0000000e+00 -4.2745811e-03 0.0000000e+00 
0.0000000e+00 -4.2658453e-03 0.0000000e+00 
0.0000000e+00 -4.5331977e-03 0.0000000e+00 
0.0000000e+00 -4.6046642e-03 0.0000000e+00 
0.0000000e+00 -3.8776610e-03 0.0000000e+00 
0.0000000e+00 -2.7805290e-03 0.0000000e+00 
0.0000000e+00 -1.7772911e-03 0.0000000e+00 
0.0000000e+00 -1.0209541e-03 0.0000000e+00 
0.0000000e+00 -5.2619720e-04 0.0000000e+00 
0.0000000e+00 -2.2202879e-04 0.0000000e+00 
0.0000000e+00 -4.2142288e-05 0.0000000e+00 
0.0000000e+00 4.4045413e-05 0.0000000e+00 
0.0000000e+00 5.4417058e-05 0.0000000e+00 
0.0000000e+00 2.3298804e-05 0.0000000e+00 
0.0000000e+00 -1.6411082e-05 0.0000000e+00 
0.0000000e+00 -5.3674052e-05 0.0000000e+00 
0.0000000e+00 -8.9739697e-05 0.0000000e+00 
0.0000000e+00 -1.2563651e-04 0.0000000e+00 
0.0000000e+00 -1.5918429e-04 0.0000000e+00 
0.0000000e+00 -1.8252243e-04 0.0000000e+00 
0.0000000e+00 -1.8539155e-04 0.0000000e+00 
0.0000000e+00 -1.6159764e-04 0.0000000e+00 
0.0000000e+00 -1.1496875e-04 0.0000000e+00 
0.0000000e+00 -5.0262282e-05 0.0000000e+00 
0.0000000e+00 1.8246035e-05 0.0000000e+00 
0.0000000e+00 7.8523888e-05 0.0000000e+00 
0.0000000e+00 1.2859696e-04 0.0000000e+00 
0.0000000e+00 1.6264486e-04 0.0000000e+00 
0.0000000e+00 1.9293244e-04 0.0000000e+00 
0.0000000e+00 2.4118778e-04 0.0000000e+00 
0.0000000e+00 2.9714149e-04 0.0000000e+00 
0.0000000e+00 2.7581188e-04 0.0000000e+00 
0.0000000e+00 8.6690110e-05 0.0000000e+00 
0.0000000e+00 -3.0083852e-04 0.0000000e+00 
0.0000000e+00 -8.8304433e-04 0.0000000e+00 
0.0000000e+00 -1.6287708e-03 0.0000000e+00 
0.0000000e+00 -2.5243643e-03 0.0000000e+00 
0.0000000e+00 -3.4789091e-03 0.0000000e+00 
0.0000000e+00 -4.1805222e-03 0.0000000e+00 
0.0000000e+00 -4.2079799e-03 0.0000000e+00 
0.0000000e+00 -4.0298803e-03 0.0000000e+00 
0.0000000e+00 -4.0338314e-03 0.0000000e+00 
0.0000000e+00 -4.2548217e-03 0.0000000e+00 
0.0000000e+00 -4.2355699e-03 0.0000000e+00 
0.0000000e+00 -3.4369261e-03 0.0000000e+00 
0.0000000e+00 -2.3296764e-03 0.0000000e+00 
0.0000000e+00 -1.3408596e-03 0.0000000e+00 
0.0000000e+00 -5.3468073e-04 0.0000000e+00 
0.0000000e+00 1.0092845e-04 0.0000000e+00 
0.0000000e+00 5.7514932e-04 0.0000000e+00 
0.0000000e+00 8.8558457e-04 0.0000000e+00 
0.0000000e+00 1.0347494e-03 0.0000000e+00 
0.0000000e+00 1.0490766e-03 0.0000000e+00 
0.0000000e+00 9.7450963e-04 0.0000000e+00 
0.0000000e+00 8.5407577e-04 0.0000000e+00 
0.0000000e+00 7.1232702e-04 0.0000000e+00 
0.0000000e+00 5.5954076e-04 0.0000000e+00 
0.0000000e+00 4.0471833e-04 0.0000000e+00 
0.0000000e+00 2.6045565e-04 0.0000000e+00 
0.0000000e+00 1.3722962e-04 0.0000000e+00 
0.0000000e+00 3.7622467e-05 0.0000000e+00 
0.0000000e+00 -4.2090283e-05 0.0000000e+00 
0.0000000e+00 -1.0640942e-04 0.0000000e+00 
0.0000000e+00 -1.5788320e-04 0.0000000e+00 
0.0000000e+00 -1.9802064e-04 0.0000000e+00 
0.0000000e+00 -2.2796335e-04 0.0000000e+00 
0.0000000e+00 -2.4742109e-04 0.0000000e+00 
0.0000000e+00 -2.5439696e-04 0.0000000e+00 
9.4249037e-05 -1.5803140e-04 1.0313684e-05 
-1.8570064e-04 -3.6354696e-03 1.1318249e-04 
0.0000000e+00 0.0000000e+00 0.0000000e+00 
0.0000000e+00 0.0000000e+00 0.0000000e+00 
0.0000000e+00 0.0000000e+00 0.0000000e+00 
0.0000000e+00 0.0000000e+00 0.0000000e+00 
0.0000000e+00 0.0000000e+00 0.0000000e+00 
0.0000000e+00 0.0000000e+00 0.0000000e+00 
0.0000000e+00 0.0000000e+00 0.0000000e+00 
0.0000000e+00 0.0000000e+00 0.0000000e+00 
0.0000000e+00 0.0000000e+00 0.0000000e+00 
0.0000000e+00 0.0000000e+00 0.0000000e+00 
0.0000000e+00 0.0000000e+00 0.0000000e+00 
0.0000000e+00 0.0000000e+00 0.0000000e+00 
0.0000000e+00 0.0000000e+00 0.0000000e+00 
0.0000000e+00 0.0000000e+00 0.0000000e+00 
0.0000000e+00 0.0000000e+00 0.0000000e+00 
0.0000000e+00 0.0000000e+00 0.0000000e+00 
0.0000000e+00 0.0000000e+00 0.0000000e+00 
0.0000000e+00 0.0000000e+00 0.0000000e+00 
0.0000000e+00 0.0000000e+00 0.0000000e+00 
0.0000000e+00 0.0000000e+00 0.0000000e+00 
0.0000000e+00 0.0000000e+00 0.0000000e+00 
0.0000000e+00 0.0000000e+00 0.0000000e+00 
0.0000000e+00 0.0000000e+00 0.0000000e+00 
0.0000000e+00 0.0000000e+00 0.0000000e+00 
0.0000000e+00 0.0000000e+00 0.0000000e+00 
0.0000000e+00 0.0000000e+00 0.0000000e+00 
0.0000000e+00 0.0000000e+00 0.0000000e+00 
0.0000000e+00 0.0000000e+00 0.0000000e+00 
0.0000000e+00 0.0000000e+00 0.0000000e+00 
0.0000000e+00 0.0000000e+00 0.0000000e+00 
0.0000000e+00 0.0000000e+00 0.0000000e+00 
0.0000000e+00 0.0000000e+00 0.0000000e+00 
0.0000000e+00 0.0000000e+00 0.0000000e+00 
0.0000000e+00 0.0000000e+00 0.0000000e+00 
0.0000000e+00 0.0000000e+00 0.0000000e+00 
0.0000000e+00 0.0000000e+00 0.0000000e+00 
0.0000000e+00 0.0000000e+00 0.0000000e+00 
0.0000000e+00 0.0000000e+00 0.0000000e+00 
0.0000000e+00 0.0000000e+00 0.0000000e+00 
0.0000000e+00 0.0000000e+00 0.0000000e+00 
0.0000000e+00 0.0000000e+00 0.0000000e+00 
0.0000000e+00 0.0000000e+00 0.0000000e+00 
4.1932180e-06 -7.8578415e-07 -2.1283272e-06 
3.8874523e-06 -3.7373700e-06 -1.4115467e-06 
-7.0082501e-06 -7.0622178e-07 2.9771604e-06 
-1.0759353e-05 4.8342840e-06 2.0606144e-06 
-4.6272976e-06 5.8745227e-06 -5.6459508e-06 
1.4162175e-05 6.1334381e-06 -6.6596540e-06 
4.0879513e-05 -5.4035554e-06 -1.2529711e-05 
6.0433660e-05 -7.5890671e-06 -8.6967420e-06 
5.7028352e-05 -2.2305546e-06 6.5562108e-06 
2.4618141e-05 -2.0397413e-06 3.1050490e-06 
9.7219981e-06 -2.0685650e-06 -1.2220953e-06 
8.0127184e-06 3.5914454e-06 -2.7737690e-07 
1.6856765e-06 -1.5458760e-07 8.7058133e-06 
-3.7959267e-06 4.1982298e-06 4.4813087e-06 
-3.1732845e-06 9.5520491e-06 2.6905846e-06 
4.5658412e-06 2.7450355e-06 -4.7813169e-06 
3.3879591e-05 -8.3025543e-06 -1.8945339e-05 
5.4175918e-05 -2.1603637e-05 3.7704619e-06 
4.2578351e-05 -1.8780731e-05 2.0911482e-05 
0.0000000e+00 -6.0876291e-06 0.0000000e+00 
0.0000000e+00 -1.9631279e-05 0.0000000e+00 
0.0000000e+00 -1.5156404e-05 0.0000000e+00 
0.0000000e+00 4.0872368e-05 0.0000000e+00 
0.0000000e+00 6.8542511e-05 0.0000000e+00 
0.0000000e+00 2.9998982e-05 0.0000000e+00 
0.0000000e+00 -1.8063336e-04 0.0000000e+00 
0.0000000e+00 -5.9849804e-04 0.0000000e+00 
0.0000000e+00 -6.2085956e-04 0.0000000e+00 
0.0000000e+00 -1.9037881e-04 0.0000000e+00 
0.0000000e+00 -1.0778088e-05 0.0000000e+00 
0.0000000e+00 -1.1820931e-05 0.0000000e+00 
0.0000000e+00 -4.7732385e-05 0.0000000e+00 
0.0000000e+00 3.8811442e-05 0.0000000e+00 
0.0000000e+00 5.1777432e-05 0.0000000e+00 
0.0000000e+00 4.1253432e-05 0.0000000e+00 
0.0000000e+00 -2.2338648e-04 0.0000000e+00 
0.0000000e+00 -6.2485790e-04 0.0000000e+00 
0.0000000e+00 -4.7187717e-04 0.0000000e+00 
-5.4631346e-07 1.5567004e-07 1.3099026e-06 
-2.8073405e-06 7.3650840e-06 -3.3183733e-07 
4.1774230e-05 2.7278014e-05 1.9958470e-05 
6.3312029e-05 -7.1829621e-05 1.0482681e-04 
2.4941062e-06 6.1662922e-07 -8.6073001e-08 
1.8585355e-06 -7.9505471e-06 -1.3326658e-06 
-7.8318299e-06 -6.2272529e-06 -1.0894139e-06 
-4.2122369e-06 1.0417319e-05 -2.5273853e-06 
2.3822317e-06 8.5541096e-06 -5.2563341e-06 
2.4372017e-05 6.7618485e-06 -1.2309211e-05 
4.0286748e-05 -1.1432653e-06 5.7866491e-06 
3.1788644e-05 -5.9100189e-06 -3.2086893e-06 
1.3084469e-05 5.6053650e-06 4.7792328e-06 
-4.6283890e-06 5.5989444e-06 -4.7210551e-06 
-2.6729867e-06 2.1654425e-06 -9.4847655e-06 
-1.0607679e-05 5.5301284e-06 5.6093500e-06 
-1.3774985e-05 -1.7167196e-06 7.5282237e-06 
-4.9273390e-06 4.0978930e-06 -4.1311332e-06 
5.8510341e-06 7.2630060e-06 -2.6090170e-06 
2.3984558e-05 5.4670309e-06 -2.7539249e-06 
3.3367360e-05 -1.9451336e-06 -1.6824440e-06 
4.3648350e-05 -1.7924571e-05 9.7221637e-06 
3.5746969e-05 -7.9233996e-06 1.4403174e-05 
-2.2094596e-07 7.5695848e-06 8.1349644e-06 
0.0000000e+00 -1.3528059e-05 0.0000000e+00 
0.0000000e+00 -3.8040358e-05 0.0000000e+00 
0.0000000e+00 6.4563415e-06 0.0000000e+00 
0.0000000e+00 1.1769644e-05 0.0000000e+00 
0.0000000e+00 1.4183755e-04 0.0000000e+00 
0.0000000e+00 1.6080579e-04 0.0000000e+00 
0.0000000e+00 -4.6356325e-04 0.0000000e+00 
0.0000000e+00 -1.3380273e-03 0.0000000e+00 
0.0000000e+00 -1.3469885e-03 0.0000000e+00 
0.0000000e+00 -3.5628417e-04 0.0000000e+00 
0.0000000e+00 -1.0141521e-05 0.0000000e+00 
0.0000000e+00 -2.0222582e-05 0.0000000e+00 
0.0000000e+00 -1.3264190e-04 0.0000000e+00 
0.0000000e+00 1.5323812e-05 0.0000000e+00 
0.0000000e+00 1.9533589e-04 0.0000000e+00 
0.0000000e+00 1.1032941e-04 0.0000000e+00 
0.0000000e+00 -5.5218727e-04 0.0000000e+00 
0.0000000e+00 -1.3617391e-03 0.0000000e+00 
0.0000000e+00 -1.0593508e-03 0.0000000e+00 
5.9434475e-05 -2.0494344e-04 6.7142682e-05 
3.4330110e-08 -4.3386535e-05 2.2921782e-05 
-1.8262932e-05 -5.9752758e-05 -4.0826195e-05 
-2.2573733e-05 1.4406675e-05 -6.2337764e-05 
-5.1854431e-06 5.6642915e-05 -5.8472931e-05 
7.7483419e-05 8.1909377e-05 5.5017708e-06 
5.2354997e-05 1.1177942e-04 1.4397652e-04 
-2.6445132e-04 -4.6405161e-04 4.0754493e-04 
-7.6214387e-04 -1.4699067e-03 2.1197992e-04 
-7.1538897e-04 -1.6391333e-03 -1.4292267e-04 
-1.5305940e-04 -3.1230596e-04 -3.3732099e-04 
1.5896918e-05 3.9458831e-05 -8.0834325e-05 
-3.3344324e-05 -1.8063413e-06 -2.1698345e-06 
-5.6844903e-05 -1.2635135e-04 -1.6932387e-06 
-1.3090998e-05 -4.1960884e-05 -1.0114938e-04 
8.9051900e-05 8.6111744e-05 -5.9362621e-05 
4.9982351e-05 1.8888015e-04 1.3022675e-04 
-3.4854631e-04 -4.7109849e-04 3.9142347e-04 
-5.1573984e-04 -1.7555638e-03 1.1494858e-04 
-5.7298422e-04 -1.1772888e-03 -2.1927456e-04 
0.0000000e+00 -3.9116541e-05 0.0000000e+00 
0.0000000e+00 -4.1569139e-05 0.0000000e+00 
0.0000000e+00 -5.9339793e-05 0.0000000e+00 
0.0000000e+00 -1.0303205e-05 0.0000000e+00 
0.0000000e+00 2.1875536e-04 0.0000000e+00 
0.0000000e+00 2.4651893e-04 0.0000000e+00 
0.0000000e+00 -8.9387817e-04 0.0000000e+00 
0.0000000e+00 -2.5807014e-03 0.0000000e+00 
0.0000000e+00 -2.5372736e-03 0.0000000e+00 
0.0000000e+00 -6.1421207e-04 0.0000000e+00 
0.0000000e+00 2.4652720e-05 0.0000000e+00 
0.0000000e+00 -4.4512431e-05 0.0000000e+00 
0.0000000e+00 -2.2292027e-04 0.0000000e+00 
0.0000000e+00 6.4777538e-05 0.0000000e+00 
0.0000000e+00 2.2887053e-04 0.0000000e+00 
0.0000000e+00 1.7753846e-04 0.0000000e+00 
0.0000000e+00 -1.0639579e-03 0.0000000e+00 
0.0000000e+00 -2.5459221e-03 0.0000000e+00 
0.0000000e+00 -2.1215226e-03 0.0000000e+00 
2.8051941e-06 -1.0067048e-05 -3.1272228e-07 
-2.3150369e-06 -1.8226208e-05 -2.8501809e-06 
-1.2265887e-05 -1.4744440e-05 -7.2946218e-06 
-1.0923341e-05 1.7089766e-05 -1.3944725e-05 
8.4270478e-06 3.7574988e-05 1.5327341e-06 
3.0063318e-05 5.0404629e-05 3.0040055e-05 
5.8585389e-05 -5.3487631e-05 2.7220472e-05 
4.5626850e-05 -1.4073556e-04 2.6666430e-06 
3.6665682e-05 -1.5881968e-04 2.7869562e-06 
2.8997618e-05 -9.0930705e-05 -5.3585163e-06 
-3.6628321e-06 -1.1647237e-05 -2.5405563e-05 
-8.8595816e-06 -2.7124284e-05 -1.1060069e-05 
-1.8886472e-05 -3.9111597e-05 3.3304121e-07 
-6.9956945e-06 -8.9521336e-06 -1.3927100e-05 
1.1176389e-05 2.4392160e-05 5.6193744e-06 
1.0670368e-05 5.6967820e-05 3.2090393e-05 
3.9890067e-05 -2.6695019e-05 1.9719846e-05 
5.4653341e-05 -9.4886760e-05 2.0098962e-05 
-7.6542870e-05 -1.1432768e-03 6.2542233e-05 
0.0000000e+00 0.0000000e+00 0.0000000e+00 
0.0000000e+00 0.0000000e+00 0.0000000e+00 
0.0000000e+00 0.0000000e+00 0.0000000e+00 
0.0000000e+00 0.0000000e+00 0.0000000e+00 
0.0000000e+00 0.0000000e+00 0.0000000e+00 
0.0000000e+00 0.0000000e+00 0.0000000e+00 
0.0000000e+00 0.0000000e+00 0.0000000e+00 
0.0000000e+00 0.0000000e+00 0.0000000e+00 
0.0000000e+00 0.0000000e+00 0.0000000e+00 
0.0000000e+00 0.0000000e+00 0.0000000e+00 
0.0000000e+00 0.0000000e+00 0.0000000e+00 
0.0000000e+00 0.0000000e+00 0.0000000e+00 
0.0000000e+00 0.0000000e+00 0.0000000e+00 
0.0000000e+00 0.0000000e+00 0.0000000e+00 
0.0000000e+00 0.0000000e+00 0.0000000e+00 
0.0000000e+00 0.0000000e+00 0.0000000e+00 
0.0000000e+00 0.0000000e+00 0.0000000e+00 
0.0000000e+00 0.0000000e+00 0.0000000e+00 
0.0000000e+00 0.0000000e+00 0.0000000e+00 
0.0000000e+00 0.0000000e+00 0.0000000e+00 
0.0000000e+00 0.0000000e+00 0.0000000e+00 
0.0000000e+00 0.0000000e+00 0.0000000e+00 
0.0000000e+00 0.0000000e+00 0.0000000e+00 
0.0000000e+00 0.0000000e+00 0.0000000e+00 
0.0000000e+00 0.0000000e+00 0.0000000e+00 
0.0000000e+00 0.0000000e+00 0.0000000e+00 
0.0000000e+00 0.0000000e+00 0.0000000e+00 
0.0000000e+00 0.0000000e+00 0.0000000e+00 
0.0000000e+00 0.0000000e+00 0.0000000e+00 
0.0000000e+00 0.0000000e+00 0.0000000e+00 
0.0000000e+00 0.0000000e+00 0.0000000e+00 
0.0000000e+00 0.0000000e+00 0.0000000e+00 
0.0000000e+00 0.0000000e+00 0.0000000e+00 
0.0000000e+00 0.0000000e+00 0.0000000e+00 
0.0000000e+00 0.0000000e+00 0.0000000e+00 
0.0000000e+00 0.0000000e+00 0.0000000e+00 
0.0000000e+00 0.0000000e+00 0.0000000e+00 
0.0000000e+00 0.0000000e+00 0.0000000e+00 
0.0000000e+00 0.0000000e+00 0.0000000e+00 
0.0000000e+00 0.0000000e+00 0.0000000e+00 
0.0000000e+00 0.0000000e+00 0.0000000e+00 
0.0000000e+00 0.0000000e+00 0.0000000e+00 
-2.2764188e-07 1.2638726e-06 9.4394693e-07 
9.6342073e-06 -4.7949011e-06 -7.9289921e-06 
3.3993740e-05 -5.8642008e-06 5.8654052e-07 
5.9019089e-06 -1.2195075e-06 -9.9260365e-07 
6.1600535e-06 3.6092611e-06 2.8896234e-06 
1.0718725e-06 -1.2086264e-06 3.6193430e-06 
-3.4481404e-06 5.7437683e-06 2.3348341e-06 
-1.3245689e-06 4.4774215e-06 1.9383554e-06 