# vtk DataFile Version 4.0
vtk output
ASCII
DATASET UNSTRUCTURED_GRID
POINTS 1919 float
0.0000000e+00 0.0000000e+00 0.0000000e+00 
0.0000000e+00 0.0000000e+00 5.0000000e+01 
5.0000000e+00 0.0000000e+00 0.0000000e+00 
5.0000000e+00 0.0000000e+00 5.0000000e+01 
5.0000000e+00 1.0000000e+00 0.0000000e+00 
5.0000000e+00 1.0000000e+00 5.0000000e+01 
0.0000000e+00 1.0000000e+00 0.0000000e+00 
0.0000000e+00 1.0000000e+00 5.0000000e+01 
5.0000000e+00 2.0000000e+00 0.0000000e+00 
5.0000000e+00 2.0000000e+00 5.0000000e+01 
3.0000000e+00 2.0000000e+00 0.0000000e+00 
3.0000000e+00 2.0000000e+00 5.0000000e+01 
0.0000000e+00 2.0000000e+00 0.0000000e+00 
0.0000000e+00 2.0000000e+00 5.0000000e+01 
1.5000000e+00 3.0000000e+00 0.0000000e+00 
1.5000000e+00 3.0000000e+00 5.0000000e+01 
7.5000000e-01 3.0000000e+00 0.0000000e+00 
7.5000000e-01 3.0000000e+00 5.0000000e+01 
0.0000000e+00 3.0000000e+00 0.0000000e+00 
0.0000000e+00 3.0000000e+00 5.0000000e+01 
7.5000000e-01 3.0000000e+00 5.0000000e-01 
7.5000000e-01 3.0000000e+00 1.0000000e+00 
7.5000000e-01 3.0000000e+00 1.5000000e+00 
7.5000000e-01 3.0000000e+00 2.0000000e+00 
7.5000000e-01 3.0000000e+00 2.5000000e+00 
7.5000000e-01 3.0000000e+00 3.0000000e+00 
7.5000000e-01 3.0000000e+00 3.5000000e+00 
7.5000000e-01 3.0000000e+00 4.0000000e+00 
7.5000000e-01 3.0000000e+00 4.5000000e+00 
7.5000000e-01 3.0000000e+00 5.0000000e+00 
7.5000000e-01 3.0000000e+00 5.5000000e+00 
7.5000000e-01 3.0000000e+00 6.0000000e+00 
7.5000000e-01 3.0000000e+00 6.5000000e+00 
7.5000000e-01 3.0000000e+00 7.0000000e+00 
7.5000000e-01 3.0000000e+00 7.5000000e+00 
7.5000000e-01 3.0000000e+00 8.0000000e+00 
7.5000000e-01 3.0000000e+00 8.5000000e+00 
7.5000000e-01 3.0000000e+00 9.0000000e+00 
7.5000000e-01 3.0000000e+00 9.5000000e+00 
7.5000000e-01 3.0000000e+00 1.0000000e+01 
7.5000000e-01 3.0000000e+00 1.0500000e+01 
7.5000000e-01 3.0000000e+00 1.1000000e+01 
7.5000000e-01 3.0000000e+00 1.1500000e+01 
7.5000000e-01 3.0000000e+00 1.2000000e+01 
7.5000000e-01 3.0000000e+00 1.2500000e+01 
7.5000000e-01 3.0000000e+00 1.3000000e+01 
7.5000000e-01 3.0000000e+00 1.3500000e+01 
7.5000000e-01 3.0000000e+00 1.4000000e+01 
7.5000000e-01 3.0000000e+00 1.4500000e+01 
7.5000000e-01 3.0000000e+00 1.5000000e+01 
7.5000000e-01 3.0000000e+00 1.5500000e+01 
7.5000000e-01 3.0000000e+00 1.6000000e+01 
7.5000000e-01 3.0000000e+00 1.6500000e+01 
7.5000000e-01 3.0000000e+00 1.7000000e+01 
7.5000000e-01 3.0000000e+00 1.7500000e+01 
7.5000000e-01 3.0000000e+00 1.8000000e+01 
7.5000000e-01 3.0000000e+00 1.8500000e+01 
7.5000000e-01 3.0000000e+00 1.9000000e+01 
7.5000000e-01 3.0000000e+00 1.9500000e+01 
7.5000000e-01 3.0000000e+00 2.0000000e+01 
7.5000000e-01 3.0000000e+00 2.0500000e+01 
7.5000000e-01 3.0000000e+00 2.1000000e+01 
7.5000000e-01 3.0000000e+00 2.1500000e+01 
7.5000000e-01 3.0000000e+00 2.2000000e+01 
7.5000000e-01 3.0000000e+00 2.2500000e+01 
7.5000000e-01 3.0000000e+00 2.3000000e+01 
7.5000000e-01 3.0000000e+00 2.3500000e+01 
7.5000000e-01 3.0000000e+00 2.4000000e+01 
7.5000000e-01 3.0000000e+00 2.4500000e+01 
7.5000000e-01 3.0000000e+00 2.5000000e+01 
7.5000000e-01 3.0000000e+00 2.5500000e+01 
7.5000000e-01 3.0000000e+00 2.6000000e+01 
7.5000000e-01 3.0000000e+00 2.6500000e+01 
7.5000000e-01 3.0000000e+00 2.7000000e+01 
7.5000000e-01 3.0000000e+00 2.7500000e+01 
7.5000000e-01 3.0000000e+00 2.8000000e+01 
7.5000000e-01 3.0000000e+00 2.8500000e+01 
7.5000000e-01 3.0000000e+00 2.9000000e+01 
7.5000000e-01 3.0000000e+00 2.9500000e+01 
7.5000000e-01 3.0000000e+00 3.0000000e+01 
7.5000000e-01 3.0000000e+00 3.0500000e+01 
7.5000000e-01 3.0000000e+00 3.1000000e+01 
7.5000000e-01 3.0000000e+00 3.1500000e+01 
7.5000000e-01 3.0000000e+00 3.2000000e+01 
7.5000000e-01 3.0000000e+00 3.2500000e+01 
7.5000000e-01 3.0000000e+00 3.3000000e+01 
7.5000000e-01 3.0000000e+00 3.3500000e+01 
7.5000000e-01 3.0000000e+00 3.4000000e+01 
7.5000000e-01 3.0000000e+00 3.4500000e+01 
7.5000000e-01 3.0000000e+00 3.5000000e+01 
7.5000000e-01 3.0000000e+00 3.5500000e+01 
7.5000000e-01 3.0000000e+00 3.6000000e+01 
7.5000000e-01 3.0000000e+00 3.6500000e+01 
7.5000000e-01 3.0000000e+00 3.7000000e+01 
7.5000000e-01 3.0000000e+00 3.7500000e+01 
7.5000000e-01 3.0000000e+00 3.8000000e+01 
7.5000000e-01 3.0000000e+00 3.8500000e+01 
7.5000000e-01 3.0000000e+00 3.9000000e+01 
7.5000000e-01 3.0000000e+00 3.9500000e+01 
7.5000000e-01 3.0000000e+00 4.0000000e+01 
7.5000000e-01 3.0000000e+00 4.0500000e+01 
7.5000000e-01 3.0000000e+00 4.1000000e+01 
7.5000000e-01 3.0000000e+00 4.1500000e+01 
7.5000000e-01 3.0000000e+00 4.2000000e+01 
7.5000000e-01 3.0000000e+00 4.2500000e+01 
7.5000000e-01 3.0000000e+00 4.3000000e+01 
7.5000000e-01 3.0000000e+00 4.3500000e+01 
7.5000000e-01 3.0000000e+00 4.4000000e+01 
7.5000000e-01 3.0000000e+00 4.4500000e+01 
7.5000000e-01 3.0000000e+00 4.5000000e+01 
7.5000000e-01 3.0000000e+00 4.5500000e+01 
7.5000000e-01 3.0000000e+00 4.6000000e+01 
7.5000000e-01 3.0000000e+00 4.6500000e+01 
7.5000000e-01 3.0000000e+00 4.7000000e+01 
7.5000000e-01 3.0000000e+00 4.7500000e+01 
7.5000000e-01 3.0000000e+00 4.8000000e+01 
7.5000000e-01 3.0000000e+00 4.8500000e+01 
7.5000000e-01 3.0000000e+00 4.9000000e+01 
7.5000000e-01 3.0000000e+00 4.9500000e+01 
7.5000000e-01 3.0250001e+00 0.0000000e+00 
7.5000000e-01 3.0250001e+00 5.0000000e-01 
7.5000000e-01 3.0250001e+00 1.0000000e+00 
7.5000000e-01 3.0250001e+00 1.5000000e+00 
7.5000000e-01 3.0250001e+00 2.0000000e+00 
7.5000000e-01 3.0250001e+00 2.5000000e+00 
7.5000000e-01 3.0250001e+00 3.0000000e+00 
7.5000000e-01 3.0250001e+00 3.5000000e+00 
7.5000000e-01 3.0250001e+00 4.0000000e+00 
7.5000000e-01 3.0250001e+00 4.5000000e+00 
7.5000000e-01 3.0250001e+00 5.0000000e+00 
7.5000000e-01 3.0250001e+00 5.5000000e+00 
7.5000000e-01 3.0250001e+00 6.0000000e+00 
7.5000000e-01 3.0250001e+00 6.5000000e+00 
7.5000000e-01 3.0250001e+00 7.0000000e+00 
7.5000000e-01 3.0250001e+00 7.5000000e+00 
7.5000000e-01 3.0250001e+00 8.0000000e+00 
7.5000000e-01 3.0250001e+00 8.5000000e+00 
7.5000000e-01 3.0250001e+00 9.0000000e+00 
7.5000000e-01 3.0250001e+00 9.5000000e+00 
7.5000000e-01 3.0250001e+00 1.0000000e+01 
7.5000000e-01 3.0250001e+00 1.0500000e+01 
7.5000000e-01 3.0250001e+00 1.1000000e+01 
7.5000000e-01 3.0250001e+00 1.1500000e+01 
7.5000000e-01 3.0250001e+00 1.2000000e+01 
7.5000000e-01 3.0250001e+00 1.2500000e+01 
7.5000000e-01 3.0250001e+00 1.3000000e+01 
7.5000000e-01 3.0250001e+00 1.3500000e+01 
7.5000000e-01 3.0250001e+00 1.4000000e+01 
7.5000000e-01 3.0250001e+00 1.4500000e+01 
7.5000000e-01 3.0250001e+00 1.5000000e+01 
7.5000000e-01 3.0250001e+00 1.5500000e+01 
7.5000000e-01 3.0250001e+00 1.6000000e+01 
7.5000000e-01 3.0250001e+00 1.6500000e+01 
7.5000000e-01 3.0250001e+00 1.7000000e+01 
7.5000000e-01 3.0250001e+00 1.7500000e+01 
7.5000000e-01 3.0250001e+00 1.8000000e+01 
7.5000000e-01 3.0250001e+00 1.8500000e+01 
7.5000000e-01 3.0250001e+00 1.9000000e+01 
7.5000000e-01 3.0250001e+00 1.9500000e+01 
7.5000000e-01 3.0250001e+00 2.0000000e+01 
7.5000000e-01 3.0250001e+00 2.0500000e+01 
7.5000000e-01 3.0250001e+00 2.1000000e+01 
7.5000000e-01 3.0250001e+00 2.1500000e+01 
7.5000000e-01 3.0250001e+00 2.2000000e+01 
7.5000000e-01 3.0250001e+00 2.2500000e+01 
7.5000000e-01 3.0250001e+00 2.3000000e+01 
7.5000000e-01 3.0250001e+00 2.3500000e+01 
7.5000000e-01 3.0250001e+00 2.4000000e+01 
7.5000000e-01 3.0250001e+00 2.4500000e+01 
7.5000000e-01 3.0250001e+00 2.5000000e+01 
7.5000000e-01 3.0250001e+00 2.5500000e+01 
7.5000000e-01 3.0250001e+00 2.6000000e+01 
7.5000000e-01 3.0250001e+00 2.6500000e+01 
7.5000000e-01 3.0250001e+00 2.7000000e+01 
7.5000000e-01 3.0250001e+00 2.7500000e+01 
7.5000000e-01 3.0250001e+00 2.8000000e+01 
7.5000000e-01 3.0250001e+00 2.8500000e+01 
7.5000000e-01 3.0250001e+00 2.9000000e+01 
7.5000000e-01 3.0250001e+00 2.9500000e+01 
7.5000000e-01 3.0250001e+00 3.0000000e+01 
7.5000000e-01 3.0250001e+00 3.0500000e+01 
7.5000000e-01 3.0250001e+00 3.1000000e+01 
7.5000000e-01 3.0250001e+00 3.1500000e+01 
7.5000000e-01 3.0250001e+00 3.2000000e+01 
7.5000000e-01 3.0250001e+00 3.2500000e+01 
7.5000000e-01 3.0250001e+00 3.3000000e+01 
7.5000000e-01 3.0250001e+00 3.3500000e+01 
7.5000000e-01 3.0250001e+00 3.4000000e+01 
7.5000000e-01 3.0250001e+00 3.4500000e+01 
7.5000000e-01 3.0250001e+00 3.5000000e+01 
7.5000000e-01 3.0250001e+00 3.5500000e+01 
7.5000000e-01 3.0250001e+00 3.6000000e+01 
7.5000000e-01 3.0250001e+00 3.6500000e+01 
7.5000000e-01 3.0250001e+00 3.7000000e+01 
7.5000000e-01 3.0250001e+00 3.7500000e+01 
7.5000000e-01 3.0250001e+00 3.8000000e+01 
7.5000000e-01 3.0250001e+00 3.8500000e+01 
7.5000000e-01 3.0250001e+00 3.9000000e+01 
7.5000000e-01 3.0250001e+00 3.9500000e+01 
7.5000000e-01 3.0250001e+00 4.0000000e+01 
7.5000000e-01 3.0250001e+00 4.0500000e+01 
7.5000000e-01 3.0250001e+00 4.1000000e+01 
7.5000000e-01 3.0250001e+00 4.1500000e+01 
7.5000000e-01 3.0250001e+00 4.2000000e+01 
7.5000000e-01 3.0250001e+00 4.2500000e+01 
7.5000000e-01 3.0250001e+00 4.3000000e+01 
7.5000000e-01 3.0250001e+00 4.3500000e+01 
7.5000000e-01 3.0250001e+00 4.4000000e+01 
7.5000000e-01 3.0250001e+00 4.4500000e+01 
7.5000000e-01 3.0250001e+00 4.5000000e+01 
7.5000000e-01 3.0250001e+00 4.5500000e+01 
7.5000000e-01 3.0250001e+00 4.6000000e+01 
7.5000000e-01 3.0250001e+00 4.6500000e+01 
7.5000000e-01 3.0250001e+00 4.7000000e+01 
7.5000000e-01 3.0250001e+00 4.7500000e+01 
7.5000000e-01 3.0250001e+00 4.8000000e+01 
7.5000000e-01 3.0250001e+00 4.8500000e+01 
7.5000000e-01 3.0250001e+00 4.9000000e+01 
7.5000000e-01 3.0250001e+00 4.9500000e+01 
7.5000000e-01 3.0250001e+00 5.0000000e+01 
3.0000000e+00 2.0000000e+00 3.6000000e+01 
8.0487806e-01 3.0000000e+00 3.6000000e+01 
0.0000000e+00 0.0000000e+00 1.0000000e+00 
0.0000000e+00 0.0000000e+00 2.0000000e+00 
0.0000000e+00 0.0000000e+00 3.0000000e+00 
0.0000000e+00 0.0000000e+00 4.0000000e+00 
0.0000000e+00 0.0000000e+00 5.0000000e+00 
0.0000000e+00 0.0000000e+00 6.0000000e+00 
0.0000000e+00 0.0000000e+00 7.0000000e+00 
0.0000000e+00 0.0000000e+00 8.0000000e+00 
[...]
POINT_DATA 1919
FIELD FieldData 3
DISPLACEMENT 3 1919  float
0.0000000e+00 0.0000000e+00 0.0000000e+00 
0.0000000e+00 0.0000000e+00 0.0000000e+00 
0.0000000e+00 0.0000000e+00 0.0000000e+00 
0.0000000e+00 0.0000000e+00 0.0000000e+00 
-8.2461423e-07 -1.4066022e-06 -1.1317694e-06 
-1.3296710e-08 4.1229035e-07 -6.1005926e-07 
0.0000000e+00 2.1740649e-05 0.0000000e+00 
0.0000000e+00 -8.0213013e-06 0.0000000e+00 
-7.2406363e-07 2.8309792e-06 -4.3849050e-07 
-3.2118362e-07 9.0599218e-07 -1.5691801e-06 
4.1655403e-06 5.0430385e-06 2.9612818e-06 
-8.3473947e-07 2.4034380e-06 -6.8998804e-07 
0.0000000e+00 2.8316832e-05 0.0000000e+00 
0.0000000e+00 -2.0145862e-05 0.0000000e+00 
-3.3659767e-06 2.6673131e-05 2.5377160e-05 
1.8928496e-06 -1.7430144e-05 1.1392954e-05 
2.5817574e-06 -8.9984069e-06 1.2063779e-05 
-2.1821506e-05 3.8360020e-05 8.9240029e-06 
0.0000000e+00 5.4623430e-05 0.0000000e+00 
0.0000000e+00 -5.5894427e-05 0.0000000e+00 
5.4237998e-06 -1.9686369e-05 2.8464081e-05 
-3.8734725e-06 -4.4425480e-05 3.7831611e-05 
-1.0048253e-05 -6.8884568e-05 2.4130199e-05 
-1.9157438e-05 -8.3219224e-05 1.7301217e-06 
-1.7746141e-05 -8.6547741e-05 -1.0247292e-05 
-1.5368860e-05 -8.6937987e-05 -2.2916280e-05 
-1.8605857e-05 -9.1361282e-05 -2.1292897e-05 
-2.6727686e-05 -9.7294040e-05 -1.8020697e-05 
-3.9664268e-05 -9.4907184e-05 -2.4174840e-05 
-3.8675404e-05 -7.6564706e-05 -2.9338005e-05 
-1.8626311e-05 -4.2674645e-05 -3.8067359e-05 
-9.1335387e-06 -8.9861180e-07 -3.8884824e-05 
5.1021934e-06 3.3506469e-05 -3.0337769e-05 
6.7818604e-07 4.9294846e-05 -1.5916892e-05 
-6.4489433e-07 5.2443098e-05 -4.8994648e-06 
4.9477444e-06 6.2928826e-05 9.9390736e-06 
2.1016138e-05 9.2998380e-05 2.1759632e-05 
1.8244133e-05 1.3836673e-04 2.8853552e-05 
2.6366428e-05 1.7912124e-04 4.6723984e-05 
1.6323058e-05 1.9518955e-04 4.9767299e-05 
1.9116038e-05 1.8416622e-04 5.2005205e-05 
3.6891812e-05 1.5991928e-04 8.3099578e-05 
2.7835835e-05 1.4006569e-04 1.0449026e-04 
1.0230751e-05 1.2810755e-04 1.2633661e-04 
-1.8059311e-05 7.0403737e-05 1.8200910e-04 
-4.5190423e-05 -1.4937372e-04 1.7217008e-04 
-7.5455209e-05 -6.3465547e-04 2.3288146e-04 
-1.0474835e-04 -1.4259671e-03 1.9715796e-04 
-1.4977490e-04 -2.4867787e-03 3.0442228e-04 
-2.1310408e-04 -3.6494348e-03 1.3150377e-04 
-2.6992266e-04 -4.6399827e-03 2.1098291e-04 
-3.0251875e-04 -5.0321100e-03 5.2619689e-05 
-2.9741781e-04 -4.8876530e-03 -2.3393997e-05 
-2.8670012e-04 -4.6959622e-03 -6.1626881e-05 
-2.4217348e-04 -4.7274516e-03 -6.8223737e-05 
-2.4907765e-04 -4.7340775e-03 -1.4583519e-04 
-2.3222007e-04 -4.2692013e-03 -1.9401143e-04 
-1.9875927e-04 -3.2264120e-03 -1.2593102e-04 
-1.5978342e-04 -2.1023215e-03 -2.1925781e-04 
-1.0669076e-04 -1.1869299e-03 -1.1346454e-04 
-8.5706350e-05 -5.6339492e-04 -1.5111877e-04 
-7.2553325e-05 -1.9883820e-04 -9.1582449e-05 
-5.7924455e-05 -3.5247365e-05 -7.8403711e-05 
-4.7271904e-05 -5.5191476e-06 -5.8684251e-05 
-3.9945717e-05 -4.0311632e-05 -5.8841382e-05 
-3.2579144e-05 -8.8222034e-05 -7.1951312e-05 
-2.1357408e-05 -1.2321652e-04 -6.3833795e-05 
-2.4901883e-05 -1.4857072e-04 -6.3766616e-05 
-2.8847786e-05 -1.6943146e-04 -4.9264490e-05 
-3.7812119e-05 -1.8263410e-04 -4.1458028e-05 
-4.0160008e-05 -1.7694577e-04 -4.9815528e-05 
-2.9272136e-05 -1.4054557e-04 -5.3685872e-05 
-1.3604693e-05 -7.8291683e-05 -6.3328989e-05 
-2.9675293e-06 -1.3158729e-05 -5.8716887e-05 
1.2983398e-05 3.6989757e-05 -5.4872697e-05 
1.9493784e-05 7.0393835e-05 -2.4375753e-05 
2.5645955e-05 1.0139632e-04 5.1867181e-07 
1.1347764e-05 1.4822371e-04 2.8711514e-05 
1.0176498e-05 2.0276480e-04 5.0539264e-05 
9.2587707e-06 2.4352229e-04 6.0898277e-05 
2.0137804e-05 2.5339003e-04 4.7025627e-05 
2.7499833e-05 2.3385705e-04 3.7221933e-05 
1.7360650e-05 2.0621871e-04 2.5706484e-05 
1.8676939e-05 1.7858094e-04 5.7487534e-05 
1.4615931e-05 1.1592594e-04 1.3352376e-04 
3.2119381e-06 -7.4875068e-05 1.4736426e-04 
-1.4723172e-05 -5.2922452e-04 2.5448526e-04 
-6.3695443e-05 -1.3614856e-03 2.0873890e-04 
-6.9264548e-05 -2.5584919e-03 2.7015118e-04 
1.6069804e-05 -3.8675775e-03 5.2984571e-04 
-1.4402119e-04 -4.7955997e-03 3.8704736e-04 
-2.1159212e-04 -4.9370104e-03 1.6421344e-04 
-2.4446571e-04 -4.7049834e-03 6.3609768e-05 
-1.8038724e-04 -4.6140165e-03 3.5493654e-06 
-2.8369084e-04 -4.8288656e-03 -2.9306453e-05 
-2.8411957e-04 -4.8842048e-03 -8.9866488e-05 
-2.7214224e-04 -4.2628231e-03 -1.9467063e-04 
-2.1016208e-04 -3.1309130e-03 -1.6912402e-04 
-1.5277852e-04 -1.9660008e-03 -3.0924205e-04 
-9.3612514e-05 -1.0045865e-03 -2.1684924e-04 
-4.3775181e-05 -3.3712128e-04 -2.3290126e-04 
-1.8905244e-05 4.7493439e-05 -1.4008398e-04 
4.1940320e-06 2.0535923e-04 -1.0921407e-04 
1.3255457e-05 2.2035006e-04 -6.5489869e-05 
1.4859360e-05 1.7046886e-04 -3.0710107e-05 
7.2845619e-06 1.0113463e-04 -2.0251753e-05 
-1.2799493e-06 3.1841253e-05 -7.9522906e-06 
-6.0429311e-06 -2.8801813e-05 -1.1422348e-05 
-1.3603852e-05 -7.1164242e-05 -2.1578262e-05 
-1.8936209e-06 -8.4896259e-05 -1.3876508e-05 
1.2686422e-05 -6.9087866e-05 1.7248120e-06 
1.4215088e-05 -3.6170586e-05 2.0494410e-05 
1.3347305e-05 -2.8732538e-06 3.0561067e-05 
7.3928240e-06 2.1625430e-05 3.1226911e-05 
4.2449312e-07 3.5688252e-05 2.0872561e-05 
2.2687930e-06 4.2612577e-05 1.7319020e-05 
4.5373849e-06 4.4820732e-05 2.3749613e-05 
4.7375943e-07 4.3474709e-05 3.4547418e-05 
-6.3835232e-06 4.0152470e-05 3.5073124e-05 
0.0000000e+00 -9.3329345e-06 0.0000000e+00 
0.0000000e+00 -1.9934623e-05 0.0000000e+00 
0.0000000e+00 -4.4336226e-05 0.0000000e+00 
0.0000000e+00 -6.8616820e-05 0.0000000e+00 
0.0000000e+00 -8.2876417e-05 0.0000000e+00 
0.0000000e+00 -8.6542917e-05 0.0000000e+00 
0.0000000e+00 -8.7286353e-05 0.0000000e+00 
0.0000000e+00 -9.1702954e-05 0.0000000e+00 
0.0000000e+00 -9.7295553e-05 0.0000000e+00 
0.0000000e+00 -9.4737916e-05 0.0000000e+00 
0.0000000e+00 -7.6434852e-05 0.0000000e+00 
0.0000000e+00 -4.2272895e-05 0.0000000e+00 
0.0000000e+00 -8.4120660e-07 0.0000000e+00 
0.0000000e+00 3.2832380e-05 0.0000000e+00 
0.0000000e+00 4.8502454e-05 0.0000000e+00 
0.0000000e+00 5.2426392e-05 0.0000000e+00 
0.0000000e+00 6.3430882e-05 0.0000000e+00 
0.0000000e+00 9.3950141e-05 0.0000000e+00 
0.0000000e+00 1.3882414e-04 0.0000000e+00 
0.0000000e+00 1.7862205e-04 0.0000000e+00 
0.0000000e+00 1.9450288e-04 0.0000000e+00 
0.0000000e+00 1.8359379e-04 0.0000000e+00 
0.0000000e+00 1.6004595e-04 0.0000000e+00 
0.0000000e+00 1.4278895e-04 0.0000000e+00 
0.0000000e+00 1.3179616e-04 0.0000000e+00 
0.0000000e+00 7.0950722e-05 0.0000000e+00 
0.0000000e+00 -1.5171872e-04 0.0000000e+00 
0.0000000e+00 -6.3943735e-04 0.0000000e+00 
0.0000000e+00 -1.4341399e-03 0.0000000e+00 
0.0000000e+00 -2.4935633e-03 0.0000000e+00 
0.0000000e+00 -3.6663988e-03 0.0000000e+00 
0.0000000e+00 -4.6627889e-03 0.0000000e+00 
0.0000000e+00 -5.0655971e-03 0.0000000e+00 
0.0000000e+00 -4.9117948e-03 0.0000000e+00 
0.0000000e+00 -4.7226553e-03 0.0000000e+00 
0.0000000e+00 -4.7471020e-03 0.0000000e+00 
0.0000000e+00 -4.7618425e-03 0.0000000e+00 
0.0000000e+00 -4.2914879e-03 0.0000000e+00 
0.0000000e+00 -3.2473565e-03 0.0000000e+00 
0.0000000e+00 -2.1120829e-03 0.0000000e+00 
0.0000000e+00 -1.1918095e-03 0.0000000e+00 
0.0000000e+00 -5.6451210e-04 0.0000000e+00 
0.0000000e+00 -1.9942180e-04 0.0000000e+00 
0.0000000e+00 -3.5351772e-05 0.0000000e+00 
0.0000000e+00 -4.3812124e-06 0.0000000e+00 
0.0000000e+00 -3.8772476e-05 0.0000000e+00 
0.0000000e+00 -8.6712083e-05 0.0000000e+00 
0.0000000e+00 -1.2321945e-04 0.0000000e+00 
0.0000000e+00 -1.4916190e-04 0.0000000e+00 
0.0000000e+00 -1.7003641e-04 0.0000000e+00 
0.0000000e+00 -1.8282268e-04 0.0000000e+00 
0.0000000e+00 -1.7618784e-04 0.0000000e+00 
0.0000000e+00 -1.3964478e-04 0.0000000e+00 
0.0000000e+00 -7.8359160e-05 0.0000000e+00 
0.0000000e+00 -1.3793579e-05 0.0000000e+00 
0.0000000e+00 3.5992256e-05 0.0000000e+00 
0.0000000e+00 6.9737660e-05 0.0000000e+00 
0.0000000e+00 1.0235635e-04 0.0000000e+00 
0.0000000e+00 1.4904198e-04 0.0000000e+00 
0.0000000e+00 2.0315715e-04 0.0000000e+00 
0.0000000e+00 2.4308833e-04 0.0000000e+00 
0.0000000e+00 2.5240582e-04 0.0000000e+00 
0.0000000e+00 2.3415184e-04 0.0000000e+00 
0.0000000e+00 2.0783319e-04 0.0000000e+00 
0.0000000e+00 1.8122447e-04 0.0000000e+00 
0.0000000e+00 1.1870684e-04 0.0000000e+00 
0.0000000e+00 -7.4576958e-05 0.0000000e+00 
0.0000000e+00 -5.3483649e-04 0.0000000e+00 
0.0000000e+00 -1.3747182e-03 0.0000000e+00 
0.0000000e+00 -2.5729190e-03 0.0000000e+00 
0.0000000e+00 -3.8793474e-03 0.0000000e+00 
0.0000000e+00 -4.8187794e-03 0.0000000e+00 
0.0000000e+00 -4.9678180e-03 0.0000000e+00 
0.0000000e+00 -4.7289268e-03 0.0000000e+00 
0.0000000e+00 -4.6472442e-03 0.0000000e+00 
0.0000000e+00 -4.8480229e-03 0.0000000e+00 
0.0000000e+00 -4.9121683e-03 0.0000000e+00 
0.0000000e+00 -4.2832154e-03 0.0000000e+00 
0.0000000e+00 -3.1477264e-03 0.0000000e+00 
0.0000000e+00 -1.9732472e-03 0.0000000e+00 
0.0000000e+00 -1.0097563e-03 0.0000000e+00 
0.0000000e+00 -3.3939540e-04 0.0000000e+00 
0.0000000e+00 4.6695739e-05 0.0000000e+00 
0.0000000e+00 2.0621580e-04 0.0000000e+00 
0.0000000e+00 2.2217096e-04 0.0000000e+00 
0.0000000e+00 1.7163833e-04 0.0000000e+00 
0.0000000e+00 1.0149428e-04 0.0000000e+00 
0.0000000e+00 3.1790481e-05 0.0000000e+00 
0.0000000e+00 -2.8690893e-05 0.0000000e+00 
0.0000000e+00 -7.0558308e-05 0.0000000e+00 
0.0000000e+00 -8.4277621e-05 0.0000000e+00 
0.0000000e+00 -6.9053087e-05 0.0000000e+00 
0.0000000e+00 -3.6684949e-05 0.0000000e+00 
0.0000000e+00 -3.2466944e-06 0.0000000e+00 
0.0000000e+00 2.1469856e-05 0.0000000e+00 
0.0000000e+00 3.5782305e-05 0.0000000e+00 
0.0000000e+00 4.2670126e-05 0.0000000e+00 
0.0000000e+00 4.4759461e-05 0.0000000e+00 
0.0000000e+00 4.3358086e-05 0.0000000e+00 
0.0000000e+00 4.0246483e-05 0.0000000e+00 
0.0000000e+00 3.8549628e-05 0.0000000e+00 
5.8192360e-05 -1.1803814e-04 6.4116362e-06 
-2.3377147e-04 -4.5038559e-03 1.8380355e-04 
0.0000000e+00 0.0000000e+00 0.0000000e+00 
0.0000000e+00 0.0000000e+00 0.0000000e+00 
0.0000000e+00 0.0000000e+00 0.0000000e+00 
0.0000000e+00 0.0000000e+00 0.0000000e+00 
0.0000000e+00 0.0000000e+00 0.0000000e+00 
0.0000000e+00 0.0000000e+00 0.0000000e+00 
0.0000000e+00 0.0000000e+00 0.0000000e+00 
0.0000000e+00 0.0000000e+00 0.0000000e+00 
0.0000000e+00 0.0000000e+00 0.0000000e+00 
0.0000000e+00 0.0000000e+00 0.0000000e+00 
0.0000000e+00 0.0000000e+00 0.0000000e+00 
0.0000000e+00 0.0000000e+00 0.0000000e+00 
0.0000000e+00 0.0000000e+00 0.0000000e+00 
0.0000000e+00 0.0000000e+00 0.0000000e+00 
0.0000000e+00 0.0000000e+00 0.0000000e+00 
0.0000000e+00 0.0000000e+00 0.0000000e+00 
0.0000000e+00 0.0000000e+00 0.0000000e+00 
0.0000000e+00 0.0000000e+00 0.0000000e+00 
0.0000000e+00 0.0000000e+00 0.0000000e+00 
0.0000000e+00 0.0000000e+00 0.0000000e+00 
0.0000000e+00 0.0000000e+00 0.0000000e+00 
0.0000000e+00 0.0000000e+00 0.0000000e+00 
0.0000000e+00 0.0000000e+00 0.0000000e+00 
0.0000000e+00 0.0000000e+00 0.0000000e+00 
0.0000000e+00 0.0000000e+00 0.0000000e+00 
0.0000000e+00 0.0000000e+00 0.0000000e+00 
0.0000000e+00 0.0000000e+00 0.0000000e+00 
0.0000000e+00 0.0000000e+00 0.0000000e+00 
0.0000000e+00 0.0000000e+00 0.0000000e+00 
0.0000000e+00 0.0000000e+00 0.0000000e+00 
0.0000000e+00 0.0000000e+00 0.0000000e+00 
0.0000000e+00 0.0000000e+00 0.0000000e+00 
0.0000000e+00 0.0000000e+00 0.0000000e+00 
0.0000000e+00 0.0000000e+00 0.0000000e+00 
0.0000000e+00 0.0000000e+00 0.0000000e+00 
0.0000000e+00 0.0000000e+00 0.0000000e+00 
0.0000000e+00 0.0000000e+00 0.0000000e+00 
0.0000000e+00 0.0000000e+00 0.0000000e+00 
0.0000000e+00 0.0000000e+00 0.0000000e+00 
0.0000000e+00 0.0000000e+00 0.0000000e+00 
0.0000000e+00 0.0000000e+00 0.0000000e+00 
0.0000000e+00 0.0000000e+00 0.0000000e+00 
0.0000000e+00 0.0000000e+00 0.0000000e+00 
0.0000000e+00 0.0000000e+00 0.0000000e+00 
0.0000000e+00 0.0000000e+00 0.0000000e+00 
0.0000000e+00 0.0000000e+00 0.0000000e+00 
0.0000000e+00 0.0000000e+00 0.0000000e+00 
0.0000000e+00 0.0000000e+00 0.0000000e+00 
0.0000000e+00 0.0000000e+00 0.0000000e+00 
0.0000000e+00 0.0000000e+00 0.0000000e+00 
0.0000000e+00 0.0000000e+00 0.0000000e+00 
0.0000000e+00 0.0000000e+00 0.0000000e+00 
0.0000000e+00 0.0000000e+00 0.0000000e+00 
0.0000000e+00 0.0000000e+00 0.0000000e+00 
0.0000000e+00 0.0000000e+00 0.0000000e+00 
0.0000000e+00 0.0000000e+00 0.0000000e+00 
0.0000000e+00 0.0000000e+00 0.0000000e+00 
0.0000000e+00 0.0000000e+00 0.0000000e+00 
0.0000000e+00 0.0000000e+00 0.0000000e+00 
0.0000000e+00 0.0000000e+00 0.0000000e+00 
0.0000000e+00 0.0000000e+00 0.0000000e+00 
0.0000000e+00 0.0000000e+00 0.0000000e+00 
0.0000000e+00 0.0000000e+00 0.0000000e+00 
0.0000000e+00 0.0000000e+00 0.0000000e+00 
0.0000000e+00 0.0000000e+00 0.0000000e+00 
0.0000000e+00 0.0000000e+00 0.0000000e+00 
0.0000000e+00 0.0000000e+00 0.0000000e+00 
0.0000000e+00 0.0000000e+00 0.0000000e+00 
0.0000000e+00 0.0000000e+00 0.0000000e+00 
0.0000000e+00 0.0000000e+00 0.0000000e+00 
0.0000000e+00 0.0000000e+00 0.0000000e+00 
0.0000000e+00 0.0000000e+00 0.0000000e+00 
0.0000000e+00 0.0000000e+00 0.0000000e+00 
0.0000000e+00 0.0000000e+00 0.0000000e+00 
0.0000000e+00 0.0000000e+00 0.0000000e+00 
0.0000000e+00 0.0000000e+00 0.0000000e+00 
0.0000000e+00 0.0000000e+00 0.0000000e+00 
0.0000000e+00 0.0000000e+00 0.0000000e+00 
0.0000000e+00 0.0000000e+00 0.0000000e+00 
0.0000000e+00 0.0000000e+00 0.0000000e+00 
0.0000000e+00 0.0000000e+00 0.0000000e+00 
0.0000000e+00 0.0000000e+00 0.0000000e+00 
0.0000000e+00 0.0000000e+00 0.0000000e+00 
0.0000000e+00 0.0000000e+00 0.0000000e+00 
0.0000000e+00 0.0000000e+00 0.0000000e+00 
0.0000000e+00 0.0000000e+00 0.0000000e+00 
0.0000000e+00 0.0000000e+00 0.0000000e+00 
0.0000000e+00 0.0000000e+00 0.0000000e+00 
0.0000000e+00 0.0000000e+00 0.0000000e+00 
0.0000000e+00 0.0000000e+00 0.0000000e+00 
0.0000000e+00 0.0000000e+00 0.0000000e+00 
0.0000000e+00 0.0000000e+00 0.0000000e+00 
0.0000000e+00 0.0000000e+00 0.0000000e+00 
0.0000000e+00 0.0000000e+00 0.0000000e+00 
0.0000000e+00 0.0000000e+00 0.0000000e+00 
0.0000000e+00 0.0000000e+00 0.0000000e+00 
0.0000000e+00 0.0000000e+00 0.0000000e+00 
0.0000000e+00 0.0000000e+00 0.0000000e+00 
0.0000000e+00 0.0000000e+00 0.0000000e+00 
0.0000000e+00 0.0000000e+00 0.0000000e+00 
0.0000000e+00 0.0000000e+00 0.0000000e+00 
0.0000000e+00 0.0000000e+00 0.0000000e+00 
0.0000000e+00 0.0000000e+00 0.0000000e+00 
0.0000000e+00 0.0000000e+00 0.0000000e+00 
0.0000000e+00 0.0000000e+00 0.0000000e+00 
0.0000000e+00 0.0000000e+00 0.0000000e+00 
1.1371750e-06 1.0066907e-06 1.8659877e-07 
-8.5234461e-07 1.1177245e-06 2.7216995e-06 
4.1875342e-08 -3.0451304e-07 4.0498560e-07 
2.9996070e-06 5.5880241e-07 2.1729377e-06 
-1.8103306e-06 2.9198209e-06 4.3667610e-06 
-1.0950366e-06 1.8966283e-07 -5.8519294e-07 
-3.1268341e-06 -7.1753385e-07 1.1517548e-06 
-4.3584196e-06 6.4298515e-06 2.9435882e-06 
-2.8185282e-06 4.0278514e-06 4.0326227e-06 
-3.5218604e-06 -6.6365201e-06 -9.0713201e-07 
1.9810616e-06 3.6196375e-06 -8.5884076e-06 
1.1968867e-05 -2.6048892e-06 -1.4670478e-05 
2.2630009e-05 -1.6974382e-05 -1.4973980e-05 
3.7183596e-05 -7.0744418e-06 -1.6042984e-05 
4.9766604e-05 -1.8653767e-05 -1.1352491e-05 
5.0021088e-05 -1.8172004e-05 -2.6355783e-06 
4.6671699e-05 -1.3606501e-05 -4.2731185e-06 
4.7012647e-05 -1.1826478e-05 2.4740409e-06 
3.6416917e-05 -9.6395343e-06 8.2497736e-06 
2.2335522e-05 -3.3181786e-06 7.4152399e-06 
1.2393840e-05 -2.1349551e-06 6.9976027e-06 
4.0805648e-06 -9.8369526e-07 7.1589138e-06 
2.1604039e-06 -2.3502619e-06 2.0971902e-07 
1.6994577e-06 6.2238962e-07 -1.3197114e-06 
7.5427681e-07 2.6523198e-06 6.8370455e-06 
-4.4163085e-06 4.6513683e-06 9.5466703e-06 
-7.7262594e-06 2.5232396e-06 1.0461511e-05 
-3.4766874e-06 -8.5675424e-07 5.7630023e-06 
-2.7403366e-06 8.3146315e-06 4.4424319e-06 
-4.4749535e-07 -2.7248141e-06 1.4004836e-06 
3.0978599e-06 -4.1852354e-06 -2.8515581e-06 
7.5824014e-06 1.1815961e-06 -5.9190611e-06 
2.4325285e-05 -1.3911297e-05 -1.1402011e-05 
3.7528345e-05 -1.7465240e-05 -1.1703506e-05 
4.8372021e-05 -1.8732271e-05 -7.4577729e-06 
5.1467428e-05 -2.1290052e-05 -1.7899438e-06 
4.9888989e-05 -1.4401518e-05 3.5788712e-06 
4.6406160e-05 -1.3334940e-05 8.8503130e-06 
3.5112447e-05 -1.1564891e-05 9.1649072e-06 
1.7231836e-05 -4.0469458e-06 8.3246923e-06 
8.2944089e-06 -1.9756894e-06 5.6694712e-06 
2.9342823e-06 -4.8405440e-08 1.4595715e-06 
8.7551933e-07 5.5473354e-08 5.2171117e-07 
5.1354380e-07 -6.8598052e-07 1.5787521e-06 
1.0936767e-06 -8.5095189e-07 4.2460574e-06 
1.2177848e-06 -6.3780465e-07 4.8597658e-06 
7.1776208e-07 -4.2279217e-07 5.1063803e-06 
3.6831796e-07 -6.6137108e-07 2.9712403e-06 
1.1961630e-07 -7.7849933e-07 6.7695299e-07 
0.0000000e+00 9.5316869e-07 0.0000000e+00 
0.0000000e+00 -1.7399431e-06 0.0000000e+00 
0.0000000e+00 9.8121654e-06 0.0000000e+00 
0.0000000e+00 1.8877792e-05 0.0000000e+00 
0.0000000e+00 2.6600674e-05 0.0000000e+00 
0.0000000e+00 5.5199016e-05 0.0000000e+00 
0.0000000e+00 5.1829375e-05 0.0000000e+00 
0.0000000e+00 3.9416140e-05 0.0000000e+00 
0.0000000e+00 5.6950255e-05 0.0000000e+00 
0.0000000e+00 3.7910566e-05 0.0000000e+00 
0.0000000e+00 -2.4290972e-05 0.0000000e+00 
0.0000000e+00 2.5071997e-06 0.0000000e+00 
0.0000000e+00 -7.8873680e-05 0.0000000e+00 
0.0000000e+00 -2.6208602e-04 0.0000000e+00 
0.0000000e+00 -3.9903104e-04 0.0000000e+00 
0.0000000e+00 -5.3771725e-04 0.0000000e+00 
0.0000000e+00 -5.2135426e-04 0.0000000e+00 
0.0000000e+00 -4.5903955e-04 0.0000000e+00 
0.0000000e+00 -3.3253993e-04 0.0000000e+00 
0.0000000e+00 -2.0410361e-04 0.0000000e+00 
0.0000000e+00 -8.5522937e-05 0.0000000e+00 
0.0000000e+00 -5.9199356e-05 0.0000000e+00 
0.0000000e+00 -3.6068996e-05 0.0000000e+00 
0.0000000e+00 -2.8927123e-05 0.0000000e+00 
0.0000000e+00 -5.5860264e-06 0.0000000e+00 
0.0000000e+00 6.4435888e-08 0.0000000e+00 
0.0000000e+00 4.5547175e-05 0.0000000e+00 
0.0000000e+00 4.3728680e-05 0.0000000e+00 
0.0000000e+00 9.9462231e-05 0.0000000e+00 
0.0000000e+00 9.3252129e-05 0.0000000e+00 
0.0000000e+00 -8.8098204e-06 0.0000000e+00 
0.0000000e+00 2.7837832e-05 0.0000000e+00 
0.0000000e+00 -2.6995373e-05 0.0000000e+00 
0.0000000e+00 -2.5966129e-04 0.0000000e+00 
0.0000000e+00 -4.2536756e-04 0.0000000e+00 
0.0000000e+00 -5.0070049e-04 0.0000000e+00 
0.0000000e+00 -5.6579470e-04 0.0000000e+00 
0.0000000e+00 -5.2101718e-04 0.0000000e+00 
0.0000000e+00 -3.3619453e-04 0.0000000e+00 
0.0000000e+00 -1.6686281e-04 0.0000000e+00 
0.0000000e+00 -2.1740101e-05 0.0000000e+00 
0.0000000e+00 1.5871821e-05 0.0000000e+00 
0.0000000e+00 1.5779467e-06 0.0000000e+00 
0.0000000e+00 -1.6150798e-05 0.0000000e+00 
0.0000000e+00 -1.7709446e-05 0.0000000e+00 
0.0000000e+00 3.2133590e-07 0.0000000e+00 
0.0000000e+00 1.3405266e-05 0.0000000e+00 
0.0000000e+00 1.2899170e-05 0.0000000e+00 
0.0000000e+00 7.1514196e-06 0.0000000e+00 
1.7008331e-06 1.4411038e-06 -6.1115253e-07 
-5.2385690e-07 3.5943112e-06 1.7177761e-06 
-1.2672351e-06 5.8778996e-06 -1.0477954e-06 
-2.3793471e-06 1.3617306e-05 -2.6022292e-06 
-7.5515317e-07 1.8788310e-07 -2.5097609e-07 
-1.1765292e-06 3.7644094e-07 -1.2993440e-06 
-1.2707663e-06 -1.5191856e-06 -3.3374579e-06 
4.0063131e-07 -4.6963746e-06 -3.5818828e-06 
2.4423327e-06 5.0436398e-08 1.2385190e-06 
8.4524811e-07 1.5195029e-07 4.0583498e-07 
1.7822490e-06 9.6271310e-07 -1.2737963e-06 
2.6201658e-06 -1.9846377e-06 1.6601332e-06 
1.6040690e-06 3.3951949e-06 1.5860608e-06 
3.8189555e-06 -3.5719895e-06 3.9608831e-06 
2.1146654e-06 -3.7717698e-06 3.5242113e-06 
-1.5324905e-06 5.9176537e-06 1.2213161e-06 
4.8971440e-08 -1.8629122e-06 4.1480527e-07 
3.8774861e-06 -1.8972207e-06 -7.8748890e-06 
7.4168997e-06 6.3495845e-06 -8.5201164e-06 
1.3667694e-05 -3.1117650e-06 -7.2223429e-06 
2.7318451e-05 -1.5429870e-05 -1.1707761e-05 
3.1179836e-05 -5.7836824e-06 -1.2614780e-05 
4.0009745e-05 -2.3966069e-05 -1.6358388e-05 
5.3602678e-05 -1.2665215e-05 -9.2879582e-06 
5.1644867e-05 -4.7675881e-06 -3.4269469e-06 
3.9340186e-05 -9.5064997e-06 -2.7428489e-06 
3.6348756e-05 -3.5637333e-06 6.1986075e-06 
2.0705638e-05 1.2714326e-06 6.4694914e-06 