# vtk DataFile Version 4.0
vtk output
ASCII
DATASET UNSTRUCTURED_GRID
POINTS 1919 float
0.0000000e+00 0.0000000e+00 0.0000000e+00 
0.0000000e+00 0.0000000e+00 5.0000000e+01 
5.0000000e+00 0.0000000e+00 0.0000000e+00 
5.0000000e+00 0.0000000e+00 5.0000000e+01 
5.0000000e+00 1.0000000e+00 0.0000000e+00 
5.0000000e+00 1.0000000e+00 5.0000000e+01 
0.0000000e+00 1.0000000e+00 0.0000000e+00 
0.0000000e+00 1.0000000e+00 5.0000000e+01 
5.0000000e+00 2.0000000e+00 0.0000000e+00 
5.0000000e+00 2.0000000e+00 5.0000000e+01 
3.0000000e+00 2.0000000e+00 0.0000000e+00 
3.0000000e+00 2.0000000e+00 5.0000000e+01 
0.0000000e+00 2.0000000e+00 0.0000000e+00 
0.0000000e+00 2.0000000e+00 5.0000000e+01 
1.5000000e+00 3.0000000e+00 0.0000000e+00 
1.5000000e+00 3.0000000e+00 5.0000000e+01 
7.5000000e-01 3.0000000e+00 0.0000000e+00 
7.5000000e-01 3.0000000e+00 5.0000000e+01 
0.0000000e+00 3.0000000e+00 0.0000000e+00 
0.0000000e+00 3.0000000e+00 5.0000000e+01 
7.5000000e-01 3.0000000e+00 5.0000000e-01 
7.5000000e-01 3.0000000e+00 1.0000000e+00 
7.5000000e-01 3.0000000e+00 1.5000000e+00 
7.5000000e-01 3.0000000e+00 2.0000000e+00 
7.5000000e-01 3.0000000e+00 2.5000000e+00 
7.5000000e-01 3.0000000e+00 3.0000000e+00 
7.5000000e-01 3.0000000e+00 3.5000000e+00 
7.5000000e-01 3.0000000e+00 4.0000000e+00 
7.5000000e-01 3.0000000e+00 4.5000000e+00 
7.5000000e-01 3.0000000e+00 5.0000000e+00 
7.5000000e-01 3.0000000e+00 5.5000000e+00 
7.5000000e-01 3.0000000e+00 6.0000000e+00 
7.5000000e-01 3.0000000e+00 6.5000000e+00 
7.5000000e-01 3.0000000e+00 7.0000000e+00 
7.5000000e-01 3.0000000e+00 7.5000000e+00 
7.5000000e-01 3.0000000e+00 8.0000000e+00 
7.5000000e-01 3.0000000e+00 8.5000000e+00 
7.5000000e-01 3.0000000e+00 9.0000000e+00 
7.5000000e-01 3.0000000e+00 9.5000000e+00 
7.5000000e-01 3.0000000e+00 1.0000000e+01 
7.5000000e-01 3.0000000e+00 1.0500000e+01 
7.5000000e-01 3.0000000e+00 1.1000000e+01 
7.5000000e-01 3.0000000e+00 1.1500000e+01 
7.5000000e-01 3.0000000e+00 1.2000000e+01 
7.5000000e-01 3.0000000e+00 1.2500000e+01 
7.5000000e-01 3.0000000e+00 1.3000000e+01 
7.5000000e-01 3.0000000e+00 1.3500000e+01 
7.5000000e-01 3.0000000e+00 1.4000000e+01 
7.5000000e-01 3.0000000e+00 1.4500000e+01 
7.5000000e-01 3.0000000e+00 1.5000000e+01 
7.5000000e-01 3.0000000e+00 1.5500000e+01 
7.5000000e-01 3.0000000e+00 1.6000000e+01 
7.5000000e-01 3.0000000e+00 1.6500000e+01 
7.5000000e-01 3.0000000e+00 1.7000000e+01 
7.5000000e-01 3.0000000e+00 1.7500000e+01 
7.5000000e-01 3.0000000e+00 1.8000000e+01 
7.5000000e-01 3.0000000e+00 1.8500000e+01 
7.5000000e-01 3.0000000e+00 1.9000000e+01 
7.5000000e-01 3.0000000e+00 1.9500000e+01 
7.5000000e-01 3.0000000e+00 2.0000000e+01 
7.5000000e-01 3.0000000e+00 2.0500000e+01 
7.5000000e-01 3.0000000e+00 2.1000000e+01 
7.5000000e-01 3.0000000e+00 2.1500000e+01 
7.5000000e-01 3.0000000e+00 2.2000000e+01 
7.5000000e-01 3.0000000e+00 2.2500000e+01 
7.5000000e-01 3.0000000e+00 2.3000000e+01 
7.5000000e-01 3.0000000e+00 2.3500000e+01 
7.5000000e-01 3.0000000e+00 2.4000000e+01 
7.5000000e-01 3.0000000e+00 2.4500000e+01 
7.5000000e-01 3.0000000e+00 2.5000000e+01 
7.5000000e-01 3.0000000e+00 2.5500000e+01 
7.5000000e-01 3.0000000e+00 2.6000000e+01 
7.5000000e-01 3.0000000e+00 2.6500000e+01 
7.5000000e-01 3.0000000e+00 2.7000000e+01 
7.5000000e-01 3.0000000e+00 2.7500000e+01 
7.5000000e-01 3.0000000e+00 2.8000000e+01 
7.5000000e-01 3.0000000e+00 2.8500000e+01 
7.5000000e-01 3.0000000e+00 2.9000000e+01 
7.5000000e-01 3.0000000e+00 2.9500000e+01 
7.5000000e-01 3.0000000e+00 3.0000000e+01 
7.5000000e-01 3.0000000e+00 3.0500000e+01 
7.5000000e-01 3.0000000e+00 3.1000000e+01 
7.5000000e-01 3.0000000e+00 3.1500000e+01 
7.5000000e-01 3.0000000e+00 3.2000000e+01 
7.5000000e-01 3.0000000e+00 3.2500000e+01 
7.5000000e-01 3.0000000e+00 3.3000000e+01 
7.5000000e-01 3.0000000e+00 3.3500000e+01 
7.5000000e-01 3.0000000e+00 3.4000000e+01 
7.5000000e-01 3.0000000e+00 3.4500000e+01 
7.5000000e-01 3.0000000e+00 3.5000000e+01 
7.5000000e-01 3.0000000e+00 3.5500000e+01 
7.5000000e-01 3.0000000e+00 3.6000000e+01 
7.5000000e-01 3.0000000e+00 3.6500000e+01 
7.5000000e-01 3.0000000e+00 3.7000000e+01 
7.5000000e-01 3.0000000e+00 3.7500000e+01 
7.5000000e-01 3.0000000e+00 3.8000000e+01 
7.5000000e-01 3.0000000e+00 3.8500000e+01 
7.5000000e-01 3.0000000e+00 3.9000000e+01 
7.5000000e-01 3.0000000e+00 3.9500000e+01 
7.5000000e-01 3.0000000e+00 4.0000000e+01 
7.5000000e-01 3.0000000e+00 4.0500000e+01 
7.5000000e-01 3.0000000e+00 4.1000000e+01 
7.5000000e-01 3.0000000e+00 4.1500000e+01 
7.5000000e-01 3.0000000e+00 4.2000000e+01 
7.5000000e-01 3.0000000e+00 4.2500000e+01 
7.5000000e-01 3.0000000e+00 4.3000000e+01 
7.5000000e-01 3.0000000e+00 4.3500000e+01 
7.5000000e-01 3.0000000e+00 4.4000000e+01 
7.5000000e-01 3.0000000e+00 4.4500000e+01 
7.5000000e-01 3.0000000e+00 4.5000000e+01 
7.5000000e-01 3.0000000e+00 4.5500000e+01 
7.5000000e-01 3.0000000e+00 4.6000000e+01 
7.5000000e-01 3.0000000e+00 4.6500000e+01 
7.5000000e-01 3.0000000e+00 4.7000000e+01 
7.5000000e-01 3.0000000e+00 4.7500000e+01 
7.5000000e-01 3.0000000e+00 4.8000000e+01 
7.5000000e-01 3.0000000e+00 4.8500000e+01 
7.5000000e-01 3.0000000e+00 4.9000000e+01 
7.5000000e-01 3.0000000e+00 4.9500000e+01 
7.5000000e-01 3.0250001e+00 0.0000000e+00 
7.5000000e-01 3.0250001e+00 5.0000000e-01 
7.5000000e-01 3.0250001e+00 1.0000000e+00 
7.5000000e-01 3.0250001e+00 1.5000000e+00 
7.5000000e-01 3.0250001e+00 2.0000000e+00 
7.5000000e-01 3.0250001e+00 2.5000000e+00 
7.5000000e-01 3.0250001e+00 3.0000000e+00 
7.5000000e-01 3.0250001e+00 3.5000000e+00 
7.5000000e-01 3.0250001e+00 4.0000000e+00 
7.5000000e-01 3.0250001e+00 4.5000000e+00 
7.5000000e-01 3.0250001e+00 5.0000000e+00 
7.5000000e-01 3.0250001e+00 5.5000000e+00 
7.5000000e-01 3.0250001e+00 6.0000000e+00 
7.5000000e-01 3.0250001e+00 6.5000000e+00 
7.5000000e-01 3.0250001e+00 7.0000000e+00 
7.5000000e-01 3.0250001e+00 7.5000000e+00 
7.5000000e-01 3.0250001e+00 8.0000000e+00 
7.5000000e-01 3.0250001e+00 8.5000000e+00 
7.5000000e-01 3.0250001e+00 9.0000000e+00 
7.5000000e-01 3.0250001e+00 9.5000000e+00 
7.5000000e-01 3.0250001e+00 1.0000000e+01 
7.5000000e-01 3.0250001e+00 1.0500000e+01 
7.5000000e-01 3.0250001e+00 1.1000000e+01 
7.5000000e-01 3.0250001e+00 1.1500000e+01 
7.5000000e-01 3.0250001e+00 1.2000000e+01 
7.5000000e-01 3.0250001e+00 1.2500000e+01 
7.5000000e-01 3.0250001e+00 1.3000000e+01 
7.5000000e-01 3.0250001e+00 1.3500000e+01 
7.5000000e-01 3.0250001e+00 1.4000000e+01 
7.5000000e-01 3.0250001e+00 1.4500000e+01 
7.5000000e-01 3.0250001e+00 1.5000000e+01 
7.5000000e-01 3.0250001e+00 1.5500000e+01 
7.5000000e-01 3.0250001e+00 1.6000000e+01 
7.5000000e-01 3.0250001e+00 1.6500000e+01 
7.5000000e-01 3.0250001e+00 1.7000000e+01 
7.5000000e-01 3.0250001e+00 1.7500000e+01 
7.5000000e-01 3.0250001e+00 1.8000000e+01 
7.5000000e-01 3.0250001e+00 1.8500000e+01 
7.5000000e-01 3.0250001e+00 1.9000000e+01 
7.5000000e-01 3.0250001e+00 1.9500000e+01 
7.5000000e-01 3.0250001e+00 2.0000000e+01 
7.5000000e-01 3.0250001e+00 2.0500000e+01 
7.5000000e-01 3.0250001e+00 2.1000000e+01 
7.5000000e-01 3.0250001e+00 2.1500000e+01 
7.5000000e-01 3.0250001e+00 2.2000000e+01 
7.5000000e-01 3.0250001e+00 2.2500000e+01 
7.5000000e-01 3.0250001e+00 2.3000000e+01 
7.5000000e-01 3.0250001e+00 2.3500000e+01 
7.5000000e-01 3.0250001e+00 2.4000000e+01 
7.5000000e-01 3.0250001e+00 2.4500000e+01 
7.5000000e-01 3.0250001e+00 2.5000000e+01 
7.5000000e-01 3.0250001e+00 2.5500000e+01 
7.5000000e-01 3.0250001e+00 2.6000000e+01 
7.5000000e-01 3.0250001e+00 2.6500000e+01 
7.5000000e-01 3.0250001e+00 2.7000000e+01 
7.5000000e-01 3.0250001e+00 2.7500000e+01 
7.5000000e-01 3.0250001e+00 2.8000000e+01 
7.5000000e-01 3.0250001e+00 2.8500000e+01 
7.5000000e-01 3.0250001e+00 2.9000000e+01 
7.5000000e-01 3.0250001e+00 2.9500000e+01 
7.5000000e-01 3.0250001e+00 3.0000000e+01 
7.5000000e-01 3.0250001e+00 3.0500000e+01 
7.5000000e-01 3.0250001e+00 3.1000000e+01 
7.5000000e-01 3.0250001e+00 3.1500000e+01 
7.5000000e-01 3.0250001e+00 3.2000000e+01 
7.5000000e-01 3.0250001e+00 3.2500000e+01 
7.5000000e-01 3.0250001e+00 3.3000000e+01 
7.5000000e-01 3.0250001e+00 3.3500000e+01 
7.5000000e-01 3.0250001e+00 3.4000000e+01 
7.5000000e-01 3.0250001e+00 3.4500000e+01 
7.5000000e-01 3.0250001e+00 3.5000000e+01 
7.5000000e-01 3.0250001e+00 3.5500000e+01 
7.5000000e-01 3.0250001e+00 3.6000000e+01 
7.5000000e-01 3.0250001e+00 3.6500000e+01 
7.5000000e-01 3.0250001e+00 3.7000000e+01 
7.5000000e-01 3.0250001e+00 3.7500000e+01 
7.5000000e-01 3.0250001e+00 3.8000000e+01 
7.5000000e-01 3.0250001e+00 3.8500000e+01 
7.5000000e-01 3.0250001e+00 3.9000000e+01 
7.5000000e-01 3.0250001e+00 3.9500000e+01 
7.5000000e-01 3.0250001e+00 4.0000000e+01 
7.5000000e-01 3.0250001e+00 4.0500000e+01 
7.5000000e-01 3.0250001e+00 4.1000000e+01 
7.5000000e-01 3.0250001e+00 4.1500000e+01 
7.5000000e-01 3.0250001e+00 4.2000000e+01 
7.5000000e-01 3.0250001e+00 4.2500000e+01 
7.5000000e-01 3.0250001e+00 4.3000000e+01 
7.5000000e-01 3.0250001e+00 4.3500000e+01 
7.5000000e-01 3.0250001e+00 4.4000000e+01 
7.5000000e-01 3.0250001e+00 4.4500000e+01 
7.5000000e-01 3.0250001e+00 4.5000000e+01 
7.5000000e-01 3.0250001e+00 4.5500000e+01 
7.5000000e-01 3.0250001e+00 4.6000000e+01 
7.5000000e-01 3.0250001e+00 4.6500000e+01 
7.5000000e-01 3.0250001e+00 4.7000000e+01 
7.5000000e-01 3.0250001e+00 4.7500000e+01 
7.5000000e-01 3.0250001e+00 4.8000000e+01 
7.5000000e-01 3.0250001e+00 4.8500000e+01 
7.5000000e-01 3.0250001e+00 4.9000000e+01 
7.5000000e-01 3.0250001e+00 4.9500000e+01 
7.5000000e-01 3.0250001e+00 5.0000000e+01 
3.0000000e+00 2.0000000e+00 3.6000000e+01 
8.0487806e-01 3.0000000e+00 3.6000000e+01 
0.0000000e+00 0.0000000e+00 1.0000000e+00 
0.0000000e+00 0.0000000e+00 2.0000000e+00 
0.0000000e+00 0.0000000e+00 3.0000000e+00 
0.0000000e+00 0.0000000e+00 4.0000000e+00 
0.0000000e+00 0.0000000e+00 5.0000000e+00 
0.0000000e+00 0.0000000e+00 6.0000000e+00 
0.0000000e+00 0.0000000e+00 7.0000000e+00 
0.0000000e+00 0.0000000e+00 8.0000000e+00 
[...]
POINT_DATA 1919
FIELD FieldData 3
DISPLACEMENT 3 1919  float
0.0000000e+00 0.0000000e+00 0.0000000e+00 
0.0000000e+00 0.0000000e+00 0.0000000e+00 
0.0000000e+00 0.0000000e+00 0.0000000e+00 
0.0000000e+00 0.0000000e+00 0.0000000e+00 
-1.0378357e-07 4.1284730e-07 2.6906264e-07 
2.3789669e-06 -2.5474178e-06 2.4015403e-06 
0.0000000e+00 -9.6040876e-06 0.0000000e+00 
0.0000000e+00 1.0231375e-05 0.0000000e+00 
-6.7716473e-07 -8.0069537e-07 5.9916050e-07 
2.2096397e-06 -2.5724714e-06 3.3753283e-06 
2.2281712e-07 -4.2747075e-07 6.6925935e-07 
-1.2949745e-06 -5.9151371e-06 2.1225296e-06 
0.0000000e+00 -1.2808254e-05 0.0000000e+00 
0.0000000e+00 1.8567633e-05 0.0000000e+00 
-6.8313611e-06 -6.6978459e-06 5.2509777e-06 
8.3722343e-06 4.5859097e-06 -1.5302419e-05 
-6.4510914e-07 -2.0397229e-05 -3.8356561e-06 
4.4939858e-05 -5.1947874e-05 -1.3506648e-05 
0.0000000e+00 -1.5092804e-05 0.0000000e+00 
0.0000000e+00 3.7021484e-05 0.0000000e+00 
-6.5461454e-06 -2.0070729e-05 -1.2269547e-06 
-7.2611970e-06 -1.9679379e-05 2.7778678e-06 
-5.9829113e-06 -2.0255889e-05 1.6125664e-06 
-4.9030496e-06 -2.1899061e-05 -4.4085823e-07 
-1.3640464e-05 -2.3261033e-05 -7.5946236e-06 
-1.2923530e-05 -2.2956243e-05 -1.3474877e-05 
-5.2768632e-06 -2.0372509e-05 -1.6657463e-05 
1.9119291e-06 -2.0105632e-05 -1.4747957e-05 
2.2700122e-07 -2.5147014e-05 -1.4459225e-05 
1.2108520e-06 -3.4197707e-05 -1.3296245e-05 
-4.6290129e-06 -4.1976415e-05 -1.2308777e-05 
-8.7071385e-06 -4.3278640e-05 -1.1292509e-05 
-1.3561737e-05 -3.7132013e-05 -1.4147966e-05 
-6.2803597e-06 -2.8593364e-05 -1.7077107e-05 
3.4519298e-06 -2.3145371e-05 -2.1836362e-05 
3.6878650e-06 -2.3181543e-05 -1.6583252e-05 
-3.1932586e-06 -2.3885184e-05 -2.0101328e-05 
-6.9766397e-06 -1.4942657e-05 -1.4867293e-05 
2.4340522e-06 7.7963814e-06 -6.5690451e-06 
1.4888667e-05 3.6707846e-05 -3.1431709e-06 
2.2893541e-05 5.7047037e-05 1.4896989e-07 
2.1754860e-05 5.6681620e-05 1.3307581e-05 
1.0275160e-05 4.0489267e-05 2.5243024e-05 
8.0347936e-06 2.8103330e-05 3.1813859e-05 
1.5404476e-05 3.1395819e-05 4.4600522e-05 
1.4057331e-05 4.7411773e-05 5.1879881e-05 
1.2764591e-05 5.9243110e-05 6.4003376e-05 
6.4487263e-06 5.1046540e-05 6.2515748e-05 
3.9985221e-06 2.6323480e-05 6.0260023e-05 
2.0946420e-06 3.0386716e-06 7.8319463e-05 
-1.1869770e-05 -9.0497088e-07 8.1123188e-05 
-1.3227316e-05 1.7500497e-05 7.0055597e-05 
-3.0493999e-05 3.8492035e-06 1.0846399e-04 
-4.7323163e-05 -1.6792867e-04 1.1920440e-04 
-8.0496204e-05 -6.0304033e-04 1.9732121e-04 
-1.1281639e-04 -1.3334650e-03 1.6242402e-04 
-1.5232879e-04 -2.3195962e-03 2.5946554e-04 
-1.8756716e-04 -3.4085491e-03 9.3095114e-05 
-2.2696030e-04 -4.3536909e-03 1.8827189e-04 
-2.4396527e-04 -4.7512976e-03 5.3285796e-05 
-2.3906823e-04 -4.6680733e-03 3.0266519e-05 
-2.4465966e-04 -4.5809685e-03 2.5589412e-05 
-2.2740700e-04 -4.7378284e-03 5.1058520e-05 
-2.5377647e-04 -4.8608300e-03 -4.4187338e-05 
-2.6029910e-04 -4.4793463e-03 -1.2258481e-04 
-2.2954000e-04 -3.4774989e-03 -1.0395907e-04 
-2.0049358e-04 -2.3599283e-03 -2.3966793e-04 
-1.4705102e-04 -1.4258038e-03 -1.5774212e-04 
-1.0244999e-04 -7.6061639e-04 -2.0736712e-04 
-6.5925247e-05 -3.3800030e-04 -1.5106860e-04 
-4.6669014e-05 -1.0520944e-04 -1.5973150e-04 
-2.5683323e-05 -4.3018699e-06 -1.2226524e-04 
-1.6201104e-05 2.2793043e-05 -1.0356521e-04 
-9.0900385e-06 2.1881870e-05 -8.9011824e-05 
-1.7264971e-05 1.8939303e-05 -8.9261921e-05 
-1.2774029e-05 1.3693505e-05 -9.3374008e-05 
-5.5208029e-06 5.9162530e-06 -9.4798685e-05 
7.9618230e-06 1.9133940e-06 -8.3694023e-05 
1.9587695e-05 1.6750042e-05 -7.4397249e-05 
3.1571995e-05 5.8482143e-05 -5.6060653e-05 
4.5218854e-05 1.1203146e-04 -4.2262156e-05 
4.7958183e-05 1.4834308e-04 -2.1293414e-05 
5.2583127e-05 1.4704665e-04 -8.8853139e-06 
4.4385335e-05 1.1595017e-04 1.2641721e-05 
3.7171674e-05 8.6459484e-05 2.4751709e-05 
2.6595708e-05 8.9285022e-05 4.5385394e-05 
1.9927957e-05 1.2087045e-04 7.5309246e-05 
1.6808064e-05 1.6021160e-04 9.2790520e-05 
-6.4788342e-06 1.8341542e-04 1.1028424e-04 
-2.0768992e-05 1.7543409e-04 9.8700853e-05 
-2.3332550e-05 1.4957970e-04 4.1989424e-05 
-1.7571581e-05 1.2019950e-04 2.9348215e-05 
-1.6788004e-05 6.7499386e-05 6.4212152e-05 
-1.2547653e-05 -9.9787489e-05 8.4904990e-05 
-1.2643412e-05 -5.0320086e-04 1.9688437e-04 
-3.2334177e-05 -1.2375914e-03 2.1046014e-04 
-8.3325576e-05 -2.3030939e-03 3.5444993e-04 
-1.4566202e-04 -3.4858973e-03 2.0565164e-04 
-2.1199419e-04 -4.4081160e-03 2.7406757e-04 
-2.4083410e-04 -4.6261731e-03 1.1906672e-04 
-2.4027703e-04 -4.5151901e-03 6.4595872e-05 
-2.5454344e-04 -4.5358413e-03 1.3434963e-05 
-2.5211953e-04 -4.7944207e-03 5.1066422e-06 
-2.7415724e-04 -4.8707142e-03 -1.1232984e-04 
-2.5408689e-04 -4.2611300e-03 -2.2505976e-04 
-1.9603196e-04 -3.1461911e-03 -1.8602828e-04 
-1.5833249e-04 -2.0072821e-03 -2.8714203e-04 
-1.4990705e-04 -1.0711220e-03 -3.3813351e-04 
-3.6874058e-05 -4.0358573e-04 -1.7872560e-04 
-8.3208224e-06 -9.0109952e-06 -1.0502388e-04 
9.7669056e-07 1.6593073e-04 -6.6795299e-05 
-9.5309122e-07 1.9773784e-04 -2.4314320e-05 
-7.5803578e-06 1.5915961e-04 -4.8310617e-06 
-1.0212716e-05 9.7896969e-05 -1.6474418e-05 
-1.3419643e-05 3.8888524e-05 -2.8944643e-05 
-1.0859400e-05 -1.0041567e-05 -4.9838458e-05 
-8.7217340e-06 -4.2017440e-05 -5.7664773e-05 
-3.5859209e-06 -5.4907890e-05 -5.8371937e-05 
1.0575524e-05 -5.4302196e-05 -4.4574550e-05 
0.0000000e+00 -2.0324593e-05 0.0000000e+00 
0.0000000e+00 -2.0032963e-05 0.0000000e+00 
0.0000000e+00 -1.9745712e-05 0.0000000e+00 
0.0000000e+00 -2.0362999e-05 0.0000000e+00 
0.0000000e+00 -2.1925303e-05 0.0000000e+00 
0.0000000e+00 -2.3186982e-05 0.0000000e+00 
0.0000000e+00 -2.2616645e-05 0.0000000e+00 
0.0000000e+00 -2.0374573e-05 0.0000000e+00 
0.0000000e+00 -2.0298310e-05 0.0000000e+00 
0.0000000e+00 -2.5372588e-05 0.0000000e+00 
0.0000000e+00 -3.4254215e-05 0.0000000e+00 
0.0000000e+00 -4.1802810e-05 0.0000000e+00 
0.0000000e+00 -4.2940264e-05 0.0000000e+00 
0.0000000e+00 -3.7004396e-05 0.0000000e+00 
0.0000000e+00 -2.8682705e-05 0.0000000e+00 
0.0000000e+00 -2.3525703e-05 0.0000000e+00 
0.0000000e+00 -2.3529268e-05 0.0000000e+00 
0.0000000e+00 -2.3688559e-05 0.0000000e+00 
0.0000000e+00 -1.4440697e-05 0.0000000e+00 
0.0000000e+00 8.2443203e-06 0.0000000e+00 
0.0000000e+00 3.6810219e-05 0.0000000e+00 
0.0000000e+00 5.6375397e-05 0.0000000e+00 
0.0000000e+00 5.5893401e-05 0.0000000e+00 
0.0000000e+00 4.0554289e-05 0.0000000e+00 
0.0000000e+00 2.8622413e-05 0.0000000e+00 
0.0000000e+00 3.2261338e-05 0.0000000e+00 
0.0000000e+00 4.7719815e-05 0.0000000e+00 
0.0000000e+00 5.8564099e-05 0.0000000e+00 
0.0000000e+00 5.0402501e-05 0.0000000e+00 
0.0000000e+00 2.6003925e-05 0.0000000e+00 
0.0000000e+00 3.2543580e-06 0.0000000e+00 
0.0000000e+00 1.7899346e-06 0.0000000e+00 
0.0000000e+00 2.1523043e-05 0.0000000e+00 
0.0000000e+00 3.9192364e-06 0.0000000e+00 
0.0000000e+00 -1.7073647e-04 0.0000000e+00 
0.0000000e+00 -6.0743064e-04 0.0000000e+00 
0.0000000e+00 -1.3406733e-03 0.0000000e+00 
0.0000000e+00 -2.3257129e-03 0.0000000e+00 
0.0000000e+00 -3.4256063e-03 0.0000000e+00 
0.0000000e+00 -4.3766890e-03 0.0000000e+00 
0.0000000e+00 -4.7847973e-03 0.0000000e+00 
0.0000000e+00 -4.6924548e-03 0.0000000e+00 
0.0000000e+00 -4.6079271e-03 0.0000000e+00 
0.0000000e+00 -4.7573629e-03 0.0000000e+00 
0.0000000e+00 -4.8889136e-03 0.0000000e+00 
0.0000000e+00 -4.5020040e-03 0.0000000e+00 
0.0000000e+00 -3.4986890e-03 0.0000000e+00 
0.0000000e+00 -2.3699871e-03 0.0000000e+00 
0.0000000e+00 -1.4304261e-03 0.0000000e+00 
0.0000000e+00 -7.6176831e-04 0.0000000e+00 
0.0000000e+00 -3.3846009e-04 0.0000000e+00 
0.0000000e+00 -1.0529514e-04 0.0000000e+00 
0.0000000e+00 -3.4808959e-06 0.0000000e+00 
0.0000000e+00 2.4055198e-05 0.0000000e+00 
0.0000000e+00 2.3306542e-05 0.0000000e+00 
0.0000000e+00 1.9003741e-05 0.0000000e+00 
0.0000000e+00 1.3334921e-05 0.0000000e+00 
0.0000000e+00 5.3949434e-06 0.0000000e+00 
0.0000000e+00 2.1621322e-06 0.0000000e+00 
0.0000000e+00 1.7809531e-05 0.0000000e+00 
0.0000000e+00 5.9170579e-05 0.0000000e+00 
0.0000000e+00 1.1189489e-04 0.0000000e+00 
0.0000000e+00 1.4734072e-04 0.0000000e+00 
0.0000000e+00 1.4582461e-04 0.0000000e+00 
0.0000000e+00 1.1554808e-04 0.0000000e+00 
0.0000000e+00 8.7701985e-05 0.0000000e+00 
0.0000000e+00 9.0137219e-05 0.0000000e+00 
0.0000000e+00 1.2164586e-04 0.0000000e+00 
0.0000000e+00 1.6048155e-04 0.0000000e+00 
0.0000000e+00 1.8212461e-04 0.0000000e+00 
0.0000000e+00 1.7490040e-04 0.0000000e+00 
0.0000000e+00 1.5066608e-04 0.0000000e+00 
0.0000000e+00 1.2349221e-04 0.0000000e+00 
0.0000000e+00 6.9667549e-05 0.0000000e+00 
0.0000000e+00 -9.9700716e-05 0.0000000e+00 
0.0000000e+00 -5.0727866e-04 0.0000000e+00 
0.0000000e+00 -1.2490734e-03 0.0000000e+00 
0.0000000e+00 -2.3139035e-03 0.0000000e+00 
0.0000000e+00 -3.5051983e-03 0.0000000e+00 
0.0000000e+00 -4.4284360e-03 0.0000000e+00 
0.0000000e+00 -4.6556694e-03 0.0000000e+00 
0.0000000e+00 -4.5388993e-03 0.0000000e+00 
0.0000000e+00 -4.5637200e-03 0.0000000e+00 
0.0000000e+00 -4.8153629e-03 0.0000000e+00 
0.0000000e+00 -4.8992722e-03 0.0000000e+00 
0.0000000e+00 -4.2820061e-03 0.0000000e+00 
0.0000000e+00 -3.1636802e-03 0.0000000e+00 
0.0000000e+00 -2.0149869e-03 0.0000000e+00 
0.0000000e+00 -1.0740834e-03 0.0000000e+00 
0.0000000e+00 -4.0659113e-04 0.0000000e+00 
0.0000000e+00 -9.9826666e-06 0.0000000e+00 
0.0000000e+00 1.6663119e-04 0.0000000e+00 
0.0000000e+00 1.9932604e-04 0.0000000e+00 
0.0000000e+00 1.6033238e-04 0.0000000e+00 
0.0000000e+00 9.8610610e-05 0.0000000e+00 
0.0000000e+00 3.8853930e-05 0.0000000e+00 
0.0000000e+00 -9.7916054e-06 0.0000000e+00 
0.0000000e+00 -4.1553150e-05 0.0000000e+00 
0.0000000e+00 -5.4592707e-05 0.0000000e+00 
0.0000000e+00 -5.4569766e-05 0.0000000e+00 
0.0000000e+00 -5.2419055e-05 0.0000000e+00 
2.2718032e-05 1.0253723e-05 1.2780833e-05 
-1.7305216e-05 7.8845405e-05 3.0024201e-05 
0.0000000e+00 0.0000000e+00 0.0000000e+00 
0.0000000e+00 0.0000000e+00 0.0000000e+00 
0.0000000e+00 0.0000000e+00 0.0000000e+00 
0.0000000e+00 0.0000000e+00 0.0000000e+00 
0.0000000e+00 0.0000000e+00 0.0000000e+00 
0.0000000e+00 0.0000000e+00 0.0000000e+00 
0.0000000e+00 0.0000000e+00 0.0000000e+00 
0.0000000e+00 0.0000000e+00 0.0000000e+00 
0.0000000e+00 0.0000000e+00 0.0000000e+00 
0.0000000e+00 0.0000000e+00 0.0000000e+00 
0.0000000e+00 0.0000000e+00 0.0000000e+00 
0.0000000e+00 0.0000000e+00 0.0000000e+00 
0.0000000e+00 0.0000000e+00 0.0000000e+00 
0.0000000e+00 0.0000000e+00 0.0000000e+00 
0.0000000e+00 0.0000000e+00 0.0000000e+00 
0.0000000e+00 0.0000000e+00 0.0000000e+00 
0.0000000e+00 0.0000000e+00 0.0000000e+00 
0.0000000e+00 0.0000000e+00 0.0000000e+00 
0.0000000e+00 0.0000000e+00 0.0000000e+00 
0.0000000e+00 0.0000000e+00 0.0000000e+00 
0.0000000e+00 0.0000000e+00 0.0000000e+00 
0.0000000e+00 0.0000000e+00 0.0000000e+00 
0.0000000e+00 0.0000000e+00 0.0000000e+00 
0.0000000e+00 0.0000000e+00 0.0000000e+00 
0.0000000e+00 0.0000000e+00 0.0000000e+00 
0.0000000e+00 0.0000000e+00 0.0000000e+00 
0.0000000e+00 0.0000000e+00 0.0000000e+00 
0.0000000e+00 0.0000000e+00 0.0000000e+00 
0.0000000e+00 0.0000000e+00 0.0000000e+00 
0.0000000e+00 0.0000000e+00 0.0000000e+00 
0.0000000e+00 0.0000000e+00 0.0000000e+00 
0.0000000e+00 0.0000000e+00 0.0000000e+00 
0.0000000e+00 0.0000000e+00 0.0000000e+00 
0.0000000e+00 0.0000000e+00 0.0000000e+00 
0.0000000e+00 0.0000000e+00 0.0000000e+00 
0.0000000e+00 0.0000000e+00 0.0000000e+00 
0.0000000e+00 0.0000000e+00 0.0000000e+00 
0.0000000e+00 0.0000000e+00 0.0000000e+00 
0.0000000e+00 0.0000000e+00 0.0000000e+00 
0.0000000e+00 0.0000000e+00 0.0000000e+00 
0.0000000e+00 0.0000000e+00 0.0000000e+00 
0.0000000e+00 0.0000000e+00 0.0000000e+00 
0.0000000e+00 0.0000000e+00 0.0000000e+00 
0.0000000e+00 0.0000000e+00 0.0000000e+00 
0.0000000e+00 0.0000000e+00 0.0000000e+00 
0.0000000e+00 0.0000000e+00 0.0000000e+00 
0.0000000e+00 0.0000000e+00 0.0000000e+00 
0.0000000e+00 0.0000000e+00 0.0000000e+00 
0.0000000e+00 0.0000000e+00 0.0000000e+00 
0.0000000e+00 0.0000000e+00 0.0000000e+00 
0.0000000e+00 0.0000000e+00 0.0000000e+00 
0.0000000e+00 0.0000000e+00 0.0000000e+00 
0.0000000e+00 0.0000000e+00 0.0000000e+00 
0.0000000e+00 0.0000000e+00 0.0000000e+00 
0.0000000e+00 0.0000000e+00 0.0000000e+00 
0.0000000e+00 0.0000000e+00 0.0000000e+00 
0.0000000e+00 0.0000000e+00 0.0000000e+00 
0.0000000e+00 0.0000000e+00 0.0000000e+00 
0.0000000e+00 0.0000000e+00 0.0000000e+00 
0.0000000e+00 0.0000000e+00 0.0000000e+00 
0.0000000e+00 0.0000000e+00 0.0000000e+00 
0.0000000e+00 0.0000000e+00 0.0000000e+00 
0.0000000e+00 0.0000000e+00 0.0000000e+00 
0.0000000e+00 0.0000000e+00 0.0000000e+00 
0.0000000e+00 0.0000000e+00 0.0000000e+00 
0.0000000e+00 0.0000000e+00 0.0000000e+00 
0.0000000e+00 0.0000000e+00 0.0000000e+00 
0.0000000e+00 0.0000000e+00 0.0000000e+00 
0.0000000e+00 0.0000000e+00 0.0000000e+00 
0.0000000e+00 0.0000000e+00 0.0000000e+00 
0.0000000e+00 0.0000000e+00 0.0000000e+00 
0.0000000e+00 0.0000000e+00 0.0000000e+00 
0.0000000e+00 0.0000000e+00 0.0000000e+00 
0.0000000e+00 0.0000000e+00 0.0000000e+00 
0.0000000e+00 0.0000000e+00 0.0000000e+00 
0.0000000e+00 0.0000000e+00 0.0000000e+00 
0.0000000e+00 0.0000000e+00 0.0000000e+00 
0.0000000e+00 0.0000000e+00 0.0000000e+00 
0.0000000e+00 0.0000000e+00 0.0000000e+00 
0.0000000e+00 0.0000000e+00 0.0000000e+00 
0.0000000e+00 0.0000000e+00 0.0000000e+00 
0.0000000e+00 0.0000000e+00 0.0000000e+00 
0.0000000e+00 0.0000000e+00 0.0000000e+00 
0.0000000e+00 0.0000000e+00 0.0000000e+00 
0.0000000e+00 0.0000000e+00 0.0000000e+00 
0.0000000e+00 0.0000000e+00 0.0000000e+00 
0.0000000e+00 0.0000000e+00 0.0000000e+00 
0.0000000e+00 0.0000000e+00 0.0000000e+00 
0.0000000e+00 0.0000000e+00 0.0000000e+00 
0.0000000e+00 0.0000000e+00 0.0000000e+00 
0.0000000e+00 0.0000000e+00 0.0000000e+00 
0.0000000e+00 0.0000000e+00 0.0000000e+00 
0.0000000e+00 0.0000000e+00 0.0000000e+00 
0.0000000e+00 0.0000000e+00 0.0000000e+00 
0.0000000e+00 0.0000000e+00 0.0000000e+00 
0.0000000e+00 0.0000000e+00 0.0000000e+00 
0.0000000e+00 0.0000000e+00 0.0000000e+00 
0.0000000e+00 0.0000000e+00 0.0000000e+00 
0.0000000e+00 0.0000000e+00 0.0000000e+00 
0.0000000e+00 0.0000000e+00 0.0000000e+00 
0.0000000e+00 0.0000000e+00 0.0000000e+00 
0.0000000e+00 0.0000000e+00 0.0000000e+00 
0.0000000e+00 0.0000000e+00 0.0000000e+00 
0.0000000e+00 0.0000000e+00 0.0000000e+00 
0.0000000e+00 0.0000000e+00 0.0000000e+00 
0.0000000e+00 0.0000000e+00 0.0000000e+00 
1.3412348e-06 -8.7254477e-07 -9.9021292e-07 
1.6595027e-06 -8.4862961e-07 -6.3193153e-07 
-2.1970330e-07 -1.2690003e-06 2.5419288e-07 
-4.2259020e-07 6.2144937e-07 4.8294993e-07 
1.0285980e-06 -1.6026698e-07 1.4271690e-06 
-7.7717175e-07 2.9040664e-06 1.9715671e-06 
-1.2617616e-06 7.3008113e-07 1.3398873e-06 
-8.7564973e-07 -2.0059893e-07 2.5192310e-06 
-3.0446877e-06 2.5196277e-06 2.3489079e-06 
-2.3863290e-06 -2.3631233e-09 1.3095837e-06 
3.2547849e-08 1.3311651e-06 3.7345305e-06 
9.5614143e-07 -2.3626169e-06 4.1420139e-06 
8.6058520e-07 -2.4542360e-06 -7.3838368e-07 
3.9674742e-06 -1.2178762e-05 -5.2386208e-06 
6.5503827e-06 -1.0167221e-06 -8.0044583e-06 
1.9120613e-05 -6.5163208e-06 -1.4244577e-05 
2.4523588e-05 -1.1385291e-05 -1.3969589e-05 
3.4156532e-05 -7.4033264e-06 -1.3817817e-05 
4.3285541e-05 -1.4356010e-05 -1.4967144e-05 
4.8726895e-05 -1.5885715e-05 -7.9033089e-06 
4.8218004e-05 -1.4553232e-05 -1.8913285e-06 
4.1655523e-05 -1.4748404e-05 4.9802798e-06 
3.3064887e-05 -1.3928943e-05 1.0723666e-05 
2.6305694e-05 -8.5250149e-06 8.7555991e-06 
1.4142394e-05 -9.5172902e-07 7.3647120e-06 
2.7910387e-06 7.2033004e-07 9.4503985e-06 
-1.5856295e-06 2.2492363e-06 3.8638877e-06 
-6.1368810e-06 1.7988727e-06 3.5913999e-06 
-6.3876610e-06 -1.5129449e-06 6.2947715e-06 
-4.4929175e-06 2.6213929e-06 5.6422900e-06 
-2.7885110e-06 -1.4234272e-06 2.5259017e-06 
-6.5739437e-07 1.0441182e-07 6.8339496e-06 
9.4914122e-07 -1.8883780e-07 1.0840395e-06 
5.2626892e-06 -5.3081035e-06 -1.9499564e-06 
1.1223038e-05 -6.9747184e-06 -2.5962190e-06 
1.7826656e-05 -8.2994887e-07 -6.7397114e-06 
2.3512412e-05 -8.4969088e-06 -9.2425553e-06 
3.3629785e-05 -1.4787804e-05 -1.2476833e-05 
4.3334840e-05 -1.1730298e-05 -8.5483607e-06 
5.0347171e-05 -2.0448986e-05 -1.6553365e-06 
4.7542177e-05 -1.9167157e-05 2.5497359e-06 
3.9590901e-05 -1.4123493e-05 6.6790967e-06 
3.0198367e-05 -9.0120102e-06 1.0006436e-05 
1.9449715e-05 -3.3322258e-06 1.1259694e-05 
7.7316945e-06 1.0813142e-06 5.0592857e-06 
3.7074249e-06 1.0957798e-06 3.6091990e-06 
-1.2300011e-06 2.3340758e-07 1.3658049e-06 
-1.2105423e-06 -4.5886175e-08 1.0219305e-07 
3.8064735e-07 -8.8423053e-07 2.1014855e-06 
0.0000000e+00 -2.3458868e-05 0.0000000e+00 
0.0000000e+00 -3.6875372e-05 0.0000000e+00 
0.0000000e+00 -3.7775597e-05 0.0000000e+00 
0.0000000e+00 -3.6601112e-05 0.0000000e+00 
0.0000000e+00 -3.6307898e-05 0.0000000e+00 
0.0000000e+00 -2.7227017e-05 0.0000000e+00 
0.0000000e+00 -2.2429597e-06 0.0000000e+00 
0.0000000e+00 -7.1816457e-06 0.0000000e+00 
0.0000000e+00 -1.0161857e-05 0.0000000e+00 
0.0000000e+00 7.6591950e-06 0.0000000e+00 
0.0000000e+00 -1.1347535e-05 0.0000000e+00 
0.0000000e+00 4.3082159e-06 0.0000000e+00 
0.0000000e+00 4.2056590e-06 0.0000000e+00 
0.0000000e+00 -1.6831202e-05 0.0000000e+00 
0.0000000e+00 -6.4008273e-05 0.0000000e+00 
0.0000000e+00 -1.1791702e-05 0.0000000e+00 
0.0000000e+00 -1.4098590e-04 0.0000000e+00 
0.0000000e+00 -2.4197447e-04 0.0000000e+00 
0.0000000e+00 -3.9780920e-04 0.0000000e+00 
0.0000000e+00 -5.3009007e-04 0.0000000e+00 
0.0000000e+00 -5.3094130e-04 0.0000000e+00 
0.0000000e+00 -4.9868959e-04 0.0000000e+00 
0.0000000e+00 -4.0307560e-04 0.0000000e+00 
0.0000000e+00 -2.6850952e-04 0.0000000e+00 
0.0000000e+00 -1.4040868e-04 0.0000000e+00 
0.0000000e+00 -6.8819521e-05 0.0000000e+00 
0.0000000e+00 -3.0329154e-05 0.0000000e+00 
0.0000000e+00 -5.0768758e-05 0.0000000e+00 
0.0000000e+00 -3.9351187e-05 0.0000000e+00 
0.0000000e+00 1.6866590e-05 0.0000000e+00 
0.0000000e+00 4.5772780e-05 0.0000000e+00 
0.0000000e+00 1.8102011e-05 0.0000000e+00 
0.0000000e+00 4.3058837e-05 0.0000000e+00 
0.0000000e+00 2.9676048e-05 0.0000000e+00 
0.0000000e+00 4.9437462e-05 0.0000000e+00 
0.0000000e+00 -2.0470025e-06 0.0000000e+00 
0.0000000e+00 -1.3717631e-05 0.0000000e+00 
0.0000000e+00 -2.2306002e-04 0.0000000e+00 
0.0000000e+00 -3.9290637e-04 0.0000000e+00 
0.0000000e+00 -4.8638423e-04 0.0000000e+00 
0.0000000e+00 -5.8036868e-04 0.0000000e+00 
0.0000000e+00 -5.0267926e-04 0.0000000e+00 
0.0000000e+00 -3.5466871e-04 0.0000000e+00 
0.0000000e+00 -1.8226050e-04 0.0000000e+00 
0.0000000e+00 -4.2296178e-05 0.0000000e+00 
0.0000000e+00 9.6551257e-06 0.0000000e+00 
0.0000000e+00 -1.8030332e-06 0.0000000e+00 
0.0000000e+00 -1.4753674e-05 0.0000000e+00 
0.0000000e+00 -1.1854238e-05 0.0000000e+00 
1.9834085e-06 -1.3356311e-06 -1.3455458e-06 
1.8416254e-06 -8.8573120e-07 -3.4300231e-06 
2.8710560e-06 -1.7083780e-06 -4.2410052e-06 
1.1331657e-06 -6.0706561e-06 -5.8503779e-06 
1.7770884e-06 -2.3845043e-06 3.7463979e-06 
-3.1040651e-07 -2.3350872e-06 4.4997832e-06 
-5.7320506e-07 7.8045019e-07 3.7636432e-06 
-9.8273563e-07 6.8998270e-06 2.4796095e-06 
-2.5752149e-07 4.6886854e-07 8.7477116e-07 
-6.8673080e-07 -1.3256839e-06 7.9772650e-07 
-1.7892900e-06 -1.6563462e-06 2.2778721e-07 
-2.8474733e-06 5.9643634e-07 -7.0430093e-07 
-1.5564477e-06 3.9887007e-07 1.1735705e-06 
-4.5835886e-06 5.1347065e-06 9.3158229e-07 
-3.5300386e-06 2.6035868e-06 4.5278671e-06 
-4.6871232e-06 -2.2218519e-06 4.4430917e-06 
-4.4230615e-06 2.3707037e-06 5.8477508e-06 
9.0107420e-07 -4.3245691e-06 6.3730267e-06 
-2.7232275e-06 -1.3919406e-06 5.3154736e-06 
8.3627509e-07 -3.7444622e-06 3.3930746e-07 
-2.8709943e-07 -1.9621855e-06 -1.2293816e-06 
8.2285551e-06 -7.6683791e-06 -4.6613695e-06 
1.2748146e-05 1.6375610e-06 -5.3431145e-06 
1.1632953e-05 -7.1528575e-06 -1.1117159e-05 
2.0749785e-05 -1.1120814e-05 -2.1104775e-05 
3.7415353e-05 1.6074232e-09 -1.5192269e-05 
4.0816110e-05 -1.0908020e-05 -1.2965865e-05 
4.3788150e-05 -1.3353327e-05 -9.4306815e-06 