# vtk DataFile Version 4.0
vtk output
ASCII
DATASET UNSTRUCTURED_GRID
POINTS 1919 float
0.0000000e+00 0.0000000e+00 0.0000000e+00 
0.0000000e+00 0.0000000e+00 5.0000000e+01 
5.0000000e+00 0.0000000e+00 0.0000000e+00 
5.0000000e+00 0.0000000e+00 5.0000000e+01 
5.0000000e+00 1.0000000e+00 0.0000000e+00 
5.0000000e+00 1.0000000e+00 5.0000000e+01 
0.0000000e+00 1.0000000e+00 0.0000000e+00 
0.0000000e+00 1.0000000e+00 5.0000000e+01 
5.0000000e+00 2.0000000e+00 0.0000000e+00 
5.0000000e+00 2.0000000e+00 5.0000000e+01 
3.0000000e+00 2.0000000e+00 0.0000000e+00 
3.0000000e+00 2.0000000e+00 5.0000000e+01 
0.0000000e+00 2.0000000e+00 0.0000000e+00 
0.0000000e+00 2.0000000e+00 5.0000000e+01 
1.5000000e+00 3.0000000e+00 0.0000000e+00 
1.5000000e+00 3.0000000e+00 5.0000000e+01 
7.5000000e-01 3.0000000e+00 0.0000000e+00 
7.5000000e-01 3.0000000e+00 5.0000000e+01 
0.0000000e+00 3.0000000e+00 0.0000000e+00 
0.0000000e+00 3.0000000e+00 5.0000000e+01 
7.5000000e-01 3.0000000e+00 5.0000000e-01 
7.5000000e-01 3.0000000e+00 1.0000000e+00 
7.5000000e-01 3.0000000e+00 1.5000000e+00 
7.5000000e-01 3.0000000e+00 2.0000000e+00 
7.5000000e-01 3.0000000e+00 2.5000000e+00 
7.5000000e-01 3.0000000e+00 3.0000000e+00 
7.5000000e-01 3.0000000e+00 3.5000000e+00 
7.5000000e-01 3.0000000e+00 4.0000000e+00 
7.5000000e-01 3.0000000e+00 4.5000000e+00 
7.5000000e-01 3.0000000e+00 5.0000000e+00 
7.5000000e-01 3.0000000e+00 5.5000000e+00 
7.5000000e-01 3.0000000e+00 6.0000000e+00 
7.5000000e-01 3.0000000e+00 6.5000000e+00 
7.5000000e-01 3.0000000e+00 7.0000000e+00 
7.5000000e-01 3.0000000e+00 7.5000000e+00 
7.5000000e-01 3.0000000e+00 8.0000000e+00 
7.5000000e-01 3.0000000e+00 8.5000000e+00 
7.5000000e-01 3.0000000e+00 9.0000000e+00 
7.5000000e-01 3.0000000e+00 9.5000000e+00 
7.5000000e-01 3.0000000e+00 1.0000000e+01 
7.5000000e-01 3.0000000e+00 1.0500000e+01 
7.5000000e-01 3.0000000e+00 1.1000000e+01 
7.5000000e-01 3.0000000e+00 1.1500000e+01 
7.5000000e-01 3.0000000e+00 1.2000000e+01 
7.5000000e-01 3.0000000e+00 1.2500000e+01 
7.5000000e-01 3.0000000e+00 1.3000000e+01 
7.5000000e-01 3.0000000e+00 1.3500000e+01 
7.5000000e-01 3.0000000e+00 1.4000000e+01 
7.5000000e-01 3.0000000e+00 1.4500000e+01 
7.5000000e-01 3.0000000e+00 1.5000000e+01 
7.5000000e-01 3.0000000e+00 1.5500000e+01 
7.5000000e-01 3.0000000e+00 1.6000000e+01 
7.5000000e-01 3.0000000e+00 1.6500000e+01 
7.5000000e-01 3.0000000e+00 1.7000000e+01 
7.5000000e-01 3.0000000e+00 1.7500000e+01 
7.5000000e-01 3.0000000e+00 1.8000000e+01 
7.5000000e-01 3.0000000e+00 1.8500000e+01 
7.5000000e-01 3.0000000e+00 1.9000000e+01 
7.5000000e-01 3.0000000e+00 1.9500000e+01 
7.5000000e-01 3.0000000e+00 2.0000000e+01 
7.5000000e-01 3.0000000e+00 2.0500000e+01 
7.5000000e-01 3.0000000e+00 2.1000000e+01 
7.5000000e-01 3.0000000e+00 2.1500000e+01 
7.5000000e-01 3.0000000e+00 2.2000000e+01 
7.5000000e-01 3.0000000e+00 2.2500000e+01 
7.5000000e-01 3.0000000e+00 2.3000000e+01 
7.5000000e-01 3.0000000e+00 2.3500000e+01 
7.5000000e-01 3.0000000e+00 2.4000000e+01 
7.5000000e-01 3.0000000e+00 2.4500000e+01 
7.5000000e-01 3.0000000e+00 2.5000000e+01 
7.5000000e-01 3.0000000e+00 2.5500000e+01 
7.5000000e-01 3.0000000e+00 2.6000000e+01 
7.5000000e-01 3.0000000e+00 2.6500000e+01 
7.5000000e-01 3.0000000e+00 2.7000000e+01 
7.5000000e-01 3.0000000e+00 2.7500000e+01 
7.5000000e-01 3.0000000e+00 2.8000000e+01 
7.5000000e-01 3.0000000e+00 2.8500000e+01 
7.5000000e-01 3.0000000e+00 2.9000000e+01 
7.5000000e-01 3.0000000e+00 2.9500000e+01 
7.5000000e-01 3.0000000e+00 3.0000000e+01 
7.5000000e-01 3.0000000e+00 3.0500000e+01 
7.5000000e-01 3.0000000e+00 3.1000000e+01 
7.5000000e-01 3.0000000e+00 3.1500000e+01 
7.5000000e-01 3.0000000e+00 3.2000000e+01 
7.5000000e-01 3.0000000e+00 3.2500000e+01 
7.5000000e-01 3.0000000e+00 3.3000000e+01 
7.5000000e-01 3.0000000e+00 3.3500000e+01 
7.5000000e-01 3.0000000e+00 3.4000000e+01 
7.5000000e-01 3.0000000e+00 3.4500000e+01 
7.5000000e-01 3.0000000e+00 3.5000000e+01 
7.5000000e-01 3.0000000e+00 3.5500000e+01 
7.5000000e-01 3.0000000e+00 3.6000000e+01 
7.5000000e-01 3.0000000e+00 3.6500000e+01 
7.5000000e-01 3.0000000e+00 3.7000000e+01 
7.5000000e-01 3.0000000e+00 3.7500000e+01 
7.5000000e-01 3.0000000e+00 3.8000000e+01 
7.5000000e-01 3.0000000e+00 3.8500000e+01 
7.5000000e-01 3.0000000e+00 3.9000000e+01 
7.5000000e-01 3.0000000e+00 3.9500000e+01 
7.5000000e-01 3.0000000e+00 4.0000000e+01 
7.5000000e-01 3.0000000e+00 4.0500000e+01 
7.5000000e-01 3.0000000e+00 4.1000000e+01 
7.5000000e-01 3.0000000e+00 4.1500000e+01 
7.5000000e-01 3.0000000e+00 4.2000000e+01 
7.5000000e-01 3.0000000e+00 4.2500000e+01 
7.5000000e-01 3.0000000e+00 4.3000000e+01 
7.5000000e-01 3.0000000e+00 4.3500000e+01 
7.5000000e-01 3.0000000e+00 4.4000000e+01 
7.5000000e-01 3.0000000e+00 4.4500000e+01 
7.5000000e-01 3.0000000e+00 4.5000000e+01 
7.5000000e-01 3.0000000e+00 4.5500000e+01 
7.5000000e-01 3.0000000e+00 4.6000000e+01 
7.5000000e-01 3.0000000e+00 4.6500000e+01 
7.5000000e-01 3.0000000e+00 4.7000000e+01 
7.5000000e-01 3.0000000e+00 4.7500000e+01 
7.5000000e-01 3.0000000e+00 4.8000000e+01 
7.5000000e-01 3.0000000e+00 4.8500000e+01 
7.5000000e-01 3.0000000e+00 4.9000000e+01 
7.5000000e-01 3.0000000e+00 4.9500000e+01 
7.5000000e-01 3.0250001e+00 0.0000000e+00 
7.5000000e-01 3.0250001e+00 5.0000000e-01 
7.5000000e-01 3.0250001e+00 1.0000000e+00 
7.5000000e-01 3.0250001e+00 1.5000000e+00 
7.5000000e-01 3.0250001e+00 2.0000000e+00 
7.5000000e-01 3.0250001e+00 2.5000000e+00 
7.5000000e-01 3.0250001e+00 3.0000000e+00 
7.5000000e-01 3.0250001e+00 3.5000000e+00 
7.5000000e-01 3.0250001e+00 4.0000000e+00 
7.5000000e-01 3.0250001e+00 4.5000000e+00 
7.5000000e-01 3.0250001e+00 5.0000000e+00 
7.5000000e-01 3.0250001e+00 5.5000000e+00 
7.5000000e-01 3.0250001e+00 6.0000000e+00 
7.5000000e-01 3.0250001e+00 6.5000000e+00 
7.5000000e-01 3.0250001e+00 7.0000000e+00 
7.5000000e-01 3.0250001e+00 7.5000000e+00 
7.5000000e-01 3.0250001e+00 8.0000000e+00 
7.5000000e-01 3.0250001e+00 8.5000000e+00 
7.5000000e-01 3.0250001e+00 9.0000000e+00 
7.5000000e-01 3.0250001e+00 9.5000000e+00 
7.5000000e-01 3.0250001e+00 1.0000000e+01 
7.5000000e-01 3.0250001e+00 1.0500000e+01 
7.5000000e-01 3.0250001e+00 1.1000000e+01 
7.5000000e-01 3.0250001e+00 1.1500000e+01 
7.5000000e-01 3.0250001e+00 1.2000000e+01 
7.5000000e-01 3.0250001e+00 1.2500000e+01 
7.5000000e-01 3.0250001e+00 1.3000000e+01 
7.5000000e-01 3.0250001e+00 1.3500000e+01 
7.5000000e-01 3.0250001e+00 1.4000000e+01 
7.5000000e-01 3.0250001e+00 1.4500000e+01 
7.5000000e-01 3.0250001e+00 1.5000000e+01 
7.5000000e-01 3.0250001e+00 1.5500000e+01 
7.5000000e-01 3.0250001e+00 1.6000000e+01 
7.5000000e-01 3.0250001e+00 1.6500000e+01 
7.5000000e-01 3.0250001e+00 1.7000000e+01 
7.5000000e-01 3.0250001e+00 1.7500000e+01 
7.5000000e-01 3.0250001e+00 1.8000000e+01 
7.5000000e-01 3.0250001e+00 1.8500000e+01 
7.5000000e-01 3.0250001e+00 1.9000000e+01 
7.5000000e-01 3.0250001e+00 1.9500000e+01 
7.5000000e-01 3.0250001e+00 2.0000000e+01 
7.5000000e-01 3.0250001e+00 2.0500000e+01 
7.5000000e-01 3.0250001e+00 2.1000000e+01 
7.5000000e-01 3.0250001e+00 2.1500000e+01 
7.5000000e-01 3.0250001e+00 2.2000000e+01 
7.5000000e-01 3.0250001e+00 2.2500000e+01 
7.5000000e-01 3.0250001e+00 2.3000000e+01 
7.5000000e-01 3.0250001e+00 2.3500000e+01 
7.5000000e-01 3.0250001e+00 2.4000000e+01 
7.5000000e-01 3.0250001e+00 2.4500000e+01 
7.5000000e-01 3.0250001e+00 2.5000000e+01 
7.5000000e-01 3.0250001e+00 2.5500000e+01 
7.5000000e-01 3.0250001e+00 2.6000000e+01 
7.5000000e-01 3.0250001e+00 2.6500000e+01 
7.5000000e-01 3.0250001e+00 2.7000000e+01 
7.5000000e-01 3.0250001e+00 2.7500000e+01 
7.5000000e-01 3.0250001e+00 2.8000000e+01 
7.5000000e-01 3.0250001e+00 2.8500000e+01 
7.5000000e-01 3.0250001e+00 2.9000000e+01 
7.5000000e-01 3.0250001e+00 2.9500000e+01 
7.5000000e-01 3.0250001e+00 3.0000000e+01 
7.5000000e-01 3.0250001e+00 3.0500000e+01 
7.5000000e-01 3.0250001e+00 3.1000000e+01 
7.5000000e-01 3.0250001e+00 3.1500000e+01 
7.5000000e-01 3.0250001e+00 3.2000000e+01 
7.5000000e-01 3.0250001e+00 3.2500000e+01 
7.5000000e-01 3.0250001e+00 3.3000000e+01 
7.5000000e-01 3.0250001e+00 3.3500000e+01 
7.5000000e-01 3.0250001e+00 3.4000000e+01 
7.5000000e-01 3.0250001e+00 3.4500000e+01 
7.5000000e-01 3.0250001e+00 3.5000000e+01 
7.5000000e-01 3.0250001e+00 3.5500000e+01 
7.5000000e-01 3.0250001e+00 3.6000000e+01 
7.5000000e-01 3.0250001e+00 3.6500000e+01 
7.5000000e-01 3.0250001e+00 3.7000000e+01 
7.5000000e-01 3.0250001e+00 3.7500000e+01 
7.5000000e-01 3.0250001e+00 3.8000000e+01 
7.5000000e-01 3.0250001e+00 3.8500000e+01 
7.5000000e-01 3.0250001e+00 3.9000000e+01 
7.5000000e-01 3.0250001e+00 3.9500000e+01 
7.5000000e-01 3.0250001e+00 4.0000000e+01 
7.5000000e-01 3.0250001e+00 4.0500000e+01 
7.5000000e-01 3.0250001e+00 4.1000000e+01 
7.5000000e-01 3.0250001e+00 4.1500000e+01 
7.5000000e-01 3.0250001e+00 4.2000000e+01 
7.5000000e-01 3.0250001e+00 4.2500000e+01 
7.5000000e-01 3.0250001e+00 4.3000000e+01 
7.5000000e-01 3.0250001e+00 4.3500000e+01 
7.5000000e-01 3.0250001e+00 4.4000000e+01 
7.5000000e-01 3.0250001e+00 4.4500000e+01 
7.5000000e-01 3.0250001e+00 4.5000000e+01 
7.5000000e-01 3.0250001e+00 4.5500000e+01 
7.5000000e-01 3.0250001e+00 4.6000000e+01 
7.5000000e-01 3.0250001e+00 4.6500000e+01 
7.5000000e-01 3.0250001e+00 4.7000000e+01 
7.5000000e-01 3.0250001e+00 4.7500000e+01 
7.5000000e-01 3.0250001e+00 4.8000000e+01 
7.5000000e-01 3.0250001e+00 4.8500000e+01 
7.5000000e-01 3.0250001e+00 4.9000000e+01 
7.5000000e-01 3.0250001e+00 4.9500000e+01 
7.5000000e-01 3.0250001e+00 5.0000000e+01 
3.0000000e+00 2.0000000e+00 3.6000000e+01 
8.0487806e-01 3.0000000e+00 3.6000000e+01 
0.0000000e+00 0.0000000e+00 1.0000000e+00 
0.0000000e+00 0.0000000e+00 2.0000000e+00 
0.0000000e+00 0.0000000e+00 3.0000000e+00 
0.0000000e+00 0.0000000e+00 4.0000000e+00 
0.0000000e+00 0.0000000e+00 5.0000000e+00 
0.0000000e+00 0.0000000e+00 6.0000000e+00 
0.0000000e+00 0.0000000e+00 7.0000000e+00 
0.0000000e+00 0.0000000e+00 8.0000000e+00 
[...]
POINT_DATA 1919
FIELD FieldData 3
DISPLACEMENT 3 1919  float
0.0000000e+00 0.0000000e+00 0.0000000e+00 
0.0000000e+00 0.0000000e+00 0.0000000e+00 
0.0000000e+00 0.0000000e+00 0.0000000e+00 
0.0000000e+00 0.0000000e+00 0.0000000e+00 
8.3881037e-07 5.1451252e-07 6.2039749e-07 
-1.6218787e-06 1.5919740e-06 -3.2382891e-06 
0.0000000e+00 6.4287133e-06 0.0000000e+00 
0.0000000e+00 -1.3386485e-05 0.0000000e+00 
1.7872361e-06 -1.7811048e-07 8.1089132e-07 
-2.9015466e-06 3.6892902e-07 -5.5396667e-06 
-1.8242040e-06 -1.4122451e-06 -2.0496161e-06 
-8.1867720e-06 1.0274122e-06 -1.4389319e-05 
0.0000000e+00 1.0949298e-05 0.0000000e+00 
0.0000000e+00 -2.7165825e-05 0.0000000e+00 
3.9481697e-06 -5.5919381e-06 -2.0946856e-05 
-6.3540251e-06 -2.2022235e-05 -6.1617335e-05 
-6.3429375e-06 3.1521722e-05 -1.2506163e-05 
1.2590785e-05 -8.3884661e-05 -3.1369589e-05 
0.0000000e+00 1.2033761e-06 0.0000000e+00 
0.0000000e+00 -4.9996805e-05 0.0000000e+00 
7.9709440e-07 3.5018991e-05 -1.9390407e-05 
7.5635912e-06 4.3937751e-05 -2.0239750e-05 
1.3912327e-05 5.5318062e-05 -9.5760834e-06 
1.7104174e-05 6.5412773e-05 2.7759418e-06 
1.7883054e-05 7.1103168e-05 1.3109406e-05 
1.4696975e-05 7.2815143e-05 2.0516269e-05 
7.3738624e-06 7.2695104e-05 1.8942081e-05 
1.1382812e-05 7.3352618e-05 1.5219250e-05 
2.2827855e-05 7.3715935e-05 2.0484780e-05 
2.9832943e-05 7.0477843e-05 2.4417986e-05 
2.0187230e-05 6.0957616e-05 3.1343803e-05 
1.2471601e-05 4.3570319e-05 3.5053861e-05 
4.8088123e-06 2.1660233e-05 3.0501080e-05 
7.0343772e-06 2.2726440e-06 2.1764528e-05 
-1.5153786e-06 -1.0034682e-05 1.9350506e-05 
-4.9239848e-06 -1.7459215e-05 2.2398349e-06 
-6.6353887e-06 -2.9813278e-05 -3.2604553e-06 
-1.5061252e-05 -5.9033660e-05 -4.2247079e-06 
-1.8031780e-05 -9.9878162e-05 -1.3412099e-05 
-2.8139608e-05 -1.3025805e-04 -2.2394965e-05 
-4.0041126e-05 -1.2999472e-04 -3.3816737e-05 
-3.6796497e-05 -9.4333125e-05 -5.3455260e-05 
-2.1314874e-05 -3.9186281e-05 -6.7224020e-05 
-1.3146715e-05 9.7994507e-06 -6.8002337e-05 
6.0699772e-06 4.9220369e-05 -8.4589250e-05 
8.9933446e-06 9.4808092e-05 -6.1391911e-05 
2.3465980e-05 1.6591838e-04 -5.7056724e-05 
3.0359575e-05 2.5836442e-04 -3.8288461e-05 
3.6748588e-05 3.0718543e-04 1.1778704e-05 
3.7601952e-05 1.8795479e-04 2.9817253e-05 
3.9024897e-05 -2.1105143e-04 1.2163173e-04 
1.1997811e-05 -9.3446719e-04 1.5045126e-04 
-3.8614085e-05 -1.9563860e-03 3.0587125e-04 
-1.1021950e-04 -3.1212531e-03 1.7030173e-04 
-2.0188569e-04 -4.1716322e-03 2.7970097e-04 
-2.6026386e-04 -4.6866564e-03 1.3301962e-04 
-2.7658936e-04 -4.7150007e-03 9.1883114e-05 
-2.7580306e-04 -4.7130212e-03 3.4928897e-05 
-2.7681742e-04 -4.9104346e-03 1.7397206e-05 
-2.9339438e-04 -5.0163432e-03 -1.1080738e-04 
-2.6587603e-04 -4.5468444e-03 -2.0285499e-04 
-1.8831402e-04 -3.4004392e-03 -1.6230627e-04 
-1.2592165e-04 -2.1254094e-03 -2.9786292e-04 
-5.9184160e-05 -1.0549157e-03 -1.8514127e-04 
1.1481859e-05 -3.0015901e-04 -2.0181006e-04 
5.9544993e-05 1.6136118e-04 -8.9333567e-05 
7.9984929e-05 3.8543856e-04 -4.2110103e-05 
7.5566131e-05 4.4830819e-04 2.0222300e-05 
5.9855414e-05 4.2459476e-04 5.0556020e-05 
6.0447583e-05 3.7024566e-04 7.1161448e-05 
5.4768501e-05 3.0928885e-04 1.0902303e-04 
4.6768768e-05 2.3784053e-04 1.0124056e-04 
3.6956037e-05 1.5309175e-04 1.0114712e-04 
1.4449034e-05 6.7529036e-05 7.9772588e-05 
-9.8574492e-06 2.5419156e-06 7.1612463e-05 
-1.9742156e-05 -2.9065039e-05 5.3883636e-05 
-2.8876309e-05 -3.6906498e-05 4.9095379e-05 
-3.0168334e-05 -4.9962524e-05 3.6316564e-05 
-2.7910512e-05 -8.8646746e-05 2.7023534e-05 
-3.7258702e-05 -1.4667815e-04 6.4713895e-06 
-4.0625226e-05 -1.9086058e-04 -1.8938601e-05 
-3.6433867e-05 -1.8712851e-04 -5.3846692e-05 
-1.6574093e-05 -1.3073791e-04 -7.8121513e-05 
1.3338230e-06 -5.1335523e-05 -9.9753350e-05 
1.7500519e-05 1.8339017e-05 -1.0081113e-04 
2.1148868e-05 6.0286009e-05 -4.5161920e-05 
1.1364552e-05 8.6985121e-05 -1.6105556e-05 
1.0165954e-05 1.1171638e-04 1.9469873e-05 
2.6408293e-06 1.0497687e-04 4.2028911e-05 
-3.5187524e-05 -2.6539274e-05 1.0165832e-04 
-7.0203314e-05 -4.2111144e-04 1.3187602e-04 
-1.1128534e-04 -1.1851566e-03 8.6129243e-05 
-1.4757838e-04 -2.3080749e-03 1.9904849e-04 
-1.6577290e-04 -3.5477006e-03 5.4496548e-05 
-2.9696929e-04 -4.5160209e-03 1.5389007e-04 
-2.9394293e-04 -4.7282404e-03 4.6956604e-05 
-2.8372614e-04 -4.5860675e-03 1.2853974e-05 
-2.8088392e-04 -4.5663919e-03 -2.2417795e-05 
-2.5861006e-04 -4.7878399e-03 -1.6430906e-05 
-2.6510184e-04 -4.8347986e-03 -1.0141272e-04 
-2.3626578e-04 -4.2047286e-03 -1.9394587e-04 
-1.8018675e-04 -3.0825096e-03 -1.3762619e-04 
-1.2826986e-04 -1.9570501e-03 -2.2085803e-04 
-7.9237550e-05 -1.0554407e-03 -1.0089445e-04 
-2.7764991e-05 -4.4273393e-04 -1.1075240e-04 
6.3320289e-07 -8.3717787e-05 -4.0364950e-05 
2.0366559e-05 9.0576825e-05 -3.7195234e-05 
4.1755706e-05 1.5558107e-04 -2.3483050e-05 
2.3671984e-05 1.6772770e-04 4.7878785e-07 
2.2945513e-05 1.6326140e-04 1.2663217e-05 
2.5871514e-05 1.5160495e-04 2.7465794e-05 
2.5324509e-05 1.3112322e-04 3.2140615e-05 
1.7015278e-05 1.0181253e-04 4.1779029e-05 
4.8055192e-08 6.9207526e-05 4.3392371e-05 
-2.1663198e-05 3.7658301e-05 3.5635458e-05 
-2.9007580e-05 7.9204792e-06 9.0740868e-06 
-3.0270448e-05 -2.1899765e-05 -2.2419639e-05 
-2.1703925e-05 -5.1458210e-05 -5.2036943e-05 
-4.9500359e-06 -7.4704745e-05 -5.3084219e-05 
0.0000000e+00 3.1565425e-05 0.0000000e+00 
0.0000000e+00 3.5034813e-05 0.0000000e+00 
0.0000000e+00 4.4012791e-05 0.0000000e+00 
0.0000000e+00 5.5399756e-05 0.0000000e+00 
0.0000000e+00 6.5351327e-05 0.0000000e+00 
0.0000000e+00 7.0990121e-05 0.0000000e+00 
0.0000000e+00 7.2644732e-05 0.0000000e+00 
0.0000000e+00 7.2807241e-05 0.0000000e+00 
0.0000000e+00 7.3557734e-05 0.0000000e+00 
0.0000000e+00 7.3855066e-05 0.0000000e+00 
0.0000000e+00 7.0548827e-05 0.0000000e+00 
0.0000000e+00 6.0740495e-05 0.0000000e+00 
0.0000000e+00 4.3316235e-05 0.0000000e+00 
0.0000000e+00 2.1641214e-05 0.0000000e+00 
0.0000000e+00 2.5087018e-06 0.0000000e+00 
0.0000000e+00 -9.5086070e-06 0.0000000e+00 
0.0000000e+00 -1.7049799e-05 0.0000000e+00 
0.0000000e+00 -3.0529733e-05 0.0000000e+00 
0.0000000e+00 -6.0041013e-05 0.0000000e+00 
0.0000000e+00 -1.0018496e-04 0.0000000e+00 
0.0000000e+00 -1.2979700e-04 0.0000000e+00 
0.0000000e+00 -1.2885945e-04 0.0000000e+00 
0.0000000e+00 -9.3550167e-05 0.0000000e+00 
0.0000000e+00 -4.0065035e-05 0.0000000e+00 
0.0000000e+00 8.8184015e-06 0.0000000e+00 
0.0000000e+00 4.8668629e-05 0.0000000e+00 
0.0000000e+00 9.5499498e-05 0.0000000e+00 
0.0000000e+00 1.6874693e-04 0.0000000e+00 
0.0000000e+00 2.6172589e-04 0.0000000e+00 
0.0000000e+00 3.0774769e-04 0.0000000e+00 
0.0000000e+00 1.8564968e-04 0.0000000e+00 
0.0000000e+00 -2.1546021e-04 0.0000000e+00 
0.0000000e+00 -9.4258256e-04 0.0000000e+00 
0.0000000e+00 -1.9627342e-03 0.0000000e+00 
0.0000000e+00 -3.1381724e-03 0.0000000e+00 
0.0000000e+00 -4.1938000e-03 0.0000000e+00 
0.0000000e+00 -4.7193957e-03 0.0000000e+00 
0.0000000e+00 -4.7391113e-03 0.0000000e+00 
0.0000000e+00 -4.7397842e-03 0.0000000e+00 
0.0000000e+00 -4.9303495e-03 0.0000000e+00 
0.0000000e+00 -5.0448333e-03 0.0000000e+00 
0.0000000e+00 -4.5701098e-03 0.0000000e+00 
0.0000000e+00 -3.4225478e-03 0.0000000e+00 
0.0000000e+00 -2.1359231e-03 0.0000000e+00 
0.0000000e+00 -1.0606097e-03 0.0000000e+00 
0.0000000e+00 -3.0158780e-04 0.0000000e+00 
0.0000000e+00 1.6044154e-04 0.0000000e+00 
0.0000000e+00 3.8572101e-04 0.0000000e+00 
0.0000000e+00 4.4963171e-04 0.0000000e+00 
0.0000000e+00 4.2649941e-04 0.0000000e+00 
0.0000000e+00 3.7176409e-04 0.0000000e+00 
0.0000000e+00 3.0929910e-04 0.0000000e+00 
0.0000000e+00 2.3709178e-04 0.0000000e+00 
0.0000000e+00 1.5261050e-04 0.0000000e+00 
0.0000000e+00 6.7940338e-05 0.0000000e+00 
0.0000000e+00 3.6008666e-06 0.0000000e+00 
0.0000000e+00 -2.8161196e-05 0.0000000e+00 
0.0000000e+00 -3.7105401e-05 0.0000000e+00 
0.0000000e+00 -5.0993727e-05 0.0000000e+00 
0.0000000e+00 -9.0091642e-05 0.0000000e+00 
0.0000000e+00 -1.4720477e-04 0.0000000e+00 
0.0000000e+00 -1.8983521e-04 0.0000000e+00 
0.0000000e+00 -1.8540068e-04 0.0000000e+00 
0.0000000e+00 -1.3002864e-04 0.0000000e+00 
0.0000000e+00 -5.1601655e-05 0.0000000e+00 
0.0000000e+00 1.6847940e-05 0.0000000e+00 
0.0000000e+00 5.9883321e-05 0.0000000e+00 
0.0000000e+00 8.8385612e-05 0.0000000e+00 
0.0000000e+00 1.1445968e-04 0.0000000e+00 
0.0000000e+00 1.0789259e-04 0.0000000e+00 
0.0000000e+00 -2.6686612e-05 0.0000000e+00 
0.0000000e+00 -4.2624390e-04 0.0000000e+00 
0.0000000e+00 -1.1972513e-03 0.0000000e+00 
0.0000000e+00 -2.3180887e-03 0.0000000e+00 
0.0000000e+00 -3.5689089e-03 0.0000000e+00 
0.0000000e+00 -4.5337845e-03 0.0000000e+00 
0.0000000e+00 -4.7586532e-03 0.0000000e+00 
0.0000000e+00 -4.6102186e-03 0.0000000e+00 
0.0000000e+00 -4.5944061e-03 0.0000000e+00 
0.0000000e+00 -4.8086592e-03 0.0000000e+00 
0.0000000e+00 -4.8628962e-03 0.0000000e+00 
0.0000000e+00 -4.2253672e-03 0.0000000e+00 
0.0000000e+00 -3.1003074e-03 0.0000000e+00 
0.0000000e+00 -1.9648955e-03 0.0000000e+00 
0.0000000e+00 -1.0602555e-03 0.0000000e+00 
0.0000000e+00 -4.4439684e-04 0.0000000e+00 
0.0000000e+00 -8.3629566e-05 0.0000000e+00 
0.0000000e+00 9.1899477e-05 0.0000000e+00 
0.0000000e+00 1.5673708e-04 0.0000000e+00 
0.0000000e+00 1.6896847e-04 0.0000000e+00 
0.0000000e+00 1.6369917e-04 0.0000000e+00 
0.0000000e+00 1.5152141e-04 0.0000000e+00 
0.0000000e+00 1.3100539e-04 0.0000000e+00 
0.0000000e+00 1.0197420e-04 0.0000000e+00 
0.0000000e+00 6.9301568e-05 0.0000000e+00 
0.0000000e+00 3.7658898e-05 0.0000000e+00 
0.0000000e+00 7.8261155e-06 0.0000000e+00 
0.0000000e+00 -2.2050412e-05 0.0000000e+00 
0.0000000e+00 -5.1458981e-05 0.0000000e+00 
0.0000000e+00 -7.4628108e-05 0.0000000e+00 
0.0000000e+00 -8.3739629e-05 0.0000000e+00 
2.9449977e-05 -3.6622056e-05 -3.3674580e-05 
-1.1832995e-04 -1.0521406e-03 9.2981973e-05 
0.0000000e+00 0.0000000e+00 0.0000000e+00 
0.0000000e+00 0.0000000e+00 0.0000000e+00 
0.0000000e+00 0.0000000e+00 0.0000000e+00 
0.0000000e+00 0.0000000e+00 0.0000000e+00 
0.0000000e+00 0.0000000e+00 0.0000000e+00 
0.0000000e+00 0.0000000e+00 0.0000000e+00 
0.0000000e+00 0.0000000e+00 0.0000000e+00 
0.0000000e+00 0.0000000e+00 0.0000000e+00 
0.0000000e+00 0.0000000e+00 0.0000000e+00 
0.0000000e+00 0.0000000e+00 0.0000000e+00 
0.0000000e+00 0.0000000e+00 0.0000000e+00 
0.0000000e+00 0.0000000e+00 0.0000000e+00 
0.0000000e+00 0.0000000e+00 0.0000000e+00 
0.0000000e+00 0.0000000e+00 0.0000000e+00 
0.0000000e+00 0.0000000e+00 0.0000000e+00 
0.0000000e+00 0.0000000e+00 0.0000000e+00 
0.0000000e+00 0.0000000e+00 0.0000000e+00 
0.0000000e+00 0.0000000e+00 0.0000000e+00 
0.0000000e+00 0.0000000e+00 0.0000000e+00 
0.0000000e+00 0.0000000e+00 0.0000000e+00 
0.0000000e+00 0.0000000e+00 0.0000000e+00 
0.0000000e+00 0.0000000e+00 0.0000000e+00 
0.0000000e+00 0.0000000e+00 0.0000000e+00 
0.0000000e+00 0.0000000e+00 0.0000000e+00 
0.0000000e+00 0.0000000e+00 0.0000000e+00 
0.0000000e+00 0.0000000e+00 0.0000000e+00 
0.0000000e+00 0.0000000e+00 0.0000000e+00 
0.0000000e+00 0.0000000e+00 0.0000000e+00 
0.0000000e+00 0.0000000e+00 0.0000000e+00 
0.0000000e+00 0.0000000e+00 0.0000000e+00 
0.0000000e+00 0.0000000e+00 0.0000000e+00 
0.0000000e+00 0.0000000e+00 0.0000000e+00 
0.0000000e+00 0.0000000e+00 0.0000000e+00 
0.0000000e+00 0.0000000e+00 0.0000000e+00 
0.0000000e+00 0.0000000e+00 0.0000000e+00 
0.0000000e+00 0.0000000e+00 0.0000000e+00 
0.0000000e+00 0.0000000e+00 0.0000000e+00 
0.0000000e+00 0.0000000e+00 0.0000000e+00 
0.0000000e+00 0.0000000e+00 0.0000000e+00 
0.0000000e+00 0.0000000e+00 0.0000000e+00 
0.0000000e+00 0.0000000e+00 0.0000000e+00 
0.0000000e+00 0.0000000e+00 0.0000000e+00 
0.0000000e+00 0.0000000e+00 0.0000000e+00 
0.0000000e+00 0.0000000e+00 0.0000000e+00 
0.0000000e+00 0.0000000e+00 0.0000000e+00 
0.0000000e+00 0.0000000e+00 0.0000000e+00 
0.0000000e+00 0.0000000e+00 0.0000000e+00 
0.0000000e+00 0.0000000e+00 0.0000000e+00 
0.0000000e+00 0.0000000e+00 0.0000000e+00 
0.0000000e+00 0.0000000e+00 0.0000000e+00 
0.0000000e+00 0.0000000e+00 0.0000000e+00 
0.0000000e+00 0.0000000e+00 0.0000000e+00 
0.0000000e+00 0.0000000e+00 0.0000000e+00 
0.0000000e+00 0.0000000e+00 0.0000000e+00 
0.0000000e+00 0.0000000e+00 0.0000000e+00 
0.0000000e+00 0.0000000e+00 0.0000000e+00 
0.0000000e+00 0.0000000e+00 0.0000000e+00 
0.0000000e+00 0.0000000e+00 0.0000000e+00 
0.0000000e+00 0.0000000e+00 0.0000000e+00 
0.0000000e+00 0.0000000e+00 0.0000000e+00 
0.0000000e+00 0.0000000e+00 0.0000000e+00 
0.0000000e+00 0.0000000e+00 0.0000000e+00 
0.0000000e+00 0.0000000e+00 0.0000000e+00 
0.0000000e+00 0.0000000e+00 0.0000000e+00 
0.0000000e+00 0.0000000e+00 0.0000000e+00 
0.0000000e+00 0.0000000e+00 0.0000000e+00 
0.0000000e+00 0.0000000e+00 0.0000000e+00 
0.0000000e+00 0.0000000e+00 0.0000000e+00 
0.0000000e+00 0.0000000e+00 0.0000000e+00 
0.0000000e+00 0.0000000e+00 0.0000000e+00 
0.0000000e+00 0.0000000e+00 0.0000000e+00 
0.0000000e+00 0.0000000e+00 0.0000000e+00 
0.0000000e+00 0.0000000e+00 0.0000000e+00 
0.0000000e+00 0.0000000e+00 0.0000000e+00 
0.0000000e+00 0.0000000e+00 0.0000000e+00 
0.0000000e+00 0.0000000e+00 0.0000000e+00 
0.0000000e+00 0.0000000e+00 0.0000000e+00 
0.0000000e+00 0.0000000e+00 0.0000000e+00 
0.0000000e+00 0.0000000e+00 0.0000000e+00 
0.0000000e+00 0.0000000e+00 0.0000000e+00 
0.0000000e+00 0.0000000e+00 0.0000000e+00 
0.0000000e+00 0.0000000e+00 0.0000000e+00 
0.0000000e+00 0.0000000e+00 0.0000000e+00 
0.0000000e+00 0.0000000e+00 0.0000000e+00 
0.0000000e+00 0.0000000e+00 0.0000000e+00 
0.0000000e+00 0.0000000e+00 0.0000000e+00 
0.0000000e+00 0.0000000e+00 0.0000000e+00 
0.0000000e+00 0.0000000e+00 0.0000000e+00 
0.0000000e+00 0.0000000e+00 0.0000000e+00 
0.0000000e+00 0.0000000e+00 0.0000000e+00 
0.0000000e+00 0.0000000e+00 0.0000000e+00 
0.0000000e+00 0.0000000e+00 0.0000000e+00 
0.0000000e+00 0.0000000e+00 0.0000000e+00 
0.0000000e+00 0.0000000e+00 0.0000000e+00 
0.0000000e+00 0.0000000e+00 0.0000000e+00 
0.0000000e+00 0.0000000e+00 0.0000000e+00 
0.0000000e+00 0.0000000e+00 0.0000000e+00 
0.0000000e+00 0.0000000e+00 0.0000000e+00 
0.0000000e+00 0.0000000e+00 0.0000000e+00 
0.0000000e+00 0.0000000e+00 0.0000000e+00 
0.0000000e+00 0.0000000e+00 0.0000000e+00 
0.0000000e+00 0.0000000e+00 0.0000000e+00 
0.0000000e+00 0.0000000e+00 0.0000000e+00 
0.0000000e+00 0.0000000e+00 0.0000000e+00 
0.0000000e+00 0.0000000e+00 0.0000000e+00 
0.0000000e+00 0.0000000e+00 0.0000000e+00 
-1.4915078e-06 4.7539604e-07 1.2376046e-06 
-5.2276897e-07 1.8204615e-07 -1.9531453e-06 
3.8402808e-07 8.0212294e-07 -2.5096156e-06 
-7.4794997e-07 9.4278874e-08 -2.6753776e-06 
1.1120808e-06 4.8687787e-09 -4.6886539e-06 
2.7803637e-06 -2.2921211e-06 -1.0280124e-06 
3.0040867e-06 3.0409561e-07 -3.9305476e-07 
2.9817727e-06 -2.3690316e-06 -3.3871754e-06 
4.2360634e-06 -4.8155252e-06 -2.4989658e-06 
9.8727367e-07 2.0853997e-06 -2.8236341e-06 
-1.9694728e-06 -4.8856782e-06 -5.1579054e-06 
-7.2325616e-07 -3.2028340e-06 -5.9847416e-06 
3.1384625e-06 5.1750781e-06 -8.8630568e-06 
7.3359301e-06 -3.9312586e-06 -1.1094353e-05 
1.5317255e-05 -1.1492320e-05 -1.4909961e-05 
3.0414689e-05 -9.7012417e-06 -1.3234723e-05 
3.8948274e-05 -1.1478943e-05 -5.7113748e-06 
4.5275865e-05 -1.8358669e-05 -1.8699631e-06 
5.0165803e-05 -1.5262993e-05 6.2806512e-06 
4.1343515e-05 -1.6342945e-05 1.6861299e-05 
3.2829736e-05 -9.3337103e-06 2.0649672e-05 
2.0576343e-05 -5.3396775e-06 2.2328422e-05 
1.2988219e-05 -4.0311957e-06 1.5727535e-05 
8.1436992e-06 -2.6808734e-06 1.5071038e-05 
4.9515006e-06 -2.4904896e-06 7.2185767e-06 
4.9164046e-06 -2.1003350e-06 -3.5858998e-06 
2.7930773e-06 -7.7049282e-07 -3.6541494e-06 
-4.1572406e-07 -1.4051687e-06 -6.3844891e-06 
2.4544383e-06 -5.6109002e-06 -1.2020510e-05 
1.8511088e-06 -3.9142037e-06 -1.0105785e-05 
1.1438341e-06 3.6530407e-06 -1.0191844e-05 
5.0045678e-06 -3.9845809e-06 -1.4686969e-05 
4.1820522e-06 -4.1899463e-07 -1.4167756e-05 
1.0391594e-05 -1.6010873e-06 -1.6364496e-05 
1.8662935e-05 -5.8982928e-06 -1.7706028e-05 
2.6036969e-05 -1.1490361e-05 -1.5971587e-05 
3.7382615e-05 -8.7770004e-06 -1.2588762e-05 
4.3273169e-05 -1.4284067e-05 -3.4130765e-06 
4.5644334e-05 -1.5449328e-05 3.6116339e-06 
4.2880209e-05 -1.6692673e-05 1.6596990e-05 
3.2336666e-05 -1.3524989e-05 2.0947888e-05 
2.4390691e-05 -1.0042783e-05 2.1774966e-05 
1.5230416e-05 -4.6115292e-06 1.9019250e-05 
9.2286009e-06 -1.6908705e-06 1.3666521e-05 
3.7866055e-06 -8.6162395e-08 8.6672444e-06 
1.3730598e-06 -2.8829720e-07 5.4462021e-06 
-9.8738167e-07 -9.7550969e-07 4.4842619e-08 
-1.7158604e-06 -5.0019440e-07 -1.7991745e-06 
-2.1071537e-06 -3.0082356e-07 -3.3331894e-06 
0.0000000e+00 1.8114262e-05 0.0000000e+00 
0.0000000e+00 2.1016305e-05 0.0000000e+00 
0.0000000e+00 8.0906193e-06 0.0000000e+00 
0.0000000e+00 -5.8667056e-06 0.0000000e+00 
0.0000000e+00 -6.0082857e-06 0.0000000e+00 
0.0000000e+00 -2.8552722e-05 0.0000000e+00 
0.0000000e+00 -4.2274056e-05 0.0000000e+00 
0.0000000e+00 -1.4403950e-05 0.0000000e+00 
0.0000000e+00 -1.5674330e-05 0.0000000e+00 
0.0000000e+00 -1.3103774e-05 0.0000000e+00 
0.0000000e+00 4.7833164e-05 0.0000000e+00 
0.0000000e+00 2.6910626e-05 0.0000000e+00 
0.0000000e+00 3.8984392e-05 0.0000000e+00 
0.0000000e+00 6.1408435e-05 0.0000000e+00 
0.0000000e+00 1.5718651e-05 0.0000000e+00 
0.0000000e+00 -1.6128454e-04 0.0000000e+00 
0.0000000e+00 -3.5171327e-04 0.0000000e+00 
0.0000000e+00 -5.1917991e-04 0.0000000e+00 
0.0000000e+00 -6.1586581e-04 0.0000000e+00 
0.0000000e+00 -5.9058104e-04 0.0000000e+00 
0.0000000e+00 -4.0583426e-04 0.0000000e+00 
0.0000000e+00 -1.4038978e-04 0.0000000e+00 
0.0000000e+00 -2.1632128e-05 0.0000000e+00 
0.0000000e+00 2.6729700e-05 0.0000000e+00 
0.0000000e+00 3.8889815e-05 0.0000000e+00 
0.0000000e+00 2.6692047e-05 0.0000000e+00 
0.0000000e+00 -1.8614846e-05 0.0000000e+00 
0.0000000e+00 9.8229339e-06 0.0000000e+00 
0.0000000e+00 -1.1993599e-05 0.0000000e+00 
0.0000000e+00 -5.0562030e-05 0.0000000e+00 
0.0000000e+00 -1.8143959e-05 0.0000000e+00 
0.0000000e+00 -3.1319307e-06 0.0000000e+00 
0.0000000e+00 -2.7407850e-05 0.0000000e+00 
0.0000000e+00 1.7141085e-05 0.0000000e+00 
0.0000000e+00 -6.8615685e-05 0.0000000e+00 
0.0000000e+00 -2.2208155e-04 0.0000000e+00 
0.0000000e+00 -4.0779923e-04 0.0000000e+00 
0.0000000e+00 -5.1324058e-04 0.0000000e+00 
0.0000000e+00 -5.5046391e-04 0.0000000e+00 
0.0000000e+00 -5.0107657e-04 0.0000000e+00 
0.0000000e+00 -3.5343063e-04 0.0000000e+00 
0.0000000e+00 -1.7123169e-04 0.0000000e+00 
0.0000000e+00 -5.0280352e-05 0.0000000e+00 
0.0000000e+00 -4.1985645e-06 0.0000000e+00 
0.0000000e+00 2.0690788e-05 0.0000000e+00 
0.0000000e+00 3.1612726e-05 0.0000000e+00 
0.0000000e+00 1.8630788e-05 0.0000000e+00 
0.0000000e+00 -1.3807568e-06 0.0000000e+00 
0.0000000e+00 -1.6740378e-05 0.0000000e+00 
-2.2032871e-06 7.0282846e-07 1.8653385e-06 
-1.8020543e-06 -1.1875240e-06 8.3672700e-07 
-3.7963939e-06 3.0719772e-07 1.5923035e-06 
-1.8555595e-06 3.1571549e-06 5.0963581e-06 
-2.8712288e-06 1.2365144e-06 -4.3128957e-06 
-1.8659337e-06 -5.3730975e-08 -5.8329106e-06 
1.4241343e-06 -4.2833012e-06 -6.3079460e-06 
3.1841657e-06 -9.9490344e-06 -2.4419578e-06 
-7.7454524e-07 -3.1529353e-07 -1.4593688e-06 
-1.5987657e-08 1.3659218e-06 -2.9463513e-06 
-3.1610718e-08 8.7371393e-07 -2.3858511e-06 
1.7996804e-06 2.6225700e-06 -1.9277597e-06 
3.0754409e-06 1.4253379e-07 -2.3839846e-06 
5.0540543e-06 -2.2407557e-06 -2.4457606e-06 
3.3675803e-06 2.1545975e-06 -5.2209962e-06 
6.4976589e-06 2.3064433e-07 -3.4903528e-06 
3.3101699e-06 -2.4827752e-06 -5.3918766e-06 
-3.9618476e-06 4.8972488e-06 -1.7119354e-06 
1.4853008e-07 -5.6997637e-06 -2.0340244e-06 
2.2987369e-06 -5.9417425e-06 -8.5384136e-06 
2.4937960e-06 5.4654874e-06 -1.7392975e-05 
1.2648280e-05 -1.2536639e-05 -1.6626709e-05 
2.4694349e-05 -3.4454658e-06 -1.7758663e-05 
3.7898604e-05 -6.8780996e-06 -1.4154264e-05 
4.0003717e-05 -1.2313993e-05 -7.8859767e-07 
4.2468819e-05 -1.5588832e-05 3.8658532e-06 
4.7110709e-05 -1.3851103e-05 1.0270970e-05 
4.1441261e-05 -1.5948068e-05 1.7288501e-05 