# vtk DataFile Version 4.0
vtk output
ASCII
DATASET UNSTRUCTURED_GRID
POINTS 91 float
0.0000000e+00 1.0000000e+00 2.0000000e+00 
0.0000000e+00 8.0000001e-01 2.0000000e+00 
1.0000000e+00 8.0000001e-01 2.0000000e+00 
1.0000000e+00 1.0000000e+00 2.0000000e+00 
0.0000000e+00 8.0000001e-01 3.0000000e+00 
1.0000000e+00 8.0000001e-01 3.0000000e+00 
1.0000000e+00 1.0000000e+00 3.0000000e+00 
0.0000000e+00 1.0000000e+00 3.0000000e+00 
0.0000000e+00 0.0000000e+00 0.0000000e+00 
0.0000000e+00 0.0000000e+00 2.0000000e+00 
3.0000000e+00 0.0000000e+00 0.0000000e+00 
3.0000000e+00 0.0000000e+00 2.0000000e+00 
1.5000000e+00 1.0000000e+00 0.0000000e+00 
1.5000000e+00 1.0000000e+00 2.0000000e+00 
0.0000000e+00 1.0000000e+00 0.0000000e+00 
0.0000000e+00 0.0000000e+00 3.0000000e+00 
0.0000000e+00 0.0000000e+00 5.0000000e+00 
3.0000000e+00 0.0000000e+00 3.0000000e+00 
3.0000000e+00 0.0000000e+00 5.0000000e+00 
1.5000000e+00 1.0000000e+00 3.0000000e+00 
1.5000000e+00 1.0000000e+00 5.0000000e+00 
0.0000000e+00 1.0000000e+00 5.0000000e+00 
5.0000000e-01 1.0000000e+00 2.0000000e+00 
5.0000000e-01 1.0000000e+00 3.0000000e+00 
5.0000000e-01 1.0000000e+00 0.0000000e+00 
5.0000000e-01 1.0000000e+00 5.0000000e+00 
0.0000000e+00 0.0000000e+00 1.0000000e+00 
3.0000000e+00 0.0000000e+00 1.0000000e+00 
1.0000000e+00 0.0000000e+00 0.0000000e+00 
2.0000000e+00 0.0000000e+00 0.0000000e+00 
1.0000000e+00 0.0000000e+00 2.0000000e+00 
2.0000000e+00 0.0000000e+00 2.0000000e+00 
1.5000000e+00 1.0000000e+00 1.0000000e+00 
2.2500000e+00 5.0000000e-01 0.0000000e+00 
2.2500000e+00 5.0000000e-01 2.0000000e+00 
0.0000000e+00 1.0000000e+00 1.0000000e+00 
0.0000000e+00 0.0000000e+00 4.0000000e+00 
3.0000000e+00 0.0000000e+00 4.0000000e+00 
1.0000000e+00 0.0000000e+00 3.0000000e+00 
2.0000000e+00 0.0000000e+00 3.0000000e+00 
1.0000000e+00 0.0000000e+00 5.0000000e+00 
2.0000000e+00 0.0000000e+00 5.0000000e+00 
1.5000000e+00 1.0000000e+00 4.0000000e+00 
2.2500000e+00 5.0000000e-01 3.0000000e+00 
2.2500000e+00 5.0000000e-01 5.0000000e+00 
0.0000000e+00 1.0000000e+00 4.0000000e+00 
5.0000000e-01 1.0000000e+00 1.0000000e+00 
5.0000000e-01 1.0000000e+00 4.0000000e+00 
5.0000000e-01 8.0000001e-01 2.5000000e+00 
1.5000000e+00 0.0000000e+00 1.0944226e+00 
2.3425484e+00 0.0000000e+00 7.2803199e-01 
6.5745169e-01 0.0000000e+00 7.2803199e-01 
2.4083350e+00 0.0000000e+00 1.4062847e+00 
5.9166491e-01 0.0000000e+00 1.4062847e+00 
2.5282347e+00 3.1451017e-01 5.7642096e-01 
2.2566874e+00 4.9554169e-01 1.3188519e+00 
2.0126626e+00 6.5822488e-01 6.1651802e-01 
0.0000000e+00 5.6000000e-01 1.6000000e+00 
0.0000000e+00 5.0000000e-01 5.0000000e-01 
1.5500000e+00 4.2500001e-01 0.0000000e+00 
9.9863636e-01 5.6568182e-01 0.0000000e+00 
4.9972728e-01 5.1313639e-01 0.0000000e+00 
1.7287185e+00 4.7321430e-01 2.0000000e+00 
5.0000000e-01 4.0000001e-01 2.0000000e+00 
1.2600565e+00 4.2323250e-01 2.0000000e+00 
1.5000000e+00 0.0000000e+00 3.9055774e+00 
6.5745169e-01 0.0000000e+00 4.2719679e+00 
2.3425484e+00 0.0000000e+00 4.2719679e+00 
5.9166491e-01 0.0000000e+00 3.5937154e+00 
2.4083350e+00 0.0000000e+00 3.5937154e+00 
2.5282347e+00 3.1451017e-01 3.5764210e+00 
2.2566874e+00 4.9554169e-01 4.3188519e+00 
2.0126626e+00 6.5822488e-01 3.6165180e+00 
0.0000000e+00 5.6000000e-01 3.4000001e+00 
0.0000000e+00 5.0000000e-01 4.5000000e+00 
1.7287185e+00 4.7321430e-01 3.0000000e+00 
5.0000000e-01 4.0000001e-01 3.0000000e+00 
1.2600565e+00 4.2323250e-01 3.0000000e+00 
1.5500000e+00 4.2500001e-01 5.0000000e+00 
9.9863636e-01 5.6568182e-01 5.0000000e+00 
4.9972728e-01 5.1313639e-01 5.0000000e+00 
7.5000000e-01 1.0000000e+00 2.5000000e+00 
2.5000000e-01 1.0000000e+00 2.5000000e+00 
1.0000000e+00 1.0000000e+00 5.0000000e-01 
1.0000000e+00 1.0000000e+00 1.4166666e+00 
2.5000000e-01 1.0000000e+00 5.0000000e-01 
2.5000000e-01 1.0000000e+00 1.5000000e+00 
1.0000000e+00 1.0000000e+00 4.5000000e+00 
1.0000000e+00 1.0000000e+00 3.5833333e+00 
2.5000000e-01 1.0000000e+00 4.5000000e+00 
2.5000000e-01 1.0000000e+00 3.5000000e+00 

CELLS 218 1090
4 46 2 84 22
4 1 2 86 22
4 24 46 85 61
4 46 63 86 53
4 86 2 63 46
4 49 60 83 59
4 61 46 85 51
4 85 14 58 35
4 51 61 58 85
4 60 49 51 59
4 0 35 86 57
4 86 2 46 22
4 60 51 28 59
4 84 64 32 62
4 60 51 49 83
4 51 83 84 32
4 53 63 86 57
4 49 32 56 59
4 32 49 83 59
4 32 64 49 62
4 85 58 51 46
4 51 83 46 84
4 61 51 60 83
4 64 84 13 62
4 86 46 53 57
4 61 46 51 83
4 84 49 51 32
4 53 51 46 84
4 83 51 49 32
4 32 13 84 62
4 51 53 49 84
4 49 28 51 59
4 52 55 11 27
4 64 49 53 84
4 55 32 49 62
4 55 34 13 62
4 84 64 49 32
4 62 64 49 31
4 55 13 32 62
4 58 26 51 46
4 64 2 53 63
4 56 49 59 29
4 46 26 53 57
4 2 1 86 63
4 59 49 28 29
4 64 53 2 84
4 24 46 61 83
4 61 8 51 58
4 26 58 35 46
4 53 51 26 46
4 46 35 26 57
4 58 61 8 14
4 83 60 12 59
4 11 34 55 52
4 10 54 50 27
4 53 30 64 63
4 35 46 86 57
4 8 26 51 58
4 56 49 29 50
4 30 49 64 31
4 53 30 49 64
4 62 49 55 31
4 24 83 60 12
4 8 51 28 61
4 61 51 28 60
4 30 53 9 63
4 58 61 14 85
4 59 12 56 33
4 10 54 29 50
4 53 26 9 57
4 58 85 35 46
4 56 32 49 55
4 33 10 54 29
4 86 63 1 57
4 83 60 61 24
4 63 53 9 57
4 11 31 34 52
4 50 54 52 27
4 31 49 55 52
4 62 55 34 31
4 55 49 56 50
4 33 56 59 29
4 54 55 52 27
4 54 56 33 29
4 29 54 56 50
4 52 55 54 50
4 2 64 84 13
4 14 61 24 85
4 52 49 55 50
4 56 54 55 50
4 9 1 63 57
4 31 55 34 52
4 86 1 0 57
4 22 3 2 84
4 84 3 2 13
4 86 0 1 22
4 2 46 53 63
4 2 53 46 84
4 32 59 12 56
4 12 59 32 83
4 23 22 48 82
4 22 23 48 81
4 1 2 22 48
4 4 5 48 23
4 82 4 1 48
4 5 2 48 81
4 1 7 4 82
4 5 3 2 81
4 1 0 7 82
4 6 3 5 81
4 82 23 4 48
4 81 22 2 48
4 23 81 5 48
4 82 1 22 48
4 2 3 22 81
4 0 1 22 82
4 81 5 6 23
4 4 7 23 82
4 5 4 90 23
4 47 5 23 88
4 25 47 80 89
4 76 47 90 68
4 90 5 47 76
4 87 79 65 78
4 47 80 89 66
4 89 21 45 74
4 74 89 80 66
4 65 79 66 78
4 7 73 90 45
4 40 66 79 78
4 90 5 23 47
4 87 79 66 65
4 66 88 87 42
4 68 73 90 76
4 65 87 78 42
4 74 47 89 66
4 87 47 88 66
4 75 19 77 72
4 87 79 80 66
4 47 73 90 68
4 47 80 66 87
4 88 66 65 42
4 77 65 75 72
4 66 47 88 68
4 65 66 87 42
4 68 88 66 65
4 65 77 88 72
4 78 71 65 42
4 66 40 65 78
4 88 68 77 65
4 19 88 77 72
4 77 65 39 75
4 47 74 36 66
4 42 65 88 72
4 5 68 76 77
4 36 73 47 68
4 4 5 90 76
4 40 65 78 41
4 78 87 20 42
4 20 71 78 42
4 47 25 80 87
4 68 5 88 77
4 43 19 75 72
4 16 74 80 66
4 74 45 47 36
4 75 65 39 72
4 66 36 47 68
4 73 47 45 36
4 65 71 78 41
4 78 71 20 44
4 74 80 21 16
4 71 67 37 18
4 68 76 77 38
4 88 19 42 72
4 47 90 73 45
4 74 16 36 66
4 65 38 77 39
4 38 77 68 65
4 79 87 20 78
4 66 80 16 40
4 79 80 66 40
4 68 15 76 38
4 21 89 80 74
4 65 71 41 67
4 87 20 25 79
4 69 39 65 72
4 18 71 67 44
4 68 36 73 15
4 71 65 42 72
4 70 17 69 43
4 89 45 47 74
4 69 17 70 37
4 67 69 65 72
4 43 75 39 72
4 69 17 39 43
4 76 90 4 73
4 25 87 79 80
4 73 68 15 76
4 18 67 41 44
4 43 69 70 72
4 67 71 69 72
4 65 71 67 72
4 69 71 70 72
4 71 78 41 44
4 67 70 71 37
4 19 88 5 77
4 39 69 43 72
4 21 89 25 80
4 69 70 71 67
4 15 4 73 76
4 67 69 70 37
4 71 41 67 44
4 73 4 7 90
4 5 6 88 19
4 88 6 5 23
4 23 7 4 90
4 5 47 68 88
4 5 68 47 76

CELL_TYPES 218
10
10
10
10
10
10
10
10
10
10
10
10
10
10
10
10
10
10
10
10
10
10
10
10
10
10
10
10
10
10
10
10
10
10
10
10
10
10
10
10
10
10
10
10
10
10
10
10
10
10
10
10
10
10
10
10
10
10
10
10
10
10
10
10
10
10
10
10
10
10
10
10
10
10
10
10
10
10
10
10
10
10
10
10
10
10
10
10
10
10
10
10
10
10
10
10
10
10
10
10
10
10
10
10
10
10
10
10
10
10
10
10
10
10
10
10
10
10
10
10
10
10
10
10
10
10
10
10
10
10
10
10
10
10
10
10
10
10
10
10
10
10
10
10
10
10
10
10
10
10
10
10
10
10
10
10
10
10
10
10
10
10
10
10
10
10
10
10
10
10
10
10
10
10
10
10
10
10
10
10
10
10
10
10
10
10
10
10
10
10
10
10
10
10
10
10
10
10
10
10
10
10
10
10
10
10
10
10
10
10
10
10
10
10
10
10
10
10
POINT_DATA 91
FIELD FieldData 2
DISPLACEMENT 3 91  float
0.0000000e+00 -3.6794166e-08 0.0000000e+00 
0.0000000e+00 -3.6298612e-08 0.0000000e+00 
9.8246362e-09 2.6298430e-09 6.9384996e-09 
3.4300767e-09 1.7118863e-09 1.4493028e-09 
0.0000000e+00 -7.1400170e-09 0.0000000e+00 
-1.5169695e-10 4.4028909e-09 1.2457072e-09 
-3.2507805e-09 4.1409969e-09 3.4719749e-10 
0.0000000e+00 -6.5974022e-09 0.0000000e+00 
0.0000000e+00 0.0000000e+00 0.0000000e+00 
0.0000000e+00 0.0000000e+00 0.0000000e+00 
0.0000000e+00 0.0000000e+00 0.0000000e+00 
0.0000000e+00 0.0000000e+00 0.0000000e+00 
0.0000000e+00 -1.4404391e-08 0.0000000e+00 
0.0000000e+00 -1.5183179e-08 0.0000000e+00 
0.0000000e+00 -4.5030184e-08 0.0000000e+00 
0.0000000e+00 0.0000000e+00 0.0000000e+00 
0.0000000e+00 0.0000000e+00 0.0000000e+00 
0.0000000e+00 0.0000000e+00 0.0000000e+00 
0.0000000e+00 0.0000000e+00 0.0000000e+00 
-3.0550652e-11 1.7201377e-09 8.8691843e-10 
0.0000000e+00 7.6184697e-11 0.0000000e+00 
0.0000000e+00 -8.3203076e-11 0.0000000e+00 
-9.5021702e-10 -1.9089292e-08 -8.5630365e-09 
-2.0609268e-09 -1.2071815e-09 -1.5805205e-09 
0.0000000e+00 -1.2700774e-08 0.0000000e+00 
0.0000000e+00 2.1265470e-11 0.0000000e+00 
0.0000000e+00 0.0000000e+00 0.0000000e+00 
0.0000000e+00 0.0000000e+00 0.0000000e+00 
0.0000000e+00 0.0000000e+00 0.0000000e+00 
0.0000000e+00 0.0000000e+00 0.0000000e+00 
0.0000000e+00 0.0000000e+00 0.0000000e+00 
0.0000000e+00 0.0000000e+00 0.0000000e+00 
0.0000000e+00 -4.1540762e-08 0.0000000e+00 
0.0000000e+00 -7.0323836e-10 0.0000000e+00 
0.0000000e+00 2.8339127e-09 0.0000000e+00 
0.0000000e+00 -1.7191553e-07 0.0000000e+00 
0.0000000e+00 0.0000000e+00 0.0000000e+00 
0.0000000e+00 0.0000000e+00 0.0000000e+00 
0.0000000e+00 0.0000000e+00 0.0000000e+00 
0.0000000e+00 0.0000000e+00 0.0000000e+00 
0.0000000e+00 0.0000000e+00 0.0000000e+00 
0.0000000e+00 0.0000000e+00 0.0000000e+00 
-1.4117784e-11 5.3551147e-10 4.2105786e-10 
-1.2271330e-10 4.4461160e-11 1.2497188e-10 
0.0000000e+00 1.2048442e-12 0.0000000e+00 
0.0000000e+00 -1.4023821e-10 0.0000000e+00 
-8.8971781e-09 -2.8962006e-07 6.5431940e-09 
-3.8861545e-10 -3.1519584e-10 2.0016343e-10 
3.4809309e-09 -9.1386552e-09 -2.0334673e-10 
0.0000000e+00 0.0000000e+00 0.0000000e+00 
0.0000000e+00 0.0000000e+00 0.0000000e+00 
0.0000000e+00 0.0000000e+00 0.0000000e+00 
0.0000000e+00 0.0000000e+00 0.0000000e+00 
0.0000000e+00 0.0000000e+00 0.0000000e+00 
0.0000000e+00 -4.2428733e-10 0.0000000e+00 
0.0000000e+00 -6.4934891e-10 0.0000000e+00 
0.0000000e+00 -7.8021323e-09 0.0000000e+00 
0.0000000e+00 -5.9919934e-08 0.0000000e+00 
0.0000000e+00 -5.7854908e-08 0.0000000e+00 
0.0000000e+00 -6.2704015e-09 0.0000000e+00 
0.0000000e+00 -1.3461605e-08 0.0000000e+00 
0.0000000e+00 4.4893498e-09 0.0000000e+00 
4.3105963e-09 2.2762978e-09 9.4869543e-09 
6.1306826e-09 1.2490764e-08 1.9359778e-08 
4.3823447e-09 -1.6887590e-08 8.2744442e-09 
0.0000000e+00 0.0000000e+00 0.0000000e+00 
0.0000000e+00 0.0000000e+00 0.0000000e+00 
0.0000000e+00 0.0000000e+00 0.0000000e+00 
0.0000000e+00 0.0000000e+00 0.0000000e+00 
0.0000000e+00 0.0000000e+00 0.0000000e+00 
-1.8889742e-11 7.8047620e-12 2.2791638e-11 
-2.3067213e-11 1.9005205e-11 4.9069918e-11 
-7.4564098e-11 3.6145913e-11 1.5998790e-10 
0.0000000e+00 -2.2898137e-09 0.0000000e+00 
0.0000000e+00 -1.1735503e-10 0.0000000e+00 
-2.5828220e-10 8.2413110e-10 3.7670422e-10 
5.8008343e-10 -1.8749598e-10 5.5142990e-10 
-4.3102083e-10 1.5185407e-09 5.4466959e-10 
0.0000000e+00 -1.7235113e-11 0.0000000e+00 
0.0000000e+00 -2.2810907e-12 0.0000000e+00 
0.0000000e+00 8.6808908e-13 0.0000000e+00 
-1.7256272e-09 -2.5549109e-09 -9.6110331e-10 
-1.0227552e-09 -1.6388071e-08 -4.1875201e-09 
-3.2956091e-09 -4.2404082e-08 1.2540057e-09 
3.9730423e-09 -9.3374943e-08 1.6622728e-09 
-4.7140052e-09 -1.4035570e-07 1.1611970e-08 
-2.9284450e-09 -1.5139005e-07 -3.4012055e-09 
-5.9184997e-11 1.1996536e-10 2.5833585e-10 
-1.7309860e-10 2.1202187e-09 7.8089363e-10 
-1.7587377e-10 -1.6489218e-10 8.7314635e-11 
-5.1386517e-10 -2.4797355e-09 -4.3573078e-10 
TOTAL_DISPLACEMENT 3 91  float
0.0000000e+00 0.0000000e+00 0.0000000e+00 
0.0000000e+00 0.0000000e+00 0.0000000e+00 
0.0000000e+00 0.0000000e+00 0.0000000e+00 
0.0000000e+00 0.0000000e+00 0.0000000e+00 
0.0000000e+00 0.0000000e+00 0.0000000e+00 
0.0000000e+00 0.0000000e+00 0.0000000e+00 
0.0000000e+00 0.0000000e+00 0.0000000e+00 
0.0000000e+00 0.0000000e+00 0.0000000e+00 
0.0000000e+00 0.0000000e+00 0.0000000e+00 
0.0000000e+00 0.0000000e+00 0.0000000e+00 
0.0000000e+00 0.0000000e+00 0.0000000e+00 
0.0000000e+00 0.0000000e+00 0.0000000e+00 
0.0000000e+00 0.0000000e+00 0.0000000e+00 
0.0000000e+00 0.0000000e+00 0.0000000e+00 
0.0000000e+00 0.0000000e+00 0.0000000e+00 
0.0000000e+00 0.0000000e+00 0.0000000e+00 
0.0000000e+00 0.0000000e+00 0.0000000e+00 
0.0000000e+00 0.0000000e+00 0.0000000e+00 
0.0000000e+00 0.0000000e+00 0.0000000e+00 
0.0000000e+00 0.0000000e+00 0.0000000e+00 
0.0000000e+00 0.0000000e+00 0.0000000e+00 
0.0000000e+00 0.0000000e+00 0.0000000e+00 
0.0000000e+00 0.0000000e+00 0.0000000e+00 
0.0000000e+00 0.0000000e+00 0.0000000e+00 
0.0000000e+00 0.0000000e+00 0.0000000e+00 
0.0000000e+00 0.0000000e+00 0.0000000e+00 
0.0000000e+00 0.0000000e+00 0.0000000e+00 
0.0000000e+00 0.0000000e+00 0.0000000e+00 
0.0000000e+00 0.0000000e+00 0.0000000e+00 
0.0000000e+00 0.0000000e+00 0.0000000e+00 
0.0000000e+00 0.0000000e+00 0.0000000e+00 
0.0000000e+00 0.0000000e+00 0.0000000e+00 
0.0000000e+00 0.0000000e+00 0.0000000e+00 
0.0000000e+00 0.0000000e+00 0.0000000e+00 
0.0000000e+00 0.0000000e+00 0.0000000e+00 
0.0000000e+00 0.0000000e+00 0.0000000e+00 
0.0000000e+00 0.0000000e+00 0.0000000e+00 
0.0000000e+00 0.0000000e+00 0.0000000e+00 
0.0000000e+00 0.0000000e+00 0.0000000e+00 
0.0000000e+00 0.0000000e+00 0.0000000e+00 
0.0000000e+00 0.0000000e+00 0.0000000e+00 
0.0000000e+00 0.0000000e+00 0.0000000e+00 
0.0000000e+00 0.0000000e+00 0.0000000e+00 
0.0000000e+00 0.0000000e+00 0.0000000e+00 
0.0000000e+00 0.0000000e+00 0.0000000e+00 
0.0000000e+00 0.0000000e+00 0.0000000e+00 
0.0000000e+00 0.0000000e+00 0.0000000e+00 
0.0000000e+00 0.0000000e+00 0.0000000e+00 
0.0000000e+00 0.0000000e+00 0.0000000e+00 
0.0000000e+00 0.0000000e+00 0.0000000e+00 
0.0000000e+00 0.0000000e+00 0.0000000e+00 
0.0000000e+00 0.0000000e+00 0.0000000e+00 
0.0000000e+00 0.0000000e+00 0.0000000e+00 
0.0000000e+00 0.0000000e+00 0.0000000e+00 
0.0000000e+00 0.0000000e+00 0.0000000e+00 
0.0000000e+00 0.0000000e+00 0.0000000e+00 
0.0000000e+00 0.0000000e+00 0.0000000e+00 
0.0000000e+00 0.0000000e+00 0.0000000e+00 
0.0000000e+00 0.0000000e+00 0.0000000e+00 
0.0000000e+00 0.0000000e+00 0.0000000e+00 
0.0000000e+00 0.0000000e+00 0.0000000e+00 
0.0000000e+00 0.0000000e+00 0.0000000e+00 
0.0000000e+00 0.0000000e+00 0.0000000e+00 
0.0000000e+00 0.0000000e+00 0.0000000e+00 
0.0000000e+00 0.0000000e+00 0.0000000e+00 
0.0000000e+00 0.0000000e+00 0.0000000e+00 
0.0000000e+00 0.0000000e+00 0.0000000e+00 
0.0000000e+00 0.0000000e+00 0.0000000e+00 
0.0000000e+00 0.0000000e+00 0.0000000e+00 
0.0000000e+00 0.0000000e+00 0.0000000e+00 
0.0000000e+00 0.0000000e+00 0.0000000e+00 
0.0000000e+00 0.0000000e+00 0.0000000e+00 
0.0000000e+00 0.0000000e+00 0.0000000e+00 
0.0000000e+00 0.0000000e+00 0.0000000e+00 
0.0000000e+00 0.0000000e+00 0.0000000e+00 
0.0000000e+00 0.0000000e+00 0.0000000e+00 
0.0000000e+00 0.0000000e+00 0.0000000e+00 
0.0000000e+00 0.0000000e+00 0.0000000e+00 
0.0000000e+00 0.0000000e+00 0.0000000e+00 
0.0000000e+00 0.0000000e+00 0.0000000e+00 
0.0000000e+00 0.0000000e+00 0.0000000e+00 
0.0000000e+00 0.0000000e+00 0.0000000e+00 
0.0000000e+00 0.0000000e+00 0.0000000e+00 
0.0000000e+00 0.0000000e+00 0.0000000e+00 
0.0000000e+00 0.0000000e+00 0.0000000e+00 
0.0000000e+00 0.0000000e+00 0.0000000e+00 
0.0000000e+00 0.0000000e+00 0.0000000e+00 
0.0000000e+00 0.0000000e+00 0.0000000e+00 
0.0000000e+00 0.0000000e+00 0.0000000e+00 
0.0000000e+00 0.0000000e+00 0.0000000e+00 
0.0000000e+00 0.0000000e+00 0.0000000e+00 
CELL_DATA 218
FIELD FieldData 0
