# vtk DataFile Version 4.0
vtk output
ASCII
DATASET UNSTRUCTURED_GRID
POINTS 91 float
0.0000000e+00 1.0000000e+00 2.0000000e+00 
0.0000000e+00 8.0000001e-01 2.0000000e+00 
1.0000000e+00 8.0000001e-01 2.0000000e+00 
1.0000000e+00 1.0000000e+00 2.0000000e+00 
0.0000000e+00 8.0000001e-01 3.0000000e+00 
1.0000000e+00 8.0000001e-01 3.0000000e+00 
1.0000000e+00 1.0000000e+00 3.0000000e+00 
0.0000000e+00 1.0000000e+00 3.0000000e+00 
0.0000000e+00 0.0000000e+00 0.0000000e+00 
0.0000000e+00 0.0000000e+00 2.0000000e+00 
3.0000000e+00 0.0000000e+00 0.0000000e+00 
3.0000000e+00 0.0000000e+00 2.0000000e+00 
1.5000000e+00 1.0000000e+00 0.0000000e+00 
1.5000000e+00 1.0000000e+00 2.0000000e+00 
0.0000000e+00 1.0000000e+00 0.0000000e+00 
0.0000000e+00 0.0000000e+00 3.0000000e+00 
0.0000000e+00 0.0000000e+00 5.0000000e+00 
3.0000000e+00 0.0000000e+00 3.0000000e+00 
3.0000000e+00 0.0000000e+00 5.0000000e+00 
1.5000000e+00 1.0000000e+00 3.0000000e+00 
1.5000000e+00 1.0000000e+00 5.0000000e+00 
0.0000000e+00 1.0000000e+00 5.0000000e+00 
5.0000000e-01 1.0000000e+00 2.0000000e+00 
5.0000000e-01 1.0000000e+00 3.0000000e+00 
5.0000000e-01 1.0000000e+00 0.0000000e+00 
5.0000000e-01 1.0000000e+00 5.0000000e+00 
0.0000000e+00 0.0000000e+00 1.0000000e+00 
3.0000000e+00 0.0000000e+00 1.0000000e+00 
1.0000000e+00 0.0000000e+00 0.0000000e+00 
2.0000000e+00 0.0000000e+00 0.0000000e+00 
1.0000000e+00 0.0000000e+00 2.0000000e+00 
2.0000000e+00 0.0000000e+00 2.0000000e+00 
1.5000000e+00 1.0000000e+00 1.0000000e+00 
2.2500000e+00 5.0000000e-01 0.0000000e+00 
2.2500000e+00 5.0000000e-01 2.0000000e+00 
0.0000000e+00 1.0000000e+00 1.0000000e+00 
0.0000000e+00 0.0000000e+00 4.0000000e+00 
3.0000000e+00 0.0000000e+00 4.0000000e+00 
1.0000000e+00 0.0000000e+00 3.0000000e+00 
2.0000000e+00 0.0000000e+00 3.0000000e+00 
1.0000000e+00 0.0000000e+00 5.0000000e+00 
2.0000000e+00 0.0000000e+00 5.0000000e+00 
1.5000000e+00 1.0000000e+00 4.0000000e+00 
2.2500000e+00 5.0000000e-01 3.0000000e+00 
2.2500000e+00 5.0000000e-01 5.0000000e+00 
0.0000000e+00 1.0000000e+00 4.0000000e+00 
5.0000000e-01 1.0000000e+00 1.0000000e+00 
5.0000000e-01 1.0000000e+00 4.0000000e+00 
5.0000000e-01 8.0000001e-01 2.5000000e+00 
1.5000000e+00 0.0000000e+00 1.0944226e+00 
2.3425484e+00 0.0000000e+00 7.2803199e-01 
6.5745169e-01 0.0000000e+00 7.2803199e-01 
2.4083350e+00 0.0000000e+00 1.4062847e+00 
5.9166491e-01 0.0000000e+00 1.4062847e+00 
2.5282347e+00 3.1451017e-01 5.7642096e-01 
2.2566874e+00 4.9554169e-01 1.3188519e+00 
2.0126626e+00 6.5822488e-01 6.1651802e-01 
0.0000000e+00 5.6000000e-01 1.6000000e+00 
0.0000000e+00 5.0000000e-01 5.0000000e-01 
1.5500000e+00 4.2500001e-01 0.0000000e+00 
9.9863636e-01 5.6568182e-01 0.0000000e+00 
4.9972728e-01 5.1313639e-01 0.0000000e+00 
1.7287185e+00 4.7321430e-01 2.0000000e+00 
5.0000000e-01 4.0000001e-01 2.0000000e+00 
1.2600565e+00 4.2323250e-01 2.0000000e+00 
1.5000000e+00 0.0000000e+00 3.9055774e+00 
6.5745169e-01 0.0000000e+00 4.2719679e+00 
2.3425484e+00 0.0000000e+00 4.2719679e+00 
5.9166491e-01 0.0000000e+00 3.5937154e+00 
2.4083350e+00 0.0000000e+00 3.5937154e+00 
2.5282347e+00 3.1451017e-01 3.5764210e+00 
2.2566874e+00 4.9554169e-01 4.3188519e+00 
2.0126626e+00 6.5822488e-01 3.6165180e+00 
0.0000000e+00 5.6000000e-01 3.4000001e+00 
0.0000000e+00 5.0000000e-01 4.5000000e+00 
1.7287185e+00 4.7321430e-01 3.0000000e+00 
5.0000000e-01 4.0000001e-01 3.0000000e+00 
1.2600565e+00 4.2323250e-01 3.0000000e+00 
1.5500000e+00 4.2500001e-01 5.0000000e+00 
9.9863636e-01 5.6568182e-01 5.0000000e+00 
4.9972728e-01 5.1313639e-01 5.0000000e+00 
7.5000000e-01 1.0000000e+00 2.5000000e+00 
2.5000000e-01 1.0000000e+00 2.5000000e+00 
1.0000000e+00 1.0000000e+00 5.0000000e-01 
1.0000000e+00 1.0000000e+00 1.4166666e+00 
2.5000000e-01 1.0000000e+00 5.0000000e-01 
2.5000000e-01 1.0000000e+00 1.5000000e+00 
1.0000000e+00 1.0000000e+00 4.5000000e+00 
1.0000000e+00 1.0000000e+00 3.5833333e+00 
2.5000000e-01 1.0000000e+00 4.5000000e+00 
2.5000000e-01 1.0000000e+00 3.5000000e+00 

CELLS 218 1090
4 46 2 84 22
4 1 2 86 22
4 24 46 85 61
4 46 63 86 53
4 86 2 63 46
4 49 60 83 59
4 61 46 85 51
4 85 14 58 35
4 51 61 58 85
4 60 49 51 59
4 0 35 86 57
4 86 2 46 22
4 60 51 28 59
4 84 64 32 62
4 60 51 49 83
4 51 83 84 32
4 53 63 86 57
4 49 32 56 59
4 32 49 83 59
4 32 64 49 62
4 85 58 51 46
4 51 83 46 84
4 61 51 60 83
4 64 84 13 62
4 86 46 53 57
4 61 46 51 83
4 84 49 51 32
4 53 51 46 84
4 83 51 49 32
4 32 13 84 62
4 51 53 49 84
4 49 28 51 59
4 52 55 11 27
4 64 49 53 84
4 55 32 49 62
4 55 34 13 62
4 84 64 49 32
4 62 64 49 31
4 55 13 32 62
4 58 26 51 46
4 64 2 53 63
4 56 49 59 29
4 46 26 53 57
4 2 1 86 63
4 59 49 28 29
4 64 53 2 84
4 24 46 61 83
4 61 8 51 58
4 26 58 35 46
4 53 51 26 46
4 46 35 26 57
4 58 61 8 14
4 83 60 12 59
4 11 34 55 52
4 10 54 50 27
4 53 30 64 63
4 35 46 86 57
4 8 26 51 58
4 56 49 29 50
4 30 49 64 31
4 53 30 49 64
4 62 49 55 31
4 24 83 60 12
4 8 51 28 61
4 61 51 28 60
4 30 53 9 63
4 58 61 14 85
4 59 12 56 33
4 10 54 29 50
4 53 26 9 57
4 58 85 35 46
4 56 32 49 55
4 33 10 54 29
4 86 63 1 57
4 83 60 61 24
4 63 53 9 57
4 11 31 34 52
4 50 54 52 27
4 31 49 55 52
4 62 55 34 31
4 55 49 56 50
4 33 56 59 29
4 54 55 52 27
4 54 56 33 29
4 29 54 56 50
4 52 55 54 50
4 2 64 84 13
4 14 61 24 85
4 52 49 55 50
4 56 54 55 50
4 9 1 63 57
4 31 55 34 52
4 86 1 0 57
4 22 3 2 84
4 84 3 2 13
4 86 0 1 22
4 2 46 53 63
4 2 53 46 84
4 32 59 12 56
4 12 59 32 83
4 23 22 48 82
4 22 23 48 81
4 1 2 22 48
4 4 5 48 23
4 82 4 1 48
4 5 2 48 81
4 1 7 4 82
4 5 3 2 81
4 1 0 7 82
4 6 3 5 81
4 82 23 4 48
4 81 22 2 48
4 23 81 5 48
4 82 1 22 48
4 2 3 22 81
4 0 1 22 82
4 81 5 6 23
4 4 7 23 82
4 5 4 90 23
4 47 5 23 88
4 25 47 80 89
4 76 47 90 68
4 90 5 47 76
4 87 79 65 78
4 47 80 89 66
4 89 21 45 74
4 74 89 80 66
4 65 79 66 78
4 7 73 90 45
4 40 66 79 78
4 90 5 23 47
4 87 79 66 65
4 66 88 87 42
4 68 73 90 76
4 65 87 78 42
4 74 47 89 66
4 87 47 88 66
4 75 19 77 72
4 87 79 80 66
4 47 73 90 68
4 47 80 66 87
4 88 66 65 42
4 77 65 75 72
4 66 47 88 68
4 65 66 87 42
4 68 88 66 65
4 65 77 88 72
4 78 71 65 42
4 66 40 65 78
4 88 68 77 65
4 19 88 77 72
4 77 65 39 75
4 47 74 36 66
4 42 65 88 72
4 5 68 76 77
4 36 73 47 68
4 4 5 90 76
4 40 65 78 41
4 78 87 20 42
4 20 71 78 42
4 47 25 80 87
4 68 5 88 77
4 43 19 75 72
4 16 74 80 66
4 74 45 47 36
4 75 65 39 72
4 66 36 47 68
4 73 47 45 36
4 65 71 78 41
4 78 71 20 44
4 74 80 21 16
4 71 67 37 18
4 68 76 77 38
4 88 19 42 72
4 47 90 73 45
4 74 16 36 66
4 65 38 77 39
4 38 77 68 65
4 79 87 20 78
4 66 80 16 40
4 79 80 66 40
4 68 15 76 38
4 21 89 80 74
4 65 71 41 67
4 87 20 25 79
4 69 39 65 72
4 18 71 67 44
4 68 36 73 15
4 71 65 42 72
4 70 17 69 43
4 89 45 47 74
4 69 17 70 37
4 67 69 65 72
4 43 75 39 72
4 69 17 39 43
4 76 90 4 73
4 25 87 79 80
4 73 68 15 76
4 18 67 41 44
4 43 69 70 72
4 67 71 69 72
4 65 71 67 72
4 69 71 70 72
4 71 78 41 44
4 67 70 71 37
4 19 88 5 77
4 39 69 43 72
4 21 89 25 80
4 69 70 71 67
4 15 4 73 76
4 67 69 70 37
4 71 41 67 44
4 73 4 7 90
4 5 6 88 19
4 88 6 5 23
4 23 7 4 90
4 5 47 68 88
4 5 68 47 76

CELL_TYPES 218
10
10
10
10
10
10
10
10
10
10
10
10
10
10
10
10
10
10
10
10
10
10
10
10
10
10
10
10
10
10
10
10
10
10
10
10
10
10
10
10
10
10
10
10
10
10
10
10
10
10
10
10
10
10
10
10
10
10
10
10
10
10
10
10
10
10
10
10
10
10
10
10
10
10
10
10
10
10
10
10
10
10
10
10
10
10
10
10
10
10
10
10
10
10
10
10
10
10
10
10
10
10
10
10
10
10
10
10
10
10
10
10
10
10
10
10
10
10
10
10
10
10
10
10
10
10
10
10
10
10
10
10
10
10
10
10
10
10
10
10
10
10
10
10
10
10
10
10
10
10
10
10
10
10
10
10
10
10
10
10
10
10
10
10
10
10
10
10
10
10
10
10
10
10
10
10
10
10
10
10
10
10
10
10
10
10
10
10
10
10
10
10
10
10
10
10
10
10
10
10
10
10
10
10
10
10
10
10
10
10
10
10
10
10
10
10
10
10
POINT_DATA 91
FIELD FieldData 2
DISPLACEMENT 3 91  float
0.0000000e+00 -1.8714699e-07 0.0000000e+00 
0.0000000e+00 -1.8974025e-07 0.0000000e+00 
1.5740723e-08 -1.1232246e-07 1.3165144e-08 
-5.5557798e-09 -1.1106447e-07 -3.6929402e-09 
0.0000000e+00 -5.2901353e-08 0.0000000e+00 
3.8362735e-09 -1.0641206e-08 9.0417434e-09 
-7.4917690e-09 -1.1041173e-08 -9.5695638e-09 
0.0000000e+00 -5.2533771e-08 0.0000000e+00 
0.0000000e+00 0.0000000e+00 0.0000000e+00 
0.0000000e+00 0.0000000e+00 0.0000000e+00 
0.0000000e+00 0.0000000e+00 0.0000000e+00 
0.0000000e+00 0.0000000e+00 0.0000000e+00 
0.0000000e+00 -8.8549177e-09 0.0000000e+00 
0.0000000e+00 -2.5918510e-08 0.0000000e+00 
0.0000000e+00 -2.4935506e-08 0.0000000e+00 
0.0000000e+00 0.0000000e+00 0.0000000e+00 
0.0000000e+00 0.0000000e+00 0.0000000e+00 
0.0000000e+00 0.0000000e+00 0.0000000e+00 
0.0000000e+00 0.0000000e+00 0.0000000e+00 
-4.9922860e-10 -7.6003530e-11 1.4449816e-09 
0.0000000e+00 6.7004680e-11 0.0000000e+00 
0.0000000e+00 -1.6340977e-10 0.0000000e+00 
-4.7001292e-09 -1.7740462e-07 -6.2788184e-09 
-5.4335687e-09 -3.1385287e-08 -1.4582188e-08 
0.0000000e+00 -6.8547164e-09 0.0000000e+00 
0.0000000e+00 -6.3714650e-12 0.0000000e+00 
0.0000000e+00 0.0000000e+00 0.0000000e+00 
0.0000000e+00 0.0000000e+00 0.0000000e+00 
0.0000000e+00 0.0000000e+00 0.0000000e+00 
0.0000000e+00 0.0000000e+00 0.0000000e+00 
0.0000000e+00 0.0000000e+00 0.0000000e+00 
0.0000000e+00 0.0000000e+00 0.0000000e+00 
0.0000000e+00 -2.9400223e-08 0.0000000e+00 
0.0000000e+00 -5.0512039e-10 0.0000000e+00 
0.0000000e+00 9.4073949e-10 0.0000000e+00 
0.0000000e+00 -1.0031681e-07 0.0000000e+00 
0.0000000e+00 0.0000000e+00 0.0000000e+00 
0.0000000e+00 0.0000000e+00 0.0000000e+00 
0.0000000e+00 0.0000000e+00 0.0000000e+00 
0.0000000e+00 0.0000000e+00 0.0000000e+00 
0.0000000e+00 0.0000000e+00 0.0000000e+00 
0.0000000e+00 0.0000000e+00 0.0000000e+00 
5.9746236e-10 2.7664751e-10 1.7125824e-09 
4.0160819e-10 1.3479608e-10 2.8921029e-10 
0.0000000e+00 -1.5876434e-11 0.0000000e+00 
0.0000000e+00 -6.5099501e-12 0.0000000e+00 
-4.5149933e-09 -1.6478231e-07 7.3161939e-09 
-1.2182052e-09 -6.6838496e-10 -9.1515173e-10 
6.4996533e-09 -1.0618803e-07 1.8630697e-08 
0.0000000e+00 0.0000000e+00 0.0000000e+00 
0.0000000e+00 0.0000000e+00 0.0000000e+00 
0.0000000e+00 0.0000000e+00 0.0000000e+00 
0.0000000e+00 0.0000000e+00 0.0000000e+00 
0.0000000e+00 0.0000000e+00 0.0000000e+00 
0.0000000e+00 -2.9911323e-10 0.0000000e+00 
0.0000000e+00 -5.0046994e-10 0.0000000e+00 
0.0000000e+00 -5.4387241e-09 0.0000000e+00 
0.0000000e+00 -9.6095825e-08 0.0000000e+00 
0.0000000e+00 -3.2958472e-08 0.0000000e+00 
0.0000000e+00 -3.6249421e-09 0.0000000e+00 
0.0000000e+00 -7.8904563e-09 0.0000000e+00 
0.0000000e+00 2.9235172e-09 0.0000000e+00 
7.9067579e-09 -1.0909733e-08 4.5060569e-09 
9.3050732e-09 -6.9759238e-08 1.0511672e-08 
1.6020469e-08 -3.9145217e-08 4.9996012e-09 
0.0000000e+00 0.0000000e+00 0.0000000e+00 
0.0000000e+00 0.0000000e+00 0.0000000e+00 
0.0000000e+00 0.0000000e+00 0.0000000e+00 
0.0000000e+00 0.0000000e+00 0.0000000e+00 
0.0000000e+00 0.0000000e+00 0.0000000e+00 
1.5316488e-10 -1.7292966e-11 1.1363969e-10 
2.1226246e-10 -6.3276728e-12 2.1405235e-10 
4.7364068e-10 3.7053194e-10 5.0943555e-10 
0.0000000e+00 -1.7001838e-08 0.0000000e+00 
0.0000000e+00 -2.1179862e-10 0.0000000e+00 
1.1495584e-09 -5.0261717e-10 1.6583259e-09 
3.9323318e-09 -1.4899382e-08 3.4095906e-09 
2.6154086e-09 -1.9565389e-09 3.9443089e-09 
0.0000000e+00 -1.3104776e-10 0.0000000e+00 
0.0000000e+00 -1.1949544e-10 0.0000000e+00 
0.0000000e+00 7.3766153e-11 0.0000000e+00 
-8.4385219e-09 -8.4133035e-08 -7.5271762e-09 
-2.4709070e-09 -1.1547500e-07 -1.1862683e-08 
-2.4517397e-09 -2.5547891e-08 1.7678571e-09 
5.8388161e-09 -8.1587778e-08 7.2489312e-09 
-2.3981312e-09 -7.9869906e-08 8.2195646e-09 
-3.0885847e-09 -1.6424652e-07 3.0621528e-09 
-1.5361862e-10 7.3079522e-11 8.3998303e-10 
1.0417296e-09 1.6315825e-10 3.8651717e-09 
-5.1921700e-10 -3.4231756e-10 -3.9307352e-10 
-1.5418247e-09 -1.9413282e-08 -5.4677378e-09 
TOTAL_DISPLACEMENT 3 91  float
0.0000000e+00 0.0000000e+00 0.0000000e+00 
0.0000000e+00 0.0000000e+00 0.0000000e+00 
0.0000000e+00 0.0000000e+00 0.0000000e+00 
0.0000000e+00 0.0000000e+00 0.0000000e+00 
0.0000000e+00 0.0000000e+00 0.0000000e+00 
0.0000000e+00 0.0000000e+00 0.0000000e+00 
0.0000000e+00 0.0000000e+00 0.0000000e+00 
0.0000000e+00 0.0000000e+00 0.0000000e+00 
0.0000000e+00 0.0000000e+00 0.0000000e+00 
0.0000000e+00 0.0000000e+00 0.0000000e+00 
0.0000000e+00 0.0000000e+00 0.0000000e+00 
0.0000000e+00 0.0000000e+00 0.0000000e+00 
0.0000000e+00 0.0000000e+00 0.0000000e+00 
0.0000000e+00 0.0000000e+00 0.0000000e+00 
0.0000000e+00 0.0000000e+00 0.0000000e+00 
0.0000000e+00 0.0000000e+00 0.0000000e+00 
0.0000000e+00 0.0000000e+00 0.0000000e+00 
0.0000000e+00 0.0000000e+00 0.0000000e+00 
0.0000000e+00 0.0000000e+00 0.0000000e+00 
0.0000000e+00 0.0000000e+00 0.0000000e+00 
0.0000000e+00 0.0000000e+00 0.0000000e+00 
0.0000000e+00 0.0000000e+00 0.0000000e+00 
0.0000000e+00 0.0000000e+00 0.0000000e+00 
0.0000000e+00 0.0000000e+00 0.0000000e+00 
0.0000000e+00 0.0000000e+00 0.0000000e+00 
0.0000000e+00 0.0000000e+00 0.0000000e+00 
0.0000000e+00 0.0000000e+00 0.0000000e+00 
0.0000000e+00 0.0000000e+00 0.0000000e+00 
0.0000000e+00 0.0000000e+00 0.0000000e+00 
0.0000000e+00 0.0000000e+00 0.0000000e+00 
0.0000000e+00 0.0000000e+00 0.0000000e+00 
0.0000000e+00 0.0000000e+00 0.0000000e+00 
0.0000000e+00 0.0000000e+00 0.0000000e+00 
0.0000000e+00 0.0000000e+00 0.0000000e+00 
0.0000000e+00 0.0000000e+00 0.0000000e+00 
0.0000000e+00 0.0000000e+00 0.0000000e+00 
0.0000000e+00 0.0000000e+00 0.0000000e+00 
0.0000000e+00 0.0000000e+00 0.0000000e+00 
0.0000000e+00 0.0000000e+00 0.0000000e+00 
0.0000000e+00 0.0000000e+00 0.0000000e+00 
0.0000000e+00 0.0000000e+00 0.0000000e+00 
0.0000000e+00 0.0000000e+00 0.0000000e+00 
0.0000000e+00 0.0000000e+00 0.0000000e+00 
0.0000000e+00 0.0000000e+00 0.0000000e+00 
0.0000000e+00 0.0000000e+00 0.0000000e+00 
0.0000000e+00 0.0000000e+00 0.0000000e+00 
0.0000000e+00 0.0000000e+00 0.0000000e+00 
0.0000000e+00 0.0000000e+00 0.0000000e+00 
0.0000000e+00 0.0000000e+00 0.0000000e+00 
0.0000000e+00 0.0000000e+00 0.0000000e+00 
0.0000000e+00 0.0000000e+00 0.0000000e+00 
0.0000000e+00 0.0000000e+00 0.0000000e+00 
0.0000000e+00 0.0000000e+00 0.0000000e+00 
0.0000000e+00 0.0000000e+00 0.0000000e+00 
0.0000000e+00 0.0000000e+00 0.0000000e+00 
0.0000000e+00 0.0000000e+00 0.0000000e+00 
0.0000000e+00 0.0000000e+00 0.0000000e+00 
0.0000000e+00 0.0000000e+00 0.0000000e+00 
0.0000000e+00 0.0000000e+00 0.0000000e+00 
0.0000000e+00 0.0000000e+00 0.0000000e+00 
0.0000000e+00 0.0000000e+00 0.0000000e+00 
0.0000000e+00 0.0000000e+00 0.0000000e+00 
0.0000000e+00 0.0000000e+00 0.0000000e+00 
0.0000000e+00 0.0000000e+00 0.0000000e+00 
0.0000000e+00 0.0000000e+00 0.0000000e+00 
0.0000000e+00 0.0000000e+00 0.0000000e+00 
0.0000000e+00 0.0000000e+00 0.0000000e+00 
0.0000000e+00 0.0000000e+00 0.0000000e+00 
0.0000000e+00 0.0000000e+00 0.0000000e+00 
0.0000000e+00 0.0000000e+00 0.0000000e+00 
0.0000000e+00 0.0000000e+00 0.0000000e+00 
0.0000000e+00 0.0000000e+00 0.0000000e+00 
0.0000000e+00 0.0000000e+00 0.0000000e+00 
0.0000000e+00 0.0000000e+00 0.0000000e+00 
0.0000000e+00 0.0000000e+00 0.0000000e+00 
0.0000000e+00 0.0000000e+00 0.0000000e+00 
0.0000000e+00 0.0000000e+00 0.0000000e+00 
0.0000000e+00 0.0000000e+00 0.0000000e+00 
0.0000000e+00 0.0000000e+00 0.0000000e+00 
0.0000000e+00 0.0000000e+00 0.0000000e+00 
0.0000000e+00 0.0000000e+00 0.0000000e+00 
0.0000000e+00 0.0000000e+00 0.0000000e+00 
0.0000000e+00 0.0000000e+00 0.0000000e+00 
0.0000000e+00 0.0000000e+00 0.0000000e+00 
0.0000000e+00 0.0000000e+00 0.0000000e+00 
0.0000000e+00 0.0000000e+00 0.0000000e+00 
0.0000000e+00 0.0000000e+00 0.0000000e+00 
0.0000000e+00 0.0000000e+00 0.0000000e+00 
0.0000000e+00 0.0000000e+00 0.0000000e+00 
0.0000000e+00 0.0000000e+00 0.0000000e+00 
0.0000000e+00 0.0000000e+00 0.0000000e+00 
CELL_DATA 218
FIELD FieldData 0
