# vtk DataFile Version 4.0
vtk output
ASCII
DATASET UNSTRUCTURED_GRID
POINTS 91 float
0.0000000e+00 1.0000000e+00 2.0000000e+00 
0.0000000e+00 8.0000001e-01 2.0000000e+00 
1.0000000e+00 8.0000001e-01 2.0000000e+00 
1.0000000e+00 1.0000000e+00 2.0000000e+00 
0.0000000e+00 8.0000001e-01 3.0000000e+00 
1.0000000e+00 8.0000001e-01 3.0000000e+00 
1.0000000e+00 1.0000000e+00 3.0000000e+00 
0.0000000e+00 1.0000000e+00 3.0000000e+00 
0.0000000e+00 0.0000000e+00 0.0000000e+00 
0.0000000e+00 0.0000000e+00 2.0000000e+00 
3.0000000e+00 0.0000000e+00 0.0000000e+00 
3.0000000e+00 0.0000000e+00 2.0000000e+00 
1.5000000e+00 1.0000000e+00 0.0000000e+00 
1.5000000e+00 1.0000000e+00 2.0000000e+00 
0.0000000e+00 1.0000000e+00 0.0000000e+00 
0.0000000e+00 0.0000000e+00 3.0000000e+00 
0.0000000e+00 0.0000000e+00 5.0000000e+00 
3.0000000e+00 0.0000000e+00 3.0000000e+00 
3.0000000e+00 0.0000000e+00 5.0000000e+00 
1.5000000e+00 1.0000000e+00 3.0000000e+00 
1.5000000e+00 1.0000000e+00 5.0000000e+00 
0.0000000e+00 1.0000000e+00 5.0000000e+00 
5.0000000e-01 1.0000000e+00 2.0000000e+00 
5.0000000e-01 1.0000000e+00 3.0000000e+00 
5.0000000e-01 1.0000000e+00 0.0000000e+00 
5.0000000e-01 1.0000000e+00 5.0000000e+00 
0.0000000e+00 0.0000000e+00 1.0000000e+00 
3.0000000e+00 0.0000000e+00 1.0000000e+00 
1.0000000e+00 0.0000000e+00 0.0000000e+00 
2.0000000e+00 0.0000000e+00 0.0000000e+00 
1.0000000e+00 0.0000000e+00 2.0000000e+00 
2.0000000e+00 0.0000000e+00 2.0000000e+00 
1.5000000e+00 1.0000000e+00 1.0000000e+00 
2.2500000e+00 5.0000000e-01 0.0000000e+00 
2.2500000e+00 5.0000000e-01 2.0000000e+00 
0.0000000e+00 1.0000000e+00 1.0000000e+00 
0.0000000e+00 0.0000000e+00 4.0000000e+00 
3.0000000e+00 0.0000000e+00 4.0000000e+00 
1.0000000e+00 0.0000000e+00 3.0000000e+00 
2.0000000e+00 0.0000000e+00 3.0000000e+00 
1.0000000e+00 0.0000000e+00 5.0000000e+00 
2.0000000e+00 0.0000000e+00 5.0000000e+00 
1.5000000e+00 1.0000000e+00 4.0000000e+00 
2.2500000e+00 5.0000000e-01 3.0000000e+00 
2.2500000e+00 5.0000000e-01 5.0000000e+00 
0.0000000e+00 1.0000000e+00 4.0000000e+00 
5.0000000e-01 1.0000000e+00 1.0000000e+00 
5.0000000e-01 1.0000000e+00 4.0000000e+00 
5.0000000e-01 8.0000001e-01 2.5000000e+00 
1.5000000e+00 0.0000000e+00 1.0944226e+00 
2.3425484e+00 0.0000000e+00 7.2803199e-01 
6.5745169e-01 0.0000000e+00 7.2803199e-01 
2.4083350e+00 0.0000000e+00 1.4062847e+00 
5.9166491e-01 0.0000000e+00 1.4062847e+00 
2.5282347e+00 3.1451017e-01 5.7642096e-01 
2.2566874e+00 4.9554169e-01 1.3188519e+00 
2.0126626e+00 6.5822488e-01 6.1651802e-01 
0.0000000e+00 5.6000000e-01 1.6000000e+00 
0.0000000e+00 5.0000000e-01 5.0000000e-01 
1.5500000e+00 4.2500001e-01 0.0000000e+00 
9.9863636e-01 5.6568182e-01 0.0000000e+00 
4.9972728e-01 5.1313639e-01 0.0000000e+00 
1.7287185e+00 4.7321430e-01 2.0000000e+00 
5.0000000e-01 4.0000001e-01 2.0000000e+00 
1.2600565e+00 4.2323250e-01 2.0000000e+00 
1.5000000e+00 0.0000000e+00 3.9055774e+00 
6.5745169e-01 0.0000000e+00 4.2719679e+00 
2.3425484e+00 0.0000000e+00 4.2719679e+00 
5.9166491e-01 0.0000000e+00 3.5937154e+00 
2.4083350e+00 0.0000000e+00 3.5937154e+00 
2.5282347e+00 3.1451017e-01 3.5764210e+00 
2.2566874e+00 4.9554169e-01 4.3188519e+00 
2.0126626e+00 6.5822488e-01 3.6165180e+00 
0.0000000e+00 5.6000000e-01 3.4000001e+00 
0.0000000e+00 5.0000000e-01 4.5000000e+00 
1.7287185e+00 4.7321430e-01 3.0000000e+00 
5.0000000e-01 4.0000001e-01 3.0000000e+00 
1.2600565e+00 4.2323250e-01 3.0000000e+00 
1.5500000e+00 4.2500001e-01 5.0000000e+00 
9.9863636e-01 5.6568182e-01 5.0000000e+00 
4.9972728e-01 5.1313639e-01 5.0000000e+00 
7.5000000e-01 1.0000000e+00 2.5000000e+00 
2.5000000e-01 1.0000000e+00 2.5000000e+00 
1.0000000e+00 1.0000000e+00 5.0000000e-01 
1.0000000e+00 1.0000000e+00 1.4166666e+00 
2.5000000e-01 1.0000000e+00 5.0000000e-01 
2.5000000e-01 1.0000000e+00 1.5000000e+00 
1.0000000e+00 1.0000000e+00 4.5000000e+00 
1.0000000e+00 1.0000000e+00 3.5833333e+00 
2.5000000e-01 1.0000000e+00 4.5000000e+00 
2.5000000e-01 1.0000000e+00 3.5000000e+00 

CELLS 218 1090
4 46 2 84 22
4 1 2 86 22
4 24 46 85 61
4 46 63 86 53
4 86 2 63 46
4 49 60 83 59
4 61 46 85 51
4 85 14 58 35
4 51 61 58 85
4 60 49 51 59
4 0 35 86 57
4 86 2 46 22
4 60 51 28 59
4 84 64 32 62
4 60 51 49 83
4 51 83 84 32
4 53 63 86 57
4 49 32 56 59
4 32 49 83 59
4 32 64 49 62
4 85 58 51 46
4 51 83 46 84
4 61 51 60 83
4 64 84 13 62
4 86 46 53 57
4 61 46 51 83
4 84 49 51 32
4 53 51 46 84
4 83 51 49 32
4 32 13 84 62
4 51 53 49 84
4 49 28 51 59
4 52 55 11 27
4 64 49 53 84
4 55 32 49 62
4 55 34 13 62
4 84 64 49 32
4 62 64 49 31
4 55 13 32 62
4 58 26 51 46
4 64 2 53 63
4 56 49 59 29
4 46 26 53 57
4 2 1 86 63
4 59 49 28 29
4 64 53 2 84
4 24 46 61 83
4 61 8 51 58
4 26 58 35 46
4 53 51 26 46
4 46 35 26 57
4 58 61 8 14
4 83 60 12 59
4 11 34 55 52
4 10 54 50 27
4 53 30 64 63
4 35 46 86 57
4 8 26 51 58
4 56 49 29 50
4 30 49 64 31
4 53 30 49 64
4 62 49 55 31
4 24 83 60 12
4 8 51 28 61
4 61 51 28 60
4 30 53 9 63
4 58 61 14 85
4 59 12 56 33
4 10 54 29 50
4 53 26 9 57
4 58 85 35 46
4 56 32 49 55
4 33 10 54 29
4 86 63 1 57
4 83 60 61 24
4 63 53 9 57
4 11 31 34 52
4 50 54 52 27
4 31 49 55 52
4 62 55 34 31
4 55 49 56 50
4 33 56 59 29
4 54 55 52 27
4 54 56 33 29
4 29 54 56 50
4 52 55 54 50
4 2 64 84 13
4 14 61 24 85
4 52 49 55 50
4 56 54 55 50
4 9 1 63 57
4 31 55 34 52
4 86 1 0 57
4 22 3 2 84
4 84 3 2 13
4 86 0 1 22
4 2 46 53 63
4 2 53 46 84
4 32 59 12 56
4 12 59 32 83
4 23 22 48 82
4 22 23 48 81
4 1 2 22 48
4 4 5 48 23
4 82 4 1 48
4 5 2 48 81
4 1 7 4 82
4 5 3 2 81
4 1 0 7 82
4 6 3 5 81
4 82 23 4 48
4 81 22 2 48
4 23 81 5 48
4 82 1 22 48
4 2 3 22 81
4 0 1 22 82
4 81 5 6 23
4 4 7 23 82
4 5 4 90 23
4 47 5 23 88
4 25 47 80 89
4 76 47 90 68
4 90 5 47 76
4 87 79 65 78
4 47 80 89 66
4 89 21 45 74
4 74 89 80 66
4 65 79 66 78
4 7 73 90 45
4 40 66 79 78
4 90 5 23 47
4 87 79 66 65
4 66 88 87 42
4 68 73 90 76
4 65 87 78 42
4 74 47 89 66
4 87 47 88 66
4 75 19 77 72
4 87 79 80 66
4 47 73 90 68
4 47 80 66 87
4 88 66 65 42
4 77 65 75 72
4 66 47 88 68
4 65 66 87 42
4 68 88 66 65
4 65 77 88 72
4 78 71 65 42
4 66 40 65 78
4 88 68 77 65
4 19 88 77 72
4 77 65 39 75
4 47 74 36 66
4 42 65 88 72
4 5 68 76 77
4 36 73 47 68
4 4 5 90 76
4 40 65 78 41
4 78 87 20 42
4 20 71 78 42
4 47 25 80 87
4 68 5 88 77
4 43 19 75 72
4 16 74 80 66
4 74 45 47 36
4 75 65 39 72
4 66 36 47 68
4 73 47 45 36
4 65 71 78 41
4 78 71 20 44
4 74 80 21 16
4 71 67 37 18
4 68 76 77 38
4 88 19 42 72
4 47 90 73 45
4 74 16 36 66
4 65 38 77 39
4 38 77 68 65
4 79 87 20 78
4 66 80 16 40
4 79 80 66 40
4 68 15 76 38
4 21 89 80 74
4 65 71 41 67
4 87 20 25 79
4 69 39 65 72
4 18 71 67 44
4 68 36 73 15
4 71 65 42 72
4 70 17 69 43
4 89 45 47 74
4 69 17 70 37
4 67 69 65 72
4 43 75 39 72
4 69 17 39 43
4 76 90 4 73
4 25 87 79 80
4 73 68 15 76
4 18 67 41 44
4 43 69 70 72
4 67 71 69 72
4 65 71 67 72
4 69 71 70 72
4 71 78 41 44
4 67 70 71 37
4 19 88 5 77
4 39 69 43 72
4 21 89 25 80
4 69 70 71 67
4 15 4 73 76
4 67 69 70 37
4 71 41 67 44
4 73 4 7 90
4 5 6 88 19
4 88 6 5 23
4 23 7 4 90
4 5 47 68 88
4 5 68 47 76

CELL_TYPES 218
10
10
10
10
10
10
10
10
10
10
10
10
10
10
10
10
10
10
10
10
10
10
10
10
10
10
10
10
10
10
10
10
10
10
10
10
10
10
10
10
10
10
10
10
10
10
10
10
10
10
10
10
10
10
10
10
10
10
10
10
10
10
10
10
10
10
10
10
10
10
10
10
10
10
10
10
10
10
10
10
10
10
10
10
10
10
10
10
10
10
10
10
10
10
10
10
10
10
10
10
10
10
10
10
10
10
10
10
10
10
10
10
10
10
10
10
10
10
10
10
10
10
10
10
10
10
10
10
10
10
10
10
10
10
10
10
10
10
10
10
10
10
10
10
10
10
10
10
10
10
10
10
10
10
10
10
10
10
10
10
10
10
10
10
10
10
10
10
10
10
10
10
10
10
10
10
10
10
10
10
10
10
10
10
10
10
10
10
10
10
10
10
10
10
10
10
10
10
10
10
10
10
10
10
10
10
10
10
10
10
10
10
10
10
10
10
10
10
POINT_DATA 91
FIELD FieldData 2
DISPLACEMENT 3 91  float
0.0000000e+00 -3.0212657e-08 0.0000000e+00 
0.0000000e+00 -2.9816498e-08 0.0000000e+00 
7.8448554e-09 1.6778793e-09 5.8348908e-09 
2.7101255e-09 9.2560998e-10 1.1919699e-09 
0.0000000e+00 -5.8106191e-09 0.0000000e+00 
-1.3727737e-10 3.5915551e-09 1.0584151e-09 
-2.6400735e-09 3.3777476e-09 2.5725011e-10 
0.0000000e+00 -5.3691154e-09 0.0000000e+00 
0.0000000e+00 0.0000000e+00 0.0000000e+00 
0.0000000e+00 0.0000000e+00 0.0000000e+00 
0.0000000e+00 0.0000000e+00 0.0000000e+00 
0.0000000e+00 0.0000000e+00 0.0000000e+00 
0.0000000e+00 -1.1517850e-08 0.0000000e+00 
0.0000000e+00 -1.3152061e-08 0.0000000e+00 
0.0000000e+00 -8.2325045e-08 0.0000000e+00 
0.0000000e+00 0.0000000e+00 0.0000000e+00 
0.0000000e+00 0.0000000e+00 0.0000000e+00 
0.0000000e+00 0.0000000e+00 0.0000000e+00 
0.0000000e+00 0.0000000e+00 0.0000000e+00 
-3.1061872e-11 1.4034791e-09 7.3307038e-10 
0.0000000e+00 6.2520579e-11 0.0000000e+00 
0.0000000e+00 -6.7586402e-11 0.0000000e+00 
-8.1054274e-10 -1.5879319e-08 -7.0406130e-09 
-1.6896101e-09 -9.6784336e-10 -1.2942957e-09 
0.0000000e+00 -1.4635825e-07 0.0000000e+00 
0.0000000e+00 1.7483485e-11 0.0000000e+00 
0.0000000e+00 0.0000000e+00 0.0000000e+00 
0.0000000e+00 0.0000000e+00 0.0000000e+00 
0.0000000e+00 0.0000000e+00 0.0000000e+00 
0.0000000e+00 0.0000000e+00 0.0000000e+00 
0.0000000e+00 0.0000000e+00 0.0000000e+00 
0.0000000e+00 0.0000000e+00 0.0000000e+00 
0.0000000e+00 -3.8922085e-08 0.0000000e+00 
0.0000000e+00 -9.2968311e-10 0.0000000e+00 
0.0000000e+00 2.2960798e-09 0.0000000e+00 
0.0000000e+00 -1.4315135e-07 0.0000000e+00 
0.0000000e+00 0.0000000e+00 0.0000000e+00 
0.0000000e+00 0.0000000e+00 0.0000000e+00 
0.0000000e+00 0.0000000e+00 0.0000000e+00 
0.0000000e+00 0.0000000e+00 0.0000000e+00 
0.0000000e+00 0.0000000e+00 0.0000000e+00 
0.0000000e+00 0.0000000e+00 0.0000000e+00 
-1.0873785e-11 4.3798304e-10 3.5106448e-10 
-1.0167033e-10 3.7258221e-11 1.0251811e-10 
0.0000000e+00 8.7878983e-13 0.0000000e+00 
0.0000000e+00 -1.1008396e-10 0.0000000e+00 
-7.7751849e-09 -2.3848196e-07 4.9394266e-09 
-3.1844730e-10 -2.5157598e-10 1.6634175e-10 
2.7867362e-09 -7.5854185e-09 -1.1252438e-10 
0.0000000e+00 0.0000000e+00 0.0000000e+00 
0.0000000e+00 0.0000000e+00 0.0000000e+00 
0.0000000e+00 0.0000000e+00 0.0000000e+00 
0.0000000e+00 0.0000000e+00 0.0000000e+00 
0.0000000e+00 0.0000000e+00 0.0000000e+00 
0.0000000e+00 -4.5724458e-10 0.0000000e+00 
0.0000000e+00 -8.1914348e-10 0.0000000e+00 
0.0000000e+00 -8.0761202e-09 0.0000000e+00 
0.0000000e+00 -4.9548021e-08 0.0000000e+00 
0.0000000e+00 -6.2379797e-08 0.0000000e+00 
0.0000000e+00 -1.1017691e-08 0.0000000e+00 
0.0000000e+00 -2.8513554e-08 0.0000000e+00 
0.0000000e+00 -5.2324705e-08 0.0000000e+00 
3.7244721e-09 1.6208191e-09 8.2273122e-09 
4.9974900e-09 1.0141146e-08 1.6018364e-08 
3.5077663e-09 -1.3657385e-08 7.3181701e-09 
0.0000000e+00 0.0000000e+00 0.0000000e+00 
0.0000000e+00 0.0000000e+00 0.0000000e+00 
0.0000000e+00 0.0000000e+00 0.0000000e+00 
0.0000000e+00 0.0000000e+00 0.0000000e+00 
0.0000000e+00 0.0000000e+00 0.0000000e+00 
-1.5495914e-11 6.4036437e-12 1.8743887e-11 
-1.8647658e-11 1.5432369e-11 4.0621846e-11 
-6.1189852e-11 2.9970647e-11 1.3192374e-10 
0.0000000e+00 -1.8604430e-09 0.0000000e+00 
0.0000000e+00 -9.4904161e-11 0.0000000e+00 
-2.1398808e-10 6.7341738e-10 3.1371877e-10 
4.6943865e-10 -1.4820291e-10 4.6076171e-10 
-3.5612299e-10 1.2402180e-09 4.5745571e-10 
0.0000000e+00 -1.4718993e-11 0.0000000e+00 
0.0000000e+00 -2.5066225e-12 0.0000000e+00 
0.0000000e+00 1.0020089e-13 0.0000000e+00 
-1.4391296e-09 -2.2469688e-09 -7.9433615e-10 
-8.4634860e-10 -1.3470769e-08 -3.4295191e-09 
-2.1533946e-09 -4.9869158e-08 1.6086412e-09 
2.8022169e-09 -7.8042305e-08 1.3636715e-09 
-5.2040945e-09 -1.4542671e-07 7.2851800e-09 
-2.6240730e-09 -1.2469654e-07 -3.0025971e-09 
-4.8231214e-11 9.8597151e-11 2.1530973e-10 
-1.4368859e-10 1.7311691e-09 6.5517025e-10 
-1.4412764e-10 -1.3198255e-10 7.2802930e-11 
-4.2203147e-10 -2.0095403e-09 -3.5677880e-10 
TOTAL_DISPLACEMENT 3 91  float
0.0000000e+00 0.0000000e+00 0.0000000e+00 
0.0000000e+00 0.0000000e+00 0.0000000e+00 
0.0000000e+00 0.0000000e+00 0.0000000e+00 
0.0000000e+00 0.0000000e+00 0.0000000e+00 
0.0000000e+00 0.0000000e+00 0.0000000e+00 
0.0000000e+00 0.0000000e+00 0.0000000e+00 
0.0000000e+00 0.0000000e+00 0.0000000e+00 
0.0000000e+00 0.0000000e+00 0.0000000e+00 
0.0000000e+00 0.0000000e+00 0.0000000e+00 
0.0000000e+00 0.0000000e+00 0.0000000e+00 
0.0000000e+00 0.0000000e+00 0.0000000e+00 
0.0000000e+00 0.0000000e+00 0.0000000e+00 
0.0000000e+00 0.0000000e+00 0.0000000e+00 
0.0000000e+00 0.0000000e+00 0.0000000e+00 
0.0000000e+00 0.0000000e+00 0.0000000e+00 
0.0000000e+00 0.0000000e+00 0.0000000e+00 
0.0000000e+00 0.0000000e+00 0.0000000e+00 
0.0000000e+00 0.0000000e+00 0.0000000e+00 
0.0000000e+00 0.0000000e+00 0.0000000e+00 
0.0000000e+00 0.0000000e+00 0.0000000e+00 
0.0000000e+00 0.0000000e+00 0.0000000e+00 
0.0000000e+00 0.0000000e+00 0.0000000e+00 
0.0000000e+00 0.0000000e+00 0.0000000e+00 
0.0000000e+00 0.0000000e+00 0.0000000e+00 
0.0000000e+00 0.0000000e+00 0.0000000e+00 
0.0000000e+00 0.0000000e+00 0.0000000e+00 
0.0000000e+00 0.0000000e+00 0.0000000e+00 
0.0000000e+00 0.0000000e+00 0.0000000e+00 
0.0000000e+00 0.0000000e+00 0.0000000e+00 
0.0000000e+00 0.0000000e+00 0.0000000e+00 
0.0000000e+00 0.0000000e+00 0.0000000e+00 
0.0000000e+00 0.0000000e+00 0.0000000e+00 
0.0000000e+00 0.0000000e+00 0.0000000e+00 
0.0000000e+00 0.0000000e+00 0.0000000e+00 
0.0000000e+00 0.0000000e+00 0.0000000e+00 
0.0000000e+00 0.0000000e+00 0.0000000e+00 
0.0000000e+00 0.0000000e+00 0.0000000e+00 
0.0000000e+00 0.0000000e+00 0.0000000e+00 
0.0000000e+00 0.0000000e+00 0.0000000e+00 
0.0000000e+00 0.0000000e+00 0.0000000e+00 
0.0000000e+00 0.0000000e+00 0.0000000e+00 
0.0000000e+00 0.0000000e+00 0.0000000e+00 
0.0000000e+00 0.0000000e+00 0.0000000e+00 
0.0000000e+00 0.0000000e+00 0.0000000e+00 
0.0000000e+00 0.0000000e+00 0.0000000e+00 
0.0000000e+00 0.0000000e+00 0.0000000e+00 
0.0000000e+00 0.0000000e+00 0.0000000e+00 
0.0000000e+00 0.0000000e+00 0.0000000e+00 
0.0000000e+00 0.0000000e+00 0.0000000e+00 
0.0000000e+00 0.0000000e+00 0.0000000e+00 
0.0000000e+00 0.0000000e+00 0.0000000e+00 
0.0000000e+00 0.0000000e+00 0.0000000e+00 
0.0000000e+00 0.0000000e+00 0.0000000e+00 
0.0000000e+00 0.0000000e+00 0.0000000e+00 
0.0000000e+00 0.0000000e+00 0.0000000e+00 
0.0000000e+00 0.0000000e+00 0.0000000e+00 
0.0000000e+00 0.0000000e+00 0.0000000e+00 
0.0000000e+00 0.0000000e+00 0.0000000e+00 
0.0000000e+00 0.0000000e+00 0.0000000e+00 
0.0000000e+00 0.0000000e+00 0.0000000e+00 
0.0000000e+00 0.0000000e+00 0.0000000e+00 
0.0000000e+00 0.0000000e+00 0.0000000e+00 
0.0000000e+00 0.0000000e+00 0.0000000e+00 
0.0000000e+00 0.0000000e+00 0.0000000e+00 
0.0000000e+00 0.0000000e+00 0.0000000e+00 
0.0000000e+00 0.0000000e+00 0.0000000e+00 
0.0000000e+00 0.0000000e+00 0.0000000e+00 
0.0000000e+00 0.0000000e+00 0.0000000e+00 
0.0000000e+00 0.0000000e+00 0.0000000e+00 
0.0000000e+00 0.0000000e+00 0.0000000e+00 
0.0000000e+00 0.0000000e+00 0.0000000e+00 
0.0000000e+00 0.0000000e+00 0.0000000e+00 
0.0000000e+00 0.0000000e+00 0.0000000e+00 
0.0000000e+00 0.0000000e+00 0.0000000e+00 
0.0000000e+00 0.0000000e+00 0.0000000e+00 
0.0000000e+00 0.0000000e+00 0.0000000e+00 
0.0000000e+00 0.0000000e+00 0.0000000e+00 
0.0000000e+00 0.0000000e+00 0.0000000e+00 
0.0000000e+00 0.0000000e+00 0.0000000e+00 
0.0000000e+00 0.0000000e+00 0.0000000e+00 
0.0000000e+00 0.0000000e+00 0.0000000e+00 
0.0000000e+00 0.0000000e+00 0.0000000e+00 
0.0000000e+00 0.0000000e+00 0.0000000e+00 
0.0000000e+00 0.0000000e+00 0.0000000e+00 
0.0000000e+00 0.0000000e+00 0.0000000e+00 
0.0000000e+00 0.0000000e+00 0.0000000e+00 
0.0000000e+00 0.0000000e+00 0.0000000e+00 
0.0000000e+00 0.0000000e+00 0.0000000e+00 
0.0000000e+00 0.0000000e+00 0.0000000e+00 
0.0000000e+00 0.0000000e+00 0.0000000e+00 
0.0000000e+00 0.0000000e+00 0.0000000e+00 
CELL_DATA 218
FIELD FieldData 0
