# vtk DataFile Version 4.0
vtk output
ASCII
DATASET UNSTRUCTURED_GRID
POINTS 3543 float
0.0000000e+00 0.0000000e+00 0.0000000e+00 
2.0000000e+01 0.0000000e+00 0.0000000e+00 
2.0000000e+01 1.0000000e+01 0.0000000e+00 
0.0000000e+00 1.0000000e+01 0.0000000e+00 
0.0000000e+00 0.0000000e+00 1.0000000e+00 
2.0000000e+01 0.0000000e+00 1.0000000e+00 
2.0000000e+01 1.0000000e+01 1.0000000e+00 
0.0000000e+00 1.0000000e+01 1.0000000e+00 
1.0000000e+00 1.0000000e+01 0.0000000e+00 
1.0000000e+00 1.0000000e+01 1.0000000e+00 
5.0000000e+00 1.0000000e+01 0.0000000e+00 
1.0000000e+01 1.0000000e+01 0.0000000e+00 
1.5000000e+01 1.0000000e+01 0.0000000e+00 
1.0000000e+00 0.0000000e+00 0.0000000e+00 
2.0000000e+00 0.0000000e+00 0.0000000e+00 
3.0000000e+00 0.0000000e+00 0.0000000e+00 
4.0000000e+00 0.0000000e+00 0.0000000e+00 
5.0000000e+00 0.0000000e+00 0.0000000e+00 
6.0000000e+00 0.0000000e+00 0.0000000e+00 
7.0000000e+00 0.0000000e+00 0.0000000e+00 
8.0000000e+00 0.0000000e+00 0.0000000e+00 
9.0000000e+00 0.0000000e+00 0.0000000e+00 
1.0000000e+01 0.0000000e+00 0.0000000e+00 
1.1000000e+01 0.0000000e+00 0.0000000e+00 
1.2000000e+01 0.0000000e+00 0.0000000e+00 
1.3000000e+01 0.0000000e+00 0.0000000e+00 
1.4000000e+01 0.0000000e+00 0.0000000e+00 
1.5000000e+01 0.0000000e+00 0.0000000e+00 
1.6000000e+01 0.0000000e+00 0.0000000e+00 
1.7000000e+01 0.0000000e+00 0.0000000e+00 
1.8000000e+01 0.0000000e+00 0.0000000e+00 
1.9000000e+01 0.0000000e+00 0.0000000e+00 
5.0000000e-01 0.0000000e+00 0.0000000e+00 
1.5000000e+00 0.0000000e+00 0.0000000e+00 
2.5000000e+00 0.0000000e+00 0.0000000e+00 
3.5000000e+00 0.0000000e+00 0.0000000e+00 
4.5000000e+00 0.0000000e+00 0.0000000e+00 
5.5000000e+00 0.0000000e+00 0.0000000e+00 
6.5000000e+00 0.0000000e+00 0.0000000e+00 
7.5000000e+00 0.0000000e+00 0.0000000e+00 
8.5000000e+00 0.0000000e+00 0.0000000e+00 
9.5000000e+00 0.0000000e+00 0.0000000e+00 
1.0500000e+01 0.0000000e+00 0.0000000e+00 
1.1500000e+01 0.0000000e+00 0.0000000e+00 
1.2500000e+01 0.0000000e+00 0.0000000e+00 
1.3500000e+01 0.0000000e+00 0.0000000e+00 
1.4500000e+01 0.0000000e+00 0.0000000e+00 
1.5500000e+01 0.0000000e+00 0.0000000e+00 
1.6500000e+01 0.0000000e+00 0.0000000e+00 
1.7500000e+01 0.0000000e+00 0.0000000e+00 
1.8500000e+01 0.0000000e+00 0.0000000e+00 
1.9500000e+01 0.0000000e+00 0.0000000e+00 
2.0000000e+01 1.0000000e+00 0.0000000e+00 
2.0000000e+01 2.0000000e+00 0.0000000e+00 
2.0000000e+01 3.0000000e+00 0.0000000e+00 
2.0000000e+01 4.0000000e+00 0.0000000e+00 
2.0000000e+01 5.0000000e+00 0.0000000e+00 
2.0000000e+01 6.0000000e+00 0.0000000e+00 
2.0000000e+01 7.0000000e+00 0.0000000e+00 
2.0000000e+01 8.0000000e+00 0.0000000e+00 
2.0000000e+01 9.0000000e+00 0.0000000e+00 
2.0000000e+01 5.0000000e-01 0.0000000e+00 
2.0000000e+01 1.5000000e+00 0.0000000e+00 
2.0000000e+01 2.5000000e+00 0.0000000e+00 
2.0000000e+01 3.5000000e+00 0.0000000e+00 
2.0000000e+01 4.5000000e+00 0.0000000e+00 
2.0000000e+01 5.5000000e+00 0.0000000e+00 
2.0000000e+01 6.5000000e+00 0.0000000e+00 
2.0000000e+01 7.5000000e+00 0.0000000e+00 
2.0000000e+01 8.5000000e+00 0.0000000e+00 
2.0000000e+01 9.5000000e+00 0.0000000e+00 
0.0000000e+00 9.0000000e+00 0.0000000e+00 
0.0000000e+00 8.0000000e+00 0.0000000e+00 
0.0000000e+00 7.0000000e+00 0.0000000e+00 
0.0000000e+00 6.0000000e+00 0.0000000e+00 
0.0000000e+00 5.0000000e+00 0.0000000e+00 
0.0000000e+00 4.0000000e+00 0.0000000e+00 
0.0000000e+00 3.0000000e+00 0.0000000e+00 
0.0000000e+00 2.0000000e+00 0.0000000e+00 
0.0000000e+00 1.0000000e+00 0.0000000e+00 
0.0000000e+00 9.5000000e+00 0.0000000e+00 
0.0000000e+00 8.5000000e+00 0.0000000e+00 
0.0000000e+00 7.5000000e+00 0.0000000e+00 
0.0000000e+00 6.5000000e+00 0.0000000e+00 
0.0000000e+00 5.5000000e+00 0.0000000e+00 
0.0000000e+00 4.5000000e+00 0.0000000e+00 
0.0000000e+00 3.5000000e+00 0.0000000e+00 
0.0000000e+00 2.5000000e+00 0.0000000e+00 
0.0000000e+00 1.5000000e+00 0.0000000e+00 
0.0000000e+00 5.0000000e-01 0.0000000e+00 
0.0000000e+00 0.0000000e+00 5.0000000e-01 
2.0000000e+01 0.0000000e+00 5.0000000e-01 
1.0000000e+00 0.0000000e+00 1.0000000e+00 
2.0000000e+00 0.0000000e+00 1.0000000e+00 
3.0000000e+00 0.0000000e+00 1.0000000e+00 
4.0000000e+00 0.0000000e+00 1.0000000e+00 
5.0000000e+00 0.0000000e+00 1.0000000e+00 
6.0000000e+00 0.0000000e+00 1.0000000e+00 
7.0000000e+00 0.0000000e+00 1.0000000e+00 
8.0000000e+00 0.0000000e+00 1.0000000e+00 
9.0000000e+00 0.0000000e+00 1.0000000e+00 
1.0000000e+01 0.0000000e+00 1.0000000e+00 
1.1000000e+01 0.0000000e+00 1.0000000e+00 
1.2000000e+01 0.0000000e+00 1.0000000e+00 
1.3000000e+01 0.0000000e+00 1.0000000e+00 
1.4000000e+01 0.0000000e+00 1.0000000e+00 
1.5000000e+01 0.0000000e+00 1.0000000e+00 
1.6000000e+01 0.0000000e+00 1.0000000e+00 
1.7000000e+01 0.0000000e+00 1.0000000e+00 
1.8000000e+01 0.0000000e+00 1.0000000e+00 
1.9000000e+01 0.0000000e+00 1.0000000e+00 
5.0000000e-01 0.0000000e+00 1.0000000e+00 
1.5000000e+00 0.0000000e+00 1.0000000e+00 
2.5000000e+00 0.0000000e+00 1.0000000e+00 
3.5000000e+00 0.0000000e+00 1.0000000e+00 
4.5000000e+00 0.0000000e+00 1.0000000e+00 
5.5000000e+00 0.0000000e+00 1.0000000e+00 
6.5000000e+00 0.0000000e+00 1.0000000e+00 
7.5000000e+00 0.0000000e+00 1.0000000e+00 
8.5000000e+00 0.0000000e+00 1.0000000e+00 
9.5000000e+00 0.0000000e+00 1.0000000e+00 
1.0500000e+01 0.0000000e+00 1.0000000e+00 
1.1500000e+01 0.0000000e+00 1.0000000e+00 
1.2500000e+01 0.0000000e+00 1.0000000e+00 
1.3500000e+01 0.0000000e+00 1.0000000e+00 
1.4500000e+01 0.0000000e+00 1.0000000e+00 
1.5500000e+01 0.0000000e+00 1.0000000e+00 
1.6500000e+01 0.0000000e+00 1.0000000e+00 
1.7500000e+01 0.0000000e+00 1.0000000e+00 
1.8500000e+01 0.0000000e+00 1.0000000e+00 
1.9500000e+01 0.0000000e+00 1.0000000e+00 
2.0000000e+01 1.0000000e+01 5.0000000e-01 
2.0000000e+01 1.0000000e+00 1.0000000e+00 
2.0000000e+01 2.0000000e+00 1.0000000e+00 
2.0000000e+01 3.0000000e+00 1.0000000e+00 
2.0000000e+01 4.0000000e+00 1.0000000e+00 
2.0000000e+01 5.0000000e+00 1.0000000e+00 
2.0000000e+01 6.0000000e+00 1.0000000e+00 
2.0000000e+01 7.0000000e+00 1.0000000e+00 
2.0000000e+01 8.0000000e+00 1.0000000e+00 
2.0000000e+01 9.0000000e+00 1.0000000e+00 
2.0000000e+01 5.0000000e-01 1.0000000e+00 
2.0000000e+01 1.5000000e+00 1.0000000e+00 
2.0000000e+01 2.5000000e+00 1.0000000e+00 
2.0000000e+01 3.5000000e+00 1.0000000e+00 
2.0000000e+01 4.5000000e+00 1.0000000e+00 
2.0000000e+01 5.5000000e+00 1.0000000e+00 
2.0000000e+01 6.5000000e+00 1.0000000e+00 
2.0000000e+01 7.5000000e+00 1.0000000e+00 
2.0000000e+01 8.5000000e+00 1.0000000e+00 
2.0000000e+01 9.5000000e+00 1.0000000e+00 
0.0000000e+00 1.0000000e+01 5.0000000e-01 
0.0000000e+00 9.0000000e+00 1.0000000e+00 
0.0000000e+00 8.0000000e+00 1.0000000e+00 
0.0000000e+00 7.0000000e+00 1.0000000e+00 
0.0000000e+00 6.0000000e+00 1.0000000e+00 
0.0000000e+00 5.0000000e+00 1.0000000e+00 
0.0000000e+00 4.0000000e+00 1.0000000e+00 
0.0000000e+00 3.0000000e+00 1.0000000e+00 
0.0000000e+00 2.0000000e+00 1.0000000e+00 
0.0000000e+00 1.0000000e+00 1.0000000e+00 
0.0000000e+00 9.5000000e+00 1.0000000e+00 
0.0000000e+00 8.5000000e+00 1.0000000e+00 
0.0000000e+00 7.5000000e+00 1.0000000e+00 
0.0000000e+00 6.5000000e+00 1.0000000e+00 
0.0000000e+00 5.5000000e+00 1.0000000e+00 
0.0000000e+00 4.5000000e+00 1.0000000e+00 
0.0000000e+00 3.5000000e+00 1.0000000e+00 
0.0000000e+00 2.5000000e+00 1.0000000e+00 
0.0000000e+00 1.5000000e+00 1.0000000e+00 
0.0000000e+00 5.0000000e-01 1.0000000e+00 
5.0000000e-01 1.0000000e+01 0.0000000e+00 
1.0000000e+00 1.0000000e+01 5.0000000e-01 
5.0000000e-01 1.0000000e+01 1.0000000e+00 
1.9000000e+01 1.0000000e+01 1.0000000e+00 
1.8000000e+01 1.0000000e+01 1.0000000e+00 
1.7000000e+01 1.0000000e+01 1.0000000e+00 
1.6000000e+01 1.0000000e+01 1.0000000e+00 
1.5000000e+01 1.0000000e+01 1.0000000e+00 
1.4000000e+01 1.0000000e+01 1.0000000e+00 
1.3000000e+01 1.0000000e+01 1.0000000e+00 
1.2000000e+01 1.0000000e+01 1.0000000e+00 
1.1000000e+01 1.0000000e+01 1.0000000e+00 
1.0000000e+01 1.0000000e+01 1.0000000e+00 
9.0000000e+00 1.0000000e+01 1.0000000e+00 
8.0000000e+00 1.0000000e+01 1.0000000e+00 
7.0000000e+00 1.0000000e+01 1.0000000e+00 
6.0000000e+00 1.0000000e+01 1.0000000e+00 
5.0000000e+00 1.0000000e+01 1.0000000e+00 
4.0000000e+00 1.0000000e+01 1.0000000e+00 
3.0000000e+00 1.0000000e+01 1.0000000e+00 
2.0000000e+00 1.0000000e+01 1.0000000e+00 
1.9500000e+01 1.0000000e+01 1.0000000e+00 
1.8500000e+01 1.0000000e+01 1.0000000e+00 
1.7500000e+01 1.0000000e+01 1.0000000e+00 
1.6500000e+01 1.0000000e+01 1.0000000e+00 
1.5500000e+01 1.0000000e+01 1.0000000e+00 
1.4500000e+01 1.0000000e+01 1.0000000e+00 
1.3500000e+01 1.0000000e+01 1.0000000e+00 
1.2500000e+01 1.0000000e+01 1.0000000e+00 
1.1500000e+01 1.0000000e+01 1.0000000e+00 
1.0500000e+01 1.0000000e+01 1.0000000e+00 
9.5000000e+00 1.0000000e+01 1.0000000e+00 
8.5000000e+00 1.0000000e+01 1.0000000e+00 
7.5000000e+00 1.0000000e+01 1.0000000e+00 
6.5000000e+00 1.0000000e+01 1.0000000e+00 
5.5000000e+00 1.0000000e+01 1.0000000e+00 
4.5000000e+00 1.0000000e+01 1.0000000e+00 
3.5000000e+00 1.0000000e+01 1.0000000e+00 
2.5000000e+00 1.0000000e+01 1.0000000e+00 
1.5000000e+00 1.0000000e+01 1.0000000e+00 
6.0000000e+00 1.0000000e+01 0.0000000e+00 
7.0000000e+00 1.0000000e+01 0.0000000e+00 
8.0000000e+00 1.0000000e+01 0.0000000e+00 
9.0000000e+00 1.0000000e+01 0.0000000e+00 
5.5000000e+00 1.0000000e+01 0.0000000e+00 
6.5000000e+00 1.0000000e+01 0.0000000e+00 
7.5000000e+00 1.0000000e+01 0.0000000e+00 
8.5000000e+00 1.0000000e+01 0.0000000e+00 
9.5000000e+00 1.0000000e+01 0.0000000e+00 
1.1000000e+01 1.0000000e+01 0.0000000e+00 
1.2000000e+01 1.0000000e+01 0.0000000e+00 
1.3000000e+01 1.0000000e+01 0.0000000e+00 
1.4000000e+01 1.0000000e+01 0.0000000e+00 
1.0500000e+01 1.0000000e+01 0.0000000e+00 
1.1500000e+01 1.0000000e+01 0.0000000e+00 
1.2500000e+01 1.0000000e+01 0.0000000e+00 
1.3500000e+01 1.0000000e+01 0.0000000e+00 
1.4500000e+01 1.0000000e+01 0.0000000e+00 
1.9000000e+01 1.0000000e+01 0.0000000e+00 
[...]
POINT_DATA 3543
FIELD FieldData 1
VELOCITY 3 3543  float
0.0000000e+00 0.0000000e+00 0.0000000e+00 
0.0000000e+00 0.0000000e+00 0.0000000e+00 
0.0000000e+00 3.4310959e-02 0.0000000e+00 
0.0000000e+00 -1.4733723e-01 0.0000000e+00 
0.0000000e+00 0.0000000e+00 0.0000000e+00 
0.0000000e+00 0.0000000e+00 0.0000000e+00 
0.0000000e+00 4.6825107e-02 0.0000000e+00 
0.0000000e+00 -2.2396231e-01 0.0000000e+00 
-1.4819410e-02 -1.7779827e-01 0.0000000e+00 
-1.2513437e-02 -2.3567238e-01 0.0000000e+00 
5.7792958e-02 -2.9806495e-01 0.0000000e+00 
-8.2107288e-01 -4.6409240e-01 0.0000000e+00 
5.2940217e-03 -8.5611358e-02 0.0000000e+00 
0.0000000e+00 0.0000000e+00 0.0000000e+00 
0.0000000e+00 0.0000000e+00 0.0000000e+00 
0.0000000e+00 0.0000000e+00 0.0000000e+00 
0.0000000e+00 0.0000000e+00 0.0000000e+00 
0.0000000e+00 0.0000000e+00 0.0000000e+00 
0.0000000e+00 0.0000000e+00 0.0000000e+00 
0.0000000e+00 0.0000000e+00 0.0000000e+00 
0.0000000e+00 0.0000000e+00 0.0000000e+00 
0.0000000e+00 0.0000000e+00 0.0000000e+00 
0.0000000e+00 0.0000000e+00 0.0000000e+00 
0.0000000e+00 0.0000000e+00 0.0000000e+00 
0.0000000e+00 0.0000000e+00 0.0000000e+00 
0.0000000e+00 0.0000000e+00 0.0000000e+00 
0.0000000e+00 0.0000000e+00 0.0000000e+00 
0.0000000e+00 0.0000000e+00 0.0000000e+00 
0.0000000e+00 0.0000000e+00 0.0000000e+00 
0.0000000e+00 0.0000000e+00 0.0000000e+00 
0.0000000e+00 0.0000000e+00 0.0000000e+00 
0.0000000e+00 0.0000000e+00 0.0000000e+00 
0.0000000e+00 0.0000000e+00 0.0000000e+00 
0.0000000e+00 0.0000000e+00 0.0000000e+00 
0.0000000e+00 0.0000000e+00 0.0000000e+00 
0.0000000e+00 0.0000000e+00 0.0000000e+00 
0.0000000e+00 0.0000000e+00 0.0000000e+00 
0.0000000e+00 0.0000000e+00 0.0000000e+00 
0.0000000e+00 0.0000000e+00 0.0000000e+00 
0.0000000e+00 0.0000000e+00 0.0000000e+00 
0.0000000e+00 0.0000000e+00 0.0000000e+00 
0.0000000e+00 0.0000000e+00 0.0000000e+00 
0.0000000e+00 0.0000000e+00 0.0000000e+00 
0.0000000e+00 0.0000000e+00 0.0000000e+00 
0.0000000e+00 0.0000000e+00 0.0000000e+00 
0.0000000e+00 0.0000000e+00 0.0000000e+00 
0.0000000e+00 0.0000000e+00 0.0000000e+00 
0.0000000e+00 0.0000000e+00 0.0000000e+00 
0.0000000e+00 0.0000000e+00 0.0000000e+00 
0.0000000e+00 0.0000000e+00 0.0000000e+00 
0.0000000e+00 0.0000000e+00 0.0000000e+00 
0.0000000e+00 0.0000000e+00 0.0000000e+00 
0.0000000e+00 1.0501589e-03 0.0000000e+00 
0.0000000e+00 -7.3031499e-04 0.0000000e+00 
0.0000000e+00 -1.8748630e-02 0.0000000e+00 
0.0000000e+00 -3.0791708e-03 0.0000000e+00 
0.0000000e+00 -9.6882861e-03 0.0000000e+00 
0.0000000e+00 1.1200742e-02 0.0000000e+00 
0.0000000e+00 1.0099779e-02 0.0000000e+00 
0.0000000e+00 -1.7269625e-04 0.0000000e+00 
0.0000000e+00 -6.5146736e-03 0.0000000e+00 
0.0000000e+00 2.2409854e-03 0.0000000e+00 
0.0000000e+00 -5.5317348e-04 0.0000000e+00 
0.0000000e+00 -5.0016623e-03 0.0000000e+00 
0.0000000e+00 -1.2652958e-02 0.0000000e+00 
0.0000000e+00 -9.1660479e-03 0.0000000e+00 
0.0000000e+00 2.6515045e-03 0.0000000e+00 
0.0000000e+00 1.0172342e-02 0.0000000e+00 
0.0000000e+00 2.7880762e-03 0.0000000e+00 
0.0000000e+00 -7.9871994e-04 0.0000000e+00 
0.0000000e+00 8.6354651e-03 0.0000000e+00 
0.0000000e+00 -4.0122473e-01 0.0000000e+00 
0.0000000e+00 3.0456206e-01 0.0000000e+00 
0.0000000e+00 2.3655023e-01 0.0000000e+00 
0.0000000e+00 2.4487446e-01 0.0000000e+00 
0.0000000e+00 2.5992563e-01 0.0000000e+00 
0.0000000e+00 1.8851626e-01 0.0000000e+00 
0.0000000e+00 2.9690114e-01 0.0000000e+00 
0.0000000e+00 1.2855475e-01 0.0000000e+00 
0.0000000e+00 1.1561866e-01 0.0000000e+00 
0.0000000e+00 -3.2430327e-01 0.0000000e+00 
0.0000000e+00 -4.0477607e-02 0.0000000e+00 
0.0000000e+00 3.2568482e-01 0.0000000e+00 
0.0000000e+00 2.1293215e-01 0.0000000e+00 
0.0000000e+00 2.8359362e-01 0.0000000e+00 
0.0000000e+00 2.0329836e-01 0.0000000e+00 
0.0000000e+00 2.6773107e-01 0.0000000e+00 
0.0000000e+00 1.9777319e-01 0.0000000e+00 
0.0000000e+00 1.2408021e-01 0.0000000e+00 
0.0000000e+00 4.3273933e-02 0.0000000e+00 
0.0000000e+00 0.0000000e+00 0.0000000e+00 
0.0000000e+00 0.0000000e+00 0.0000000e+00 
0.0000000e+00 0.0000000e+00 0.0000000e+00 
0.0000000e+00 0.0000000e+00 0.0000000e+00 
0.0000000e+00 0.0000000e+00 0.0000000e+00 
0.0000000e+00 0.0000000e+00 0.0000000e+00 
0.0000000e+00 0.0000000e+00 0.0000000e+00 
0.0000000e+00 0.0000000e+00 0.0000000e+00 
0.0000000e+00 0.0000000e+00 0.0000000e+00 
0.0000000e+00 0.0000000e+00 0.0000000e+00 
0.0000000e+00 0.0000000e+00 0.0000000e+00 
0.0000000e+00 0.0000000e+00 0.0000000e+00 
0.0000000e+00 0.0000000e+00 0.0000000e+00 
0.0000000e+00 0.0000000e+00 0.0000000e+00 
0.0000000e+00 0.0000000e+00 0.0000000e+00 
0.0000000e+00 0.0000000e+00 0.0000000e+00 
0.0000000e+00 0.0000000e+00 0.0000000e+00 
0.0000000e+00 0.0000000e+00 0.0000000e+00 
0.0000000e+00 0.0000000e+00 0.0000000e+00 
0.0000000e+00 0.0000000e+00 0.0000000e+00 
0.0000000e+00 0.0000000e+00 0.0000000e+00 
0.0000000e+00 0.0000000e+00 0.0000000e+00 
0.0000000e+00 0.0000000e+00 0.0000000e+00 
0.0000000e+00 0.0000000e+00 0.0000000e+00 
0.0000000e+00 0.0000000e+00 0.0000000e+00 
0.0000000e+00 0.0000000e+00 0.0000000e+00 
0.0000000e+00 0.0000000e+00 0.0000000e+00 
0.0000000e+00 0.0000000e+00 0.0000000e+00 
0.0000000e+00 0.0000000e+00 0.0000000e+00 
0.0000000e+00 0.0000000e+00 0.0000000e+00 
0.0000000e+00 0.0000000e+00 0.0000000e+00 
0.0000000e+00 0.0000000e+00 0.0000000e+00 
0.0000000e+00 0.0000000e+00 0.0000000e+00 
0.0000000e+00 0.0000000e+00 0.0000000e+00 
0.0000000e+00 0.0000000e+00 0.0000000e+00 
0.0000000e+00 0.0000000e+00 0.0000000e+00 
0.0000000e+00 0.0000000e+00 0.0000000e+00 
0.0000000e+00 0.0000000e+00 0.0000000e+00 
0.0000000e+00 0.0000000e+00 0.0000000e+00 
0.0000000e+00 0.0000000e+00 0.0000000e+00 
0.0000000e+00 0.0000000e+00 0.0000000e+00 
0.0000000e+00 2.0014748e-02 -1.0405026e-03 
0.0000000e+00 5.0650076e-03 0.0000000e+00 
0.0000000e+00 2.1961581e-02 0.0000000e+00 
0.0000000e+00 -1.3932547e-02 0.0000000e+00 
0.0000000e+00 -1.3625346e-02 0.0000000e+00 
0.0000000e+00 1.4811887e-03 0.0000000e+00 
0.0000000e+00 1.6812960e-02 0.0000000e+00 
0.0000000e+00 -3.2114267e-04 0.0000000e+00 
0.0000000e+00 1.4858386e-02 0.0000000e+00 
0.0000000e+00 1.6921351e-02 0.0000000e+00 
0.0000000e+00 -1.7091264e-03 0.0000000e+00 
0.0000000e+00 1.0003938e-02 0.0000000e+00 
0.0000000e+00 5.5200453e-03 0.0000000e+00 
0.0000000e+00 -1.4231400e-02 0.0000000e+00 
0.0000000e+00 -8.5426640e-04 0.0000000e+00 
0.0000000e+00 9.2691611e-03 0.0000000e+00 
0.0000000e+00 6.8530468e-03 0.0000000e+00 
0.0000000e+00 9.4475858e-03 0.0000000e+00 
0.0000000e+00 9.2627192e-03 0.0000000e+00 
0.0000000e+00 2.6684202e-02 0.0000000e+00 
0.0000000e+00 -2.5427455e-01 -1.1187666e-02 
0.0000000e+00 -2.7962083e-01 0.0000000e+00 
0.0000000e+00 2.6211032e-01 0.0000000e+00 
0.0000000e+00 3.5099083e-01 0.0000000e+00 
0.0000000e+00 1.4316253e-01 0.0000000e+00 
0.0000000e+00 2.4392094e-01 0.0000000e+00 
0.0000000e+00 2.1365269e-01 0.0000000e+00 
0.0000000e+00 2.3212758e-01 0.0000000e+00 
0.0000000e+00 1.9119287e-01 0.0000000e+00 
0.0000000e+00 2.2736982e-02 0.0000000e+00 
0.0000000e+00 -2.9531690e-01 0.0000000e+00 
0.0000000e+00 -2.6110085e-02 0.0000000e+00 
0.0000000e+00 3.6961356e-01 0.0000000e+00 
0.0000000e+00 2.3211342e-01 0.0000000e+00 
0.0000000e+00 1.9401990e-01 0.0000000e+00 
0.0000000e+00 2.2078550e-01 0.0000000e+00 
0.0000000e+00 2.0928483e-01 0.0000000e+00 
0.0000000e+00 2.4648605e-01 0.0000000e+00 
0.0000000e+00 1.0862520e-01 0.0000000e+00 
0.0000000e+00 -4.2941872e-04 0.0000000e+00 
1.1981189e-02 -1.9732964e-01 0.0000000e+00 
-2.6184421e-03 -2.1232465e-01 6.1680875e-03 
4.7071003e-03 -2.6041660e-01 0.0000000e+00 
4.3103170e-02 9.4364313e-03 0.0000000e+00 
1.0306166e-01 -2.7973041e-02 0.0000000e+00 
9.0991102e-02 4.6453334e-02 0.0000000e+00 
2.9138662e-02 8.3502226e-02 0.0000000e+00 
2.0637283e-02 -4.8718721e-02 0.0000000e+00 
-7.8429081e-02 2.5519380e-02 0.0000000e+00 
-9.1635227e-02 -2.4859658e-02 0.0000000e+00 
-2.2339247e-02 2.4239419e-01 0.0000000e+00 
-5.2735054e-01 5.1995158e-01 0.0000000e+00 
-8.6324090e-01 -4.9255118e-01 0.0000000e+00 
-2.7655962e-01 -9.7811264e-01 0.0000000e+00 
-2.0187099e-02 -6.4914864e-01 0.0000000e+00 
-5.7296559e-02 -4.9173975e-01 0.0000000e+00 
1.2372510e-02 -4.1646975e-01 0.0000000e+00 
5.3894281e-02 -3.1664091e-01 0.0000000e+00 
2.8009159e-02 -2.3573655e-01 0.0000000e+00 
3.5922125e-02 -2.0001402e-01 0.0000000e+00 
3.1726021e-02 -2.4940920e-01 0.0000000e+00 
-1.1118308e-02 -1.5259207e-02 0.0000000e+00 
5.0352447e-02 3.1951334e-02 0.0000000e+00 
1.3260764e-01 5.7990525e-02 0.0000000e+00 
8.5762143e-02 -5.0299051e-03 0.0000000e+00 
-2.8538067e-02 -9.9531095e-03 0.0000000e+00 
-1.2674267e-02 6.5493539e-02 0.0000000e+00 
-9.0540737e-02 -2.1553004e-02 0.0000000e+00 
-4.5094289e-02 3.4675665e-02 0.0000000e+00 
-2.0156349e-01 5.1509023e-01 0.0000000e+00 
-8.3746850e-01 1.3998526e-01 0.0000000e+00 
-5.8255619e-01 -9.0923762e-01 0.0000000e+00 
-1.1118942e-01 -8.0812252e-01 0.0000000e+00 
-2.5134830e-02 -5.6383592e-01 0.0000000e+00 
-1.7958224e-02 -4.5532814e-01 0.0000000e+00 
1.8271878e-02 -3.6161771e-01 0.0000000e+00 
4.5369785e-02 -2.7149197e-01 0.0000000e+00 
4.7225177e-02 -2.5441861e-01 0.0000000e+00 
1.3588608e-02 -2.5910705e-01 0.0000000e+00 
1.5821988e-02 -2.1325836e-01 0.0000000e+00 
-2.3800420e-02 -3.9664254e-01 0.0000000e+00 
-4.1388568e-02 -4.4096139e-01 0.0000000e+00 
4.2057014e-03 -7.0565110e-01 0.0000000e+00 
-3.1752208e-01 -9.6568996e-01 0.0000000e+00 
2.0716941e-02 -3.4760842e-01 0.0000000e+00 
-3.2605659e-02 -4.3258446e-01 0.0000000e+00 
1.4588326e-02 -5.8258206e-01 0.0000000e+00 
-1.2942836e-01 -8.1860489e-01 0.0000000e+00 
-5.8642554e-01 -8.4894574e-01 0.0000000e+00 
-5.8264339e-01 5.0214756e-01 0.0000000e+00 
-2.7765641e-02 2.7696896e-01 0.0000000e+00 
-6.2593162e-02 -2.4738139e-02 0.0000000e+00 
-7.9631075e-02 8.6060628e-02 0.0000000e+00 
-8.3645397e-01 9.0732381e-02 0.0000000e+00 
-2.1456382e-01 5.2728212e-01 0.0000000e+00 
-3.5170685e-02 2.0250000e-02 0.0000000e+00 
-8.4108070e-02 1.3804173e-02 0.0000000e+00 
-8.6982446e-03 6.1712518e-02 0.0000000e+00 
2.6741132e-02 2.9506393e-02 0.0000000e+00 
1.2054310e-01 -1.7249370e-03 0.0000000e+00 
7.8584231e-02 -2.1576647e-02 0.0000000e+00 
1.7729348e-02 1.0739285e-01 0.0000000e+00 
-5.5255210e-03 -1.1188652e-02 0.0000000e+00 
5.8352426e-02 9.8443674e-03 0.0000000e+00 
1.1057415e-01 5.8667533e-02 0.0000000e+00 
8.7845221e-02 -3.7053176e-03 0.0000000e+00 
-3.3914264e-02 -2.4267457e-02 0.0000000e+00 
1.9942913e-03 -2.6261836e-01 0.0000000e+00 
3.7072234e-02 -2.6810136e-01 0.0000000e+00 
-4.7453758e-03 -1.5992942e-01 0.0000000e+00 
1.0744806e-02 -3.2537478e-01 0.0000000e+00 
1.1763798e-02 -2.0962641e-01 0.0000000e+00 
5.2134238e-02 -2.1036448e-01 0.0000000e+00 
-1.2380217e-02 -2.2159661e-01 0.0000000e+00 
-2.9376301e-01 -8.4360331e-01 0.0000000e+00 
-5.1940087e-02 7.9914138e-02 0.0000000e+00 
-2.2828631e-02 -3.3867681e-01 0.0000000e+00 
-2.7079485e-02 -3.5782062e-02 0.0000000e+00 
-5.5919443e-03 1.0835502e-01 0.0000000e+00 
1.4767209e-01 -4.1863777e-02 0.0000000e+00 
-4.3718960e-02 2.2845687e-01 0.0000000e+00 
-1.4839477e-03 2.1875263e-03 0.0000000e+00 
-2.9452652e-01 9.1551496e-03 0.0000000e+00 
-1.4261729e-01 -5.4379064e-01 0.0000000e+00 
-2.6641762e-01 5.3265572e-01 0.0000000e+00 
7.5098157e-02 5.8440040e-03 0.0000000e+00 
-1.6178273e-02 -3.8639665e-01 0.0000000e+00 
-2.3788786e-02 8.8764727e-03 0.0000000e+00 
4.9585089e-02 -2.4605164e-02 0.0000000e+00 
5.1858760e-02 2.6685491e-01 0.0000000e+00 
1.4539564e-03 -9.5479116e-03 0.0000000e+00 
-2.5216678e-02 1.1352850e-01 0.0000000e+00 
1.7557394e-02 9.7927321e-03 0.0000000e+00 
-3.1111024e-02 2.2598983e-01 0.0000000e+00 
5.1413987e-02 5.1427394e-02 0.0000000e+00 
1.2514153e-02 1.3117625e-02 0.0000000e+00 
1.7037967e-02 -9.7666532e-03 0.0000000e+00 
-7.4211238e-03 -3.8082275e-01 0.0000000e+00 
-9.3390025e-02 -3.5525694e-01 0.0000000e+00 
-3.1374633e-02 -4.6475327e-01 0.0000000e+00 
-1.3521843e-02 -1.0088217e-01 0.0000000e+00 
-1.4651789e-01 -3.0292639e-01 0.0000000e+00 
1.3301414e-01 1.8810369e-02 0.0000000e+00 
1.1614109e-01 -2.1607831e-01 0.0000000e+00 
3.0628998e-02 -7.0003659e-02 0.0000000e+00 
6.4304046e-02 -2.3438077e-01 0.0000000e+00 
1.4722297e-01 -1.3055773e-01 0.0000000e+00 
1.2126621e-01 -2.4700810e-01 0.0000000e+00 
2.3228830e-02 -1.5316414e-02 0.0000000e+00 
1.3320808e-01 1.3448927e-01 0.0000000e+00 
-2.1375170e-01 -1.0969411e-01 0.0000000e+00 
-2.1788143e-01 -3.0188635e-03 0.0000000e+00 
-2.6782656e-01 -1.6647820e-01 0.0000000e+00 
-5.5164047e-02 8.3019905e-02 0.0000000e+00 
-1.0178351e-01 -4.7434467e-01 0.0000000e+00 
5.9661277e-02 -3.6556298e-01 0.0000000e+00 
-1.3032356e-01 -6.0980207e-01 0.0000000e+00 
1.2447597e-02 -3.7745702e-01 0.0000000e+00 
5.1675308e-03 -3.3304024e-01 0.0000000e+00 
1.0872250e-01 3.9632386e-03 0.0000000e+00 
-3.4118634e-02 2.9020149e-02 0.0000000e+00 
2.0798965e-01 3.0305853e-01 0.0000000e+00 
2.9901985e-02 2.4119499e-01 0.0000000e+00 
9.6738927e-02 2.1568219e-01 0.0000000e+00 
1.3120401e-02 1.7836337e-01 0.0000000e+00 
3.4088340e-02 6.8862207e-02 0.0000000e+00 
2.1663606e-02 1.0667762e-01 0.0000000e+00 
6.5539613e-02 9.6054256e-02 0.0000000e+00 
3.4159470e-02 1.7334880e-02 0.0000000e+00 
5.6488581e-02 3.5127912e-02 0.0000000e+00 
6.6995300e-02 3.2286443e-02 0.0000000e+00 
7.9524174e-02 9.0677008e-02 0.0000000e+00 
3.4397718e-01 3.7104231e-01 0.0000000e+00 
1.2358223e-01 -3.8576368e-02 0.0000000e+00 
1.2984443e-01 5.7030632e-04 0.0000000e+00 
-3.3906057e-02 8.5381337e-02 0.0000000e+00 
1.6450077e-01 -2.2345325e-02 0.0000000e+00 
-1.8035686e-01 8.1522383e-02 0.0000000e+00 
-3.0235565e-01 -1.7795673e-01 0.0000000e+00 
1.0744116e-01 -2.0641679e-02 0.0000000e+00 
6.8550587e-02 2.4543280e-02 0.0000000e+00 
-6.0673654e-02 1.9902124e-01 0.0000000e+00 
-3.8483992e-01 -3.4946707e-01 0.0000000e+00 
-8.8660307e-02 1.5154929e-01 0.0000000e+00 
-1.9805181e-01 -3.9686795e-02 0.0000000e+00 
1.7269452e-01 -5.2979711e-02 0.0000000e+00 
1.2146025e-01 4.7568334e-03 0.0000000e+00 
1.0245544e-01 -5.2069847e-02 0.0000000e+00 
-7.7701852e-02 2.6537295e-02 0.0000000e+00 
-1.4437921e-01 -7.7965617e-01 0.0000000e+00 
2.0958720e-01 5.0886784e-02 0.0000000e+00 
-1.0092751e-01 -6.2657249e-01 0.0000000e+00 
1.2595266e-01 4.5457925e-03 0.0000000e+00 
1.0465872e-01 -2.5064437e-02 0.0000000e+00 
1.3810623e-01 1.7535147e-01 0.0000000e+00 
3.2922786e-02 1.7967734e-01 0.0000000e+00 
-4.8235217e-01 -3.3791435e-01 0.0000000e+00 
-1.6046934e-01 8.6683139e-02 0.0000000e+00 
2.0010838e-01 -8.0622107e-02 0.0000000e+00 
6.1672483e-02 -5.3782281e-02 0.0000000e+00 
6.9234051e-02 -1.8923590e-02 0.0000000e+00 
5.2032467e-02 2.7296958e-02 0.0000000e+00 
1.1775701e-01 -4.2863870e-03 0.0000000e+00 
-2.1466278e-01 -3.8947615e-01 0.0000000e+00 
-5.4482949e-01 -3.9440876e-01 0.0000000e+00 
-2.9307327e-01 -3.4459862e-01 0.0000000e+00 
-1.4262472e-01 2.2806469e-01 0.0000000e+00 
1.5595920e-01 2.4033589e-03 0.0000000e+00 
-2.5833361e-02 1.2566149e-01 0.0000000e+00 
-4.6818221e-01 -4.5994288e-01 0.0000000e+00 
-1.5836777e-03 1.5861968e-02 0.0000000e+00 
3.0587688e-02 7.1281376e-03 0.0000000e+00 
-5.2382965e-02 1.3569584e-01 0.0000000e+00 
6.1263572e-02 1.5867366e-01 0.0000000e+00 
1.2997039e-01 3.0786574e-01 0.0000000e+00 
3.5785928e-02 3.0978087e-01 0.0000000e+00 
-2.0267559e-02 6.2890321e-02 0.0000000e+00 
7.0249893e-02 1.9830871e-01 0.0000000e+00 
5.5590756e-02 7.0624053e-02 0.0000000e+00 
1.4890476e-02 5.0036944e-03 0.0000000e+00 
-1.7642466e-02 9.8612092e-02 0.0000000e+00 
-4.3185797e-02 7.5994454e-02 0.0000000e+00 
-8.2295544e-02 -2.0769108e-02 0.0000000e+00 
-1.3011438e-01 5.7964936e-02 0.0000000e+00 
-1.9553439e-01 -8.3118558e-01 0.0000000e+00 
-1.3982452e-01 -4.1769809e-01 0.0000000e+00 
7.0294768e-02 -1.9695671e-02 0.0000000e+00 
4.4167966e-02 -2.2372117e-03 0.0000000e+00 
8.2243457e-02 -6.6465819e-03 0.0000000e+00 
2.5890458e-02 -3.0468025e-03 0.0000000e+00 
3.6866289e-02 -1.4428049e-02 0.0000000e+00 
-1.3087605e-01 -5.2572143e-01 0.0000000e+00 
8.1954122e-02 -1.6909498e-03 0.0000000e+00 
1.1456544e-01 6.1054930e-02 0.0000000e+00 
1.0914729e-01 1.5029179e-01 0.0000000e+00 
-6.5427639e-02 2.6247054e-01 0.0000000e+00 
-1.2939565e-01 3.3038059e-01 0.0000000e+00 
2.0448273e-02 3.4497757e-02 0.0000000e+00 
-1.2703452e-01 1.6989365e-01 0.0000000e+00 
-3.0406278e-01 -3.9836671e-02 0.0000000e+00 
-3.1812206e-01 8.6861983e-02 0.0000000e+00 
2.6552133e-02 -4.3244931e-04 0.0000000e+00 
-1.7554827e-02 -4.0448430e-01 0.0000000e+00 
-2.1536951e-01 -8.6537045e-01 0.0000000e+00 
-1.7772067e-01 -6.7348337e-01 0.0000000e+00 
-1.6927557e-01 3.2396248e-01 0.0000000e+00 
-2.1310675e-01 2.7417350e-01 0.0000000e+00 
9.4956018e-02 1.1548038e-02 0.0000000e+00 
1.4178330e-01 -2.7719953e-03 0.0000000e+00 
2.5611481e-01 1.8428804e-01 0.0000000e+00 
7.2318628e-02 1.9790889e-01 0.0000000e+00 
2.9777674e-02 1.7769825e-01 0.0000000e+00 
-5.4249011e-02 2.6107705e-01 0.0000000e+00 
7.9628684e-02 2.5190258e-01 0.0000000e+00 
-1.2135241e-01 1.8265435e-01 0.0000000e+00 
1.9912979e-01 1.1472408e-01 0.0000000e+00 
2.0126256e-01 -8.7769806e-02 0.0000000e+00 
-1.9488769e-02 -1.3588954e-02 0.0000000e+00 
2.2097692e-01 2.6537600e-01 0.0000000e+00 
-2.7227696e-02 1.3857140e-01 0.0000000e+00 
-1.5212567e-01 9.3840703e-02 0.0000000e+00 
-1.5475564e-02 4.7935788e-02 0.0000000e+00 
-1.1795038e-01 1.2433798e-01 0.0000000e+00 
-3.4120943e-02 1.3355584e-01 0.0000000e+00 
3.0915675e-01 1.0556292e-01 0.0000000e+00 
1.3104570e-01 6.5068960e-02 0.0000000e+00 
1.4831947e-01 4.2542432e-02 0.0000000e+00 
-4.0882956e-02 6.7662403e-02 0.0000000e+00 
5.5824633e-04 5.5398894e-03 0.0000000e+00 
-1.2531231e-02 2.0452721e-01 0.0000000e+00 
-1.3339221e-01 -6.1685592e-01 0.0000000e+00 
1.7039838e-01 -6.3105837e-02 0.0000000e+00 
1.1276542e-01 -5.8166876e-02 0.0000000e+00 
-9.5701426e-02 -1.9910621e-02 0.0000000e+00 
-7.5904690e-02 -3.8991371e-01 0.0000000e+00 
-1.5585028e-01 -1.4898215e-01 0.0000000e+00 
1.0834505e-01 8.9054503e-02 0.0000000e+00 
-7.0822030e-02 -9.2852719e-02 0.0000000e+00 
-1.3724284e-01 1.3820472e-01 0.0000000e+00 
2.1450099e-01 -1.5797675e-01 0.0000000e+00 
1.0826276e-01 -3.8144287e-01 0.0000000e+00 
-4.9763661e-02 -2.0138408e-01 0.0000000e+00 
1.5330715e-01 -3.9374986e-01 0.0000000e+00 
4.0452309e-02 1.6197832e-01 0.0000000e+00 
1.4142711e-02 1.1803929e-01 0.0000000e+00 
-4.1720271e-02 6.6092327e-02 0.0000000e+00 
1.6957253e-02 -5.6306857e-01 0.0000000e+00 
-1.7732187e-01 7.9026401e-02 0.0000000e+00 
-1.4193109e-03 -1.0060986e-01 0.0000000e+00 
1.6829576e-01 2.2336966e-01 0.0000000e+00 
-5.7207301e-02 -4.2967778e-01 0.0000000e+00 
-9.7041698e-03 -4.6243581e-01 0.0000000e+00 
-5.2983604e-02 1.1198370e-01 0.0000000e+00 
4.8537951e-04 2.3086232e-04 0.0000000e+00 
5.4930802e-02 -2.3735987e-02 0.0000000e+00 
-5.0420128e-03 -1.0448448e-02 0.0000000e+00 
-1.5341617e-01 1.8977845e-01 0.0000000e+00 
-7.8203455e-02 1.9859846e-01 0.0000000e+00 
1.6299658e-02 1.2185702e-02 0.0000000e+00 
-3.8177368e-01 -3.3788776e-01 0.0000000e+00 
-3.6909130e-01 -3.6455303e-01 0.0000000e+00 
-1.8548466e-01 -1.3068980e-01 0.0000000e+00 
-4.9643865e-01 -2.1609400e-01 0.0000000e+00 
1.2228709e-01 -3.2298709e-03 0.0000000e+00 
2.4052937e-01 -6.4697182e-03 0.0000000e+00 
4.7878758e-04 -5.9714597e-03 0.0000000e+00 
-5.6338818e-03 2.6539633e-01 0.0000000e+00 
-2.1282201e-01 1.2380122e-01 0.0000000e+00 
-3.1395754e-01 3.2022208e-02 0.0000000e+00 
3.4731230e-01 1.7156868e-01 0.0000000e+00 
3.4977853e-01 2.3435718e-01 0.0000000e+00 
2.1123934e-01 1.4285530e-01 0.0000000e+00 
1.5389889e-01 1.2469459e-01 0.0000000e+00 
1.9686857e-01 -1.1024074e-01 0.0000000e+00 
1.4533192e-01 -5.3165302e-02 0.0000000e+00 
4.5983560e-02 -2.1313341e-02 0.0000000e+00 
-4.3796864e-01 -1.8027598e-01 0.0000000e+00 
-1.9779120e-01 -1.2564357e-01 0.0000000e+00 
-3.4191307e-01 -3.9577737e-01 0.0000000e+00 
7.9505844e-03 1.7889579e-01 0.0000000e+00 
3.2161768e-03 1.7915181e-03 0.0000000e+00 
-3.9849067e-03 4.4086338e-03 0.0000000e+00 
-3.3971078e-03 -4.0899685e-01 0.0000000e+00 
7.1778740e-03 2.7892703e-02 0.0000000e+00 
2.7883518e-03 -9.4153220e-03 0.0000000e+00 