# vtk DataFile Version 4.0
vtk output
ASCII
DATASET UNSTRUCTURED_GRID
POINTS 3543 float
0.0000000e+00 0.0000000e+00 0.0000000e+00 
2.0000000e+01 0.0000000e+00 0.0000000e+00 
2.0000000e+01 1.0000000e+01 0.0000000e+00 
0.0000000e+00 1.0000000e+01 0.0000000e+00 
0.0000000e+00 0.0000000e+00 1.0000000e+00 
2.0000000e+01 0.0000000e+00 1.0000000e+00 
2.0000000e+01 1.0000000e+01 1.0000000e+00 
0.0000000e+00 1.0000000e+01 1.0000000e+00 
1.0000000e+00 1.0000000e+01 0.0000000e+00 
1.0000000e+00 1.0000000e+01 1.0000000e+00 
5.0000000e+00 1.0000000e+01 0.0000000e+00 
1.0000000e+01 1.0000000e+01 0.0000000e+00 
1.5000000e+01 1.0000000e+01 0.0000000e+00 
1.0000000e+00 0.0000000e+00 0.0000000e+00 
2.0000000e+00 0.0000000e+00 0.0000000e+00 
3.0000000e+00 0.0000000e+00 0.0000000e+00 
4.0000000e+00 0.0000000e+00 0.0000000e+00 
5.0000000e+00 0.0000000e+00 0.0000000e+00 
6.0000000e+00 0.0000000e+00 0.0000000e+00 
7.0000000e+00 0.0000000e+00 0.0000000e+00 
8.0000000e+00 0.0000000e+00 0.0000000e+00 
9.0000000e+00 0.0000000e+00 0.0000000e+00 
1.0000000e+01 0.0000000e+00 0.0000000e+00 
1.1000000e+01 0.0000000e+00 0.0000000e+00 
1.2000000e+01 0.0000000e+00 0.0000000e+00 
1.3000000e+01 0.0000000e+00 0.0000000e+00 
1.4000000e+01 0.0000000e+00 0.0000000e+00 
1.5000000e+01 0.0000000e+00 0.0000000e+00 
1.6000000e+01 0.0000000e+00 0.0000000e+00 
1.7000000e+01 0.0000000e+00 0.0000000e+00 
1.8000000e+01 0.0000000e+00 0.0000000e+00 
1.9000000e+01 0.0000000e+00 0.0000000e+00 
5.0000000e-01 0.0000000e+00 0.0000000e+00 
1.5000000e+00 0.0000000e+00 0.0000000e+00 
2.5000000e+00 0.0000000e+00 0.0000000e+00 
3.5000000e+00 0.0000000e+00 0.0000000e+00 
4.5000000e+00 0.0000000e+00 0.0000000e+00 
5.5000000e+00 0.0000000e+00 0.0000000e+00 
6.5000000e+00 0.0000000e+00 0.0000000e+00 
7.5000000e+00 0.0000000e+00 0.0000000e+00 
8.5000000e+00 0.0000000e+00 0.0000000e+00 
9.5000000e+00 0.0000000e+00 0.0000000e+00 
1.0500000e+01 0.0000000e+00 0.0000000e+00 
1.1500000e+01 0.0000000e+00 0.0000000e+00 
1.2500000e+01 0.0000000e+00 0.0000000e+00 
1.3500000e+01 0.0000000e+00 0.0000000e+00 
1.4500000e+01 0.0000000e+00 0.0000000e+00 
1.5500000e+01 0.0000000e+00 0.0000000e+00 
1.6500000e+01 0.0000000e+00 0.0000000e+00 
1.7500000e+01 0.0000000e+00 0.0000000e+00 
1.8500000e+01 0.0000000e+00 0.0000000e+00 
1.9500000e+01 0.0000000e+00 0.0000000e+00 
2.0000000e+01 1.0000000e+00 0.0000000e+00 
2.0000000e+01 2.0000000e+00 0.0000000e+00 
2.0000000e+01 3.0000000e+00 0.0000000e+00 
2.0000000e+01 4.0000000e+00 0.0000000e+00 
2.0000000e+01 5.0000000e+00 0.0000000e+00 
2.0000000e+01 6.0000000e+00 0.0000000e+00 
2.0000000e+01 7.0000000e+00 0.0000000e+00 
2.0000000e+01 8.0000000e+00 0.0000000e+00 
2.0000000e+01 9.0000000e+00 0.0000000e+00 
2.0000000e+01 5.0000000e-01 0.0000000e+00 
2.0000000e+01 1.5000000e+00 0.0000000e+00 
2.0000000e+01 2.5000000e+00 0.0000000e+00 
2.0000000e+01 3.5000000e+00 0.0000000e+00 
2.0000000e+01 4.5000000e+00 0.0000000e+00 
2.0000000e+01 5.5000000e+00 0.0000000e+00 
2.0000000e+01 6.5000000e+00 0.0000000e+00 
2.0000000e+01 7.5000000e+00 0.0000000e+00 
2.0000000e+01 8.5000000e+00 0.0000000e+00 
2.0000000e+01 9.5000000e+00 0.0000000e+00 
0.0000000e+00 9.0000000e+00 0.0000000e+00 
0.0000000e+00 8.0000000e+00 0.0000000e+00 
0.0000000e+00 7.0000000e+00 0.0000000e+00 
0.0000000e+00 6.0000000e+00 0.0000000e+00 
0.0000000e+00 5.0000000e+00 0.0000000e+00 
0.0000000e+00 4.0000000e+00 0.0000000e+00 
0.0000000e+00 3.0000000e+00 0.0000000e+00 
0.0000000e+00 2.0000000e+00 0.0000000e+00 
0.0000000e+00 1.0000000e+00 0.0000000e+00 
0.0000000e+00 9.5000000e+00 0.0000000e+00 
0.0000000e+00 8.5000000e+00 0.0000000e+00 
0.0000000e+00 7.5000000e+00 0.0000000e+00 
0.0000000e+00 6.5000000e+00 0.0000000e+00 
0.0000000e+00 5.5000000e+00 0.0000000e+00 
0.0000000e+00 4.5000000e+00 0.0000000e+00 
0.0000000e+00 3.5000000e+00 0.0000000e+00 
0.0000000e+00 2.5000000e+00 0.0000000e+00 
0.0000000e+00 1.5000000e+00 0.0000000e+00 
0.0000000e+00 5.0000000e-01 0.0000000e+00 
0.0000000e+00 0.0000000e+00 5.0000000e-01 
2.0000000e+01 0.0000000e+00 5.0000000e-01 
1.0000000e+00 0.0000000e+00 1.0000000e+00 
2.0000000e+00 0.0000000e+00 1.0000000e+00 
3.0000000e+00 0.0000000e+00 1.0000000e+00 
4.0000000e+00 0.0000000e+00 1.0000000e+00 
5.0000000e+00 0.0000000e+00 1.0000000e+00 
6.0000000e+00 0.0000000e+00 1.0000000e+00 
7.0000000e+00 0.0000000e+00 1.0000000e+00 
8.0000000e+00 0.0000000e+00 1.0000000e+00 
9.0000000e+00 0.0000000e+00 1.0000000e+00 
1.0000000e+01 0.0000000e+00 1.0000000e+00 
1.1000000e+01 0.0000000e+00 1.0000000e+00 
1.2000000e+01 0.0000000e+00 1.0000000e+00 
1.3000000e+01 0.0000000e+00 1.0000000e+00 
1.4000000e+01 0.0000000e+00 1.0000000e+00 
1.5000000e+01 0.0000000e+00 1.0000000e+00 
1.6000000e+01 0.0000000e+00 1.0000000e+00 
1.7000000e+01 0.0000000e+00 1.0000000e+00 
1.8000000e+01 0.0000000e+00 1.0000000e+00 
1.9000000e+01 0.0000000e+00 1.0000000e+00 
5.0000000e-01 0.0000000e+00 1.0000000e+00 
1.5000000e+00 0.0000000e+00 1.0000000e+00 
2.5000000e+00 0.0000000e+00 1.0000000e+00 
3.5000000e+00 0.0000000e+00 1.0000000e+00 
4.5000000e+00 0.0000000e+00 1.0000000e+00 
5.5000000e+00 0.0000000e+00 1.0000000e+00 
6.5000000e+00 0.0000000e+00 1.0000000e+00 
7.5000000e+00 0.0000000e+00 1.0000000e+00 
8.5000000e+00 0.0000000e+00 1.0000000e+00 
9.5000000e+00 0.0000000e+00 1.0000000e+00 
1.0500000e+01 0.0000000e+00 1.0000000e+00 
1.1500000e+01 0.0000000e+00 1.0000000e+00 
1.2500000e+01 0.0000000e+00 1.0000000e+00 
1.3500000e+01 0.0000000e+00 1.0000000e+00 
1.4500000e+01 0.0000000e+00 1.0000000e+00 
1.5500000e+01 0.0000000e+00 1.0000000e+00 
1.6500000e+01 0.0000000e+00 1.0000000e+00 
1.7500000e+01 0.0000000e+00 1.0000000e+00 
1.8500000e+01 0.0000000e+00 1.0000000e+00 
1.9500000e+01 0.0000000e+00 1.0000000e+00 
2.0000000e+01 1.0000000e+01 5.0000000e-01 
2.0000000e+01 1.0000000e+00 1.0000000e+00 
2.0000000e+01 2.0000000e+00 1.0000000e+00 
2.0000000e+01 3.0000000e+00 1.0000000e+00 
2.0000000e+01 4.0000000e+00 1.0000000e+00 
2.0000000e+01 5.0000000e+00 1.0000000e+00 
2.0000000e+01 6.0000000e+00 1.0000000e+00 
2.0000000e+01 7.0000000e+00 1.0000000e+00 
2.0000000e+01 8.0000000e+00 1.0000000e+00 
2.0000000e+01 9.0000000e+00 1.0000000e+00 
2.0000000e+01 5.0000000e-01 1.0000000e+00 
2.0000000e+01 1.5000000e+00 1.0000000e+00 
2.0000000e+01 2.5000000e+00 1.0000000e+00 
2.0000000e+01 3.5000000e+00 1.0000000e+00 
2.0000000e+01 4.5000000e+00 1.0000000e+00 
2.0000000e+01 5.5000000e+00 1.0000000e+00 
2.0000000e+01 6.5000000e+00 1.0000000e+00 
2.0000000e+01 7.5000000e+00 1.0000000e+00 
2.0000000e+01 8.5000000e+00 1.0000000e+00 
2.0000000e+01 9.5000000e+00 1.0000000e+00 
0.0000000e+00 1.0000000e+01 5.0000000e-01 
0.0000000e+00 9.0000000e+00 1.0000000e+00 
0.0000000e+00 8.0000000e+00 1.0000000e+00 
0.0000000e+00 7.0000000e+00 1.0000000e+00 
0.0000000e+00 6.0000000e+00 1.0000000e+00 
0.0000000e+00 5.0000000e+00 1.0000000e+00 
0.0000000e+00 4.0000000e+00 1.0000000e+00 
0.0000000e+00 3.0000000e+00 1.0000000e+00 
0.0000000e+00 2.0000000e+00 1.0000000e+00 
0.0000000e+00 1.0000000e+00 1.0000000e+00 
0.0000000e+00 9.5000000e+00 1.0000000e+00 
0.0000000e+00 8.5000000e+00 1.0000000e+00 
0.0000000e+00 7.5000000e+00 1.0000000e+00 
0.0000000e+00 6.5000000e+00 1.0000000e+00 
0.0000000e+00 5.5000000e+00 1.0000000e+00 
0.0000000e+00 4.5000000e+00 1.0000000e+00 
0.0000000e+00 3.5000000e+00 1.0000000e+00 
0.0000000e+00 2.5000000e+00 1.0000000e+00 
0.0000000e+00 1.5000000e+00 1.0000000e+00 
0.0000000e+00 5.0000000e-01 1.0000000e+00 
5.0000000e-01 1.0000000e+01 0.0000000e+00 
1.0000000e+00 1.0000000e+01 5.0000000e-01 
5.0000000e-01 1.0000000e+01 1.0000000e+00 
1.9000000e+01 1.0000000e+01 1.0000000e+00 
1.8000000e+01 1.0000000e+01 1.0000000e+00 
1.7000000e+01 1.0000000e+01 1.0000000e+00 
1.6000000e+01 1.0000000e+01 1.0000000e+00 
1.5000000e+01 1.0000000e+01 1.0000000e+00 
1.4000000e+01 1.0000000e+01 1.0000000e+00 
1.3000000e+01 1.0000000e+01 1.0000000e+00 
1.2000000e+01 1.0000000e+01 1.0000000e+00 
1.1000000e+01 1.0000000e+01 1.0000000e+00 
1.0000000e+01 1.0000000e+01 1.0000000e+00 
9.0000000e+00 1.0000000e+01 1.0000000e+00 
8.0000000e+00 1.0000000e+01 1.0000000e+00 
7.0000000e+00 1.0000000e+01 1.0000000e+00 
6.0000000e+00 1.0000000e+01 1.0000000e+00 
5.0000000e+00 1.0000000e+01 1.0000000e+00 
4.0000000e+00 1.0000000e+01 1.0000000e+00 
3.0000000e+00 1.0000000e+01 1.0000000e+00 
2.0000000e+00 1.0000000e+01 1.0000000e+00 
1.9500000e+01 1.0000000e+01 1.0000000e+00 
1.8500000e+01 1.0000000e+01 1.0000000e+00 
1.7500000e+01 1.0000000e+01 1.0000000e+00 
1.6500000e+01 1.0000000e+01 1.0000000e+00 
1.5500000e+01 1.0000000e+01 1.0000000e+00 
1.4500000e+01 1.0000000e+01 1.0000000e+00 
1.3500000e+01 1.0000000e+01 1.0000000e+00 
1.2500000e+01 1.0000000e+01 1.0000000e+00 
1.1500000e+01 1.0000000e+01 1.0000000e+00 
1.0500000e+01 1.0000000e+01 1.0000000e+00 
9.5000000e+00 1.0000000e+01 1.0000000e+00 
8.5000000e+00 1.0000000e+01 1.0000000e+00 
7.5000000e+00 1.0000000e+01 1.0000000e+00 
6.5000000e+00 1.0000000e+01 1.0000000e+00 
5.5000000e+00 1.0000000e+01 1.0000000e+00 
4.5000000e+00 1.0000000e+01 1.0000000e+00 
3.5000000e+00 1.0000000e+01 1.0000000e+00 
2.5000000e+00 1.0000000e+01 1.0000000e+00 
1.5000000e+00 1.0000000e+01 1.0000000e+00 
6.0000000e+00 1.0000000e+01 0.0000000e+00 
7.0000000e+00 1.0000000e+01 0.0000000e+00 
8.0000000e+00 1.0000000e+01 0.0000000e+00 
9.0000000e+00 1.0000000e+01 0.0000000e+00 
5.5000000e+00 1.0000000e+01 0.0000000e+00 
6.5000000e+00 1.0000000e+01 0.0000000e+00 
7.5000000e+00 1.0000000e+01 0.0000000e+00 
8.5000000e+00 1.0000000e+01 0.0000000e+00 
9.5000000e+00 1.0000000e+01 0.0000000e+00 
1.1000000e+01 1.0000000e+01 0.0000000e+00 
1.2000000e+01 1.0000000e+01 0.0000000e+00 
1.3000000e+01 1.0000000e+01 0.0000000e+00 
1.4000000e+01 1.0000000e+01 0.0000000e+00 
1.0500000e+01 1.0000000e+01 0.0000000e+00 
1.1500000e+01 1.0000000e+01 0.0000000e+00 
1.2500000e+01 1.0000000e+01 0.0000000e+00 
1.3500000e+01 1.0000000e+01 0.0000000e+00 
1.4500000e+01 1.0000000e+01 0.0000000e+00 
1.9000000e+01 1.0000000e+01 0.0000000e+00 
[...]
POINT_DATA 3543
FIELD FieldData 1
VELOCITY 3 3543  float
0.0000000e+00 0.0000000e+00 0.0000000e+00 
0.0000000e+00 0.0000000e+00 0.0000000e+00 
0.0000000e+00 -1.0151673e-03 0.0000000e+00 
0.0000000e+00 -5.9040236e-01 0.0000000e+00 
0.0000000e+00 0.0000000e+00 0.0000000e+00 
0.0000000e+00 0.0000000e+00 0.0000000e+00 
0.0000000e+00 1.1486735e-03 0.0000000e+00 
0.0000000e+00 -6.5881652e-01 0.0000000e+00 
5.4366894e-02 -6.1741966e-01 0.0000000e+00 
-8.9064784e-02 -4.8120549e-01 0.0000000e+00 
-4.8380929e-01 -1.3088108e+00 0.0000000e+00 
1.4208275e-01 -4.4799484e-02 0.0000000e+00 
3.2218716e-03 -5.2468497e-03 0.0000000e+00 
0.0000000e+00 0.0000000e+00 0.0000000e+00 
0.0000000e+00 0.0000000e+00 0.0000000e+00 
0.0000000e+00 0.0000000e+00 0.0000000e+00 
0.0000000e+00 0.0000000e+00 0.0000000e+00 
0.0000000e+00 0.0000000e+00 0.0000000e+00 
0.0000000e+00 0.0000000e+00 0.0000000e+00 
0.0000000e+00 0.0000000e+00 0.0000000e+00 
0.0000000e+00 0.0000000e+00 0.0000000e+00 
0.0000000e+00 0.0000000e+00 0.0000000e+00 
0.0000000e+00 0.0000000e+00 0.0000000e+00 
0.0000000e+00 0.0000000e+00 0.0000000e+00 
0.0000000e+00 0.0000000e+00 0.0000000e+00 
0.0000000e+00 0.0000000e+00 0.0000000e+00 
0.0000000e+00 0.0000000e+00 0.0000000e+00 
0.0000000e+00 0.0000000e+00 0.0000000e+00 
0.0000000e+00 0.0000000e+00 0.0000000e+00 
0.0000000e+00 0.0000000e+00 0.0000000e+00 
0.0000000e+00 0.0000000e+00 0.0000000e+00 
0.0000000e+00 0.0000000e+00 0.0000000e+00 
0.0000000e+00 0.0000000e+00 0.0000000e+00 
0.0000000e+00 0.0000000e+00 0.0000000e+00 
0.0000000e+00 0.0000000e+00 0.0000000e+00 
0.0000000e+00 0.0000000e+00 0.0000000e+00 
0.0000000e+00 0.0000000e+00 0.0000000e+00 
0.0000000e+00 0.0000000e+00 0.0000000e+00 
0.0000000e+00 0.0000000e+00 0.0000000e+00 
0.0000000e+00 0.0000000e+00 0.0000000e+00 
0.0000000e+00 0.0000000e+00 0.0000000e+00 
0.0000000e+00 0.0000000e+00 0.0000000e+00 
0.0000000e+00 0.0000000e+00 0.0000000e+00 
0.0000000e+00 0.0000000e+00 0.0000000e+00 
0.0000000e+00 0.0000000e+00 0.0000000e+00 
0.0000000e+00 0.0000000e+00 0.0000000e+00 
0.0000000e+00 0.0000000e+00 0.0000000e+00 
0.0000000e+00 0.0000000e+00 0.0000000e+00 
0.0000000e+00 0.0000000e+00 0.0000000e+00 
0.0000000e+00 0.0000000e+00 0.0000000e+00 
0.0000000e+00 0.0000000e+00 0.0000000e+00 
0.0000000e+00 0.0000000e+00 0.0000000e+00 
0.0000000e+00 5.3390150e-04 0.0000000e+00 
0.0000000e+00 6.7133675e-05 0.0000000e+00 
0.0000000e+00 -5.0806568e-04 0.0000000e+00 
0.0000000e+00 3.6454143e-04 0.0000000e+00 
0.0000000e+00 1.9691379e-03 0.0000000e+00 
0.0000000e+00 8.4070337e-04 0.0000000e+00 
0.0000000e+00 -8.8986482e-05 0.0000000e+00 
0.0000000e+00 -5.8835855e-04 0.0000000e+00 
0.0000000e+00 1.0302854e-04 0.0000000e+00 
0.0000000e+00 1.1466123e-03 0.0000000e+00 
0.0000000e+00 4.6931877e-04 0.0000000e+00 
0.0000000e+00 6.0370320e-04 0.0000000e+00 
0.0000000e+00 6.4795511e-04 0.0000000e+00 
0.0000000e+00 1.7255133e-03 0.0000000e+00 
0.0000000e+00 -4.5068216e-05 0.0000000e+00 
0.0000000e+00 4.2097023e-04 0.0000000e+00 
0.0000000e+00 1.1678893e-03 0.0000000e+00 
0.0000000e+00 4.6168181e-05 0.0000000e+00 
0.0000000e+00 1.0548459e-05 0.0000000e+00 
0.0000000e+00 -4.4261682e-01 0.0000000e+00 
0.0000000e+00 -5.9185809e-01 0.0000000e+00 
0.0000000e+00 -6.9897580e-01 0.0000000e+00 
0.0000000e+00 -6.3773054e-01 0.0000000e+00 
0.0000000e+00 -6.7757410e-01 0.0000000e+00 
0.0000000e+00 -9.0415162e-01 0.0000000e+00 
0.0000000e+00 -1.0012861e+00 0.0000000e+00 
0.0000000e+00 -5.2460402e-01 0.0000000e+00 
0.0000000e+00 -7.8997415e-01 0.0000000e+00 
0.0000000e+00 -4.7820702e-01 0.0000000e+00 
0.0000000e+00 -5.2748531e-01 0.0000000e+00 
0.0000000e+00 -5.5763316e-01 0.0000000e+00 
0.0000000e+00 -6.5505302e-01 0.0000000e+00 
0.0000000e+00 -6.9081163e-01 0.0000000e+00 
0.0000000e+00 -8.2518780e-01 0.0000000e+00 
0.0000000e+00 -8.6804014e-01 0.0000000e+00 
0.0000000e+00 -7.1756214e-01 0.0000000e+00 
0.0000000e+00 -7.7924627e-01 0.0000000e+00 
0.0000000e+00 -2.1968442e-01 0.0000000e+00 
0.0000000e+00 0.0000000e+00 0.0000000e+00 
0.0000000e+00 0.0000000e+00 0.0000000e+00 
0.0000000e+00 0.0000000e+00 0.0000000e+00 
0.0000000e+00 0.0000000e+00 0.0000000e+00 
0.0000000e+00 0.0000000e+00 0.0000000e+00 
0.0000000e+00 0.0000000e+00 0.0000000e+00 
0.0000000e+00 0.0000000e+00 0.0000000e+00 
0.0000000e+00 0.0000000e+00 0.0000000e+00 
0.0000000e+00 0.0000000e+00 0.0000000e+00 
0.0000000e+00 0.0000000e+00 0.0000000e+00 
0.0000000e+00 0.0000000e+00 0.0000000e+00 
0.0000000e+00 0.0000000e+00 0.0000000e+00 
0.0000000e+00 0.0000000e+00 0.0000000e+00 
0.0000000e+00 0.0000000e+00 0.0000000e+00 
0.0000000e+00 0.0000000e+00 0.0000000e+00 
0.0000000e+00 0.0000000e+00 0.0000000e+00 
0.0000000e+00 0.0000000e+00 0.0000000e+00 
0.0000000e+00 0.0000000e+00 0.0000000e+00 
0.0000000e+00 0.0000000e+00 0.0000000e+00 
0.0000000e+00 0.0000000e+00 0.0000000e+00 
0.0000000e+00 0.0000000e+00 0.0000000e+00 
0.0000000e+00 0.0000000e+00 0.0000000e+00 
0.0000000e+00 0.0000000e+00 0.0000000e+00 
0.0000000e+00 0.0000000e+00 0.0000000e+00 
0.0000000e+00 0.0000000e+00 0.0000000e+00 
0.0000000e+00 0.0000000e+00 0.0000000e+00 
0.0000000e+00 0.0000000e+00 0.0000000e+00 
0.0000000e+00 0.0000000e+00 0.0000000e+00 
0.0000000e+00 0.0000000e+00 0.0000000e+00 
0.0000000e+00 0.0000000e+00 0.0000000e+00 
0.0000000e+00 0.0000000e+00 0.0000000e+00 
0.0000000e+00 0.0000000e+00 0.0000000e+00 
0.0000000e+00 0.0000000e+00 0.0000000e+00 
0.0000000e+00 0.0000000e+00 0.0000000e+00 
0.0000000e+00 0.0000000e+00 0.0000000e+00 
0.0000000e+00 0.0000000e+00 0.0000000e+00 
0.0000000e+00 0.0000000e+00 0.0000000e+00 
0.0000000e+00 0.0000000e+00 0.0000000e+00 
0.0000000e+00 0.0000000e+00 0.0000000e+00 
0.0000000e+00 0.0000000e+00 0.0000000e+00 
0.0000000e+00 0.0000000e+00 0.0000000e+00 
0.0000000e+00 -6.3029911e-05 -9.3445828e-04 
0.0000000e+00 -4.2131574e-05 0.0000000e+00 
0.0000000e+00 -2.9541281e-04 0.0000000e+00 
0.0000000e+00 -1.2688306e-03 0.0000000e+00 
0.0000000e+00 -3.0210384e-04 0.0000000e+00 
0.0000000e+00 1.1305305e-04 0.0000000e+00 
0.0000000e+00 -1.3202530e-03 0.0000000e+00 
0.0000000e+00 -9.0971141e-04 0.0000000e+00 
0.0000000e+00 1.3209300e-03 0.0000000e+00 
0.0000000e+00 2.2059720e-04 0.0000000e+00 
0.0000000e+00 4.6280018e-04 0.0000000e+00 
0.0000000e+00 -2.3721118e-04 0.0000000e+00 
0.0000000e+00 2.9832180e-04 0.0000000e+00 
0.0000000e+00 3.3982302e-04 0.0000000e+00 
0.0000000e+00 -8.2255559e-05 0.0000000e+00 
0.0000000e+00 -7.7272305e-04 0.0000000e+00 
0.0000000e+00 -1.8747223e-03 0.0000000e+00 
0.0000000e+00 -3.5720899e-05 0.0000000e+00 
0.0000000e+00 1.2887635e-03 0.0000000e+00 
0.0000000e+00 -4.1373048e-04 0.0000000e+00 
0.0000000e+00 -4.9566010e-01 2.8298358e-02 
0.0000000e+00 -5.1548946e-01 0.0000000e+00 
0.0000000e+00 -6.3562942e-01 0.0000000e+00 
0.0000000e+00 -5.4909033e-01 0.0000000e+00 
0.0000000e+00 -6.3752103e-01 0.0000000e+00 
0.0000000e+00 -6.4117777e-01 0.0000000e+00 
0.0000000e+00 -8.1511283e-01 0.0000000e+00 
0.0000000e+00 -9.3141335e-01 0.0000000e+00 
0.0000000e+00 -6.4176363e-01 0.0000000e+00 
0.0000000e+00 -6.4452291e-01 0.0000000e+00 
0.0000000e+00 -5.9380847e-01 0.0000000e+00 
0.0000000e+00 -5.5966610e-01 0.0000000e+00 
0.0000000e+00 -5.7838476e-01 0.0000000e+00 
0.0000000e+00 -6.3023901e-01 0.0000000e+00 
0.0000000e+00 -5.8309633e-01 0.0000000e+00 
0.0000000e+00 -8.0978471e-01 0.0000000e+00 
0.0000000e+00 -9.0969306e-01 0.0000000e+00 
0.0000000e+00 -6.8108737e-01 0.0000000e+00 
0.0000000e+00 -8.3659744e-01 0.0000000e+00 
0.0000000e+00 -2.0580225e-01 0.0000000e+00 
5.3059038e-02 -5.5459905e-01 0.0000000e+00 
1.7813908e-02 -5.4650187e-01 -3.9992329e-02 
-6.4891232e-03 -4.8745319e-01 0.0000000e+00 
4.5856752e-05 3.6926748e-04 0.0000000e+00 
-1.0279145e-04 5.0280563e-05 0.0000000e+00 
1.4066376e-04 -1.5350110e-04 0.0000000e+00 
-4.0467251e-03 4.3418175e-03 0.0000000e+00 
-1.9383492e-03 -2.9954645e-03 0.0000000e+00 
2.8635643e-02 6.8112421e-03 0.0000000e+00 
-6.1383480e-03 -5.8217454e-03 0.0000000e+00 
-2.1493608e-02 1.2550490e-02 0.0000000e+00 
9.7264379e-02 9.2878699e-02 0.0000000e+00 
1.8524702e-01 -5.6424767e-02 0.0000000e+00 
-4.6231680e-02 4.3267835e-02 0.0000000e+00 
4.8376694e-02 1.1087375e-01 0.0000000e+00 
-3.6297226e-01 2.8594610e-01 0.0000000e+00 
-9.9876523e-01 -1.9832946e-01 0.0000000e+00 
-6.0981023e-01 -1.1443348e+00 0.0000000e+00 
-2.6301233e-02 -1.0830078e+00 0.0000000e+00 
8.5886672e-02 -6.4354581e-01 0.0000000e+00 
6.5686330e-02 -6.1021656e-01 0.0000000e+00 
-1.1815356e-04 1.8847453e-04 0.0000000e+00 
-8.4197719e-04 4.3945003e-04 0.0000000e+00 
-4.6901600e-04 1.9232114e-03 0.0000000e+00 
-7.2586816e-04 -1.4688161e-03 0.0000000e+00 
6.6087982e-03 2.2440611e-03 0.0000000e+00 
-7.0007000e-04 3.2333855e-03 0.0000000e+00 
-1.9015448e-02 -7.7642775e-03 0.0000000e+00 
2.0035071e-02 3.5999739e-03 0.0000000e+00 
2.2937791e-02 -9.3401624e-03 0.0000000e+00 
8.8664182e-02 1.2071686e-02 0.0000000e+00 
1.4543751e-01 1.0427637e-01 0.0000000e+00 
-1.9129358e-02 -1.1505636e-01 0.0000000e+00 
-1.3902797e-01 2.7105895e-01 0.0000000e+00 
-7.2009307e-01 2.9383555e-01 0.0000000e+00 
-8.6332333e-01 -8.5717398e-01 0.0000000e+00 
-2.7141321e-01 -1.2090796e+00 0.0000000e+00 
3.4952927e-02 -7.6518500e-01 0.0000000e+00 
6.7776732e-02 -5.4674870e-01 0.0000000e+00 
2.7897267e-02 -5.1207954e-01 0.0000000e+00 
-8.7186003e-01 -2.4145268e-01 0.0000000e+00 
-3.9203537e-01 3.4042349e-01 0.0000000e+00 
3.2057688e-02 8.2652085e-02 0.0000000e+00 
-2.0075772e-02 4.5612838e-02 0.0000000e+00 
-8.3477688e-01 -9.3903869e-01 0.0000000e+00 
-7.0563132e-01 2.3352966e-01 0.0000000e+00 
-1.1365528e-01 2.4175906e-01 0.0000000e+00 
4.0246975e-03 -1.1284927e-01 0.0000000e+00 
1.5553625e-01 1.0649639e-01 0.0000000e+00 
1.0072063e-01 8.3651610e-02 0.0000000e+00 
-9.8775551e-03 6.1014020e-03 0.0000000e+00 
-7.1175033e-03 7.0939269e-03 0.0000000e+00 
4.9383920e-03 -5.7600676e-03 0.0000000e+00 
9.8784968e-02 1.8085899e-02 0.0000000e+00 
6.6234753e-03 -1.4280422e-02 0.0000000e+00 
1.6194405e-02 8.1195924e-03 0.0000000e+00 
-6.0061035e-03 3.1104355e-04 0.0000000e+00 
-1.5946939e-03 8.9556603e-03 0.0000000e+00 
-6.0417970e-05 2.7737027e-04 0.0000000e+00 
-5.0116691e-04 2.0069999e-03 0.0000000e+00 
-1.3506227e-03 5.3059025e-04 0.0000000e+00 
2.5993912e-03 1.1841262e-04 0.0000000e+00 
1.0704544e-04 5.9094955e-04 0.0000000e+00 
-1.5815085e-04 -5.4477033e-04 0.0000000e+00 
1.1745036e-03 9.7471039e-04 0.0000000e+00 
3.5806817e-03 1.2718504e-03 0.0000000e+00 
3.0687551e-03 4.3455474e-03 0.0000000e+00 
1.4978864e-02 -9.3721706e-01 0.0000000e+00 
-1.1742546e-01 -7.4016690e-01 0.0000000e+00 
8.4707909e-04 -5.6992453e-01 0.0000000e+00 
-1.7778510e-01 -1.0915672e+00 0.0000000e+00 
2.7894069e-02 -6.8964672e-01 0.0000000e+00 
-1.0378081e-02 -5.8435822e-01 0.0000000e+00 
3.5397299e-02 -5.0590885e-01 0.0000000e+00 
1.4133924e-01 5.5646792e-02 0.0000000e+00 
4.7342206e-04 -2.9461167e-03 0.0000000e+00 
-3.4358549e-01 -8.4561282e-01 0.0000000e+00 
-3.4207772e-02 -3.9124344e-02 0.0000000e+00 
6.7301872e-03 6.5449364e-03 0.0000000e+00 
-2.2084271e-03 5.8130347e-03 0.0000000e+00 
-1.0909747e-01 -7.4793071e-01 0.0000000e+00 
-1.6239077e-03 1.4134323e-05 0.0000000e+00 
2.5686678e-01 -6.4479995e-01 0.0000000e+00 
-2.1485217e-01 2.5094068e-01 0.0000000e+00 
1.5197588e-02 -3.7509579e-02 0.0000000e+00 
-2.3133974e-03 -1.9111090e-03 0.0000000e+00 
-1.3157257e-01 -8.1908423e-01 0.0000000e+00 
1.7433465e-02 1.7757151e-02 0.0000000e+00 
-2.0094761e-03 -2.4420421e-03 0.0000000e+00 
-2.2201366e-03 -5.7408679e-01 0.0000000e+00 
-3.2129191e-04 -1.0429177e-03 0.0000000e+00 
3.7086606e-01 -7.5055379e-01 0.0000000e+00 
-1.0036362e-03 9.2531537e-04 0.0000000e+00 
1.8498705e-01 -6.3707048e-01 0.0000000e+00 
6.8688076e-03 -6.1034828e-01 0.0000000e+00 
-1.4795593e-03 1.2253717e-03 0.0000000e+00 
2.0078637e-04 -8.9581695e-04 0.0000000e+00 
-3.6178836e-01 -1.1246791e+00 0.0000000e+00 
-2.3853853e-01 -1.0895759e+00 0.0000000e+00 
-1.7486285e-01 -1.8020594e-01 0.0000000e+00 
-1.3086729e-01 -5.7018924e-01 0.0000000e+00 
6.7865606e-03 1.7875062e-01 0.0000000e+00 
1.1491300e-01 2.9377665e-02 0.0000000e+00 
1.9144922e-01 2.7799046e-01 0.0000000e+00 
3.5418636e-01 1.5048933e-01 0.0000000e+00 
2.5459647e-01 -1.1100795e-02 0.0000000e+00 
2.8064156e-01 -6.6458412e-02 0.0000000e+00 
4.2553389e-01 -4.6324011e-02 0.0000000e+00 
5.9034008e-01 -3.0823011e-02 0.0000000e+00 
-2.6793191e-01 -9.7296059e-01 0.0000000e+00 
3.7435591e-01 -2.1673776e-01 0.0000000e+00 
6.0018998e-01 -1.5188344e-01 0.0000000e+00 
3.7349087e-01 -1.8396869e-01 0.0000000e+00 
3.8461525e-02 -6.8262327e-01 0.0000000e+00 
1.7931075e-01 -2.6631991e-03 0.0000000e+00 
2.8438941e-01 1.8602163e-02 0.0000000e+00 
2.4285185e-01 4.5007166e-02 0.0000000e+00 
1.8880460e-01 -1.0899126e-01 0.0000000e+00 
2.3757306e-01 -1.3029575e-01 0.0000000e+00 
3.0286212e-02 -1.3613436e-02 0.0000000e+00 
3.0797964e-02 -3.0311111e-02 0.0000000e+00 
-6.1800466e-03 4.3423390e-03 0.0000000e+00 
-1.2382735e-02 9.5910616e-03 0.0000000e+00 
1.8372128e-02 6.2134741e-03 0.0000000e+00 
1.1801431e-02 1.6344130e-02 0.0000000e+00 
-1.0224131e-02 -2.1109300e-02 0.0000000e+00 
-1.6990998e-03 7.9269316e-03 0.0000000e+00 
-1.4087734e-03 -7.9383003e-03 0.0000000e+00 
-1.5554503e-03 1.0298971e-03 0.0000000e+00 
8.2086306e-03 -5.8348646e-04 0.0000000e+00 
-5.1641520e-03 -6.6826469e-03 0.0000000e+00 
4.5503876e-03 1.7745858e-02 0.0000000e+00 
1.0163275e-02 5.8562565e-03 0.0000000e+00 
-3.5219081e-04 5.9605245e-03 0.0000000e+00 
-3.2958190e-03 4.9979822e-03 0.0000000e+00 
-2.0124200e-03 2.0051457e-03 0.0000000e+00 
1.1049734e-03 1.4364237e-03 0.0000000e+00 
5.1364791e-01 -4.8642674e-01 0.0000000e+00 
4.2466071e-01 -2.5114062e-01 0.0000000e+00 
-1.8765867e-03 1.5625099e-03 0.0000000e+00 
1.4909032e-03 -1.5491892e-03 0.0000000e+00 
1.9450843e-02 -1.4339451e-02 0.0000000e+00 
3.2665861e-01 -3.1715742e-01 0.0000000e+00 
-3.3485898e-01 -8.4516966e-01 0.0000000e+00 
3.7779561e-01 -4.4274840e-01 0.0000000e+00 
-1.0435145e-03 7.2814687e-04 0.0000000e+00 
-6.1880943e-04 -9.9307531e-04 0.0000000e+00 
3.2768867e-03 -3.1687892e-03 0.0000000e+00 
6.0597205e-01 -3.8912791e-01 0.0000000e+00 
6.6485338e-02 3.7968151e-02 0.0000000e+00 
-2.7667364e-01 -1.0214467e+00 0.0000000e+00 
2.0138319e-01 -1.2851929e-02 0.0000000e+00 
-1.7527894e-03 -3.6295615e-03 0.0000000e+00 
1.4054548e-04 1.1881284e-03 0.0000000e+00 
-2.1557412e-01 -7.4628687e-01 0.0000000e+00 
-1.7503192e-01 -7.8863794e-01 0.0000000e+00 
3.3378246e-01 -4.2689198e-01 0.0000000e+00 
2.6206613e-01 -6.0315961e-01 0.0000000e+00 
1.5133213e-03 2.7356080e-03 0.0000000e+00 
6.9953565e-04 -4.6641133e-03 0.0000000e+00 
2.1959709e-03 1.5703634e-04 0.0000000e+00 
-2.5971569e-04 1.8165919e-03 0.0000000e+00 
-1.4335973e-03 6.6908100e-04 0.0000000e+00 
4.1584736e-01 -1.5781718e-01 0.0000000e+00 
2.6157475e-01 -2.2819355e-01 0.0000000e+00 
4.6147054e-01 -3.9494079e-01 0.0000000e+00 
2.0802745e-01 -5.7599252e-01 0.0000000e+00 
-3.9343955e-03 -7.4010799e-03 0.0000000e+00 
4.0890083e-01 -6.4109123e-01 0.0000000e+00 
3.3626944e-01 -3.8638568e-01 0.0000000e+00 
4.7786030e-04 1.6786730e-04 0.0000000e+00 
9.9174329e-04 7.7997876e-04 0.0000000e+00 
-1.6760153e-01 -8.4101248e-01 0.0000000e+00 
-1.0343681e-01 -7.5441498e-01 0.0000000e+00 
-1.3189921e-01 -6.2623703e-01 0.0000000e+00 
-5.9475061e-02 -5.4162604e-01 0.0000000e+00 
-6.0806736e-02 -6.4281207e-01 0.0000000e+00 
-1.7125033e-01 -6.6684002e-01 0.0000000e+00 
-1.1772354e-03 4.7589974e-03 0.0000000e+00 
-5.4605533e-03 1.3296292e-03 0.0000000e+00 
-2.1652125e-03 3.1852410e-03 0.0000000e+00 
4.4043013e-03 -1.0662604e-02 0.0000000e+00 
-9.2772767e-03 1.7100796e-02 0.0000000e+00 
4.4020819e-03 -6.1759022e-03 0.0000000e+00 
9.0452179e-02 7.3713325e-02 0.0000000e+00 
1.3275509e-01 -3.5648223e-02 0.0000000e+00 
-1.2263329e-03 -1.7981929e-03 0.0000000e+00 
-6.9141871e-04 -3.2136872e-04 0.0000000e+00 
-1.4779583e-03 2.8575181e-03 0.0000000e+00 
-5.8845285e-04 -7.8177569e-04 0.0000000e+00 
-9.6553541e-04 9.3251199e-04 0.0000000e+00 
-1.3527870e-01 3.4802169e-01 0.0000000e+00 
5.3704309e-04 4.6255961e-03 0.0000000e+00 
1.5973452e-03 4.5813169e-04 0.0000000e+00 
-1.0346616e-01 -8.3073580e-01 0.0000000e+00 
-4.1102641e-03 -4.2267839e-04 0.0000000e+00 
2.0654679e-03 -4.5516635e-03 0.0000000e+00 
-3.3935837e-03 -4.2030015e-03 0.0000000e+00 
-2.7532867e-04 -1.6286688e-02 0.0000000e+00 
3.7926760e-01 -3.5702994e-01 0.0000000e+00 
9.0638548e-02 1.5621493e-02 0.0000000e+00 
3.2340358e-03 3.2005820e-04 0.0000000e+00 
-3.2120949e-01 3.2007462e-01 0.0000000e+00 
1.4534722e-02 -5.4520279e-02 0.0000000e+00 
1.3929478e-02 1.7280769e-01 0.0000000e+00 
4.1865319e-02 -6.0728365e-03 0.0000000e+00 
-1.5784743e-03 1.7025620e-03 0.0000000e+00 
7.7849128e-03 9.5907617e-03 0.0000000e+00 
-1.1716827e-04 2.7303696e-03 0.0000000e+00 
1.7894279e-02 -4.1571945e-02 0.0000000e+00 
2.0109359e-02 -1.8948991e-02 0.0000000e+00 
-2.3525484e-02 -1.9849355e-03 0.0000000e+00 
2.3324970e-02 1.9567960e-03 0.0000000e+00 
-1.3876113e-02 -2.0454485e-02 0.0000000e+00 
-5.6397724e-03 -1.9816769e-02 0.0000000e+00 
1.3041687e-04 1.5371232e-02 0.0000000e+00 
6.9621042e-04 2.0539374e-03 0.0000000e+00 
-2.2357213e-04 -1.4701136e-03 0.0000000e+00 
2.8106768e-04 -1.1191779e-02 0.0000000e+00 
2.3219687e-01 -7.9356569e-01 0.0000000e+00 
3.1739035e-01 -8.9890343e-01 0.0000000e+00 
-1.5384085e-02 6.6540661e-06 0.0000000e+00 
9.2048217e-03 2.0517658e-03 0.0000000e+00 
2.9273428e-02 3.2507002e-02 0.0000000e+00 
5.0468403e-03 9.8883947e-03 0.0000000e+00 
-7.2837188e-03 -1.1332754e-02 0.0000000e+00 
-2.8249598e-03 -1.2694602e-02 0.0000000e+00 
-8.1345625e-03 -9.2441300e-03 0.0000000e+00 
-1.3406351e-03 5.5676227e-04 0.0000000e+00 
2.7041109e-02 -8.3302170e-01 0.0000000e+00 
7.8657828e-02 2.8866029e-01 0.0000000e+00 
-1.9393510e-01 -7.2555918e-01 0.0000000e+00 
5.7678210e-04 -1.2377078e-03 0.0000000e+00 
8.6935237e-02 2.5265709e-02 0.0000000e+00 
1.1474976e-01 -2.7588191e-02 0.0000000e+00 
4.1532198e-01 -4.2774835e-01 0.0000000e+00 
-5.6677796e-03 -9.6421437e-03 0.0000000e+00 
2.8076589e-03 4.4427626e-02 0.0000000e+00 
7.8306291e-03 -7.9163045e-01 0.0000000e+00 
3.2485917e-02 2.2563716e-02 0.0000000e+00 
3.3254448e-01 -5.8481447e-02 0.0000000e+00 
-2.0881908e-01 -9.1504717e-01 0.0000000e+00 
3.2290307e-01 -6.8002373e-02 0.0000000e+00 
-2.8776377e-01 -9.1228509e-01 0.0000000e+00 
6.6887466e-03 3.8561611e-03 0.0000000e+00 
8.8716596e-03 3.2847675e-03 0.0000000e+00 
2.2619700e-01 -2.2178409e-01 0.0000000e+00 
-8.5482810e-04 -7.7413018e-03 0.0000000e+00 
-2.1635343e-01 -6.9889957e-01 0.0000000e+00 
-1.3226508e-01 -9.3435645e-01 0.0000000e+00 
-1.6301336e-02 -5.9013885e-01 0.0000000e+00 
-4.6576723e-02 -5.3367800e-01 0.0000000e+00 
5.6130115e-02 -7.1663028e-01 0.0000000e+00 
4.9593305e-04 4.1523218e-04 0.0000000e+00 
1.0799471e-03 8.2538091e-04 0.0000000e+00 
-1.5567518e-03 1.1697771e-03 0.0000000e+00 
1.2637798e-01 -4.9713245e-01 0.0000000e+00 
-1.6138178e-01 -8.6887920e-01 0.0000000e+00 
-5.0243223e-04 -1.2805079e-03 0.0000000e+00 
2.0177873e-02 7.2839491e-02 0.0000000e+00 
3.8064502e-02 -1.3227734e-01 0.0000000e+00 
2.2370329e-02 -1.6554438e-02 0.0000000e+00 
8.7724522e-02 -2.0322122e-01 0.0000000e+00 
3.1901908e-03 -6.4517162e-03 0.0000000e+00 
-8.2464311e-03 -5.7289107e-03 0.0000000e+00 
-7.7068200e-04 -5.5901497e-04 0.0000000e+00 
-3.8705215e-02 -4.8786291e-01 0.0000000e+00 
2.8322607e-01 -4.4166538e-01 0.0000000e+00 
3.8446739e-01 -4.4743952e-01 0.0000000e+00 
2.4946665e-03 2.4940807e-03 0.0000000e+00 
-4.9674539e-03 -3.5955645e-02 0.0000000e+00 
-4.3299340e-05 1.7249454e-02 0.0000000e+00 
7.2911792e-03 1.9504335e-02 0.0000000e+00 
2.2851531e-03 8.9988625e-03 0.0000000e+00 
-3.2914223e-03 6.4263243e-04 0.0000000e+00 
9.5513533e-04 6.7999057e-04 0.0000000e+00 
3.4263223e-01 -6.5129530e-01 0.0000000e+00 
-3.4063809e-02 1.6405361e-02 0.0000000e+00 
2.0970050e-01 -1.9071075e-01 0.0000000e+00 
-4.9181283e-02 -6.5237105e-01 0.0000000e+00 
2.5747370e-04 3.9260846e-04 0.0000000e+00 
-2.1799115e-04 -9.1392074e-05 0.0000000e+00 
-2.1564825e-02 -5.1258779e-01 0.0000000e+00 
1.8522286e-01 -4.9321580e-01 0.0000000e+00 