# vtk DataFile Version 4.0
vtk output
ASCII
DATASET UNSTRUCTURED_GRID
POINTS 3543 float
0.0000000e+00 0.0000000e+00 0.0000000e+00 
2.0000000e+01 0.0000000e+00 0.0000000e+00 
2.0000000e+01 1.0000000e+01 0.0000000e+00 
0.0000000e+00 1.0000000e+01 0.0000000e+00 
0.0000000e+00 0.0000000e+00 1.0000000e+00 
2.0000000e+01 0.0000000e+00 1.0000000e+00 
2.0000000e+01 1.0000000e+01 1.0000000e+00 
0.0000000e+00 1.0000000e+01 1.0000000e+00 
1.0000000e+00 1.0000000e+01 0.0000000e+00 
1.0000000e+00 1.0000000e+01 1.0000000e+00 
5.0000000e+00 1.0000000e+01 0.0000000e+00 
1.0000000e+01 1.0000000e+01 0.0000000e+00 
1.5000000e+01 1.0000000e+01 0.0000000e+00 
1.0000000e+00 0.0000000e+00 0.0000000e+00 
2.0000000e+00 0.0000000e+00 0.0000000e+00 
3.0000000e+00 0.0000000e+00 0.0000000e+00 
4.0000000e+00 0.0000000e+00 0.0000000e+00 
5.0000000e+00 0.0000000e+00 0.0000000e+00 
6.0000000e+00 0.0000000e+00 0.0000000e+00 
7.0000000e+00 0.0000000e+00 0.0000000e+00 
8.0000000e+00 0.0000000e+00 0.0000000e+00 
9.0000000e+00 0.0000000e+00 0.0000000e+00 
1.0000000e+01 0.0000000e+00 0.0000000e+00 
1.1000000e+01 0.0000000e+00 0.0000000e+00 
1.2000000e+01 0.0000000e+00 0.0000000e+00 
1.3000000e+01 0.0000000e+00 0.0000000e+00 
1.4000000e+01 0.0000000e+00 0.0000000e+00 
1.5000000e+01 0.0000000e+00 0.0000000e+00 
1.6000000e+01 0.0000000e+00 0.0000000e+00 
1.7000000e+01 0.0000000e+00 0.0000000e+00 
1.8000000e+01 0.0000000e+00 0.0000000e+00 
1.9000000e+01 0.0000000e+00 0.0000000e+00 
5.0000000e-01 0.0000000e+00 0.0000000e+00 
1.5000000e+00 0.0000000e+00 0.0000000e+00 
2.5000000e+00 0.0000000e+00 0.0000000e+00 
3.5000000e+00 0.0000000e+00 0.0000000e+00 
4.5000000e+00 0.0000000e+00 0.0000000e+00 
5.5000000e+00 0.0000000e+00 0.0000000e+00 
6.5000000e+00 0.0000000e+00 0.0000000e+00 
7.5000000e+00 0.0000000e+00 0.0000000e+00 
8.5000000e+00 0.0000000e+00 0.0000000e+00 
9.5000000e+00 0.0000000e+00 0.0000000e+00 
1.0500000e+01 0.0000000e+00 0.0000000e+00 
1.1500000e+01 0.0000000e+00 0.0000000e+00 
1.2500000e+01 0.0000000e+00 0.0000000e+00 
1.3500000e+01 0.0000000e+00 0.0000000e+00 
1.4500000e+01 0.0000000e+00 0.0000000e+00 
1.5500000e+01 0.0000000e+00 0.0000000e+00 
1.6500000e+01 0.0000000e+00 0.0000000e+00 
1.7500000e+01 0.0000000e+00 0.0000000e+00 
1.8500000e+01 0.0000000e+00 0.0000000e+00 
1.9500000e+01 0.0000000e+00 0.0000000e+00 
2.0000000e+01 1.0000000e+00 0.0000000e+00 
2.0000000e+01 2.0000000e+00 0.0000000e+00 
2.0000000e+01 3.0000000e+00 0.0000000e+00 
2.0000000e+01 4.0000000e+00 0.0000000e+00 
2.0000000e+01 5.0000000e+00 0.0000000e+00 
2.0000000e+01 6.0000000e+00 0.0000000e+00 
2.0000000e+01 7.0000000e+00 0.0000000e+00 
2.0000000e+01 8.0000000e+00 0.0000000e+00 
2.0000000e+01 9.0000000e+00 0.0000000e+00 
2.0000000e+01 5.0000000e-01 0.0000000e+00 
2.0000000e+01 1.5000000e+00 0.0000000e+00 
2.0000000e+01 2.5000000e+00 0.0000000e+00 
2.0000000e+01 3.5000000e+00 0.0000000e+00 
2.0000000e+01 4.5000000e+00 0.0000000e+00 
2.0000000e+01 5.5000000e+00 0.0000000e+00 
2.0000000e+01 6.5000000e+00 0.0000000e+00 
2.0000000e+01 7.5000000e+00 0.0000000e+00 
2.0000000e+01 8.5000000e+00 0.0000000e+00 
2.0000000e+01 9.5000000e+00 0.0000000e+00 
0.0000000e+00 9.0000000e+00 0.0000000e+00 
0.0000000e+00 8.0000000e+00 0.0000000e+00 
0.0000000e+00 7.0000000e+00 0.0000000e+00 
0.0000000e+00 6.0000000e+00 0.0000000e+00 
0.0000000e+00 5.0000000e+00 0.0000000e+00 
0.0000000e+00 4.0000000e+00 0.0000000e+00 
0.0000000e+00 3.0000000e+00 0.0000000e+00 
0.0000000e+00 2.0000000e+00 0.0000000e+00 
0.0000000e+00 1.0000000e+00 0.0000000e+00 
0.0000000e+00 9.5000000e+00 0.0000000e+00 
0.0000000e+00 8.5000000e+00 0.0000000e+00 
0.0000000e+00 7.5000000e+00 0.0000000e+00 
0.0000000e+00 6.5000000e+00 0.0000000e+00 
0.0000000e+00 5.5000000e+00 0.0000000e+00 
0.0000000e+00 4.5000000e+00 0.0000000e+00 
0.0000000e+00 3.5000000e+00 0.0000000e+00 
0.0000000e+00 2.5000000e+00 0.0000000e+00 
0.0000000e+00 1.5000000e+00 0.0000000e+00 
0.0000000e+00 5.0000000e-01 0.0000000e+00 
0.0000000e+00 0.0000000e+00 5.0000000e-01 
2.0000000e+01 0.0000000e+00 5.0000000e-01 
1.0000000e+00 0.0000000e+00 1.0000000e+00 
2.0000000e+00 0.0000000e+00 1.0000000e+00 
3.0000000e+00 0.0000000e+00 1.0000000e+00 
4.0000000e+00 0.0000000e+00 1.0000000e+00 
5.0000000e+00 0.0000000e+00 1.0000000e+00 
6.0000000e+00 0.0000000e+00 1.0000000e+00 
7.0000000e+00 0.0000000e+00 1.0000000e+00 
8.0000000e+00 0.0000000e+00 1.0000000e+00 
9.0000000e+00 0.0000000e+00 1.0000000e+00 
1.0000000e+01 0.0000000e+00 1.0000000e+00 
1.1000000e+01 0.0000000e+00 1.0000000e+00 
1.2000000e+01 0.0000000e+00 1.0000000e+00 
1.3000000e+01 0.0000000e+00 1.0000000e+00 
1.4000000e+01 0.0000000e+00 1.0000000e+00 
1.5000000e+01 0.0000000e+00 1.0000000e+00 
1.6000000e+01 0.0000000e+00 1.0000000e+00 
1.7000000e+01 0.0000000e+00 1.0000000e+00 
1.8000000e+01 0.0000000e+00 1.0000000e+00 
1.9000000e+01 0.0000000e+00 1.0000000e+00 
5.0000000e-01 0.0000000e+00 1.0000000e+00 
1.5000000e+00 0.0000000e+00 1.0000000e+00 
2.5000000e+00 0.0000000e+00 1.0000000e+00 
3.5000000e+00 0.0000000e+00 1.0000000e+00 
4.5000000e+00 0.0000000e+00 1.0000000e+00 
5.5000000e+00 0.0000000e+00 1.0000000e+00 
6.5000000e+00 0.0000000e+00 1.0000000e+00 
7.5000000e+00 0.0000000e+00 1.0000000e+00 
8.5000000e+00 0.0000000e+00 1.0000000e+00 
9.5000000e+00 0.0000000e+00 1.0000000e+00 
1.0500000e+01 0.0000000e+00 1.0000000e+00 
1.1500000e+01 0.0000000e+00 1.0000000e+00 
1.2500000e+01 0.0000000e+00 1.0000000e+00 
1.3500000e+01 0.0000000e+00 1.0000000e+00 
1.4500000e+01 0.0000000e+00 1.0000000e+00 
1.5500000e+01 0.0000000e+00 1.0000000e+00 
1.6500000e+01 0.0000000e+00 1.0000000e+00 
1.7500000e+01 0.0000000e+00 1.0000000e+00 
1.8500000e+01 0.0000000e+00 1.0000000e+00 
1.9500000e+01 0.0000000e+00 1.0000000e+00 
2.0000000e+01 1.0000000e+01 5.0000000e-01 
2.0000000e+01 1.0000000e+00 1.0000000e+00 
2.0000000e+01 2.0000000e+00 1.0000000e+00 
2.0000000e+01 3.0000000e+00 1.0000000e+00 
2.0000000e+01 4.0000000e+00 1.0000000e+00 
2.0000000e+01 5.0000000e+00 1.0000000e+00 
2.0000000e+01 6.0000000e+00 1.0000000e+00 
2.0000000e+01 7.0000000e+00 1.0000000e+00 
2.0000000e+01 8.0000000e+00 1.0000000e+00 
2.0000000e+01 9.0000000e+00 1.0000000e+00 
2.0000000e+01 5.0000000e-01 1.0000000e+00 
2.0000000e+01 1.5000000e+00 1.0000000e+00 
2.0000000e+01 2.5000000e+00 1.0000000e+00 
2.0000000e+01 3.5000000e+00 1.0000000e+00 
2.0000000e+01 4.5000000e+00 1.0000000e+00 
2.0000000e+01 5.5000000e+00 1.0000000e+00 
2.0000000e+01 6.5000000e+00 1.0000000e+00 
2.0000000e+01 7.5000000e+00 1.0000000e+00 
2.0000000e+01 8.5000000e+00 1.0000000e+00 
2.0000000e+01 9.5000000e+00 1.0000000e+00 
0.0000000e+00 1.0000000e+01 5.0000000e-01 
0.0000000e+00 9.0000000e+00 1.0000000e+00 
0.0000000e+00 8.0000000e+00 1.0000000e+00 
0.0000000e+00 7.0000000e+00 1.0000000e+00 
0.0000000e+00 6.0000000e+00 1.0000000e+00 
0.0000000e+00 5.0000000e+00 1.0000000e+00 
0.0000000e+00 4.0000000e+00 1.0000000e+00 
0.0000000e+00 3.0000000e+00 1.0000000e+00 
0.0000000e+00 2.0000000e+00 1.0000000e+00 
0.0000000e+00 1.0000000e+00 1.0000000e+00 
0.0000000e+00 9.5000000e+00 1.0000000e+00 
0.0000000e+00 8.5000000e+00 1.0000000e+00 
0.0000000e+00 7.5000000e+00 1.0000000e+00 
0.0000000e+00 6.5000000e+00 1.0000000e+00 
0.0000000e+00 5.5000000e+00 1.0000000e+00 
0.0000000e+00 4.5000000e+00 1.0000000e+00 
0.0000000e+00 3.5000000e+00 1.0000000e+00 
0.0000000e+00 2.5000000e+00 1.0000000e+00 
0.0000000e+00 1.5000000e+00 1.0000000e+00 
0.0000000e+00 5.0000000e-01 1.0000000e+00 
5.0000000e-01 1.0000000e+01 0.0000000e+00 
1.0000000e+00 1.0000000e+01 5.0000000e-01 
5.0000000e-01 1.0000000e+01 1.0000000e+00 
1.9000000e+01 1.0000000e+01 1.0000000e+00 
1.8000000e+01 1.0000000e+01 1.0000000e+00 
1.7000000e+01 1.0000000e+01 1.0000000e+00 
1.6000000e+01 1.0000000e+01 1.0000000e+00 
1.5000000e+01 1.0000000e+01 1.0000000e+00 
1.4000000e+01 1.0000000e+01 1.0000000e+00 
1.3000000e+01 1.0000000e+01 1.0000000e+00 
1.2000000e+01 1.0000000e+01 1.0000000e+00 
1.1000000e+01 1.0000000e+01 1.0000000e+00 
1.0000000e+01 1.0000000e+01 1.0000000e+00 
9.0000000e+00 1.0000000e+01 1.0000000e+00 
8.0000000e+00 1.0000000e+01 1.0000000e+00 
7.0000000e+00 1.0000000e+01 1.0000000e+00 
6.0000000e+00 1.0000000e+01 1.0000000e+00 
5.0000000e+00 1.0000000e+01 1.0000000e+00 
4.0000000e+00 1.0000000e+01 1.0000000e+00 
3.0000000e+00 1.0000000e+01 1.0000000e+00 
2.0000000e+00 1.0000000e+01 1.0000000e+00 
1.9500000e+01 1.0000000e+01 1.0000000e+00 
1.8500000e+01 1.0000000e+01 1.0000000e+00 
1.7500000e+01 1.0000000e+01 1.0000000e+00 
1.6500000e+01 1.0000000e+01 1.0000000e+00 
1.5500000e+01 1.0000000e+01 1.0000000e+00 
1.4500000e+01 1.0000000e+01 1.0000000e+00 
1.3500000e+01 1.0000000e+01 1.0000000e+00 
1.2500000e+01 1.0000000e+01 1.0000000e+00 
1.1500000e+01 1.0000000e+01 1.0000000e+00 
1.0500000e+01 1.0000000e+01 1.0000000e+00 
9.5000000e+00 1.0000000e+01 1.0000000e+00 
8.5000000e+00 1.0000000e+01 1.0000000e+00 
7.5000000e+00 1.0000000e+01 1.0000000e+00 
6.5000000e+00 1.0000000e+01 1.0000000e+00 
5.5000000e+00 1.0000000e+01 1.0000000e+00 
4.5000000e+00 1.0000000e+01 1.0000000e+00 
3.5000000e+00 1.0000000e+01 1.0000000e+00 
2.5000000e+00 1.0000000e+01 1.0000000e+00 
1.5000000e+00 1.0000000e+01 1.0000000e+00 
6.0000000e+00 1.0000000e+01 0.0000000e+00 
7.0000000e+00 1.0000000e+01 0.0000000e+00 
8.0000000e+00 1.0000000e+01 0.0000000e+00 
9.0000000e+00 1.0000000e+01 0.0000000e+00 
5.5000000e+00 1.0000000e+01 0.0000000e+00 
6.5000000e+00 1.0000000e+01 0.0000000e+00 
7.5000000e+00 1.0000000e+01 0.0000000e+00 
8.5000000e+00 1.0000000e+01 0.0000000e+00 
9.5000000e+00 1.0000000e+01 0.0000000e+00 
1.1000000e+01 1.0000000e+01 0.0000000e+00 
1.2000000e+01 1.0000000e+01 0.0000000e+00 
1.3000000e+01 1.0000000e+01 0.0000000e+00 
1.4000000e+01 1.0000000e+01 0.0000000e+00 
1.0500000e+01 1.0000000e+01 0.0000000e+00 
1.1500000e+01 1.0000000e+01 0.0000000e+00 
1.2500000e+01 1.0000000e+01 0.0000000e+00 
1.3500000e+01 1.0000000e+01 0.0000000e+00 
1.4500000e+01 1.0000000e+01 0.0000000e+00 
1.9000000e+01 1.0000000e+01 0.0000000e+00 
[...]
POINT_DATA 3543
FIELD FieldData 1
VELOCITY 3 3543  float
0.0000000e+00 0.0000000e+00 0.0000000e+00 
0.0000000e+00 0.0000000e+00 0.0000000e+00 
0.0000000e+00 -1.0514100e-04 0.0000000e+00 
0.0000000e+00 -5.9404641e-01 0.0000000e+00 
0.0000000e+00 0.0000000e+00 0.0000000e+00 
0.0000000e+00 0.0000000e+00 0.0000000e+00 
0.0000000e+00 1.0369004e-04 0.0000000e+00 
0.0000000e+00 -3.5881844e-01 0.0000000e+00 
3.1064871e-01 -1.0912161e+00 0.0000000e+00 
-9.5777020e-02 -1.3546578e+00 0.0000000e+00 
3.3062753e-01 -2.6206040e-01 0.0000000e+00 
1.1030123e-02 -2.5299229e-02 0.0000000e+00 
-4.5243542e-05 -3.5698767e-04 0.0000000e+00 
0.0000000e+00 0.0000000e+00 0.0000000e+00 
0.0000000e+00 0.0000000e+00 0.0000000e+00 
0.0000000e+00 0.0000000e+00 0.0000000e+00 
0.0000000e+00 0.0000000e+00 0.0000000e+00 
0.0000000e+00 0.0000000e+00 0.0000000e+00 
0.0000000e+00 0.0000000e+00 0.0000000e+00 
0.0000000e+00 0.0000000e+00 0.0000000e+00 
0.0000000e+00 0.0000000e+00 0.0000000e+00 
0.0000000e+00 0.0000000e+00 0.0000000e+00 
0.0000000e+00 0.0000000e+00 0.0000000e+00 
0.0000000e+00 0.0000000e+00 0.0000000e+00 
0.0000000e+00 0.0000000e+00 0.0000000e+00 
0.0000000e+00 0.0000000e+00 0.0000000e+00 
0.0000000e+00 0.0000000e+00 0.0000000e+00 
0.0000000e+00 0.0000000e+00 0.0000000e+00 
0.0000000e+00 0.0000000e+00 0.0000000e+00 
0.0000000e+00 0.0000000e+00 0.0000000e+00 
0.0000000e+00 0.0000000e+00 0.0000000e+00 
0.0000000e+00 0.0000000e+00 0.0000000e+00 
0.0000000e+00 0.0000000e+00 0.0000000e+00 
0.0000000e+00 0.0000000e+00 0.0000000e+00 
0.0000000e+00 0.0000000e+00 0.0000000e+00 
0.0000000e+00 0.0000000e+00 0.0000000e+00 
0.0000000e+00 0.0000000e+00 0.0000000e+00 
0.0000000e+00 0.0000000e+00 0.0000000e+00 
0.0000000e+00 0.0000000e+00 0.0000000e+00 
0.0000000e+00 0.0000000e+00 0.0000000e+00 
0.0000000e+00 0.0000000e+00 0.0000000e+00 
0.0000000e+00 0.0000000e+00 0.0000000e+00 
0.0000000e+00 0.0000000e+00 0.0000000e+00 
0.0000000e+00 0.0000000e+00 0.0000000e+00 
0.0000000e+00 0.0000000e+00 0.0000000e+00 
0.0000000e+00 0.0000000e+00 0.0000000e+00 
0.0000000e+00 0.0000000e+00 0.0000000e+00 
0.0000000e+00 0.0000000e+00 0.0000000e+00 
0.0000000e+00 0.0000000e+00 0.0000000e+00 
0.0000000e+00 0.0000000e+00 0.0000000e+00 
0.0000000e+00 0.0000000e+00 0.0000000e+00 
0.0000000e+00 0.0000000e+00 0.0000000e+00 
0.0000000e+00 -1.9062947e-05 0.0000000e+00 
0.0000000e+00 -4.7565747e-05 0.0000000e+00 
0.0000000e+00 -1.6792024e-04 0.0000000e+00 
0.0000000e+00 -1.0094492e-04 0.0000000e+00 
0.0000000e+00 -1.9701009e-04 0.0000000e+00 
0.0000000e+00 -3.8307749e-06 0.0000000e+00 
0.0000000e+00 -1.4093007e-04 0.0000000e+00 
0.0000000e+00 -3.9489012e-05 0.0000000e+00 
0.0000000e+00 -7.3306612e-05 0.0000000e+00 
0.0000000e+00 -2.9064329e-05 0.0000000e+00 
0.0000000e+00 -1.9129742e-05 0.0000000e+00 
0.0000000e+00 7.4649761e-05 0.0000000e+00 
0.0000000e+00 7.3541327e-05 0.0000000e+00 
0.0000000e+00 -5.0601306e-05 0.0000000e+00 
0.0000000e+00 -3.9240730e-04 0.0000000e+00 
0.0000000e+00 -9.0594287e-05 0.0000000e+00 
0.0000000e+00 -1.8149092e-04 0.0000000e+00 
0.0000000e+00 -3.7016864e-05 0.0000000e+00 
0.0000000e+00 2.0108648e-04 0.0000000e+00 
0.0000000e+00 -1.4065677e+00 0.0000000e+00 
0.0000000e+00 -1.3221468e+00 0.0000000e+00 
0.0000000e+00 -1.2950368e+00 0.0000000e+00 
0.0000000e+00 -1.4115186e+00 0.0000000e+00 
0.0000000e+00 -1.5178769e+00 0.0000000e+00 
0.0000000e+00 2.2962473e-01 0.0000000e+00 
0.0000000e+00 -2.2450384e-01 0.0000000e+00 
0.0000000e+00 -7.3108315e-02 0.0000000e+00 
0.0000000e+00 4.8432358e-02 0.0000000e+00 
0.0000000e+00 -8.3633929e-01 0.0000000e+00 
0.0000000e+00 -1.3353722e+00 0.0000000e+00 
0.0000000e+00 -1.3286958e+00 0.0000000e+00 
0.0000000e+00 -1.5484501e+00 0.0000000e+00 
0.0000000e+00 -1.4635679e+00 0.0000000e+00 
0.0000000e+00 -7.3627943e-01 0.0000000e+00 
0.0000000e+00 1.6499631e-01 0.0000000e+00 
0.0000000e+00 1.6315401e-01 0.0000000e+00 
0.0000000e+00 -4.5828406e-02 0.0000000e+00 
0.0000000e+00 -4.4773821e-02 0.0000000e+00 
0.0000000e+00 0.0000000e+00 0.0000000e+00 
0.0000000e+00 0.0000000e+00 0.0000000e+00 
0.0000000e+00 0.0000000e+00 0.0000000e+00 
0.0000000e+00 0.0000000e+00 0.0000000e+00 
0.0000000e+00 0.0000000e+00 0.0000000e+00 
0.0000000e+00 0.0000000e+00 0.0000000e+00 
0.0000000e+00 0.0000000e+00 0.0000000e+00 
0.0000000e+00 0.0000000e+00 0.0000000e+00 
0.0000000e+00 0.0000000e+00 0.0000000e+00 
0.0000000e+00 0.0000000e+00 0.0000000e+00 
0.0000000e+00 0.0000000e+00 0.0000000e+00 
0.0000000e+00 0.0000000e+00 0.0000000e+00 
0.0000000e+00 0.0000000e+00 0.0000000e+00 
0.0000000e+00 0.0000000e+00 0.0000000e+00 
0.0000000e+00 0.0000000e+00 0.0000000e+00 
0.0000000e+00 0.0000000e+00 0.0000000e+00 
0.0000000e+00 0.0000000e+00 0.0000000e+00 
0.0000000e+00 0.0000000e+00 0.0000000e+00 
0.0000000e+00 0.0000000e+00 0.0000000e+00 
0.0000000e+00 0.0000000e+00 0.0000000e+00 
0.0000000e+00 0.0000000e+00 0.0000000e+00 
0.0000000e+00 0.0000000e+00 0.0000000e+00 
0.0000000e+00 0.0000000e+00 0.0000000e+00 
0.0000000e+00 0.0000000e+00 0.0000000e+00 
0.0000000e+00 0.0000000e+00 0.0000000e+00 
0.0000000e+00 0.0000000e+00 0.0000000e+00 
0.0000000e+00 0.0000000e+00 0.0000000e+00 
0.0000000e+00 0.0000000e+00 0.0000000e+00 
0.0000000e+00 0.0000000e+00 0.0000000e+00 
0.0000000e+00 0.0000000e+00 0.0000000e+00 
0.0000000e+00 0.0000000e+00 0.0000000e+00 
0.0000000e+00 0.0000000e+00 0.0000000e+00 
0.0000000e+00 0.0000000e+00 0.0000000e+00 
0.0000000e+00 0.0000000e+00 0.0000000e+00 
0.0000000e+00 0.0000000e+00 0.0000000e+00 
0.0000000e+00 0.0000000e+00 0.0000000e+00 
0.0000000e+00 0.0000000e+00 0.0000000e+00 
0.0000000e+00 0.0000000e+00 0.0000000e+00 
0.0000000e+00 0.0000000e+00 0.0000000e+00 
0.0000000e+00 0.0000000e+00 0.0000000e+00 
0.0000000e+00 0.0000000e+00 0.0000000e+00 
0.0000000e+00 8.6807864e-05 -4.5739798e-05 
0.0000000e+00 -1.4937560e-04 0.0000000e+00 
0.0000000e+00 -8.4247979e-05 0.0000000e+00 
0.0000000e+00 -8.8658577e-05 0.0000000e+00 
0.0000000e+00 -5.3074462e-05 0.0000000e+00 
0.0000000e+00 -2.9540388e-05 0.0000000e+00 
0.0000000e+00 -4.7881549e-05 0.0000000e+00 
0.0000000e+00 -1.1430688e-04 0.0000000e+00 
0.0000000e+00 -4.7606663e-05 0.0000000e+00 
0.0000000e+00 -7.7459779e-05 0.0000000e+00 
0.0000000e+00 -9.1330359e-05 0.0000000e+00 
0.0000000e+00 1.7340188e-05 0.0000000e+00 
0.0000000e+00 -2.3210816e-05 0.0000000e+00 
0.0000000e+00 1.5626469e-05 0.0000000e+00 
0.0000000e+00 6.0600865e-05 0.0000000e+00 
0.0000000e+00 -7.4670083e-05 0.0000000e+00 
0.0000000e+00 -2.1310736e-04 0.0000000e+00 
0.0000000e+00 -1.3224752e-05 0.0000000e+00 
0.0000000e+00 2.3595578e-05 0.0000000e+00 
0.0000000e+00 8.5784915e-05 0.0000000e+00 
0.0000000e+00 -1.3082017e+00 -2.1263396e-02 
0.0000000e+00 -1.3349683e+00 0.0000000e+00 
0.0000000e+00 -1.5141851e+00 0.0000000e+00 
0.0000000e+00 -1.5629299e+00 0.0000000e+00 
0.0000000e+00 -1.1602086e+00 0.0000000e+00 
0.0000000e+00 -1.8643142e+00 0.0000000e+00 
0.0000000e+00 3.7614617e-01 0.0000000e+00 
0.0000000e+00 8.4746160e-02 0.0000000e+00 
0.0000000e+00 -6.7927830e-02 0.0000000e+00 
0.0000000e+00 -4.5574144e-02 0.0000000e+00 
0.0000000e+00 -8.5135007e-01 0.0000000e+00 
0.0000000e+00 -1.5104451e+00 0.0000000e+00 
0.0000000e+00 -1.4963440e+00 0.0000000e+00 
0.0000000e+00 -1.4459021e+00 0.0000000e+00 
0.0000000e+00 -1.5217764e+00 0.0000000e+00 
0.0000000e+00 -6.6087079e-01 0.0000000e+00 
0.0000000e+00 6.4272605e-02 0.0000000e+00 
0.0000000e+00 1.0473103e-01 0.0000000e+00 
0.0000000e+00 9.5255114e-03 0.0000000e+00 
0.0000000e+00 3.9115991e-03 0.0000000e+00 
1.8005075e-01 -9.3209559e-01 0.0000000e+00 
1.0910136e-01 -1.2242671e+00 -1.5651241e-01 
1.6793312e-01 -9.6098650e-01 0.0000000e+00 
1.2394406e-04 1.0706548e-04 0.0000000e+00 
-1.2442212e-04 6.1026924e-05 0.0000000e+00 
-7.0428039e-05 -4.4087814e-05 0.0000000e+00 
9.5583287e-05 3.9510152e-05 0.0000000e+00 
2.7807202e-04 2.1362772e-04 0.0000000e+00 
-1.6639737e-04 -6.8806187e-04 0.0000000e+00 
4.1477014e-03 -6.4627762e-04 0.0000000e+00 
-8.5875503e-04 -1.1218879e-03 0.0000000e+00 
6.0189473e-03 -7.2682309e-03 0.0000000e+00 
-4.5999661e-03 -8.7455828e-03 0.0000000e+00 
-1.8448457e-02 1.1924865e-02 0.0000000e+00 
2.8670058e-02 -3.7214751e-03 0.0000000e+00 
1.2287320e-01 1.6293688e-02 0.0000000e+00 
3.6515485e-02 1.6074911e-01 0.0000000e+00 
2.1354295e-01 1.3449028e-01 0.0000000e+00 
-4.4363123e-01 -2.2015253e-02 0.0000000e+00 
-1.0170736e+00 -6.0324067e-01 0.0000000e+00 
-5.6735134e-01 -1.6393651e+00 0.0000000e+00 
1.3539022e-04 -3.6962774e-05 0.0000000e+00 
-4.8448714e-05 -2.1353933e-04 0.0000000e+00 
3.9733721e-05 -1.8087940e-04 0.0000000e+00 
3.6421101e-04 -1.5415947e-04 0.0000000e+00 
-3.3845523e-04 -4.9729824e-06 0.0000000e+00 
-1.1845778e-03 -3.5498131e-04 0.0000000e+00 
-2.9469133e-04 -7.2618155e-04 0.0000000e+00 
-2.7021843e-03 7.6987705e-04 0.0000000e+00 
-3.5243813e-04 5.2864174e-04 0.0000000e+00 
-6.6954579e-04 8.4796753e-03 0.0000000e+00 
1.2989793e-02 1.1523589e-02 0.0000000e+00 
1.4852947e-02 2.1175926e-03 0.0000000e+00 
-7.4146517e-02 3.7939049e-02 0.0000000e+00 
-9.0467617e-02 -3.1012768e-02 0.0000000e+00 
3.5470340e-02 -8.1388414e-02 0.0000000e+00 
5.6101859e-02 1.1136062e-01 0.0000000e+00 
-8.3772504e-01 -1.5250035e-01 0.0000000e+00 
-9.7115290e-01 -1.4232799e+00 0.0000000e+00 
-2.3481119e-03 -1.6483580e+00 0.0000000e+00 
4.9302164e-03 1.4830241e-01 0.0000000e+00 
-1.4821851e-02 2.7721513e-02 0.0000000e+00 
-4.5408960e-03 -3.4682948e-02 0.0000000e+00 
8.9693069e-03 -1.7707046e-02 0.0000000e+00 
7.8512594e-02 5.9078302e-02 0.0000000e+00 
-1.7276332e-02 -3.4158781e-02 0.0000000e+00 
-2.6008037e-03 3.3560146e-02 0.0000000e+00 
9.6619204e-03 2.9591382e-02 0.0000000e+00 
-1.0941877e-02 1.9231590e-02 0.0000000e+00 
4.4260807e-03 -9.8838443e-03 0.0000000e+00 
3.2175800e-03 -2.9120396e-04 0.0000000e+00 
2.0334579e-03 -2.8833118e-04 0.0000000e+00 
1.3757257e-03 -1.1299498e-04 0.0000000e+00 
-8.4081609e-03 1.3100485e-02 0.0000000e+00 
-7.0031653e-03 -1.7354345e-03 0.0000000e+00 
1.0598025e-04 3.0834120e-04 0.0000000e+00 
-3.5193196e-04 5.2766898e-04 0.0000000e+00 
-1.0873348e-03 -1.7061077e-04 0.0000000e+00 
-1.1949307e-04 -1.4658250e-04 0.0000000e+00 
8.6925274e-06 -2.3210627e-05 0.0000000e+00 
-1.8972949e-04 8.1588308e-07 0.0000000e+00 
3.4555394e-04 -3.3359777e-04 0.0000000e+00 
-1.3813793e-04 -4.2325599e-04 0.0000000e+00 
2.3474824e-05 4.2033953e-05 0.0000000e+00 
-1.1148230e-04 -2.4157041e-04 0.0000000e+00 
2.3303583e-04 8.2737191e-05 0.0000000e+00 
1.4741604e-04 1.9722442e-04 0.0000000e+00 
-3.7715837e-01 -5.5917719e-04 0.0000000e+00 
-1.1129121e+00 -8.2901102e-01 0.0000000e+00 
-5.6091863e-01 -1.8239291e+00 0.0000000e+00 
3.6808174e-02 1.8104349e-01 0.0000000e+00 
-9.6226376e-01 -1.8572234e-02 0.0000000e+00 
-8.6139351e-01 -1.4972651e+00 0.0000000e+00 
-2.1535657e-02 -1.5383623e+00 0.0000000e+00 
-9.8734675e-03 1.3751992e-03 0.0000000e+00 
1.9747188e-04 -3.3022530e-04 0.0000000e+00 
1.0580820e-01 2.3745807e-02 0.0000000e+00 
7.5664895e-04 -6.1651785e-03 0.0000000e+00 
2.0946783e-03 -9.9370031e-05 0.0000000e+00 
-7.5518445e-04 6.9417024e-04 0.0000000e+00 
7.2009362e-02 -7.0511496e-01 0.0000000e+00 
8.6076274e-05 -2.9311175e-04 0.0000000e+00 
-1.6101400e-03 9.9739237e-03 0.0000000e+00 
-1.2228205e-02 3.1916834e-02 0.0000000e+00 
-3.2280423e-04 -1.1802297e-03 0.0000000e+00 
2.6156093e-05 -1.0427536e-04 0.0000000e+00 
-1.6119254e-01 -1.4606296e-01 0.0000000e+00 
1.4555778e-03 2.3618464e-04 0.0000000e+00 
-2.3591572e-04 4.0895477e-05 0.0000000e+00 
3.5199577e-01 -1.3948028e+00 0.0000000e+00 
4.9443446e-05 -1.7181939e-05 0.0000000e+00 
-1.3357167e-02 -4.8281230e-02 0.0000000e+00 
9.5226962e-05 -1.8403311e-04 0.0000000e+00 
-2.4967626e-04 1.7985764e-01 0.0000000e+00 
-9.7081833e-02 -1.3592665e+00 0.0000000e+00 
7.6849232e-05 -1.4298770e-04 0.0000000e+00 
3.6101446e-05 -5.0735322e-05 0.0000000e+00 
8.8474996e-02 3.8035092e-01 0.0000000e+00 
1.6941951e-01 -2.0804165e-01 0.0000000e+00 
3.2728596e-04 -1.3310520e-02 0.0000000e+00 
7.2132587e-03 2.6593607e-02 0.0000000e+00 
1.4399340e-03 -3.0417915e-02 0.0000000e+00 
2.1281065e-02 1.7528668e-02 0.0000000e+00 
-1.4249274e-02 -1.6094564e-02 0.0000000e+00 
-1.7395705e-03 -2.7442027e-02 0.0000000e+00 
6.5630181e-03 -1.2547405e-02 0.0000000e+00 
9.8406374e-03 -1.5850535e-02 0.0000000e+00 
-6.0718311e-03 7.7288202e-03 0.0000000e+00 
1.0149460e-01 1.9110981e-02 0.0000000e+00 
3.4317034e-01 -3.3187425e-01 0.0000000e+00 
4.2391896e-02 -3.8205471e-02 0.0000000e+00 
-3.7093982e-02 -1.5964976e-02 0.0000000e+00 
-1.5601696e-02 -2.5119420e-02 0.0000000e+00 
-2.8040072e-02 6.0111415e-02 0.0000000e+00 
1.4203393e-02 -3.9722193e-02 0.0000000e+00 
-8.1403414e-03 -1.2361940e-02 0.0000000e+00 
1.9096211e-03 4.1840281e-03 0.0000000e+00 
-8.4965602e-03 -2.7475783e-03 0.0000000e+00 
-1.0687983e-02 -4.6844007e-03 0.0000000e+00 
9.4125494e-03 -1.6571139e-03 0.0000000e+00 
3.6713593e-03 1.2078407e-03 0.0000000e+00 
3.3736704e-03 2.6140618e-03 0.0000000e+00 
6.0667895e-05 2.8286073e-03 0.0000000e+00 
-4.1124192e-03 -1.9540433e-03 0.0000000e+00 
-2.8136929e-03 1.4202362e-04 0.0000000e+00 
-8.3999749e-04 -8.1191654e-04 0.0000000e+00 
2.9017165e-04 6.8796886e-04 0.0000000e+00 
3.5026646e-04 -3.4535603e-04 0.0000000e+00 
7.6564058e-04 2.6656664e-04 0.0000000e+00 
4.5526805e-04 6.4401725e-06 0.0000000e+00 
-1.5599933e-05 -9.6945216e-05 0.0000000e+00 
-1.6963948e-04 1.9977296e-04 0.0000000e+00 
4.7205668e-04 2.1676709e-04 0.0000000e+00 
-1.6935213e-04 -2.6950840e-04 0.0000000e+00 
-5.5590557e-04 5.2820109e-05 0.0000000e+00 
4.2601966e-04 -5.6566350e-04 0.0000000e+00 
-1.1129647e-04 -8.9278954e-05 0.0000000e+00 
1.0887510e-01 -1.0171332e-01 0.0000000e+00 
2.2783406e-02 2.0052884e-02 0.0000000e+00 
-1.0141819e-04 -1.5771203e-04 0.0000000e+00 
-8.3056620e-05 -1.1518777e-04 0.0000000e+00 
4.4479086e-03 -2.1364291e-03 0.0000000e+00 
-2.2280980e-03 4.7396128e-03 0.0000000e+00 
-9.1448411e-02 -4.5426559e-02 0.0000000e+00 
-3.3096243e-02 -2.4168395e-02 0.0000000e+00 
-7.1004254e-04 1.6700596e-04 0.0000000e+00 
6.6930610e-05 -1.1202324e-04 0.0000000e+00 
-6.0657940e-06 -1.1816774e-04 0.0000000e+00 
-2.7188754e-02 -1.1935962e-02 0.0000000e+00 
2.4762966e-02 7.9498636e-03 0.0000000e+00 
2.3078427e-01 -2.7335876e-01 0.0000000e+00 
1.0932887e-03 5.6897956e-05 0.0000000e+00 
-7.6554104e-05 3.1634566e-04 0.0000000e+00 
9.2818125e-05 -1.6455726e-05 0.0000000e+00 
3.2570174e-01 -9.7652543e-01 0.0000000e+00 
8.1202286e-01 -6.3975948e-01 0.0000000e+00 
-1.1387768e-03 1.7474975e-02 0.0000000e+00 
-4.7822967e-02 -4.2405963e-02 0.0000000e+00 
-9.2366198e-04 2.3417111e-04 0.0000000e+00 
1.1275934e-05 4.4245091e-05 0.0000000e+00 
8.1198508e-05 -1.0514726e-04 0.0000000e+00 
-5.2438595e-04 -5.2557566e-04 0.0000000e+00 
9.1770780e-05 -9.4404393e-05 0.0000000e+00 
2.0942548e-02 1.9157818e-02 0.0000000e+00 
4.3815039e-03 1.7791707e-02 0.0000000e+00 
4.7135584e-02 1.4762822e-02 0.0000000e+00 
1.3574927e-01 -7.0178635e-02 0.0000000e+00 
-3.2631939e-04 3.8994197e-04 0.0000000e+00 
6.7175023e-02 5.2928139e-02 0.0000000e+00 
8.0612116e-03 -1.2954031e-03 0.0000000e+00 
1.6881764e-04 -1.8394254e-04 0.0000000e+00 
1.3232809e-04 -5.0277566e-05 0.0000000e+00 
2.2060910e-01 -3.7012044e-01 0.0000000e+00 
1.0376092e+00 -6.9326693e-01 0.0000000e+00 
5.9297740e-01 -6.6489077e-01 0.0000000e+00 
-3.2669356e-01 -1.3503624e+00 0.0000000e+00 
-2.5258413e-01 -1.7277726e+00 0.0000000e+00 
4.1671988e-01 -1.0969683e+00 0.0000000e+00 
-4.3726969e-04 3.8697684e-04 0.0000000e+00 
-9.3728141e-04 3.9137047e-04 0.0000000e+00 
-2.4930961e-04 -9.9336154e-05 0.0000000e+00 
-3.7301827e-04 3.6130357e-04 0.0000000e+00 
1.1895593e-03 -6.9948735e-05 0.0000000e+00 
2.0946733e-04 1.5133519e-04 0.0000000e+00 
8.9297531e-04 -1.1258587e-02 0.0000000e+00 
-2.3375279e-03 1.8486121e-03 0.0000000e+00 
1.2607315e-04 1.3224470e-05 0.0000000e+00 
3.3561457e-05 -1.0193600e-04 0.0000000e+00 
-3.2288699e-05 -1.5265963e-04 0.0000000e+00 
1.6641602e-04 -1.2786852e-05 0.0000000e+00 
1.1415227e-05 -8.1726575e-05 0.0000000e+00 
3.0197619e-02 1.8332109e-02 0.0000000e+00 
-1.2600022e-04 9.7611388e-05 0.0000000e+00 
-1.7757447e-04 -6.3149678e-06 0.0000000e+00 
7.9440035e-02 6.9347821e-02 0.0000000e+00 
-2.7983627e-04 -1.9850240e-03 0.0000000e+00 
-8.7179407e-04 1.8961213e-03 0.0000000e+00 
-1.8374555e-04 -6.6387322e-04 0.0000000e+00 
2.4457125e-03 -9.7806368e-04 0.0000000e+00 
2.9715553e-02 -2.5176615e-02 0.0000000e+00 
-1.0662355e-03 -2.2676897e-03 0.0000000e+00 
3.3062528e-04 -3.6342276e-04 0.0000000e+00 
-1.2226907e-02 1.1639426e-02 0.0000000e+00 
5.5875853e-03 6.0998942e-03 0.0000000e+00 
-1.0602807e-02 -4.2261545e-02 0.0000000e+00 
-9.2419619e-03 7.0744129e-03 0.0000000e+00 
1.6337013e-04 4.2467946e-04 0.0000000e+00 
2.8712160e-04 1.8372586e-04 0.0000000e+00 
-6.3946623e-05 -7.6164652e-05 0.0000000e+00 
5.8731658e-04 7.6996192e-04 0.0000000e+00 
-1.7079719e-03 -1.6859926e-03 0.0000000e+00 
-5.0607603e-04 -2.5232029e-03 0.0000000e+00 
8.2404783e-04 -8.3055040e-03 0.0000000e+00 
4.8500144e-05 1.3029630e-03 0.0000000e+00 
-1.7594611e-03 1.1971237e-03 0.0000000e+00 
-2.0515672e-03 6.6391486e-03 0.0000000e+00 
-6.6541525e-04 4.3137567e-04 0.0000000e+00 
1.8065255e-04 -6.2002713e-05 0.0000000e+00 
-4.2900871e-04 -1.7689950e-03 0.0000000e+00 
2.3109665e-02 -1.2817119e-02 0.0000000e+00 
1.4143037e-02 1.5724968e-02 0.0000000e+00 
5.8447814e-04 -2.2124483e-03 0.0000000e+00 
1.6915080e-03 1.6953736e-03 0.0000000e+00 
9.3927793e-04 3.2346626e-03 0.0000000e+00 
2.0911328e-03 1.6066594e-04 0.0000000e+00 
2.0950120e-03 -2.7863530e-03 0.0000000e+00 
1.1480461e-03 -1.6279487e-03 0.0000000e+00 
1.6399079e-03 7.1546077e-05 0.0000000e+00 
2.0670590e-04 -1.1356702e-04 0.0000000e+00 
4.3316606e-02 -5.8688127e-02 0.0000000e+00 
3.9166729e-03 -9.1389837e-03 0.0000000e+00 
3.2966645e-03 2.5291184e-02 0.0000000e+00 
-4.5649611e-04 -1.0882250e-04 0.0000000e+00 
-2.4930497e-03 7.2599286e-03 0.0000000e+00 
-3.8732640e-03 -4.0313285e-03 0.0000000e+00 
-1.2886464e-02 2.4796039e-02 0.0000000e+00 
-4.6242168e-03 1.4014516e-03 0.0000000e+00 
-1.8012918e-03 -2.9472639e-03 0.0000000e+00 
3.1648230e-02 2.5770802e-02 0.0000000e+00 
3.8740679e-03 -1.2555584e-02 0.0000000e+00 
-1.0794096e-02 3.7108134e-02 0.0000000e+00 
4.0545380e-01 3.1469381e-01 0.0000000e+00 
1.2649552e-02 -4.4708397e-02 0.0000000e+00 
3.9058581e-01 -4.1526121e-01 0.0000000e+00 
6.6047983e-04 2.4067708e-04 0.0000000e+00 
2.8289625e-04 -8.2655373e-04 0.0000000e+00 
-1.3446070e-02 9.0149390e-03 0.0000000e+00 
2.7740737e-03 3.1726755e-04 0.0000000e+00 
2.5618721e-02 -3.8548961e-01 0.0000000e+00 
8.1664646e-01 -5.7452478e-02 0.0000000e+00 
-3.7817588e-01 -1.2262423e+00 0.0000000e+00 
-3.7056056e-01 -1.4466547e+00 0.0000000e+00 
-4.4265054e-02 -5.4334872e-03 0.0000000e+00 
1.2035753e-04 -1.3302047e-04 0.0000000e+00 
-1.0980061e-05 -6.6005101e-05 0.0000000e+00 
1.9075019e-04 -1.1836320e-04 0.0000000e+00 
5.3397328e-02 -6.0862068e-02 0.0000000e+00 
-2.6673245e-01 2.3769839e-01 0.0000000e+00 
2.6255942e-04 -2.5609363e-04 0.0000000e+00 
-1.5820056e-03 -4.1660857e-03 0.0000000e+00 
-6.0468214e-03 -1.0096767e-02 0.0000000e+00 
-7.4964240e-03 -1.1452756e-02 0.0000000e+00 
-9.1958221e-04 -2.5598053e-03 0.0000000e+00 
3.7315598e-04 -4.4518631e-04 0.0000000e+00 
8.5839251e-04 -1.2558772e-03 0.0000000e+00 
1.6022263e-06 -1.1700343e-04 0.0000000e+00 
-2.3315810e-01 -1.5386807e+00 0.0000000e+00 
-1.2224681e-02 7.4189745e-02 0.0000000e+00 
-3.3109296e-02 -6.8036981e-02 0.0000000e+00 
3.4565413e-03 -6.3973232e-03 0.0000000e+00 
-4.3131330e-04 5.3451145e-03 0.0000000e+00 
-1.2848715e-03 2.1997953e-03 0.0000000e+00 
3.6145849e-04 -6.6348602e-04 0.0000000e+00 
-7.5715577e-04 9.0889185e-04 0.0000000e+00 
-6.6518987e-04 8.7551947e-05 0.0000000e+00 
1.6302880e-04 -9.7172284e-05 0.0000000e+00 
9.4542587e-03 1.0488472e-02 0.0000000e+00 
-5.1678712e-03 -4.8764626e-04 0.0000000e+00 
2.9329706e-03 -3.9496701e-03 0.0000000e+00 
2.2795172e-01 -1.5019633e+00 0.0000000e+00 
7.5778415e-05 -9.6783631e-05 0.0000000e+00 
-4.1137253e-05 -6.0376344e-05 0.0000000e+00 
-1.2118740e-01 -1.2186211e+00 0.0000000e+00 