# vtk DataFile Version 4.0
vtk output
ASCII
DATASET UNSTRUCTURED_GRID
POINTS 3543 float
0.0000000e+00 0.0000000e+00 0.0000000e+00 
2.0000000e+01 0.0000000e+00 0.0000000e+00 
2.0000000e+01 1.0000000e+01 0.0000000e+00 
0.0000000e+00 1.0000000e+01 0.0000000e+00 
0.0000000e+00 0.0000000e+00 1.0000000e+00 
2.0000000e+01 0.0000000e+00 1.0000000e+00 
2.0000000e+01 1.0000000e+01 1.0000000e+00 
0.0000000e+00 1.0000000e+01 1.0000000e+00 
1.0000000e+00 1.0000000e+01 0.0000000e+00 
1.0000000e+00 1.0000000e+01 1.0000000e+00 
5.0000000e+00 1.0000000e+01 0.0000000e+00 
1.0000000e+01 1.0000000e+01 0.0000000e+00 
1.5000000e+01 1.0000000e+01 0.0000000e+00 
1.0000000e+00 0.0000000e+00 0.0000000e+00 
2.0000000e+00 0.0000000e+00 0.0000000e+00 
3.0000000e+00 0.0000000e+00 0.0000000e+00 
4.0000000e+00 0.0000000e+00 0.0000000e+00 
5.0000000e+00 0.0000000e+00 0.0000000e+00 
6.0000000e+00 0.0000000e+00 0.0000000e+00 
7.0000000e+00 0.0000000e+00 0.0000000e+00 
8.0000000e+00 0.0000000e+00 0.0000000e+00 
9.0000000e+00 0.0000000e+00 0.0000000e+00 
1.0000000e+01 0.0000000e+00 0.0000000e+00 
1.1000000e+01 0.0000000e+00 0.0000000e+00 
1.2000000e+01 0.0000000e+00 0.0000000e+00 
1.3000000e+01 0.0000000e+00 0.0000000e+00 
1.4000000e+01 0.0000000e+00 0.0000000e+00 
1.5000000e+01 0.0000000e+00 0.0000000e+00 
1.6000000e+01 0.0000000e+00 0.0000000e+00 
1.7000000e+01 0.0000000e+00 0.0000000e+00 
1.8000000e+01 0.0000000e+00 0.0000000e+00 
1.9000000e+01 0.0000000e+00 0.0000000e+00 
5.0000000e-01 0.0000000e+00 0.0000000e+00 
1.5000000e+00 0.0000000e+00 0.0000000e+00 
2.5000000e+00 0.0000000e+00 0.0000000e+00 
3.5000000e+00 0.0000000e+00 0.0000000e+00 
4.5000000e+00 0.0000000e+00 0.0000000e+00 
5.5000000e+00 0.0000000e+00 0.0000000e+00 
6.5000000e+00 0.0000000e+00 0.0000000e+00 
7.5000000e+00 0.0000000e+00 0.0000000e+00 
8.5000000e+00 0.0000000e+00 0.0000000e+00 
9.5000000e+00 0.0000000e+00 0.0000000e+00 
1.0500000e+01 0.0000000e+00 0.0000000e+00 
1.1500000e+01 0.0000000e+00 0.0000000e+00 
1.2500000e+01 0.0000000e+00 0.0000000e+00 
1.3500000e+01 0.0000000e+00 0.0000000e+00 
1.4500000e+01 0.0000000e+00 0.0000000e+00 
1.5500000e+01 0.0000000e+00 0.0000000e+00 
1.6500000e+01 0.0000000e+00 0.0000000e+00 
1.7500000e+01 0.0000000e+00 0.0000000e+00 
1.8500000e+01 0.0000000e+00 0.0000000e+00 
1.9500000e+01 0.0000000e+00 0.0000000e+00 
2.0000000e+01 1.0000000e+00 0.0000000e+00 
2.0000000e+01 2.0000000e+00 0.0000000e+00 
2.0000000e+01 3.0000000e+00 0.0000000e+00 
2.0000000e+01 4.0000000e+00 0.0000000e+00 
2.0000000e+01 5.0000000e+00 0.0000000e+00 
2.0000000e+01 6.0000000e+00 0.0000000e+00 
2.0000000e+01 7.0000000e+00 0.0000000e+00 
2.0000000e+01 8.0000000e+00 0.0000000e+00 
2.0000000e+01 9.0000000e+00 0.0000000e+00 
2.0000000e+01 5.0000000e-01 0.0000000e+00 
2.0000000e+01 1.5000000e+00 0.0000000e+00 
2.0000000e+01 2.5000000e+00 0.0000000e+00 
2.0000000e+01 3.5000000e+00 0.0000000e+00 
2.0000000e+01 4.5000000e+00 0.0000000e+00 
2.0000000e+01 5.5000000e+00 0.0000000e+00 
2.0000000e+01 6.5000000e+00 0.0000000e+00 
2.0000000e+01 7.5000000e+00 0.0000000e+00 
2.0000000e+01 8.5000000e+00 0.0000000e+00 
2.0000000e+01 9.5000000e+00 0.0000000e+00 
0.0000000e+00 9.0000000e+00 0.0000000e+00 
0.0000000e+00 8.0000000e+00 0.0000000e+00 
0.0000000e+00 7.0000000e+00 0.0000000e+00 
0.0000000e+00 6.0000000e+00 0.0000000e+00 
0.0000000e+00 5.0000000e+00 0.0000000e+00 
0.0000000e+00 4.0000000e+00 0.0000000e+00 
0.0000000e+00 3.0000000e+00 0.0000000e+00 
0.0000000e+00 2.0000000e+00 0.0000000e+00 
0.0000000e+00 1.0000000e+00 0.0000000e+00 
0.0000000e+00 9.5000000e+00 0.0000000e+00 
0.0000000e+00 8.5000000e+00 0.0000000e+00 
0.0000000e+00 7.5000000e+00 0.0000000e+00 
0.0000000e+00 6.5000000e+00 0.0000000e+00 
0.0000000e+00 5.5000000e+00 0.0000000e+00 
0.0000000e+00 4.5000000e+00 0.0000000e+00 
0.0000000e+00 3.5000000e+00 0.0000000e+00 
0.0000000e+00 2.5000000e+00 0.0000000e+00 
0.0000000e+00 1.5000000e+00 0.0000000e+00 
0.0000000e+00 5.0000000e-01 0.0000000e+00 
0.0000000e+00 0.0000000e+00 5.0000000e-01 
2.0000000e+01 0.0000000e+00 5.0000000e-01 
1.0000000e+00 0.0000000e+00 1.0000000e+00 
2.0000000e+00 0.0000000e+00 1.0000000e+00 
3.0000000e+00 0.0000000e+00 1.0000000e+00 
4.0000000e+00 0.0000000e+00 1.0000000e+00 
5.0000000e+00 0.0000000e+00 1.0000000e+00 
6.0000000e+00 0.0000000e+00 1.0000000e+00 
7.0000000e+00 0.0000000e+00 1.0000000e+00 
8.0000000e+00 0.0000000e+00 1.0000000e+00 
9.0000000e+00 0.0000000e+00 1.0000000e+00 
1.0000000e+01 0.0000000e+00 1.0000000e+00 
1.1000000e+01 0.0000000e+00 1.0000000e+00 
1.2000000e+01 0.0000000e+00 1.0000000e+00 
1.3000000e+01 0.0000000e+00 1.0000000e+00 
1.4000000e+01 0.0000000e+00 1.0000000e+00 
1.5000000e+01 0.0000000e+00 1.0000000e+00 
1.6000000e+01 0.0000000e+00 1.0000000e+00 
1.7000000e+01 0.0000000e+00 1.0000000e+00 
1.8000000e+01 0.0000000e+00 1.0000000e+00 
1.9000000e+01 0.0000000e+00 1.0000000e+00 
5.0000000e-01 0.0000000e+00 1.0000000e+00 
1.5000000e+00 0.0000000e+00 1.0000000e+00 
2.5000000e+00 0.0000000e+00 1.0000000e+00 
3.5000000e+00 0.0000000e+00 1.0000000e+00 
4.5000000e+00 0.0000000e+00 1.0000000e+00 
5.5000000e+00 0.0000000e+00 1.0000000e+00 
6.5000000e+00 0.0000000e+00 1.0000000e+00 
7.5000000e+00 0.0000000e+00 1.0000000e+00 
8.5000000e+00 0.0000000e+00 1.0000000e+00 
9.5000000e+00 0.0000000e+00 1.0000000e+00 
1.0500000e+01 0.0000000e+00 1.0000000e+00 
1.1500000e+01 0.0000000e+00 1.0000000e+00 
1.2500000e+01 0.0000000e+00 1.0000000e+00 
1.3500000e+01 0.0000000e+00 1.0000000e+00 
1.4500000e+01 0.0000000e+00 1.0000000e+00 
1.5500000e+01 0.0000000e+00 1.0000000e+00 
1.6500000e+01 0.0000000e+00 1.0000000e+00 
1.7500000e+01 0.0000000e+00 1.0000000e+00 
1.8500000e+01 0.0000000e+00 1.0000000e+00 
1.9500000e+01 0.0000000e+00 1.0000000e+00 
2.0000000e+01 1.0000000e+01 5.0000000e-01 
2.0000000e+01 1.0000000e+00 1.0000000e+00 
2.0000000e+01 2.0000000e+00 1.0000000e+00 
2.0000000e+01 3.0000000e+00 1.0000000e+00 
2.0000000e+01 4.0000000e+00 1.0000000e+00 
2.0000000e+01 5.0000000e+00 1.0000000e+00 
2.0000000e+01 6.0000000e+00 1.0000000e+00 
2.0000000e+01 7.0000000e+00 1.0000000e+00 
2.0000000e+01 8.0000000e+00 1.0000000e+00 
2.0000000e+01 9.0000000e+00 1.0000000e+00 
2.0000000e+01 5.0000000e-01 1.0000000e+00 
2.0000000e+01 1.5000000e+00 1.0000000e+00 
2.0000000e+01 2.5000000e+00 1.0000000e+00 
2.0000000e+01 3.5000000e+00 1.0000000e+00 
2.0000000e+01 4.5000000e+00 1.0000000e+00 
2.0000000e+01 5.5000000e+00 1.0000000e+00 
2.0000000e+01 6.5000000e+00 1.0000000e+00 
2.0000000e+01 7.5000000e+00 1.0000000e+00 
2.0000000e+01 8.5000000e+00 1.0000000e+00 
2.0000000e+01 9.5000000e+00 1.0000000e+00 
0.0000000e+00 1.0000000e+01 5.0000000e-01 
0.0000000e+00 9.0000000e+00 1.0000000e+00 
0.0000000e+00 8.0000000e+00 1.0000000e+00 
0.0000000e+00 7.0000000e+00 1.0000000e+00 
0.0000000e+00 6.0000000e+00 1.0000000e+00 
0.0000000e+00 5.0000000e+00 1.0000000e+00 
0.0000000e+00 4.0000000e+00 1.0000000e+00 
0.0000000e+00 3.0000000e+00 1.0000000e+00 
0.0000000e+00 2.0000000e+00 1.0000000e+00 
0.0000000e+00 1.0000000e+00 1.0000000e+00 
0.0000000e+00 9.5000000e+00 1.0000000e+00 
0.0000000e+00 8.5000000e+00 1.0000000e+00 
0.0000000e+00 7.5000000e+00 1.0000000e+00 
0.0000000e+00 6.5000000e+00 1.0000000e+00 
0.0000000e+00 5.5000000e+00 1.0000000e+00 
0.0000000e+00 4.5000000e+00 1.0000000e+00 
0.0000000e+00 3.5000000e+00 1.0000000e+00 
0.0000000e+00 2.5000000e+00 1.0000000e+00 
0.0000000e+00 1.5000000e+00 1.0000000e+00 
0.0000000e+00 5.0000000e-01 1.0000000e+00 
5.0000000e-01 1.0000000e+01 0.0000000e+00 
1.0000000e+00 1.0000000e+01 5.0000000e-01 
5.0000000e-01 1.0000000e+01 1.0000000e+00 
1.9000000e+01 1.0000000e+01 1.0000000e+00 
1.8000000e+01 1.0000000e+01 1.0000000e+00 
1.7000000e+01 1.0000000e+01 1.0000000e+00 
1.6000000e+01 1.0000000e+01 1.0000000e+00 
1.5000000e+01 1.0000000e+01 1.0000000e+00 
1.4000000e+01 1.0000000e+01 1.0000000e+00 
1.3000000e+01 1.0000000e+01 1.0000000e+00 
1.2000000e+01 1.0000000e+01 1.0000000e+00 
1.1000000e+01 1.0000000e+01 1.0000000e+00 
1.0000000e+01 1.0000000e+01 1.0000000e+00 
9.0000000e+00 1.0000000e+01 1.0000000e+00 
8.0000000e+00 1.0000000e+01 1.0000000e+00 
7.0000000e+00 1.0000000e+01 1.0000000e+00 
6.0000000e+00 1.0000000e+01 1.0000000e+00 
5.0000000e+00 1.0000000e+01 1.0000000e+00 
4.0000000e+00 1.0000000e+01 1.0000000e+00 
3.0000000e+00 1.0000000e+01 1.0000000e+00 
2.0000000e+00 1.0000000e+01 1.0000000e+00 
1.9500000e+01 1.0000000e+01 1.0000000e+00 
1.8500000e+01 1.0000000e+01 1.0000000e+00 
1.7500000e+01 1.0000000e+01 1.0000000e+00 
1.6500000e+01 1.0000000e+01 1.0000000e+00 
1.5500000e+01 1.0000000e+01 1.0000000e+00 
1.4500000e+01 1.0000000e+01 1.0000000e+00 
1.3500000e+01 1.0000000e+01 1.0000000e+00 
1.2500000e+01 1.0000000e+01 1.0000000e+00 
1.1500000e+01 1.0000000e+01 1.0000000e+00 
1.0500000e+01 1.0000000e+01 1.0000000e+00 
9.5000000e+00 1.0000000e+01 1.0000000e+00 
8.5000000e+00 1.0000000e+01 1.0000000e+00 
7.5000000e+00 1.0000000e+01 1.0000000e+00 
6.5000000e+00 1.0000000e+01 1.0000000e+00 
5.5000000e+00 1.0000000e+01 1.0000000e+00 
4.5000000e+00 1.0000000e+01 1.0000000e+00 
3.5000000e+00 1.0000000e+01 1.0000000e+00 
2.5000000e+00 1.0000000e+01 1.0000000e+00 
1.5000000e+00 1.0000000e+01 1.0000000e+00 
6.0000000e+00 1.0000000e+01 0.0000000e+00 
7.0000000e+00 1.0000000e+01 0.0000000e+00 
8.0000000e+00 1.0000000e+01 0.0000000e+00 
9.0000000e+00 1.0000000e+01 0.0000000e+00 
5.5000000e+00 1.0000000e+01 0.0000000e+00 
6.5000000e+00 1.0000000e+01 0.0000000e+00 
7.5000000e+00 1.0000000e+01 0.0000000e+00 
8.5000000e+00 1.0000000e+01 0.0000000e+00 
9.5000000e+00 1.0000000e+01 0.0000000e+00 
1.1000000e+01 1.0000000e+01 0.0000000e+00 
1.2000000e+01 1.0000000e+01 0.0000000e+00 
1.3000000e+01 1.0000000e+01 0.0000000e+00 
1.4000000e+01 1.0000000e+01 0.0000000e+00 
1.0500000e+01 1.0000000e+01 0.0000000e+00 
1.1500000e+01 1.0000000e+01 0.0000000e+00 
1.2500000e+01 1.0000000e+01 0.0000000e+00 
1.3500000e+01 1.0000000e+01 0.0000000e+00 
1.4500000e+01 1.0000000e+01 0.0000000e+00 
1.9000000e+01 1.0000000e+01 0.0000000e+00 
[...]
POINT_DATA 3543
FIELD FieldData 1
VELOCITY 3 3543  float
0.0000000e+00 0.0000000e+00 0.0000000e+00 
0.0000000e+00 0.0000000e+00 0.0000000e+00 
0.0000000e+00 -1.4734993e-04 0.0000000e+00 
0.0000000e+00 -6.4196259e-01 0.0000000e+00 
0.0000000e+00 0.0000000e+00 0.0000000e+00 
0.0000000e+00 0.0000000e+00 0.0000000e+00 
0.0000000e+00 3.6343612e-04 0.0000000e+00 
0.0000000e+00 -5.1105386e-01 0.0000000e+00 
-7.3425025e-02 -7.0019698e-01 0.0000000e+00 
7.2995380e-02 -7.7573550e-01 0.0000000e+00 
-6.5745842e-01 1.6216250e-01 0.0000000e+00 
3.4966055e-02 1.7297486e-02 0.0000000e+00 
-7.7059952e-04 1.4615711e-04 0.0000000e+00 
0.0000000e+00 0.0000000e+00 0.0000000e+00 
0.0000000e+00 0.0000000e+00 0.0000000e+00 
0.0000000e+00 0.0000000e+00 0.0000000e+00 
0.0000000e+00 0.0000000e+00 0.0000000e+00 
0.0000000e+00 0.0000000e+00 0.0000000e+00 
0.0000000e+00 0.0000000e+00 0.0000000e+00 
0.0000000e+00 0.0000000e+00 0.0000000e+00 
0.0000000e+00 0.0000000e+00 0.0000000e+00 
0.0000000e+00 0.0000000e+00 0.0000000e+00 
0.0000000e+00 0.0000000e+00 0.0000000e+00 
0.0000000e+00 0.0000000e+00 0.0000000e+00 
0.0000000e+00 0.0000000e+00 0.0000000e+00 
0.0000000e+00 0.0000000e+00 0.0000000e+00 
0.0000000e+00 0.0000000e+00 0.0000000e+00 
0.0000000e+00 0.0000000e+00 0.0000000e+00 
0.0000000e+00 0.0000000e+00 0.0000000e+00 
0.0000000e+00 0.0000000e+00 0.0000000e+00 
0.0000000e+00 0.0000000e+00 0.0000000e+00 
0.0000000e+00 0.0000000e+00 0.0000000e+00 
0.0000000e+00 0.0000000e+00 0.0000000e+00 
0.0000000e+00 0.0000000e+00 0.0000000e+00 
0.0000000e+00 0.0000000e+00 0.0000000e+00 
0.0000000e+00 0.0000000e+00 0.0000000e+00 
0.0000000e+00 0.0000000e+00 0.0000000e+00 
0.0000000e+00 0.0000000e+00 0.0000000e+00 
0.0000000e+00 0.0000000e+00 0.0000000e+00 
0.0000000e+00 0.0000000e+00 0.0000000e+00 
0.0000000e+00 0.0000000e+00 0.0000000e+00 
0.0000000e+00 0.0000000e+00 0.0000000e+00 
0.0000000e+00 0.0000000e+00 0.0000000e+00 
0.0000000e+00 0.0000000e+00 0.0000000e+00 
0.0000000e+00 0.0000000e+00 0.0000000e+00 
0.0000000e+00 0.0000000e+00 0.0000000e+00 
0.0000000e+00 0.0000000e+00 0.0000000e+00 
0.0000000e+00 0.0000000e+00 0.0000000e+00 
0.0000000e+00 0.0000000e+00 0.0000000e+00 
0.0000000e+00 0.0000000e+00 0.0000000e+00 
0.0000000e+00 0.0000000e+00 0.0000000e+00 
0.0000000e+00 0.0000000e+00 0.0000000e+00 
0.0000000e+00 7.9714162e-05 0.0000000e+00 
0.0000000e+00 8.3796833e-05 0.0000000e+00 
0.0000000e+00 1.8392400e-04 0.0000000e+00 
0.0000000e+00 -1.8179606e-04 0.0000000e+00 
0.0000000e+00 1.2455012e-05 0.0000000e+00 
0.0000000e+00 7.0374139e-05 0.0000000e+00 
0.0000000e+00 -1.0457337e-04 0.0000000e+00 
0.0000000e+00 4.7506797e-05 0.0000000e+00 
0.0000000e+00 1.1089297e-06 0.0000000e+00 
0.0000000e+00 -5.9411577e-05 0.0000000e+00 
0.0000000e+00 5.0001900e-06 0.0000000e+00 
0.0000000e+00 -1.8243196e-04 0.0000000e+00 
0.0000000e+00 -3.9223982e-05 0.0000000e+00 
0.0000000e+00 -1.7862710e-04 0.0000000e+00 
0.0000000e+00 7.9148849e-05 0.0000000e+00 
0.0000000e+00 6.0200000e-06 0.0000000e+00 
0.0000000e+00 -3.3326454e-05 0.0000000e+00 
0.0000000e+00 -3.8551669e-05 0.0000000e+00 
0.0000000e+00 -6.1031864e-05 0.0000000e+00 
0.0000000e+00 -8.0261219e-01 0.0000000e+00 
0.0000000e+00 -7.8861457e-01 0.0000000e+00 
0.0000000e+00 -9.6002591e-01 0.0000000e+00 
0.0000000e+00 -1.1042188e+00 0.0000000e+00 
0.0000000e+00 -1.1309189e+00 0.0000000e+00 
0.0000000e+00 -9.8815757e-01 0.0000000e+00 
0.0000000e+00 -8.8013566e-01 0.0000000e+00 
0.0000000e+00 -4.6562740e-01 0.0000000e+00 
0.0000000e+00 2.0648172e-01 0.0000000e+00 
0.0000000e+00 -6.0461766e-01 0.0000000e+00 
0.0000000e+00 -6.8073481e-01 0.0000000e+00 
0.0000000e+00 -8.5560286e-01 0.0000000e+00 
0.0000000e+00 -9.4263732e-01 0.0000000e+00 
0.0000000e+00 -1.1749412e+00 0.0000000e+00 
0.0000000e+00 -1.0071561e+00 0.0000000e+00 
0.0000000e+00 -9.0028012e-01 0.0000000e+00 
0.0000000e+00 -9.0853179e-01 0.0000000e+00 
0.0000000e+00 -2.1328272e-02 0.0000000e+00 
0.0000000e+00 -1.3127092e-01 0.0000000e+00 
0.0000000e+00 0.0000000e+00 0.0000000e+00 
0.0000000e+00 0.0000000e+00 0.0000000e+00 
0.0000000e+00 0.0000000e+00 0.0000000e+00 
0.0000000e+00 0.0000000e+00 0.0000000e+00 
0.0000000e+00 0.0000000e+00 0.0000000e+00 
0.0000000e+00 0.0000000e+00 0.0000000e+00 
0.0000000e+00 0.0000000e+00 0.0000000e+00 
0.0000000e+00 0.0000000e+00 0.0000000e+00 
0.0000000e+00 0.0000000e+00 0.0000000e+00 
0.0000000e+00 0.0000000e+00 0.0000000e+00 
0.0000000e+00 0.0000000e+00 0.0000000e+00 
0.0000000e+00 0.0000000e+00 0.0000000e+00 
0.0000000e+00 0.0000000e+00 0.0000000e+00 
0.0000000e+00 0.0000000e+00 0.0000000e+00 
0.0000000e+00 0.0000000e+00 0.0000000e+00 
0.0000000e+00 0.0000000e+00 0.0000000e+00 
0.0000000e+00 0.0000000e+00 0.0000000e+00 
0.0000000e+00 0.0000000e+00 0.0000000e+00 
0.0000000e+00 0.0000000e+00 0.0000000e+00 
0.0000000e+00 0.0000000e+00 0.0000000e+00 
0.0000000e+00 0.0000000e+00 0.0000000e+00 
0.0000000e+00 0.0000000e+00 0.0000000e+00 
0.0000000e+00 0.0000000e+00 0.0000000e+00 
0.0000000e+00 0.0000000e+00 0.0000000e+00 
0.0000000e+00 0.0000000e+00 0.0000000e+00 
0.0000000e+00 0.0000000e+00 0.0000000e+00 
0.0000000e+00 0.0000000e+00 0.0000000e+00 
0.0000000e+00 0.0000000e+00 0.0000000e+00 
0.0000000e+00 0.0000000e+00 0.0000000e+00 
0.0000000e+00 0.0000000e+00 0.0000000e+00 
0.0000000e+00 0.0000000e+00 0.0000000e+00 
0.0000000e+00 0.0000000e+00 0.0000000e+00 
0.0000000e+00 0.0000000e+00 0.0000000e+00 
0.0000000e+00 0.0000000e+00 0.0000000e+00 
0.0000000e+00 0.0000000e+00 0.0000000e+00 
0.0000000e+00 0.0000000e+00 0.0000000e+00 
0.0000000e+00 0.0000000e+00 0.0000000e+00 
0.0000000e+00 0.0000000e+00 0.0000000e+00 
0.0000000e+00 0.0000000e+00 0.0000000e+00 
0.0000000e+00 0.0000000e+00 0.0000000e+00 
0.0000000e+00 0.0000000e+00 0.0000000e+00 
0.0000000e+00 -4.2940101e-05 -6.8709378e-06 
0.0000000e+00 -6.6000772e-05 0.0000000e+00 
0.0000000e+00 1.0884248e-04 0.0000000e+00 
0.0000000e+00 6.9329719e-05 0.0000000e+00 
0.0000000e+00 -2.2119236e-04 0.0000000e+00 
0.0000000e+00 7.6383491e-05 0.0000000e+00 
0.0000000e+00 -9.2104339e-05 0.0000000e+00 
0.0000000e+00 -2.7204584e-04 0.0000000e+00 
0.0000000e+00 7.1002396e-06 0.0000000e+00 
0.0000000e+00 2.4540443e-04 0.0000000e+00 
0.0000000e+00 5.7125067e-06 0.0000000e+00 
0.0000000e+00 8.6193453e-05 0.0000000e+00 
0.0000000e+00 -2.4552464e-05 0.0000000e+00 
0.0000000e+00 -1.2601967e-05 0.0000000e+00 
0.0000000e+00 2.4133589e-04 0.0000000e+00 
0.0000000e+00 1.4002566e-04 0.0000000e+00 
0.0000000e+00 -1.6719571e-04 0.0000000e+00 
0.0000000e+00 -7.1056718e-05 0.0000000e+00 
0.0000000e+00 -1.4981681e-04 0.0000000e+00 
0.0000000e+00 1.9478900e-04 0.0000000e+00 
0.0000000e+00 -7.7012742e-01 5.4151531e-02 
0.0000000e+00 -7.8892487e-01 0.0000000e+00 
0.0000000e+00 -8.0787128e-01 0.0000000e+00 
0.0000000e+00 -8.5291535e-01 0.0000000e+00 
0.0000000e+00 -9.7889411e-01 0.0000000e+00 
0.0000000e+00 -1.2323349e+00 0.0000000e+00 
0.0000000e+00 -8.7096751e-01 0.0000000e+00 
0.0000000e+00 -9.3805617e-01 0.0000000e+00 
0.0000000e+00 -5.3303933e-01 0.0000000e+00 
0.0000000e+00 1.0669988e-01 0.0000000e+00 
0.0000000e+00 -6.1809015e-01 0.0000000e+00 
0.0000000e+00 -8.6402506e-01 0.0000000e+00 
0.0000000e+00 -7.7896374e-01 0.0000000e+00 
0.0000000e+00 -9.8118871e-01 0.0000000e+00 
0.0000000e+00 -1.0353382e+00 0.0000000e+00 
0.0000000e+00 -1.1128029e+00 0.0000000e+00 
0.0000000e+00 -7.5942719e-01 0.0000000e+00 
0.0000000e+00 -1.0203480e+00 0.0000000e+00 
0.0000000e+00 1.2633354e-02 0.0000000e+00 
0.0000000e+00 -9.3961105e-02 0.0000000e+00 
3.4195192e-02 -6.3497669e-01 0.0000000e+00 
-8.5818209e-03 -6.9503635e-01 3.2115098e-02 
2.0949919e-02 -7.1450061e-01 0.0000000e+00 
-1.5478556e-04 -1.8389906e-05 0.0000000e+00 
9.2335482e-05 4.0939220e-04 0.0000000e+00 
4.3383340e-04 3.8023671e-04 0.0000000e+00 
-3.3122491e-05 1.2145818e-03 0.0000000e+00 
-2.8597820e-05 2.2318496e-03 0.0000000e+00 
-1.5816850e-03 -1.0561326e-03 0.0000000e+00 
6.3734627e-03 2.3174121e-03 0.0000000e+00 
1.2607521e-02 -8.5772295e-03 0.0000000e+00 
-1.1834976e-02 -2.5848975e-02 0.0000000e+00 
-2.7384724e-02 2.3183106e-02 0.0000000e+00 
-1.5072365e-02 8.8910513e-02 0.0000000e+00 
1.9403975e-01 -1.0074517e-02 0.0000000e+00 
1.3522922e-01 -1.8700212e-01 0.0000000e+00 
-2.0183931e-01 1.8818796e-01 0.0000000e+00 
-8.3985585e-01 2.0461360e-02 0.0000000e+00 
-8.1590879e-01 -9.5016468e-01 0.0000000e+00 
-2.2619556e-01 -1.2365673e+00 0.0000000e+00 
-2.0981506e-03 -9.4474483e-01 0.0000000e+00 
4.1845884e-05 -6.4454056e-05 0.0000000e+00 
2.3777509e-04 2.3407496e-04 0.0000000e+00 
2.8146556e-04 -1.1639637e-03 0.0000000e+00 
-5.6822965e-04 -7.1940936e-05 0.0000000e+00 
1.1238486e-03 -1.1748816e-03 0.0000000e+00 
1.7381029e-04 -1.9455680e-03 0.0000000e+00 
3.4430905e-03 -1.8925702e-03 0.0000000e+00 
-6.5370454e-03 -1.1079252e-02 0.0000000e+00 
-7.2703566e-03 -1.6757454e-03 0.0000000e+00 
6.0109650e-03 4.9845260e-03 0.0000000e+00 
-4.5906217e-03 -2.9105160e-02 0.0000000e+00 
6.1121140e-02 -5.0026063e-02 0.0000000e+00 
1.6634233e-02 7.3797964e-02 0.0000000e+00 
7.6933682e-02 2.9429289e-02 0.0000000e+00 
-4.7242084e-01 2.0354809e-01 0.0000000e+00 
-9.8033625e-01 -4.6394476e-01 0.0000000e+00 
-4.8373103e-01 -1.3624439e+00 0.0000000e+00 
-8.4772922e-02 -1.0170088e+00 0.0000000e+00 
4.5198396e-02 -7.2023690e-01 0.0000000e+00 
-1.8989483e-01 1.5655904e-01 0.0000000e+00 
1.1375410e-01 -1.2049336e-01 0.0000000e+00 
1.5643507e-01 5.0900470e-02 0.0000000e+00 
-5.2842431e-02 6.1023857e-02 0.0000000e+00 
-4.3540078e-01 1.9490582e-01 0.0000000e+00 
8.8699907e-02 7.8873701e-02 0.0000000e+00 
6.9861308e-02 5.0925657e-02 0.0000000e+00 
1.0957731e-01 -1.5656421e-02 0.0000000e+00 
-8.1025381e-03 -3.6096018e-02 0.0000000e+00 
2.8175469e-02 -1.7736364e-02 0.0000000e+00 
-9.3345884e-03 -7.3216576e-04 0.0000000e+00 
-3.4728933e-03 -4.0635545e-04 0.0000000e+00 
-3.4539230e-04 -7.4830587e-04 0.0000000e+00 
-2.8582435e-02 1.3840288e-02 0.0000000e+00 
7.6959850e-03 5.2992452e-04 0.0000000e+00 
5.6279083e-03 -1.0587062e-02 0.0000000e+00 
7.2562122e-03 3.0015425e-03 0.0000000e+00 
9.4055349e-04 -5.2382977e-04 0.0000000e+00 
-6.4080807e-05 -4.2379720e-04 0.0000000e+00 
2.8232091e-06 2.8649578e-04 0.0000000e+00 
1.9391628e-04 6.7885395e-04 0.0000000e+00 
-1.4289590e-03 3.2413981e-04 0.0000000e+00 
-1.6090226e-04 2.3322926e-04 0.0000000e+00 
-2.2414658e-04 5.7455857e-04 0.0000000e+00 
1.3693546e-04 6.3764681e-05 0.0000000e+00 
3.1902196e-04 -4.7802928e-04 0.0000000e+00 
5.7862297e-04 -6.5512431e-04 0.0000000e+00 
-8.6778182e-01 -1.0644301e+00 0.0000000e+00 
-3.0849552e-02 -1.3070643e+00 0.0000000e+00 
3.1492524e-02 -8.7096912e-01 0.0000000e+00 
-9.6077687e-01 -3.1681040e-01 0.0000000e+00 
-4.3986875e-01 -1.3448139e+00 0.0000000e+00 
2.1873342e-03 -1.0435001e+00 0.0000000e+00 
-5.5453509e-02 -8.0673099e-01 0.0000000e+00 
2.8178206e-04 2.6827063e-02 0.0000000e+00 
4.3357542e-04 1.4532462e-03 0.0000000e+00 
-2.6428911e-01 2.5846472e-01 0.0000000e+00 
-1.5361503e-02 1.9264480e-02 0.0000000e+00 
-2.7271286e-03 2.2955711e-03 0.0000000e+00 
1.6985707e-04 3.5794282e-03 0.0000000e+00 
2.2422571e-01 -9.4630295e-01 0.0000000e+00 
-1.7982300e-05 -8.4246662e-05 0.0000000e+00 
7.6262206e-03 -2.4845472e-02 0.0000000e+00 
1.5900591e-01 3.9799534e-02 0.0000000e+00 
1.0494205e-02 -4.7290688e-03 0.0000000e+00 
-5.2707433e-04 -2.7639963e-04 0.0000000e+00 
-3.8786316e-01 -1.3300982e+00 0.0000000e+00 
-1.1999076e-02 7.8989314e-03 0.0000000e+00 
8.8388618e-04 4.2505862e-04 0.0000000e+00 
-1.3994899e-01 -9.1047782e-01 0.0000000e+00 
1.6378444e-04 2.5874196e-04 0.0000000e+00 
-5.5840112e-02 -9.0187766e-02 0.0000000e+00 
1.3058649e-04 1.0239648e-04 0.0000000e+00 
2.1573812e-01 -1.0361586e+00 0.0000000e+00 
2.7308480e-03 -8.1115335e-01 0.0000000e+00 
-1.2569827e-04 -2.1528924e-04 0.0000000e+00 
-2.7400572e-04 1.3085829e-04 0.0000000e+00 
-3.4332210e-01 -3.9456797e-01 0.0000000e+00 
-1.1838653e-01 1.1038043e-01 0.0000000e+00 
9.1074273e-02 3.9536741e-01 0.0000000e+00 
2.7997267e-01 2.6906091e-01 0.0000000e+00 
2.3755045e-01 -5.6702595e-02 0.0000000e+00 
2.9773226e-01 -5.9812292e-02 0.0000000e+00 
3.2518423e-01 -5.8027979e-02 0.0000000e+00 
3.7047771e-01 -1.0746311e-01 0.0000000e+00 
-2.6890358e-02 -8.3156817e-02 0.0000000e+00 
3.3680794e-01 -2.4875945e-01 0.0000000e+00 
2.9989365e-01 -2.5442919e-01 0.0000000e+00 
5.1412481e-01 -4.4130799e-01 0.0000000e+00 
1.2024704e-01 -1.0253668e-01 0.0000000e+00 
1.6956286e-01 -2.4831198e-01 0.0000000e+00 
5.1155478e-01 -5.8456600e-01 0.0000000e+00 
-3.0141564e-02 4.2088471e-02 0.0000000e+00 
4.8627949e-01 -4.8714516e-01 0.0000000e+00 
3.8596345e-03 -1.6278069e-02 0.0000000e+00 
2.8303238e-02 8.7038334e-03 0.0000000e+00 
-1.1227650e-03 -4.0035475e-02 0.0000000e+00 
2.2825237e-02 2.3896806e-02 0.0000000e+00 
2.1787418e-02 5.9355978e-02 0.0000000e+00 
-9.0217181e-03 -7.9378532e-04 0.0000000e+00 
1.1133092e-02 5.8146790e-03 0.0000000e+00 
-9.4380474e-04 -2.4273873e-03 0.0000000e+00 
1.9371408e-04 3.1375850e-03 0.0000000e+00 
8.2657114e-03 1.9271379e-02 0.0000000e+00 
-6.9627436e-03 -6.4445855e-03 0.0000000e+00 
-2.1764897e-03 -2.2311963e-04 0.0000000e+00 
2.8457276e-03 -3.5233151e-03 0.0000000e+00 
-5.0484919e-04 -1.1517812e-03 0.0000000e+00 
1.4603690e-03 1.6326673e-03 0.0000000e+00 
-7.2379125e-04 1.4176622e-03 0.0000000e+00 
-5.5621215e-04 3.3799716e-04 0.0000000e+00 
-1.0930869e-03 7.6824479e-04 0.0000000e+00 
-4.2090667e-04 -5.7178349e-03 0.0000000e+00 
4.3641357e-04 -5.5391819e-04 0.0000000e+00 
2.0165629e-05 1.8054938e-04 0.0000000e+00 
-3.6417535e-03 2.3891060e-03 0.0000000e+00 
5.0021353e-04 -1.7125567e-04 0.0000000e+00 
4.1353300e-01 -6.2585479e-01 0.0000000e+00 
5.7384791e-03 4.7985487e-02 0.0000000e+00 
-8.7784330e-04 -9.9733565e-04 0.0000000e+00 
-8.3670393e-04 -2.2573814e-04 0.0000000e+00 
2.4835791e-02 2.2526970e-03 0.0000000e+00 
-7.4076424e-03 -6.3826665e-02 0.0000000e+00 
6.4877564e-01 -4.5848617e-01 0.0000000e+00 
1.6432935e-01 -4.3603206e-01 0.0000000e+00 
-4.1835921e-04 8.8748574e-04 0.0000000e+00 
4.5194878e-04 -2.4282275e-05 0.0000000e+00 
-1.7517500e-04 -7.0334465e-04 0.0000000e+00 
5.2861816e-01 -8.4331506e-01 0.0000000e+00 
4.8665147e-02 3.0065289e-02 0.0000000e+00 
7.1369570e-01 -2.1824622e-01 0.0000000e+00 
-3.0833069e-02 5.9034228e-03 0.0000000e+00 
-8.9888438e-04 9.0693118e-04 0.0000000e+00 
3.2832456e-04 -2.0096995e-06 0.0000000e+00 
1.2429672e-01 -7.3756772e-01 0.0000000e+00 
-2.3653732e-01 -1.1658838e+00 0.0000000e+00 
2.2141356e-02 -8.4967874e-03 0.0000000e+00 
2.7752033e-02 4.1169055e-02 0.0000000e+00 
-1.2606032e-03 -9.8556944e-04 0.0000000e+00 
-8.7331391e-05 3.6125103e-04 0.0000000e+00 
-9.5726427e-05 9.4988762e-04 0.0000000e+00 
8.3317340e-04 9.2746422e-04 0.0000000e+00 
-7.7276614e-05 -6.1486237e-05 0.0000000e+00 
2.2480914e-02 1.5027428e-02 0.0000000e+00 
6.3342587e-03 3.3554245e-02 0.0000000e+00 
4.1880004e-02 2.4734585e-02 0.0000000e+00 
-8.7789487e-04 -4.0128735e-01 0.0000000e+00 
-4.2951904e-04 5.9376436e-04 0.0000000e+00 
3.6291096e-01 -1.0108542e+00 0.0000000e+00 
-2.3725918e-02 2.8200338e-02 0.0000000e+00 
1.6025535e-04 -2.4009499e-04 0.0000000e+00 
-2.0504251e-04 -9.3014678e-04 0.0000000e+00 
6.8147886e-01 -7.3529750e-01 0.0000000e+00 
-3.2686490e-01 -1.0389692e+00 0.0000000e+00 
-2.8642860e-01 -1.2279940e+00 0.0000000e+00 
-1.6772577e-01 -9.4449097e-01 0.0000000e+00 
-1.9413240e-01 -8.8662761e-01 0.0000000e+00 
-1.3103025e-01 -1.2355186e+00 0.0000000e+00 
-1.8109931e-03 -1.6585362e-04 0.0000000e+00 
1.0355135e-03 2.4442424e-04 0.0000000e+00 
2.2745379e-03 1.4274024e-03 0.0000000e+00 
5.3478323e-04 -3.4644117e-03 0.0000000e+00 
-5.0487868e-03 -2.7541157e-03 0.0000000e+00 
1.0152746e-03 -4.0015173e-03 0.0000000e+00 
1.3369013e-02 2.2063630e-02 0.0000000e+00 
1.2496999e-02 2.5334410e-02 0.0000000e+00 
2.1912390e-04 2.2872961e-04 0.0000000e+00 
-1.2964263e-04 -3.5493224e-04 0.0000000e+00 
1.5003606e-05 -6.2617788e-04 0.0000000e+00 
-1.2513540e-05 9.3540591e-05 0.0000000e+00 
-2.2953708e-04 2.8567924e-04 0.0000000e+00 
1.9285057e-01 -4.9236674e-02 0.0000000e+00 
-6.6591206e-04 -1.4115642e-03 0.0000000e+00 
5.9873919e-04 4.5544308e-05 0.0000000e+00 
5.0025159e-01 1.2792940e-01 0.0000000e+00 
-3.7747510e-03 1.1228671e-02 0.0000000e+00 
5.4355431e-03 1.1523420e-04 0.0000000e+00 
-1.2113194e-03 7.9173129e-04 0.0000000e+00 
-2.2767188e-03 9.5699942e-03 0.0000000e+00 
1.1672861e-02 7.3503897e-02 0.0000000e+00 
-1.3821860e-03 9.0796305e-03 0.0000000e+00 
-7.9955824e-04 4.6208897e-04 0.0000000e+00 
-4.0579289e-02 1.5874635e-01 0.0000000e+00 
3.9793022e-02 -8.6641595e-02 0.0000000e+00 
5.4769568e-02 -1.2384250e-02 0.0000000e+00 
8.1054261e-03 -1.1330859e-02 0.0000000e+00 
-5.9740110e-03 -1.4906887e-02 0.0000000e+00 
-5.4411357e-04 2.8933452e-03 0.0000000e+00 
-3.1766106e-04 8.8069857e-05 0.0000000e+00 
8.5152108e-03 -6.0883649e-03 0.0000000e+00 
-1.7066261e-03 -9.9495975e-03 0.0000000e+00 
-7.8825895e-03 3.0031537e-03 0.0000000e+00 
-6.9413362e-03 -3.0946040e-03 0.0000000e+00 
-9.9138194e-04 4.3293545e-03 0.0000000e+00 
6.2562930e-03 -2.9138902e-03 0.0000000e+00 
-1.5429904e-03 -3.0031842e-03 0.0000000e+00 
-5.3769920e-04 7.2010711e-04 0.0000000e+00 
2.3109509e-04 3.9172545e-04 0.0000000e+00 
6.6691982e-03 1.3024090e-02 0.0000000e+00 
-2.7532654e-02 9.0322070e-02 0.0000000e+00 
9.4124056e-02 -4.6303224e-02 0.0000000e+00 
5.0599584e-03 -1.9787189e-03 0.0000000e+00 
3.2242579e-06 -1.8312673e-03 0.0000000e+00 
-3.4580419e-03 2.9362107e-04 0.0000000e+00 
2.6595064e-03 -4.2666201e-03 0.0000000e+00 
4.5523322e-03 -3.9324011e-03 0.0000000e+00 
6.2441789e-03 1.9723242e-03 0.0000000e+00 
1.1405420e-03 9.0855802e-04 0.0000000e+00 
2.8203560e-06 -3.5114717e-05 0.0000000e+00 
5.3441167e-02 -8.5804248e-01 0.0000000e+00 
1.9483052e-01 1.9469758e-02 0.0000000e+00 
6.4059758e-01 -1.7012073e-01 0.0000000e+00 
7.2314893e-04 -8.7856955e-04 0.0000000e+00 
-1.1191777e-02 -9.7033130e-03 0.0000000e+00 
-4.8131887e-03 -6.5957056e-03 0.0000000e+00 
-4.0027410e-02 5.4100983e-02 0.0000000e+00 
-3.4383400e-03 2.0766836e-03 0.0000000e+00 
2.2945264e-02 1.1645826e-02 0.0000000e+00 
2.6497963e-01 -7.7725345e-01 0.0000000e+00 
-2.4527265e-03 -2.1772366e-02 0.0000000e+00 
3.3696564e-03 2.7837308e-02 0.0000000e+00 
-1.9831458e-01 -9.1359890e-01 0.0000000e+00 
-2.8385898e-02 -7.6069482e-02 0.0000000e+00 
4.6808699e-01 -2.1142823e-01 0.0000000e+00 
1.0580861e-03 -1.4364641e-03 0.0000000e+00 
3.6344987e-03 2.4137050e-03 0.0000000e+00 
6.5342183e-03 3.5429124e-02 0.0000000e+00 
-2.7332106e-03 -1.1958174e-03 0.0000000e+00 
-2.7247286e-01 -1.2014074e+00 0.0000000e+00 
-2.6512977e-01 -1.0524980e+00 0.0000000e+00 
-2.8061786e-01 -1.0750567e+00 0.0000000e+00 
2.8531326e-03 -7.6904249e-01 0.0000000e+00 
-2.6968978e-02 -3.2388829e-02 0.0000000e+00 
8.7519047e-06 1.7699966e-04 0.0000000e+00 
3.2812369e-04 -1.5867420e-04 0.0000000e+00 
7.0703543e-05 2.2409692e-04 0.0000000e+00 
-8.2991019e-02 -3.9139667e-01 0.0000000e+00 
3.7778860e-01 -7.8437370e-01 0.0000000e+00 
6.7549947e-05 3.3436404e-04 0.0000000e+00 
2.3169762e-02 2.9873331e-03 0.0000000e+00 
-3.5891175e-02 -3.1453282e-02 0.0000000e+00 
8.1724813e-03 -2.3540221e-02 0.0000000e+00 
-9.6794413e-03 3.2548618e-02 0.0000000e+00 
1.8892789e-03 1.1887648e-03 0.0000000e+00 
2.2371919e-03 4.0008607e-03 0.0000000e+00 
-4.7228983e-05 -4.0519109e-05 0.0000000e+00 
-1.0780839e-01 -6.6535980e-01 0.0000000e+00 
-2.8286818e-02 1.8988942e-01 0.0000000e+00 
-2.2339342e-02 -9.9846110e-02 0.0000000e+00 
-9.4983801e-03 -1.5077676e-03 0.0000000e+00 
-2.8006039e-03 -1.9538980e-03 0.0000000e+00 
-6.3102478e-03 1.5786748e-03 0.0000000e+00 
1.2700070e-03 -9.1523438e-04 0.0000000e+00 
-1.7032543e-03 -5.4237589e-05 0.0000000e+00 
8.4465981e-04 3.6654275e-04 0.0000000e+00 
3.9410518e-04 2.1652275e-04 0.0000000e+00 
7.8005813e-02 4.7155139e-03 0.0000000e+00 
2.3997894e-02 -6.7649730e-03 0.0000000e+00 
-2.5153527e-02 -9.6067385e-04 0.0000000e+00 
-1.0658740e-01 -1.0879995e+00 0.0000000e+00 
-2.7464932e-05 -1.6721188e-04 0.0000000e+00 
1.7116419e-05 1.1985726e-04 0.0000000e+00 
-2.6193431e-02 -7.5440663e-01 0.0000000e+00 
2.4837531e-02 -4.0843204e-02 0.0000000e+00 