# vtk DataFile Version 4.0
vtk output
ASCII
DATASET UNSTRUCTURED_GRID
POINTS 460 float
0.0000000e+00 0.0000000e+00 0.0000000e+00 
5.0000000e+00 0.0000000e+00 0.0000000e+00 
5.0000000e+00 3.0000000e+00 0.0000000e+00 
0.0000000e+00 3.0000000e+00 0.0000000e+00 
0.0000000e+00 0.0000000e+00 1.0000000e+01 
5.0000000e+00 0.0000000e+00 1.0000000e+01 
5.0000000e+00 3.0000000e+00 1.0000000e+01 
0.0000000e+00 3.0000000e+00 1.0000000e+01 
1.0000000e+00 3.0000000e+00 -5.0000000e+00 
1.0000000e+00 3.0000000e+00 -4.5000000e+00 
1.0000000e+00 3.0000000e+00 -4.0000000e+00 
1.0000000e+00 3.0000000e+00 -3.5000000e+00 
1.0000000e+00 3.0000000e+00 -3.0000000e+00 
1.0000000e+00 3.0000000e+00 -2.5000000e+00 
1.0000000e+00 3.0000000e+00 -2.0000000e+00 
1.0000000e+00 3.0000000e+00 -1.5000000e+00 
1.0000000e+00 3.0000000e+00 -1.0000000e+00 
1.0000000e+00 3.0000000e+00 -5.0000000e-01 
1.0000000e+00 3.0000000e+00 0.0000000e+00 
1.0000000e+00 3.0000000e+00 5.0000000e-01 
1.0000000e+00 3.0000000e+00 1.0000000e+00 
1.0000000e+00 3.0000000e+00 1.5000000e+00 
1.0000000e+00 3.0000000e+00 2.0000000e+00 
1.0000000e+00 3.0000000e+00 2.5000000e+00 
1.0000000e+00 3.0000000e+00 3.0000000e+00 
1.0000000e+00 3.0000000e+00 3.5000000e+00 
1.0000000e+00 3.0000000e+00 4.0000000e+00 
1.0000000e+00 3.0000000e+00 4.5000000e+00 
1.0000000e+00 3.0000000e+00 5.0000000e+00 
1.0000000e+00 3.0000000e+00 5.5000000e+00 
1.0000000e+00 3.0000000e+00 6.0000000e+00 
1.0000000e+00 3.0000000e+00 6.5000000e+00 
1.0000000e+00 3.0000000e+00 7.0000000e+00 
1.0000000e+00 3.0000000e+00 7.5000000e+00 
1.0000000e+00 3.0000000e+00 8.0000000e+00 
1.0000000e+00 3.0000000e+00 8.5000000e+00 
1.0000000e+00 3.0000000e+00 9.0000000e+00 
1.0000000e+00 3.0000000e+00 9.5000000e+00 
1.0000000e+00 3.0000000e+00 1.0000000e+01 
1.0000000e+00 3.0000000e+00 1.0500000e+01 
1.0000000e+00 3.0000000e+00 1.1000000e+01 
1.0000000e+00 3.0000000e+00 1.1500000e+01 
1.0000000e+00 3.0000000e+00 1.2000000e+01 
1.0000000e+00 3.0000000e+00 1.2500000e+01 
1.0000000e+00 3.0000000e+00 1.3000000e+01 
1.0000000e+00 3.0000000e+00 1.3500000e+01 
1.0000000e+00 3.0000000e+00 1.4000000e+01 
1.0000000e+00 3.0000000e+00 1.4500000e+01 
1.0000000e+00 3.0250001e+00 -5.0000000e+00 
1.0000000e+00 3.0250001e+00 -4.5000000e+00 
1.0000000e+00 3.0250001e+00 -4.0000000e+00 
1.0000000e+00 3.0250001e+00 -3.5000000e+00 
1.0000000e+00 3.0250001e+00 -3.0000000e+00 
1.0000000e+00 3.0250001e+00 -2.5000000e+00 
1.0000000e+00 3.0250001e+00 -2.0000000e+00 
1.0000000e+00 3.0250001e+00 -1.5000000e+00 
1.0000000e+00 3.0250001e+00 -1.0000000e+00 
1.0000000e+00 3.0250001e+00 -5.0000000e-01 
1.0000000e+00 3.0250001e+00 0.0000000e+00 
1.0000000e+00 3.0250001e+00 5.0000000e-01 
1.0000000e+00 3.0250001e+00 1.0000000e+00 
1.0000000e+00 3.0250001e+00 1.5000000e+00 
1.0000000e+00 3.0250001e+00 2.0000000e+00 
1.0000000e+00 3.0250001e+00 2.5000000e+00 
1.0000000e+00 3.0250001e+00 3.0000000e+00 
1.0000000e+00 3.0250001e+00 3.5000000e+00 
1.0000000e+00 3.0250001e+00 4.0000000e+00 
1.0000000e+00 3.0250001e+00 4.5000000e+00 
1.0000000e+00 3.0250001e+00 5.0000000e+00 
1.0000000e+00 3.0250001e+00 5.5000000e+00 
1.0000000e+00 3.0250001e+00 6.0000000e+00 
1.0000000e+00 3.0250001e+00 6.5000000e+00 
1.0000000e+00 3.0250001e+00 7.0000000e+00 
1.0000000e+00 3.0250001e+00 7.5000000e+00 
1.0000000e+00 3.0250001e+00 8.0000000e+00 
1.0000000e+00 3.0250001e+00 8.5000000e+00 
1.0000000e+00 3.0250001e+00 9.0000000e+00 
1.0000000e+00 3.0250001e+00 9.5000000e+00 
1.0000000e+00 3.0250001e+00 1.0000000e+01 
1.0000000e+00 3.0250001e+00 1.0500000e+01 
1.0000000e+00 3.0250001e+00 1.1000000e+01 
1.0000000e+00 3.0250001e+00 1.1500000e+01 
1.0000000e+00 3.0250001e+00 1.2000000e+01 
1.0000000e+00 3.0250001e+00 1.2500000e+01 
1.0000000e+00 3.0250001e+00 1.3000000e+01 
1.0000000e+00 3.0250001e+00 1.3500000e+01 
1.0000000e+00 3.0250001e+00 1.4000000e+01 
1.0000000e+00 3.0250001e+00 1.4500000e+01 
1.0000000e+00 -2.0000000e+00 -5.0000000e+00 
1.0000000e+00 -2.0000000e+00 -4.5000000e+00 
1.0000000e+00 -2.0000000e+00 -4.0000000e+00 
1.0000000e+00 -2.0000000e+00 -3.5000000e+00 
1.0000000e+00 -2.0000000e+00 -3.0000000e+00 
1.0000000e+00 -2.0000000e+00 -2.5000000e+00 
1.0000000e+00 -2.0000000e+00 -2.0000000e+00 
1.0000000e+00 -2.0000000e+00 -1.5000000e+00 
1.0000000e+00 -2.0000000e+00 -1.0000000e+00 
1.0000000e+00 -2.0000000e+00 -5.0000000e-01 
1.0000000e+00 -2.0000000e+00 1.0500000e+01 
1.0000000e+00 -2.0000000e+00 1.1000000e+01 
1.0000000e+00 -2.0000000e+00 1.1500000e+01 
1.0000000e+00 -2.0000000e+00 1.2000000e+01 
1.0000000e+00 -2.0000000e+00 1.2500000e+01 
1.0000000e+00 -2.0000000e+00 1.3000000e+01 
1.0000000e+00 -2.0000000e+00 1.3500000e+01 
1.0000000e+00 -2.0000000e+00 1.4000000e+01 
1.0000000e+00 -2.0000000e+00 1.4500000e+01 
1.0000000e+00 0.0000000e+00 0.0000000e+00 
2.0000000e+00 0.0000000e+00 0.0000000e+00 
3.0000000e+00 0.0000000e+00 0.0000000e+00 
4.0000000e+00 0.0000000e+00 0.0000000e+00 
5.0000000e+00 1.0000000e+00 0.0000000e+00 
5.0000000e+00 2.0000000e+00 0.0000000e+00 
0.0000000e+00 2.0000000e+00 0.0000000e+00 
0.0000000e+00 1.0000000e+00 0.0000000e+00 
0.0000000e+00 0.0000000e+00 1.0000000e+00 
0.0000000e+00 0.0000000e+00 2.0000000e+00 
0.0000000e+00 0.0000000e+00 3.0000000e+00 
0.0000000e+00 0.0000000e+00 4.0000000e+00 
0.0000000e+00 0.0000000e+00 5.0000000e+00 
0.0000000e+00 0.0000000e+00 6.0000000e+00 
0.0000000e+00 0.0000000e+00 7.0000000e+00 
0.0000000e+00 0.0000000e+00 8.0000000e+00 
0.0000000e+00 0.0000000e+00 9.0000000e+00 
5.0000000e+00 0.0000000e+00 1.0000000e+00 
5.0000000e+00 0.0000000e+00 2.0000000e+00 
5.0000000e+00 0.0000000e+00 3.0000000e+00 
5.0000000e+00 0.0000000e+00 4.0000000e+00 
5.0000000e+00 0.0000000e+00 5.0000000e+00 
5.0000000e+00 0.0000000e+00 6.0000000e+00 
5.0000000e+00 0.0000000e+00 7.0000000e+00 
5.0000000e+00 0.0000000e+00 8.0000000e+00 
5.0000000e+00 0.0000000e+00 9.0000000e+00 
1.0000000e+00 0.0000000e+00 1.0000000e+01 
2.0000000e+00 0.0000000e+00 1.0000000e+01 
3.0000000e+00 0.0000000e+00 1.0000000e+01 
4.0000000e+00 0.0000000e+00 1.0000000e+01 
5.0000000e+00 3.0000000e+00 1.0000000e+00 
5.0000000e+00 3.0000000e+00 2.0000000e+00 
5.0000000e+00 3.0000000e+00 3.0000000e+00 
5.0000000e+00 3.0000000e+00 4.0000000e+00 
5.0000000e+00 3.0000000e+00 5.0000000e+00 
5.0000000e+00 3.0000000e+00 6.0000000e+00 
5.0000000e+00 3.0000000e+00 7.0000000e+00 
5.0000000e+00 3.0000000e+00 8.0000000e+00 
5.0000000e+00 3.0000000e+00 9.0000000e+00 
5.0000000e+00 1.0000000e+00 1.0000000e+01 
5.0000000e+00 2.0000000e+00 1.0000000e+01 
0.0000000e+00 3.0000000e+00 1.0000000e+00 
0.0000000e+00 3.0000000e+00 2.0000000e+00 
0.0000000e+00 3.0000000e+00 3.0000000e+00 
0.0000000e+00 3.0000000e+00 4.0000000e+00 
0.0000000e+00 3.0000000e+00 5.0000000e+00 
0.0000000e+00 3.0000000e+00 6.0000000e+00 
0.0000000e+00 3.0000000e+00 7.0000000e+00 
0.0000000e+00 3.0000000e+00 8.0000000e+00 
0.0000000e+00 3.0000000e+00 9.0000000e+00 
0.0000000e+00 2.0000000e+00 1.0000000e+01 
0.0000000e+00 1.0000000e+00 1.0000000e+01 
4.0000000e+00 3.0000000e+00 0.0000000e+00 
3.0000000e+00 3.0000000e+00 0.0000000e+00 
2.0000000e+00 3.0000000e+00 0.0000000e+00 
4.0000000e+00 3.0000000e+00 1.0000000e+01 
3.0000000e+00 3.0000000e+00 1.0000000e+01 
2.0000000e+00 3.0000000e+00 1.0000000e+01 
4.0618000e+00 1.5000000e+00 0.0000000e+00 
1.5046000e+00 7.6549745e-01 0.0000000e+00 
2.5000000e+00 2.1339746e+00 0.0000000e+00 
1.5046000e+00 2.2345026e+00 0.0000000e+00 
2.4957771e+00 8.1560516e-01 0.0000000e+00 
3.4707544e+00 2.2336540e+00 0.0000000e+00 
3.4700506e+00 7.5794268e-01 0.0000000e+00 
8.6322361e-01 1.5000000e+00 0.0000000e+00 
2.0000000e+00 1.5000000e+00 0.0000000e+00 
2.9960666e+00 1.4974480e+00 0.0000000e+00 
4.2679491e+00 7.3205084e-01 0.0000000e+00 
4.2679491e+00 2.2679491e+00 0.0000000e+00 
7.2695929e-01 2.2730408e+00 0.0000000e+00 
7.2695929e-01 7.2695929e-01 0.0000000e+00 
4.1822505e+00 0.0000000e+00 2.5515697e+00 
4.2017918e+00 0.0000000e+00 4.4725966e+00 
4.1114569e+00 0.0000000e+00 6.5092020e+00 
8.6602539e-01 0.0000000e+00 3.5000000e+00 
8.4778279e-01 0.0000000e+00 5.4684029e+00 
8.9629614e-01 0.0000000e+00 7.5867257e+00 
2.5566745e+00 0.0000000e+00 8.1853306e-01 
2.4918270e+00 0.0000000e+00 9.1386929e+00 
8.4677207e-01 0.0000000e+00 1.5042374e+00 
4.0943027e+00 0.0000000e+00 8.4081745e+00 
8.6281651e-01 0.0000000e+00 2.5007062e+00 
1.7315160e+00 0.0000000e+00 3.0001178e+00 
1.7319617e+00 0.0000000e+00 4.0000196e+00 
2.5980761e+00 0.0000000e+00 3.5000000e+00 
2.5536871e+00 0.0000000e+00 4.4963923e+00 
2.5928419e+00 0.0000000e+00 2.4239938e+00 
1.5037409e+00 0.0000000e+00 9.1535149e+00 
1.8433737e+00 0.0000000e+00 8.1858873e+00 
3.0000000e+00 0.0000000e+00 8.2679491e+00 
2.5000000e+00 0.0000000e+00 7.4019237e+00 
3.5042722e+00 0.0000000e+00 7.4271150e+00 
3.0310018e+00 0.0000000e+00 6.5282087e+00 
2.0373929e+00 0.0000000e+00 6.5307913e+00 
3.4767809e+00 0.0000000e+00 5.8031492e+00 
2.5452602e+00 0.0000000e+00 5.5720768e+00 
1.6456656e+00 0.0000000e+00 1.9697139e+00 
8.6297011e-01 0.0000000e+00 4.4947371e+00 
1.0111579e+00 0.0000000e+00 6.5282545e+00 
3.4994321e+00 0.0000000e+00 8.4691072e-01 
4.1860156e+00 0.0000000e+00 3.5040276e+00 
1.7320508e+00 0.0000000e+00 5.0000000e+00 
4.0544066e+00 0.0000000e+00 1.5781221e+00 
1.5817389e+00 0.0000000e+00 9.3943578e-01 
8.3166349e-01 0.0000000e+00 8.5090933e+00 
3.4686174e+00 0.0000000e+00 9.1752682e+00 
3.0709300e+00 0.0000000e+00 1.5799091e+00 
3.3927374e+00 0.0000000e+00 3.0399952e+00 
3.3826034e+00 0.0000000e+00 3.9747651e+00 
4.3420062e+00 0.0000000e+00 7.4688983e+00 
3.4023225e+00 0.0000000e+00 4.9314723e+00 
1.6740381e+00 0.0000000e+00 7.3014426e+00 
4.2715640e+00 0.0000000e+00 5.4758859e+00 
1.6225953e+00 0.0000000e+00 5.8104177e+00 
4.2679491e+00 0.0000000e+00 9.2679491e+00 
7.3205084e-01 0.0000000e+00 7.3205084e-01 
4.2679491e+00 0.0000000e+00 7.3205084e-01 
7.3205084e-01 0.0000000e+00 9.2679491e+00 
3.4586334e+00 0.0000000e+00 2.2347178e+00 
2.2895701e+00 0.0000000e+00 1.5463171e+00 
5.0000000e+00 2.2345026e+00 1.5046000e+00 
[...]
POINT_DATA 460
FIELD FieldData 5
DISPLACEMENT 3 460  float
0.0000000e+00 0.0000000e+00 0.0000000e+00 
0.0000000e+00 0.0000000e+00 0.0000000e+00 
0.0000000e+00 1.6131638e-07 0.0000000e+00 
0.0000000e+00 1.6343608e-06 0.0000000e+00 
0.0000000e+00 0.0000000e+00 0.0000000e+00 
0.0000000e+00 0.0000000e+00 0.0000000e+00 
0.0000000e+00 -2.5991351e-06 0.0000000e+00 
0.0000000e+00 -4.6886595e-05 0.0000000e+00 
0.0000000e+00 5.7754155e-06 0.0000000e+00 
0.0000000e+00 6.8741228e-06 0.0000000e+00 
0.0000000e+00 8.6428936e-06 0.0000000e+00 
0.0000000e+00 1.0328942e-05 0.0000000e+00 
0.0000000e+00 8.8027500e-06 0.0000000e+00 
0.0000000e+00 3.7611010e-06 0.0000000e+00 
0.0000000e+00 -1.1729215e-07 0.0000000e+00 
0.0000000e+00 -2.3817181e-06 0.0000000e+00 
0.0000000e+00 -2.4928795e-06 0.0000000e+00 
0.0000000e+00 -1.4157759e-07 0.0000000e+00 
0.0000000e+00 1.2744301e-06 0.0000000e+00 
1.3034821e-07 1.9392871e-06 2.9617470e-07 
2.2591139e-07 3.6855558e-06 1.1295911e-07 
-2.6477490e-08 5.9700142e-06 6.0433689e-07 
-5.6480729e-07 7.3040360e-06 1.2141035e-06 
-2.9322402e-07 -3.6536844e-07 1.1904084e-06 
-2.6847925e-07 -9.1385673e-06 1.5071560e-06 
-8.2896736e-07 -9.0272197e-06 1.6790497e-06 
-1.5569162e-06 -7.7010818e-06 3.2372059e-06 
-1.9936992e-06 -1.0653582e-05 4.4173148e-06 
-3.0955707e-06 -2.1666812e-05 7.6451770e-06 
-4.0077089e-06 -3.5637753e-05 1.0507618e-05 
-4.0269147e-06 -5.1645577e-05 1.0167085e-05 
-5.1752727e-06 -8.8218454e-05 1.2093707e-05 
1.5702924e-06 -1.5072947e-04 1.8825151e-05 
2.4443927e-06 -2.1809255e-04 7.2783309e-06 
4.6015950e-07 -2.4218242e-04 -5.9631061e-06 
-1.3279829e-06 -1.9165347e-04 -1.8114537e-05 
-8.8981151e-06 -1.1812520e-04 -1.0133605e-05 
-4.1641479e-06 -6.4417618e-05 -1.0314269e-06 
0.0000000e+00 -3.7074889e-05 0.0000000e+00 
0.0000000e+00 -2.4003482e-05 0.0000000e+00 
0.0000000e+00 -1.5190585e-05 0.0000000e+00 
0.0000000e+00 -7.7398181e-06 0.0000000e+00 
0.0000000e+00 -2.4962796e-06 0.0000000e+00 
0.0000000e+00 1.7350260e-06 0.0000000e+00 
0.0000000e+00 3.6137801e-06 0.0000000e+00 
0.0000000e+00 3.7403358e-06 0.0000000e+00 
0.0000000e+00 4.3348550e-06 0.0000000e+00 
0.0000000e+00 4.7868216e-06 0.0000000e+00 
0.0000000e+00 5.7944912e-06 0.0000000e+00 
0.0000000e+00 6.8979361e-06 0.0000000e+00 
0.0000000e+00 8.6730242e-06 0.0000000e+00 
0.0000000e+00 1.0364183e-05 0.0000000e+00 
0.0000000e+00 8.8312418e-06 0.0000000e+00 
0.0000000e+00 3.7691209e-06 0.0000000e+00 
0.0000000e+00 -1.2704722e-07 0.0000000e+00 
0.0000000e+00 -2.4029114e-06 0.0000000e+00 
0.0000000e+00 -2.5139382e-06 0.0000000e+00 
0.0000000e+00 -1.4824556e-07 0.0000000e+00 
0.0000000e+00 1.2662533e-06 0.0000000e+00 
0.0000000e+00 1.9600873e-06 0.0000000e+00 
0.0000000e+00 3.7121879e-06 0.0000000e+00 
0.0000000e+00 6.1172914e-06 0.0000000e+00 
0.0000000e+00 7.4863965e-06 0.0000000e+00 
0.0000000e+00 -3.1525749e-07 0.0000000e+00 
0.0000000e+00 -9.3197114e-06 0.0000000e+00 
0.0000000e+00 -9.1096335e-06 0.0000000e+00 
0.0000000e+00 -7.7378918e-06 0.0000000e+00 
0.0000000e+00 -1.0652565e-05 0.0000000e+00 
0.0000000e+00 -2.1799813e-05 0.0000000e+00 
0.0000000e+00 -3.5798541e-05 0.0000000e+00 
0.0000000e+00 -5.1799849e-05 0.0000000e+00 
0.0000000e+00 -8.8714456e-05 0.0000000e+00 
0.0000000e+00 -1.5202200e-04 0.0000000e+00 
0.0000000e+00 -2.2128322e-04 0.0000000e+00 
0.0000000e+00 -2.4624396e-04 0.0000000e+00 
0.0000000e+00 -1.9440452e-04 0.0000000e+00 
0.0000000e+00 -1.1971428e-04 0.0000000e+00 
0.0000000e+00 -6.4915752e-05 0.0000000e+00 
0.0000000e+00 -3.6734466e-05 0.0000000e+00 
0.0000000e+00 -2.4112414e-05 0.0000000e+00 
0.0000000e+00 -1.5270578e-05 0.0000000e+00 
0.0000000e+00 -7.7877448e-06 0.0000000e+00 
0.0000000e+00 -2.5184384e-06 0.0000000e+00 
0.0000000e+00 1.7343439e-06 0.0000000e+00 
0.0000000e+00 3.6264425e-06 0.0000000e+00 
0.0000000e+00 3.7577299e-06 0.0000000e+00 
0.0000000e+00 4.3549894e-06 0.0000000e+00 
0.0000000e+00 4.8083762e-06 0.0000000e+00 
0.0000000e+00 0.0000000e+00 0.0000000e+00 
0.0000000e+00 0.0000000e+00 0.0000000e+00 
0.0000000e+00 0.0000000e+00 0.0000000e+00 
0.0000000e+00 0.0000000e+00 0.0000000e+00 
0.0000000e+00 0.0000000e+00 0.0000000e+00 
0.0000000e+00 0.0000000e+00 0.0000000e+00 
0.0000000e+00 0.0000000e+00 0.0000000e+00 
0.0000000e+00 0.0000000e+00 0.0000000e+00 
0.0000000e+00 0.0000000e+00 0.0000000e+00 
0.0000000e+00 0.0000000e+00 0.0000000e+00 
0.0000000e+00 0.0000000e+00 0.0000000e+00 
0.0000000e+00 0.0000000e+00 0.0000000e+00 
0.0000000e+00 0.0000000e+00 0.0000000e+00 
0.0000000e+00 0.0000000e+00 0.0000000e+00 
0.0000000e+00 0.0000000e+00 0.0000000e+00 
0.0000000e+00 0.0000000e+00 0.0000000e+00 
0.0000000e+00 0.0000000e+00 0.0000000e+00 
0.0000000e+00 0.0000000e+00 0.0000000e+00 
0.0000000e+00 0.0000000e+00 0.0000000e+00 
0.0000000e+00 0.0000000e+00 0.0000000e+00 
0.0000000e+00 0.0000000e+00 0.0000000e+00 
0.0000000e+00 0.0000000e+00 0.0000000e+00 
0.0000000e+00 0.0000000e+00 0.0000000e+00 
0.0000000e+00 7.1125136e-08 0.0000000e+00 
0.0000000e+00 1.4215348e-07 0.0000000e+00 
0.0000000e+00 1.3636845e-06 0.0000000e+00 
0.0000000e+00 6.8838278e-07 0.0000000e+00 
0.0000000e+00 0.0000000e+00 0.0000000e+00 
0.0000000e+00 0.0000000e+00 0.0000000e+00 
0.0000000e+00 0.0000000e+00 0.0000000e+00 
0.0000000e+00 0.0000000e+00 0.0000000e+00 
0.0000000e+00 0.0000000e+00 0.0000000e+00 
0.0000000e+00 0.0000000e+00 0.0000000e+00 
0.0000000e+00 0.0000000e+00 0.0000000e+00 
0.0000000e+00 0.0000000e+00 0.0000000e+00 
0.0000000e+00 0.0000000e+00 0.0000000e+00 
0.0000000e+00 0.0000000e+00 0.0000000e+00 
0.0000000e+00 0.0000000e+00 0.0000000e+00 
0.0000000e+00 0.0000000e+00 0.0000000e+00 
0.0000000e+00 0.0000000e+00 0.0000000e+00 
0.0000000e+00 0.0000000e+00 0.0000000e+00 
0.0000000e+00 0.0000000e+00 0.0000000e+00 
0.0000000e+00 0.0000000e+00 0.0000000e+00 
0.0000000e+00 0.0000000e+00 0.0000000e+00 
0.0000000e+00 0.0000000e+00 0.0000000e+00 
0.0000000e+00 0.0000000e+00 0.0000000e+00 
0.0000000e+00 0.0000000e+00 0.0000000e+00 
0.0000000e+00 0.0000000e+00 0.0000000e+00 
0.0000000e+00 0.0000000e+00 0.0000000e+00 
0.0000000e+00 2.2135191e-07 0.0000000e+00 
0.0000000e+00 3.4917551e-07 0.0000000e+00 
0.0000000e+00 3.6753650e-07 0.0000000e+00 
0.0000000e+00 4.2694376e-07 0.0000000e+00 
0.0000000e+00 -1.5085223e-07 0.0000000e+00 
0.0000000e+00 -3.2417825e-07 0.0000000e+00 
0.0000000e+00 -2.0961520e-06 0.0000000e+00 
0.0000000e+00 -1.7368108e-06 0.0000000e+00 
0.0000000e+00 -2.8448412e-06 0.0000000e+00 
0.0000000e+00 -1.6555711e-06 0.0000000e+00 
0.0000000e+00 -2.3943214e-06 0.0000000e+00 
0.0000000e+00 1.9877377e-06 0.0000000e+00 
0.0000000e+00 9.2789600e-07 0.0000000e+00 
0.0000000e+00 -3.8900394e-06 0.0000000e+00 
0.0000000e+00 -8.3640934e-06 0.0000000e+00 
0.0000000e+00 -1.8865423e-05 0.0000000e+00 
0.0000000e+00 -4.0404200e-05 0.0000000e+00 
0.0000000e+00 -8.6570340e-05 0.0000000e+00 
0.0000000e+00 -9.8374585e-05 0.0000000e+00 
0.0000000e+00 -6.8733403e-05 0.0000000e+00 
0.0000000e+00 -3.9453702e-05 0.0000000e+00 
0.0000000e+00 -2.0455320e-05 0.0000000e+00 
0.0000000e+00 2.8191781e-07 0.0000000e+00 
0.0000000e+00 5.4653844e-07 0.0000000e+00 
0.0000000e+00 1.0630703e-06 0.0000000e+00 
0.0000000e+00 -5.0372246e-06 0.0000000e+00 
0.0000000e+00 -1.3309370e-05 0.0000000e+00 
0.0000000e+00 -2.8734930e-05 0.0000000e+00 
0.0000000e+00 1.5541703e-07 0.0000000e+00 
0.0000000e+00 3.5897523e-07 0.0000000e+00 
0.0000000e+00 6.1730719e-07 0.0000000e+00 
0.0000000e+00 1.1306795e-06 0.0000000e+00 
0.0000000e+00 2.3597779e-07 0.0000000e+00 
0.0000000e+00 3.4939572e-07 0.0000000e+00 
0.0000000e+00 7.9829569e-08 0.0000000e+00 
0.0000000e+00 9.8026760e-07 0.0000000e+00 
0.0000000e+00 6.1999390e-07 0.0000000e+00 
0.0000000e+00 3.4249771e-07 0.0000000e+00 
0.0000000e+00 7.0532188e-08 0.0000000e+00 
0.0000000e+00 2.0293864e-07 0.0000000e+00 
0.0000000e+00 1.3879486e-06 0.0000000e+00 
0.0000000e+00 4.4087571e-07 0.0000000e+00 
0.0000000e+00 0.0000000e+00 0.0000000e+00 
0.0000000e+00 0.0000000e+00 0.0000000e+00 
0.0000000e+00 0.0000000e+00 0.0000000e+00 
0.0000000e+00 0.0000000e+00 0.0000000e+00 
0.0000000e+00 0.0000000e+00 0.0000000e+00 
0.0000000e+00 0.0000000e+00 0.0000000e+00 
0.0000000e+00 0.0000000e+00 0.0000000e+00 
0.0000000e+00 0.0000000e+00 0.0000000e+00 
0.0000000e+00 0.0000000e+00 0.0000000e+00 
0.0000000e+00 0.0000000e+00 0.0000000e+00 
0.0000000e+00 0.0000000e+00 0.0000000e+00 
0.0000000e+00 0.0000000e+00 0.0000000e+00 
0.0000000e+00 0.0000000e+00 0.0000000e+00 
0.0000000e+00 0.0000000e+00 0.0000000e+00 
0.0000000e+00 0.0000000e+00 0.0000000e+00 
0.0000000e+00 0.0000000e+00 0.0000000e+00 
0.0000000e+00 0.0000000e+00 0.0000000e+00 
0.0000000e+00 0.0000000e+00 0.0000000e+00 
0.0000000e+00 0.0000000e+00 0.0000000e+00 
0.0000000e+00 0.0000000e+00 0.0000000e+00 
0.0000000e+00 0.0000000e+00 0.0000000e+00 
0.0000000e+00 0.0000000e+00 0.0000000e+00 
0.0000000e+00 0.0000000e+00 0.0000000e+00 
0.0000000e+00 0.0000000e+00 0.0000000e+00 
0.0000000e+00 0.0000000e+00 0.0000000e+00 
0.0000000e+00 0.0000000e+00 0.0000000e+00 
0.0000000e+00 0.0000000e+00 0.0000000e+00 
0.0000000e+00 0.0000000e+00 0.0000000e+00 
0.0000000e+00 0.0000000e+00 0.0000000e+00 
0.0000000e+00 0.0000000e+00 0.0000000e+00 
0.0000000e+00 0.0000000e+00 0.0000000e+00 
0.0000000e+00 0.0000000e+00 0.0000000e+00 
0.0000000e+00 0.0000000e+00 0.0000000e+00 
0.0000000e+00 0.0000000e+00 0.0000000e+00 
0.0000000e+00 0.0000000e+00 0.0000000e+00 
0.0000000e+00 0.0000000e+00 0.0000000e+00 
0.0000000e+00 0.0000000e+00 0.0000000e+00 
0.0000000e+00 0.0000000e+00 0.0000000e+00 
0.0000000e+00 0.0000000e+00 0.0000000e+00 
0.0000000e+00 0.0000000e+00 0.0000000e+00 
0.0000000e+00 0.0000000e+00 0.0000000e+00 
0.0000000e+00 0.0000000e+00 0.0000000e+00 
0.0000000e+00 0.0000000e+00 0.0000000e+00 
0.0000000e+00 0.0000000e+00 0.0000000e+00 
0.0000000e+00 0.0000000e+00 0.0000000e+00 
0.0000000e+00 0.0000000e+00 0.0000000e+00 
0.0000000e+00 0.0000000e+00 0.0000000e+00 
0.0000000e+00 0.0000000e+00 0.0000000e+00 
0.0000000e+00 0.0000000e+00 0.0000000e+00 
0.0000000e+00 2.0829174e-07 0.0000000e+00 
0.0000000e+00 -1.9918546e-06 0.0000000e+00 
0.0000000e+00 4.4561835e-07 0.0000000e+00 
0.0000000e+00 5.8762577e-09 0.0000000e+00 
0.0000000e+00 -1.3064036e-06 0.0000000e+00 
0.0000000e+00 1.0717660e-07 0.0000000e+00 
0.0000000e+00 -3.7418463e-08 0.0000000e+00 
0.0000000e+00 -8.7114466e-07 0.0000000e+00 
0.0000000e+00 1.2099765e-07 0.0000000e+00 
0.0000000e+00 -1.1681939e-07 0.0000000e+00 
0.0000000e+00 3.7708205e-07 0.0000000e+00 
0.0000000e+00 3.9021029e-07 0.0000000e+00 
0.0000000e+00 -3.9219844e-07 0.0000000e+00 
0.0000000e+00 -1.3175763e-06 0.0000000e+00 
0.0000000e+00 5.4397940e-08 0.0000000e+00 
0.0000000e+00 -1.2584363e-06 0.0000000e+00 
0.0000000e+00 -1.4206543e-06 0.0000000e+00 
0.0000000e+00 1.0806844e-07 0.0000000e+00 
0.0000000e+00 4.4612502e-08 0.0000000e+00 
0.0000000e+00 -9.8666908e-07 0.0000000e+00 
0.0000000e+00 1.9079964e-07 0.0000000e+00 
0.0000000e+00 -2.6849730e-07 0.0000000e+00 
0.0000000e+00 3.3089552e-07 0.0000000e+00 
0.0000000e+00 2.6720718e-07 0.0000000e+00 
0.0000000e+00 -1.1887184e-06 0.0000000e+00 
0.0000000e+00 -2.0296891e-06 0.0000000e+00 
0.0000000e+00 -1.1543525e-06 0.0000000e+00 
0.0000000e+00 1.4012159e-07 0.0000000e+00 
0.0000000e+00 2.5169243e-08 0.0000000e+00 
0.0000000e+00 -4.0828279e-05 0.0000000e+00 
0.0000000e+00 1.0683800e-06 0.0000000e+00 
0.0000000e+00 -4.6525051e-07 0.0000000e+00 
0.0000000e+00 -4.7116550e-06 0.0000000e+00 
0.0000000e+00 -2.4800558e-05 0.0000000e+00 
0.0000000e+00 -5.0816657e-06 0.0000000e+00 
0.0000000e+00 -2.5342220e-05 0.0000000e+00 
0.0000000e+00 -7.5241238e-05 0.0000000e+00 
0.0000000e+00 -2.0026364e-06 0.0000000e+00 
0.0000000e+00 -1.3032269e-06 0.0000000e+00 
0.0000000e+00 -1.1544744e-05 0.0000000e+00 
0.0000000e+00 -5.1031653e-05 0.0000000e+00 
0.0000000e+00 -2.6789008e-05 0.0000000e+00 
0.0000000e+00 -7.4283569e-05 0.0000000e+00 
0.0000000e+00 1.4738782e-06 0.0000000e+00 
0.0000000e+00 2.8284555e-07 0.0000000e+00 
0.0000000e+00 -2.3301178e-05 0.0000000e+00 
0.0000000e+00 -1.2462147e-05 0.0000000e+00 
0.0000000e+00 -1.7795888e-05 0.0000000e+00 
0.0000000e+00 -5.9026838e-06 0.0000000e+00 
0.0000000e+00 -2.3623875e-06 0.0000000e+00 
0.0000000e+00 -4.3187327e-05 0.0000000e+00 
0.0000000e+00 -9.2828313e-06 0.0000000e+00 
0.0000000e+00 -5.2644496e-05 0.0000000e+00 
0.0000000e+00 3.1767865e-08 0.0000000e+00 
0.0000000e+00 -1.9097410e-05 0.0000000e+00 
0.0000000e+00 1.7020129e-06 0.0000000e+00 
0.0000000e+00 5.1755495e-07 0.0000000e+00 
0.0000000e+00 -5.2870746e-05 0.0000000e+00 
0.0000000e+00 -1.2661985e-05 0.0000000e+00 
0.0000000e+00 -3.1739339e-06 0.0000000e+00 
0.0000000e+00 -1.7862261e-05 0.0000000e+00 
0.0000000e+00 -3.1415064e-05 0.0000000e+00 
0.0000000e+00 -7.6648157e-06 0.0000000e+00 
0.0000000e+00 -6.5803461e-06 0.0000000e+00 
0.0000000e+00 -3.3576362e-06 0.0000000e+00 
0.0000000e+00 -2.7401171e-05 0.0000000e+00 
0.0000000e+00 -1.8084469e-05 0.0000000e+00 
0.0000000e+00 -9.2629607e-06 0.0000000e+00 
0.0000000e+00 -1.7716052e-06 0.0000000e+00 
0.0000000e+00 -3.1504085e-06 0.0000000e+00 
0.0000000e+00 -3.8451726e-05 0.0000000e+00 
0.0000000e+00 -1.3358492e-05 0.0000000e+00 
-3.0442625e-06 -1.0720261e-05 5.3999447e-06 
-8.7376220e-06 -4.1817078e-05 1.0166832e-05 
-7.5714102e-06 -1.1487605e-04 3.5218741e-06 
-3.1845559e-08 3.6200632e-07 9.4227585e-07 
-6.1643033e-07 -4.7513722e-06 1.7798767e-06 
-2.0057073e-06 -9.2928303e-07 9.6317319e-07 
-1.2737441e-07 3.6701937e-07 2.8978221e-08 
-3.5279133e-06 -3.2831583e-06 5.4256651e-07 
3.2704665e-07 2.3855976e-06 3.8877651e-08 
-8.0091031e-06 -8.1324011e-05 -8.4834846e-06 
2.8466218e-07 3.9627955e-07 -1.0920450e-07 
-5.1244206e-06 -9.0981448e-06 -1.1985899e-06 
-3.4054524e-06 -2.7516180e-06 4.8343725e-07 
-6.9731427e-06 -9.9434710e-06 1.9329750e-06 
-9.9558456e-06 -1.0234107e-05 1.1513796e-07 
-8.7461240e-06 -2.1482094e-05 5.2605412e-07 
-8.3220793e-06 -1.7054324e-05 2.7618141e-06 
-1.1342873e-05 -2.6960315e-05 -9.9581689e-07 
-1.3717463e-05 -4.5343942e-05 7.0654069e-06 
-6.0988455e-06 -6.7846677e-06 2.7233323e-06 
-3.1585621e-06 -3.4308703e-06 1.7195239e-06 
-5.5715946e-06 -8.9679061e-06 3.1554234e-06 
-3.8196436e-06 -5.2936125e-06 3.2321016e-06 
-2.1475194e-06 -1.3560243e-06 1.3541996e-06 
-2.3171274e-06 -2.3239377e-06 1.8232357e-06 
-1.1882113e-06 -4.8320646e-07 6.7016907e-07 
-1.0768916e-06 -1.2449538e-06 1.0942196e-06 
-5.6023356e-07 -2.0660687e-07 4.4956522e-07 
-5.1714653e-07 -3.3827337e-07 6.7406529e-07 
-8.1883577e-08 2.3524512e-07 1.2848747e-07 
2.3943568e-07 6.0229684e-07 1.6790172e-07 
-5.8661053e-06 -1.4226776e-05 6.4489623e-06 
-7.6493116e-06 -1.9845227e-05 6.0626658e-06 
-1.9875229e-06 -3.3720110e-06 2.0212876e-06 
-4.9692625e-07 2.9674962e-07 1.8858144e-07 
-6.6442481e-06 -2.0873798e-05 -1.0920432e-06 
-2.9705127e-06 -5.5193464e-06 3.1488498e-06 
-1.3675506e-06 5.4128421e-08 6.1172574e-07 
3.1591773e-07 8.3249307e-07 -9.7759305e-08 
-4.6271998e-06 -4.5623260e-06 -7.3494812e-07 
-1.6882646e-05 -5.6027231e-05 2.0497773e-06 
-1.6057620e-05 -5.4784770e-05 5.6412773e-07 
-5.3415783e-06 -2.7344517e-05 7.9352103e-06 
9.5730947e-08 3.0077373e-07 -1.0835395e-07 
-5.8008737e-07 -1.8231887e-06 1.0689346e-06 
-6.3240736e-07 -1.8886495e-06 1.0269810e-06 
-1.5888265e-06 -5.6160438e-06 2.7581418e-06 
-2.5643562e-06 -6.7461765e-06 4.7283115e-06 
-9.5715186e-06 -6.4418025e-05 8.9209107e-06 
-1.5669237e-05 -8.6427477e-05 6.1665601e-06 
3.1757349e-07 1.9673646e-06 -3.1596177e-09 
3.9907073e-07 1.8539215e-06 2.4722209e-07 
-7.3708616e-06 -5.2486597e-05 -4.1003809e-06 
2.5238703e-07 5.4696039e-07 -1.8549282e-07 
-2.4159758e-07 -3.6219043e-07 9.3338241e-07 
-1.6469825e-05 -1.0328108e-04 -5.9921231e-06 
-1.1587288e-05 -3.0463587e-05 6.9180837e-06 
4.9295613e-07 1.1149925e-06 5.9841071e-08 
-4.1462040e-06 -1.8405313e-05 6.8373420e-06 
-8.5960837e-06 -1.3058795e-05 -1.1091263e-06 
-2.7816777e-06 -4.1527978e-06 -7.0933066e-07 
1.8007364e-07 2.4206665e-07 -1.2980455e-07 
-1.3651775e-06 -3.2395715e-07 7.4008676e-07 
3.2710943e-07 8.8737534e-07 3.1310230e-07 
-1.1706265e-05 -4.0136849e-05 -3.5685039e-06 
-7.9083429e-06 -1.4974476e-05 3.2175362e-06 
8.8482750e-08 3.8414569e-07 -3.2549696e-08 
-3.4247407e-07 2.0695535e-07 2.1453069e-07 
3.2762406e-07 1.4037879e-06 -1.1812379e-07 
-4.1071930e-06 -1.0185679e-05 5.7027760e-06 
-6.0129855e-06 -3.3504894e-05 -2.4353944e-06 
1.0462816e-07 8.6567115e-07 5.9183446e-07 
3.8092591e-07 2.5811364e-06 6.6512575e-07 
-1.7748050e-07 -3.0481501e-06 1.0164281e-06 
-5.1903373e-07 -5.9411991e-06 8.9267678e-07 
2.8431637e-07 2.8382508e-06 3.7705988e-07 
-4.1669878e-07 -7.1994132e-06 9.3508208e-07 
-1.0107218e-06 -1.0283265e-05 2.1670560e-06 
-7.6169323e-07 -1.5671836e-05 2.8541044e-06 
-2.0490627e-06 -2.5920632e-05 6.4184383e-06 
-4.2677343e-06 -4.3233445e-05 8.6170166e-06 
-3.8042408e-06 -5.6962162e-05 7.9645697e-06 
-6.6028688e-06 -8.7711443e-05 9.4233947e-06 
-9.4051211e-06 -1.2060459e-04 3.9790098e-06 
-1.0592436e-05 -1.3853287e-04 1.3634551e-06 
-5.5637170e-06 -1.2075125e-04 -5.7728198e-06 
-5.9999916e-06 -9.3222625e-05 -8.1932740e-06 
-3.1066606e-06 -6.3036423e-05 -5.7700754e-06 
3.3681872e-08 2.0723480e-06 1.0764714e-07 
1.6961822e-07 3.7203191e-07 -8.3887005e-07 
6.5665000e-07 -2.1944331e-06 -1.5586801e-06 
3.1963248e-06 -1.2474929e-05 -4.8581960e-06 
7.6563501e-06 -3.1890999e-05 -5.8952651e-06 
8.9055329e-06 -3.6379759e-05 1.7967147e-06 
3.7741145e-07 5.9547371e-08 -7.2085248e-07 
9.6231133e-07 -6.5476650e-07 -1.3666673e-06 
4.3788000e-06 -8.9598016e-06 -3.2159901e-06 
6.2761302e-07 -8.1914959e-06 -1.9454687e-06 
2.2177072e-07 -2.0406942e-06 -8.4986823e-07 
-3.3437544e-08 1.7023032e-06 -1.0408699e-07 
7.0245360e-06 -1.1643887e-05 -9.9169017e-07 
5.4174642e-08 3.8985766e-07 -2.9446750e-07 
3.2825822e-06 -4.1725394e-05 -7.0042747e-06 
2.7718572e-06 -8.9430418e-05 -1.2822214e-06 
9.2056752e-08 -5.4188249e-06 -3.4588189e-07 
7.5478158e-07 -3.3145704e-06 -1.2076652e-06 
4.0597155e-07 -3.4626404e-07 -7.2248565e-07 
5.7467764e-07 -1.9276855e-05 -2.4351009e-06 
1.4798718e-06 -3.7466482e-06 -2.6544355e-06 
2.1750500e-07 1.3743536e-06 -2.5693384e-07 
1.6565552e-06 -1.1807800e-06 -1.3337864e-06 
9.5444648e-07 -7.2096336e-05 5.8227274e-06 
1.2814883e-07 1.2615509e-07 -2.7436187e-07 
2.7592898e-06 -5.3036260e-06 -2.2062331e-07 
3.2098694e-07 -9.1927922e-07 -1.1402467e-06 
2.7687995e-06 -4.2343086e-06 -3.0537292e-06 
2.5544904e-07 1.0610982e-07 -6.5643195e-07 
5.8778198e-07 -6.1625946e-07 -1.1282061e-06 
1.1944104e-07 -4.6989203e-07 -5.2165979e-07 
1.2613907e-06 -2.6378759e-06 -6.2068744e-07 
2.8763134e-06 -2.3199538e-05 -2.5407132e-06 
4.7116819e-06 -7.5655989e-05 -5.0615140e-06 
8.0026689e-07 -1.2847725e-05 -1.6884262e-06 
6.0708276e-06 -1.1727810e-05 4.4643767e-07 
8.0403734e-06 -3.6221281e-05 -1.3963511e-06 
3.4757675e-09 3.2253377e-07 -3.1944123e-07 
2.6956627e-07 3.1936671e-07 -4.1774157e-07 
-1.5137186e-08 6.6598773e-07 -3.3619665e-07 
2.8048269e-06 -1.8025652e-05 -5.4602756e-06 
5.1049000e-07 -3.4237696e-06 -1.7773059e-06 
4.4424969e-06 -2.7242035e-05 1.0171876e-06 
6.0675093e-06 -3.3569617e-05 -1.6747972e-06 
-1.9142428e-07 -3.8357553e-06 6.9114058e-08 
1.5478021e-07 9.1885170e-07 -3.0913080e-07 
6.1400351e-07 -3.1620061e-06 -1.0726266e-06 
3.2822928e-07 5.5821427e-08 -4.0122188e-07 
6.5353888e-06 -1.7369390e-05 -2.2578913e-06 
2.5056494e-07 3.8733018e-07 -4.3734880e-07 
1.3850920e-06 -7.1606023e-06 -3.4297630e-06 
1.9405627e-07 3.3684975e-07 -2.8597836e-07 
3.0446347e-06 -3.5415696e-06 -9.6711221e-07 
2.6734529e-06 -6.3975378e-05 1.4250888e-06 
6.3177134e-07 -2.7203472e-05 -1.5760193e-06 
1.4131457e-06 -1.9755216e-05 -4.8432257e-06 
4.2419861e-06 -8.5784504e-06 -3.6062615e-06 
4.6888658e-06 -2.7728807e-05 2.0709147e-06 
1.1533589e-07 2.4646292e-07 -1.8630915e-07 
-1.1813457e-07 2.1552266e-07 -2.5534865e-07 
4.6264472e-07 -7.9862346e-08 -5.0524335e-07 
2.6863319e-07 -2.0677962e-06 -6.9902393e-07 
2.3310677e-06 -2.4786661e-06 -1.2869272e-06 
2.2806056e-07 4.6193711e-07 -3.0132014e-07 
4.4942684e-07 -1.1854441e-04 3.3063393e-06 
1.1212269e-06 -1.2967903e-06 -1.6808078e-06 