# vtk DataFile Version 4.0
vtk output
ASCII
DATASET UNSTRUCTURED_GRID
POINTS 460 float
0.0000000e+00 0.0000000e+00 0.0000000e+00 
5.0000000e+00 0.0000000e+00 0.0000000e+00 
5.0000000e+00 3.0000000e+00 0.0000000e+00 
0.0000000e+00 3.0000000e+00 0.0000000e+00 
0.0000000e+00 0.0000000e+00 1.0000000e+01 
5.0000000e+00 0.0000000e+00 1.0000000e+01 
5.0000000e+00 3.0000000e+00 1.0000000e+01 
0.0000000e+00 3.0000000e+00 1.0000000e+01 
1.0000000e+00 3.0000000e+00 -5.0000000e+00 
1.0000000e+00 3.0000000e+00 -4.5000000e+00 
1.0000000e+00 3.0000000e+00 -4.0000000e+00 
1.0000000e+00 3.0000000e+00 -3.5000000e+00 
1.0000000e+00 3.0000000e+00 -3.0000000e+00 
1.0000000e+00 3.0000000e+00 -2.5000000e+00 
1.0000000e+00 3.0000000e+00 -2.0000000e+00 
1.0000000e+00 3.0000000e+00 -1.5000000e+00 
1.0000000e+00 3.0000000e+00 -1.0000000e+00 
1.0000000e+00 3.0000000e+00 -5.0000000e-01 
1.0000000e+00 3.0000000e+00 0.0000000e+00 
1.0000000e+00 3.0000000e+00 5.0000000e-01 
1.0000000e+00 3.0000000e+00 1.0000000e+00 
1.0000000e+00 3.0000000e+00 1.5000000e+00 
1.0000000e+00 3.0000000e+00 2.0000000e+00 
1.0000000e+00 3.0000000e+00 2.5000000e+00 
1.0000000e+00 3.0000000e+00 3.0000000e+00 
1.0000000e+00 3.0000000e+00 3.5000000e+00 
1.0000000e+00 3.0000000e+00 4.0000000e+00 
1.0000000e+00 3.0000000e+00 4.5000000e+00 
1.0000000e+00 3.0000000e+00 5.0000000e+00 
1.0000000e+00 3.0000000e+00 5.5000000e+00 
1.0000000e+00 3.0000000e+00 6.0000000e+00 
1.0000000e+00 3.0000000e+00 6.5000000e+00 
1.0000000e+00 3.0000000e+00 7.0000000e+00 
1.0000000e+00 3.0000000e+00 7.5000000e+00 
1.0000000e+00 3.0000000e+00 8.0000000e+00 
1.0000000e+00 3.0000000e+00 8.5000000e+00 
1.0000000e+00 3.0000000e+00 9.0000000e+00 
1.0000000e+00 3.0000000e+00 9.5000000e+00 
1.0000000e+00 3.0000000e+00 1.0000000e+01 
1.0000000e+00 3.0000000e+00 1.0500000e+01 
1.0000000e+00 3.0000000e+00 1.1000000e+01 
1.0000000e+00 3.0000000e+00 1.1500000e+01 
1.0000000e+00 3.0000000e+00 1.2000000e+01 
1.0000000e+00 3.0000000e+00 1.2500000e+01 
1.0000000e+00 3.0000000e+00 1.3000000e+01 
1.0000000e+00 3.0000000e+00 1.3500000e+01 
1.0000000e+00 3.0000000e+00 1.4000000e+01 
1.0000000e+00 3.0000000e+00 1.4500000e+01 
1.0000000e+00 3.0250001e+00 -5.0000000e+00 
1.0000000e+00 3.0250001e+00 -4.5000000e+00 
1.0000000e+00 3.0250001e+00 -4.0000000e+00 
1.0000000e+00 3.0250001e+00 -3.5000000e+00 
1.0000000e+00 3.0250001e+00 -3.0000000e+00 
1.0000000e+00 3.0250001e+00 -2.5000000e+00 
1.0000000e+00 3.0250001e+00 -2.0000000e+00 
1.0000000e+00 3.0250001e+00 -1.5000000e+00 
1.0000000e+00 3.0250001e+00 -1.0000000e+00 
1.0000000e+00 3.0250001e+00 -5.0000000e-01 
1.0000000e+00 3.0250001e+00 0.0000000e+00 
1.0000000e+00 3.0250001e+00 5.0000000e-01 
1.0000000e+00 3.0250001e+00 1.0000000e+00 
1.0000000e+00 3.0250001e+00 1.5000000e+00 
1.0000000e+00 3.0250001e+00 2.0000000e+00 
1.0000000e+00 3.0250001e+00 2.5000000e+00 
1.0000000e+00 3.0250001e+00 3.0000000e+00 
1.0000000e+00 3.0250001e+00 3.5000000e+00 
1.0000000e+00 3.0250001e+00 4.0000000e+00 
1.0000000e+00 3.0250001e+00 4.5000000e+00 
1.0000000e+00 3.0250001e+00 5.0000000e+00 
1.0000000e+00 3.0250001e+00 5.5000000e+00 
1.0000000e+00 3.0250001e+00 6.0000000e+00 
1.0000000e+00 3.0250001e+00 6.5000000e+00 
1.0000000e+00 3.0250001e+00 7.0000000e+00 
1.0000000e+00 3.0250001e+00 7.5000000e+00 
1.0000000e+00 3.0250001e+00 8.0000000e+00 
1.0000000e+00 3.0250001e+00 8.5000000e+00 
1.0000000e+00 3.0250001e+00 9.0000000e+00 
1.0000000e+00 3.0250001e+00 9.5000000e+00 
1.0000000e+00 3.0250001e+00 1.0000000e+01 
1.0000000e+00 3.0250001e+00 1.0500000e+01 
1.0000000e+00 3.0250001e+00 1.1000000e+01 
1.0000000e+00 3.0250001e+00 1.1500000e+01 
1.0000000e+00 3.0250001e+00 1.2000000e+01 
1.0000000e+00 3.0250001e+00 1.2500000e+01 
1.0000000e+00 3.0250001e+00 1.3000000e+01 
1.0000000e+00 3.0250001e+00 1.3500000e+01 
1.0000000e+00 3.0250001e+00 1.4000000e+01 
1.0000000e+00 3.0250001e+00 1.4500000e+01 
1.0000000e+00 -2.0000000e+00 -5.0000000e+00 
1.0000000e+00 -2.0000000e+00 -4.5000000e+00 
1.0000000e+00 -2.0000000e+00 -4.0000000e+00 
1.0000000e+00 -2.0000000e+00 -3.5000000e+00 
1.0000000e+00 -2.0000000e+00 -3.0000000e+00 
1.0000000e+00 -2.0000000e+00 -2.5000000e+00 
1.0000000e+00 -2.0000000e+00 -2.0000000e+00 
1.0000000e+00 -2.0000000e+00 -1.5000000e+00 
1.0000000e+00 -2.0000000e+00 -1.0000000e+00 
1.0000000e+00 -2.0000000e+00 -5.0000000e-01 
1.0000000e+00 -2.0000000e+00 1.0500000e+01 
1.0000000e+00 -2.0000000e+00 1.1000000e+01 
1.0000000e+00 -2.0000000e+00 1.1500000e+01 
1.0000000e+00 -2.0000000e+00 1.2000000e+01 
1.0000000e+00 -2.0000000e+00 1.2500000e+01 
1.0000000e+00 -2.0000000e+00 1.3000000e+01 
1.0000000e+00 -2.0000000e+00 1.3500000e+01 
1.0000000e+00 -2.0000000e+00 1.4000000e+01 
1.0000000e+00 -2.0000000e+00 1.4500000e+01 
1.0000000e+00 0.0000000e+00 0.0000000e+00 
2.0000000e+00 0.0000000e+00 0.0000000e+00 
3.0000000e+00 0.0000000e+00 0.0000000e+00 
4.0000000e+00 0.0000000e+00 0.0000000e+00 
5.0000000e+00 1.0000000e+00 0.0000000e+00 
5.0000000e+00 2.0000000e+00 0.0000000e+00 
0.0000000e+00 2.0000000e+00 0.0000000e+00 
0.0000000e+00 1.0000000e+00 0.0000000e+00 
0.0000000e+00 0.0000000e+00 1.0000000e+00 
0.0000000e+00 0.0000000e+00 2.0000000e+00 
0.0000000e+00 0.0000000e+00 3.0000000e+00 
0.0000000e+00 0.0000000e+00 4.0000000e+00 
0.0000000e+00 0.0000000e+00 5.0000000e+00 
0.0000000e+00 0.0000000e+00 6.0000000e+00 
0.0000000e+00 0.0000000e+00 7.0000000e+00 
0.0000000e+00 0.0000000e+00 8.0000000e+00 
0.0000000e+00 0.0000000e+00 9.0000000e+00 
5.0000000e+00 0.0000000e+00 1.0000000e+00 
5.0000000e+00 0.0000000e+00 2.0000000e+00 
5.0000000e+00 0.0000000e+00 3.0000000e+00 
5.0000000e+00 0.0000000e+00 4.0000000e+00 
5.0000000e+00 0.0000000e+00 5.0000000e+00 
5.0000000e+00 0.0000000e+00 6.0000000e+00 
5.0000000e+00 0.0000000e+00 7.0000000e+00 
5.0000000e+00 0.0000000e+00 8.0000000e+00 
5.0000000e+00 0.0000000e+00 9.0000000e+00 
1.0000000e+00 0.0000000e+00 1.0000000e+01 
2.0000000e+00 0.0000000e+00 1.0000000e+01 
3.0000000e+00 0.0000000e+00 1.0000000e+01 
4.0000000e+00 0.0000000e+00 1.0000000e+01 
5.0000000e+00 3.0000000e+00 1.0000000e+00 
5.0000000e+00 3.0000000e+00 2.0000000e+00 
5.0000000e+00 3.0000000e+00 3.0000000e+00 
5.0000000e+00 3.0000000e+00 4.0000000e+00 
5.0000000e+00 3.0000000e+00 5.0000000e+00 
5.0000000e+00 3.0000000e+00 6.0000000e+00 
5.0000000e+00 3.0000000e+00 7.0000000e+00 
5.0000000e+00 3.0000000e+00 8.0000000e+00 
5.0000000e+00 3.0000000e+00 9.0000000e+00 
5.0000000e+00 1.0000000e+00 1.0000000e+01 
5.0000000e+00 2.0000000e+00 1.0000000e+01 
0.0000000e+00 3.0000000e+00 1.0000000e+00 
0.0000000e+00 3.0000000e+00 2.0000000e+00 
0.0000000e+00 3.0000000e+00 3.0000000e+00 
0.0000000e+00 3.0000000e+00 4.0000000e+00 
0.0000000e+00 3.0000000e+00 5.0000000e+00 
0.0000000e+00 3.0000000e+00 6.0000000e+00 
0.0000000e+00 3.0000000e+00 7.0000000e+00 
0.0000000e+00 3.0000000e+00 8.0000000e+00 
0.0000000e+00 3.0000000e+00 9.0000000e+00 
0.0000000e+00 2.0000000e+00 1.0000000e+01 
0.0000000e+00 1.0000000e+00 1.0000000e+01 
4.0000000e+00 3.0000000e+00 0.0000000e+00 
3.0000000e+00 3.0000000e+00 0.0000000e+00 
2.0000000e+00 3.0000000e+00 0.0000000e+00 
4.0000000e+00 3.0000000e+00 1.0000000e+01 
3.0000000e+00 3.0000000e+00 1.0000000e+01 
2.0000000e+00 3.0000000e+00 1.0000000e+01 
4.0618000e+00 1.5000000e+00 0.0000000e+00 
1.5046000e+00 7.6549745e-01 0.0000000e+00 
2.5000000e+00 2.1339746e+00 0.0000000e+00 
1.5046000e+00 2.2345026e+00 0.0000000e+00 
2.4957771e+00 8.1560516e-01 0.0000000e+00 
3.4707544e+00 2.2336540e+00 0.0000000e+00 
3.4700506e+00 7.5794268e-01 0.0000000e+00 
8.6322361e-01 1.5000000e+00 0.0000000e+00 
2.0000000e+00 1.5000000e+00 0.0000000e+00 
2.9960666e+00 1.4974480e+00 0.0000000e+00 
4.2679491e+00 7.3205084e-01 0.0000000e+00 
4.2679491e+00 2.2679491e+00 0.0000000e+00 
7.2695929e-01 2.2730408e+00 0.0000000e+00 
7.2695929e-01 7.2695929e-01 0.0000000e+00 
4.1822505e+00 0.0000000e+00 2.5515697e+00 
4.2017918e+00 0.0000000e+00 4.4725966e+00 
4.1114569e+00 0.0000000e+00 6.5092020e+00 
8.6602539e-01 0.0000000e+00 3.5000000e+00 
8.4778279e-01 0.0000000e+00 5.4684029e+00 
8.9629614e-01 0.0000000e+00 7.5867257e+00 
2.5566745e+00 0.0000000e+00 8.1853306e-01 
2.4918270e+00 0.0000000e+00 9.1386929e+00 
8.4677207e-01 0.0000000e+00 1.5042374e+00 
4.0943027e+00 0.0000000e+00 8.4081745e+00 
8.6281651e-01 0.0000000e+00 2.5007062e+00 
1.7315160e+00 0.0000000e+00 3.0001178e+00 
1.7319617e+00 0.0000000e+00 4.0000196e+00 
2.5980761e+00 0.0000000e+00 3.5000000e+00 
2.5536871e+00 0.0000000e+00 4.4963923e+00 
2.5928419e+00 0.0000000e+00 2.4239938e+00 
1.5037409e+00 0.0000000e+00 9.1535149e+00 
1.8433737e+00 0.0000000e+00 8.1858873e+00 
3.0000000e+00 0.0000000e+00 8.2679491e+00 
2.5000000e+00 0.0000000e+00 7.4019237e+00 
3.5042722e+00 0.0000000e+00 7.4271150e+00 
3.0310018e+00 0.0000000e+00 6.5282087e+00 
2.0373929e+00 0.0000000e+00 6.5307913e+00 
3.4767809e+00 0.0000000e+00 5.8031492e+00 
2.5452602e+00 0.0000000e+00 5.5720768e+00 
1.6456656e+00 0.0000000e+00 1.9697139e+00 
8.6297011e-01 0.0000000e+00 4.4947371e+00 
1.0111579e+00 0.0000000e+00 6.5282545e+00 
3.4994321e+00 0.0000000e+00 8.4691072e-01 
4.1860156e+00 0.0000000e+00 3.5040276e+00 
1.7320508e+00 0.0000000e+00 5.0000000e+00 
4.0544066e+00 0.0000000e+00 1.5781221e+00 
1.5817389e+00 0.0000000e+00 9.3943578e-01 
8.3166349e-01 0.0000000e+00 8.5090933e+00 
3.4686174e+00 0.0000000e+00 9.1752682e+00 
3.0709300e+00 0.0000000e+00 1.5799091e+00 
3.3927374e+00 0.0000000e+00 3.0399952e+00 
3.3826034e+00 0.0000000e+00 3.9747651e+00 
4.3420062e+00 0.0000000e+00 7.4688983e+00 
3.4023225e+00 0.0000000e+00 4.9314723e+00 
1.6740381e+00 0.0000000e+00 7.3014426e+00 
4.2715640e+00 0.0000000e+00 5.4758859e+00 
1.6225953e+00 0.0000000e+00 5.8104177e+00 
4.2679491e+00 0.0000000e+00 9.2679491e+00 
7.3205084e-01 0.0000000e+00 7.3205084e-01 
4.2679491e+00 0.0000000e+00 7.3205084e-01 
7.3205084e-01 0.0000000e+00 9.2679491e+00 
3.4586334e+00 0.0000000e+00 2.2347178e+00 
2.2895701e+00 0.0000000e+00 1.5463171e+00 
5.0000000e+00 2.2345026e+00 1.5046000e+00 
[...]
POINT_DATA 460
FIELD FieldData 5
DISPLACEMENT 3 460  float
0.0000000e+00 0.0000000e+00 0.0000000e+00 
0.0000000e+00 0.0000000e+00 0.0000000e+00 
0.0000000e+00 -2.8355910e-07 0.0000000e+00 
0.0000000e+00 -5.7672351e-06 0.0000000e+00 
0.0000000e+00 0.0000000e+00 0.0000000e+00 
0.0000000e+00 0.0000000e+00 0.0000000e+00 
0.0000000e+00 -7.5437043e-09 0.0000000e+00 
0.0000000e+00 -7.7664959e-09 0.0000000e+00 
0.0000000e+00 -5.9868646e-05 0.0000000e+00 
0.0000000e+00 -9.1322581e-05 0.0000000e+00 
0.0000000e+00 -1.8514971e-04 0.0000000e+00 
0.0000000e+00 -3.3557916e-04 0.0000000e+00 
0.0000000e+00 -5.1866652e-04 0.0000000e+00 
0.0000000e+00 -6.7249849e-04 0.0000000e+00 
0.0000000e+00 -6.9976016e-04 0.0000000e+00 
0.0000000e+00 -5.6944974e-04 0.0000000e+00 
0.0000000e+00 -3.7671358e-04 0.0000000e+00 
0.0000000e+00 -1.9971411e-04 0.0000000e+00 
0.0000000e+00 -7.4492127e-05 0.0000000e+00 
-1.2781297e-06 -1.5445721e-05 4.5204815e-06 
-2.6659930e-07 6.5045065e-06 -6.5601535e-07 
-4.4733784e-07 9.8399523e-06 -8.6977343e-07 
-2.4285839e-07 7.1871673e-06 2.8528632e-07 
8.3534433e-09 3.7884688e-06 1.1512331e-07 
3.4876908e-08 1.4754753e-06 1.9129807e-07 
6.9165118e-08 3.4231968e-07 2.8675322e-07 
1.9629043e-08 -7.9993484e-08 9.7037471e-08 
-1.0902317e-08 -1.6150419e-07 3.4379006e-08 
-1.1681201e-08 -1.1404109e-07 -1.2629909e-08 
-8.4793461e-10 -4.5074131e-08 -2.4957876e-08 
5.6898963e-10 5.5607927e-09 -1.2012790e-08 
2.5706774e-09 3.0940658e-08 -2.9618143e-09 
3.0339524e-09 3.5916472e-08 4.8193947e-09 
2.5536870e-09 2.9345964e-08 9.9418198e-09 
1.9872350e-09 1.8267716e-08 1.1347997e-08 
8.3000412e-10 7.2467525e-09 1.0660669e-08 
5.6471905e-10 -1.4864070e-09 7.5414848e-09 
1.9227847e-10 -7.0741772e-09 3.7772119e-09 
0.0000000e+00 -9.6349257e-09 0.0000000e+00 
0.0000000e+00 -1.0465251e-08 0.0000000e+00 
0.0000000e+00 -9.9697139e-09 0.0000000e+00 
0.0000000e+00 -8.5978469e-09 0.0000000e+00 
0.0000000e+00 -6.6737402e-09 0.0000000e+00 
0.0000000e+00 -4.4396420e-09 0.0000000e+00 
0.0000000e+00 -2.0645388e-09 0.0000000e+00 
0.0000000e+00 3.4598596e-10 0.0000000e+00 
0.0000000e+00 2.7394145e-09 0.0000000e+00 
0.0000000e+00 5.1059805e-09 0.0000000e+00 
0.0000000e+00 -5.9853286e-05 0.0000000e+00 
0.0000000e+00 -9.1436043e-05 0.0000000e+00 
0.0000000e+00 -1.8565178e-04 0.0000000e+00 
0.0000000e+00 -3.3670283e-04 0.0000000e+00 
0.0000000e+00 -5.2054418e-04 0.0000000e+00 
0.0000000e+00 -6.7501084e-04 0.0000000e+00 
0.0000000e+00 -7.0239819e-04 0.0000000e+00 
0.0000000e+00 -5.7159440e-04 0.0000000e+00 
0.0000000e+00 -3.7812529e-04 0.0000000e+00 
0.0000000e+00 -2.0045828e-04 0.0000000e+00 
0.0000000e+00 -7.6311866e-05 0.0000000e+00 
0.0000000e+00 -1.5025493e-05 0.0000000e+00 
0.0000000e+00 6.7471342e-06 0.0000000e+00 
0.0000000e+00 1.0100375e-05 0.0000000e+00 
0.0000000e+00 7.3093520e-06 0.0000000e+00 
0.0000000e+00 3.8503727e-06 0.0000000e+00 
0.0000000e+00 1.4972960e-06 0.0000000e+00 
0.0000000e+00 3.3848514e-07 0.0000000e+00 
0.0000000e+00 -8.4834831e-08 0.0000000e+00 
0.0000000e+00 -1.6455840e-07 0.0000000e+00 
0.0000000e+00 -1.1624314e-07 0.0000000e+00 
0.0000000e+00 -4.6338805e-08 0.0000000e+00 
0.0000000e+00 4.9665361e-09 0.0000000e+00 
0.0000000e+00 3.0571076e-08 0.0000000e+00 
0.0000000e+00 3.5834532e-08 0.0000000e+00 
0.0000000e+00 2.9347465e-08 0.0000000e+00 
0.0000000e+00 1.8325718e-08 0.0000000e+00 
0.0000000e+00 7.3140072e-09 0.0000000e+00 
0.0000000e+00 -1.4059036e-09 0.0000000e+00 
0.0000000e+00 -6.9820087e-09 0.0000000e+00 
0.0000000e+00 -9.6795700e-09 0.0000000e+00 
0.0000000e+00 -1.0473365e-08 0.0000000e+00 
0.0000000e+00 -9.9778656e-09 0.0000000e+00 
0.0000000e+00 -8.6053458e-09 0.0000000e+00 
0.0000000e+00 -6.6801200e-09 0.0000000e+00 
0.0000000e+00 -4.4446051e-09 0.0000000e+00 
0.0000000e+00 -2.0679161e-09 0.0000000e+00 
0.0000000e+00 3.4426983e-10 0.0000000e+00 
0.0000000e+00 2.7393767e-09 0.0000000e+00 
0.0000000e+00 5.1076143e-09 0.0000000e+00 
0.0000000e+00 0.0000000e+00 0.0000000e+00 
0.0000000e+00 0.0000000e+00 0.0000000e+00 
0.0000000e+00 0.0000000e+00 0.0000000e+00 
0.0000000e+00 0.0000000e+00 0.0000000e+00 
0.0000000e+00 0.0000000e+00 0.0000000e+00 
0.0000000e+00 0.0000000e+00 0.0000000e+00 
0.0000000e+00 0.0000000e+00 0.0000000e+00 
0.0000000e+00 0.0000000e+00 0.0000000e+00 
0.0000000e+00 0.0000000e+00 0.0000000e+00 
0.0000000e+00 0.0000000e+00 0.0000000e+00 
0.0000000e+00 0.0000000e+00 0.0000000e+00 
0.0000000e+00 0.0000000e+00 0.0000000e+00 
0.0000000e+00 0.0000000e+00 0.0000000e+00 
0.0000000e+00 0.0000000e+00 0.0000000e+00 
0.0000000e+00 0.0000000e+00 0.0000000e+00 
0.0000000e+00 0.0000000e+00 0.0000000e+00 
0.0000000e+00 0.0000000e+00 0.0000000e+00 
0.0000000e+00 0.0000000e+00 0.0000000e+00 
0.0000000e+00 0.0000000e+00 0.0000000e+00 
0.0000000e+00 0.0000000e+00 0.0000000e+00 
0.0000000e+00 0.0000000e+00 0.0000000e+00 
0.0000000e+00 0.0000000e+00 0.0000000e+00 
0.0000000e+00 0.0000000e+00 0.0000000e+00 
0.0000000e+00 -1.3734117e-07 0.0000000e+00 
0.0000000e+00 -2.5473622e-07 0.0000000e+00 
0.0000000e+00 -6.5956747e-06 0.0000000e+00 
0.0000000e+00 -3.0546400e-06 0.0000000e+00 
0.0000000e+00 0.0000000e+00 0.0000000e+00 
0.0000000e+00 0.0000000e+00 0.0000000e+00 
0.0000000e+00 0.0000000e+00 0.0000000e+00 
0.0000000e+00 0.0000000e+00 0.0000000e+00 
0.0000000e+00 0.0000000e+00 0.0000000e+00 
0.0000000e+00 0.0000000e+00 0.0000000e+00 
0.0000000e+00 0.0000000e+00 0.0000000e+00 
0.0000000e+00 0.0000000e+00 0.0000000e+00 
0.0000000e+00 0.0000000e+00 0.0000000e+00 
0.0000000e+00 0.0000000e+00 0.0000000e+00 
0.0000000e+00 0.0000000e+00 0.0000000e+00 
0.0000000e+00 0.0000000e+00 0.0000000e+00 
0.0000000e+00 0.0000000e+00 0.0000000e+00 
0.0000000e+00 0.0000000e+00 0.0000000e+00 
0.0000000e+00 0.0000000e+00 0.0000000e+00 
0.0000000e+00 0.0000000e+00 0.0000000e+00 
0.0000000e+00 0.0000000e+00 0.0000000e+00 
0.0000000e+00 0.0000000e+00 0.0000000e+00 
0.0000000e+00 0.0000000e+00 0.0000000e+00 
0.0000000e+00 0.0000000e+00 0.0000000e+00 
0.0000000e+00 0.0000000e+00 0.0000000e+00 
0.0000000e+00 0.0000000e+00 0.0000000e+00 
0.0000000e+00 -1.9931639e-07 0.0000000e+00 
0.0000000e+00 -1.2129851e-07 0.0000000e+00 
0.0000000e+00 -3.4170490e-08 0.0000000e+00 
0.0000000e+00 8.4730001e-09 0.0000000e+00 
0.0000000e+00 2.8479709e-08 0.0000000e+00 
0.0000000e+00 2.5306209e-08 0.0000000e+00 
0.0000000e+00 9.6531787e-09 0.0000000e+00 
0.0000000e+00 -2.7825602e-09 0.0000000e+00 
0.0000000e+00 -6.6264803e-09 0.0000000e+00 
0.0000000e+00 -3.6586334e-09 0.0000000e+00 
0.0000000e+00 -6.4825563e-09 0.0000000e+00 
0.0000000e+00 -1.4128552e-06 0.0000000e+00 
0.0000000e+00 2.4078531e-06 0.0000000e+00 
0.0000000e+00 9.9916019e-07 0.0000000e+00 
0.0000000e+00 1.3747130e-07 0.0000000e+00 
0.0000000e+00 -1.3811928e-08 0.0000000e+00 
0.0000000e+00 2.3226779e-08 0.0000000e+00 
0.0000000e+00 3.3167051e-08 0.0000000e+00 
0.0000000e+00 1.5426028e-08 0.0000000e+00 
0.0000000e+00 -1.5060981e-09 0.0000000e+00 
0.0000000e+00 -6.3348136e-09 0.0000000e+00 
0.0000000e+00 -3.5876979e-09 0.0000000e+00 
0.0000000e+00 -4.5339556e-07 0.0000000e+00 
0.0000000e+00 -8.6647145e-07 0.0000000e+00 
0.0000000e+00 -1.9963411e-06 0.0000000e+00 
0.0000000e+00 -7.1749340e-09 0.0000000e+00 
0.0000000e+00 -7.1310802e-09 0.0000000e+00 
0.0000000e+00 -7.6253999e-09 0.0000000e+00 
0.0000000e+00 -2.5892228e-07 0.0000000e+00 
0.0000000e+00 -1.9817644e-06 0.0000000e+00 
0.0000000e+00 -1.9749905e-06 0.0000000e+00 
0.0000000e+00 -1.0206269e-05 0.0000000e+00 
0.0000000e+00 -1.1791967e-06 0.0000000e+00 
0.0000000e+00 -7.3880267e-07 0.0000000e+00 
0.0000000e+00 -1.7090434e-07 0.0000000e+00 
0.0000000e+00 -6.7353335e-06 0.0000000e+00 
0.0000000e+00 -3.6404256e-06 0.0000000e+00 
0.0000000e+00 -9.2066898e-07 0.0000000e+00 
0.0000000e+00 -1.3893992e-07 0.0000000e+00 
0.0000000e+00 -3.5183254e-07 0.0000000e+00 
0.0000000e+00 -1.9082809e-05 0.0000000e+00 
0.0000000e+00 -2.9332607e-06 0.0000000e+00 
0.0000000e+00 0.0000000e+00 0.0000000e+00 
0.0000000e+00 0.0000000e+00 0.0000000e+00 
0.0000000e+00 0.0000000e+00 0.0000000e+00 
0.0000000e+00 0.0000000e+00 0.0000000e+00 
0.0000000e+00 0.0000000e+00 0.0000000e+00 
0.0000000e+00 0.0000000e+00 0.0000000e+00 
0.0000000e+00 0.0000000e+00 0.0000000e+00 
0.0000000e+00 0.0000000e+00 0.0000000e+00 
0.0000000e+00 0.0000000e+00 0.0000000e+00 
0.0000000e+00 0.0000000e+00 0.0000000e+00 
0.0000000e+00 0.0000000e+00 0.0000000e+00 
0.0000000e+00 0.0000000e+00 0.0000000e+00 
0.0000000e+00 0.0000000e+00 0.0000000e+00 
0.0000000e+00 0.0000000e+00 0.0000000e+00 
0.0000000e+00 0.0000000e+00 0.0000000e+00 
0.0000000e+00 0.0000000e+00 0.0000000e+00 
0.0000000e+00 0.0000000e+00 0.0000000e+00 
0.0000000e+00 0.0000000e+00 0.0000000e+00 
0.0000000e+00 0.0000000e+00 0.0000000e+00 
0.0000000e+00 0.0000000e+00 0.0000000e+00 
0.0000000e+00 0.0000000e+00 0.0000000e+00 
0.0000000e+00 0.0000000e+00 0.0000000e+00 
0.0000000e+00 0.0000000e+00 0.0000000e+00 
0.0000000e+00 0.0000000e+00 0.0000000e+00 
0.0000000e+00 0.0000000e+00 0.0000000e+00 
0.0000000e+00 0.0000000e+00 0.0000000e+00 
0.0000000e+00 0.0000000e+00 0.0000000e+00 
0.0000000e+00 0.0000000e+00 0.0000000e+00 
0.0000000e+00 0.0000000e+00 0.0000000e+00 
0.0000000e+00 0.0000000e+00 0.0000000e+00 
0.0000000e+00 0.0000000e+00 0.0000000e+00 
0.0000000e+00 0.0000000e+00 0.0000000e+00 
0.0000000e+00 0.0000000e+00 0.0000000e+00 
0.0000000e+00 0.0000000e+00 0.0000000e+00 
0.0000000e+00 0.0000000e+00 0.0000000e+00 
0.0000000e+00 0.0000000e+00 0.0000000e+00 
0.0000000e+00 0.0000000e+00 0.0000000e+00 
0.0000000e+00 0.0000000e+00 0.0000000e+00 
0.0000000e+00 0.0000000e+00 0.0000000e+00 
0.0000000e+00 0.0000000e+00 0.0000000e+00 
0.0000000e+00 0.0000000e+00 0.0000000e+00 
0.0000000e+00 0.0000000e+00 0.0000000e+00 
0.0000000e+00 0.0000000e+00 0.0000000e+00 
0.0000000e+00 0.0000000e+00 0.0000000e+00 
0.0000000e+00 0.0000000e+00 0.0000000e+00 
0.0000000e+00 0.0000000e+00 0.0000000e+00 
0.0000000e+00 0.0000000e+00 0.0000000e+00 
0.0000000e+00 0.0000000e+00 0.0000000e+00 
0.0000000e+00 0.0000000e+00 0.0000000e+00 
0.0000000e+00 -1.4597589e-07 0.0000000e+00 
0.0000000e+00 -4.8089679e-09 0.0000000e+00 
0.0000000e+00 -1.2116006e-08 0.0000000e+00 
0.0000000e+00 2.9295508e-08 0.0000000e+00 
0.0000000e+00 1.7451770e-09 0.0000000e+00 
0.0000000e+00 -3.0905024e-08 0.0000000e+00 
0.0000000e+00 1.2940192e-08 0.0000000e+00 
0.0000000e+00 8.5481178e-09 0.0000000e+00 
0.0000000e+00 -2.1249213e-09 0.0000000e+00 
0.0000000e+00 1.3572004e-08 0.0000000e+00 
0.0000000e+00 -6.9495506e-08 0.0000000e+00 
0.0000000e+00 2.0079744e-08 0.0000000e+00 
0.0000000e+00 1.6258054e-08 0.0000000e+00 
0.0000000e+00 1.9467943e-09 0.0000000e+00 
0.0000000e+00 -5.0283653e-08 0.0000000e+00 
0.0000000e+00 -1.8192461e-09 0.0000000e+00 
0.0000000e+00 -5.0840043e-09 0.0000000e+00 
0.0000000e+00 -1.4888614e-07 0.0000000e+00 
0.0000000e+00 2.2865942e-08 0.0000000e+00 
0.0000000e+00 7.4604616e-09 0.0000000e+00 
0.0000000e+00 -7.7091912e-08 0.0000000e+00 
0.0000000e+00 1.9283553e-08 0.0000000e+00 
0.0000000e+00 7.5936066e-09 0.0000000e+00 
0.0000000e+00 -2.9415496e-08 0.0000000e+00 
0.0000000e+00 -1.6786572e-09 0.0000000e+00 
0.0000000e+00 -6.8238317e-09 0.0000000e+00 
0.0000000e+00 -2.5542217e-09 0.0000000e+00 
0.0000000e+00 -2.1455620e-07 0.0000000e+00 
0.0000000e+00 -7.9012601e-08 0.0000000e+00 
0.0000000e+00 -1.4298633e-09 0.0000000e+00 
0.0000000e+00 -1.5087327e-06 0.0000000e+00 
0.0000000e+00 4.2979491e-07 0.0000000e+00 
0.0000000e+00 1.6365298e-08 0.0000000e+00 
0.0000000e+00 9.7127018e-09 0.0000000e+00 
0.0000000e+00 3.6131229e-07 0.0000000e+00 
0.0000000e+00 7.3449797e-09 0.0000000e+00 
0.0000000e+00 2.3695634e-08 0.0000000e+00 
0.0000000e+00 1.6865668e-07 0.0000000e+00 
0.0000000e+00 1.3283170e-06 0.0000000e+00 
0.0000000e+00 1.4898802e-08 0.0000000e+00 
0.0000000e+00 3.1742598e-08 0.0000000e+00 
0.0000000e+00 1.8132047e-08 0.0000000e+00 
0.0000000e+00 5.9128471e-09 0.0000000e+00 
0.0000000e+00 1.2399870e-06 0.0000000e+00 
0.0000000e+00 -4.1445944e-09 0.0000000e+00 
0.0000000e+00 3.1680896e-09 0.0000000e+00 
0.0000000e+00 4.2951220e-09 0.0000000e+00 
0.0000000e+00 1.2670494e-08 0.0000000e+00 
0.0000000e+00 1.2503517e-07 0.0000000e+00 
0.0000000e+00 5.2690325e-07 0.0000000e+00 
0.0000000e+00 2.2575259e-08 0.0000000e+00 
0.0000000e+00 6.3927903e-09 0.0000000e+00 
0.0000000e+00 1.0909956e-08 0.0000000e+00 
0.0000000e+00 8.5004478e-07 0.0000000e+00 
0.0000000e+00 -9.2890301e-10 0.0000000e+00 
0.0000000e+00 -3.8431594e-06 0.0000000e+00 
0.0000000e+00 -7.7221318e-07 0.0000000e+00 
0.0000000e+00 -4.1066164e-09 0.0000000e+00 
0.0000000e+00 -2.9380938e-09 0.0000000e+00 
0.0000000e+00 -5.4874194e-09 0.0000000e+00 
0.0000000e+00 -8.0417850e-09 0.0000000e+00 
0.0000000e+00 -9.2048467e-09 0.0000000e+00 
0.0000000e+00 -3.0311080e-09 0.0000000e+00 
0.0000000e+00 -8.2237515e-09 0.0000000e+00 
0.0000000e+00 -3.3562932e-09 0.0000000e+00 
0.0000000e+00 -6.3314314e-09 0.0000000e+00 
0.0000000e+00 -6.3993708e-09 0.0000000e+00 
0.0000000e+00 -6.3730101e-09 0.0000000e+00 
0.0000000e+00 -2.8896943e-09 0.0000000e+00 
0.0000000e+00 -7.6158253e-09 0.0000000e+00 
0.0000000e+00 -8.5937959e-09 0.0000000e+00 
0.0000000e+00 -3.0271821e-09 0.0000000e+00 
-5.9514851e-09 -4.4444430e-08 2.4096570e-08 
-9.1881669e-10 2.1569747e-08 -7.6662108e-09 
3.0811287e-09 1.8335578e-08 1.1146143e-08 
4.1980917e-07 2.1236744e-06 -3.1008414e-09 
1.0046853e-07 6.6844188e-07 1.5865959e-07 
-3.0879155e-09 2.7738148e-08 -5.7645044e-09 
1.9183560e-08 -5.6537431e-08 -4.0083016e-08 
1.1802994e-09 4.9832334e-09 5.5367044e-09 
-3.0987403e-07 2.9173948e-06 -1.2878664e-06 
1.2217473e-09 1.2893957e-09 8.9963388e-09 
-4.9970623e-08 -2.7842964e-07 -2.5537219e-07 
1.5182963e-09 -7.0205037e-09 3.7700527e-09 
1.2426045e-10 1.9107013e-08 3.9874650e-09 
1.5308037e-09 1.7035717e-08 6.1354224e-09 
2.8682265e-09 4.8353899e-09 8.5405318e-09 
2.6345797e-09 1.5704961e-08 7.7826172e-09 
9.6410546e-10 2.4519952e-08 1.9284834e-09 
2.9971499e-09 3.0505101e-09 9.2218668e-09 
2.7947928e-09 2.6696302e-08 5.0853379e-09 
-1.6103010e-09 2.7974076e-08 -8.9970259e-10 
-3.8476968e-09 2.6224429e-08 -1.0649907e-08 
-3.0135581e-09 2.6166209e-08 -7.6322930e-09 
1.5404059e-09 1.4801651e-08 -7.4772100e-09 
1.2286822e-08 1.6241176e-08 -1.2905197e-08 
2.7675812e-08 3.1479594e-08 1.8375967e-08 
2.9663353e-08 2.2961558e-08 -2.5259126e-08 
1.1754450e-07 1.6796240e-07 4.1054097e-08 
1.0946216e-07 1.3331284e-07 -2.5514664e-08 
1.5305180e-07 3.5169808e-07 2.5410531e-09 
1.2982903e-07 1.1602118e-07 -1.1389398e-07 
2.5206486e-07 6.3841543e-07 -2.1034705e-07 
-6.4058745e-09 7.0837025e-09 -1.4862580e-08 
-3.6053753e-09 2.2432385e-08 -9.8365760e-09 
8.6958572e-08 1.3659442e-07 1.0577731e-07 
1.4819340e-08 -5.8651084e-09 -2.9363530e-08 
1.7723539e-09 -6.4086758e-09 5.3400750e-09 
9.2164640e-09 4.5876201e-09 1.6498097e-08 
-1.9788717e-09 2.2466812e-08 -1.2722840e-08 
-1.0479390e-07 -6.8598172e-07 -5.5165538e-07 
1.9667179e-09 -4.7422235e-09 4.5471773e-09 
3.5752699e-09 1.5114432e-08 1.0591499e-08 
3.2630700e-09 5.6042864e-09 1.0801815e-08 
-2.5482494e-09 -1.2224323e-09 -1.0136868e-08 
1.6312610e-08 -1.3241113e-07 -7.5927609e-08 
1.6725760e-07 1.4868364e-06 1.6070075e-07 
1.3928172e-07 5.5693300e-07 1.2089855e-07 
6.3561743e-08 1.7692845e-07 1.6669827e-07 
1.0316846e-08 -2.2095529e-08 5.2158121e-08 
2.1917244e-09 3.0560802e-08 1.0898390e-09 
3.7975276e-09 2.5842697e-08 8.8852046e-09 
7.1215521e-07 -4.7353815e-06 -2.3376751e-08 
3.2508493e-07 2.7177396e-06 -6.4698054e-07 
9.4178654e-10 -6.5816197e-09 5.4668940e-09 
6.8321519e-08 -1.1915071e-07 -3.7466427e-07 
3.1622454e-07 9.2322756e-07 7.2840038e-08 
2.5161133e-09 9.2497494e-09 1.1139784e-08 
6.7253897e-10 2.7918253e-08 -1.6905500e-09 
2.9496863e-07 7.8223400e-07 -8.3183124e-07 
-5.6469123e-09 -2.8489669e-08 -2.4102491e-09 
2.5879174e-09 -3.0728218e-09 7.3366055e-09 
1.0518106e-09 -7.4253199e-09 2.4042819e-09 
-1.1937296e-08 -2.1174175e-07 -8.1662456e-08 
1.2702631e-08 1.6424524e-08 -1.9824208e-08 
3.4104426e-07 1.5150763e-06 -3.2861954e-07 
1.9858628e-09 -2.3936955e-09 7.9904225e-09 
-9.7035324e-10 2.8021496e-08 -3.9916581e-09 
4.0335202e-08 -5.1591776e-08 -1.2601808e-07 
5.2036221e-08 -9.2907054e-10 -4.9536993e-08 
-2.3304916e-07 -1.2871143e-06 -1.0981896e-06 
-7.0215642e-09 -3.6450376e-09 -1.5847555e-09 
1.0855855e-09 -6.8910153e-09 4.3624837e-09 
2.7787030e-07 3.4807019e-06 -2.9846578e-07 
5.4030374e-07 4.2528873e-06 -5.0989684e-07 
7.3848241e-08 1.7825049e-06 8.3414690e-08 
4.3095834e-08 9.4338685e-07 1.1355480e-07 
2.6236577e-07 1.3673487e-06 -3.6627301e-07 
4.3668629e-09 3.2284456e-07 5.7313631e-08 
-1.2444104e-08 2.5489387e-08 2.9431673e-08 
-5.5057829e-09 -3.7512045e-08 4.2524015e-09 
-6.7813097e-09 -3.1394059e-08 -1.2217233e-08 
-5.5307425e-10 2.3377380e-09 -1.0500607e-08 
1.5251190e-09 2.3342045e-08 -5.6926339e-09 
3.0871610e-09 3.3453485e-08 6.5255211e-11 
2.6648310e-09 3.2322287e-08 4.7248876e-09 
1.7207061e-09 2.0829814e-08 6.9524271e-09 
8.3110580e-10 1.1737915e-08 7.7392759e-09 
2.6442631e-10 2.0227349e-09 6.4322769e-09 
-1.6496467e-10 -5.3048259e-09 4.0740775e-09 
-1.4419626e-06 -7.3780866e-06 -6.9265269e-07 
-8.1427984e-08 7.3161368e-07 3.7962977e-07 
-7.4111753e-08 1.9985397e-07 -1.0245075e-07 
-2.2892610e-09 1.4444006e-08 -1.7932468e-08 
-5.7252342e-10 2.0449615e-08 -3.0415339e-09 
-7.1454981e-10 1.9629218e-09 -2.5498708e-09 
-6.4850560e-08 4.7416201e-08 1.7739532e-09 
-1.8073935e-08 1.5011638e-08 -1.9091882e-08 
-2.5501778e-09 2.1656730e-08 -7.0263368e-09 
-1.2089211e-08 2.0445126e-08 -7.4613652e-08 
-1.5778647e-07 1.1531416e-06 -2.1933499e-07 
-1.0883923e-07 -3.8743886e-07 1.4165855e-06 
-1.9362800e-09 5.4881455e-09 -3.9478314e-09 
-1.1761013e-07 1.4274677e-07 1.9252636e-07 
1.2868344e-09 2.4275558e-08 -2.5537497e-09 
-7.3868633e-11 1.7181891e-08 4.8270193e-10 
-2.4675131e-08 2.3856092e-07 -1.5049349e-07 
-1.2054660e-08 2.1344968e-08 -3.6218669e-08 
-1.2370694e-07 4.0336283e-07 -4.4536360e-08 
-2.4775164e-09 -1.9259252e-08 -1.5278777e-08 
-1.6097269e-08 2.6662494e-08 -4.3522043e-08 
-2.4344578e-07 2.3980344e-06 -2.1112806e-08 
-4.0516968e-09 1.8532207e-08 -6.0673968e-09 
1.3858382e-10 7.7707818e-10 2.6488436e-10 
-4.2168637e-08 -5.6794558e-08 4.0130789e-08 
-4.1370063e-10 -5.2150950e-09 -4.2704398e-10 
-6.8752740e-08 4.1236615e-07 -4.3931531e-10 
-9.6806687e-09 2.0534534e-08 -1.6127983e-08 
-1.0134229e-07 1.4374666e-07 9.7913279e-08 
-6.3004350e-08 7.7857393e-08 -3.6691052e-08 
-3.2942527e-08 5.7488236e-08 -2.8751961e-08 
-1.4219462e-09 1.2190692e-08 -2.1396263e-09 
-9.3387098e-10 2.5160645e-08 -2.6800109e-09 
1.1402710e-09 2.9516263e-08 9.9373354e-10 
-3.0995746e-09 2.4316769e-08 -1.3675268e-08 
-8.9069613e-10 -2.5282161e-09 -2.2241751e-09 
-7.3384832e-10 1.1406272e-08 -6.8414156e-11 
-2.7089182e-09 -2.2373681e-07 4.0552302e-07 
-1.9392491e-08 -4.2885762e-09 -7.9154203e-09 
3.9883801e-08 -9.6376660e-08 7.5456387e-07 
4.7884330e-10 1.3962596e-08 -3.4410172e-09 
-2.8766534e-08 5.8768951e-08 -4.3088498e-08 
3.1839792e-10 -5.0952944e-09 9.7792152e-10 
-9.9860731e-10 1.0452366e-08 -4.0267532e-09 
-1.4665964e-08 1.0325095e-07 -6.6598126e-08 
-5.4152949e-08 8.1925958e-07 2.8817519e-07 
-6.0161272e-09 2.4089395e-08 -1.3862142e-08 
-2.8572657e-08 2.9595266e-09 6.0865206e-09 
-1.1222585e-09 7.2741608e-09 -3.4724636e-09 
-6.0382135e-08 1.6374328e-07 1.0043124e-08 
-6.0329033e-11 1.2158869e-08 -1.5598307e-08 
-2.5478109e-08 -5.7067908e-08 -5.0233311e-09 
-1.4292142e-09 3.6559069e-09 -3.3094771e-09 
5.2029347e-10 3.3814069e-09 3.6708856e-09 
-1.5573519e-10 2.6839778e-08 -6.2964491e-09 
1.8554158e-09 8.3084624e-09 -4.7837028e-09 
-1.4515101e-09 1.3658910e-08 -6.2243086e-09 
-3.6993827e-10 -7.1792344e-10 -1.8811004e-09 
-9.2953893e-09 -1.3047443e-07 1.7472219e-08 
-7.7984934e-09 1.3723924e-08 -1.2430516e-08 
-8.9085290e-09 7.8277731e-09 -8.0383017e-10 
-3.4718102e-09 2.7506161e-08 -5.0420157e-09 
-1.9202031e-09 1.2078178e-08 -4.5072555e-09 
-1.5021510e-07 9.5121493e-07 2.7541061e-09 
7.1463879e-10 9.7938146e-09 4.3265995e-09 
-3.0648863e-08 1.8191118e-08 -2.7243200e-08 
-1.8506410e-10 4.4333151e-10 8.5977775e-10 