# vtk DataFile Version 4.0
vtk output
ASCII
DATASET UNSTRUCTURED_GRID
POINTS 460 float
0.0000000e+00 0.0000000e+00 0.0000000e+00 
5.0000000e+00 0.0000000e+00 0.0000000e+00 
5.0000000e+00 3.0000000e+00 0.0000000e+00 
0.0000000e+00 3.0000000e+00 0.0000000e+00 
0.0000000e+00 0.0000000e+00 1.0000000e+01 
5.0000000e+00 0.0000000e+00 1.0000000e+01 
5.0000000e+00 3.0000000e+00 1.0000000e+01 
0.0000000e+00 3.0000000e+00 1.0000000e+01 
1.0000000e+00 3.0000000e+00 -5.0000000e+00 
1.0000000e+00 3.0000000e+00 -4.5000000e+00 
1.0000000e+00 3.0000000e+00 -4.0000000e+00 
1.0000000e+00 3.0000000e+00 -3.5000000e+00 
1.0000000e+00 3.0000000e+00 -3.0000000e+00 
1.0000000e+00 3.0000000e+00 -2.5000000e+00 
1.0000000e+00 3.0000000e+00 -2.0000000e+00 
1.0000000e+00 3.0000000e+00 -1.5000000e+00 
1.0000000e+00 3.0000000e+00 -1.0000000e+00 
1.0000000e+00 3.0000000e+00 -5.0000000e-01 
1.0000000e+00 3.0000000e+00 0.0000000e+00 
1.0000000e+00 3.0000000e+00 5.0000000e-01 
1.0000000e+00 3.0000000e+00 1.0000000e+00 
1.0000000e+00 3.0000000e+00 1.5000000e+00 
1.0000000e+00 3.0000000e+00 2.0000000e+00 
1.0000000e+00 3.0000000e+00 2.5000000e+00 
1.0000000e+00 3.0000000e+00 3.0000000e+00 
1.0000000e+00 3.0000000e+00 3.5000000e+00 
1.0000000e+00 3.0000000e+00 4.0000000e+00 
1.0000000e+00 3.0000000e+00 4.5000000e+00 
1.0000000e+00 3.0000000e+00 5.0000000e+00 
1.0000000e+00 3.0000000e+00 5.5000000e+00 
1.0000000e+00 3.0000000e+00 6.0000000e+00 
1.0000000e+00 3.0000000e+00 6.5000000e+00 
1.0000000e+00 3.0000000e+00 7.0000000e+00 
1.0000000e+00 3.0000000e+00 7.5000000e+00 
1.0000000e+00 3.0000000e+00 8.0000000e+00 
1.0000000e+00 3.0000000e+00 8.5000000e+00 
1.0000000e+00 3.0000000e+00 9.0000000e+00 
1.0000000e+00 3.0000000e+00 9.5000000e+00 
1.0000000e+00 3.0000000e+00 1.0000000e+01 
1.0000000e+00 3.0000000e+00 1.0500000e+01 
1.0000000e+00 3.0000000e+00 1.1000000e+01 
1.0000000e+00 3.0000000e+00 1.1500000e+01 
1.0000000e+00 3.0000000e+00 1.2000000e+01 
1.0000000e+00 3.0000000e+00 1.2500000e+01 
1.0000000e+00 3.0000000e+00 1.3000000e+01 
1.0000000e+00 3.0000000e+00 1.3500000e+01 
1.0000000e+00 3.0000000e+00 1.4000000e+01 
1.0000000e+00 3.0000000e+00 1.4500000e+01 
1.0000000e+00 3.0250001e+00 -5.0000000e+00 
1.0000000e+00 3.0250001e+00 -4.5000000e+00 
1.0000000e+00 3.0250001e+00 -4.0000000e+00 
1.0000000e+00 3.0250001e+00 -3.5000000e+00 
1.0000000e+00 3.0250001e+00 -3.0000000e+00 
1.0000000e+00 3.0250001e+00 -2.5000000e+00 
1.0000000e+00 3.0250001e+00 -2.0000000e+00 
1.0000000e+00 3.0250001e+00 -1.5000000e+00 
1.0000000e+00 3.0250001e+00 -1.0000000e+00 
1.0000000e+00 3.0250001e+00 -5.0000000e-01 
1.0000000e+00 3.0250001e+00 0.0000000e+00 
1.0000000e+00 3.0250001e+00 5.0000000e-01 
1.0000000e+00 3.0250001e+00 1.0000000e+00 
1.0000000e+00 3.0250001e+00 1.5000000e+00 
1.0000000e+00 3.0250001e+00 2.0000000e+00 
1.0000000e+00 3.0250001e+00 2.5000000e+00 
1.0000000e+00 3.0250001e+00 3.0000000e+00 
1.0000000e+00 3.0250001e+00 3.5000000e+00 
1.0000000e+00 3.0250001e+00 4.0000000e+00 
1.0000000e+00 3.0250001e+00 4.5000000e+00 
1.0000000e+00 3.0250001e+00 5.0000000e+00 
1.0000000e+00 3.0250001e+00 5.5000000e+00 
1.0000000e+00 3.0250001e+00 6.0000000e+00 
1.0000000e+00 3.0250001e+00 6.5000000e+00 
1.0000000e+00 3.0250001e+00 7.0000000e+00 
1.0000000e+00 3.0250001e+00 7.5000000e+00 
1.0000000e+00 3.0250001e+00 8.0000000e+00 
1.0000000e+00 3.0250001e+00 8.5000000e+00 
1.0000000e+00 3.0250001e+00 9.0000000e+00 
1.0000000e+00 3.0250001e+00 9.5000000e+00 
1.0000000e+00 3.0250001e+00 1.0000000e+01 
1.0000000e+00 3.0250001e+00 1.0500000e+01 
1.0000000e+00 3.0250001e+00 1.1000000e+01 
1.0000000e+00 3.0250001e+00 1.1500000e+01 
1.0000000e+00 3.0250001e+00 1.2000000e+01 
1.0000000e+00 3.0250001e+00 1.2500000e+01 
1.0000000e+00 3.0250001e+00 1.3000000e+01 
1.0000000e+00 3.0250001e+00 1.3500000e+01 
1.0000000e+00 3.0250001e+00 1.4000000e+01 
1.0000000e+00 3.0250001e+00 1.4500000e+01 
1.0000000e+00 -2.0000000e+00 -5.0000000e+00 
1.0000000e+00 -2.0000000e+00 -4.5000000e+00 
1.0000000e+00 -2.0000000e+00 -4.0000000e+00 
1.0000000e+00 -2.0000000e+00 -3.5000000e+00 
1.0000000e+00 -2.0000000e+00 -3.0000000e+00 
1.0000000e+00 -2.0000000e+00 -2.5000000e+00 
1.0000000e+00 -2.0000000e+00 -2.0000000e+00 
1.0000000e+00 -2.0000000e+00 -1.5000000e+00 
1.0000000e+00 -2.0000000e+00 -1.0000000e+00 
1.0000000e+00 -2.0000000e+00 -5.0000000e-01 
1.0000000e+00 -2.0000000e+00 1.0500000e+01 
1.0000000e+00 -2.0000000e+00 1.1000000e+01 
1.0000000e+00 -2.0000000e+00 1.1500000e+01 
1.0000000e+00 -2.0000000e+00 1.2000000e+01 
1.0000000e+00 -2.0000000e+00 1.2500000e+01 
1.0000000e+00 -2.0000000e+00 1.3000000e+01 
1.0000000e+00 -2.0000000e+00 1.3500000e+01 
1.0000000e+00 -2.0000000e+00 1.4000000e+01 
1.0000000e+00 -2.0000000e+00 1.4500000e+01 
1.0000000e+00 0.0000000e+00 0.0000000e+00 
2.0000000e+00 0.0000000e+00 0.0000000e+00 
3.0000000e+00 0.0000000e+00 0.0000000e+00 
4.0000000e+00 0.0000000e+00 0.0000000e+00 
5.0000000e+00 1.0000000e+00 0.0000000e+00 
5.0000000e+00 2.0000000e+00 0.0000000e+00 
0.0000000e+00 2.0000000e+00 0.0000000e+00 
0.0000000e+00 1.0000000e+00 0.0000000e+00 
0.0000000e+00 0.0000000e+00 1.0000000e+00 
0.0000000e+00 0.0000000e+00 2.0000000e+00 
0.0000000e+00 0.0000000e+00 3.0000000e+00 
0.0000000e+00 0.0000000e+00 4.0000000e+00 
0.0000000e+00 0.0000000e+00 5.0000000e+00 
0.0000000e+00 0.0000000e+00 6.0000000e+00 
0.0000000e+00 0.0000000e+00 7.0000000e+00 
0.0000000e+00 0.0000000e+00 8.0000000e+00 
0.0000000e+00 0.0000000e+00 9.0000000e+00 
5.0000000e+00 0.0000000e+00 1.0000000e+00 
5.0000000e+00 0.0000000e+00 2.0000000e+00 
5.0000000e+00 0.0000000e+00 3.0000000e+00 
5.0000000e+00 0.0000000e+00 4.0000000e+00 
5.0000000e+00 0.0000000e+00 5.0000000e+00 
5.0000000e+00 0.0000000e+00 6.0000000e+00 
5.0000000e+00 0.0000000e+00 7.0000000e+00 
5.0000000e+00 0.0000000e+00 8.0000000e+00 
5.0000000e+00 0.0000000e+00 9.0000000e+00 
1.0000000e+00 0.0000000e+00 1.0000000e+01 
2.0000000e+00 0.0000000e+00 1.0000000e+01 
3.0000000e+00 0.0000000e+00 1.0000000e+01 
4.0000000e+00 0.0000000e+00 1.0000000e+01 
5.0000000e+00 3.0000000e+00 1.0000000e+00 
5.0000000e+00 3.0000000e+00 2.0000000e+00 
5.0000000e+00 3.0000000e+00 3.0000000e+00 
5.0000000e+00 3.0000000e+00 4.0000000e+00 
5.0000000e+00 3.0000000e+00 5.0000000e+00 
5.0000000e+00 3.0000000e+00 6.0000000e+00 
5.0000000e+00 3.0000000e+00 7.0000000e+00 
5.0000000e+00 3.0000000e+00 8.0000000e+00 
5.0000000e+00 3.0000000e+00 9.0000000e+00 
5.0000000e+00 1.0000000e+00 1.0000000e+01 
5.0000000e+00 2.0000000e+00 1.0000000e+01 
0.0000000e+00 3.0000000e+00 1.0000000e+00 
0.0000000e+00 3.0000000e+00 2.0000000e+00 
0.0000000e+00 3.0000000e+00 3.0000000e+00 
0.0000000e+00 3.0000000e+00 4.0000000e+00 
0.0000000e+00 3.0000000e+00 5.0000000e+00 
0.0000000e+00 3.0000000e+00 6.0000000e+00 
0.0000000e+00 3.0000000e+00 7.0000000e+00 
0.0000000e+00 3.0000000e+00 8.0000000e+00 
0.0000000e+00 3.0000000e+00 9.0000000e+00 
0.0000000e+00 2.0000000e+00 1.0000000e+01 
0.0000000e+00 1.0000000e+00 1.0000000e+01 
4.0000000e+00 3.0000000e+00 0.0000000e+00 
3.0000000e+00 3.0000000e+00 0.0000000e+00 
2.0000000e+00 3.0000000e+00 0.0000000e+00 
4.0000000e+00 3.0000000e+00 1.0000000e+01 
3.0000000e+00 3.0000000e+00 1.0000000e+01 
2.0000000e+00 3.0000000e+00 1.0000000e+01 
4.0618000e+00 1.5000000e+00 0.0000000e+00 
1.5046000e+00 7.6549745e-01 0.0000000e+00 
2.5000000e+00 2.1339746e+00 0.0000000e+00 
1.5046000e+00 2.2345026e+00 0.0000000e+00 
2.4957771e+00 8.1560516e-01 0.0000000e+00 
3.4707544e+00 2.2336540e+00 0.0000000e+00 
3.4700506e+00 7.5794268e-01 0.0000000e+00 
8.6322361e-01 1.5000000e+00 0.0000000e+00 
2.0000000e+00 1.5000000e+00 0.0000000e+00 
2.9960666e+00 1.4974480e+00 0.0000000e+00 
4.2679491e+00 7.3205084e-01 0.0000000e+00 
4.2679491e+00 2.2679491e+00 0.0000000e+00 
7.2695929e-01 2.2730408e+00 0.0000000e+00 
7.2695929e-01 7.2695929e-01 0.0000000e+00 
4.1822505e+00 0.0000000e+00 2.5515697e+00 
4.2017918e+00 0.0000000e+00 4.4725966e+00 
4.1114569e+00 0.0000000e+00 6.5092020e+00 
8.6602539e-01 0.0000000e+00 3.5000000e+00 
8.4778279e-01 0.0000000e+00 5.4684029e+00 
8.9629614e-01 0.0000000e+00 7.5867257e+00 
2.5566745e+00 0.0000000e+00 8.1853306e-01 
2.4918270e+00 0.0000000e+00 9.1386929e+00 
8.4677207e-01 0.0000000e+00 1.5042374e+00 
4.0943027e+00 0.0000000e+00 8.4081745e+00 
8.6281651e-01 0.0000000e+00 2.5007062e+00 
1.7315160e+00 0.0000000e+00 3.0001178e+00 
1.7319617e+00 0.0000000e+00 4.0000196e+00 
2.5980761e+00 0.0000000e+00 3.5000000e+00 
2.5536871e+00 0.0000000e+00 4.4963923e+00 
2.5928419e+00 0.0000000e+00 2.4239938e+00 
1.5037409e+00 0.0000000e+00 9.1535149e+00 
1.8433737e+00 0.0000000e+00 8.1858873e+00 
3.0000000e+00 0.0000000e+00 8.2679491e+00 
2.5000000e+00 0.0000000e+00 7.4019237e+00 
3.5042722e+00 0.0000000e+00 7.4271150e+00 
3.0310018e+00 0.0000000e+00 6.5282087e+00 
2.0373929e+00 0.0000000e+00 6.5307913e+00 
3.4767809e+00 0.0000000e+00 5.8031492e+00 
2.5452602e+00 0.0000000e+00 5.5720768e+00 
1.6456656e+00 0.0000000e+00 1.9697139e+00 
8.6297011e-01 0.0000000e+00 4.4947371e+00 
1.0111579e+00 0.0000000e+00 6.5282545e+00 
3.4994321e+00 0.0000000e+00 8.4691072e-01 
4.1860156e+00 0.0000000e+00 3.5040276e+00 
1.7320508e+00 0.0000000e+00 5.0000000e+00 
4.0544066e+00 0.0000000e+00 1.5781221e+00 
1.5817389e+00 0.0000000e+00 9.3943578e-01 
8.3166349e-01 0.0000000e+00 8.5090933e+00 
3.4686174e+00 0.0000000e+00 9.1752682e+00 
3.0709300e+00 0.0000000e+00 1.5799091e+00 
3.3927374e+00 0.0000000e+00 3.0399952e+00 
3.3826034e+00 0.0000000e+00 3.9747651e+00 
4.3420062e+00 0.0000000e+00 7.4688983e+00 
3.4023225e+00 0.0000000e+00 4.9314723e+00 
1.6740381e+00 0.0000000e+00 7.3014426e+00 
4.2715640e+00 0.0000000e+00 5.4758859e+00 
1.6225953e+00 0.0000000e+00 5.8104177e+00 
4.2679491e+00 0.0000000e+00 9.2679491e+00 
7.3205084e-01 0.0000000e+00 7.3205084e-01 
4.2679491e+00 0.0000000e+00 7.3205084e-01 
7.3205084e-01 0.0000000e+00 9.2679491e+00 
3.4586334e+00 0.0000000e+00 2.2347178e+00 
2.2895701e+00 0.0000000e+00 1.5463171e+00 
5.0000000e+00 2.2345026e+00 1.5046000e+00 
[...]
POINT_DATA 460
FIELD FieldData 5
DISPLACEMENT 3 460  float
0.0000000e+00 0.0000000e+00 0.0000000e+00 
0.0000000e+00 0.0000000e+00 0.0000000e+00 
0.0000000e+00 -4.0777959e-08 0.0000000e+00 
0.0000000e+00 -3.7696877e-06 0.0000000e+00 
0.0000000e+00 0.0000000e+00 0.0000000e+00 
0.0000000e+00 0.0000000e+00 0.0000000e+00 
0.0000000e+00 7.3873525e-07 0.0000000e+00 
0.0000000e+00 2.4742712e-06 0.0000000e+00 
0.0000000e+00 1.5694370e-05 0.0000000e+00 
0.0000000e+00 1.6887083e-05 0.0000000e+00 
0.0000000e+00 1.6848891e-05 0.0000000e+00 
0.0000000e+00 1.2622845e-05 0.0000000e+00 
0.0000000e+00 4.7111253e-06 0.0000000e+00 
0.0000000e+00 -3.7601021e-06 0.0000000e+00 
0.0000000e+00 -6.8316685e-06 0.0000000e+00 
0.0000000e+00 -8.0187556e-06 0.0000000e+00 
0.0000000e+00 -9.9057670e-06 0.0000000e+00 
0.0000000e+00 -9.0709873e-06 0.0000000e+00 
0.0000000e+00 -1.1533958e-05 0.0000000e+00 
1.0378213e-07 -9.0024232e-06 5.0151550e-07 
2.7152876e-07 -4.5744373e-06 5.8356392e-07 
5.8083407e-07 -3.4385230e-06 9.9805925e-07 
4.1292404e-07 -4.1027661e-06 1.8816431e-06 
7.8165431e-07 -1.1519988e-05 1.7452786e-06 
9.5071090e-07 -1.8187928e-05 1.9502982e-06 
5.2213289e-07 -1.6861826e-05 1.5894100e-06 
8.6706632e-07 -1.8394556e-05 2.0046157e-06 
-6.3802423e-07 -2.7340886e-05 1.9941328e-06 
-3.3461393e-07 -3.7121601e-05 -3.2417614e-07 
7.9146776e-07 -3.2322900e-05 -3.6457286e-06 
-6.3226270e-07 -1.5035681e-05 -2.6493635e-06 
-1.3546061e-06 2.0029590e-07 -4.1880439e-06 
-3.0231072e-06 1.2363039e-05 -5.5099113e-06 
-3.1911288e-06 2.0959193e-05 -3.5890860e-06 
-2.1848568e-06 1.2703525e-05 -2.5289514e-06 
-3.8373520e-07 -5.4035166e-07 -2.0447444e-06 
-2.5811595e-08 -1.0049597e-06 -1.9140493e-06 
3.4971345e-07 3.1719205e-06 -1.3175772e-06 
0.0000000e+00 5.2817649e-07 0.0000000e+00 
0.0000000e+00 -2.4091081e-05 0.0000000e+00 
0.0000000e+00 -9.7896460e-05 0.0000000e+00 
0.0000000e+00 -2.3490346e-04 0.0000000e+00 
0.0000000e+00 -4.1138846e-04 0.0000000e+00 
0.0000000e+00 -5.6873460e-04 0.0000000e+00 
0.0000000e+00 -6.2374037e-04 0.0000000e+00 
0.0000000e+00 -5.4206466e-04 0.0000000e+00 
0.0000000e+00 -4.2436799e-04 0.0000000e+00 
0.0000000e+00 -3.7184748e-04 0.0000000e+00 
0.0000000e+00 1.5759055e-05 0.0000000e+00 
0.0000000e+00 1.6956481e-05 0.0000000e+00 
0.0000000e+00 1.6918068e-05 0.0000000e+00 
0.0000000e+00 1.2675194e-05 0.0000000e+00 
0.0000000e+00 4.7319745e-06 0.0000000e+00 
0.0000000e+00 -3.7729988e-06 0.0000000e+00 
0.0000000e+00 -6.8570153e-06 0.0000000e+00 
0.0000000e+00 -8.0490763e-06 0.0000000e+00 
0.0000000e+00 -9.9442659e-06 0.0000000e+00 
0.0000000e+00 -9.1068487e-06 0.0000000e+00 
0.0000000e+00 -1.1650004e-05 0.0000000e+00 
0.0000000e+00 -9.0827216e-06 0.0000000e+00 
0.0000000e+00 -4.5859570e-06 0.0000000e+00 
0.0000000e+00 -3.3992092e-06 0.0000000e+00 
0.0000000e+00 -4.0665127e-06 0.0000000e+00 
0.0000000e+00 -1.1658280e-05 0.0000000e+00 
0.0000000e+00 -1.8492145e-05 0.0000000e+00 
0.0000000e+00 -1.6974976e-05 0.0000000e+00 
0.0000000e+00 -1.8549632e-05 0.0000000e+00 
0.0000000e+00 -2.7650380e-05 0.0000000e+00 
0.0000000e+00 -3.7761016e-05 0.0000000e+00 
0.0000000e+00 -3.2861502e-05 0.0000000e+00 
0.0000000e+00 -1.5190639e-05 0.0000000e+00 
0.0000000e+00 2.8386481e-07 0.0000000e+00 
0.0000000e+00 1.2602126e-05 0.0000000e+00 
0.0000000e+00 2.1443542e-05 0.0000000e+00 
0.0000000e+00 1.2913319e-05 0.0000000e+00 
0.0000000e+00 -6.3980178e-07 0.0000000e+00 
0.0000000e+00 -1.0942401e-06 0.0000000e+00 
0.0000000e+00 3.2529611e-06 0.0000000e+00 
0.0000000e+00 6.6631486e-07 0.0000000e+00 
0.0000000e+00 -2.4219004e-05 0.0000000e+00 
0.0000000e+00 -9.8345001e-05 0.0000000e+00 
0.0000000e+00 -2.3592348e-04 0.0000000e+00 
0.0000000e+00 -4.1312899e-04 0.0000000e+00 
0.0000000e+00 -5.7110458e-04 0.0000000e+00 
0.0000000e+00 -6.2631461e-04 0.0000000e+00 
0.0000000e+00 -5.4429786e-04 0.0000000e+00 
0.0000000e+00 -4.2612129e-04 0.0000000e+00 
0.0000000e+00 -3.7338733e-04 0.0000000e+00 
0.0000000e+00 0.0000000e+00 0.0000000e+00 
0.0000000e+00 0.0000000e+00 0.0000000e+00 
0.0000000e+00 0.0000000e+00 0.0000000e+00 
0.0000000e+00 0.0000000e+00 0.0000000e+00 
0.0000000e+00 0.0000000e+00 0.0000000e+00 
0.0000000e+00 0.0000000e+00 0.0000000e+00 
0.0000000e+00 0.0000000e+00 0.0000000e+00 
0.0000000e+00 0.0000000e+00 0.0000000e+00 
0.0000000e+00 0.0000000e+00 0.0000000e+00 
0.0000000e+00 0.0000000e+00 0.0000000e+00 
0.0000000e+00 0.0000000e+00 0.0000000e+00 
0.0000000e+00 0.0000000e+00 0.0000000e+00 
0.0000000e+00 0.0000000e+00 0.0000000e+00 
0.0000000e+00 0.0000000e+00 0.0000000e+00 
0.0000000e+00 0.0000000e+00 0.0000000e+00 
0.0000000e+00 0.0000000e+00 0.0000000e+00 
0.0000000e+00 0.0000000e+00 0.0000000e+00 
0.0000000e+00 0.0000000e+00 0.0000000e+00 
0.0000000e+00 0.0000000e+00 0.0000000e+00 
0.0000000e+00 0.0000000e+00 0.0000000e+00 
0.0000000e+00 0.0000000e+00 0.0000000e+00 
0.0000000e+00 0.0000000e+00 0.0000000e+00 
0.0000000e+00 0.0000000e+00 0.0000000e+00 
0.0000000e+00 -5.8712427e-08 0.0000000e+00 
0.0000000e+00 -5.6809540e-08 0.0000000e+00 
0.0000000e+00 -3.2216574e-06 0.0000000e+00 
0.0000000e+00 -1.5660620e-06 0.0000000e+00 
0.0000000e+00 0.0000000e+00 0.0000000e+00 
0.0000000e+00 0.0000000e+00 0.0000000e+00 
0.0000000e+00 0.0000000e+00 0.0000000e+00 
0.0000000e+00 0.0000000e+00 0.0000000e+00 
0.0000000e+00 0.0000000e+00 0.0000000e+00 
0.0000000e+00 0.0000000e+00 0.0000000e+00 
0.0000000e+00 0.0000000e+00 0.0000000e+00 
0.0000000e+00 0.0000000e+00 0.0000000e+00 
0.0000000e+00 0.0000000e+00 0.0000000e+00 
0.0000000e+00 0.0000000e+00 0.0000000e+00 
0.0000000e+00 0.0000000e+00 0.0000000e+00 
0.0000000e+00 0.0000000e+00 0.0000000e+00 
0.0000000e+00 0.0000000e+00 0.0000000e+00 
0.0000000e+00 0.0000000e+00 0.0000000e+00 
0.0000000e+00 0.0000000e+00 0.0000000e+00 
0.0000000e+00 0.0000000e+00 0.0000000e+00 
0.0000000e+00 0.0000000e+00 0.0000000e+00 
0.0000000e+00 0.0000000e+00 0.0000000e+00 
0.0000000e+00 0.0000000e+00 0.0000000e+00 
0.0000000e+00 0.0000000e+00 0.0000000e+00 
0.0000000e+00 0.0000000e+00 0.0000000e+00 
0.0000000e+00 0.0000000e+00 0.0000000e+00 
0.0000000e+00 -5.9616898e-09 0.0000000e+00 
0.0000000e+00 3.5975123e-08 0.0000000e+00 
0.0000000e+00 -1.9843007e-07 0.0000000e+00 
0.0000000e+00 -3.3744749e-07 0.0000000e+00 
0.0000000e+00 -4.6844153e-07 0.0000000e+00 
0.0000000e+00 -1.9412090e-07 0.0000000e+00 
0.0000000e+00 -1.6490401e-07 0.0000000e+00 
0.0000000e+00 1.5873473e-08 0.0000000e+00 
0.0000000e+00 4.7682062e-07 0.0000000e+00 
0.0000000e+00 4.0751596e-07 0.0000000e+00 
0.0000000e+00 6.7477754e-07 0.0000000e+00 
0.0000000e+00 -3.8350995e-06 0.0000000e+00 
0.0000000e+00 -5.1134116e-06 0.0000000e+00 
0.0000000e+00 -9.6019867e-06 0.0000000e+00 
0.0000000e+00 -1.2446739e-05 0.0000000e+00 
0.0000000e+00 -1.3771739e-05 0.0000000e+00 
0.0000000e+00 -7.0770493e-06 0.0000000e+00 
0.0000000e+00 2.8472336e-06 0.0000000e+00 
0.0000000e+00 4.3213704e-06 0.0000000e+00 
0.0000000e+00 2.1858932e-06 0.0000000e+00 
0.0000000e+00 2.3611835e-06 0.0000000e+00 
0.0000000e+00 2.0004177e-06 0.0000000e+00 
0.0000000e+00 -1.0586758e-07 0.0000000e+00 
0.0000000e+00 -7.0807801e-07 0.0000000e+00 
0.0000000e+00 -2.0817624e-06 0.0000000e+00 
0.0000000e+00 7.4514736e-07 0.0000000e+00 
0.0000000e+00 9.5050939e-07 0.0000000e+00 
0.0000000e+00 1.3305425e-06 0.0000000e+00 
0.0000000e+00 -1.2315682e-07 0.0000000e+00 
0.0000000e+00 -1.0322689e-06 0.0000000e+00 
0.0000000e+00 -1.1699999e-06 0.0000000e+00 
0.0000000e+00 -3.6783515e-06 0.0000000e+00 
0.0000000e+00 -6.0924884e-07 0.0000000e+00 
0.0000000e+00 -3.1794124e-07 0.0000000e+00 
0.0000000e+00 -2.0170226e-07 0.0000000e+00 
0.0000000e+00 -2.7363506e-06 0.0000000e+00 
0.0000000e+00 -1.6455097e-06 0.0000000e+00 
0.0000000e+00 -5.1559408e-07 0.0000000e+00 
0.0000000e+00 -3.5187878e-08 0.0000000e+00 
0.0000000e+00 -7.4177521e-08 0.0000000e+00 
0.0000000e+00 -5.0887147e-06 0.0000000e+00 
0.0000000e+00 -1.1570858e-06 0.0000000e+00 
0.0000000e+00 0.0000000e+00 0.0000000e+00 
0.0000000e+00 0.0000000e+00 0.0000000e+00 
0.0000000e+00 0.0000000e+00 0.0000000e+00 
0.0000000e+00 0.0000000e+00 0.0000000e+00 
0.0000000e+00 0.0000000e+00 0.0000000e+00 
0.0000000e+00 0.0000000e+00 0.0000000e+00 
0.0000000e+00 0.0000000e+00 0.0000000e+00 
0.0000000e+00 0.0000000e+00 0.0000000e+00 
0.0000000e+00 0.0000000e+00 0.0000000e+00 
0.0000000e+00 0.0000000e+00 0.0000000e+00 
0.0000000e+00 0.0000000e+00 0.0000000e+00 
0.0000000e+00 0.0000000e+00 0.0000000e+00 
0.0000000e+00 0.0000000e+00 0.0000000e+00 
0.0000000e+00 0.0000000e+00 0.0000000e+00 
0.0000000e+00 0.0000000e+00 0.0000000e+00 
0.0000000e+00 0.0000000e+00 0.0000000e+00 
0.0000000e+00 0.0000000e+00 0.0000000e+00 
0.0000000e+00 0.0000000e+00 0.0000000e+00 
0.0000000e+00 0.0000000e+00 0.0000000e+00 
0.0000000e+00 0.0000000e+00 0.0000000e+00 
0.0000000e+00 0.0000000e+00 0.0000000e+00 
0.0000000e+00 0.0000000e+00 0.0000000e+00 
0.0000000e+00 0.0000000e+00 0.0000000e+00 
0.0000000e+00 0.0000000e+00 0.0000000e+00 
0.0000000e+00 0.0000000e+00 0.0000000e+00 
0.0000000e+00 0.0000000e+00 0.0000000e+00 
0.0000000e+00 0.0000000e+00 0.0000000e+00 
0.0000000e+00 0.0000000e+00 0.0000000e+00 
0.0000000e+00 0.0000000e+00 0.0000000e+00 
0.0000000e+00 0.0000000e+00 0.0000000e+00 
0.0000000e+00 0.0000000e+00 0.0000000e+00 
0.0000000e+00 0.0000000e+00 0.0000000e+00 
0.0000000e+00 0.0000000e+00 0.0000000e+00 
0.0000000e+00 0.0000000e+00 0.0000000e+00 
0.0000000e+00 0.0000000e+00 0.0000000e+00 
0.0000000e+00 0.0000000e+00 0.0000000e+00 
0.0000000e+00 0.0000000e+00 0.0000000e+00 
0.0000000e+00 0.0000000e+00 0.0000000e+00 
0.0000000e+00 0.0000000e+00 0.0000000e+00 
0.0000000e+00 0.0000000e+00 0.0000000e+00 
0.0000000e+00 0.0000000e+00 0.0000000e+00 
0.0000000e+00 0.0000000e+00 0.0000000e+00 
0.0000000e+00 0.0000000e+00 0.0000000e+00 
0.0000000e+00 0.0000000e+00 0.0000000e+00 
0.0000000e+00 0.0000000e+00 0.0000000e+00 
0.0000000e+00 0.0000000e+00 0.0000000e+00 
0.0000000e+00 0.0000000e+00 0.0000000e+00 
0.0000000e+00 0.0000000e+00 0.0000000e+00 
0.0000000e+00 0.0000000e+00 0.0000000e+00 
0.0000000e+00 -5.6676196e-08 0.0000000e+00 
0.0000000e+00 4.0238970e-07 0.0000000e+00 
0.0000000e+00 -2.6304448e-07 0.0000000e+00 
0.0000000e+00 -3.2108395e-07 0.0000000e+00 
0.0000000e+00 1.7044876e-08 0.0000000e+00 
0.0000000e+00 -2.3881699e-07 0.0000000e+00 
0.0000000e+00 -3.1631274e-07 0.0000000e+00 
0.0000000e+00 -1.3141270e-07 0.0000000e+00 
0.0000000e+00 -3.0404118e-07 0.0000000e+00 
0.0000000e+00 -3.1196092e-07 0.0000000e+00 
0.0000000e+00 -1.1235132e-07 0.0000000e+00 
0.0000000e+00 -4.4883137e-07 0.0000000e+00 
0.0000000e+00 -2.2217125e-07 0.0000000e+00 
0.0000000e+00 1.5258811e-07 0.0000000e+00 
0.0000000e+00 -1.9885226e-07 0.0000000e+00 
0.0000000e+00 2.2924270e-07 0.0000000e+00 
0.0000000e+00 2.9009962e-07 0.0000000e+00 
0.0000000e+00 -1.0505894e-07 0.0000000e+00 
0.0000000e+00 -3.9295097e-07 0.0000000e+00 
0.0000000e+00 7.7285467e-09 0.0000000e+00 
0.0000000e+00 -1.9762267e-07 0.0000000e+00 
0.0000000e+00 -3.0129144e-07 0.0000000e+00 
0.0000000e+00 -3.5716548e-07 0.0000000e+00 
0.0000000e+00 -2.9785105e-07 0.0000000e+00 
0.0000000e+00 2.1125841e-07 0.0000000e+00 
0.0000000e+00 5.7634958e-07 0.0000000e+00 
0.0000000e+00 2.1509470e-07 0.0000000e+00 
0.0000000e+00 -2.0907020e-08 0.0000000e+00 
0.0000000e+00 -1.3610979e-07 0.0000000e+00 
0.0000000e+00 1.9331251e-06 0.0000000e+00 
0.0000000e+00 -2.2762185e-06 0.0000000e+00 
0.0000000e+00 -2.2083639e-06 0.0000000e+00 
0.0000000e+00 -3.5135142e-06 0.0000000e+00 
0.0000000e+00 3.0450201e-07 0.0000000e+00 
0.0000000e+00 -8.9188543e-06 0.0000000e+00 
0.0000000e+00 -9.5001078e-06 0.0000000e+00 
0.0000000e+00 2.8567208e-06 0.0000000e+00 
0.0000000e+00 -3.1546610e-06 0.0000000e+00 
0.0000000e+00 -5.9304598e-06 0.0000000e+00 
0.0000000e+00 -1.1768853e-05 0.0000000e+00 
0.0000000e+00 -2.4584108e-06 0.0000000e+00 
0.0000000e+00 -3.5396561e-06 0.0000000e+00 
0.0000000e+00 2.1814403e-06 0.0000000e+00 
0.0000000e+00 -3.5047115e-06 0.0000000e+00 
0.0000000e+00 -1.1912181e-06 0.0000000e+00 
0.0000000e+00 8.9967421e-07 0.0000000e+00 
0.0000000e+00 -7.0891765e-06 0.0000000e+00 
0.0000000e+00 -9.0552510e-07 0.0000000e+00 
0.0000000e+00 -6.6172011e-06 0.0000000e+00 
0.0000000e+00 -5.1709044e-06 0.0000000e+00 
0.0000000e+00 2.4142901e-07 0.0000000e+00 
0.0000000e+00 -2.8555878e-06 0.0000000e+00 
0.0000000e+00 1.7736050e-06 0.0000000e+00 
0.0000000e+00 -3.2605376e-06 0.0000000e+00 
0.0000000e+00 1.5379425e-06 0.0000000e+00 
0.0000000e+00 -3.3170277e-06 0.0000000e+00 
0.0000000e+00 -9.6174074e-07 0.0000000e+00 
0.0000000e+00 2.7791273e-06 0.0000000e+00 
0.0000000e+00 1.0325398e-06 0.0000000e+00 
0.0000000e+00 7.1721303e-07 0.0000000e+00 
0.0000000e+00 1.3897504e-06 0.0000000e+00 
0.0000000e+00 1.8933594e-06 0.0000000e+00 
0.0000000e+00 8.3972014e-07 0.0000000e+00 
0.0000000e+00 1.1099683e-06 0.0000000e+00 
0.0000000e+00 6.3109235e-07 0.0000000e+00 
0.0000000e+00 2.0198293e-06 0.0000000e+00 
0.0000000e+00 1.7772412e-06 0.0000000e+00 
0.0000000e+00 1.2288531e-06 0.0000000e+00 
0.0000000e+00 5.0791868e-07 0.0000000e+00 
0.0000000e+00 9.0781890e-07 0.0000000e+00 
0.0000000e+00 2.7723927e-06 0.0000000e+00 
0.0000000e+00 1.5848366e-06 0.0000000e+00 
2.4716687e-07 -1.4848971e-05 9.6800977e-07 
-8.4439489e-07 -5.0326307e-06 -3.6591537e-06 
-2.4461267e-06 7.0351184e-06 -4.4783178e-06 
2.1355417e-07 -5.3719587e-06 1.3853759e-06 
9.9536612e-07 -1.1323816e-05 1.7871959e-06 
-4.3902627e-08 -4.6239080e-07 -3.9109895e-07 
1.4499626e-07 -2.1058356e-07 -6.9090014e-09 
-1.9159465e-07 -8.7649688e-08 -7.7326933e-07 
6.2419605e-07 -3.6427757e-06 4.6341103e-07 
-2.9120429e-07 2.0271493e-06 -3.1078453e-06 
1.4927149e-07 -3.5843851e-07 -1.3473915e-07 
-4.6939584e-07 9.0953398e-07 -1.0392788e-06 
4.9544727e-08 -3.1083502e-07 -7.8088658e-07 
-3.5914724e-07 1.7316299e-07 -1.9288889e-06 
-6.8559285e-07 6.0998980e-07 -2.2516431e-06 
-8.4369515e-07 9.5318518e-07 -2.7022836e-06 
-5.5486703e-07 -7.8103250e-07 -2.1470653e-06 
-1.2471111e-06 1.5026055e-06 -2.7776239e-06 
-6.6407131e-07 1.4730161e-06 -4.0071382e-06 
-1.9840249e-07 -8.3109506e-07 -1.5537632e-06 
1.1160690e-07 -1.4836590e-06 -7.6513464e-07 
-3.2918237e-07 -2.8640393e-06 -1.1248020e-06 
-2.7369560e-07 -4.3225368e-06 -4.2466115e-07 
1.0819497e-08 -2.1155233e-06 -6.6336874e-08 
-3.1721245e-07 -4.0762866e-06 3.7790093e-07 
9.3880601e-08 -1.5618856e-06 1.7046764e-07 
-1.6975223e-08 -3.5411845e-06 7.5294287e-07 
1.6267010e-07 -1.8068995e-06 3.0854400e-07 
2.5397088e-07 -2.6340208e-06 5.3407621e-07 
3.9154395e-07 -1.0177158e-06 9.9498585e-08 
4.0358293e-07 -1.6782718e-06 2.4472735e-07 
-4.6454804e-07 -7.8143094e-06 -1.1058365e-06 
-5.4035655e-07 -4.3903033e-06 -1.6086376e-06 
-4.9579018e-07 -6.6429870e-06 1.1875092e-06 
1.0177202e-07 -5.0488842e-07 7.0089676e-08 
-4.1105852e-07 1.2895330e-06 -1.5130516e-06 
-2.0942767e-07 -7.6844226e-06 9.2029097e-07 
1.1577891e-07 -7.9425683e-07 -2.1997856e-07 
1.9857190e-07 -1.1694320e-06 -2.9495478e-08 
-5.8942476e-07 4.0234005e-07 -1.1256005e-06 
-1.5006244e-06 2.7562010e-06 -4.0956616e-06 
-1.3447392e-06 2.4485323e-06 -3.9387846e-06 
7.6959168e-08 -1.1634686e-05 -1.6706327e-06 
1.3761489e-07 -6.0576234e-08 -1.1645129e-07 
4.4650642e-07 -7.7489358e-06 1.2888045e-06 
6.0665866e-07 -5.9514291e-06 9.1175281e-07 
5.7647583e-07 -1.2807300e-05 2.2909428e-06 
1.1248295e-06 -1.3670006e-05 2.6152252e-06 
-1.0810531e-06 8.6246428e-07 -4.3487803e-06 
-1.1515358e-06 4.5173047e-06 -4.8600878e-06 
1.4853191e-07 -4.4780982e-06 2.1437660e-07 
5.9485797e-07 -3.8390403e-06 7.5689809e-07 
4.1091749e-07 2.3755497e-06 -1.9452675e-06 
4.3379967e-07 -7.2640069e-07 -2.1739824e-07 
2.1721445e-07 -3.8193175e-06 1.1276395e-06 
-1.5457040e-06 4.4664475e-06 -4.2255283e-06 
-5.0922489e-07 -1.4186505e-06 -3.3558781e-06 
4.1248072e-07 -2.2791437e-06 2.6643141e-07 
2.0594516e-07 -1.6163585e-05 -2.3156291e-07 
-1.1068921e-06 1.4392259e-06 -2.2783422e-06 
-3.2282617e-07 7.0356873e-07 -9.2690789e-07 
2.1648538e-07 -5.7026664e-08 -1.7907524e-07 
2.8988342e-08 -1.1713813e-06 2.0309785e-07 
4.8424312e-07 -3.1014661e-06 5.7915577e-07 
-6.1204440e-07 1.9307356e-06 -2.2118688e-06 
-1.9549587e-07 -2.2474815e-06 -2.0694354e-06 
3.1048663e-07 -3.3970207e-07 -7.5982022e-08 
2.6400429e-07 -7.8636810e-07 5.7026014e-08 
4.2056746e-07 -2.7007618e-06 -3.1445719e-08 
-3.5687390e-07 -9.2544306e-06 1.1925841e-06 
-1.4188130e-08 1.6053605e-06 -1.4207295e-06 
3.2814870e-07 -6.8095337e-06 1.0266617e-06 
5.7337422e-07 -4.9265773e-06 1.0568763e-06 
5.0342123e-07 -9.8002356e-06 1.4185187e-06 
3.6336846e-07 -1.2541936e-05 1.1805454e-06 
5.0021742e-07 -4.5213965e-06 7.5714672e-07 
1.1531439e-06 -1.3140520e-05 9.4958750e-07 
5.0257779e-07 -1.5477082e-05 9.6400754e-07 
8.3455882e-07 -1.7129674e-05 1.6282624e-07 
-1.2668654e-06 -1.7965018e-05 -1.5893206e-06 
-1.5137120e-06 -1.3844426e-05 -2.3094690e-06 
-1.3430695e-06 -7.0500223e-06 -2.5305976e-06 
-1.4100312e-06 9.3514581e-07 -3.3835468e-06 
-1.0080777e-06 6.5538752e-06 -2.5742986e-06 
-1.1734016e-06 6.6728262e-06 -2.4066826e-06 
-8.6259638e-07 4.4540561e-06 -1.6936741e-06 
-3.8321386e-07 1.9399145e-06 -9.9750048e-07 
3.2640688e-07 2.5660765e-06 -9.4337321e-07 
4.3539060e-07 -5.1227757e-06 4.4700064e-07 
1.3011801e-06 -2.5919937e-06 -2.9167279e-07 
1.9617485e-06 -4.6369823e-06 -1.8850949e-07 
1.6324013e-06 -5.2585924e-06 1.0157181e-06 
-9.7354712e-07 3.8619578e-07 2.0333808e-07 
-9.5615974e-07 1.5817792e-06 -7.3956386e-07 
1.2501147e-06 -9.2674185e-07 -3.2129668e-07 
1.2212738e-06 -1.3555536e-06 -4.2549875e-08 
3.7106969e-07 -9.9384431e-07 5.7411478e-07 
1.8507463e-06 -1.0600094e-05 -2.1221908e-07 
1.2646163e-06 -7.0877636e-06 -1.6457652e-07 
8.4994025e-07 -3.1164307e-06 4.0248247e-07 
-9.8741521e-07 5.8903265e-07 -1.4605060e-07 
8.9864670e-07 -8.7734048e-07 -1.2838800e-07 
-1.2432630e-08 -4.0793393e-06 9.9560646e-07 
-8.5460738e-07 4.2302404e-06 -1.7179617e-06 
1.2740671e-06 -1.0498180e-05 1.4655942e-07 
2.0061680e-06 -4.2447782e-06 3.0416103e-07 
1.8031506e-06 -2.6383234e-06 -1.8338307e-07 
1.0789524e-06 -1.3859953e-05 4.5083632e-07 
1.8462459e-06 -3.6523145e-06 3.1012416e-07 
1.4803376e-06 -4.2401430e-06 5.0756188e-07 
6.9016426e-07 -7.4140871e-07 1.5073613e-07 
-2.5806625e-07 2.1335586e-06 -1.3410355e-06 
5.5044802e-07 -2.8737364e-07 -2.6920421e-07 
-7.0303639e-07 7.2916885e-07 -4.4285193e-07 
1.0175702e-06 -2.8324960e-06 -3.8368924e-07 
1.4216213e-06 -1.9777519e-06 5.3290142e-07 
1.2309168e-06 -1.0140240e-06 -2.5377685e-07 
1.4092964e-06 -1.6557593e-06 -2.6185384e-07 
1.3781906e-06 -1.9823526e-06 -1.1223955e-07 
-1.9568887e-07 -4.9592618e-08 -1.6912506e-07 
-6.9202213e-07 -5.2304375e-07 -4.0658227e-07 
-1.5177746e-06 3.2081550e-06 -1.3312761e-06 
1.2448313e-06 -3.7498264e-06 2.2824123e-07 
-8.2497132e-07 7.3946688e-07 -4.4383890e-07 
-1.6505188e-06 1.6536608e-06 -1.2492266e-06 
7.0867708e-07 -9.2840770e-07 -9.2122718e-08 
7.7011435e-07 -5.4717111e-07 -1.4431056e-07 
5.5084632e-07 -1.5079233e-06 7.1237977e-08 
-4.0635665e-08 -1.9437766e-06 8.2411020e-07 
1.1481308e-06 -4.7651574e-06 -3.3394404e-08 
-7.0242680e-07 1.5238116e-06 -1.1200565e-06 
-8.6996732e-07 1.3898260e-06 -1.2258143e-07 
2.0302923e-06 -7.5094790e-06 5.6984089e-07 
1.3004714e-06 -1.7898709e-06 7.7440212e-08 
1.1702001e-06 -1.9747306e-06 2.3685566e-07 
6.5332489e-07 -4.0109367e-07 -1.8079884e-07 
-1.2151546e-06 6.8366751e-07 -2.7359465e-07 
1.2240681e-06 -9.2601516e-07 -2.4320354e-07 
1.0675471e-06 -3.7305865e-06 4.9490984e-07 
7.0186877e-07 -2.1412366e-07 -2.4293286e-07 
-6.9622229e-07 1.7803079e-07 -5.9155820e-08 
-1.2438026e-06 2.5029724e-06 -2.4802391e-06 
3.2371275e-07 -3.7597854e-06 9.1539469e-09 
5.5327530e-07 -6.5297936e-06 1.0698886e-06 
6.1202854e-07 -1.3338012e-06 9.0726508e-07 
-5.4434071e-07 1.4180904e-06 -2.2580247e-07 
4.9499334e-07 -2.4088388e-07 -2.2530124e-07 
5.2305654e-07 -7.9261952e-07 -5.5805785e-08 
5.4963215e-07 -4.9378201e-07 -4.7956224e-08 
4.9860438e-07 -7.3461212e-07 -1.5720694e-07 
1.4008870e-07 -3.1650848e-07 9.0320505e-08 
1.5188514e-06 -2.6040409e-06 1.2234436e-07 
-1.0133720e-06 4.4060203e-06 -2.8367115e-06 