# vtk DataFile Version 4.0
vtk output
ASCII
DATASET UNSTRUCTURED_GRID
POINTS 460 float
0.0000000e+00 0.0000000e+00 0.0000000e+00 
5.0000000e+00 0.0000000e+00 0.0000000e+00 
5.0000000e+00 3.0000000e+00 0.0000000e+00 
0.0000000e+00 3.0000000e+00 0.0000000e+00 
0.0000000e+00 0.0000000e+00 1.0000000e+01 
5.0000000e+00 0.0000000e+00 1.0000000e+01 
5.0000000e+00 3.0000000e+00 1.0000000e+01 
0.0000000e+00 3.0000000e+00 1.0000000e+01 
1.0000000e+00 3.0000000e+00 -5.0000000e+00 
1.0000000e+00 3.0000000e+00 -4.5000000e+00 
1.0000000e+00 3.0000000e+00 -4.0000000e+00 
1.0000000e+00 3.0000000e+00 -3.5000000e+00 
1.0000000e+00 3.0000000e+00 -3.0000000e+00 
1.0000000e+00 3.0000000e+00 -2.5000000e+00 
1.0000000e+00 3.0000000e+00 -2.0000000e+00 
1.0000000e+00 3.0000000e+00 -1.5000000e+00 
1.0000000e+00 3.0000000e+00 -1.0000000e+00 
1.0000000e+00 3.0000000e+00 -5.0000000e-01 
1.0000000e+00 3.0000000e+00 0.0000000e+00 
1.0000000e+00 3.0000000e+00 5.0000000e-01 
1.0000000e+00 3.0000000e+00 1.0000000e+00 
1.0000000e+00 3.0000000e+00 1.5000000e+00 
1.0000000e+00 3.0000000e+00 2.0000000e+00 
1.0000000e+00 3.0000000e+00 2.5000000e+00 
1.0000000e+00 3.0000000e+00 3.0000000e+00 
1.0000000e+00 3.0000000e+00 3.5000000e+00 
1.0000000e+00 3.0000000e+00 4.0000000e+00 
1.0000000e+00 3.0000000e+00 4.5000000e+00 
1.0000000e+00 3.0000000e+00 5.0000000e+00 
1.0000000e+00 3.0000000e+00 5.5000000e+00 
1.0000000e+00 3.0000000e+00 6.0000000e+00 
1.0000000e+00 3.0000000e+00 6.5000000e+00 
1.0000000e+00 3.0000000e+00 7.0000000e+00 
1.0000000e+00 3.0000000e+00 7.5000000e+00 
1.0000000e+00 3.0000000e+00 8.0000000e+00 
1.0000000e+00 3.0000000e+00 8.5000000e+00 
1.0000000e+00 3.0000000e+00 9.0000000e+00 
1.0000000e+00 3.0000000e+00 9.5000000e+00 
1.0000000e+00 3.0000000e+00 1.0000000e+01 
1.0000000e+00 3.0000000e+00 1.0500000e+01 
1.0000000e+00 3.0000000e+00 1.1000000e+01 
1.0000000e+00 3.0000000e+00 1.1500000e+01 
1.0000000e+00 3.0000000e+00 1.2000000e+01 
1.0000000e+00 3.0000000e+00 1.2500000e+01 
1.0000000e+00 3.0000000e+00 1.3000000e+01 
1.0000000e+00 3.0000000e+00 1.3500000e+01 
1.0000000e+00 3.0000000e+00 1.4000000e+01 
1.0000000e+00 3.0000000e+00 1.4500000e+01 
1.0000000e+00 3.0250001e+00 -5.0000000e+00 
1.0000000e+00 3.0250001e+00 -4.5000000e+00 
1.0000000e+00 3.0250001e+00 -4.0000000e+00 
1.0000000e+00 3.0250001e+00 -3.5000000e+00 
1.0000000e+00 3.0250001e+00 -3.0000000e+00 
1.0000000e+00 3.0250001e+00 -2.5000000e+00 
1.0000000e+00 3.0250001e+00 -2.0000000e+00 
1.0000000e+00 3.0250001e+00 -1.5000000e+00 
1.0000000e+00 3.0250001e+00 -1.0000000e+00 
1.0000000e+00 3.0250001e+00 -5.0000000e-01 
1.0000000e+00 3.0250001e+00 0.0000000e+00 
1.0000000e+00 3.0250001e+00 5.0000000e-01 
1.0000000e+00 3.0250001e+00 1.0000000e+00 
1.0000000e+00 3.0250001e+00 1.5000000e+00 
1.0000000e+00 3.0250001e+00 2.0000000e+00 
1.0000000e+00 3.0250001e+00 2.5000000e+00 
1.0000000e+00 3.0250001e+00 3.0000000e+00 
1.0000000e+00 3.0250001e+00 3.5000000e+00 
1.0000000e+00 3.0250001e+00 4.0000000e+00 
1.0000000e+00 3.0250001e+00 4.5000000e+00 
1.0000000e+00 3.0250001e+00 5.0000000e+00 
1.0000000e+00 3.0250001e+00 5.5000000e+00 
1.0000000e+00 3.0250001e+00 6.0000000e+00 
1.0000000e+00 3.0250001e+00 6.5000000e+00 
1.0000000e+00 3.0250001e+00 7.0000000e+00 
1.0000000e+00 3.0250001e+00 7.5000000e+00 
1.0000000e+00 3.0250001e+00 8.0000000e+00 
1.0000000e+00 3.0250001e+00 8.5000000e+00 
1.0000000e+00 3.0250001e+00 9.0000000e+00 
1.0000000e+00 3.0250001e+00 9.5000000e+00 
1.0000000e+00 3.0250001e+00 1.0000000e+01 
1.0000000e+00 3.0250001e+00 1.0500000e+01 
1.0000000e+00 3.0250001e+00 1.1000000e+01 
1.0000000e+00 3.0250001e+00 1.1500000e+01 
1.0000000e+00 3.0250001e+00 1.2000000e+01 
1.0000000e+00 3.0250001e+00 1.2500000e+01 
1.0000000e+00 3.0250001e+00 1.3000000e+01 
1.0000000e+00 3.0250001e+00 1.3500000e+01 
1.0000000e+00 3.0250001e+00 1.4000000e+01 
1.0000000e+00 3.0250001e+00 1.4500000e+01 
1.0000000e+00 -2.0000000e+00 -5.0000000e+00 
1.0000000e+00 -2.0000000e+00 -4.5000000e+00 
1.0000000e+00 -2.0000000e+00 -4.0000000e+00 
1.0000000e+00 -2.0000000e+00 -3.5000000e+00 
1.0000000e+00 -2.0000000e+00 -3.0000000e+00 
1.0000000e+00 -2.0000000e+00 -2.5000000e+00 
1.0000000e+00 -2.0000000e+00 -2.0000000e+00 
1.0000000e+00 -2.0000000e+00 -1.5000000e+00 
1.0000000e+00 -2.0000000e+00 -1.0000000e+00 
1.0000000e+00 -2.0000000e+00 -5.0000000e-01 
1.0000000e+00 -2.0000000e+00 1.0500000e+01 
1.0000000e+00 -2.0000000e+00 1.1000000e+01 
1.0000000e+00 -2.0000000e+00 1.1500000e+01 
1.0000000e+00 -2.0000000e+00 1.2000000e+01 
1.0000000e+00 -2.0000000e+00 1.2500000e+01 
1.0000000e+00 -2.0000000e+00 1.3000000e+01 
1.0000000e+00 -2.0000000e+00 1.3500000e+01 
1.0000000e+00 -2.0000000e+00 1.4000000e+01 
1.0000000e+00 -2.0000000e+00 1.4500000e+01 
1.0000000e+00 0.0000000e+00 0.0000000e+00 
2.0000000e+00 0.0000000e+00 0.0000000e+00 
3.0000000e+00 0.0000000e+00 0.0000000e+00 
4.0000000e+00 0.0000000e+00 0.0000000e+00 
5.0000000e+00 1.0000000e+00 0.0000000e+00 
5.0000000e+00 2.0000000e+00 0.0000000e+00 
0.0000000e+00 2.0000000e+00 0.0000000e+00 
0.0000000e+00 1.0000000e+00 0.0000000e+00 
0.0000000e+00 0.0000000e+00 1.0000000e+00 
0.0000000e+00 0.0000000e+00 2.0000000e+00 
0.0000000e+00 0.0000000e+00 3.0000000e+00 
0.0000000e+00 0.0000000e+00 4.0000000e+00 
0.0000000e+00 0.0000000e+00 5.0000000e+00 
0.0000000e+00 0.0000000e+00 6.0000000e+00 
0.0000000e+00 0.0000000e+00 7.0000000e+00 
0.0000000e+00 0.0000000e+00 8.0000000e+00 
0.0000000e+00 0.0000000e+00 9.0000000e+00 
5.0000000e+00 0.0000000e+00 1.0000000e+00 
5.0000000e+00 0.0000000e+00 2.0000000e+00 
5.0000000e+00 0.0000000e+00 3.0000000e+00 
5.0000000e+00 0.0000000e+00 4.0000000e+00 
5.0000000e+00 0.0000000e+00 5.0000000e+00 
5.0000000e+00 0.0000000e+00 6.0000000e+00 
5.0000000e+00 0.0000000e+00 7.0000000e+00 
5.0000000e+00 0.0000000e+00 8.0000000e+00 
5.0000000e+00 0.0000000e+00 9.0000000e+00 
1.0000000e+00 0.0000000e+00 1.0000000e+01 
2.0000000e+00 0.0000000e+00 1.0000000e+01 
3.0000000e+00 0.0000000e+00 1.0000000e+01 
4.0000000e+00 0.0000000e+00 1.0000000e+01 
5.0000000e+00 3.0000000e+00 1.0000000e+00 
5.0000000e+00 3.0000000e+00 2.0000000e+00 
5.0000000e+00 3.0000000e+00 3.0000000e+00 
5.0000000e+00 3.0000000e+00 4.0000000e+00 
5.0000000e+00 3.0000000e+00 5.0000000e+00 
5.0000000e+00 3.0000000e+00 6.0000000e+00 
5.0000000e+00 3.0000000e+00 7.0000000e+00 
5.0000000e+00 3.0000000e+00 8.0000000e+00 
5.0000000e+00 3.0000000e+00 9.0000000e+00 
5.0000000e+00 1.0000000e+00 1.0000000e+01 
5.0000000e+00 2.0000000e+00 1.0000000e+01 
0.0000000e+00 3.0000000e+00 1.0000000e+00 
0.0000000e+00 3.0000000e+00 2.0000000e+00 
0.0000000e+00 3.0000000e+00 3.0000000e+00 
0.0000000e+00 3.0000000e+00 4.0000000e+00 
0.0000000e+00 3.0000000e+00 5.0000000e+00 
0.0000000e+00 3.0000000e+00 6.0000000e+00 
0.0000000e+00 3.0000000e+00 7.0000000e+00 
0.0000000e+00 3.0000000e+00 8.0000000e+00 
0.0000000e+00 3.0000000e+00 9.0000000e+00 
0.0000000e+00 2.0000000e+00 1.0000000e+01 
0.0000000e+00 1.0000000e+00 1.0000000e+01 
4.0000000e+00 3.0000000e+00 0.0000000e+00 
3.0000000e+00 3.0000000e+00 0.0000000e+00 
2.0000000e+00 3.0000000e+00 0.0000000e+00 
4.0000000e+00 3.0000000e+00 1.0000000e+01 
3.0000000e+00 3.0000000e+00 1.0000000e+01 
2.0000000e+00 3.0000000e+00 1.0000000e+01 
4.0618000e+00 1.5000000e+00 0.0000000e+00 
1.5046000e+00 7.6549745e-01 0.0000000e+00 
2.5000000e+00 2.1339746e+00 0.0000000e+00 
1.5046000e+00 2.2345026e+00 0.0000000e+00 
2.4957771e+00 8.1560516e-01 0.0000000e+00 
3.4707544e+00 2.2336540e+00 0.0000000e+00 
3.4700506e+00 7.5794268e-01 0.0000000e+00 
8.6322361e-01 1.5000000e+00 0.0000000e+00 
2.0000000e+00 1.5000000e+00 0.0000000e+00 
2.9960666e+00 1.4974480e+00 0.0000000e+00 
4.2679491e+00 7.3205084e-01 0.0000000e+00 
4.2679491e+00 2.2679491e+00 0.0000000e+00 
7.2695929e-01 2.2730408e+00 0.0000000e+00 
7.2695929e-01 7.2695929e-01 0.0000000e+00 
4.1822505e+00 0.0000000e+00 2.5515697e+00 
4.2017918e+00 0.0000000e+00 4.4725966e+00 
4.1114569e+00 0.0000000e+00 6.5092020e+00 
8.6602539e-01 0.0000000e+00 3.5000000e+00 
8.4778279e-01 0.0000000e+00 5.4684029e+00 
8.9629614e-01 0.0000000e+00 7.5867257e+00 
2.5566745e+00 0.0000000e+00 8.1853306e-01 
2.4918270e+00 0.0000000e+00 9.1386929e+00 
8.4677207e-01 0.0000000e+00 1.5042374e+00 
4.0943027e+00 0.0000000e+00 8.4081745e+00 
8.6281651e-01 0.0000000e+00 2.5007062e+00 
1.7315160e+00 0.0000000e+00 3.0001178e+00 
1.7319617e+00 0.0000000e+00 4.0000196e+00 
2.5980761e+00 0.0000000e+00 3.5000000e+00 
2.5536871e+00 0.0000000e+00 4.4963923e+00 
2.5928419e+00 0.0000000e+00 2.4239938e+00 
1.5037409e+00 0.0000000e+00 9.1535149e+00 
1.8433737e+00 0.0000000e+00 8.1858873e+00 
3.0000000e+00 0.0000000e+00 8.2679491e+00 
2.5000000e+00 0.0000000e+00 7.4019237e+00 
3.5042722e+00 0.0000000e+00 7.4271150e+00 
3.0310018e+00 0.0000000e+00 6.5282087e+00 
2.0373929e+00 0.0000000e+00 6.5307913e+00 
3.4767809e+00 0.0000000e+00 5.8031492e+00 
2.5452602e+00 0.0000000e+00 5.5720768e+00 
1.6456656e+00 0.0000000e+00 1.9697139e+00 
8.6297011e-01 0.0000000e+00 4.4947371e+00 
1.0111579e+00 0.0000000e+00 6.5282545e+00 
3.4994321e+00 0.0000000e+00 8.4691072e-01 
4.1860156e+00 0.0000000e+00 3.5040276e+00 
1.7320508e+00 0.0000000e+00 5.0000000e+00 
4.0544066e+00 0.0000000e+00 1.5781221e+00 
1.5817389e+00 0.0000000e+00 9.3943578e-01 
8.3166349e-01 0.0000000e+00 8.5090933e+00 
3.4686174e+00 0.0000000e+00 9.1752682e+00 
3.0709300e+00 0.0000000e+00 1.5799091e+00 
3.3927374e+00 0.0000000e+00 3.0399952e+00 
3.3826034e+00 0.0000000e+00 3.9747651e+00 
4.3420062e+00 0.0000000e+00 7.4688983e+00 
3.4023225e+00 0.0000000e+00 4.9314723e+00 
1.6740381e+00 0.0000000e+00 7.3014426e+00 
4.2715640e+00 0.0000000e+00 5.4758859e+00 
1.6225953e+00 0.0000000e+00 5.8104177e+00 
4.2679491e+00 0.0000000e+00 9.2679491e+00 
7.3205084e-01 0.0000000e+00 7.3205084e-01 
4.2679491e+00 0.0000000e+00 7.3205084e-01 
7.3205084e-01 0.0000000e+00 9.2679491e+00 
3.4586334e+00 0.0000000e+00 2.2347178e+00 
2.2895701e+00 0.0000000e+00 1.5463171e+00 
5.0000000e+00 2.2345026e+00 1.5046000e+00 
[...]
POINT_DATA 460
FIELD FieldData 5
DISPLACEMENT 3 460  float
0.0000000e+00 0.0000000e+00 0.0000000e+00 
0.0000000e+00 0.0000000e+00 0.0000000e+00 
0.0000000e+00 3.1994489e-08 0.0000000e+00 
0.0000000e+00 5.6281158e-09 0.0000000e+00 
0.0000000e+00 0.0000000e+00 0.0000000e+00 
0.0000000e+00 0.0000000e+00 0.0000000e+00 
0.0000000e+00 -5.3801577e-06 0.0000000e+00 
0.0000000e+00 -1.2936315e-04 0.0000000e+00 
0.0000000e+00 -1.4597203e-09 0.0000000e+00 
0.0000000e+00 -1.5051469e-09 0.0000000e+00 
0.0000000e+00 -1.8491293e-09 0.0000000e+00 
0.0000000e+00 -2.7115918e-09 0.0000000e+00 
0.0000000e+00 -4.1329473e-09 0.0000000e+00 
0.0000000e+00 -5.9221010e-09 0.0000000e+00 
0.0000000e+00 -7.6341298e-09 0.0000000e+00 
0.0000000e+00 -8.5905389e-09 0.0000000e+00 
0.0000000e+00 -7.9958467e-09 0.0000000e+00 
0.0000000e+00 -5.2289408e-09 0.0000000e+00 
0.0000000e+00 1.7561966e-11 0.0000000e+00 
-3.0943803e-09 6.1987908e-09 -2.6492062e-09 
-5.0950559e-09 1.7717918e-08 -6.9161024e-09 
-5.6407683e-09 3.8898797e-08 -7.2097284e-09 
-7.5914350e-09 7.7231192e-08 -5.4559712e-09 
-9.9811874e-09 1.3233824e-07 1.9977351e-08 
-1.1371069e-08 1.9333160e-07 7.2654593e-08 
-1.3945368e-08 2.2898320e-07 1.8335210e-07 
-7.2960006e-08 1.8880029e-07 4.6311720e-07 
-1.2437748e-07 4.8532947e-09 7.9751328e-07 
-3.5924253e-07 -3.6215764e-07 1.6607230e-06 
-7.2002280e-07 -9.3983795e-07 2.6748442e-06 
-8.9386890e-07 -1.8521010e-06 4.0315663e-06 
-2.1549029e-06 -3.7399659e-06 6.6344646e-06 
-3.0341835e-06 -8.6796372e-06 9.7058282e-06 
-4.3965047e-06 -2.1669348e-05 1.2844911e-05 
-5.2944815e-06 -5.1523646e-05 1.5839176e-05 
-6.2429986e-06 -1.0974243e-04 3.4154189e-05 
-1.4876760e-05 -1.9979430e-04 2.5688805e-05 
-7.6009942e-06 -3.0509927e-04 5.6696404e-06 
0.0000000e+00 -3.6407507e-04 0.0000000e+00 
0.0000000e+00 -3.2786629e-04 0.0000000e+00 
0.0000000e+00 -2.4007232e-04 0.0000000e+00 
0.0000000e+00 -1.4998461e-04 0.0000000e+00 
0.0000000e+00 -7.8289006e-05 0.0000000e+00 
0.0000000e+00 -2.9809749e-05 0.0000000e+00 
0.0000000e+00 -1.2709987e-06 0.0000000e+00 
0.0000000e+00 1.3543056e-05 0.0000000e+00 
0.0000000e+00 2.0814055e-05 0.0000000e+00 
0.0000000e+00 2.5200645e-05 0.0000000e+00 
0.0000000e+00 -1.2811788e-09 0.0000000e+00 
0.0000000e+00 -1.3708479e-09 0.0000000e+00 
0.0000000e+00 -1.8215836e-09 0.0000000e+00 
0.0000000e+00 -2.7382407e-09 0.0000000e+00 
0.0000000e+00 -4.1532342e-09 0.0000000e+00 
0.0000000e+00 -5.9289404e-09 0.0000000e+00 
0.0000000e+00 -7.6383815e-09 0.0000000e+00 
0.0000000e+00 -8.5921332e-09 0.0000000e+00 
0.0000000e+00 -7.9854061e-09 0.0000000e+00 
0.0000000e+00 -5.1961120e-09 0.0000000e+00 
0.0000000e+00 -3.1786093e-10 0.0000000e+00 
0.0000000e+00 6.2926788e-09 0.0000000e+00 
0.0000000e+00 1.7678875e-08 0.0000000e+00 
0.0000000e+00 3.9334189e-08 0.0000000e+00 
0.0000000e+00 7.7700278e-08 0.0000000e+00 
0.0000000e+00 1.3308313e-07 0.0000000e+00 
0.0000000e+00 1.9390596e-07 0.0000000e+00 
0.0000000e+00 2.2933553e-07 0.0000000e+00 
0.0000000e+00 1.8701094e-07 0.0000000e+00 
0.0000000e+00 3.0010927e-09 0.0000000e+00 
0.0000000e+00 -3.6271891e-07 0.0000000e+00 
0.0000000e+00 -9.3003405e-07 0.0000000e+00 
0.0000000e+00 -1.8153047e-06 0.0000000e+00 
0.0000000e+00 -3.6522265e-06 0.0000000e+00 
0.0000000e+00 -8.5407928e-06 0.0000000e+00 
0.0000000e+00 -2.1512793e-05 0.0000000e+00 
0.0000000e+00 -5.1615963e-05 0.0000000e+00 
0.0000000e+00 -1.1001137e-04 0.0000000e+00 
0.0000000e+00 -2.0164289e-04 0.0000000e+00 
0.0000000e+00 -3.0938062e-04 0.0000000e+00 
0.0000000e+00 -3.6835219e-04 0.0000000e+00 
0.0000000e+00 -3.2915891e-04 0.0000000e+00 
0.0000000e+00 -2.4101185e-04 0.0000000e+00 
0.0000000e+00 -1.5056667e-04 0.0000000e+00 
0.0000000e+00 -7.8590012e-05 0.0000000e+00 
0.0000000e+00 -2.9923245e-05 0.0000000e+00 
0.0000000e+00 -1.2757470e-06 0.0000000e+00 
0.0000000e+00 1.3593881e-05 0.0000000e+00 
0.0000000e+00 2.0891779e-05 0.0000000e+00 
0.0000000e+00 2.5294474e-05 0.0000000e+00 
0.0000000e+00 0.0000000e+00 0.0000000e+00 
0.0000000e+00 0.0000000e+00 0.0000000e+00 
0.0000000e+00 0.0000000e+00 0.0000000e+00 
0.0000000e+00 0.0000000e+00 0.0000000e+00 
0.0000000e+00 0.0000000e+00 0.0000000e+00 
0.0000000e+00 0.0000000e+00 0.0000000e+00 
0.0000000e+00 0.0000000e+00 0.0000000e+00 
0.0000000e+00 0.0000000e+00 0.0000000e+00 
0.0000000e+00 0.0000000e+00 0.0000000e+00 
0.0000000e+00 0.0000000e+00 0.0000000e+00 
0.0000000e+00 0.0000000e+00 0.0000000e+00 
0.0000000e+00 0.0000000e+00 0.0000000e+00 
0.0000000e+00 0.0000000e+00 0.0000000e+00 
0.0000000e+00 0.0000000e+00 0.0000000e+00 
0.0000000e+00 0.0000000e+00 0.0000000e+00 
0.0000000e+00 0.0000000e+00 0.0000000e+00 
0.0000000e+00 0.0000000e+00 0.0000000e+00 
0.0000000e+00 0.0000000e+00 0.0000000e+00 
0.0000000e+00 0.0000000e+00 0.0000000e+00 
0.0000000e+00 0.0000000e+00 0.0000000e+00 
0.0000000e+00 0.0000000e+00 0.0000000e+00 
0.0000000e+00 0.0000000e+00 0.0000000e+00 
0.0000000e+00 0.0000000e+00 0.0000000e+00 
0.0000000e+00 1.6096914e-08 0.0000000e+00 
0.0000000e+00 2.7890804e-08 0.0000000e+00 
0.0000000e+00 5.2817533e-09 0.0000000e+00 
0.0000000e+00 3.5226000e-09 0.0000000e+00 
0.0000000e+00 0.0000000e+00 0.0000000e+00 
0.0000000e+00 0.0000000e+00 0.0000000e+00 
0.0000000e+00 0.0000000e+00 0.0000000e+00 
0.0000000e+00 0.0000000e+00 0.0000000e+00 
0.0000000e+00 0.0000000e+00 0.0000000e+00 
0.0000000e+00 0.0000000e+00 0.0000000e+00 
0.0000000e+00 0.0000000e+00 0.0000000e+00 
0.0000000e+00 0.0000000e+00 0.0000000e+00 
0.0000000e+00 0.0000000e+00 0.0000000e+00 
0.0000000e+00 0.0000000e+00 0.0000000e+00 
0.0000000e+00 0.0000000e+00 0.0000000e+00 
0.0000000e+00 0.0000000e+00 0.0000000e+00 
0.0000000e+00 0.0000000e+00 0.0000000e+00 
0.0000000e+00 0.0000000e+00 0.0000000e+00 
0.0000000e+00 0.0000000e+00 0.0000000e+00 
0.0000000e+00 0.0000000e+00 0.0000000e+00 
0.0000000e+00 0.0000000e+00 0.0000000e+00 
0.0000000e+00 0.0000000e+00 0.0000000e+00 
0.0000000e+00 0.0000000e+00 0.0000000e+00 
0.0000000e+00 0.0000000e+00 0.0000000e+00 
0.0000000e+00 0.0000000e+00 0.0000000e+00 
0.0000000e+00 0.0000000e+00 0.0000000e+00 
0.0000000e+00 3.7524764e-08 0.0000000e+00 
0.0000000e+00 7.2274098e-08 0.0000000e+00 
0.0000000e+00 1.4230190e-07 0.0000000e+00 
0.0000000e+00 2.9694834e-07 0.0000000e+00 
0.0000000e+00 3.2298885e-07 0.0000000e+00 
0.0000000e+00 2.8717139e-07 0.0000000e+00 
0.0000000e+00 -1.0397359e-06 0.0000000e+00 
0.0000000e+00 -2.0078360e-06 0.0000000e+00 
0.0000000e+00 -4.9529331e-06 0.0000000e+00 
0.0000000e+00 -3.0470308e-06 0.0000000e+00 
0.0000000e+00 -4.8138277e-06 0.0000000e+00 
0.0000000e+00 1.2869424e-08 0.0000000e+00 
0.0000000e+00 5.5672992e-08 0.0000000e+00 
0.0000000e+00 1.3312483e-07 0.0000000e+00 
0.0000000e+00 4.4616389e-08 0.0000000e+00 
0.0000000e+00 -8.2778598e-07 0.0000000e+00 
0.0000000e+00 -3.9640327e-06 0.0000000e+00 
0.0000000e+00 -1.5389029e-05 0.0000000e+00 
0.0000000e+00 -4.5547036e-05 0.0000000e+00 
0.0000000e+00 -1.0806784e-04 0.0000000e+00 
0.0000000e+00 -1.0827316e-04 0.0000000e+00 
0.0000000e+00 -5.3473250e-05 0.0000000e+00 
0.0000000e+00 2.9119981e-08 0.0000000e+00 
0.0000000e+00 2.4981405e-08 0.0000000e+00 
0.0000000e+00 1.7451047e-08 0.0000000e+00 
0.0000000e+00 -9.5923851e-06 0.0000000e+00 
0.0000000e+00 -2.6025427e-05 0.0000000e+00 
0.0000000e+00 -6.8530295e-05 0.0000000e+00 
0.0000000e+00 2.0035044e-08 0.0000000e+00 
0.0000000e+00 5.2982299e-09 0.0000000e+00 
0.0000000e+00 1.7665521e-08 0.0000000e+00 
0.0000000e+00 8.2532683e-09 0.0000000e+00 
0.0000000e+00 8.7005203e-09 0.0000000e+00 
0.0000000e+00 2.3704789e-08 0.0000000e+00 
0.0000000e+00 1.1775811e-08 0.0000000e+00 
0.0000000e+00 4.9566728e-09 0.0000000e+00 
0.0000000e+00 1.1906854e-08 0.0000000e+00 
0.0000000e+00 1.6723188e-08 0.0000000e+00 
0.0000000e+00 9.8634549e-09 0.0000000e+00 
0.0000000e+00 2.7399455e-08 0.0000000e+00 
0.0000000e+00 4.2870458e-09 0.0000000e+00 
0.0000000e+00 2.4345008e-09 0.0000000e+00 
0.0000000e+00 0.0000000e+00 0.0000000e+00 
0.0000000e+00 0.0000000e+00 0.0000000e+00 
0.0000000e+00 0.0000000e+00 0.0000000e+00 
0.0000000e+00 0.0000000e+00 0.0000000e+00 
0.0000000e+00 0.0000000e+00 0.0000000e+00 
0.0000000e+00 0.0000000e+00 0.0000000e+00 
0.0000000e+00 0.0000000e+00 0.0000000e+00 
0.0000000e+00 0.0000000e+00 0.0000000e+00 
0.0000000e+00 0.0000000e+00 0.0000000e+00 
0.0000000e+00 0.0000000e+00 0.0000000e+00 
0.0000000e+00 0.0000000e+00 0.0000000e+00 
0.0000000e+00 0.0000000e+00 0.0000000e+00 
0.0000000e+00 0.0000000e+00 0.0000000e+00 
0.0000000e+00 0.0000000e+00 0.0000000e+00 
0.0000000e+00 0.0000000e+00 0.0000000e+00 
0.0000000e+00 0.0000000e+00 0.0000000e+00 
0.0000000e+00 0.0000000e+00 0.0000000e+00 
0.0000000e+00 0.0000000e+00 0.0000000e+00 
0.0000000e+00 0.0000000e+00 0.0000000e+00 
0.0000000e+00 0.0000000e+00 0.0000000e+00 
0.0000000e+00 0.0000000e+00 0.0000000e+00 
0.0000000e+00 0.0000000e+00 0.0000000e+00 
0.0000000e+00 0.0000000e+00 0.0000000e+00 
0.0000000e+00 0.0000000e+00 0.0000000e+00 
0.0000000e+00 0.0000000e+00 0.0000000e+00 
0.0000000e+00 0.0000000e+00 0.0000000e+00 
0.0000000e+00 0.0000000e+00 0.0000000e+00 
0.0000000e+00 0.0000000e+00 0.0000000e+00 
0.0000000e+00 0.0000000e+00 0.0000000e+00 
0.0000000e+00 0.0000000e+00 0.0000000e+00 
0.0000000e+00 0.0000000e+00 0.0000000e+00 
0.0000000e+00 0.0000000e+00 0.0000000e+00 
0.0000000e+00 0.0000000e+00 0.0000000e+00 
0.0000000e+00 0.0000000e+00 0.0000000e+00 
0.0000000e+00 0.0000000e+00 0.0000000e+00 
0.0000000e+00 0.0000000e+00 0.0000000e+00 
0.0000000e+00 0.0000000e+00 0.0000000e+00 
0.0000000e+00 0.0000000e+00 0.0000000e+00 
0.0000000e+00 0.0000000e+00 0.0000000e+00 
0.0000000e+00 0.0000000e+00 0.0000000e+00 
0.0000000e+00 0.0000000e+00 0.0000000e+00 
0.0000000e+00 0.0000000e+00 0.0000000e+00 
0.0000000e+00 0.0000000e+00 0.0000000e+00 
0.0000000e+00 0.0000000e+00 0.0000000e+00 
0.0000000e+00 0.0000000e+00 0.0000000e+00 
0.0000000e+00 0.0000000e+00 0.0000000e+00 
0.0000000e+00 0.0000000e+00 0.0000000e+00 
0.0000000e+00 0.0000000e+00 0.0000000e+00 
0.0000000e+00 0.0000000e+00 0.0000000e+00 
0.0000000e+00 4.7488307e-08 0.0000000e+00 
0.0000000e+00 -3.2133889e-06 0.0000000e+00 
0.0000000e+00 1.9612408e-07 0.0000000e+00 
0.0000000e+00 3.6109896e-07 0.0000000e+00 
0.0000000e+00 -1.2155574e-06 0.0000000e+00 
0.0000000e+00 4.1796536e-08 0.0000000e+00 
0.0000000e+00 9.7359582e-08 0.0000000e+00 
0.0000000e+00 -1.7200428e-07 0.0000000e+00 
0.0000000e+00 8.6777170e-08 0.0000000e+00 
0.0000000e+00 1.4967520e-07 0.0000000e+00 
0.0000000e+00 8.9050950e-08 0.0000000e+00 
0.0000000e+00 3.3267932e-07 0.0000000e+00 
0.0000000e+00 2.5143328e-07 0.0000000e+00 
0.0000000e+00 -8.5484021e-07 0.0000000e+00 
0.0000000e+00 2.0447578e-08 0.0000000e+00 
0.0000000e+00 -1.6016235e-06 0.0000000e+00 
0.0000000e+00 -2.1329097e-06 0.0000000e+00 
0.0000000e+00 2.7187378e-08 0.0000000e+00 
0.0000000e+00 2.4450986e-07 0.0000000e+00 
0.0000000e+00 -2.6443348e-07 0.0000000e+00 
0.0000000e+00 4.7165013e-08 0.0000000e+00 
0.0000000e+00 2.6833902e-07 0.0000000e+00 
0.0000000e+00 2.0124594e-07 0.0000000e+00 
0.0000000e+00 1.0585058e-07 0.0000000e+00 
0.0000000e+00 -1.2932106e-06 0.0000000e+00 
0.0000000e+00 -3.9590805e-06 0.0000000e+00 
0.0000000e+00 -1.6905658e-06 0.0000000e+00 
0.0000000e+00 3.3361886e-08 0.0000000e+00 
0.0000000e+00 1.3390803e-08 0.0000000e+00 
0.0000000e+00 -6.3836203e-05 0.0000000e+00 
0.0000000e+00 8.7084508e-09 0.0000000e+00 
0.0000000e+00 3.4925804e-08 0.0000000e+00 
0.0000000e+00 -1.4456073e-07 0.0000000e+00 
0.0000000e+00 -1.2114371e-05 0.0000000e+00 
0.0000000e+00 1.2507972e-07 0.0000000e+00 
0.0000000e+00 -1.9383197e-06 0.0000000e+00 
0.0000000e+00 -2.5926165e-05 0.0000000e+00 
0.0000000e+00 3.9641780e-08 0.0000000e+00 
0.0000000e+00 8.3260588e-08 0.0000000e+00 
0.0000000e+00 -2.0169755e-07 0.0000000e+00 
0.0000000e+00 -7.8531921e-06 0.0000000e+00 
0.0000000e+00 -4.1220255e-06 0.0000000e+00 
0.0000000e+00 -6.8453592e-05 0.0000000e+00 
0.0000000e+00 2.5466351e-08 0.0000000e+00 
0.0000000e+00 1.4016253e-08 0.0000000e+00 
0.0000000e+00 -2.1480600e-05 0.0000000e+00 
0.0000000e+00 -6.1320787e-07 0.0000000e+00 
0.0000000e+00 -3.9896072e-06 0.0000000e+00 
0.0000000e+00 -4.4033676e-08 0.0000000e+00 
0.0000000e+00 8.1026350e-08 0.0000000e+00 
0.0000000e+00 -1.1794472e-05 0.0000000e+00 
0.0000000e+00 -8.7417749e-07 0.0000000e+00 
0.0000000e+00 -3.3090990e-05 0.0000000e+00 
0.0000000e+00 3.8180119e-08 0.0000000e+00 
0.0000000e+00 -3.0204266e-05 0.0000000e+00 
0.0000000e+00 7.9468228e-09 0.0000000e+00 
0.0000000e+00 4.6300124e-09 0.0000000e+00 
0.0000000e+00 -1.0801146e-04 0.0000000e+00 
0.0000000e+00 -2.9703688e-05 0.0000000e+00 
0.0000000e+00 -6.2449212e-06 0.0000000e+00 
0.0000000e+00 -4.0602547e-05 0.0000000e+00 
0.0000000e+00 -1.2350135e-04 0.0000000e+00 
0.0000000e+00 -1.6564474e-05 0.0000000e+00 
0.0000000e+00 -1.5648753e-05 0.0000000e+00 
0.0000000e+00 -7.3300203e-06 0.0000000e+00 
0.0000000e+00 -9.3202412e-05 0.0000000e+00 
0.0000000e+00 -5.0102662e-05 0.0000000e+00 
0.0000000e+00 -1.9740086e-05 0.0000000e+00 
0.0000000e+00 -3.3664271e-06 0.0000000e+00 
0.0000000e+00 -7.0415058e-06 0.0000000e+00 
0.0000000e+00 -1.7022390e-04 0.0000000e+00 
0.0000000e+00 -4.0972471e-05 0.0000000e+00 
-2.2645241e-07 1.1679095e-07 1.1663195e-06 
-1.6451644e-06 -3.9837219e-06 4.8929314e-06 
-6.3645912e-06 -2.9820238e-05 1.3273469e-05 
-1.1607463e-08 9.0936609e-08 1.3775622e-08 
-3.7445066e-08 2.3635751e-07 1.6384129e-07 
-4.5914311e-07 2.7543237e-07 6.3840690e-07 
-1.4985618e-08 1.1848313e-07 6.6285875e-09 
-1.9631573e-06 -1.7711249e-06 2.0874973e-06 
-6.4009620e-09 2.9537421e-08 -5.9161365e-09 
-1.2962791e-05 -9.6226198e-05 2.0504594e-05 
-4.4161839e-09 3.3183234e-08 -4.7833364e-09 
-7.3368997e-06 -1.5736949e-05 2.0167511e-06 
-1.4143981e-06 -5.9178336e-07 1.4838565e-06 
-2.9356488e-06 -3.0550248e-06 3.9277320e-06 
-6.4172482e-06 -7.2113271e-06 6.2563217e-06 
-4.7260382e-06 -7.8555468e-06 4.9083465e-06 
-2.5351555e-06 -3.6021668e-06 3.4480875e-06 
-9.5426894e-06 -2.1646551e-05 7.4764839e-06 
-4.1167232e-06 -8.4514422e-06 7.8855301e-06 
-1.4380475e-06 -9.5603411e-07 2.5245040e-06 
-6.5602393e-07 -3.3360973e-08 1.1587254e-06 
-9.0863443e-07 -6.4777390e-07 1.8909329e-06 
-4.1813570e-07 1.8838026e-07 1.1452660e-06 
-2.3578637e-07 4.0987948e-07 4.7814575e-07 
-1.8016718e-07 3.6131988e-07 4.5513724e-07 
-1.0853307e-07 2.5516667e-07 1.7861032e-07 
-4.8025274e-08 2.4006519e-07 1.7340970e-07 
-3.6191544e-08 1.8420880e-07 5.9682620e-08 
-3.6343920e-08 1.4632629e-07 6.5390878e-08 
-2.0997527e-08 9.5672839e-08 8.1541680e-09 
-1.1258519e-08 6.6961952e-08 7.5265651e-09 
-6.9497327e-07 -3.1871394e-07 2.2974295e-06 
-1.2675970e-06 -1.7163438e-06 3.0308927e-06 
-1.1248225e-07 2.5879203e-07 2.9203235e-07 
-4.5974176e-08 2.3814538e-07 4.8091753e-08 
-1.0095044e-05 -3.6120840e-05 4.3623736e-06 
-1.8562511e-07 3.1147579e-07 7.3006936e-07 
-2.2705782e-07 4.3217264e-07 3.4399255e-07 
-5.2306564e-09 3.1040475e-08 -2.3828430e-09 
-4.5174183e-06 -5.8018286e-06 2.2231261e-06 
-7.8192070e-06 -1.7973260e-05 1.1375311e-05 
-9.9859417e-06 -3.5329882e-05 1.1777440e-05 
-9.7991324e-07 -1.2199699e-06 3.0000522e-06 
-3.7555061e-09 5.3286939e-08 -3.9466537e-09 
-1.7764785e-08 1.5029839e-07 5.7002833e-08 
-3.5438678e-08 2.0459036e-07 1.0620975e-07 
-7.6420669e-08 2.3547730e-07 3.6582168e-07 
-1.9145301e-07 2.5485485e-07 7.7663384e-07 
-2.9520788e-06 -7.7985997e-06 7.0042483e-06 
-5.1252814e-06 -1.7534550e-05 1.1219342e-05 
-4.6898756e-09 1.4382461e-08 -4.4060751e-09 
-6.5031864e-09 5.6475940e-08 -2.7364802e-09 
-1.2324555e-05 -1.3824865e-04 1.2518821e-05 
-9.4333039e-09 5.5697047e-08 -2.1801492e-09 
-2.0717533e-08 1.1763951e-07 2.5861562e-08 
-1.1882301e-05 -5.6692774e-05 1.8995750e-05 
-2.6943690e-06 -4.6859795e-06 5.4502439e-06 
-7.4556539e-09 4.3772491e-08 -4.1018153e-09 
-4.1283013e-07 -4.9914553e-07 1.8488903e-06 
-8.4230096e-06 -1.4861771e-05 5.3921613e-06 
-3.6359277e-06 -7.3665028e-06 1.2124683e-06 
-2.3643152e-09 3.4671668e-08 -2.1957591e-09 
-1.3795868e-07 3.0380562e-07 2.1288366e-07 
-1.0795274e-08 7.3461337e-08 2.9534568e-09 
-1.5835712e-05 -5.6831024e-05 1.3227895e-05 
-1.7554139e-06 -1.7272691e-06 3.0674928e-06 
-1.0793665e-08 7.7672929e-08 5.2302687e-09 
-3.2690416e-08 1.6397810e-07 5.0879915e-08 
-5.4794143e-09 2.6845360e-08 -3.2818814e-09 
-3.1103627e-07 -2.9503507e-08 1.3506710e-06 
-1.2389665e-05 -7.3743984e-05 9.0247886e-06 
-2.2945243e-09 8.1308258e-08 3.7155914e-09 
-3.9731161e-09 4.6439286e-08 -5.7820695e-09 
-5.7671445e-10 1.2032481e-07 2.2010269e-08 
-9.3996710e-10 1.6615706e-07 5.4798523e-08 
-3.4230989e-09 2.3212840e-08 -5.5983027e-09 
-2.9231249e-09 1.5675693e-07 1.3540053e-07 
-4.8278082e-08 1.0964690e-09 3.3557416e-07 
-6.7641693e-08 -3.4148053e-07 6.3345459e-07 
-2.2027518e-07 -1.2714148e-06 1.8658149e-06 
-5.7738424e-07 -2.5908028e-06 3.4943689e-06 
-5.0562471e-07 -4.8807301e-06 4.4838253e-06 
-9.4246678e-07 -1.0329109e-05 6.9965072e-06 
-1.5673668e-06 -1.9846215e-05 9.0656868e-06 
-3.7088300e-06 -4.0968240e-05 1.1178171e-05 
-4.0299433e-06 -6.5165077e-05 1.5349446e-05 
-4.6423716e-06 -1.1011991e-04 1.6500326e-05 
-2.6229682e-06 -1.7707574e-04 1.2048340e-05 
-2.4907134e-09 9.0282288e-09 -3.8810182e-09 
4.9396182e-10 5.7361568e-08 2.7918383e-09 
2.2881015e-09 2.0091106e-07 -8.7032660e-08 
2.8008012e-07 -5.0631974e-07 -1.2568718e-06 
2.1834589e-06 -8.0717027e-06 -4.9721370e-06 
6.7137653e-06 -3.6194109e-05 -9.9201816e-06 
8.6107577e-10 1.0225297e-07 -1.1063079e-08 
1.0562098e-07 2.3374305e-07 -2.1715583e-07 
9.5647113e-07 -1.3337343e-06 -1.7535673e-06 
-5.0943882e-08 2.1456772e-07 -7.1636798e-08 
-1.8617000e-09 1.3487364e-07 2.5540537e-08 
-5.2279896e-11 2.4906612e-08 7.0955557e-09 
4.1186354e-06 -5.9730874e-06 -4.1629855e-06 
-1.3741915e-09 3.4871729e-08 6.5698122e-09 
3.1160852e-07 -4.1026592e-06 -1.3283376e-06 
6.1192054e-07 -2.9510926e-05 -6.6614489e-06 
-1.5930741e-08 2.3367814e-07 5.3758228e-08 
3.4518500e-08 3.2347526e-07 -5.0095171e-08 
-4.1586776e-10 1.4430132e-07 9.6723110e-09 
-1.6536546e-08 -4.3461796e-07 3.0601484e-08 
-6.1929426e-09 1.2476694e-07 -4.5969583e-07 
-1.1629058e-09 6.9105631e-08 1.3178062e-08 
3.4443138e-07 1.2346719e-07 -4.6202081e-07 
2.4942869e-06 -8.6723645e-05 -1.5770935e-05 
-5.9779182e-10 3.4501827e-08 5.0719513e-09 
3.0674821e-06 -7.7071691e-06 -1.3047766e-06 
5.0968181e-09 6.9406852e-08 -3.6485702e-08 
4.0760668e-07 -2.2795437e-07 -1.0627210e-06 
1.0366762e-10 5.0296137e-08 -8.7656904e-09 
2.2073996e-09 9.6256429e-08 -9.2250509e-08 
-1.1247786e-08 2.4264776e-07 4.1053699e-08 
5.2664899e-07 -6.8104896e-07 -3.2645355e-07 
-6.1003513e-09 -5.0074755e-06 -8.0896683e-07 
-2.9082403e-07 -1.1179833e-05 -3.7948183e-07 
-1.1920171e-07 -7.9250020e-07 6.9140573e-09 
6.3063790e-06 -1.6914519e-05 -3.5148853e-06 
1.7693986e-06 -1.7376853e-05 -3.6632589e-06 
-1.7973478e-10 1.7461753e-08 1.8585240e-09 
1.8776703e-08 2.0024254e-07 -7.3018298e-09 
5.9068839e-10 1.3369632e-08 3.5040735e-09 
5.0982368e-07 -2.8398397e-06 -2.8589168e-06 
-2.7402482e-08 1.2580051e-07 -2.2531162e-07 
6.0387988e-06 -4.3542557e-05 -3.0374181e-06 
2.6846189e-06 -1.4845686e-05 -8.7266089e-06 
-3.6723851e-08 3.1581433e-07 1.1498582e-07 
-2.1865156e-09 4.0950468e-08 1.0256128e-08 
6.3255278e-08 2.3003072e-07 -8.4978431e-08 
1.5957774e-08 6.8601302e-08 -1.4590731e-08 
3.7028108e-06 -8.0456866e-06 -5.1713168e-06 
-5.8247394e-09 8.2325528e-08 1.0328668e-08 
3.8825334e-08 -2.7829199e-07 -7.8504445e-07 
-3.8604604e-09 8.1888579e-08 8.0914111e-09 
1.8163864e-06 -1.8859407e-06 -1.8289755e-06 
1.3792505e-06 -4.7393391e-05 -2.7094313e-06 
-2.8866350e-07 -2.6393705e-06 3.7485120e-07 
9.7500845e-08 -1.1051270e-06 -1.0348115e-06 
8.5058343e-07 -1.3586641e-06 -2.1067992e-06 
5.1441907e-06 -3.7825132e-05 -8.5487518e-06 
-1.3506106e-09 3.1410028e-08 4.3977249e-09 
-2.5690593e-08 3.6138752e-07 4.3863505e-08 
4.9347353e-08 1.0441568e-07 -8.9072152e-08 
-1.0661430e-09 2.0025620e-07 7.1499123e-08 
8.1471899e-07 -4.5390516e-07 -9.4234213e-07 
-5.6413216e-09 9.6732713e-08 2.0073610e-08 
-1.7544461e-06 -5.7150501e-05 -3.6323768e-06 
8.3970598e-08 7.3663884e-08 -2.9428688e-07 