# vtk DataFile Version 4.0
vtk output
ASCII
DATASET UNSTRUCTURED_GRID
POINTS 460 float
0.0000000e+00 0.0000000e+00 0.0000000e+00 
5.0000000e+00 0.0000000e+00 0.0000000e+00 
5.0000000e+00 3.0000000e+00 0.0000000e+00 
0.0000000e+00 3.0000000e+00 0.0000000e+00 
0.0000000e+00 0.0000000e+00 1.0000000e+01 
5.0000000e+00 0.0000000e+00 1.0000000e+01 
5.0000000e+00 3.0000000e+00 1.0000000e+01 
0.0000000e+00 3.0000000e+00 1.0000000e+01 
1.0000000e+00 3.0000000e+00 -5.0000000e+00 
1.0000000e+00 3.0000000e+00 -4.5000000e+00 
1.0000000e+00 3.0000000e+00 -4.0000000e+00 
1.0000000e+00 3.0000000e+00 -3.5000000e+00 
1.0000000e+00 3.0000000e+00 -3.0000000e+00 
1.0000000e+00 3.0000000e+00 -2.5000000e+00 
1.0000000e+00 3.0000000e+00 -2.0000000e+00 
1.0000000e+00 3.0000000e+00 -1.5000000e+00 
1.0000000e+00 3.0000000e+00 -1.0000000e+00 
1.0000000e+00 3.0000000e+00 -5.0000000e-01 
1.0000000e+00 3.0000000e+00 0.0000000e+00 
1.0000000e+00 3.0000000e+00 5.0000000e-01 
1.0000000e+00 3.0000000e+00 1.0000000e+00 
1.0000000e+00 3.0000000e+00 1.5000000e+00 
1.0000000e+00 3.0000000e+00 2.0000000e+00 
1.0000000e+00 3.0000000e+00 2.5000000e+00 
1.0000000e+00 3.0000000e+00 3.0000000e+00 
1.0000000e+00 3.0000000e+00 3.5000000e+00 
1.0000000e+00 3.0000000e+00 4.0000000e+00 
1.0000000e+00 3.0000000e+00 4.5000000e+00 
1.0000000e+00 3.0000000e+00 5.0000000e+00 
1.0000000e+00 3.0000000e+00 5.5000000e+00 
1.0000000e+00 3.0000000e+00 6.0000000e+00 
1.0000000e+00 3.0000000e+00 6.5000000e+00 
1.0000000e+00 3.0000000e+00 7.0000000e+00 
1.0000000e+00 3.0000000e+00 7.5000000e+00 
1.0000000e+00 3.0000000e+00 8.0000000e+00 
1.0000000e+00 3.0000000e+00 8.5000000e+00 
1.0000000e+00 3.0000000e+00 9.0000000e+00 
1.0000000e+00 3.0000000e+00 9.5000000e+00 
1.0000000e+00 3.0000000e+00 1.0000000e+01 
1.0000000e+00 3.0000000e+00 1.0500000e+01 
1.0000000e+00 3.0000000e+00 1.1000000e+01 
1.0000000e+00 3.0000000e+00 1.1500000e+01 
1.0000000e+00 3.0000000e+00 1.2000000e+01 
1.0000000e+00 3.0000000e+00 1.2500000e+01 
1.0000000e+00 3.0000000e+00 1.3000000e+01 
1.0000000e+00 3.0000000e+00 1.3500000e+01 
1.0000000e+00 3.0000000e+00 1.4000000e+01 
1.0000000e+00 3.0000000e+00 1.4500000e+01 
1.0000000e+00 3.0250001e+00 -5.0000000e+00 
1.0000000e+00 3.0250001e+00 -4.5000000e+00 
1.0000000e+00 3.0250001e+00 -4.0000000e+00 
1.0000000e+00 3.0250001e+00 -3.5000000e+00 
1.0000000e+00 3.0250001e+00 -3.0000000e+00 
1.0000000e+00 3.0250001e+00 -2.5000000e+00 
1.0000000e+00 3.0250001e+00 -2.0000000e+00 
1.0000000e+00 3.0250001e+00 -1.5000000e+00 
1.0000000e+00 3.0250001e+00 -1.0000000e+00 
1.0000000e+00 3.0250001e+00 -5.0000000e-01 
1.0000000e+00 3.0250001e+00 0.0000000e+00 
1.0000000e+00 3.0250001e+00 5.0000000e-01 
1.0000000e+00 3.0250001e+00 1.0000000e+00 
1.0000000e+00 3.0250001e+00 1.5000000e+00 
1.0000000e+00 3.0250001e+00 2.0000000e+00 
1.0000000e+00 3.0250001e+00 2.5000000e+00 
1.0000000e+00 3.0250001e+00 3.0000000e+00 
1.0000000e+00 3.0250001e+00 3.5000000e+00 
1.0000000e+00 3.0250001e+00 4.0000000e+00 
1.0000000e+00 3.0250001e+00 4.5000000e+00 
1.0000000e+00 3.0250001e+00 5.0000000e+00 
1.0000000e+00 3.0250001e+00 5.5000000e+00 
1.0000000e+00 3.0250001e+00 6.0000000e+00 
1.0000000e+00 3.0250001e+00 6.5000000e+00 
1.0000000e+00 3.0250001e+00 7.0000000e+00 
1.0000000e+00 3.0250001e+00 7.5000000e+00 
1.0000000e+00 3.0250001e+00 8.0000000e+00 
1.0000000e+00 3.0250001e+00 8.5000000e+00 
1.0000000e+00 3.0250001e+00 9.0000000e+00 
1.0000000e+00 3.0250001e+00 9.5000000e+00 
1.0000000e+00 3.0250001e+00 1.0000000e+01 
1.0000000e+00 3.0250001e+00 1.0500000e+01 
1.0000000e+00 3.0250001e+00 1.1000000e+01 
1.0000000e+00 3.0250001e+00 1.1500000e+01 
1.0000000e+00 3.0250001e+00 1.2000000e+01 
1.0000000e+00 3.0250001e+00 1.2500000e+01 
1.0000000e+00 3.0250001e+00 1.3000000e+01 
1.0000000e+00 3.0250001e+00 1.3500000e+01 
1.0000000e+00 3.0250001e+00 1.4000000e+01 
1.0000000e+00 3.0250001e+00 1.4500000e+01 
1.0000000e+00 -2.0000000e+00 -5.0000000e+00 
1.0000000e+00 -2.0000000e+00 -4.5000000e+00 
1.0000000e+00 -2.0000000e+00 -4.0000000e+00 
1.0000000e+00 -2.0000000e+00 -3.5000000e+00 
1.0000000e+00 -2.0000000e+00 -3.0000000e+00 
1.0000000e+00 -2.0000000e+00 -2.5000000e+00 
1.0000000e+00 -2.0000000e+00 -2.0000000e+00 
1.0000000e+00 -2.0000000e+00 -1.5000000e+00 
1.0000000e+00 -2.0000000e+00 -1.0000000e+00 
1.0000000e+00 -2.0000000e+00 -5.0000000e-01 
1.0000000e+00 -2.0000000e+00 1.0500000e+01 
1.0000000e+00 -2.0000000e+00 1.1000000e+01 
1.0000000e+00 -2.0000000e+00 1.1500000e+01 
1.0000000e+00 -2.0000000e+00 1.2000000e+01 
1.0000000e+00 -2.0000000e+00 1.2500000e+01 
1.0000000e+00 -2.0000000e+00 1.3000000e+01 
1.0000000e+00 -2.0000000e+00 1.3500000e+01 
1.0000000e+00 -2.0000000e+00 1.4000000e+01 
1.0000000e+00 -2.0000000e+00 1.4500000e+01 
1.0000000e+00 0.0000000e+00 0.0000000e+00 
2.0000000e+00 0.0000000e+00 0.0000000e+00 
3.0000000e+00 0.0000000e+00 0.0000000e+00 
4.0000000e+00 0.0000000e+00 0.0000000e+00 
5.0000000e+00 1.0000000e+00 0.0000000e+00 
5.0000000e+00 2.0000000e+00 0.0000000e+00 
0.0000000e+00 2.0000000e+00 0.0000000e+00 
0.0000000e+00 1.0000000e+00 0.0000000e+00 
0.0000000e+00 0.0000000e+00 1.0000000e+00 
0.0000000e+00 0.0000000e+00 2.0000000e+00 
0.0000000e+00 0.0000000e+00 3.0000000e+00 
0.0000000e+00 0.0000000e+00 4.0000000e+00 
0.0000000e+00 0.0000000e+00 5.0000000e+00 
0.0000000e+00 0.0000000e+00 6.0000000e+00 
0.0000000e+00 0.0000000e+00 7.0000000e+00 
0.0000000e+00 0.0000000e+00 8.0000000e+00 
0.0000000e+00 0.0000000e+00 9.0000000e+00 
5.0000000e+00 0.0000000e+00 1.0000000e+00 
5.0000000e+00 0.0000000e+00 2.0000000e+00 
5.0000000e+00 0.0000000e+00 3.0000000e+00 
5.0000000e+00 0.0000000e+00 4.0000000e+00 
5.0000000e+00 0.0000000e+00 5.0000000e+00 
5.0000000e+00 0.0000000e+00 6.0000000e+00 
5.0000000e+00 0.0000000e+00 7.0000000e+00 
5.0000000e+00 0.0000000e+00 8.0000000e+00 
5.0000000e+00 0.0000000e+00 9.0000000e+00 
1.0000000e+00 0.0000000e+00 1.0000000e+01 
2.0000000e+00 0.0000000e+00 1.0000000e+01 
3.0000000e+00 0.0000000e+00 1.0000000e+01 
4.0000000e+00 0.0000000e+00 1.0000000e+01 
5.0000000e+00 3.0000000e+00 1.0000000e+00 
5.0000000e+00 3.0000000e+00 2.0000000e+00 
5.0000000e+00 3.0000000e+00 3.0000000e+00 
5.0000000e+00 3.0000000e+00 4.0000000e+00 
5.0000000e+00 3.0000000e+00 5.0000000e+00 
5.0000000e+00 3.0000000e+00 6.0000000e+00 
5.0000000e+00 3.0000000e+00 7.0000000e+00 
5.0000000e+00 3.0000000e+00 8.0000000e+00 
5.0000000e+00 3.0000000e+00 9.0000000e+00 
5.0000000e+00 1.0000000e+00 1.0000000e+01 
5.0000000e+00 2.0000000e+00 1.0000000e+01 
0.0000000e+00 3.0000000e+00 1.0000000e+00 
0.0000000e+00 3.0000000e+00 2.0000000e+00 
0.0000000e+00 3.0000000e+00 3.0000000e+00 
0.0000000e+00 3.0000000e+00 4.0000000e+00 
0.0000000e+00 3.0000000e+00 5.0000000e+00 
0.0000000e+00 3.0000000e+00 6.0000000e+00 
0.0000000e+00 3.0000000e+00 7.0000000e+00 
0.0000000e+00 3.0000000e+00 8.0000000e+00 
0.0000000e+00 3.0000000e+00 9.0000000e+00 
0.0000000e+00 2.0000000e+00 1.0000000e+01 
0.0000000e+00 1.0000000e+00 1.0000000e+01 
4.0000000e+00 3.0000000e+00 0.0000000e+00 
3.0000000e+00 3.0000000e+00 0.0000000e+00 
2.0000000e+00 3.0000000e+00 0.0000000e+00 
4.0000000e+00 3.0000000e+00 1.0000000e+01 
3.0000000e+00 3.0000000e+00 1.0000000e+01 
2.0000000e+00 3.0000000e+00 1.0000000e+01 
4.0618000e+00 1.5000000e+00 0.0000000e+00 
1.5046000e+00 7.6549745e-01 0.0000000e+00 
2.5000000e+00 2.1339746e+00 0.0000000e+00 
1.5046000e+00 2.2345026e+00 0.0000000e+00 
2.4957771e+00 8.1560516e-01 0.0000000e+00 
3.4707544e+00 2.2336540e+00 0.0000000e+00 
3.4700506e+00 7.5794268e-01 0.0000000e+00 
8.6322361e-01 1.5000000e+00 0.0000000e+00 
2.0000000e+00 1.5000000e+00 0.0000000e+00 
2.9960666e+00 1.4974480e+00 0.0000000e+00 
4.2679491e+00 7.3205084e-01 0.0000000e+00 
4.2679491e+00 2.2679491e+00 0.0000000e+00 
7.2695929e-01 2.2730408e+00 0.0000000e+00 
7.2695929e-01 7.2695929e-01 0.0000000e+00 
4.1822505e+00 0.0000000e+00 2.5515697e+00 
4.2017918e+00 0.0000000e+00 4.4725966e+00 
4.1114569e+00 0.0000000e+00 6.5092020e+00 
8.6602539e-01 0.0000000e+00 3.5000000e+00 
8.4778279e-01 0.0000000e+00 5.4684029e+00 
8.9629614e-01 0.0000000e+00 7.5867257e+00 
2.5566745e+00 0.0000000e+00 8.1853306e-01 
2.4918270e+00 0.0000000e+00 9.1386929e+00 
8.4677207e-01 0.0000000e+00 1.5042374e+00 
4.0943027e+00 0.0000000e+00 8.4081745e+00 
8.6281651e-01 0.0000000e+00 2.5007062e+00 
1.7315160e+00 0.0000000e+00 3.0001178e+00 
1.7319617e+00 0.0000000e+00 4.0000196e+00 
2.5980761e+00 0.0000000e+00 3.5000000e+00 
2.5536871e+00 0.0000000e+00 4.4963923e+00 
2.5928419e+00 0.0000000e+00 2.4239938e+00 
1.5037409e+00 0.0000000e+00 9.1535149e+00 
1.8433737e+00 0.0000000e+00 8.1858873e+00 
3.0000000e+00 0.0000000e+00 8.2679491e+00 
2.5000000e+00 0.0000000e+00 7.4019237e+00 
3.5042722e+00 0.0000000e+00 7.4271150e+00 
3.0310018e+00 0.0000000e+00 6.5282087e+00 
2.0373929e+00 0.0000000e+00 6.5307913e+00 
3.4767809e+00 0.0000000e+00 5.8031492e+00 
2.5452602e+00 0.0000000e+00 5.5720768e+00 
1.6456656e+00 0.0000000e+00 1.9697139e+00 
8.6297011e-01 0.0000000e+00 4.4947371e+00 
1.0111579e+00 0.0000000e+00 6.5282545e+00 
3.4994321e+00 0.0000000e+00 8.4691072e-01 
4.1860156e+00 0.0000000e+00 3.5040276e+00 
1.7320508e+00 0.0000000e+00 5.0000000e+00 
4.0544066e+00 0.0000000e+00 1.5781221e+00 
1.5817389e+00 0.0000000e+00 9.3943578e-01 
8.3166349e-01 0.0000000e+00 8.5090933e+00 
3.4686174e+00 0.0000000e+00 9.1752682e+00 
3.0709300e+00 0.0000000e+00 1.5799091e+00 
3.3927374e+00 0.0000000e+00 3.0399952e+00 
3.3826034e+00 0.0000000e+00 3.9747651e+00 
4.3420062e+00 0.0000000e+00 7.4688983e+00 
3.4023225e+00 0.0000000e+00 4.9314723e+00 
1.6740381e+00 0.0000000e+00 7.3014426e+00 
4.2715640e+00 0.0000000e+00 5.4758859e+00 
1.6225953e+00 0.0000000e+00 5.8104177e+00 
4.2679491e+00 0.0000000e+00 9.2679491e+00 
7.3205084e-01 0.0000000e+00 7.3205084e-01 
4.2679491e+00 0.0000000e+00 7.3205084e-01 
7.3205084e-01 0.0000000e+00 9.2679491e+00 
3.4586334e+00 0.0000000e+00 2.2347178e+00 
2.2895701e+00 0.0000000e+00 1.5463171e+00 
5.0000000e+00 2.2345026e+00 1.5046000e+00 
[...]
POINT_DATA 460
FIELD FieldData 5
DISPLACEMENT 3 460  float
0.0000000e+00 0.0000000e+00 0.0000000e+00 
0.0000000e+00 0.0000000e+00 0.0000000e+00 
0.0000000e+00 -4.4547974e-06 0.0000000e+00 
0.0000000e+00 -1.0864151e-04 0.0000000e+00 
0.0000000e+00 0.0000000e+00 0.0000000e+00 
0.0000000e+00 0.0000000e+00 0.0000000e+00 
0.0000000e+00 1.8269468e-08 0.0000000e+00 
0.0000000e+00 1.2700044e-08 0.0000000e+00 
0.0000000e+00 -9.5177920e-06 0.0000000e+00 
0.0000000e+00 -7.5564499e-06 0.0000000e+00 
0.0000000e+00 -3.9464508e-06 0.0000000e+00 
0.0000000e+00 -4.2806582e-06 0.0000000e+00 
0.0000000e+00 -1.6909275e-05 0.0000000e+00 
0.0000000e+00 -5.1863419e-05 0.0000000e+00 
0.0000000e+00 -1.1775680e-04 0.0000000e+00 
0.0000000e+00 -2.1550477e-04 0.0000000e+00 
0.0000000e+00 -3.2812302e-04 0.0000000e+00 
0.0000000e+00 -4.0735566e-04 0.0000000e+00 
0.0000000e+00 -3.8222290e-04 0.0000000e+00 
-1.0198138e-05 -2.6599501e-04 -3.6034546e-06 
-1.1364058e-05 -1.4530320e-04 -1.5278058e-05 
-5.1930069e-06 -6.8171721e-05 -1.7647038e-05 
-4.6329601e-06 -2.7592592e-05 -1.6768814e-05 
-2.9206594e-06 -9.8963728e-06 -1.0513090e-05 
-1.3767515e-06 -3.3164592e-06 -6.3926927e-06 
-1.1106113e-06 -1.2453397e-06 -4.1369885e-06 
-5.7893834e-07 -6.8255656e-07 -2.4606052e-06 
-2.9167157e-07 -4.1046783e-07 -1.3514141e-06 
-1.1933214e-07 -2.1372136e-07 -6.8315859e-07 
-7.2580754e-08 -6.4281899e-08 -3.7668494e-07 
-6.8370909e-08 3.1732167e-08 -2.2695460e-07 
-3.2486966e-08 7.6884362e-08 -1.0931001e-07 
-2.1535014e-08 8.5966789e-08 -4.9721077e-08 
-1.2510379e-08 7.7121712e-08 -1.4367258e-08 
-8.7225116e-09 6.0566890e-08 -1.8188528e-09 
-5.7937939e-09 4.3072166e-08 8.4744025e-09 
-3.2704923e-09 2.8145376e-08 8.1443847e-09 
-1.8800470e-09 1.7401041e-08 4.0043462e-09 
0.0000000e+00 9.9273239e-09 0.0000000e+00 
0.0000000e+00 3.6689487e-09 0.0000000e+00 
0.0000000e+00 -4.9043947e-10 0.0000000e+00 
0.0000000e+00 -2.5644573e-09 0.0000000e+00 
0.0000000e+00 -2.8962484e-09 0.0000000e+00 
0.0000000e+00 -2.0015882e-09 0.0000000e+00 
0.0000000e+00 -3.7044737e-10 0.0000000e+00 
0.0000000e+00 1.6248427e-09 0.0000000e+00 
0.0000000e+00 3.7519450e-09 0.0000000e+00 
0.0000000e+00 5.9018355e-09 0.0000000e+00 
0.0000000e+00 -9.4481875e-06 0.0000000e+00 
0.0000000e+00 -7.4822892e-06 0.0000000e+00 
0.0000000e+00 -3.8681064e-06 0.0000000e+00 
0.0000000e+00 -4.2199135e-06 0.0000000e+00 
0.0000000e+00 -1.6919852e-05 0.0000000e+00 
0.0000000e+00 -5.2036910e-05 0.0000000e+00 
0.0000000e+00 -1.1821630e-04 0.0000000e+00 
0.0000000e+00 -2.1637314e-04 0.0000000e+00 
0.0000000e+00 -3.2945219e-04 0.0000000e+00 
0.0000000e+00 -4.0900096e-04 0.0000000e+00 
0.0000000e+00 -3.8660908e-04 0.0000000e+00 
0.0000000e+00 -2.6907999e-04 0.0000000e+00 
0.0000000e+00 -1.4736081e-04 0.0000000e+00 
0.0000000e+00 -6.8367131e-05 0.0000000e+00 
0.0000000e+00 -2.7498007e-05 0.0000000e+00 
0.0000000e+00 -9.7198208e-06 0.0000000e+00 
0.0000000e+00 -3.1947427e-06 0.0000000e+00 
0.0000000e+00 -1.1856984e-06 0.0000000e+00 
0.0000000e+00 -6.4664476e-07 0.0000000e+00 
0.0000000e+00 -4.0461077e-07 0.0000000e+00 
0.0000000e+00 -2.1271785e-07 0.0000000e+00 
0.0000000e+00 -6.4299186e-08 0.0000000e+00 
0.0000000e+00 3.1352030e-08 0.0000000e+00 
0.0000000e+00 7.6703451e-08 0.0000000e+00 
0.0000000e+00 8.6180485e-08 0.0000000e+00 
0.0000000e+00 7.7143149e-08 0.0000000e+00 
0.0000000e+00 6.0617204e-08 0.0000000e+00 
0.0000000e+00 4.3121712e-08 0.0000000e+00 
0.0000000e+00 2.8253869e-08 0.0000000e+00 
0.0000000e+00 1.7465107e-08 0.0000000e+00 
0.0000000e+00 9.7990052e-09 0.0000000e+00 
0.0000000e+00 3.7025678e-09 0.0000000e+00 
0.0000000e+00 -4.7327758e-10 0.0000000e+00 
0.0000000e+00 -2.5582969e-09 0.0000000e+00 
0.0000000e+00 -2.8962992e-09 0.0000000e+00 
0.0000000e+00 -2.0043800e-09 0.0000000e+00 
0.0000000e+00 -3.7382239e-10 0.0000000e+00 
0.0000000e+00 1.6220246e-09 0.0000000e+00 
0.0000000e+00 3.7501660e-09 0.0000000e+00 
0.0000000e+00 5.9012333e-09 0.0000000e+00 
0.0000000e+00 0.0000000e+00 0.0000000e+00 
0.0000000e+00 0.0000000e+00 0.0000000e+00 
0.0000000e+00 0.0000000e+00 0.0000000e+00 
0.0000000e+00 0.0000000e+00 0.0000000e+00 
0.0000000e+00 0.0000000e+00 0.0000000e+00 
0.0000000e+00 0.0000000e+00 0.0000000e+00 
0.0000000e+00 0.0000000e+00 0.0000000e+00 
0.0000000e+00 0.0000000e+00 0.0000000e+00 
0.0000000e+00 0.0000000e+00 0.0000000e+00 
0.0000000e+00 0.0000000e+00 0.0000000e+00 
0.0000000e+00 0.0000000e+00 0.0000000e+00 
0.0000000e+00 0.0000000e+00 0.0000000e+00 
0.0000000e+00 0.0000000e+00 0.0000000e+00 
0.0000000e+00 0.0000000e+00 0.0000000e+00 
0.0000000e+00 0.0000000e+00 0.0000000e+00 
0.0000000e+00 0.0000000e+00 0.0000000e+00 
0.0000000e+00 0.0000000e+00 0.0000000e+00 
0.0000000e+00 0.0000000e+00 0.0000000e+00 
0.0000000e+00 0.0000000e+00 0.0000000e+00 
0.0000000e+00 0.0000000e+00 0.0000000e+00 
0.0000000e+00 0.0000000e+00 0.0000000e+00 
0.0000000e+00 0.0000000e+00 0.0000000e+00 
0.0000000e+00 0.0000000e+00 0.0000000e+00 
0.0000000e+00 -2.2678585e-06 0.0000000e+00 
0.0000000e+00 -4.1076578e-06 0.0000000e+00 
0.0000000e+00 -9.4182535e-05 0.0000000e+00 
0.0000000e+00 -4.6411606e-05 0.0000000e+00 
0.0000000e+00 0.0000000e+00 0.0000000e+00 
0.0000000e+00 0.0000000e+00 0.0000000e+00 
0.0000000e+00 0.0000000e+00 0.0000000e+00 
0.0000000e+00 0.0000000e+00 0.0000000e+00 
0.0000000e+00 0.0000000e+00 0.0000000e+00 
0.0000000e+00 0.0000000e+00 0.0000000e+00 
0.0000000e+00 0.0000000e+00 0.0000000e+00 
0.0000000e+00 0.0000000e+00 0.0000000e+00 
0.0000000e+00 0.0000000e+00 0.0000000e+00 
0.0000000e+00 0.0000000e+00 0.0000000e+00 
0.0000000e+00 0.0000000e+00 0.0000000e+00 
0.0000000e+00 0.0000000e+00 0.0000000e+00 
0.0000000e+00 0.0000000e+00 0.0000000e+00 
0.0000000e+00 0.0000000e+00 0.0000000e+00 
0.0000000e+00 0.0000000e+00 0.0000000e+00 
0.0000000e+00 0.0000000e+00 0.0000000e+00 
0.0000000e+00 0.0000000e+00 0.0000000e+00 
0.0000000e+00 0.0000000e+00 0.0000000e+00 
0.0000000e+00 0.0000000e+00 0.0000000e+00 
0.0000000e+00 0.0000000e+00 0.0000000e+00 
0.0000000e+00 0.0000000e+00 0.0000000e+00 
0.0000000e+00 0.0000000e+00 0.0000000e+00 
0.0000000e+00 -3.4419916e-06 0.0000000e+00 
0.0000000e+00 -1.1788507e-06 0.0000000e+00 
0.0000000e+00 -7.2213533e-07 0.0000000e+00 
0.0000000e+00 1.8267765e-07 0.0000000e+00 
0.0000000e+00 2.1202658e-07 0.0000000e+00 
0.0000000e+00 2.1578457e-07 0.0000000e+00 
0.0000000e+00 1.0734085e-07 0.0000000e+00 
0.0000000e+00 5.7435503e-08 0.0000000e+00 
0.0000000e+00 2.6555941e-08 0.0000000e+00 
0.0000000e+00 9.4469295e-09 0.0000000e+00 
0.0000000e+00 1.6573029e-08 0.0000000e+00 
0.0000000e+00 -8.7403118e-05 0.0000000e+00 
0.0000000e+00 -3.1276722e-05 0.0000000e+00 
0.0000000e+00 -8.8784491e-06 0.0000000e+00 
0.0000000e+00 -2.1553169e-06 0.0000000e+00 
0.0000000e+00 -4.9041688e-07 0.0000000e+00 
0.0000000e+00 -3.9730406e-08 0.0000000e+00 
0.0000000e+00 5.0307126e-08 0.0000000e+00 
0.0000000e+00 4.2272276e-08 0.0000000e+00 
0.0000000e+00 2.1413232e-08 0.0000000e+00 
0.0000000e+00 1.1305175e-08 0.0000000e+00 
0.0000000e+00 6.4081673e-09 0.0000000e+00 
0.0000000e+00 -8.3093937e-06 0.0000000e+00 
0.0000000e+00 -2.1771384e-05 0.0000000e+00 
0.0000000e+00 -5.4220109e-05 0.0000000e+00 
0.0000000e+00 1.9094134e-08 0.0000000e+00 
0.0000000e+00 1.9471161e-08 0.0000000e+00 
0.0000000e+00 1.7890351e-08 0.0000000e+00 
0.0000000e+00 -5.4535653e-06 0.0000000e+00 
0.0000000e+00 -2.7425602e-05 0.0000000e+00 
0.0000000e+00 -3.4656034e-05 0.0000000e+00 
0.0000000e+00 -1.0491537e-04 0.0000000e+00 
0.0000000e+00 -1.6812837e-05 0.0000000e+00 
0.0000000e+00 -1.3702467e-05 0.0000000e+00 
0.0000000e+00 -4.6192140e-06 0.0000000e+00 
0.0000000e+00 -8.0455196e-05 0.0000000e+00 
0.0000000e+00 -4.5391116e-05 0.0000000e+00 
0.0000000e+00 -1.7232442e-05 0.0000000e+00 
0.0000000e+00 -2.7393196e-06 0.0000000e+00 
0.0000000e+00 -6.3416228e-06 0.0000000e+00 
0.0000000e+00 -1.5649028e-04 0.0000000e+00 
0.0000000e+00 -3.6691647e-05 0.0000000e+00 
0.0000000e+00 0.0000000e+00 0.0000000e+00 
0.0000000e+00 0.0000000e+00 0.0000000e+00 
0.0000000e+00 0.0000000e+00 0.0000000e+00 
0.0000000e+00 0.0000000e+00 0.0000000e+00 
0.0000000e+00 0.0000000e+00 0.0000000e+00 
0.0000000e+00 0.0000000e+00 0.0000000e+00 
0.0000000e+00 0.0000000e+00 0.0000000e+00 
0.0000000e+00 0.0000000e+00 0.0000000e+00 
0.0000000e+00 0.0000000e+00 0.0000000e+00 
0.0000000e+00 0.0000000e+00 0.0000000e+00 
0.0000000e+00 0.0000000e+00 0.0000000e+00 
0.0000000e+00 0.0000000e+00 0.0000000e+00 
0.0000000e+00 0.0000000e+00 0.0000000e+00 
0.0000000e+00 0.0000000e+00 0.0000000e+00 
0.0000000e+00 0.0000000e+00 0.0000000e+00 
0.0000000e+00 0.0000000e+00 0.0000000e+00 
0.0000000e+00 0.0000000e+00 0.0000000e+00 
0.0000000e+00 0.0000000e+00 0.0000000e+00 
0.0000000e+00 0.0000000e+00 0.0000000e+00 
0.0000000e+00 0.0000000e+00 0.0000000e+00 
0.0000000e+00 0.0000000e+00 0.0000000e+00 
0.0000000e+00 0.0000000e+00 0.0000000e+00 
0.0000000e+00 0.0000000e+00 0.0000000e+00 
0.0000000e+00 0.0000000e+00 0.0000000e+00 
0.0000000e+00 0.0000000e+00 0.0000000e+00 
0.0000000e+00 0.0000000e+00 0.0000000e+00 
0.0000000e+00 0.0000000e+00 0.0000000e+00 
0.0000000e+00 0.0000000e+00 0.0000000e+00 
0.0000000e+00 0.0000000e+00 0.0000000e+00 
0.0000000e+00 0.0000000e+00 0.0000000e+00 
0.0000000e+00 0.0000000e+00 0.0000000e+00 
0.0000000e+00 0.0000000e+00 0.0000000e+00 
0.0000000e+00 0.0000000e+00 0.0000000e+00 
0.0000000e+00 0.0000000e+00 0.0000000e+00 
0.0000000e+00 0.0000000e+00 0.0000000e+00 
0.0000000e+00 0.0000000e+00 0.0000000e+00 
0.0000000e+00 0.0000000e+00 0.0000000e+00 
0.0000000e+00 0.0000000e+00 0.0000000e+00 
0.0000000e+00 0.0000000e+00 0.0000000e+00 
0.0000000e+00 0.0000000e+00 0.0000000e+00 
0.0000000e+00 0.0000000e+00 0.0000000e+00 
0.0000000e+00 0.0000000e+00 0.0000000e+00 
0.0000000e+00 0.0000000e+00 0.0000000e+00 
0.0000000e+00 0.0000000e+00 0.0000000e+00 
0.0000000e+00 0.0000000e+00 0.0000000e+00 
0.0000000e+00 0.0000000e+00 0.0000000e+00 
0.0000000e+00 0.0000000e+00 0.0000000e+00 
0.0000000e+00 0.0000000e+00 0.0000000e+00 
0.0000000e+00 0.0000000e+00 0.0000000e+00 
0.0000000e+00 -1.4720283e-06 0.0000000e+00 
0.0000000e+00 1.7824481e-08 0.0000000e+00 
0.0000000e+00 1.1933291e-07 0.0000000e+00 
0.0000000e+00 2.6076114e-07 0.0000000e+00 
0.0000000e+00 7.4000035e-08 0.0000000e+00 
0.0000000e+00 -7.2805841e-07 0.0000000e+00 
0.0000000e+00 4.9582425e-08 0.0000000e+00 
0.0000000e+00 6.4831980e-08 0.0000000e+00 
0.0000000e+00 -1.2030287e-07 0.0000000e+00 
0.0000000e+00 9.2178496e-08 0.0000000e+00 
0.0000000e+00 -8.4026721e-07 0.0000000e+00 
0.0000000e+00 2.3903988e-07 0.0000000e+00 
0.0000000e+00 1.4280843e-07 0.0000000e+00 
0.0000000e+00 3.6985476e-08 0.0000000e+00 
0.0000000e+00 -1.3832080e-06 0.0000000e+00 
0.0000000e+00 1.5978451e-08 0.0000000e+00 
0.0000000e+00 3.7154106e-08 0.0000000e+00 
0.0000000e+00 -2.2195804e-06 0.0000000e+00 
0.0000000e+00 2.2410504e-07 0.0000000e+00 
0.0000000e+00 8.6079865e-08 0.0000000e+00 
0.0000000e+00 -1.2176201e-06 0.0000000e+00 
0.0000000e+00 1.5205993e-07 0.0000000e+00 
0.0000000e+00 1.1615983e-07 0.0000000e+00 
0.0000000e+00 -3.4386505e-07 0.0000000e+00 
0.0000000e+00 4.3062204e-08 0.0000000e+00 
0.0000000e+00 2.1378238e-08 0.0000000e+00 
0.0000000e+00 8.9015906e-09 0.0000000e+00 
0.0000000e+00 -2.8773006e-06 0.0000000e+00 
0.0000000e+00 -1.2498836e-06 0.0000000e+00 
0.0000000e+00 1.3863191e-08 0.0000000e+00 
0.0000000e+00 -5.4236396e-05 0.0000000e+00 
0.0000000e+00 -8.7902972e-06 0.0000000e+00 
0.0000000e+00 -4.7208928e-07 0.0000000e+00 
0.0000000e+00 1.3832706e-08 0.0000000e+00 
0.0000000e+00 -4.1272538e-06 0.0000000e+00 
0.0000000e+00 -1.6523296e-07 0.0000000e+00 
0.0000000e+00 4.4279663e-08 0.0000000e+00 
0.0000000e+00 -2.5262095e-06 0.0000000e+00 
0.0000000e+00 -1.6265116e-05 0.0000000e+00 
0.0000000e+00 -1.0063452e-06 0.0000000e+00 
0.0000000e+00 1.7407071e-08 0.0000000e+00 
0.0000000e+00 -2.8552735e-08 0.0000000e+00 
0.0000000e+00 2.5891579e-08 0.0000000e+00 
0.0000000e+00 -4.8779028e-05 0.0000000e+00 
0.0000000e+00 -1.7019505e-05 0.0000000e+00 
0.0000000e+00 1.0503324e-08 0.0000000e+00 
0.0000000e+00 -3.3802840e-07 0.0000000e+00 
0.0000000e+00 8.8711190e-09 0.0000000e+00 
0.0000000e+00 -1.9641113e-06 0.0000000e+00 
0.0000000e+00 -7.1932755e-06 0.0000000e+00 
0.0000000e+00 3.2707892e-08 0.0000000e+00 
0.0000000e+00 -7.3465344e-08 0.0000000e+00 
0.0000000e+00 2.5888729e-08 0.0000000e+00 
0.0000000e+00 -2.2793734e-05 0.0000000e+00 
0.0000000e+00 6.7153159e-09 0.0000000e+00 
0.0000000e+00 -9.2216898e-05 0.0000000e+00 
0.0000000e+00 -2.5841788e-05 0.0000000e+00 
0.0000000e+00 1.5704732e-08 0.0000000e+00 
0.0000000e+00 5.7413585e-09 0.0000000e+00 
0.0000000e+00 1.3627785e-08 0.0000000e+00 
0.0000000e+00 1.5801659e-08 0.0000000e+00 
0.0000000e+00 1.2782138e-08 0.0000000e+00 
0.0000000e+00 7.9583966e-09 0.0000000e+00 
0.0000000e+00 1.6143250e-08 0.0000000e+00 
0.0000000e+00 6.3771410e-09 0.0000000e+00 
0.0000000e+00 9.0932586e-09 0.0000000e+00 
0.0000000e+00 1.1315150e-08 0.0000000e+00 
0.0000000e+00 1.2152644e-08 0.0000000e+00 
0.0000000e+00 6.5641967e-09 0.0000000e+00 
0.0000000e+00 1.6143957e-08 0.0000000e+00 
0.0000000e+00 1.0530094e-08 0.0000000e+00 
0.0000000e+00 4.3938200e-09 0.0000000e+00 
-3.0452657e-07 -1.7926128e-07 -1.3247520e-06 
-8.0123399e-08 8.8872582e-08 -2.3097296e-07 
-1.2799210e-08 7.1492870e-08 -8.1426546e-09 
-4.9258283e-06 -2.0160252e-05 -1.1763045e-05 
-1.9335478e-06 -3.1933023e-06 -5.4238949e-06 
-1.3261271e-07 2.2078818e-07 -1.9542914e-07 
-1.2246113e-06 -1.1626189e-06 -1.2654208e-06 
-1.8100394e-08 9.5284896e-08 -5.0649622e-09 
-8.1745848e-06 -7.1660601e-05 -1.5952071e-05 
-4.5855599e-09 3.6527439e-08 8.5475573e-09 
-6.7673795e-06 -1.1220906e-05 -3.2370326e-06 
-1.3466791e-09 2.4921713e-08 4.2857495e-09 
-3.1628762e-08 1.7938734e-07 -2.3039364e-08 
-4.6861768e-08 1.5020980e-07 -6.6513934e-08 
-1.5231407e-08 7.8357949e-08 -1.2500726e-08 
-2.6886681e-08 1.1815969e-07 -2.8819304e-08 
-6.6242656e-08 1.5452952e-07 -1.0815157e-07 
-5.2119060e-09 5.7892787e-08 2.6268521e-09 
-4.1016108e-08 1.2895126e-07 -5.8666703e-08 
-1.1734000e-07 2.1013844e-07 -1.8226068e-07 
-2.6444255e-07 2.2604604e-07 -3.8463139e-07 
-2.3218868e-07 1.5466628e-07 -4.4095333e-07 
-4.4525774e-07 1.6016817e-07 -9.5959251e-07 
-6.2996213e-07 2.2939452e-07 -1.0371484e-06 
-9.5439771e-07 -4.1950133e-07 -2.1670694e-06 
-1.0879847e-06 -6.9132869e-07 -1.5992466e-06 
-2.0791042e-06 -2.3010423e-06 -3.9056526e-06 
-2.4572676e-06 -3.0681081e-06 -3.5522892e-06 
-3.0236520e-06 -6.4406604e-06 -5.2956566e-06 
-4.0313912e-06 -6.5191862e-06 -4.5925894e-06 
-7.6463784e-06 -1.6228842e-05 -7.6987153e-06 
-2.1316522e-07 1.4891965e-07 -5.5565630e-07 
-1.3735597e-07 1.4421867e-07 -2.9456848e-07 
-1.3538455e-06 -1.6981247e-06 -3.3200022e-06 
-7.3286736e-07 -2.5148097e-07 -9.7302370e-07 
-1.6179990e-09 2.6078288e-08 4.4727959e-09 
-5.5635121e-07 -2.3200589e-07 -1.6190376e-06 
-2.7593731e-07 2.9180384e-07 -4.0616078e-07 
-8.9699961e-06 -3.0567317e-05 -5.7875227e-06 
-2.0807205e-09 4.2557495e-08 7.7165083e-09 
-1.4285766e-08 7.7510485e-08 -6.6190804e-09 
-9.5180130e-09 5.1903356e-08 3.1007148e-09 
-1.3662837e-07 1.0026290e-07 -4.3809786e-07 
-2.3396492e-06 -2.9890946e-06 -1.3474056e-06 
-2.9661619e-06 -8.1353173e-06 -8.6214477e-06 
-2.6603636e-06 -4.4539361e-06 -5.7497173e-06 
-1.1195834e-06 -1.6402265e-06 -3.6336762e-06 
-5.8611397e-07 -5.2446148e-07 -1.9439351e-06 
-4.4971266e-08 1.1872331e-07 -1.0133234e-07 
-2.1934961e-08 9.3611817e-08 -2.6786225e-08 
-1.3622489e-05 -1.2940327e-04 -8.6228838e-06 
-8.4940666e-06 -4.1893807e-05 -1.6066288e-05 
-1.8023369e-09 2.1049196e-08 6.1322543e-09 
-6.9002613e-06 -1.2713472e-05 -5.5689397e-06 
-4.0037003e-06 -1.2382035e-05 -8.7145845e-06 
-7.6364044e-09 5.0218190e-08 4.4434345e-09 
-6.8469966e-08 1.5894197e-07 -1.2572680e-07 
-1.1326623e-05 -3.5867597e-05 -1.4152908e-05 
-2.0651089e-07 -6.2254216e-08 -8.2571313e-07 
-4.0605337e-09 4.6282846e-08 1.6024124e-09 
-3.5871148e-10 2.3982656e-08 4.6150559e-09 
-2.4857218e-06 -4.8721427e-06 -9.3399245e-07 
-6.6244900e-07 -1.4649596e-07 -1.0435051e-06 
-7.7002323e-06 -2.4506136e-05 -1.2917394e-05 
-3.2290512e-09 3.3701852e-08 8.0364702e-09 
-1.0145444e-07 1.9822028e-07 -1.9125706e-07 
-3.7877544e-06 -4.2323359e-06 -3.0643084e-06 
-1.8483449e-06 -1.4267509e-06 -2.2753634e-06 
-9.1430566e-06 -6.4293381e-05 -1.2872710e-05 
-3.4466433e-07 -9.8906625e-08 -1.0433434e-06 
-1.4319157e-09 2.2241522e-08 4.6679864e-09 
-1.3634954e-06 -2.4800387e-05 -9.8656828e-06 
-3.3443416e-06 -4.8686437e-05 -1.4139059e-05 
-5.4904291e-07 -1.2673860e-05 -7.4615350e-06 
-4.7052905e-07 -5.1537340e-06 -4.8192087e-06 
-6.3887860e-06 -9.2171380e-05 -1.1919891e-05 
-5.6497055e-07 -2.7214890e-06 -2.2954505e-06 
-6.6030886e-08 -1.1290418e-06 -1.0773289e-06 
-9.1852812e-08 -4.5802503e-07 -5.7901292e-07 
-1.4693921e-08 -2.1644271e-07 -2.9672918e-07 
-5.1631446e-08 -5.3001507e-08 -1.9128774e-07 
-2.1976970e-08 2.1042425e-08 -1.2750554e-07 
-1.7911399e-08 5.2402445e-08 -7.2415226e-08 
-6.9917809e-09 7.0871863e-08 -2.9452316e-08 
-6.0666476e-09 5.7387425e-08 -9.4307886e-09 
-4.8347677e-09 4.4595286e-08 8.8207525e-10 
-3.1607050e-09 2.8169911e-08 4.3494195e-09 
-2.3146978e-09 1.8071598e-08 4.2265511e-09 
-1.8778381e-06 -1.4408698e-04 -9.3178041e-06 
3.9801830e-06 -1.8874276e-05 9.1639649e-06 
7.8159991e-07 -2.6026905e-06 2.7700180e-06 
3.0878702e-08 2.0956106e-08 3.3638423e-07 
5.3594280e-09 8.4746475e-08 4.6208307e-08 
1.0332111e-09 3.1154276e-08 1.4715965e-09 
1.8509005e-06 -2.5203067e-06 2.4400329e-06 
2.8556246e-07 -2.9397567e-08 6.9071325e-07 
8.7774588e-09 1.5497879e-07 6.9498718e-08 
-6.2916030e-08 -4.1381810e-07 4.3019074e-07 
1.4241984e-07 -8.9747264e-06 2.6354380e-06 
4.8409493e-06 -6.2858395e-05 1.3194363e-05 
3.4786043e-09 5.7818031e-08 1.5157590e-09 
4.2062302e-06 -1.2454336e-05 3.3084082e-06 
1.2710879e-09 8.8136026e-08 4.3123713e-08 
-3.2082967e-09 5.9963924e-08 6.2331300e-09 
-2.2381920e-07 -2.3289695e-06 2.1664620e-07 
-5.9269617e-08 -3.6798614e-08 2.8324044e-07 
1.2658229e-06 -6.1375549e-06 2.4457624e-06 
-3.5967979e-08 -1.0855540e-08 -4.3627058e-08 
2.4332195e-07 -4.3515269e-07 1.0723693e-06 
1.0667064e-06 -2.6660442e-05 3.8943008e-06 
8.0933681e-08 1.9169575e-07 1.6476595e-07 
-2.5926794e-10 2.8061038e-08 -7.8131321e-11 
1.9140207e-06 -2.9551777e-06 1.1931328e-06 
6.1061919e-11 2.7580175e-08 -2.5399038e-09 
1.0706448e-06 -5.4254260e-06 4.6135206e-06 
1.6799426e-07 9.2755217e-09 4.8255066e-07 
3.5220501e-06 -6.6647790e-06 4.5766396e-06 
1.2420329e-06 -1.8297666e-06 2.3398200e-06 
2.7578224e-07 -1.1959625e-06 6.2977534e-07 
-1.8443853e-09 1.2354151e-07 -3.4037646e-09 
-1.5339820e-08 1.4899987e-07 -6.0800556e-09 
-6.6438699e-09 9.3714640e-08 6.6786410e-11 
-5.5025353e-08 2.1139032e-07 -5.3917649e-08 
1.1526954e-09 1.7998200e-08 -1.6423833e-09 
-3.7035142e-10 7.3118386e-08 4.5993196e-09 
5.1414195e-06 -1.5224240e-05 5.2216014e-06 
3.9921665e-07 -3.5245444e-07 4.2076553e-07 
3.8866760e-06 -2.7352049e-05 8.7440731e-06 
-1.9651374e-09 2.4841997e-08 1.2829419e-07 
1.1176450e-07 -9.4786685e-07 1.5168972e-06 
-4.3693504e-10 2.2659920e-08 9.6891473e-10 
-1.3598238e-09 2.9559912e-08 1.2863802e-08 
-3.5152033e-07 -9.7799114e-07 -3.9865341e-07 
4.0148466e-06 -2.7098196e-05 4.9783689e-06 
-6.7611587e-08 2.9016829e-07 -3.2454167e-08 
7.9337718e-07 -7.7401643e-07 8.3644841e-07 
5.6460836e-09 3.6487133e-08 1.3314716e-08 
9.8963483e-07 -7.3207939e-06 9.7893314e-07 
3.6993722e-08 -1.9229105e-07 5.2381301e-07 
4.4564104e-07 -1.8490748e-06 2.0730825e-07 
7.2086883e-09 4.6384571e-08 2.9770217e-09 
-2.5760309e-09 4.2652069e-08 3.3478140e-09 
-2.3782839e-08 1.7221821e-07 -5.0380876e-08 
-3.6332255e-09 5.1371329e-10 1.2118731e-07 
2.1606008e-08 6.3896657e-08 1.5800663e-07 
4.4166451e-10 1.3404701e-08 1.3692921e-09 
1.1583403e-06 -6.1381747e-06 4.1967334e-07 
-3.4369035e-10 2.7132899e-07 -3.8361961e-08 
2.5009632e-07 -5.6045685e-08 3.6014100e-07 
-2.7751716e-08 2.4326044e-07 -9.2116563e-09 
2.8066255e-08 9.4550224e-08 3.4311768e-08 
2.1469833e-07 -1.5210152e-05 1.1797976e-06 
-3.7107699e-09 4.9270206e-08 2.3156761e-09 