# vtk DataFile Version 4.0
vtk output
ASCII
DATASET UNSTRUCTURED_GRID
POINTS 460 float
0.0000000e+00 0.0000000e+00 0.0000000e+00 
5.0000000e+00 0.0000000e+00 0.0000000e+00 
5.0000000e+00 3.0000000e+00 0.0000000e+00 
0.0000000e+00 3.0000000e+00 0.0000000e+00 
0.0000000e+00 0.0000000e+00 1.0000000e+01 
5.0000000e+00 0.0000000e+00 1.0000000e+01 
5.0000000e+00 3.0000000e+00 1.0000000e+01 
0.0000000e+00 3.0000000e+00 1.0000000e+01 
1.0000000e+00 3.0000000e+00 -5.0000000e+00 
1.0000000e+00 3.0000000e+00 -4.5000000e+00 
1.0000000e+00 3.0000000e+00 -4.0000000e+00 
1.0000000e+00 3.0000000e+00 -3.5000000e+00 
1.0000000e+00 3.0000000e+00 -3.0000000e+00 
1.0000000e+00 3.0000000e+00 -2.5000000e+00 
1.0000000e+00 3.0000000e+00 -2.0000000e+00 
1.0000000e+00 3.0000000e+00 -1.5000000e+00 
1.0000000e+00 3.0000000e+00 -1.0000000e+00 
1.0000000e+00 3.0000000e+00 -5.0000000e-01 
1.0000000e+00 3.0000000e+00 0.0000000e+00 
1.0000000e+00 3.0000000e+00 5.0000000e-01 
1.0000000e+00 3.0000000e+00 1.0000000e+00 
1.0000000e+00 3.0000000e+00 1.5000000e+00 
1.0000000e+00 3.0000000e+00 2.0000000e+00 
1.0000000e+00 3.0000000e+00 2.5000000e+00 
1.0000000e+00 3.0000000e+00 3.0000000e+00 
1.0000000e+00 3.0000000e+00 3.5000000e+00 
1.0000000e+00 3.0000000e+00 4.0000000e+00 
1.0000000e+00 3.0000000e+00 4.5000000e+00 
1.0000000e+00 3.0000000e+00 5.0000000e+00 
1.0000000e+00 3.0000000e+00 5.5000000e+00 
1.0000000e+00 3.0000000e+00 6.0000000e+00 
1.0000000e+00 3.0000000e+00 6.5000000e+00 
1.0000000e+00 3.0000000e+00 7.0000000e+00 
1.0000000e+00 3.0000000e+00 7.5000000e+00 
1.0000000e+00 3.0000000e+00 8.0000000e+00 
1.0000000e+00 3.0000000e+00 8.5000000e+00 
1.0000000e+00 3.0000000e+00 9.0000000e+00 
1.0000000e+00 3.0000000e+00 9.5000000e+00 
1.0000000e+00 3.0000000e+00 1.0000000e+01 
1.0000000e+00 3.0000000e+00 1.0500000e+01 
1.0000000e+00 3.0000000e+00 1.1000000e+01 
1.0000000e+00 3.0000000e+00 1.1500000e+01 
1.0000000e+00 3.0000000e+00 1.2000000e+01 
1.0000000e+00 3.0000000e+00 1.2500000e+01 
1.0000000e+00 3.0000000e+00 1.3000000e+01 
1.0000000e+00 3.0000000e+00 1.3500000e+01 
1.0000000e+00 3.0000000e+00 1.4000000e+01 
1.0000000e+00 3.0000000e+00 1.4500000e+01 
1.0000000e+00 3.0250001e+00 -5.0000000e+00 
1.0000000e+00 3.0250001e+00 -4.5000000e+00 
1.0000000e+00 3.0250001e+00 -4.0000000e+00 
1.0000000e+00 3.0250001e+00 -3.5000000e+00 
1.0000000e+00 3.0250001e+00 -3.0000000e+00 
1.0000000e+00 3.0250001e+00 -2.5000000e+00 
1.0000000e+00 3.0250001e+00 -2.0000000e+00 
1.0000000e+00 3.0250001e+00 -1.5000000e+00 
1.0000000e+00 3.0250001e+00 -1.0000000e+00 
1.0000000e+00 3.0250001e+00 -5.0000000e-01 
1.0000000e+00 3.0250001e+00 0.0000000e+00 
1.0000000e+00 3.0250001e+00 5.0000000e-01 
1.0000000e+00 3.0250001e+00 1.0000000e+00 
1.0000000e+00 3.0250001e+00 1.5000000e+00 
1.0000000e+00 3.0250001e+00 2.0000000e+00 
1.0000000e+00 3.0250001e+00 2.5000000e+00 
1.0000000e+00 3.0250001e+00 3.0000000e+00 
1.0000000e+00 3.0250001e+00 3.5000000e+00 
1.0000000e+00 3.0250001e+00 4.0000000e+00 
1.0000000e+00 3.0250001e+00 4.5000000e+00 
1.0000000e+00 3.0250001e+00 5.0000000e+00 
1.0000000e+00 3.0250001e+00 5.5000000e+00 
1.0000000e+00 3.0250001e+00 6.0000000e+00 
1.0000000e+00 3.0250001e+00 6.5000000e+00 
1.0000000e+00 3.0250001e+00 7.0000000e+00 
1.0000000e+00 3.0250001e+00 7.5000000e+00 
1.0000000e+00 3.0250001e+00 8.0000000e+00 
1.0000000e+00 3.0250001e+00 8.5000000e+00 
1.0000000e+00 3.0250001e+00 9.0000000e+00 
1.0000000e+00 3.0250001e+00 9.5000000e+00 
1.0000000e+00 3.0250001e+00 1.0000000e+01 
1.0000000e+00 3.0250001e+00 1.0500000e+01 
1.0000000e+00 3.0250001e+00 1.1000000e+01 
1.0000000e+00 3.0250001e+00 1.1500000e+01 
1.0000000e+00 3.0250001e+00 1.2000000e+01 
1.0000000e+00 3.0250001e+00 1.2500000e+01 
1.0000000e+00 3.0250001e+00 1.3000000e+01 
1.0000000e+00 3.0250001e+00 1.3500000e+01 
1.0000000e+00 3.0250001e+00 1.4000000e+01 
1.0000000e+00 3.0250001e+00 1.4500000e+01 
1.0000000e+00 -2.0000000e+00 -5.0000000e+00 
1.0000000e+00 -2.0000000e+00 -4.5000000e+00 
1.0000000e+00 -2.0000000e+00 -4.0000000e+00 
1.0000000e+00 -2.0000000e+00 -3.5000000e+00 
1.0000000e+00 -2.0000000e+00 -3.0000000e+00 
1.0000000e+00 -2.0000000e+00 -2.5000000e+00 
1.0000000e+00 -2.0000000e+00 -2.0000000e+00 
1.0000000e+00 -2.0000000e+00 -1.5000000e+00 
1.0000000e+00 -2.0000000e+00 -1.0000000e+00 
1.0000000e+00 -2.0000000e+00 -5.0000000e-01 
1.0000000e+00 -2.0000000e+00 1.0500000e+01 
1.0000000e+00 -2.0000000e+00 1.1000000e+01 
1.0000000e+00 -2.0000000e+00 1.1500000e+01 
1.0000000e+00 -2.0000000e+00 1.2000000e+01 
1.0000000e+00 -2.0000000e+00 1.2500000e+01 
1.0000000e+00 -2.0000000e+00 1.3000000e+01 
1.0000000e+00 -2.0000000e+00 1.3500000e+01 
1.0000000e+00 -2.0000000e+00 1.4000000e+01 
1.0000000e+00 -2.0000000e+00 1.4500000e+01 
1.0000000e+00 0.0000000e+00 0.0000000e+00 
2.0000000e+00 0.0000000e+00 0.0000000e+00 
3.0000000e+00 0.0000000e+00 0.0000000e+00 
4.0000000e+00 0.0000000e+00 0.0000000e+00 
5.0000000e+00 1.0000000e+00 0.0000000e+00 
5.0000000e+00 2.0000000e+00 0.0000000e+00 
0.0000000e+00 2.0000000e+00 0.0000000e+00 
0.0000000e+00 1.0000000e+00 0.0000000e+00 
0.0000000e+00 0.0000000e+00 1.0000000e+00 
0.0000000e+00 0.0000000e+00 2.0000000e+00 
0.0000000e+00 0.0000000e+00 3.0000000e+00 
0.0000000e+00 0.0000000e+00 4.0000000e+00 
0.0000000e+00 0.0000000e+00 5.0000000e+00 
0.0000000e+00 0.0000000e+00 6.0000000e+00 
0.0000000e+00 0.0000000e+00 7.0000000e+00 
0.0000000e+00 0.0000000e+00 8.0000000e+00 
0.0000000e+00 0.0000000e+00 9.0000000e+00 
5.0000000e+00 0.0000000e+00 1.0000000e+00 
5.0000000e+00 0.0000000e+00 2.0000000e+00 
5.0000000e+00 0.0000000e+00 3.0000000e+00 
5.0000000e+00 0.0000000e+00 4.0000000e+00 
5.0000000e+00 0.0000000e+00 5.0000000e+00 
5.0000000e+00 0.0000000e+00 6.0000000e+00 
5.0000000e+00 0.0000000e+00 7.0000000e+00 
5.0000000e+00 0.0000000e+00 8.0000000e+00 
5.0000000e+00 0.0000000e+00 9.0000000e+00 
1.0000000e+00 0.0000000e+00 1.0000000e+01 
2.0000000e+00 0.0000000e+00 1.0000000e+01 
3.0000000e+00 0.0000000e+00 1.0000000e+01 
4.0000000e+00 0.0000000e+00 1.0000000e+01 
5.0000000e+00 3.0000000e+00 1.0000000e+00 
5.0000000e+00 3.0000000e+00 2.0000000e+00 
5.0000000e+00 3.0000000e+00 3.0000000e+00 
5.0000000e+00 3.0000000e+00 4.0000000e+00 
5.0000000e+00 3.0000000e+00 5.0000000e+00 
5.0000000e+00 3.0000000e+00 6.0000000e+00 
5.0000000e+00 3.0000000e+00 7.0000000e+00 
5.0000000e+00 3.0000000e+00 8.0000000e+00 
5.0000000e+00 3.0000000e+00 9.0000000e+00 
5.0000000e+00 1.0000000e+00 1.0000000e+01 
5.0000000e+00 2.0000000e+00 1.0000000e+01 
0.0000000e+00 3.0000000e+00 1.0000000e+00 
0.0000000e+00 3.0000000e+00 2.0000000e+00 
0.0000000e+00 3.0000000e+00 3.0000000e+00 
0.0000000e+00 3.0000000e+00 4.0000000e+00 
0.0000000e+00 3.0000000e+00 5.0000000e+00 
0.0000000e+00 3.0000000e+00 6.0000000e+00 
0.0000000e+00 3.0000000e+00 7.0000000e+00 
0.0000000e+00 3.0000000e+00 8.0000000e+00 
0.0000000e+00 3.0000000e+00 9.0000000e+00 
0.0000000e+00 2.0000000e+00 1.0000000e+01 
0.0000000e+00 1.0000000e+00 1.0000000e+01 
4.0000000e+00 3.0000000e+00 0.0000000e+00 
3.0000000e+00 3.0000000e+00 0.0000000e+00 
2.0000000e+00 3.0000000e+00 0.0000000e+00 
4.0000000e+00 3.0000000e+00 1.0000000e+01 
3.0000000e+00 3.0000000e+00 1.0000000e+01 
2.0000000e+00 3.0000000e+00 1.0000000e+01 
4.0618000e+00 1.5000000e+00 0.0000000e+00 
1.5046000e+00 7.6549745e-01 0.0000000e+00 
2.5000000e+00 2.1339746e+00 0.0000000e+00 
1.5046000e+00 2.2345026e+00 0.0000000e+00 
2.4957771e+00 8.1560516e-01 0.0000000e+00 
3.4707544e+00 2.2336540e+00 0.0000000e+00 
3.4700506e+00 7.5794268e-01 0.0000000e+00 
8.6322361e-01 1.5000000e+00 0.0000000e+00 
2.0000000e+00 1.5000000e+00 0.0000000e+00 
2.9960666e+00 1.4974480e+00 0.0000000e+00 
4.2679491e+00 7.3205084e-01 0.0000000e+00 
4.2679491e+00 2.2679491e+00 0.0000000e+00 
7.2695929e-01 2.2730408e+00 0.0000000e+00 
7.2695929e-01 7.2695929e-01 0.0000000e+00 
4.1822505e+00 0.0000000e+00 2.5515697e+00 
4.2017918e+00 0.0000000e+00 4.4725966e+00 
4.1114569e+00 0.0000000e+00 6.5092020e+00 
8.6602539e-01 0.0000000e+00 3.5000000e+00 
8.4778279e-01 0.0000000e+00 5.4684029e+00 
8.9629614e-01 0.0000000e+00 7.5867257e+00 
2.5566745e+00 0.0000000e+00 8.1853306e-01 
2.4918270e+00 0.0000000e+00 9.1386929e+00 
8.4677207e-01 0.0000000e+00 1.5042374e+00 
4.0943027e+00 0.0000000e+00 8.4081745e+00 
8.6281651e-01 0.0000000e+00 2.5007062e+00 
1.7315160e+00 0.0000000e+00 3.0001178e+00 
1.7319617e+00 0.0000000e+00 4.0000196e+00 
2.5980761e+00 0.0000000e+00 3.5000000e+00 
2.5536871e+00 0.0000000e+00 4.4963923e+00 
2.5928419e+00 0.0000000e+00 2.4239938e+00 
1.5037409e+00 0.0000000e+00 9.1535149e+00 
1.8433737e+00 0.0000000e+00 8.1858873e+00 
3.0000000e+00 0.0000000e+00 8.2679491e+00 
2.5000000e+00 0.0000000e+00 7.4019237e+00 
3.5042722e+00 0.0000000e+00 7.4271150e+00 
3.0310018e+00 0.0000000e+00 6.5282087e+00 
2.0373929e+00 0.0000000e+00 6.5307913e+00 
3.4767809e+00 0.0000000e+00 5.8031492e+00 
2.5452602e+00 0.0000000e+00 5.5720768e+00 
1.6456656e+00 0.0000000e+00 1.9697139e+00 
8.6297011e-01 0.0000000e+00 4.4947371e+00 
1.0111579e+00 0.0000000e+00 6.5282545e+00 
3.4994321e+00 0.0000000e+00 8.4691072e-01 
4.1860156e+00 0.0000000e+00 3.5040276e+00 
1.7320508e+00 0.0000000e+00 5.0000000e+00 
4.0544066e+00 0.0000000e+00 1.5781221e+00 
1.5817389e+00 0.0000000e+00 9.3943578e-01 
8.3166349e-01 0.0000000e+00 8.5090933e+00 
3.4686174e+00 0.0000000e+00 9.1752682e+00 
3.0709300e+00 0.0000000e+00 1.5799091e+00 
3.3927374e+00 0.0000000e+00 3.0399952e+00 
3.3826034e+00 0.0000000e+00 3.9747651e+00 
4.3420062e+00 0.0000000e+00 7.4688983e+00 
3.4023225e+00 0.0000000e+00 4.9314723e+00 
1.6740381e+00 0.0000000e+00 7.3014426e+00 
4.2715640e+00 0.0000000e+00 5.4758859e+00 
1.6225953e+00 0.0000000e+00 5.8104177e+00 
4.2679491e+00 0.0000000e+00 9.2679491e+00 
7.3205084e-01 0.0000000e+00 7.3205084e-01 
4.2679491e+00 0.0000000e+00 7.3205084e-01 
7.3205084e-01 0.0000000e+00 9.2679491e+00 
3.4586334e+00 0.0000000e+00 2.2347178e+00 
2.2895701e+00 0.0000000e+00 1.5463171e+00 
5.0000000e+00 2.2345026e+00 1.5046000e+00 
[...]
POINT_DATA 460
FIELD FieldData 5
DISPLACEMENT 3 460  float
0.0000000e+00 0.0000000e+00 0.0000000e+00 
0.0000000e+00 0.0000000e+00 0.0000000e+00 
0.0000000e+00 1.8680257e-09 0.0000000e+00 
0.0000000e+00 3.1152030e-09 0.0000000e+00 
0.0000000e+00 0.0000000e+00 0.0000000e+00 
0.0000000e+00 0.0000000e+00 0.0000000e+00 
0.0000000e+00 2.7406952e-07 0.0000000e+00 
0.0000000e+00 4.0646992e-06 0.0000000e+00 
0.0000000e+00 5.8635110e-09 0.0000000e+00 
0.0000000e+00 5.9152727e-09 0.0000000e+00 
0.0000000e+00 6.0835017e-09 0.0000000e+00 
0.0000000e+00 6.3585084e-09 0.0000000e+00 
0.0000000e+00 6.7083286e-09 0.0000000e+00 
0.0000000e+00 7.0765851e-09 0.0000000e+00 
0.0000000e+00 7.3688624e-09 0.0000000e+00 
0.0000000e+00 7.4496547e-09 0.0000000e+00 
0.0000000e+00 7.1534734e-09 0.0000000e+00 
0.0000000e+00 6.3089813e-09 0.0000000e+00 
0.0000000e+00 4.7223709e-09 0.0000000e+00 
1.4229273e-10 2.4017655e-09 1.7662054e-09 
-9.0051883e-11 -1.6624147e-09 3.9974810e-09 
-2.5978758e-10 -7.5998070e-09 4.3977542e-09 
-7.0550510e-10 -1.5329537e-08 3.6335841e-09 
-6.9554534e-10 -2.2832877e-08 -2.0196445e-09 
-8.1878954e-10 -2.6251769e-08 -1.2042253e-08 
-4.3845594e-10 -1.9608468e-08 -2.8202500e-08 
8.9178451e-09 3.1742340e-09 -6.0138056e-08 
1.4215625e-08 4.7285493e-08 -9.4074913e-08 
3.3806202e-08 1.1086981e-07 -1.5467288e-07 
6.0744121e-08 1.9074999e-07 -2.1325894e-07 
7.2524799e-08 2.9468001e-07 -2.7532661e-07 
1.4346254e-07 4.7208709e-07 -3.9016962e-07 
1.7066633e-07 8.9626269e-07 -5.2929687e-07 
1.9853952e-07 1.9410190e-06 -5.6846505e-07 
2.0669233e-07 4.1403300e-06 -5.7065563e-07 
8.4795118e-08 7.8596368e-06 -1.3507989e-06 
6.6842927e-07 1.2055826e-05 -8.1356399e-07 
4.6177977e-08 1.3041200e-05 -1.4004002e-06 
0.0000000e+00 1.0483221e-06 0.0000000e+00 
0.0000000e+00 -4.3910743e-05 0.0000000e+00 
0.0000000e+00 -1.3782689e-04 0.0000000e+00 
0.0000000e+00 -2.8680373e-04 0.0000000e+00 
0.0000000e+00 -4.7377375e-04 0.0000000e+00 
0.0000000e+00 -6.3870364e-04 0.0000000e+00 
0.0000000e+00 -6.8116572e-04 0.0000000e+00 
0.0000000e+00 -5.6178024e-04 0.0000000e+00 
0.0000000e+00 -3.6187563e-04 0.0000000e+00 
0.0000000e+00 -1.4128850e-04 0.0000000e+00 
0.0000000e+00 6.0015699e-09 0.0000000e+00 
0.0000000e+00 6.0158873e-09 0.0000000e+00 
0.0000000e+00 6.1034773e-09 0.0000000e+00 
0.0000000e+00 6.3462871e-09 0.0000000e+00 
0.0000000e+00 6.7073591e-09 0.0000000e+00 
0.0000000e+00 7.0857857e-09 0.0000000e+00 
0.0000000e+00 7.3769897e-09 0.0000000e+00 
0.0000000e+00 7.4543047e-09 0.0000000e+00 
0.0000000e+00 7.1562583e-09 0.0000000e+00 
0.0000000e+00 6.3098775e-09 0.0000000e+00 
0.0000000e+00 4.7779185e-09 0.0000000e+00 
0.0000000e+00 2.3402769e-09 0.0000000e+00 
0.0000000e+00 -1.6989710e-09 0.0000000e+00 
0.0000000e+00 -7.6890565e-09 0.0000000e+00 
0.0000000e+00 -1.5390995e-08 0.0000000e+00 
0.0000000e+00 -2.2853257e-08 0.0000000e+00 
0.0000000e+00 -2.6149404e-08 0.0000000e+00 
0.0000000e+00 -1.9438762e-08 0.0000000e+00 
0.0000000e+00 3.6256709e-09 0.0000000e+00 
0.0000000e+00 4.7527944e-08 0.0000000e+00 
0.0000000e+00 1.1086713e-07 0.0000000e+00 
0.0000000e+00 1.8987781e-07 0.0000000e+00 
0.0000000e+00 2.9023320e-07 0.0000000e+00 
0.0000000e+00 4.6377770e-07 0.0000000e+00 
0.0000000e+00 8.8593725e-07 0.0000000e+00 
0.0000000e+00 1.9361539e-06 0.0000000e+00 
0.0000000e+00 4.1696740e-06 0.0000000e+00 
0.0000000e+00 7.9148540e-06 0.0000000e+00 
0.0000000e+00 1.2244434e-05 0.0000000e+00 
0.0000000e+00 1.3445727e-05 0.0000000e+00 
0.0000000e+00 1.0723139e-06 0.0000000e+00 
0.0000000e+00 -4.4115481e-05 0.0000000e+00 
0.0000000e+00 -1.3842883e-04 0.0000000e+00 
0.0000000e+00 -2.8802027e-04 0.0000000e+00 
0.0000000e+00 -4.7574978e-04 0.0000000e+00 
0.0000000e+00 -6.4133963e-04 0.0000000e+00 
0.0000000e+00 -6.8395998e-04 0.0000000e+00 
0.0000000e+00 -5.6408928e-04 0.0000000e+00 
0.0000000e+00 -3.6338263e-04 0.0000000e+00 
0.0000000e+00 -1.4191266e-04 0.0000000e+00 
0.0000000e+00 0.0000000e+00 0.0000000e+00 
0.0000000e+00 0.0000000e+00 0.0000000e+00 
0.0000000e+00 0.0000000e+00 0.0000000e+00 
0.0000000e+00 0.0000000e+00 0.0000000e+00 
0.0000000e+00 0.0000000e+00 0.0000000e+00 
0.0000000e+00 0.0000000e+00 0.0000000e+00 
0.0000000e+00 0.0000000e+00 0.0000000e+00 
0.0000000e+00 0.0000000e+00 0.0000000e+00 
0.0000000e+00 0.0000000e+00 0.0000000e+00 
0.0000000e+00 0.0000000e+00 0.0000000e+00 
0.0000000e+00 0.0000000e+00 0.0000000e+00 
0.0000000e+00 0.0000000e+00 0.0000000e+00 
0.0000000e+00 0.0000000e+00 0.0000000e+00 
0.0000000e+00 0.0000000e+00 0.0000000e+00 
0.0000000e+00 0.0000000e+00 0.0000000e+00 
0.0000000e+00 0.0000000e+00 0.0000000e+00 
0.0000000e+00 0.0000000e+00 0.0000000e+00 
0.0000000e+00 0.0000000e+00 0.0000000e+00 
0.0000000e+00 0.0000000e+00 0.0000000e+00 
0.0000000e+00 0.0000000e+00 0.0000000e+00 
0.0000000e+00 0.0000000e+00 0.0000000e+00 
0.0000000e+00 0.0000000e+00 0.0000000e+00 
0.0000000e+00 0.0000000e+00 0.0000000e+00 
0.0000000e+00 9.7343322e-10 0.0000000e+00 
0.0000000e+00 1.6331626e-09 0.0000000e+00 
0.0000000e+00 2.4959210e-09 0.0000000e+00 
0.0000000e+00 1.4663655e-09 0.0000000e+00 
0.0000000e+00 0.0000000e+00 0.0000000e+00 
0.0000000e+00 0.0000000e+00 0.0000000e+00 
0.0000000e+00 0.0000000e+00 0.0000000e+00 
0.0000000e+00 0.0000000e+00 0.0000000e+00 
0.0000000e+00 0.0000000e+00 0.0000000e+00 
0.0000000e+00 0.0000000e+00 0.0000000e+00 
0.0000000e+00 0.0000000e+00 0.0000000e+00 
0.0000000e+00 0.0000000e+00 0.0000000e+00 
0.0000000e+00 0.0000000e+00 0.0000000e+00 
0.0000000e+00 0.0000000e+00 0.0000000e+00 
0.0000000e+00 0.0000000e+00 0.0000000e+00 
0.0000000e+00 0.0000000e+00 0.0000000e+00 
0.0000000e+00 0.0000000e+00 0.0000000e+00 
0.0000000e+00 0.0000000e+00 0.0000000e+00 
0.0000000e+00 0.0000000e+00 0.0000000e+00 
0.0000000e+00 0.0000000e+00 0.0000000e+00 
0.0000000e+00 0.0000000e+00 0.0000000e+00 
0.0000000e+00 0.0000000e+00 0.0000000e+00 
0.0000000e+00 0.0000000e+00 0.0000000e+00 
0.0000000e+00 0.0000000e+00 0.0000000e+00 
0.0000000e+00 0.0000000e+00 0.0000000e+00 
0.0000000e+00 0.0000000e+00 0.0000000e+00 
0.0000000e+00 6.4877703e-10 0.0000000e+00 
0.0000000e+00 -4.8004298e-09 0.0000000e+00 
0.0000000e+00 -1.6076731e-08 0.0000000e+00 
0.0000000e+00 -3.1890270e-08 0.0000000e+00 
0.0000000e+00 -2.4481311e-08 0.0000000e+00 
0.0000000e+00 1.9521451e-09 0.0000000e+00 
0.0000000e+00 1.0051559e-07 0.0000000e+00 
0.0000000e+00 1.5997654e-07 0.0000000e+00 
0.0000000e+00 2.6277971e-07 0.0000000e+00 
0.0000000e+00 1.4975943e-07 0.0000000e+00 
0.0000000e+00 2.4062257e-07 0.0000000e+00 
0.0000000e+00 -1.0368647e-09 0.0000000e+00 
0.0000000e+00 -1.3084048e-08 0.0000000e+00 
0.0000000e+00 -2.0645045e-08 0.0000000e+00 
0.0000000e+00 1.3290726e-08 0.0000000e+00 
0.0000000e+00 1.4634274e-07 0.0000000e+00 
0.0000000e+00 4.4436504e-07 0.0000000e+00 
0.0000000e+00 1.1914707e-06 0.0000000e+00 
0.0000000e+00 2.5791844e-06 0.0000000e+00 
0.0000000e+00 4.4027420e-06 0.0000000e+00 
0.0000000e+00 2.8927111e-06 0.0000000e+00 
0.0000000e+00 1.3104534e-06 0.0000000e+00 
0.0000000e+00 2.1027884e-09 0.0000000e+00 
0.0000000e+00 1.9536301e-09 0.0000000e+00 
0.0000000e+00 2.2112636e-09 0.0000000e+00 
0.0000000e+00 3.9188413e-07 0.0000000e+00 
0.0000000e+00 8.8022477e-07 0.0000000e+00 
0.0000000e+00 2.3342388e-06 0.0000000e+00 
0.0000000e+00 1.9481650e-09 0.0000000e+00 
0.0000000e+00 1.2105216e-09 0.0000000e+00 
0.0000000e+00 3.1014884e-09 0.0000000e+00 
0.0000000e+00 3.6301675e-09 0.0000000e+00 
0.0000000e+00 1.5032419e-09 0.0000000e+00 
0.0000000e+00 2.7808007e-09 0.0000000e+00 
0.0000000e+00 7.7970219e-10 0.0000000e+00 
0.0000000e+00 2.7053511e-09 0.0000000e+00 
0.0000000e+00 2.6230587e-09 0.0000000e+00 
0.0000000e+00 2.2914468e-09 0.0000000e+00 
0.0000000e+00 1.1488646e-09 0.0000000e+00 
0.0000000e+00 2.2567552e-09 0.0000000e+00 
0.0000000e+00 3.5855450e-09 0.0000000e+00 
0.0000000e+00 1.4780269e-09 0.0000000e+00 
0.0000000e+00 0.0000000e+00 0.0000000e+00 
0.0000000e+00 0.0000000e+00 0.0000000e+00 
0.0000000e+00 0.0000000e+00 0.0000000e+00 
0.0000000e+00 0.0000000e+00 0.0000000e+00 
0.0000000e+00 0.0000000e+00 0.0000000e+00 
0.0000000e+00 0.0000000e+00 0.0000000e+00 
0.0000000e+00 0.0000000e+00 0.0000000e+00 
0.0000000e+00 0.0000000e+00 0.0000000e+00 
0.0000000e+00 0.0000000e+00 0.0000000e+00 
0.0000000e+00 0.0000000e+00 0.0000000e+00 
0.0000000e+00 0.0000000e+00 0.0000000e+00 
0.0000000e+00 0.0000000e+00 0.0000000e+00 
0.0000000e+00 0.0000000e+00 0.0000000e+00 
0.0000000e+00 0.0000000e+00 0.0000000e+00 
0.0000000e+00 0.0000000e+00 0.0000000e+00 
0.0000000e+00 0.0000000e+00 0.0000000e+00 
0.0000000e+00 0.0000000e+00 0.0000000e+00 
0.0000000e+00 0.0000000e+00 0.0000000e+00 
0.0000000e+00 0.0000000e+00 0.0000000e+00 
0.0000000e+00 0.0000000e+00 0.0000000e+00 
0.0000000e+00 0.0000000e+00 0.0000000e+00 
0.0000000e+00 0.0000000e+00 0.0000000e+00 
0.0000000e+00 0.0000000e+00 0.0000000e+00 
0.0000000e+00 0.0000000e+00 0.0000000e+00 
0.0000000e+00 0.0000000e+00 0.0000000e+00 
0.0000000e+00 0.0000000e+00 0.0000000e+00 
0.0000000e+00 0.0000000e+00 0.0000000e+00 
0.0000000e+00 0.0000000e+00 0.0000000e+00 
0.0000000e+00 0.0000000e+00 0.0000000e+00 
0.0000000e+00 0.0000000e+00 0.0000000e+00 
0.0000000e+00 0.0000000e+00 0.0000000e+00 
0.0000000e+00 0.0000000e+00 0.0000000e+00 
0.0000000e+00 0.0000000e+00 0.0000000e+00 
0.0000000e+00 0.0000000e+00 0.0000000e+00 
0.0000000e+00 0.0000000e+00 0.0000000e+00 
0.0000000e+00 0.0000000e+00 0.0000000e+00 
0.0000000e+00 0.0000000e+00 0.0000000e+00 
0.0000000e+00 0.0000000e+00 0.0000000e+00 
0.0000000e+00 0.0000000e+00 0.0000000e+00 
0.0000000e+00 0.0000000e+00 0.0000000e+00 
0.0000000e+00 0.0000000e+00 0.0000000e+00 
0.0000000e+00 0.0000000e+00 0.0000000e+00 
0.0000000e+00 0.0000000e+00 0.0000000e+00 
0.0000000e+00 0.0000000e+00 0.0000000e+00 
0.0000000e+00 0.0000000e+00 0.0000000e+00 
0.0000000e+00 0.0000000e+00 0.0000000e+00 
0.0000000e+00 0.0000000e+00 0.0000000e+00 
0.0000000e+00 0.0000000e+00 0.0000000e+00 
0.0000000e+00 0.0000000e+00 0.0000000e+00 
0.0000000e+00 -1.0977785e-09 0.0000000e+00 
0.0000000e+00 1.8205832e-07 0.0000000e+00 
0.0000000e+00 -2.3062334e-08 0.0000000e+00 
0.0000000e+00 -1.9517982e-08 0.0000000e+00 
0.0000000e+00 1.0926836e-07 0.0000000e+00 
0.0000000e+00 -3.8713739e-09 0.0000000e+00 
0.0000000e+00 -1.1388378e-08 0.0000000e+00 
0.0000000e+00 2.5584098e-08 0.0000000e+00 
0.0000000e+00 -1.0421075e-08 0.0000000e+00 
0.0000000e+00 -8.5724956e-09 0.0000000e+00 
0.0000000e+00 -8.6174001e-09 0.0000000e+00 
0.0000000e+00 -3.2574050e-08 0.0000000e+00 
0.0000000e+00 1.8779756e-08 0.0000000e+00 
0.0000000e+00 6.9909056e-08 0.0000000e+00 
0.0000000e+00 -6.7235650e-10 0.0000000e+00 
0.0000000e+00 9.7480559e-08 0.0000000e+00 
0.0000000e+00 1.6215384e-07 0.0000000e+00 
0.0000000e+00 7.1637374e-10 0.0000000e+00 
0.0000000e+00 -1.9483384e-08 0.0000000e+00 
0.0000000e+00 5.2971536e-08 0.0000000e+00 
0.0000000e+00 -2.9276679e-09 0.0000000e+00 
0.0000000e+00 -3.4621557e-09 0.0000000e+00 
0.0000000e+00 -2.2776058e-08 0.0000000e+00 
0.0000000e+00 -1.1897888e-08 0.0000000e+00 
0.0000000e+00 1.1129526e-07 0.0000000e+00 
0.0000000e+00 2.2307717e-07 0.0000000e+00 
0.0000000e+00 9.9360811e-08 0.0000000e+00 
0.0000000e+00 1.1607938e-09 0.0000000e+00 
0.0000000e+00 4.6214788e-10 0.0000000e+00 
0.0000000e+00 2.2768415e-06 0.0000000e+00 
0.0000000e+00 -4.6678889e-10 0.0000000e+00 
0.0000000e+00 -7.5543714e-09 0.0000000e+00 
0.0000000e+00 3.0103632e-08 0.0000000e+00 
0.0000000e+00 6.7226904e-07 0.0000000e+00 
0.0000000e+00 -1.2646019e-08 0.0000000e+00 
0.0000000e+00 2.6039166e-07 0.0000000e+00 
0.0000000e+00 1.5539463e-06 0.0000000e+00 
0.0000000e+00 -4.4438959e-09 0.0000000e+00 
0.0000000e+00 -1.7659433e-08 0.0000000e+00 
0.0000000e+00 5.9480396e-08 0.0000000e+00 
0.0000000e+00 6.9516750e-07 0.0000000e+00 
0.0000000e+00 3.8538786e-07 0.0000000e+00 
0.0000000e+00 3.2492717e-06 0.0000000e+00 
0.0000000e+00 -6.2222147e-09 0.0000000e+00 
0.0000000e+00 -2.8323546e-09 0.0000000e+00 
0.0000000e+00 9.1608524e-07 0.0000000e+00 
0.0000000e+00 1.0651307e-07 0.0000000e+00 
0.0000000e+00 3.0942832e-07 0.0000000e+00 
0.0000000e+00 1.5267258e-08 0.0000000e+00 
0.0000000e+00 -1.4285275e-08 0.0000000e+00 
0.0000000e+00 8.1019249e-07 0.0000000e+00 
0.0000000e+00 1.1013399e-07 0.0000000e+00 
0.0000000e+00 1.6914819e-06 0.0000000e+00 
0.0000000e+00 -9.3504644e-09 0.0000000e+00 
0.0000000e+00 1.0093820e-06 0.0000000e+00 
0.0000000e+00 8.6669116e-10 0.0000000e+00 
0.0000000e+00 -8.3860627e-11 0.0000000e+00 
0.0000000e+00 3.6680808e-06 0.0000000e+00 
0.0000000e+00 7.6678202e-07 0.0000000e+00 
0.0000000e+00 2.5964300e-07 0.0000000e+00 
0.0000000e+00 1.2302604e-06 0.0000000e+00 
0.0000000e+00 2.7125486e-06 0.0000000e+00 
0.0000000e+00 4.6796612e-07 0.0000000e+00 
0.0000000e+00 5.0425166e-07 0.0000000e+00 
0.0000000e+00 2.3144192e-07 0.0000000e+00 
0.0000000e+00 1.9939635e-06 0.0000000e+00 
0.0000000e+00 1.2461344e-06 0.0000000e+00 
0.0000000e+00 6.1376380e-07 0.0000000e+00 
0.0000000e+00 1.3974774e-07 0.0000000e+00 
0.0000000e+00 2.9866857e-07 0.0000000e+00 
0.0000000e+00 3.5709868e-06 0.0000000e+00 
0.0000000e+00 8.8706793e-07 0.0000000e+00 
2.7177038e-08 4.6639343e-08 -1.1904027e-07 
1.2492598e-07 4.4258309e-07 -3.0767799e-07 
3.2291436e-07 2.0889074e-06 -5.2576297e-07 
-7.0774769e-10 -1.4875777e-08 -1.2972690e-10 
2.4536575e-09 -2.6028490e-08 -2.3765722e-08 
4.2646967e-08 9.5740671e-10 -5.1737082e-08 
1.7354750e-09 -1.1777525e-08 6.3463718e-10 
1.0339861e-07 1.6042833e-07 -8.7416609e-08 
-3.2129294e-10 -3.3113350e-09 4.1289332e-09 
5.1697418e-07 5.1325987e-06 -5.2183384e-07 
-6.9422623e-10 6.4736400e-10 2.9618115e-09 
2.5541735e-07 6.1526640e-07 -2.1110901e-08 
8.8890495e-08 8.0617212e-08 -7.7888110e-08 
1.7362977e-07 2.7041386e-07 -1.7713488e-07 
3.0945958e-07 4.0986180e-07 -2.0468231e-07 
2.4778802e-07 5.5658973e-07 -1.8775357e-07 
1.7061917e-07 3.4228458e-07 -1.8568366e-07 
4.3071475e-07 1.0399892e-06 -2.1319021e-07 
2.5799187e-07 7.2583572e-07 -3.8043243e-07 
1.1703721e-07 1.2845524e-07 -1.5188411e-07 
6.1415427e-08 3.0658988e-08 -8.9240693e-08 
8.8598149e-08 1.1411344e-07 -1.4096135e-07 
4.8697775e-08 2.4456046e-08 -1.0577099e-07 
2.8311174e-08 -2.3316039e-08 -4.9449113e-08 
2.2788100e-08 -2.1125368e-08 -5.1904291e-08 
1.4027093e-08 -2.4062922e-08 -2.0076403e-08 
6.0599552e-09 -2.4347409e-08 -2.1615767e-08 
4.0165014e-09 -2.0359595e-08 -6.0426841e-09 
3.0690910e-09 -1.8296845e-08 -6.5926056e-09 
1.2514932e-09 -1.0452366e-08 1.7207055e-09 
-5.2928539e-10 -8.0497902e-09 2.6543048e-09 
7.1101368e-08 1.1501258e-07 -1.8481380e-07 
1.0995770e-07 2.4485314e-07 -2.1203508e-07 
1.3137792e-08 -1.8465768e-08 -4.0608853e-08 
6.8145489e-09 -2.5830598e-08 -5.0021973e-09 
3.4883161e-07 1.3534886e-06 -6.2764506e-08 
2.6466823e-08 4.3358597e-09 -8.2154862e-08 
2.4705246e-08 -3.4514901e-08 -3.2909174e-08 
-5.8051125e-10 2.3569718e-10 3.1353558e-09 
1.7651685e-07 3.0874455e-07 -5.2587531e-08 
4.3888028e-07 1.1748747e-06 -4.4823091e-07 
5.0677983e-07 1.8703943e-06 -3.9115710e-07 
8.3553083e-08 2.2920402e-07 -2.2351431e-07 
-4.8253967e-10 -1.9083899e-09 2.2095785e-09 
8.6407652e-11 -2.2321961e-08 -7.8152587e-09 
3.0161473e-09 -2.5014852e-08 -1.4949215e-08 
8.5595895e-09 -1.3267887e-08 -4.8634966e-08 
2.2195609e-08 5.2282170e-09 -8.8390593e-08 
1.9446230e-07 7.4020164e-07 -3.7220425e-07 
3.0925605e-07 1.3397466e-06 -4.9858187e-07 
-6.0258187e-11 1.5353425e-09 2.7740745e-09 
-1.0022004e-09 -9.2793808e-09 3.7084122e-09 
6.3379565e-07 6.0026864e-06 -2.6889504e-07 
-4.2952700e-10 -3.9934456e-09 3.8431036e-09 
5.0729126e-10 -1.6322362e-08 -2.2292779e-09 
6.4311456e-07 3.3255283e-06 -6.3044672e-07 
1.8807748e-07 4.5946243e-07 -3.0379891e-07 
-7.7192353e-10 -4.7203104e-09 4.2453956e-09 
4.5023835e-08 1.2995127e-07 -1.6481798e-07 
3.3680996e-07 6.6813919e-07 -1.2424030e-07 
1.2648727e-07 3.4307533e-07 -2.3613257e-08 
-4.1772988e-10 1.2720972e-09 1.4431445e-09 
1.8040907e-08 -2.6540528e-08 -2.3989299e-08 
-6.6918682e-10 -1.0999707e-08 2.8283489e-09 
7.1777043e-07 2.4748947e-06 -3.4064342e-07 
1.3774373e-07 2.3058331e-07 -1.8668895e-07 
1.1856900e-10 -6.4775287e-09 2.2598428e-09 
4.0159094e-09 -1.7714651e-08 -4.0274371e-09 
-3.0450226e-10 -4.1298506e-10 3.2987917e-09 
3.9209681e-08 5.9046052e-08 -1.3036359e-07 
4.1218374e-07 2.9140022e-06 -1.0630874e-07 
-1.1585723e-09 -1.6888361e-08 5.2538862e-10 
-5.2242638e-10 -1.0081126e-08 2.8147251e-09 
-1.8429225e-09 -1.9990580e-08 -4.3609623e-09 
-1.7742647e-09 -2.1139266e-08 -1.0191081e-08 
-2.3402003e-10 -3.6509398e-09 2.9497436e-09 
-1.0666716e-09 -5.3747828e-09 -2.0831353e-08 
4.8335025e-09 3.1997683e-08 -4.3260929e-08 
6.4388281e-09 9.4618073e-08 -6.5042030e-08 
2.2341306e-08 2.0058370e-07 -1.4300885e-07 
4.2557467e-08 3.4408549e-07 -2.2906104e-07 
4.0353314e-08 5.3437338e-07 -2.6505211e-07 
5.9897800e-08 9.0885607e-07 -3.6488055e-07 
9.0313947e-08 1.5273788e-06 -3.8527321e-07 
2.1563051e-07 2.7638541e-06 -3.8475014e-07 
1.6915459e-07 3.7375960e-06 -4.4673814e-07 
2.0832670e-07 5.4481152e-06 -4.7385075e-07 
-1.9979440e-07 6.8619288e-06 -3.9591842e-07 
2.5142916e-10 1.4479498e-09 2.0307809e-09 
2.9857924e-10 -9.1575121e-09 -6.6210687e-10 
-8.7852048e-10 -1.8163409e-08 8.2243110e-09 
-2.5156179e-08 1.1940095e-07 7.3924355e-08 
-1.3634907e-07 5.9963452e-07 2.1088997e-07 
-3.4057300e-07 1.6332117e-06 2.4338820e-07 
1.8884415e-10 -1.2373069e-08 7.5002476e-10 
-8.7166114e-09 -1.8933159e-08 1.6128102e-08 
-6.4063400e-08 1.6790146e-07 8.1872706e-08 
1.4263674e-09 2.0643233e-08 8.5603924e-10 
-3.7657691e-10 -2.1327125e-08 -3.2507697e-09 
3.6913739e-11 -2.8175009e-09 -4.9370619e-10 
-2.0347954e-07 3.8723763e-07 1.2988015e-07 
2.6113992e-10 -1.9066289e-09 -3.6177389e-10 
-2.0429301e-08 4.5802585e-07 6.7836829e-08 
-4.1137604e-08 1.9594966e-06 3.2170311e-07 
2.5101365e-10 -1.6624757e-08 -8.4879686e-09 
-1.1695658e-09 -7.5842079e-09 -4.2427714e-10 
2.5116811e-10 -1.9469253e-08 -3.0901792e-10 
2.6445972e-09 1.3771519e-07 -1.7421312e-08 
-5.3658704e-09 8.8032017e-09 3.7252601e-08 
-3.7619749e-10 -1.2605702e-08 -6.1532124e-10 
-2.5315613e-08 2.9568801e-09 2.7866120e-08 
-4.0403261e-08 4.2084175e-06 5.5642914e-07 
4.1860265e-10 -1.6793773e-09 -8.3525548e-10 
-1.3377269e-07 3.4967687e-07 3.2957320e-08 
-3.2130093e-10 -1.0828917e-08 4.0888426e-09 
-3.2508265e-08 4.2093191e-08 6.5031088e-08 
5.2432469e-10 -6.5344423e-09 5.9668027e-11 
-9.3882202e-10 -1.1945403e-08 8.1748333e-09 
2.2983651e-09 -2.4904187e-08 -5.3047029e-09 
-2.5305532e-08 1.0116950e-07 9.0564694e-09 
-1.1169193e-08 4.4716879e-07 2.7091506e-08 
4.5110746e-09 9.6850124e-07 3.0688224e-08 
9.9206794e-09 1.4984333e-07 -1.4056909e-08 
-2.7292739e-07 6.4815777e-07 7.5465039e-08 
-1.4116425e-07 1.0281179e-06 1.3105378e-07 
4.0614145e-10 -1.1371820e-09 -8.5690882e-10 
-8.1568935e-10 -2.1952456e-08 1.2792833e-10 
2.4126204e-10 -1.9694173e-09 -1.2250384e-09 
-3.6769773e-08 2.6654862e-07 1.4537584e-07 
3.8850015e-10 -2.4896114e-09 2.0269798e-08 
-3.0624483e-07 1.6085783e-06 8.3404778e-08 
-1.6593192e-07 8.5312882e-07 2.8740391e-07 
3.9890589e-09 -2.2067132e-08 -1.6119300e-08 
7.2006623e-11 -4.1111399e-09 2.1009496e-12 
-5.5459060e-10 1.5615022e-08 -2.6415010e-09 
-1.1835073e-09 -8.2573308e-09 7.6711865e-10 
-1.8808306e-07 4.7836988e-07 1.7224933e-07 
4.1024328e-10 -9.4794483e-09 4.0882864e-10 
-7.0542661e-09 5.8868181e-08 5.6014279e-08 
4.3350673e-10 -7.2722299e-09 -3.4892489e-10 
-9.0998377e-08 1.3801885e-07 6.4300480e-08 
-1.1277755e-07 2.4863382e-06 1.5110335e-07 
2.1743420e-08 3.3665276e-07 -3.7680856e-08 
-9.6079740e-09 1.9106366e-07 6.1651747e-08 
-6.0990800e-08 1.3773145e-07 1.0506346e-07 
-2.1637446e-07 1.4857657e-06 1.1223978e-07 
-1.3587723e-10 7.4075301e-10 2.7140948e-10 
4.5965463e-09 -3.5164952e-08 -5.5722591e-09 
-4.5734549e-09 -1.1784415e-08 6.1732344e-09 
4.2168939e-09 2.4873225e-08 -9.3866444e-09 
-4.8452904e-08 5.9050940e-08 4.3876742e-08 
1.4151845e-10 -1.4335622e-08 -7.4573120e-10 
8.9518132e-08 3.4627503e-06 2.4694342e-07 
-8.3946334e-09 -3.2930287e-09 2.2620487e-08 
-2.9152214e-10 1.8685698e-07 -1.4488291e-08 
4.7172541e-09 4.5186525e-08 -1.9678994e-08 