# vtk DataFile Version 4.0
vtk output
ASCII
DATASET UNSTRUCTURED_GRID
POINTS 460 float
0.0000000e+00 0.0000000e+00 0.0000000e+00 
5.0000000e+00 0.0000000e+00 0.0000000e+00 
5.0000000e+00 3.0000000e+00 0.0000000e+00 
0.0000000e+00 3.0000000e+00 0.0000000e+00 
0.0000000e+00 0.0000000e+00 1.0000000e+01 
5.0000000e+00 0.0000000e+00 1.0000000e+01 
5.0000000e+00 3.0000000e+00 1.0000000e+01 
0.0000000e+00 3.0000000e+00 1.0000000e+01 
1.0000000e+00 3.0000000e+00 -5.0000000e+00 
1.0000000e+00 3.0000000e+00 -4.5000000e+00 
1.0000000e+00 3.0000000e+00 -4.0000000e+00 
1.0000000e+00 3.0000000e+00 -3.5000000e+00 
1.0000000e+00 3.0000000e+00 -3.0000000e+00 
1.0000000e+00 3.0000000e+00 -2.5000000e+00 
1.0000000e+00 3.0000000e+00 -2.0000000e+00 
1.0000000e+00 3.0000000e+00 -1.5000000e+00 
1.0000000e+00 3.0000000e+00 -1.0000000e+00 
1.0000000e+00 3.0000000e+00 -5.0000000e-01 
1.0000000e+00 3.0000000e+00 0.0000000e+00 
1.0000000e+00 3.0000000e+00 5.0000000e-01 
1.0000000e+00 3.0000000e+00 1.0000000e+00 
1.0000000e+00 3.0000000e+00 1.5000000e+00 
1.0000000e+00 3.0000000e+00 2.0000000e+00 
1.0000000e+00 3.0000000e+00 2.5000000e+00 
1.0000000e+00 3.0000000e+00 3.0000000e+00 
1.0000000e+00 3.0000000e+00 3.5000000e+00 
1.0000000e+00 3.0000000e+00 4.0000000e+00 
1.0000000e+00 3.0000000e+00 4.5000000e+00 
1.0000000e+00 3.0000000e+00 5.0000000e+00 
1.0000000e+00 3.0000000e+00 5.5000000e+00 
1.0000000e+00 3.0000000e+00 6.0000000e+00 
1.0000000e+00 3.0000000e+00 6.5000000e+00 
1.0000000e+00 3.0000000e+00 7.0000000e+00 
1.0000000e+00 3.0000000e+00 7.5000000e+00 
1.0000000e+00 3.0000000e+00 8.0000000e+00 
1.0000000e+00 3.0000000e+00 8.5000000e+00 
1.0000000e+00 3.0000000e+00 9.0000000e+00 
1.0000000e+00 3.0000000e+00 9.5000000e+00 
1.0000000e+00 3.0000000e+00 1.0000000e+01 
1.0000000e+00 3.0000000e+00 1.0500000e+01 
1.0000000e+00 3.0000000e+00 1.1000000e+01 
1.0000000e+00 3.0000000e+00 1.1500000e+01 
1.0000000e+00 3.0000000e+00 1.2000000e+01 
1.0000000e+00 3.0000000e+00 1.2500000e+01 
1.0000000e+00 3.0000000e+00 1.3000000e+01 
1.0000000e+00 3.0000000e+00 1.3500000e+01 
1.0000000e+00 3.0000000e+00 1.4000000e+01 
1.0000000e+00 3.0000000e+00 1.4500000e+01 
1.0000000e+00 3.0250001e+00 -5.0000000e+00 
1.0000000e+00 3.0250001e+00 -4.5000000e+00 
1.0000000e+00 3.0250001e+00 -4.0000000e+00 
1.0000000e+00 3.0250001e+00 -3.5000000e+00 
1.0000000e+00 3.0250001e+00 -3.0000000e+00 
1.0000000e+00 3.0250001e+00 -2.5000000e+00 
1.0000000e+00 3.0250001e+00 -2.0000000e+00 
1.0000000e+00 3.0250001e+00 -1.5000000e+00 
1.0000000e+00 3.0250001e+00 -1.0000000e+00 
1.0000000e+00 3.0250001e+00 -5.0000000e-01 
1.0000000e+00 3.0250001e+00 0.0000000e+00 
1.0000000e+00 3.0250001e+00 5.0000000e-01 
1.0000000e+00 3.0250001e+00 1.0000000e+00 
1.0000000e+00 3.0250001e+00 1.5000000e+00 
1.0000000e+00 3.0250001e+00 2.0000000e+00 
1.0000000e+00 3.0250001e+00 2.5000000e+00 
1.0000000e+00 3.0250001e+00 3.0000000e+00 
1.0000000e+00 3.0250001e+00 3.5000000e+00 
1.0000000e+00 3.0250001e+00 4.0000000e+00 
1.0000000e+00 3.0250001e+00 4.5000000e+00 
1.0000000e+00 3.0250001e+00 5.0000000e+00 
1.0000000e+00 3.0250001e+00 5.5000000e+00 
1.0000000e+00 3.0250001e+00 6.0000000e+00 
1.0000000e+00 3.0250001e+00 6.5000000e+00 
1.0000000e+00 3.0250001e+00 7.0000000e+00 
1.0000000e+00 3.0250001e+00 7.5000000e+00 
1.0000000e+00 3.0250001e+00 8.0000000e+00 
1.0000000e+00 3.0250001e+00 8.5000000e+00 
1.0000000e+00 3.0250001e+00 9.0000000e+00 
1.0000000e+00 3.0250001e+00 9.5000000e+00 
1.0000000e+00 3.0250001e+00 1.0000000e+01 
1.0000000e+00 3.0250001e+00 1.0500000e+01 
1.0000000e+00 3.0250001e+00 1.1000000e+01 
1.0000000e+00 3.0250001e+00 1.1500000e+01 
1.0000000e+00 3.0250001e+00 1.2000000e+01 
1.0000000e+00 3.0250001e+00 1.2500000e+01 
1.0000000e+00 3.0250001e+00 1.3000000e+01 
1.0000000e+00 3.0250001e+00 1.3500000e+01 
1.0000000e+00 3.0250001e+00 1.4000000e+01 
1.0000000e+00 3.0250001e+00 1.4500000e+01 
1.0000000e+00 -2.0000000e+00 -5.0000000e+00 
1.0000000e+00 -2.0000000e+00 -4.5000000e+00 
1.0000000e+00 -2.0000000e+00 -4.0000000e+00 
1.0000000e+00 -2.0000000e+00 -3.5000000e+00 
1.0000000e+00 -2.0000000e+00 -3.0000000e+00 
1.0000000e+00 -2.0000000e+00 -2.5000000e+00 
1.0000000e+00 -2.0000000e+00 -2.0000000e+00 
1.0000000e+00 -2.0000000e+00 -1.5000000e+00 
1.0000000e+00 -2.0000000e+00 -1.0000000e+00 
1.0000000e+00 -2.0000000e+00 -5.0000000e-01 
1.0000000e+00 -2.0000000e+00 1.0500000e+01 
1.0000000e+00 -2.0000000e+00 1.1000000e+01 
1.0000000e+00 -2.0000000e+00 1.1500000e+01 
1.0000000e+00 -2.0000000e+00 1.2000000e+01 
1.0000000e+00 -2.0000000e+00 1.2500000e+01 
1.0000000e+00 -2.0000000e+00 1.3000000e+01 
1.0000000e+00 -2.0000000e+00 1.3500000e+01 
1.0000000e+00 -2.0000000e+00 1.4000000e+01 
1.0000000e+00 -2.0000000e+00 1.4500000e+01 
1.0000000e+00 0.0000000e+00 0.0000000e+00 
2.0000000e+00 0.0000000e+00 0.0000000e+00 
3.0000000e+00 0.0000000e+00 0.0000000e+00 
4.0000000e+00 0.0000000e+00 0.0000000e+00 
5.0000000e+00 1.0000000e+00 0.0000000e+00 
5.0000000e+00 2.0000000e+00 0.0000000e+00 
0.0000000e+00 2.0000000e+00 0.0000000e+00 
0.0000000e+00 1.0000000e+00 0.0000000e+00 
0.0000000e+00 0.0000000e+00 1.0000000e+00 
0.0000000e+00 0.0000000e+00 2.0000000e+00 
0.0000000e+00 0.0000000e+00 3.0000000e+00 
0.0000000e+00 0.0000000e+00 4.0000000e+00 
0.0000000e+00 0.0000000e+00 5.0000000e+00 
0.0000000e+00 0.0000000e+00 6.0000000e+00 
0.0000000e+00 0.0000000e+00 7.0000000e+00 
0.0000000e+00 0.0000000e+00 8.0000000e+00 
0.0000000e+00 0.0000000e+00 9.0000000e+00 
5.0000000e+00 0.0000000e+00 1.0000000e+00 
5.0000000e+00 0.0000000e+00 2.0000000e+00 
5.0000000e+00 0.0000000e+00 3.0000000e+00 
5.0000000e+00 0.0000000e+00 4.0000000e+00 
5.0000000e+00 0.0000000e+00 5.0000000e+00 
5.0000000e+00 0.0000000e+00 6.0000000e+00 
5.0000000e+00 0.0000000e+00 7.0000000e+00 
5.0000000e+00 0.0000000e+00 8.0000000e+00 
5.0000000e+00 0.0000000e+00 9.0000000e+00 
1.0000000e+00 0.0000000e+00 1.0000000e+01 
2.0000000e+00 0.0000000e+00 1.0000000e+01 
3.0000000e+00 0.0000000e+00 1.0000000e+01 
4.0000000e+00 0.0000000e+00 1.0000000e+01 
5.0000000e+00 3.0000000e+00 1.0000000e+00 
5.0000000e+00 3.0000000e+00 2.0000000e+00 
5.0000000e+00 3.0000000e+00 3.0000000e+00 
5.0000000e+00 3.0000000e+00 4.0000000e+00 
5.0000000e+00 3.0000000e+00 5.0000000e+00 
5.0000000e+00 3.0000000e+00 6.0000000e+00 
5.0000000e+00 3.0000000e+00 7.0000000e+00 
5.0000000e+00 3.0000000e+00 8.0000000e+00 
5.0000000e+00 3.0000000e+00 9.0000000e+00 
5.0000000e+00 1.0000000e+00 1.0000000e+01 
5.0000000e+00 2.0000000e+00 1.0000000e+01 
0.0000000e+00 3.0000000e+00 1.0000000e+00 
0.0000000e+00 3.0000000e+00 2.0000000e+00 
0.0000000e+00 3.0000000e+00 3.0000000e+00 
0.0000000e+00 3.0000000e+00 4.0000000e+00 
0.0000000e+00 3.0000000e+00 5.0000000e+00 
0.0000000e+00 3.0000000e+00 6.0000000e+00 
0.0000000e+00 3.0000000e+00 7.0000000e+00 
0.0000000e+00 3.0000000e+00 8.0000000e+00 
0.0000000e+00 3.0000000e+00 9.0000000e+00 
0.0000000e+00 2.0000000e+00 1.0000000e+01 
0.0000000e+00 1.0000000e+00 1.0000000e+01 
4.0000000e+00 3.0000000e+00 0.0000000e+00 
3.0000000e+00 3.0000000e+00 0.0000000e+00 
2.0000000e+00 3.0000000e+00 0.0000000e+00 
4.0000000e+00 3.0000000e+00 1.0000000e+01 
3.0000000e+00 3.0000000e+00 1.0000000e+01 
2.0000000e+00 3.0000000e+00 1.0000000e+01 
4.0618000e+00 1.5000000e+00 0.0000000e+00 
1.5046000e+00 7.6549745e-01 0.0000000e+00 
2.5000000e+00 2.1339746e+00 0.0000000e+00 
1.5046000e+00 2.2345026e+00 0.0000000e+00 
2.4957771e+00 8.1560516e-01 0.0000000e+00 
3.4707544e+00 2.2336540e+00 0.0000000e+00 
3.4700506e+00 7.5794268e-01 0.0000000e+00 
8.6322361e-01 1.5000000e+00 0.0000000e+00 
2.0000000e+00 1.5000000e+00 0.0000000e+00 
2.9960666e+00 1.4974480e+00 0.0000000e+00 
4.2679491e+00 7.3205084e-01 0.0000000e+00 
4.2679491e+00 2.2679491e+00 0.0000000e+00 
7.2695929e-01 2.2730408e+00 0.0000000e+00 
7.2695929e-01 7.2695929e-01 0.0000000e+00 
4.1822505e+00 0.0000000e+00 2.5515697e+00 
4.2017918e+00 0.0000000e+00 4.4725966e+00 
4.1114569e+00 0.0000000e+00 6.5092020e+00 
8.6602539e-01 0.0000000e+00 3.5000000e+00 
8.4778279e-01 0.0000000e+00 5.4684029e+00 
8.9629614e-01 0.0000000e+00 7.5867257e+00 
2.5566745e+00 0.0000000e+00 8.1853306e-01 
2.4918270e+00 0.0000000e+00 9.1386929e+00 
8.4677207e-01 0.0000000e+00 1.5042374e+00 
4.0943027e+00 0.0000000e+00 8.4081745e+00 
8.6281651e-01 0.0000000e+00 2.5007062e+00 
1.7315160e+00 0.0000000e+00 3.0001178e+00 
1.7319617e+00 0.0000000e+00 4.0000196e+00 
2.5980761e+00 0.0000000e+00 3.5000000e+00 
2.5536871e+00 0.0000000e+00 4.4963923e+00 
2.5928419e+00 0.0000000e+00 2.4239938e+00 
1.5037409e+00 0.0000000e+00 9.1535149e+00 
1.8433737e+00 0.0000000e+00 8.1858873e+00 
3.0000000e+00 0.0000000e+00 8.2679491e+00 
2.5000000e+00 0.0000000e+00 7.4019237e+00 
3.5042722e+00 0.0000000e+00 7.4271150e+00 
3.0310018e+00 0.0000000e+00 6.5282087e+00 
2.0373929e+00 0.0000000e+00 6.5307913e+00 
3.4767809e+00 0.0000000e+00 5.8031492e+00 
2.5452602e+00 0.0000000e+00 5.5720768e+00 
1.6456656e+00 0.0000000e+00 1.9697139e+00 
8.6297011e-01 0.0000000e+00 4.4947371e+00 
1.0111579e+00 0.0000000e+00 6.5282545e+00 
3.4994321e+00 0.0000000e+00 8.4691072e-01 
4.1860156e+00 0.0000000e+00 3.5040276e+00 
1.7320508e+00 0.0000000e+00 5.0000000e+00 
4.0544066e+00 0.0000000e+00 1.5781221e+00 
1.5817389e+00 0.0000000e+00 9.3943578e-01 
8.3166349e-01 0.0000000e+00 8.5090933e+00 
3.4686174e+00 0.0000000e+00 9.1752682e+00 
3.0709300e+00 0.0000000e+00 1.5799091e+00 
3.3927374e+00 0.0000000e+00 3.0399952e+00 
3.3826034e+00 0.0000000e+00 3.9747651e+00 
4.3420062e+00 0.0000000e+00 7.4688983e+00 
3.4023225e+00 0.0000000e+00 4.9314723e+00 
1.6740381e+00 0.0000000e+00 7.3014426e+00 
4.2715640e+00 0.0000000e+00 5.4758859e+00 
1.6225953e+00 0.0000000e+00 5.8104177e+00 
4.2679491e+00 0.0000000e+00 9.2679491e+00 
7.3205084e-01 0.0000000e+00 7.3205084e-01 
4.2679491e+00 0.0000000e+00 7.3205084e-01 
7.3205084e-01 0.0000000e+00 9.2679491e+00 
3.4586334e+00 0.0000000e+00 2.2347178e+00 
2.2895701e+00 0.0000000e+00 1.5463171e+00 
5.0000000e+00 2.2345026e+00 1.5046000e+00 
[...]
POINT_DATA 460
FIELD FieldData 5
DISPLACEMENT 3 460  float
0.0000000e+00 0.0000000e+00 0.0000000e+00 
0.0000000e+00 0.0000000e+00 0.0000000e+00 
0.0000000e+00 2.3849748e-07 0.0000000e+00 
0.0000000e+00 7.0697814e-07 0.0000000e+00 
0.0000000e+00 0.0000000e+00 0.0000000e+00 
0.0000000e+00 0.0000000e+00 0.0000000e+00 
0.0000000e+00 -1.1298109e-06 0.0000000e+00 
0.0000000e+00 -1.6510558e-05 0.0000000e+00 
0.0000000e+00 4.3993073e-06 0.0000000e+00 
0.0000000e+00 5.3458289e-06 0.0000000e+00 
0.0000000e+00 5.9072268e-06 0.0000000e+00 
0.0000000e+00 6.3940679e-06 0.0000000e+00 
0.0000000e+00 5.1523439e-06 0.0000000e+00 
0.0000000e+00 6.2657688e-07 0.0000000e+00 
0.0000000e+00 -3.3447361e-06 0.0000000e+00 
0.0000000e+00 -5.8953760e-06 0.0000000e+00 
0.0000000e+00 -6.0258999e-06 0.0000000e+00 
0.0000000e+00 -3.6149102e-06 0.0000000e+00 
0.0000000e+00 -1.9254549e-06 0.0000000e+00 
1.9835062e-08 6.7671550e-08 4.3894948e-07 
3.1562440e-08 2.9046942e-06 3.5613041e-07 
-1.8970746e-07 5.2959485e-06 9.7410987e-07 
-7.1013835e-07 5.4224370e-06 2.0349942e-06 
-5.8996835e-07 -3.2031662e-06 2.3213913e-06 
-8.1257053e-07 -1.1612261e-05 3.2307121e-06 
-1.4091879e-06 -1.2339317e-05 3.7357706e-06 
-3.3199096e-06 -1.4704933e-05 6.4732972e-06 
-3.7945172e-06 -2.6253896e-05 9.5729974e-06 
-5.3582089e-06 -5.6255656e-05 1.4311306e-05 
-4.8424149e-06 -1.0294958e-04 1.8536912e-05 
-3.1192587e-06 -1.6136690e-04 6.4342453e-06 
1.2012471e-06 -2.2338307e-04 -1.2965219e-06 
7.7051063e-06 -2.3164862e-04 -1.0412922e-05 
-7.0534429e-07 -1.6314993e-04 -8.1366279e-06 
-4.0900318e-06 -9.6882854e-05 -1.2087937e-05 
-2.6857547e-06 -5.7787642e-05 -1.2624912e-05 
-3.6534393e-06 -3.1567026e-05 -8.1461276e-06 
-2.0380517e-06 -1.7014840e-05 -3.5430846e-06 
0.0000000e+00 -1.1308450e-05 0.0000000e+00 
0.0000000e+00 -9.6399626e-06 0.0000000e+00 
0.0000000e+00 -7.3992837e-06 0.0000000e+00 
0.0000000e+00 -4.5499160e-06 0.0000000e+00 
0.0000000e+00 -1.6332450e-06 0.0000000e+00 
0.0000000e+00 2.0754705e-06 0.0000000e+00 
0.0000000e+00 5.5341143e-06 0.0000000e+00 
0.0000000e+00 6.5299341e-06 0.0000000e+00 
0.0000000e+00 6.8649811e-06 0.0000000e+00 
0.0000000e+00 7.0815445e-06 0.0000000e+00 
0.0000000e+00 4.4172352e-06 0.0000000e+00 
0.0000000e+00 5.3677572e-06 0.0000000e+00 
0.0000000e+00 5.9318913e-06 0.0000000e+00 
0.0000000e+00 6.4227565e-06 0.0000000e+00 
0.0000000e+00 5.1777211e-06 0.0000000e+00 
0.0000000e+00 6.3273609e-07 0.0000000e+00 
0.0000000e+00 -3.3557617e-06 0.0000000e+00 
0.0000000e+00 -5.9172521e-06 0.0000000e+00 
0.0000000e+00 -6.0482553e-06 0.0000000e+00 
0.0000000e+00 -3.6275794e-06 0.0000000e+00 
0.0000000e+00 -1.9761992e-06 0.0000000e+00 
0.0000000e+00 8.2113644e-08 0.0000000e+00 
0.0000000e+00 2.9387018e-06 0.0000000e+00 
0.0000000e+00 5.4462748e-06 0.0000000e+00 
0.0000000e+00 5.5758064e-06 0.0000000e+00 
0.0000000e+00 -3.2154858e-06 0.0000000e+00 
0.0000000e+00 -1.1812675e-05 0.0000000e+00 
0.0000000e+00 -1.2393153e-05 0.0000000e+00 
0.0000000e+00 -1.4673870e-05 0.0000000e+00 
0.0000000e+00 -2.6217098e-05 0.0000000e+00 
0.0000000e+00 -5.6534293e-05 0.0000000e+00 
0.0000000e+00 -1.0351051e-04 0.0000000e+00 
0.0000000e+00 -1.6333447e-04 0.0000000e+00 
0.0000000e+00 -2.2679448e-04 0.0000000e+00 
0.0000000e+00 -2.3534511e-04 0.0000000e+00 
0.0000000e+00 -1.6581178e-04 0.0000000e+00 
0.0000000e+00 -9.7919838e-05 0.0000000e+00 
0.0000000e+00 -5.8234637e-05 0.0000000e+00 
0.0000000e+00 -3.1769505e-05 0.0000000e+00 
0.0000000e+00 -1.6991507e-05 0.0000000e+00 
0.0000000e+00 -1.1201189e-05 0.0000000e+00 
0.0000000e+00 -9.6813810e-06 0.0000000e+00 
0.0000000e+00 -7.4302047e-06 0.0000000e+00 
0.0000000e+00 -4.5669613e-06 0.0000000e+00 
0.0000000e+00 -1.6369631e-06 0.0000000e+00 
0.0000000e+00 2.0871939e-06 0.0000000e+00 
0.0000000e+00 5.5591127e-06 0.0000000e+00 
0.0000000e+00 6.5573076e-06 0.0000000e+00 
0.0000000e+00 6.8924919e-06 0.0000000e+00 
0.0000000e+00 7.1095446e-06 0.0000000e+00 
0.0000000e+00 0.0000000e+00 0.0000000e+00 
0.0000000e+00 0.0000000e+00 0.0000000e+00 
0.0000000e+00 0.0000000e+00 0.0000000e+00 
0.0000000e+00 0.0000000e+00 0.0000000e+00 
0.0000000e+00 0.0000000e+00 0.0000000e+00 
0.0000000e+00 0.0000000e+00 0.0000000e+00 
0.0000000e+00 0.0000000e+00 0.0000000e+00 
0.0000000e+00 0.0000000e+00 0.0000000e+00 
0.0000000e+00 0.0000000e+00 0.0000000e+00 
0.0000000e+00 0.0000000e+00 0.0000000e+00 
0.0000000e+00 0.0000000e+00 0.0000000e+00 
0.0000000e+00 0.0000000e+00 0.0000000e+00 
0.0000000e+00 0.0000000e+00 0.0000000e+00 
0.0000000e+00 0.0000000e+00 0.0000000e+00 
0.0000000e+00 0.0000000e+00 0.0000000e+00 
0.0000000e+00 0.0000000e+00 0.0000000e+00 
0.0000000e+00 0.0000000e+00 0.0000000e+00 
0.0000000e+00 0.0000000e+00 0.0000000e+00 
0.0000000e+00 0.0000000e+00 0.0000000e+00 
0.0000000e+00 0.0000000e+00 0.0000000e+00 
0.0000000e+00 0.0000000e+00 0.0000000e+00 
0.0000000e+00 0.0000000e+00 0.0000000e+00 
0.0000000e+00 0.0000000e+00 0.0000000e+00 
0.0000000e+00 1.0420373e-07 0.0000000e+00 
0.0000000e+00 2.0677410e-07 0.0000000e+00 
0.0000000e+00 5.7439394e-07 0.0000000e+00 
0.0000000e+00 3.2057852e-07 0.0000000e+00 
0.0000000e+00 0.0000000e+00 0.0000000e+00 
0.0000000e+00 0.0000000e+00 0.0000000e+00 
0.0000000e+00 0.0000000e+00 0.0000000e+00 
0.0000000e+00 0.0000000e+00 0.0000000e+00 
0.0000000e+00 0.0000000e+00 0.0000000e+00 
0.0000000e+00 0.0000000e+00 0.0000000e+00 
0.0000000e+00 0.0000000e+00 0.0000000e+00 
0.0000000e+00 0.0000000e+00 0.0000000e+00 
0.0000000e+00 0.0000000e+00 0.0000000e+00 
0.0000000e+00 0.0000000e+00 0.0000000e+00 
0.0000000e+00 0.0000000e+00 0.0000000e+00 
0.0000000e+00 0.0000000e+00 0.0000000e+00 
0.0000000e+00 0.0000000e+00 0.0000000e+00 
0.0000000e+00 0.0000000e+00 0.0000000e+00 
0.0000000e+00 0.0000000e+00 0.0000000e+00 
0.0000000e+00 0.0000000e+00 0.0000000e+00 
0.0000000e+00 0.0000000e+00 0.0000000e+00 
0.0000000e+00 0.0000000e+00 0.0000000e+00 
0.0000000e+00 0.0000000e+00 0.0000000e+00 
0.0000000e+00 0.0000000e+00 0.0000000e+00 
0.0000000e+00 0.0000000e+00 0.0000000e+00 
0.0000000e+00 0.0000000e+00 0.0000000e+00 
0.0000000e+00 3.0374159e-07 0.0000000e+00 
0.0000000e+00 4.6254664e-07 0.0000000e+00 
0.0000000e+00 2.8636867e-07 0.0000000e+00 
0.0000000e+00 1.9986207e-07 0.0000000e+00 
0.0000000e+00 -6.9417013e-07 0.0000000e+00 
0.0000000e+00 -3.6564958e-07 0.0000000e+00 
0.0000000e+00 -1.8405447e-06 0.0000000e+00 
0.0000000e+00 -9.2104563e-07 0.0000000e+00 
0.0000000e+00 -1.3602128e-06 0.0000000e+00 
0.0000000e+00 -8.1090570e-07 0.0000000e+00 
0.0000000e+00 -1.0973840e-06 0.0000000e+00 
0.0000000e+00 1.1956022e-06 0.0000000e+00 
0.0000000e+00 -3.6290007e-07 0.0000000e+00 
0.0000000e+00 -7.0811179e-06 0.0000000e+00 
0.0000000e+00 -1.8139654e-05 0.0000000e+00 
0.0000000e+00 -4.4072414e-05 0.0000000e+00 
0.0000000e+00 -8.3622508e-05 0.0000000e+00 
0.0000000e+00 -1.0089484e-04 0.0000000e+00 
0.0000000e+00 -5.8321846e-05 0.0000000e+00 
0.0000000e+00 -2.7111277e-05 0.0000000e+00 
0.0000000e+00 -1.4544991e-05 0.0000000e+00 
0.0000000e+00 -8.0855561e-06 0.0000000e+00 
0.0000000e+00 3.4102811e-07 0.0000000e+00 
0.0000000e+00 4.9360148e-07 0.0000000e+00 
0.0000000e+00 7.0737445e-07 0.0000000e+00 
0.0000000e+00 -2.3125447e-06 0.0000000e+00 
0.0000000e+00 -5.7540092e-06 0.0000000e+00 
0.0000000e+00 -1.0787430e-05 0.0000000e+00 
0.0000000e+00 2.2126005e-07 0.0000000e+00 
0.0000000e+00 1.4659253e-07 0.0000000e+00 
0.0000000e+00 5.0124606e-07 0.0000000e+00 
0.0000000e+00 3.7060067e-07 0.0000000e+00 
0.0000000e+00 1.5622538e-07 0.0000000e+00 
0.0000000e+00 3.9684602e-07 0.0000000e+00 
0.0000000e+00 9.2744038e-08 0.0000000e+00 
0.0000000e+00 3.7513752e-07 0.0000000e+00 
0.0000000e+00 3.4887017e-07 0.0000000e+00 
0.0000000e+00 3.3717680e-07 0.0000000e+00 
0.0000000e+00 1.0157843e-07 0.0000000e+00 
0.0000000e+00 2.7781365e-07 0.0000000e+00 
0.0000000e+00 1.0618206e-07 0.0000000e+00 
0.0000000e+00 1.8192317e-07 0.0000000e+00 
0.0000000e+00 0.0000000e+00 0.0000000e+00 
0.0000000e+00 0.0000000e+00 0.0000000e+00 
0.0000000e+00 0.0000000e+00 0.0000000e+00 
0.0000000e+00 0.0000000e+00 0.0000000e+00 
0.0000000e+00 0.0000000e+00 0.0000000e+00 
0.0000000e+00 0.0000000e+00 0.0000000e+00 
0.0000000e+00 0.0000000e+00 0.0000000e+00 
0.0000000e+00 0.0000000e+00 0.0000000e+00 
0.0000000e+00 0.0000000e+00 0.0000000e+00 
0.0000000e+00 0.0000000e+00 0.0000000e+00 
0.0000000e+00 0.0000000e+00 0.0000000e+00 
0.0000000e+00 0.0000000e+00 0.0000000e+00 
0.0000000e+00 0.0000000e+00 0.0000000e+00 
0.0000000e+00 0.0000000e+00 0.0000000e+00 
0.0000000e+00 0.0000000e+00 0.0000000e+00 
0.0000000e+00 0.0000000e+00 0.0000000e+00 
0.0000000e+00 0.0000000e+00 0.0000000e+00 
0.0000000e+00 0.0000000e+00 0.0000000e+00 
0.0000000e+00 0.0000000e+00 0.0000000e+00 
0.0000000e+00 0.0000000e+00 0.0000000e+00 
0.0000000e+00 0.0000000e+00 0.0000000e+00 
0.0000000e+00 0.0000000e+00 0.0000000e+00 
0.0000000e+00 0.0000000e+00 0.0000000e+00 
0.0000000e+00 0.0000000e+00 0.0000000e+00 
0.0000000e+00 0.0000000e+00 0.0000000e+00 
0.0000000e+00 0.0000000e+00 0.0000000e+00 
0.0000000e+00 0.0000000e+00 0.0000000e+00 
0.0000000e+00 0.0000000e+00 0.0000000e+00 
0.0000000e+00 0.0000000e+00 0.0000000e+00 
0.0000000e+00 0.0000000e+00 0.0000000e+00 
0.0000000e+00 0.0000000e+00 0.0000000e+00 
0.0000000e+00 0.0000000e+00 0.0000000e+00 
0.0000000e+00 0.0000000e+00 0.0000000e+00 
0.0000000e+00 0.0000000e+00 0.0000000e+00 
0.0000000e+00 0.0000000e+00 0.0000000e+00 
0.0000000e+00 0.0000000e+00 0.0000000e+00 
0.0000000e+00 0.0000000e+00 0.0000000e+00 
0.0000000e+00 0.0000000e+00 0.0000000e+00 
0.0000000e+00 0.0000000e+00 0.0000000e+00 
0.0000000e+00 0.0000000e+00 0.0000000e+00 
0.0000000e+00 0.0000000e+00 0.0000000e+00 
0.0000000e+00 0.0000000e+00 0.0000000e+00 
0.0000000e+00 0.0000000e+00 0.0000000e+00 
0.0000000e+00 0.0000000e+00 0.0000000e+00 
0.0000000e+00 0.0000000e+00 0.0000000e+00 
0.0000000e+00 0.0000000e+00 0.0000000e+00 
0.0000000e+00 0.0000000e+00 0.0000000e+00 
0.0000000e+00 0.0000000e+00 0.0000000e+00 
0.0000000e+00 0.0000000e+00 0.0000000e+00 
0.0000000e+00 3.1028887e-07 0.0000000e+00 
0.0000000e+00 -9.9495708e-07 0.0000000e+00 
0.0000000e+00 3.6521752e-07 0.0000000e+00 
0.0000000e+00 -2.4477075e-07 0.0000000e+00 
0.0000000e+00 -7.0267481e-07 0.0000000e+00 
0.0000000e+00 8.5037790e-08 0.0000000e+00 
0.0000000e+00 -2.8198573e-07 0.0000000e+00 
0.0000000e+00 -1.0915556e-06 0.0000000e+00 
0.0000000e+00 -1.4182256e-08 0.0000000e+00 
0.0000000e+00 -4.1342241e-07 0.0000000e+00 
0.0000000e+00 4.5058994e-07 0.0000000e+00 
0.0000000e+00 1.0323613e-07 0.0000000e+00 
0.0000000e+00 -4.1281234e-07 0.0000000e+00 
0.0000000e+00 -1.0292931e-06 0.0000000e+00 
0.0000000e+00 5.1746792e-08 0.0000000e+00 
0.0000000e+00 -7.1621537e-07 0.0000000e+00 
0.0000000e+00 -7.0325387e-07 0.0000000e+00 
0.0000000e+00 1.6580739e-07 0.0000000e+00 
0.0000000e+00 -3.1463216e-07 0.0000000e+00 
0.0000000e+00 -8.9069977e-07 0.0000000e+00 
0.0000000e+00 2.1872502e-07 0.0000000e+00 
0.0000000e+00 -6.0657658e-07 0.0000000e+00 
0.0000000e+00 1.2644593e-07 0.0000000e+00 
0.0000000e+00 1.9588123e-07 0.0000000e+00 
0.0000000e+00 -6.8296680e-07 0.0000000e+00 
0.0000000e+00 -9.0976272e-07 0.0000000e+00 
0.0000000e+00 -6.3915968e-07 0.0000000e+00 
0.0000000e+00 2.3710693e-07 0.0000000e+00 
0.0000000e+00 3.4260388e-08 0.0000000e+00 
0.0000000e+00 -1.7995049e-05 0.0000000e+00 
0.0000000e+00 5.1454225e-07 0.0000000e+00 
0.0000000e+00 -1.3172191e-06 0.0000000e+00 
0.0000000e+00 -1.0471078e-05 0.0000000e+00 
0.0000000e+00 -2.1781074e-05 0.0000000e+00 
0.0000000e+00 -1.0119381e-05 0.0000000e+00 
0.0000000e+00 -5.4750701e-05 0.0000000e+00 
0.0000000e+00 -6.7759225e-05 0.0000000e+00 
0.0000000e+00 -4.4009821e-06 0.0000000e+00 
0.0000000e+00 -3.1778620e-06 0.0000000e+00 
0.0000000e+00 -2.6382017e-05 0.0000000e+00 
0.0000000e+00 -8.1926744e-05 0.0000000e+00 
0.0000000e+00 -4.3929089e-05 0.0000000e+00 
0.0000000e+00 -3.6171750e-05 0.0000000e+00 
0.0000000e+00 6.3719756e-07 0.0000000e+00 
0.0000000e+00 -1.1054242e-07 0.0000000e+00 
0.0000000e+00 -1.4144010e-05 0.0000000e+00 
0.0000000e+00 -2.7285430e-05 0.0000000e+00 
0.0000000e+00 -2.4337842e-05 0.0000000e+00 
0.0000000e+00 -1.2820764e-05 0.0000000e+00 
0.0000000e+00 -4.9165819e-06 0.0000000e+00 
0.0000000e+00 -5.0475290e-05 0.0000000e+00 
0.0000000e+00 -1.8080884e-05 0.0000000e+00 
0.0000000e+00 -3.5497389e-05 0.0000000e+00 
0.0000000e+00 -9.1224149e-07 0.0000000e+00 
0.0000000e+00 -8.7788576e-06 0.0000000e+00 
0.0000000e+00 8.8324094e-07 0.0000000e+00 
0.0000000e+00 2.5889506e-07 0.0000000e+00 
0.0000000e+00 -2.0609086e-05 0.0000000e+00 
0.0000000e+00 -5.2528180e-06 0.0000000e+00 
0.0000000e+00 -1.4312188e-06 0.0000000e+00 
0.0000000e+00 -6.8632676e-06 0.0000000e+00 
0.0000000e+00 -1.0026598e-05 0.0000000e+00 
0.0000000e+00 -3.4192319e-06 0.0000000e+00 
0.0000000e+00 -2.4874212e-06 0.0000000e+00 
0.0000000e+00 -1.4370806e-06 0.0000000e+00 
0.0000000e+00 -9.8072342e-06 0.0000000e+00 
0.0000000e+00 -6.8803247e-06 0.0000000e+00 
0.0000000e+00 -3.6920171e-06 0.0000000e+00 
0.0000000e+00 -8.7757894e-07 0.0000000e+00 
0.0000000e+00 -1.2537571e-06 0.0000000e+00 
0.0000000e+00 -1.2247652e-05 0.0000000e+00 
0.0000000e+00 -5.1492339e-06 0.0000000e+00 
-5.9215754e-06 -2.6417356e-05 9.0656322e-06 
-1.3515879e-05 -8.3389474e-05 5.2072264e-06 
-8.6149530e-06 -7.3351883e-05 -8.7087983e-06 
-5.0982834e-07 -9.7157749e-07 1.9056399e-06 
-1.4875368e-06 -7.7708091e-06 3.8152875e-06 
-3.1210193e-06 -1.6372294e-06 1.0140768e-06 
-3.5421797e-07 3.4136846e-07 2.6521050e-07 
-3.5216012e-06 -2.8401114e-06 -6.1747295e-07 
8.8480853e-08 1.9771035e-06 3.1747479e-07 
-4.6579507e-06 -3.1993764e-05 -8.6010486e-06 
1.5917684e-07 4.1679743e-07 2.4470978e-08 
-2.9376190e-06 -4.1811250e-06 -1.5994985e-06 
-3.8698836e-06 -3.0712306e-06 -5.6433964e-07 
-7.8354005e-06 -1.0659568e-05 -7.2162157e-07 
-8.0080245e-06 -8.9888663e-06 -3.2665007e-06 
-8.5232450e-06 -2.1416579e-05 -2.5474144e-06 
-1.0476980e-05 -2.3021968e-05 2.9154876e-07 
-7.6470187e-06 -1.7325336e-05 -3.8052551e-06 
-1.5335789e-05 -5.5668919e-05 -1.5571774e-06 
-8.7805120e-06 -1.0038533e-05 1.3143898e-06 
-5.0245385e-06 -6.4965743e-06 1.4582849e-06 
-9.3329563e-06 -1.6690481e-05 2.9325597e-06 
-6.8854283e-06 -1.2345693e-05 4.2956572e-06 
-3.6230576e-06 -3.9327156e-06 2.1179533e-06 
-4.1660583e-06 -6.1818555e-06 3.2801609e-06 
-2.1282442e-06 -1.7451255e-06 1.3725321e-06 
-2.1034737e-06 -3.2085291e-06 2.4490444e-06 
-1.2040458e-06 -1.0604675e-06 1.2404956e-06 
-1.2536710e-06 -1.2427323e-06 1.7370641e-06 
-5.2940732e-07 -1.0490422e-07 7.2931357e-07 
-9.2992302e-08 2.8893729e-07 7.3435706e-07 
-1.0986362e-05 -3.3958400e-05 6.9476287e-06 
-1.3000982e-05 -3.8613285e-05 5.0829090e-06 
-3.6480897e-06 -7.6183678e-06 4.1328358e-06 
-9.9654153e-07 -1.0611632e-07 5.7450779e-07 
-3.9289603e-06 -9.1951524e-06 -2.1042747e-06 
-5.6134841e-06 -1.3242353e-05 5.2634800e-06 
-2.1106537e-06 -7.1739197e-07 7.6143249e-07 
1.5573031e-07 7.2403071e-07 7.9116703e-08 
-3.1325442e-06 -2.4587703e-06 -1.4414974e-06 
-1.3319309e-05 -4.3312459e-05 -7.6641654e-06 
-1.0974513e-05 -3.1263127e-05 -6.9015946e-06 
-7.0191300e-06 -6.7008645e-05 7.4910472e-06 
-2.4054984e-08 3.9895608e-07 2.1189756e-08 
-1.1478338e-06 -3.8030048e-06 2.4082049e-06 
-1.5231051e-06 -3.8956400e-06 2.5640029e-06 
-3.0014712e-06 -1.0721861e-05 5.4977240e-06 
-5.1046563e-06 -1.5846112e-05 8.4359126e-06 
-9.0793937e-06 -1.0239564e-04 -7.1751026e-07 
-1.5021679e-05 -8.1422295e-05 -7.3382380e-06 
1.6761969e-07 1.0926352e-06 1.6389200e-07 
1.0850072e-07 1.1798911e-06 7.5430393e-07 
-3.9345141e-06 -1.6819426e-05 -4.8134534e-06 
1.5137484e-08 5.1749817e-07 1.1537529e-07 
-8.6946767e-07 -1.4628883e-06 2.0105717e-06 
-9.0285057e-06 -5.1021743e-05 -1.1418808e-05 
-1.5912756e-05 -4.6277677e-05 6.6012848e-07 
2.4187170e-07 7.5091134e-07 4.5705389e-07 
-7.7973782e-06 -4.5488043e-05 1.0491989e-05 
-5.6648373e-06 -7.6783226e-06 -2.7752037e-06 
-1.6375200e-06 -1.8822344e-06 -1.0124966e-06 
1.1832712e-07 3.3084859e-07 -5.4597113e-08 
-2.3561711e-06 -1.5467683e-06 1.3478578e-06 
-8.8847813e-08 2.8423059e-07 9.7074440e-07 
-6.2298591e-06 -1.7784576e-05 -5.1839838e-06 
-1.1533889e-05 -2.5224463e-05 8.7441259e-07 
-1.3579688e-07 3.8052298e-07 2.8663618e-07 
-7.8349575e-07 -1.6013701e-07 7.3264795e-07 
1.3907074e-07 1.0057814e-06 4.3334566e-08 
-8.1803619e-06 -2.3839211e-05 8.5217771e-06 
-3.3457432e-06 -1.2568546e-05 -2.9563039e-06 
-1.4558069e-07 -8.5502563e-07 1.2567555e-06 
2.5309319e-07 1.5356848e-06 1.1217804e-06 
-3.7807908e-07 -5.7591978e-06 2.0850430e-06 
-8.3102418e-07 -9.9535018e-06 2.1573751e-06 
1.6175029e-07 2.0258476e-06 6.4554808e-07 
-7.8113908e-07 -1.4319813e-05 2.3798352e-06 
-1.7083485e-06 -2.2854652e-05 4.8313145e-06 
-8.9728110e-07 -3.7641221e-05 5.1483898e-06 
-4.0649270e-06 -6.2497442e-05 8.3072946e-06 
-9.7241655e-06 -1.0566947e-04 5.4608354e-06 
-8.5242755e-06 -1.1843478e-04 1.9648462e-06 
-1.3061785e-05 -1.4029010e-04 -2.3154942e-06 
-9.9304671e-06 -1.2269511e-04 -3.1507479e-06 
-5.8408064e-06 -8.4770152e-05 -5.0074850e-06 
-2.5217500e-06 -5.9495254e-05 -8.3983414e-06 
-2.0003331e-06 -3.6557285e-05 -8.0878654e-06 
-1.3447861e-06 -2.0978670e-05 -4.9816472e-06 
-2.0133930e-08 9.2016410e-07 1.8952620e-07 
3.5248436e-07 -2.6075483e-07 -1.2365349e-06 
1.3704397e-06 -5.2090591e-06 -3.0697538e-06 
6.8378413e-06 -2.6205369e-05 -6.4389515e-06 
8.8212091e-06 -3.7779748e-05 6.2370009e-07 
4.8458824e-06 -1.9740957e-05 4.2443353e-06 
7.1400950e-07 -2.7048108e-07 -1.1063474e-06 
1.9106649e-06 -1.9887930e-06 -1.9698180e-06 
6.4404862e-06 -1.2698139e-05 -2.0815551e-06 
1.9363415e-06 -2.0231466e-05 -4.9068681e-06 
2.1935487e-07 -3.9294396e-06 -1.0812672e-06 
-9.0626612e-10 1.1447535e-06 -6.1656920e-08 
5.5803589e-06 -9.0352551e-06 1.8356700e-06 
1.4535946e-07 3.4427995e-07 -3.5412558e-07 
6.6789639e-06 -8.0018792e-05 -6.4814321e-06 
2.3366019e-06 -6.0267001e-05 6.3321581e-06 
2.4638007e-07 -1.0911100e-05 -9.4477480e-07 
1.7855521e-06 -8.2945562e-06 -2.4190344e-06 
6.6073414e-07 -1.2119526e-06 -1.1559998e-06 
2.1920955e-06 -4.6985369e-05 -6.3179864e-06 
3.4368741e-06 -8.7559465e-06 -4.4119979e-06 
2.3090683e-07 4.3714513e-07 -2.4831198e-07 
2.6348337e-06 -2.3459602e-06 -1.3437204e-06 
1.7431665e-08 -2.9466200e-05 4.5611769e-06 
2.4472132e-07 1.3815367e-07 -3.7524038e-07 
1.5955238e-06 -2.6787250e-06 3.7674246e-07 
6.4586516e-07 -2.1442700e-06 -2.0786579e-06 
5.0192175e-06 -7.7228933e-06 -3.2905643e-06 
5.5311722e-07 -1.9279106e-07 -1.0365075e-06 
1.2366105e-06 -1.5640898e-06 -1.8613968e-06 
2.9378822e-07 -1.6774586e-06 -7.1703806e-07 
1.5178371e-06 -2.6409823e-06 -4.4715165e-07 
4.8360480e-06 -2.9848628e-05 -9.0939432e-07 
5.8729597e-06 -9.2682349e-05 8.9010797e-07 
2.7988560e-06 -2.4557530e-05 -2.2820668e-06 
3.2614514e-06 -5.8245651e-06 1.6341589e-06 
6.0619500e-06 -2.7143387e-05 1.8118080e-06 
1.1627379e-07 1.5151976e-07 -4.6517692e-07 
5.1817841e-07 6.9934771e-08 -5.8074926e-07 
2.3587315e-08 3.3106204e-07 -4.9388564e-07 
5.1968859e-06 -2.8047371e-05 -2.3477742e-06 
1.0858581e-06 -8.0405171e-06 -3.5277860e-06 
1.3366032e-06 -1.2049001e-05 8.8911690e-07 
4.9363953e-06 -2.7129832e-05 4.4257959e-06 
-3.4977325e-07 -8.7376275e-06 -2.5732749e-07 
2.1006903e-07 6.7243803e-07 -2.6205430e-07 
1.4988024e-06 -6.6034822e-06 -1.4593828e-06 
5.8599602e-07 -8.7870859e-08 -5.8687993e-07 
5.8301903e-06 -1.5697689e-05 1.6405820e-06 
3.1172794e-07 2.6592042e-07 -4.3526828e-07 
3.1156860e-06 -1.5480462e-05 -4.9599407e-06 
2.5262565e-07 3.7603934e-07 -2.9381258e-07 
2.5370632e-06 -2.8056729e-06 1.8157745e-07 
7.9413041e-07 -3.0724244e-05 1.7137799e-07 
2.6916553e-06 -5.0915631e-05 -2.0041175e-06 
3.3664062e-06 -4.2766711e-05 -6.0625880e-06 
6.5908430e-06 -1.3094585e-05 -2.0378241e-06 
2.1185267e-06 -1.2232343e-05 2.9874725e-06 
1.4430532e-07 3.2548206e-07 -1.7822528e-07 
-3.0160983e-08 -4.6986818e-07 -2.8849252e-07 
9.0629095e-07 -4.7813791e-07 -6.4132064e-07 
6.4394203e-07 -3.5203534e-06 -8.5330385e-07 
2.9161254e-06 -3.1388247e-06 -6.6237516e-07 
1.8361651e-07 -1.4800803e-07 -2.0066393e-07 
-7.1055121e-07 -5.4306522e-05 1.2963725e-06 