# vtk DataFile Version 4.0
vtk output
ASCII
DATASET UNSTRUCTURED_GRID
POINTS 460 float
0.0000000e+00 0.0000000e+00 0.0000000e+00 
5.0000000e+00 0.0000000e+00 0.0000000e+00 
5.0000000e+00 3.0000000e+00 0.0000000e+00 
0.0000000e+00 3.0000000e+00 0.0000000e+00 
0.0000000e+00 0.0000000e+00 1.0000000e+01 
5.0000000e+00 0.0000000e+00 1.0000000e+01 
5.0000000e+00 3.0000000e+00 1.0000000e+01 
0.0000000e+00 3.0000000e+00 1.0000000e+01 
1.0000000e+00 3.0000000e+00 -5.0000000e+00 
1.0000000e+00 3.0000000e+00 -4.5000000e+00 
1.0000000e+00 3.0000000e+00 -4.0000000e+00 
1.0000000e+00 3.0000000e+00 -3.5000000e+00 
1.0000000e+00 3.0000000e+00 -3.0000000e+00 
1.0000000e+00 3.0000000e+00 -2.5000000e+00 
1.0000000e+00 3.0000000e+00 -2.0000000e+00 
1.0000000e+00 3.0000000e+00 -1.5000000e+00 
1.0000000e+00 3.0000000e+00 -1.0000000e+00 
1.0000000e+00 3.0000000e+00 -5.0000000e-01 
1.0000000e+00 3.0000000e+00 0.0000000e+00 
1.0000000e+00 3.0000000e+00 5.0000000e-01 
1.0000000e+00 3.0000000e+00 1.0000000e+00 
1.0000000e+00 3.0000000e+00 1.5000000e+00 
1.0000000e+00 3.0000000e+00 2.0000000e+00 
1.0000000e+00 3.0000000e+00 2.5000000e+00 
1.0000000e+00 3.0000000e+00 3.0000000e+00 
1.0000000e+00 3.0000000e+00 3.5000000e+00 
1.0000000e+00 3.0000000e+00 4.0000000e+00 
1.0000000e+00 3.0000000e+00 4.5000000e+00 
1.0000000e+00 3.0000000e+00 5.0000000e+00 
1.0000000e+00 3.0000000e+00 5.5000000e+00 
1.0000000e+00 3.0000000e+00 6.0000000e+00 
1.0000000e+00 3.0000000e+00 6.5000000e+00 
1.0000000e+00 3.0000000e+00 7.0000000e+00 
1.0000000e+00 3.0000000e+00 7.5000000e+00 
1.0000000e+00 3.0000000e+00 8.0000000e+00 
1.0000000e+00 3.0000000e+00 8.5000000e+00 
1.0000000e+00 3.0000000e+00 9.0000000e+00 
1.0000000e+00 3.0000000e+00 9.5000000e+00 
1.0000000e+00 3.0000000e+00 1.0000000e+01 
1.0000000e+00 3.0000000e+00 1.0500000e+01 
1.0000000e+00 3.0000000e+00 1.1000000e+01 
1.0000000e+00 3.0000000e+00 1.1500000e+01 
1.0000000e+00 3.0000000e+00 1.2000000e+01 
1.0000000e+00 3.0000000e+00 1.2500000e+01 
1.0000000e+00 3.0000000e+00 1.3000000e+01 
1.0000000e+00 3.0000000e+00 1.3500000e+01 
1.0000000e+00 3.0000000e+00 1.4000000e+01 
1.0000000e+00 3.0000000e+00 1.4500000e+01 
1.0000000e+00 3.0250001e+00 -5.0000000e+00 
1.0000000e+00 3.0250001e+00 -4.5000000e+00 
1.0000000e+00 3.0250001e+00 -4.0000000e+00 
1.0000000e+00 3.0250001e+00 -3.5000000e+00 
1.0000000e+00 3.0250001e+00 -3.0000000e+00 
1.0000000e+00 3.0250001e+00 -2.5000000e+00 
1.0000000e+00 3.0250001e+00 -2.0000000e+00 
1.0000000e+00 3.0250001e+00 -1.5000000e+00 
1.0000000e+00 3.0250001e+00 -1.0000000e+00 
1.0000000e+00 3.0250001e+00 -5.0000000e-01 
1.0000000e+00 3.0250001e+00 0.0000000e+00 
1.0000000e+00 3.0250001e+00 5.0000000e-01 
1.0000000e+00 3.0250001e+00 1.0000000e+00 
1.0000000e+00 3.0250001e+00 1.5000000e+00 
1.0000000e+00 3.0250001e+00 2.0000000e+00 
1.0000000e+00 3.0250001e+00 2.5000000e+00 
1.0000000e+00 3.0250001e+00 3.0000000e+00 
1.0000000e+00 3.0250001e+00 3.5000000e+00 
1.0000000e+00 3.0250001e+00 4.0000000e+00 
1.0000000e+00 3.0250001e+00 4.5000000e+00 
1.0000000e+00 3.0250001e+00 5.0000000e+00 
1.0000000e+00 3.0250001e+00 5.5000000e+00 
1.0000000e+00 3.0250001e+00 6.0000000e+00 
1.0000000e+00 3.0250001e+00 6.5000000e+00 
1.0000000e+00 3.0250001e+00 7.0000000e+00 
1.0000000e+00 3.0250001e+00 7.5000000e+00 
1.0000000e+00 3.0250001e+00 8.0000000e+00 
1.0000000e+00 3.0250001e+00 8.5000000e+00 
1.0000000e+00 3.0250001e+00 9.0000000e+00 
1.0000000e+00 3.0250001e+00 9.5000000e+00 
1.0000000e+00 3.0250001e+00 1.0000000e+01 
1.0000000e+00 3.0250001e+00 1.0500000e+01 
1.0000000e+00 3.0250001e+00 1.1000000e+01 
1.0000000e+00 3.0250001e+00 1.1500000e+01 
1.0000000e+00 3.0250001e+00 1.2000000e+01 
1.0000000e+00 3.0250001e+00 1.2500000e+01 
1.0000000e+00 3.0250001e+00 1.3000000e+01 
1.0000000e+00 3.0250001e+00 1.3500000e+01 
1.0000000e+00 3.0250001e+00 1.4000000e+01 
1.0000000e+00 3.0250001e+00 1.4500000e+01 
1.0000000e+00 -2.0000000e+00 -5.0000000e+00 
1.0000000e+00 -2.0000000e+00 -4.5000000e+00 
1.0000000e+00 -2.0000000e+00 -4.0000000e+00 
1.0000000e+00 -2.0000000e+00 -3.5000000e+00 
1.0000000e+00 -2.0000000e+00 -3.0000000e+00 
1.0000000e+00 -2.0000000e+00 -2.5000000e+00 
1.0000000e+00 -2.0000000e+00 -2.0000000e+00 
1.0000000e+00 -2.0000000e+00 -1.5000000e+00 
1.0000000e+00 -2.0000000e+00 -1.0000000e+00 
1.0000000e+00 -2.0000000e+00 -5.0000000e-01 
1.0000000e+00 -2.0000000e+00 1.0500000e+01 
1.0000000e+00 -2.0000000e+00 1.1000000e+01 
1.0000000e+00 -2.0000000e+00 1.1500000e+01 
1.0000000e+00 -2.0000000e+00 1.2000000e+01 
1.0000000e+00 -2.0000000e+00 1.2500000e+01 
1.0000000e+00 -2.0000000e+00 1.3000000e+01 
1.0000000e+00 -2.0000000e+00 1.3500000e+01 
1.0000000e+00 -2.0000000e+00 1.4000000e+01 
1.0000000e+00 -2.0000000e+00 1.4500000e+01 
1.0000000e+00 0.0000000e+00 0.0000000e+00 
2.0000000e+00 0.0000000e+00 0.0000000e+00 
3.0000000e+00 0.0000000e+00 0.0000000e+00 
4.0000000e+00 0.0000000e+00 0.0000000e+00 
5.0000000e+00 1.0000000e+00 0.0000000e+00 
5.0000000e+00 2.0000000e+00 0.0000000e+00 
0.0000000e+00 2.0000000e+00 0.0000000e+00 
0.0000000e+00 1.0000000e+00 0.0000000e+00 
0.0000000e+00 0.0000000e+00 1.0000000e+00 
0.0000000e+00 0.0000000e+00 2.0000000e+00 
0.0000000e+00 0.0000000e+00 3.0000000e+00 
0.0000000e+00 0.0000000e+00 4.0000000e+00 
0.0000000e+00 0.0000000e+00 5.0000000e+00 
0.0000000e+00 0.0000000e+00 6.0000000e+00 
0.0000000e+00 0.0000000e+00 7.0000000e+00 
0.0000000e+00 0.0000000e+00 8.0000000e+00 
0.0000000e+00 0.0000000e+00 9.0000000e+00 
5.0000000e+00 0.0000000e+00 1.0000000e+00 
5.0000000e+00 0.0000000e+00 2.0000000e+00 
5.0000000e+00 0.0000000e+00 3.0000000e+00 
5.0000000e+00 0.0000000e+00 4.0000000e+00 
5.0000000e+00 0.0000000e+00 5.0000000e+00 
5.0000000e+00 0.0000000e+00 6.0000000e+00 
5.0000000e+00 0.0000000e+00 7.0000000e+00 
5.0000000e+00 0.0000000e+00 8.0000000e+00 
5.0000000e+00 0.0000000e+00 9.0000000e+00 
1.0000000e+00 0.0000000e+00 1.0000000e+01 
2.0000000e+00 0.0000000e+00 1.0000000e+01 
3.0000000e+00 0.0000000e+00 1.0000000e+01 
4.0000000e+00 0.0000000e+00 1.0000000e+01 
5.0000000e+00 3.0000000e+00 1.0000000e+00 
5.0000000e+00 3.0000000e+00 2.0000000e+00 
5.0000000e+00 3.0000000e+00 3.0000000e+00 
5.0000000e+00 3.0000000e+00 4.0000000e+00 
5.0000000e+00 3.0000000e+00 5.0000000e+00 
5.0000000e+00 3.0000000e+00 6.0000000e+00 
5.0000000e+00 3.0000000e+00 7.0000000e+00 
5.0000000e+00 3.0000000e+00 8.0000000e+00 
5.0000000e+00 3.0000000e+00 9.0000000e+00 
5.0000000e+00 1.0000000e+00 1.0000000e+01 
5.0000000e+00 2.0000000e+00 1.0000000e+01 
0.0000000e+00 3.0000000e+00 1.0000000e+00 
0.0000000e+00 3.0000000e+00 2.0000000e+00 
0.0000000e+00 3.0000000e+00 3.0000000e+00 
0.0000000e+00 3.0000000e+00 4.0000000e+00 
0.0000000e+00 3.0000000e+00 5.0000000e+00 
0.0000000e+00 3.0000000e+00 6.0000000e+00 
0.0000000e+00 3.0000000e+00 7.0000000e+00 
0.0000000e+00 3.0000000e+00 8.0000000e+00 
0.0000000e+00 3.0000000e+00 9.0000000e+00 
0.0000000e+00 2.0000000e+00 1.0000000e+01 
0.0000000e+00 1.0000000e+00 1.0000000e+01 
4.0000000e+00 3.0000000e+00 0.0000000e+00 
3.0000000e+00 3.0000000e+00 0.0000000e+00 
2.0000000e+00 3.0000000e+00 0.0000000e+00 
4.0000000e+00 3.0000000e+00 1.0000000e+01 
3.0000000e+00 3.0000000e+00 1.0000000e+01 
2.0000000e+00 3.0000000e+00 1.0000000e+01 
4.0618000e+00 1.5000000e+00 0.0000000e+00 
1.5046000e+00 7.6549745e-01 0.0000000e+00 
2.5000000e+00 2.1339746e+00 0.0000000e+00 
1.5046000e+00 2.2345026e+00 0.0000000e+00 
2.4957771e+00 8.1560516e-01 0.0000000e+00 
3.4707544e+00 2.2336540e+00 0.0000000e+00 
3.4700506e+00 7.5794268e-01 0.0000000e+00 
8.6322361e-01 1.5000000e+00 0.0000000e+00 
2.0000000e+00 1.5000000e+00 0.0000000e+00 
2.9960666e+00 1.4974480e+00 0.0000000e+00 
4.2679491e+00 7.3205084e-01 0.0000000e+00 
4.2679491e+00 2.2679491e+00 0.0000000e+00 
7.2695929e-01 2.2730408e+00 0.0000000e+00 
7.2695929e-01 7.2695929e-01 0.0000000e+00 
4.1822505e+00 0.0000000e+00 2.5515697e+00 
4.2017918e+00 0.0000000e+00 4.4725966e+00 
4.1114569e+00 0.0000000e+00 6.5092020e+00 
8.6602539e-01 0.0000000e+00 3.5000000e+00 
8.4778279e-01 0.0000000e+00 5.4684029e+00 
8.9629614e-01 0.0000000e+00 7.5867257e+00 
2.5566745e+00 0.0000000e+00 8.1853306e-01 
2.4918270e+00 0.0000000e+00 9.1386929e+00 
8.4677207e-01 0.0000000e+00 1.5042374e+00 
4.0943027e+00 0.0000000e+00 8.4081745e+00 
8.6281651e-01 0.0000000e+00 2.5007062e+00 
1.7315160e+00 0.0000000e+00 3.0001178e+00 
1.7319617e+00 0.0000000e+00 4.0000196e+00 
2.5980761e+00 0.0000000e+00 3.5000000e+00 
2.5536871e+00 0.0000000e+00 4.4963923e+00 
2.5928419e+00 0.0000000e+00 2.4239938e+00 
1.5037409e+00 0.0000000e+00 9.1535149e+00 
1.8433737e+00 0.0000000e+00 8.1858873e+00 
3.0000000e+00 0.0000000e+00 8.2679491e+00 
2.5000000e+00 0.0000000e+00 7.4019237e+00 
3.5042722e+00 0.0000000e+00 7.4271150e+00 
3.0310018e+00 0.0000000e+00 6.5282087e+00 
2.0373929e+00 0.0000000e+00 6.5307913e+00 
3.4767809e+00 0.0000000e+00 5.8031492e+00 
2.5452602e+00 0.0000000e+00 5.5720768e+00 
1.6456656e+00 0.0000000e+00 1.9697139e+00 
8.6297011e-01 0.0000000e+00 4.4947371e+00 
1.0111579e+00 0.0000000e+00 6.5282545e+00 
3.4994321e+00 0.0000000e+00 8.4691072e-01 
4.1860156e+00 0.0000000e+00 3.5040276e+00 
1.7320508e+00 0.0000000e+00 5.0000000e+00 
4.0544066e+00 0.0000000e+00 1.5781221e+00 
1.5817389e+00 0.0000000e+00 9.3943578e-01 
8.3166349e-01 0.0000000e+00 8.5090933e+00 
3.4686174e+00 0.0000000e+00 9.1752682e+00 
3.0709300e+00 0.0000000e+00 1.5799091e+00 
3.3927374e+00 0.0000000e+00 3.0399952e+00 
3.3826034e+00 0.0000000e+00 3.9747651e+00 
4.3420062e+00 0.0000000e+00 7.4688983e+00 
3.4023225e+00 0.0000000e+00 4.9314723e+00 
1.6740381e+00 0.0000000e+00 7.3014426e+00 
4.2715640e+00 0.0000000e+00 5.4758859e+00 
1.6225953e+00 0.0000000e+00 5.8104177e+00 
4.2679491e+00 0.0000000e+00 9.2679491e+00 
7.3205084e-01 0.0000000e+00 7.3205084e-01 
4.2679491e+00 0.0000000e+00 7.3205084e-01 
7.3205084e-01 0.0000000e+00 9.2679491e+00 
3.4586334e+00 0.0000000e+00 2.2347178e+00 
2.2895701e+00 0.0000000e+00 1.5463171e+00 
5.0000000e+00 2.2345026e+00 1.5046000e+00 
[...]
POINT_DATA 460
FIELD FieldData 5
DISPLACEMENT 3 460  float
0.0000000e+00 0.0000000e+00 0.0000000e+00 
0.0000000e+00 0.0000000e+00 0.0000000e+00 
0.0000000e+00 6.1043366e-08 0.0000000e+00 
0.0000000e+00 4.4566079e-08 0.0000000e+00 
0.0000000e+00 0.0000000e+00 0.0000000e+00 
0.0000000e+00 0.0000000e+00 0.0000000e+00 
0.0000000e+00 -4.3656164e-06 0.0000000e+00 
0.0000000e+00 -1.0307639e-04 0.0000000e+00 
0.0000000e+00 -8.1962718e-08 0.0000000e+00 
0.0000000e+00 -8.0610754e-08 0.0000000e+00 
0.0000000e+00 -7.6603257e-08 0.0000000e+00 
0.0000000e+00 -7.0079892e-08 0.0000000e+00 
0.0000000e+00 -6.1186263e-08 0.0000000e+00 
0.0000000e+00 -4.9988937e-08 0.0000000e+00 
0.0000000e+00 -3.6440660e-08 0.0000000e+00 
0.0000000e+00 -2.0443935e-08 0.0000000e+00 
0.0000000e+00 -2.1167421e-09 0.0000000e+00 
0.0000000e+00 1.7604135e-08 0.0000000e+00 
0.0000000e+00 3.6482387e-08 0.0000000e+00 
-3.7419863e-09 4.9084946e-08 1.1716022e-08 
-1.1778914e-08 5.7985815e-08 2.8592831e-08 
-1.6149169e-08 6.7134451e-08 4.6498435e-08 
-2.6921716e-08 8.2160348e-08 9.1105292e-08 
-3.9285894e-08 1.0372975e-07 1.8546480e-07 
-3.6579088e-08 1.2203098e-07 3.4570959e-07 
-8.8713152e-09 1.0899203e-07 6.2572417e-07 
-1.1592574e-07 1.7601009e-08 1.2670665e-06 
-1.3177970e-07 -2.6179370e-07 1.9133386e-06 
-6.2256578e-07 -9.4088961e-07 3.6662830e-06 
-1.4866860e-06 -2.6506673e-06 5.6392541e-06 
-1.7561603e-06 -7.1038926e-06 7.5077710e-06 
-4.0510308e-06 -1.8149722e-05 1.1508744e-05 
-3.5984185e-06 -4.2924752e-05 1.7433720e-05 
-3.7746975e-06 -9.0839014e-05 1.5589287e-05 
-3.6072818e-06 -1.6619307e-04 1.1234277e-05 
-2.0396258e-06 -2.4603109e-04 1.2577342e-05 
-1.5886793e-05 -2.6465033e-04 3.3101585e-06 
-5.7487937e-06 -2.0825332e-04 1.2533122e-05 
0.0000000e+00 -1.4285652e-04 0.0000000e+00 
0.0000000e+00 -8.2381252e-05 0.0000000e+00 
0.0000000e+00 -3.8179791e-05 0.0000000e+00 
0.0000000e+00 -1.0595538e-05 0.0000000e+00 
0.0000000e+00 3.6068282e-06 0.0000000e+00 
0.0000000e+00 8.8170091e-06 0.0000000e+00 
0.0000000e+00 9.0129242e-06 0.0000000e+00 
0.0000000e+00 7.1851850e-06 0.0000000e+00 
0.0000000e+00 5.3093227e-06 0.0000000e+00 
0.0000000e+00 4.5370939e-06 0.0000000e+00 
0.0000000e+00 -8.1819714e-08 0.0000000e+00 
0.0000000e+00 -8.0513438e-08 0.0000000e+00 
0.0000000e+00 -7.6619926e-08 0.0000000e+00 
0.0000000e+00 -7.0154499e-08 0.0000000e+00 
0.0000000e+00 -6.1248691e-08 0.0000000e+00 
0.0000000e+00 -5.0025363e-08 0.0000000e+00 
0.0000000e+00 -3.6458349e-08 0.0000000e+00 
0.0000000e+00 -2.0438739e-08 0.0000000e+00 
0.0000000e+00 -2.0738578e-09 0.0000000e+00 
0.0000000e+00 1.7699412e-08 0.0000000e+00 
0.0000000e+00 3.6067281e-08 0.0000000e+00 
0.0000000e+00 4.9048285e-08 0.0000000e+00 
0.0000000e+00 5.7964833e-08 0.0000000e+00 
0.0000000e+00 6.7483484e-08 0.0000000e+00 
0.0000000e+00 8.2741280e-08 0.0000000e+00 
0.0000000e+00 1.0452381e-07 0.0000000e+00 
0.0000000e+00 1.2251516e-07 0.0000000e+00 
0.0000000e+00 1.0997820e-07 0.0000000e+00 
0.0000000e+00 1.7225712e-08 0.0000000e+00 
0.0000000e+00 -2.5445473e-07 0.0000000e+00 
0.0000000e+00 -9.1672513e-07 0.0000000e+00 
0.0000000e+00 -2.5933518e-06 0.0000000e+00 
0.0000000e+00 -6.9899638e-06 0.0000000e+00 
0.0000000e+00 -1.8013379e-05 0.0000000e+00 
0.0000000e+00 -4.2908294e-05 0.0000000e+00 
0.0000000e+00 -9.1398470e-05 0.0000000e+00 
0.0000000e+00 -1.6800975e-04 0.0000000e+00 
0.0000000e+00 -2.4873248e-04 0.0000000e+00 
0.0000000e+00 -2.6917909e-04 0.0000000e+00 
0.0000000e+00 -2.1202888e-04 0.0000000e+00 
0.0000000e+00 -1.4279550e-04 0.0000000e+00 
0.0000000e+00 -8.2709077e-05 0.0000000e+00 
0.0000000e+00 -3.8331891e-05 0.0000000e+00 
0.0000000e+00 -1.0638332e-05 0.0000000e+00 
0.0000000e+00 3.6202116e-06 0.0000000e+00 
0.0000000e+00 8.8511979e-06 0.0000000e+00 
0.0000000e+00 9.0483964e-06 0.0000000e+00 
0.0000000e+00 7.2141042e-06 0.0000000e+00 
0.0000000e+00 5.3313970e-06 0.0000000e+00 
0.0000000e+00 4.5563411e-06 0.0000000e+00 
0.0000000e+00 0.0000000e+00 0.0000000e+00 
0.0000000e+00 0.0000000e+00 0.0000000e+00 
0.0000000e+00 0.0000000e+00 0.0000000e+00 
0.0000000e+00 0.0000000e+00 0.0000000e+00 
0.0000000e+00 0.0000000e+00 0.0000000e+00 
0.0000000e+00 0.0000000e+00 0.0000000e+00 
0.0000000e+00 0.0000000e+00 0.0000000e+00 
0.0000000e+00 0.0000000e+00 0.0000000e+00 
0.0000000e+00 0.0000000e+00 0.0000000e+00 
0.0000000e+00 0.0000000e+00 0.0000000e+00 
0.0000000e+00 0.0000000e+00 0.0000000e+00 
0.0000000e+00 0.0000000e+00 0.0000000e+00 
0.0000000e+00 0.0000000e+00 0.0000000e+00 
0.0000000e+00 0.0000000e+00 0.0000000e+00 
0.0000000e+00 0.0000000e+00 0.0000000e+00 
0.0000000e+00 0.0000000e+00 0.0000000e+00 
0.0000000e+00 0.0000000e+00 0.0000000e+00 
0.0000000e+00 0.0000000e+00 0.0000000e+00 
0.0000000e+00 0.0000000e+00 0.0000000e+00 
0.0000000e+00 0.0000000e+00 0.0000000e+00 
0.0000000e+00 0.0000000e+00 0.0000000e+00 
0.0000000e+00 0.0000000e+00 0.0000000e+00 
0.0000000e+00 0.0000000e+00 0.0000000e+00 
0.0000000e+00 3.1377368e-08 0.0000000e+00 
0.0000000e+00 5.5107197e-08 0.0000000e+00 
0.0000000e+00 3.8805819e-08 0.0000000e+00 
0.0000000e+00 2.1948935e-08 0.0000000e+00 
0.0000000e+00 0.0000000e+00 0.0000000e+00 
0.0000000e+00 0.0000000e+00 0.0000000e+00 
0.0000000e+00 0.0000000e+00 0.0000000e+00 
0.0000000e+00 0.0000000e+00 0.0000000e+00 
0.0000000e+00 0.0000000e+00 0.0000000e+00 
0.0000000e+00 0.0000000e+00 0.0000000e+00 
0.0000000e+00 0.0000000e+00 0.0000000e+00 
0.0000000e+00 0.0000000e+00 0.0000000e+00 
0.0000000e+00 0.0000000e+00 0.0000000e+00 
0.0000000e+00 0.0000000e+00 0.0000000e+00 
0.0000000e+00 0.0000000e+00 0.0000000e+00 
0.0000000e+00 0.0000000e+00 0.0000000e+00 
0.0000000e+00 0.0000000e+00 0.0000000e+00 
0.0000000e+00 0.0000000e+00 0.0000000e+00 
0.0000000e+00 0.0000000e+00 0.0000000e+00 
0.0000000e+00 0.0000000e+00 0.0000000e+00 
0.0000000e+00 0.0000000e+00 0.0000000e+00 
0.0000000e+00 0.0000000e+00 0.0000000e+00 
0.0000000e+00 0.0000000e+00 0.0000000e+00 
0.0000000e+00 0.0000000e+00 0.0000000e+00 
0.0000000e+00 0.0000000e+00 0.0000000e+00 
0.0000000e+00 0.0000000e+00 0.0000000e+00 
0.0000000e+00 7.9844227e-08 0.0000000e+00 
0.0000000e+00 1.4841081e-07 0.0000000e+00 
0.0000000e+00 1.9884712e-07 0.0000000e+00 
0.0000000e+00 3.1212068e-07 0.0000000e+00 
0.0000000e+00 1.6602627e-07 0.0000000e+00 
0.0000000e+00 7.5537749e-08 0.0000000e+00 
0.0000000e+00 -1.4517204e-06 0.0000000e+00 
0.0000000e+00 -1.8937978e-06 0.0000000e+00 
0.0000000e+00 -4.2667639e-06 0.0000000e+00 
0.0000000e+00 -2.5976458e-06 0.0000000e+00 
0.0000000e+00 -3.9489028e-06 0.0000000e+00 
0.0000000e+00 4.5476330e-08 0.0000000e+00 
0.0000000e+00 5.6035489e-08 0.0000000e+00 
0.0000000e+00 1.9871356e-08 0.0000000e+00 
0.0000000e+00 -4.8741157e-07 0.0000000e+00 
0.0000000e+00 -3.0107774e-06 0.0000000e+00 
0.0000000e+00 -1.1423002e-05 0.0000000e+00 
0.0000000e+00 -4.0211962e-05 0.0000000e+00 
0.0000000e+00 -8.3123065e-05 0.0000000e+00 
0.0000000e+00 -1.1391151e-04 0.0000000e+00 
0.0000000e+00 -8.3018655e-05 0.0000000e+00 
0.0000000e+00 -4.1070416e-05 0.0000000e+00 
0.0000000e+00 6.4091147e-08 0.0000000e+00 
0.0000000e+00 6.5482133e-08 0.0000000e+00 
0.0000000e+00 6.0288563e-08 0.0000000e+00 
0.0000000e+00 -8.2425522e-06 0.0000000e+00 
0.0000000e+00 -2.3042112e-05 0.0000000e+00 
0.0000000e+00 -5.8019774e-05 0.0000000e+00 
0.0000000e+00 4.7157268e-08 0.0000000e+00 
0.0000000e+00 2.2477121e-08 0.0000000e+00 
0.0000000e+00 6.4818714e-08 0.0000000e+00 
0.0000000e+00 5.2277304e-08 0.0000000e+00 
0.0000000e+00 3.0121210e-08 0.0000000e+00 
0.0000000e+00 6.3197525e-08 0.0000000e+00 
0.0000000e+00 2.8513906e-08 0.0000000e+00 
0.0000000e+00 3.7651336e-08 0.0000000e+00 
0.0000000e+00 5.0877507e-08 0.0000000e+00 
0.0000000e+00 5.0940184e-08 0.0000000e+00 
0.0000000e+00 2.1130798e-08 0.0000000e+00 
0.0000000e+00 5.8929977e-08 0.0000000e+00 
0.0000000e+00 4.3930548e-08 0.0000000e+00 
0.0000000e+00 1.7140994e-08 0.0000000e+00 
0.0000000e+00 0.0000000e+00 0.0000000e+00 
0.0000000e+00 0.0000000e+00 0.0000000e+00 
0.0000000e+00 0.0000000e+00 0.0000000e+00 
0.0000000e+00 0.0000000e+00 0.0000000e+00 
0.0000000e+00 0.0000000e+00 0.0000000e+00 
0.0000000e+00 0.0000000e+00 0.0000000e+00 
0.0000000e+00 0.0000000e+00 0.0000000e+00 
0.0000000e+00 0.0000000e+00 0.0000000e+00 
0.0000000e+00 0.0000000e+00 0.0000000e+00 
0.0000000e+00 0.0000000e+00 0.0000000e+00 
0.0000000e+00 0.0000000e+00 0.0000000e+00 
0.0000000e+00 0.0000000e+00 0.0000000e+00 
0.0000000e+00 0.0000000e+00 0.0000000e+00 
0.0000000e+00 0.0000000e+00 0.0000000e+00 
0.0000000e+00 0.0000000e+00 0.0000000e+00 
0.0000000e+00 0.0000000e+00 0.0000000e+00 
0.0000000e+00 0.0000000e+00 0.0000000e+00 
0.0000000e+00 0.0000000e+00 0.0000000e+00 
0.0000000e+00 0.0000000e+00 0.0000000e+00 
0.0000000e+00 0.0000000e+00 0.0000000e+00 
0.0000000e+00 0.0000000e+00 0.0000000e+00 
0.0000000e+00 0.0000000e+00 0.0000000e+00 
0.0000000e+00 0.0000000e+00 0.0000000e+00 
0.0000000e+00 0.0000000e+00 0.0000000e+00 
0.0000000e+00 0.0000000e+00 0.0000000e+00 
0.0000000e+00 0.0000000e+00 0.0000000e+00 
0.0000000e+00 0.0000000e+00 0.0000000e+00 
0.0000000e+00 0.0000000e+00 0.0000000e+00 
0.0000000e+00 0.0000000e+00 0.0000000e+00 
0.0000000e+00 0.0000000e+00 0.0000000e+00 
0.0000000e+00 0.0000000e+00 0.0000000e+00 
0.0000000e+00 0.0000000e+00 0.0000000e+00 
0.0000000e+00 0.0000000e+00 0.0000000e+00 
0.0000000e+00 0.0000000e+00 0.0000000e+00 
0.0000000e+00 0.0000000e+00 0.0000000e+00 
0.0000000e+00 0.0000000e+00 0.0000000e+00 
0.0000000e+00 0.0000000e+00 0.0000000e+00 
0.0000000e+00 0.0000000e+00 0.0000000e+00 
0.0000000e+00 0.0000000e+00 0.0000000e+00 
0.0000000e+00 0.0000000e+00 0.0000000e+00 
0.0000000e+00 0.0000000e+00 0.0000000e+00 
0.0000000e+00 0.0000000e+00 0.0000000e+00 
0.0000000e+00 0.0000000e+00 0.0000000e+00 
0.0000000e+00 0.0000000e+00 0.0000000e+00 
0.0000000e+00 0.0000000e+00 0.0000000e+00 
0.0000000e+00 0.0000000e+00 0.0000000e+00 
0.0000000e+00 0.0000000e+00 0.0000000e+00 
0.0000000e+00 0.0000000e+00 0.0000000e+00 
0.0000000e+00 0.0000000e+00 0.0000000e+00 
0.0000000e+00 1.0371320e-07 0.0000000e+00 
0.0000000e+00 -2.8618256e-06 0.0000000e+00 
0.0000000e+00 2.4182268e-07 0.0000000e+00 
0.0000000e+00 2.0016483e-07 0.0000000e+00 
0.0000000e+00 -1.2718131e-06 0.0000000e+00 
0.0000000e+00 6.9797231e-08 0.0000000e+00 
0.0000000e+00 3.0817628e-08 0.0000000e+00 
0.0000000e+00 -4.3738524e-07 0.0000000e+00 
0.0000000e+00 9.3164914e-08 0.0000000e+00 
0.0000000e+00 6.2755177e-08 0.0000000e+00 
0.0000000e+00 1.6287963e-07 0.0000000e+00 
0.0000000e+00 3.0915882e-07 0.0000000e+00 
0.0000000e+00 5.7541566e-08 0.0000000e+00 
0.0000000e+00 -1.1453109e-06 0.0000000e+00 
0.0000000e+00 4.1030265e-08 0.0000000e+00 
0.0000000e+00 -1.6067038e-06 0.0000000e+00 
0.0000000e+00 -1.8169915e-06 0.0000000e+00 
0.0000000e+00 5.7173114e-08 0.0000000e+00 
0.0000000e+00 1.3729985e-07 0.0000000e+00 
0.0000000e+00 -5.6380532e-07 0.0000000e+00 
0.0000000e+00 9.5674807e-08 0.0000000e+00 
0.0000000e+00 8.8008576e-08 0.0000000e+00 
0.0000000e+00 2.0227348e-07 0.0000000e+00 
0.0000000e+00 1.4736915e-07 0.0000000e+00 
0.0000000e+00 -1.2816661e-06 0.0000000e+00 
0.0000000e+00 -3.2163014e-06 0.0000000e+00 
0.0000000e+00 -1.5439848e-06 0.0000000e+00 
0.0000000e+00 6.8603335e-08 0.0000000e+00 
0.0000000e+00 2.6405621e-08 0.0000000e+00 
0.0000000e+00 -6.4155080e-05 0.0000000e+00 
0.0000000e+00 3.2199605e-08 0.0000000e+00 
0.0000000e+00 1.9018351e-08 0.0000000e+00 
0.0000000e+00 -6.8187848e-07 0.0000000e+00 
0.0000000e+00 -1.9410591e-05 0.0000000e+00 
0.0000000e+00 -9.7535796e-08 0.0000000e+00 
0.0000000e+00 -5.8792525e-06 0.0000000e+00 
0.0000000e+00 -4.8641756e-05 0.0000000e+00 
0.0000000e+00 -6.9862701e-08 0.0000000e+00 
0.0000000e+00 5.1138642e-08 0.0000000e+00 
0.0000000e+00 -1.2254781e-06 0.0000000e+00 
0.0000000e+00 -2.0006250e-05 0.0000000e+00 
0.0000000e+00 -1.0238660e-05 0.0000000e+00 
0.0000000e+00 -9.1571099e-05 0.0000000e+00 
0.0000000e+00 4.4403823e-08 0.0000000e+00 
0.0000000e+00 1.8637605e-08 0.0000000e+00 
0.0000000e+00 -2.6413200e-05 0.0000000e+00 
0.0000000e+00 -2.2748288e-06 0.0000000e+00 
0.0000000e+00 -8.5687407e-06 0.0000000e+00 
0.0000000e+00 -5.2760356e-07 0.0000000e+00 
0.0000000e+00 -4.2783399e-09 0.0000000e+00 
0.0000000e+00 -2.4055365e-05 0.0000000e+00 
0.0000000e+00 -2.5636562e-06 0.0000000e+00 
0.0000000e+00 -4.9305196e-05 0.0000000e+00 
0.0000000e+00 3.9221160e-08 0.0000000e+00 
0.0000000e+00 -2.9828057e-05 0.0000000e+00 
0.0000000e+00 4.2152280e-08 0.0000000e+00 
0.0000000e+00 1.5170114e-08 0.0000000e+00 
0.0000000e+00 -9.7224140e-05 0.0000000e+00 
0.0000000e+00 -2.3683690e-05 0.0000000e+00 
0.0000000e+00 -5.3023837e-06 0.0000000e+00 
0.0000000e+00 -3.4038618e-05 0.0000000e+00 
0.0000000e+00 -8.0165657e-05 0.0000000e+00 
0.0000000e+00 -1.3604350e-05 0.0000000e+00 
0.0000000e+00 -1.2693753e-05 0.0000000e+00 
0.0000000e+00 -6.0466368e-06 0.0000000e+00 
0.0000000e+00 -6.2963438e-05 0.0000000e+00 
0.0000000e+00 -3.7215974e-05 0.0000000e+00 
0.0000000e+00 -1.6761926e-05 0.0000000e+00 
0.0000000e+00 -2.8766531e-06 0.0000000e+00 
0.0000000e+00 -5.6563103e-06 0.0000000e+00 
0.0000000e+00 -1.0439844e-04 0.0000000e+00 
0.0000000e+00 -2.8854420e-05 0.0000000e+00 
-3.7283448e-07 -5.9876601e-07 2.6831553e-06 
-3.5616943e-06 -1.2517185e-05 8.5193915e-06 
-8.7075641e-06 -7.4551710e-05 1.3033635e-05 
-5.4375562e-08 8.5421490e-08 1.6486632e-07 
-9.0797634e-08 1.7851750e-07 5.6770727e-07 
-7.9787037e-07 -8.8409813e-08 9.3094002e-07 
-4.5356909e-08 1.9722629e-07 6.4630925e-08 
-2.6976902e-06 -2.3504465e-06 1.9018173e-06 
-1.6767716e-08 7.2254117e-08 4.3035033e-08 
-1.0960678e-05 -1.2540430e-04 5.6870649e-06 
-9.0204724e-09 8.0105337e-08 1.4458792e-08 
-7.0444012e-06 -1.4427451e-05 6.3545235e-07 
-2.1954343e-06 -1.3303728e-06 1.5301908e-06 
-4.5705992e-06 -5.8834621e-06 4.1607450e-06 
-8.8318793e-06 -8.9841578e-06 4.8885604e-06 
-6.8710510e-06 -1.4089800e-05 4.2985544e-06 
-4.4402286e-06 -8.0873133e-06 4.2461152e-06 
-1.2045272e-05 -2.7845395e-05 4.7675799e-06 
-8.0683922e-06 -2.2056023e-05 1.0117894e-05 
-2.6893874e-06 -2.6857711e-06 3.3506124e-06 
-1.1888086e-06 -8.4896004e-07 1.7591568e-06 
-1.8165093e-06 -2.4713013e-06 2.9828259e-06 
-8.8178894e-07 -5.8524029e-07 2.2123686e-06 
-5.0094241e-07 1.4375598e-07 9.3571725e-07 
-3.9355683e-07 1.3181172e-07 1.0309511e-06 
-2.7377015e-07 1.7317998e-07 4.3209442e-07 
-1.4819820e-07 1.6772077e-07 4.9551437e-07 
-1.2092352e-07 1.9135511e-07 2.3452139e-07 
-1.2507445e-07 1.6194578e-07 2.6984338e-07 
-7.5142886e-08 1.4029973e-07 1.1681049e-07 
-4.5234106e-08 1.1896104e-07 1.0679659e-07 
-1.4588537e-06 -2.1756634e-06 4.4874337e-06 
-2.6033435e-06 -5.6518088e-06 5.1185739e-06 
-2.4108547e-07 8.8105331e-08 8.2847157e-07 
-1.3091015e-07 2.6274483e-07 1.5245449e-07 
-9.0614039e-06 -3.4267632e-05 1.9977017e-06 
-3.7713102e-07 -1.4929243e-07 1.6586591e-06 
-4.4546763e-07 3.5318155e-07 5.6699247e-07 
-1.1281619e-08 8.9631108e-08 3.0617031e-08 
-5.1206075e-06 -5.7583734e-06 1.2081949e-06 
-1.3632875e-05 -3.7422058e-05 1.0876876e-05 
-1.4877420e-05 -5.4636221e-05 9.3992776e-06 
-1.9970348e-06 -4.9086475e-06 5.6604908e-06 
-1.4521063e-08 1.1765600e-07 1.4373142e-08 
-6.9915174e-08 1.1902966e-07 2.9203551e-07 
-1.1970664e-07 1.7244847e-07 3.9777794e-07 
-1.3863907e-07 7.8076333e-08 1.0265478e-06 
-3.5324214e-07 -3.3432773e-08 1.9246284e-06 
-5.8965143e-06 -2.4412937e-05 1.0265544e-05 
-1.0209793e-05 -4.6663718e-05 1.3196391e-05 
-8.2637088e-09 6.2535065e-08 1.8998486e-08 
-3.1575290e-08 8.4839961e-08 8.0550599e-08 
-1.0389337e-05 -1.2075610e-04 6.0310240e-06 
-2.8297165e-08 1.2646944e-07 5.0413526e-08 
-8.4923002e-08 1.1908185e-07 2.0003898e-07 
-1.7972810e-05 -1.0065449e-04 1.0756237e-05 
-5.5289233e-06 -1.2542313e-05 7.9970105e-06 
-2.8007763e-08 8.8384816e-08 6.3958886e-08 
-7.9235548e-07 -2.3182458e-06 3.8833205e-06 
-9.5611003e-06 -1.6093596e-05 3.0311110e-06 
-3.6328433e-06 -6.4427136e-06 5.4671591e-07 
-5.8118848e-09 7.5861877e-08 4.4369526e-09 
-3.2897350e-07 1.9586281e-07 4.6134704e-07 
-5.0920718e-08 1.1034518e-07 1.0996906e-07 
-1.6283726e-05 -6.0923005e-05 5.9030881e-06 
-3.3903825e-06 -5.1564193e-06 4.2982333e-06 
-3.3337955e-08 1.5014224e-07 6.9825631e-08 
-9.8615580e-08 2.1033046e-07 1.8332976e-07 
-1.1903955e-08 8.2013159e-08 3.2549895e-08 
-5.7070912e-07 -1.1097283e-06 2.8917068e-06 
-9.1494976e-06 -6.6357738e-05 3.4347697e-06 
-1.4689929e-08 6.8702548e-08 9.5283127e-08 
-1.1617707e-08 5.5675038e-08 5.1954508e-08 
-1.9005899e-09 3.9325180e-08 1.7415370e-07 
8.0303320e-09 1.7781442e-08 2.6845237e-07 
-8.7375858e-09 5.4138532e-08 2.9101844e-08 
2.8613286e-08 -1.3923365e-07 4.4964719e-07 
-4.8722967e-08 -6.3930383e-07 8.9290870e-07 
-5.8510441e-08 -1.6729807e-06 1.4717530e-06 
-3.0683671e-07 -4.1373100e-06 3.8139917e-06 
-9.3024136e-07 -8.5586007e-06 6.4343176e-06 
-9.6538770e-07 -1.5723703e-05 7.3548226e-06 
-1.9624529e-06 -3.1575444e-05 1.0619740e-05 
-3.6678739e-06 -5.6781304e-05 9.7579432e-06 
-7.6916604e-06 -9.8248514e-05 8.7283397e-06 
-6.9125267e-06 -1.1739454e-04 6.3268581e-06 
-8.9191344e-06 -1.4075510e-04 5.5005212e-06 
-3.7413884e-06 -1.4445734e-04 4.3380678e-06 
-2.3788629e-09 4.7552852e-08 1.1094174e-08 
-7.0167561e-09 8.3560359e-08 -2.0286668e-08 
4.5462862e-08 1.2807840e-07 -2.2009137e-07 
9.6521330e-07 -2.5801705e-06 -2.3903847e-06 
4.6616906e-06 -1.7264772e-05 -7.0347542e-06 
9.9498593e-06 -4.4703233e-05 -5.4523271e-06 
1.3950768e-08 1.4145260e-07 -7.4983028e-08 
2.6796039e-07 9.8718267e-08 -4.7056758e-07 
2.2406182e-06 -3.7306654e-06 -2.5047436e-06 
7.9900381e-08 -2.6869543e-07 -9.3162974e-08 
-9.1017238e-09 1.1753930e-07 9.3683312e-08 
-4.6302007e-09 6.5991799e-08 1.9856468e-08 
6.3193847e-06 -9.4843372e-06 -3.5767662e-06 
-3.9188688e-09 8.7315321e-08 1.1067014e-08 
1.0517127e-06 -1.3103199e-05 -3.5306182e-06 
1.6284957e-06 -6.5567052e-05 -8.1158414e-06 
2.6733771e-08 8.4878337e-08 2.2217965e-07 
1.8040889e-07 -4.3626471e-08 -1.4124154e-07 
-1.4459343e-08 1.6934445e-07 -4.0974242e-09 
1.9831540e-07 -2.4999706e-06 -1.2281416e-07 
1.6962282e-07 -2.5439664e-07 -9.7404950e-07 
-1.3739482e-08 9.1344056e-08 6.0096134e-08 
7.4450799e-07 -2.3015737e-07 -7.3810588e-07 
2.2110166e-06 -1.0672012e-04 -5.6199842e-06 
7.5196214e-09 7.3307163e-08 -4.1387236e-09 
3.7122018e-06 -7.4941195e-06 -9.5017072e-07 
1.5376022e-08 4.6017025e-08 -1.1960445e-07 
1.0175960e-06 -1.1139418e-06 -1.7812122e-06 
5.5390501e-09 7.2899432e-08 -6.0238108e-08 
2.8454529e-08 6.8435384e-08 -2.4247524e-07 
-2.6825731e-08 2.1307166e-07 5.4472491e-08 
9.9409885e-07 -1.4393178e-06 -3.2532438e-07 
1.0877313e-06 -1.1532098e-05 -1.6041597e-06 
8.5796461e-07 -3.3641958e-05 -2.5666229e-06 
2.0881649e-07 -3.3835668e-06 -1.9757310e-07 
7.8911389e-06 -1.7042068e-05 -1.9889840e-06 
5.2532091e-06 -2.9305038e-05 -3.7243424e-06 
-1.8238312e-09 4.2413024e-08 -1.1907881e-08 
4.7361496e-08 2.4607002e-07 -5.8311862e-08 
-3.9382417e-09 3.1470346e-08 -1.1182296e-08 
1.1491502e-06 -7.2489079e-06 -4.7551257e-06 
2.4946939e-08 -4.4204700e-08 -4.7532868e-07 
7.3680994e-06 -4.2669941e-05 -1.2534009e-06 
4.9552555e-06 -2.5747902e-05 -7.9591764e-06 
-4.5785264e-08 1.9291286e-07 3.2399768e-07 
-1.0124475e-08 9.6067069e-08 3.4398457e-08 
3.0408467e-07 -4.8439750e-07 -2.0328808e-07 
4.6904848e-08 8.0050420e-08 -7.0472737e-08 
5.7446950e-06 -1.3051103e-05 -4.9812384e-06 
-1.7118882e-08 1.5332941e-07 2.6756434e-08 
2.4697286e-07 -1.2973269e-06 -1.6043662e-06 
-2.5199725e-09 1.5600922e-07 1.0502826e-08 
2.7936580e-06 -2.8654172e-06 -1.6921668e-06 
3.0815545e-06 -7.1644798e-05 -1.6121388e-06 
-1.1699852e-08 -8.4840549e-06 2.6361889e-08 
3.7232348e-07 -4.3455002e-06 -2.4015001e-06 
2.0033322e-06 -3.4572961e-06 -3.1175387e-06 
6.4922215e-06 -4.1314644e-05 -3.0474152e-06 
-1.5831241e-09 7.9122259e-08 1.2813120e-08 
-3.2461692e-08 3.3643934e-07 2.7681448e-08 
1.2420617e-07 5.7606133e-08 -1.8671518e-07 
1.9198312e-07 -4.3171551e-07 4.3999493e-09 
1.4693052e-06 -1.1355119e-06 -1.1033700e-06 
-3.2703490e-08 1.4035113e-07 7.1187117e-08 
-9.0332577e-07 -1.1245441e-04 -2.5455508e-06 
2.4628494e-07 -1.1820877e-07 -6.1720914e-07 
1.3406536e-07 -2.8525144e-06 2.5787637e-07 