# vtk DataFile Version 4.0
vtk output
ASCII
DATASET UNSTRUCTURED_GRID
POINTS 460 float
0.0000000e+00 0.0000000e+00 0.0000000e+00 
5.0000000e+00 0.0000000e+00 0.0000000e+00 
5.0000000e+00 3.0000000e+00 0.0000000e+00 
0.0000000e+00 3.0000000e+00 0.0000000e+00 
0.0000000e+00 0.0000000e+00 1.0000000e+01 
5.0000000e+00 0.0000000e+00 1.0000000e+01 
5.0000000e+00 3.0000000e+00 1.0000000e+01 
0.0000000e+00 3.0000000e+00 1.0000000e+01 
1.0000000e+00 3.0000000e+00 -5.0000000e+00 
1.0000000e+00 3.0000000e+00 -4.5000000e+00 
1.0000000e+00 3.0000000e+00 -4.0000000e+00 
1.0000000e+00 3.0000000e+00 -3.5000000e+00 
1.0000000e+00 3.0000000e+00 -3.0000000e+00 
1.0000000e+00 3.0000000e+00 -2.5000000e+00 
1.0000000e+00 3.0000000e+00 -2.0000000e+00 
1.0000000e+00 3.0000000e+00 -1.5000000e+00 
1.0000000e+00 3.0000000e+00 -1.0000000e+00 
1.0000000e+00 3.0000000e+00 -5.0000000e-01 
1.0000000e+00 3.0000000e+00 0.0000000e+00 
1.0000000e+00 3.0000000e+00 5.0000000e-01 
1.0000000e+00 3.0000000e+00 1.0000000e+00 
1.0000000e+00 3.0000000e+00 1.5000000e+00 
1.0000000e+00 3.0000000e+00 2.0000000e+00 
1.0000000e+00 3.0000000e+00 2.5000000e+00 
1.0000000e+00 3.0000000e+00 3.0000000e+00 
1.0000000e+00 3.0000000e+00 3.5000000e+00 
1.0000000e+00 3.0000000e+00 4.0000000e+00 
1.0000000e+00 3.0000000e+00 4.5000000e+00 
1.0000000e+00 3.0000000e+00 5.0000000e+00 
1.0000000e+00 3.0000000e+00 5.5000000e+00 
1.0000000e+00 3.0000000e+00 6.0000000e+00 
1.0000000e+00 3.0000000e+00 6.5000000e+00 
1.0000000e+00 3.0000000e+00 7.0000000e+00 
1.0000000e+00 3.0000000e+00 7.5000000e+00 
1.0000000e+00 3.0000000e+00 8.0000000e+00 
1.0000000e+00 3.0000000e+00 8.5000000e+00 
1.0000000e+00 3.0000000e+00 9.0000000e+00 
1.0000000e+00 3.0000000e+00 9.5000000e+00 
1.0000000e+00 3.0000000e+00 1.0000000e+01 
1.0000000e+00 3.0000000e+00 1.0500000e+01 
1.0000000e+00 3.0000000e+00 1.1000000e+01 
1.0000000e+00 3.0000000e+00 1.1500000e+01 
1.0000000e+00 3.0000000e+00 1.2000000e+01 
1.0000000e+00 3.0000000e+00 1.2500000e+01 
1.0000000e+00 3.0000000e+00 1.3000000e+01 
1.0000000e+00 3.0000000e+00 1.3500000e+01 
1.0000000e+00 3.0000000e+00 1.4000000e+01 
1.0000000e+00 3.0000000e+00 1.4500000e+01 
1.0000000e+00 3.0250001e+00 -5.0000000e+00 
1.0000000e+00 3.0250001e+00 -4.5000000e+00 
1.0000000e+00 3.0250001e+00 -4.0000000e+00 
1.0000000e+00 3.0250001e+00 -3.5000000e+00 
1.0000000e+00 3.0250001e+00 -3.0000000e+00 
1.0000000e+00 3.0250001e+00 -2.5000000e+00 
1.0000000e+00 3.0250001e+00 -2.0000000e+00 
1.0000000e+00 3.0250001e+00 -1.5000000e+00 
1.0000000e+00 3.0250001e+00 -1.0000000e+00 
1.0000000e+00 3.0250001e+00 -5.0000000e-01 
1.0000000e+00 3.0250001e+00 0.0000000e+00 
1.0000000e+00 3.0250001e+00 5.0000000e-01 
1.0000000e+00 3.0250001e+00 1.0000000e+00 
1.0000000e+00 3.0250001e+00 1.5000000e+00 
1.0000000e+00 3.0250001e+00 2.0000000e+00 
1.0000000e+00 3.0250001e+00 2.5000000e+00 
1.0000000e+00 3.0250001e+00 3.0000000e+00 
1.0000000e+00 3.0250001e+00 3.5000000e+00 
1.0000000e+00 3.0250001e+00 4.0000000e+00 
1.0000000e+00 3.0250001e+00 4.5000000e+00 
1.0000000e+00 3.0250001e+00 5.0000000e+00 
1.0000000e+00 3.0250001e+00 5.5000000e+00 
1.0000000e+00 3.0250001e+00 6.0000000e+00 
1.0000000e+00 3.0250001e+00 6.5000000e+00 
1.0000000e+00 3.0250001e+00 7.0000000e+00 
1.0000000e+00 3.0250001e+00 7.5000000e+00 
1.0000000e+00 3.0250001e+00 8.0000000e+00 
1.0000000e+00 3.0250001e+00 8.5000000e+00 
1.0000000e+00 3.0250001e+00 9.0000000e+00 
1.0000000e+00 3.0250001e+00 9.5000000e+00 
1.0000000e+00 3.0250001e+00 1.0000000e+01 
1.0000000e+00 3.0250001e+00 1.0500000e+01 
1.0000000e+00 3.0250001e+00 1.1000000e+01 
1.0000000e+00 3.0250001e+00 1.1500000e+01 
1.0000000e+00 3.0250001e+00 1.2000000e+01 
1.0000000e+00 3.0250001e+00 1.2500000e+01 
1.0000000e+00 3.0250001e+00 1.3000000e+01 
1.0000000e+00 3.0250001e+00 1.3500000e+01 
1.0000000e+00 3.0250001e+00 1.4000000e+01 
1.0000000e+00 3.0250001e+00 1.4500000e+01 
1.0000000e+00 -2.0000000e+00 -5.0000000e+00 
1.0000000e+00 -2.0000000e+00 -4.5000000e+00 
1.0000000e+00 -2.0000000e+00 -4.0000000e+00 
1.0000000e+00 -2.0000000e+00 -3.5000000e+00 
1.0000000e+00 -2.0000000e+00 -3.0000000e+00 
1.0000000e+00 -2.0000000e+00 -2.5000000e+00 
1.0000000e+00 -2.0000000e+00 -2.0000000e+00 
1.0000000e+00 -2.0000000e+00 -1.5000000e+00 
1.0000000e+00 -2.0000000e+00 -1.0000000e+00 
1.0000000e+00 -2.0000000e+00 -5.0000000e-01 
1.0000000e+00 -2.0000000e+00 1.0500000e+01 
1.0000000e+00 -2.0000000e+00 1.1000000e+01 
1.0000000e+00 -2.0000000e+00 1.1500000e+01 
1.0000000e+00 -2.0000000e+00 1.2000000e+01 
1.0000000e+00 -2.0000000e+00 1.2500000e+01 
1.0000000e+00 -2.0000000e+00 1.3000000e+01 
1.0000000e+00 -2.0000000e+00 1.3500000e+01 
1.0000000e+00 -2.0000000e+00 1.4000000e+01 
1.0000000e+00 -2.0000000e+00 1.4500000e+01 
1.0000000e+00 0.0000000e+00 0.0000000e+00 
2.0000000e+00 0.0000000e+00 0.0000000e+00 
3.0000000e+00 0.0000000e+00 0.0000000e+00 
4.0000000e+00 0.0000000e+00 0.0000000e+00 
5.0000000e+00 1.0000000e+00 0.0000000e+00 
5.0000000e+00 2.0000000e+00 0.0000000e+00 
0.0000000e+00 2.0000000e+00 0.0000000e+00 
0.0000000e+00 1.0000000e+00 0.0000000e+00 
0.0000000e+00 0.0000000e+00 1.0000000e+00 
0.0000000e+00 0.0000000e+00 2.0000000e+00 
0.0000000e+00 0.0000000e+00 3.0000000e+00 
0.0000000e+00 0.0000000e+00 4.0000000e+00 
0.0000000e+00 0.0000000e+00 5.0000000e+00 
0.0000000e+00 0.0000000e+00 6.0000000e+00 
0.0000000e+00 0.0000000e+00 7.0000000e+00 
0.0000000e+00 0.0000000e+00 8.0000000e+00 
0.0000000e+00 0.0000000e+00 9.0000000e+00 
5.0000000e+00 0.0000000e+00 1.0000000e+00 
5.0000000e+00 0.0000000e+00 2.0000000e+00 
5.0000000e+00 0.0000000e+00 3.0000000e+00 
5.0000000e+00 0.0000000e+00 4.0000000e+00 
5.0000000e+00 0.0000000e+00 5.0000000e+00 
5.0000000e+00 0.0000000e+00 6.0000000e+00 
5.0000000e+00 0.0000000e+00 7.0000000e+00 
5.0000000e+00 0.0000000e+00 8.0000000e+00 
5.0000000e+00 0.0000000e+00 9.0000000e+00 
1.0000000e+00 0.0000000e+00 1.0000000e+01 
2.0000000e+00 0.0000000e+00 1.0000000e+01 
3.0000000e+00 0.0000000e+00 1.0000000e+01 
4.0000000e+00 0.0000000e+00 1.0000000e+01 
5.0000000e+00 3.0000000e+00 1.0000000e+00 
5.0000000e+00 3.0000000e+00 2.0000000e+00 
5.0000000e+00 3.0000000e+00 3.0000000e+00 
5.0000000e+00 3.0000000e+00 4.0000000e+00 
5.0000000e+00 3.0000000e+00 5.0000000e+00 
5.0000000e+00 3.0000000e+00 6.0000000e+00 
5.0000000e+00 3.0000000e+00 7.0000000e+00 
5.0000000e+00 3.0000000e+00 8.0000000e+00 
5.0000000e+00 3.0000000e+00 9.0000000e+00 
5.0000000e+00 1.0000000e+00 1.0000000e+01 
5.0000000e+00 2.0000000e+00 1.0000000e+01 
0.0000000e+00 3.0000000e+00 1.0000000e+00 
0.0000000e+00 3.0000000e+00 2.0000000e+00 
0.0000000e+00 3.0000000e+00 3.0000000e+00 
0.0000000e+00 3.0000000e+00 4.0000000e+00 
0.0000000e+00 3.0000000e+00 5.0000000e+00 
0.0000000e+00 3.0000000e+00 6.0000000e+00 
0.0000000e+00 3.0000000e+00 7.0000000e+00 
0.0000000e+00 3.0000000e+00 8.0000000e+00 
0.0000000e+00 3.0000000e+00 9.0000000e+00 
0.0000000e+00 2.0000000e+00 1.0000000e+01 
0.0000000e+00 1.0000000e+00 1.0000000e+01 
4.0000000e+00 3.0000000e+00 0.0000000e+00 
3.0000000e+00 3.0000000e+00 0.0000000e+00 
2.0000000e+00 3.0000000e+00 0.0000000e+00 
4.0000000e+00 3.0000000e+00 1.0000000e+01 
3.0000000e+00 3.0000000e+00 1.0000000e+01 
2.0000000e+00 3.0000000e+00 1.0000000e+01 
4.0618000e+00 1.5000000e+00 0.0000000e+00 
1.5046000e+00 7.6549745e-01 0.0000000e+00 
2.5000000e+00 2.1339746e+00 0.0000000e+00 
1.5046000e+00 2.2345026e+00 0.0000000e+00 
2.4957771e+00 8.1560516e-01 0.0000000e+00 
3.4707544e+00 2.2336540e+00 0.0000000e+00 
3.4700506e+00 7.5794268e-01 0.0000000e+00 
8.6322361e-01 1.5000000e+00 0.0000000e+00 
2.0000000e+00 1.5000000e+00 0.0000000e+00 
2.9960666e+00 1.4974480e+00 0.0000000e+00 
4.2679491e+00 7.3205084e-01 0.0000000e+00 
4.2679491e+00 2.2679491e+00 0.0000000e+00 
7.2695929e-01 2.2730408e+00 0.0000000e+00 
7.2695929e-01 7.2695929e-01 0.0000000e+00 
4.1822505e+00 0.0000000e+00 2.5515697e+00 
4.2017918e+00 0.0000000e+00 4.4725966e+00 
4.1114569e+00 0.0000000e+00 6.5092020e+00 
8.6602539e-01 0.0000000e+00 3.5000000e+00 
8.4778279e-01 0.0000000e+00 5.4684029e+00 
8.9629614e-01 0.0000000e+00 7.5867257e+00 
2.5566745e+00 0.0000000e+00 8.1853306e-01 
2.4918270e+00 0.0000000e+00 9.1386929e+00 
8.4677207e-01 0.0000000e+00 1.5042374e+00 
4.0943027e+00 0.0000000e+00 8.4081745e+00 
8.6281651e-01 0.0000000e+00 2.5007062e+00 
1.7315160e+00 0.0000000e+00 3.0001178e+00 
1.7319617e+00 0.0000000e+00 4.0000196e+00 
2.5980761e+00 0.0000000e+00 3.5000000e+00 
2.5536871e+00 0.0000000e+00 4.4963923e+00 
2.5928419e+00 0.0000000e+00 2.4239938e+00 
1.5037409e+00 0.0000000e+00 9.1535149e+00 
1.8433737e+00 0.0000000e+00 8.1858873e+00 
3.0000000e+00 0.0000000e+00 8.2679491e+00 
2.5000000e+00 0.0000000e+00 7.4019237e+00 
3.5042722e+00 0.0000000e+00 7.4271150e+00 
3.0310018e+00 0.0000000e+00 6.5282087e+00 
2.0373929e+00 0.0000000e+00 6.5307913e+00 
3.4767809e+00 0.0000000e+00 5.8031492e+00 
2.5452602e+00 0.0000000e+00 5.5720768e+00 
1.6456656e+00 0.0000000e+00 1.9697139e+00 
8.6297011e-01 0.0000000e+00 4.4947371e+00 
1.0111579e+00 0.0000000e+00 6.5282545e+00 
3.4994321e+00 0.0000000e+00 8.4691072e-01 
4.1860156e+00 0.0000000e+00 3.5040276e+00 
1.7320508e+00 0.0000000e+00 5.0000000e+00 
4.0544066e+00 0.0000000e+00 1.5781221e+00 
1.5817389e+00 0.0000000e+00 9.3943578e-01 
8.3166349e-01 0.0000000e+00 8.5090933e+00 
3.4686174e+00 0.0000000e+00 9.1752682e+00 
3.0709300e+00 0.0000000e+00 1.5799091e+00 
3.3927374e+00 0.0000000e+00 3.0399952e+00 
3.3826034e+00 0.0000000e+00 3.9747651e+00 
4.3420062e+00 0.0000000e+00 7.4688983e+00 
3.4023225e+00 0.0000000e+00 4.9314723e+00 
1.6740381e+00 0.0000000e+00 7.3014426e+00 
4.2715640e+00 0.0000000e+00 5.4758859e+00 
1.6225953e+00 0.0000000e+00 5.8104177e+00 
4.2679491e+00 0.0000000e+00 9.2679491e+00 
7.3205084e-01 0.0000000e+00 7.3205084e-01 
4.2679491e+00 0.0000000e+00 7.3205084e-01 
7.3205084e-01 0.0000000e+00 9.2679491e+00 
3.4586334e+00 0.0000000e+00 2.2347178e+00 
2.2895701e+00 0.0000000e+00 1.5463171e+00 
5.0000000e+00 2.2345026e+00 1.5046000e+00 
[...]
POINT_DATA 460
FIELD FieldData 5
DISPLACEMENT 3 460  float
0.0000000e+00 0.0000000e+00 0.0000000e+00 
0.0000000e+00 0.0000000e+00 0.0000000e+00 
0.0000000e+00 1.6531974e-08 0.0000000e+00 
0.0000000e+00 6.4390493e-09 0.0000000e+00 
0.0000000e+00 0.0000000e+00 0.0000000e+00 
0.0000000e+00 0.0000000e+00 0.0000000e+00 
0.0000000e+00 -2.8612549e-06 0.0000000e+00 
0.0000000e+00 -7.1710696e-05 0.0000000e+00 
0.0000000e+00 3.4280777e-08 0.0000000e+00 
0.0000000e+00 3.4086558e-08 0.0000000e+00 
0.0000000e+00 3.3336345e-08 0.0000000e+00 
0.0000000e+00 3.1829192e-08 0.0000000e+00 
0.0000000e+00 2.9467405e-08 0.0000000e+00 
0.0000000e+00 2.6280908e-08 0.0000000e+00 
0.0000000e+00 2.2434840e-08 0.0000000e+00 
0.0000000e+00 1.8230491e-08 0.0000000e+00 
0.0000000e+00 1.4080465e-08 0.0000000e+00 
0.0000000e+00 1.0423424e-08 0.0000000e+00 
0.0000000e+00 7.6454167e-09 0.0000000e+00 
-1.2263620e-09 5.5682823e-09 -7.4278833e-10 
-2.2720292e-09 4.9332525e-09 -2.2943722e-09 
-2.7106519e-09 7.9990281e-09 -4.3801669e-09 
-4.0114103e-09 1.9480126e-08 -9.6044692e-09 
-4.1714157e-09 4.2652829e-08 -1.1125048e-08 
-4.2756905e-09 7.7517988e-08 -6.7452892e-09 
-4.1663366e-09 1.1435718e-07 1.4533352e-08 
-1.5215104e-08 1.2944994e-07 8.6348251e-08 
-3.4316042e-08 8.7734229e-08 1.8846713e-07 
-1.0732904e-07 -3.4067543e-08 4.7095915e-07 
-2.1134548e-07 -2.1343828e-07 8.1778154e-07 
-2.8249977e-07 -3.4317429e-07 1.3235599e-06 
-7.3921956e-07 -3.0353175e-07 2.3008752e-06 
-1.3054286e-06 -1.5588888e-07 3.3191104e-06 
-2.1439021e-06 -9.3327657e-07 5.4519228e-06 
-2.7500851e-06 -6.0212983e-06 7.9293122e-06 
-4.2582774e-06 -2.3662249e-05 1.7799255e-05 
-6.7300662e-06 -6.8326081e-05 1.5653357e-05 
-5.6051394e-06 -1.6082991e-04 -7.3417978e-06 
0.0000000e+00 -3.1045786e-04 0.0000000e+00 
0.0000000e+00 -4.9312593e-04 0.0000000e+00 
0.0000000e+00 -5.7664141e-04 0.0000000e+00 
0.0000000e+00 -5.0798757e-04 0.0000000e+00 
0.0000000e+00 -3.6829774e-04 0.0000000e+00 
0.0000000e+00 -2.2681584e-04 0.0000000e+00 
0.0000000e+00 -1.1208953e-04 0.0000000e+00 
0.0000000e+00 -2.7714736e-05 0.0000000e+00 
0.0000000e+00 3.5025201e-05 0.0000000e+00 
0.0000000e+00 8.7975292e-05 0.0000000e+00 
0.0000000e+00 3.4468759e-08 0.0000000e+00 
0.0000000e+00 3.4232627e-08 0.0000000e+00 
0.0000000e+00 3.3385021e-08 0.0000000e+00 
0.0000000e+00 3.1831551e-08 0.0000000e+00 
0.0000000e+00 2.9477262e-08 0.0000000e+00 
0.0000000e+00 2.6301331e-08 0.0000000e+00 
0.0000000e+00 2.2453436e-08 0.0000000e+00 
0.0000000e+00 1.8244647e-08 0.0000000e+00 
0.0000000e+00 1.4094517e-08 0.0000000e+00 
0.0000000e+00 1.0441690e-08 0.0000000e+00 
0.0000000e+00 7.5720994e-09 0.0000000e+00 
0.0000000e+00 5.5204366e-09 0.0000000e+00 
0.0000000e+00 4.8496633e-09 0.0000000e+00 
0.0000000e+00 8.1179135e-09 0.0000000e+00 
0.0000000e+00 1.9660284e-08 0.0000000e+00 
0.0000000e+00 4.3088534e-08 0.0000000e+00 
0.0000000e+00 7.8091723e-08 0.0000000e+00 
0.0000000e+00 1.1479532e-07 0.0000000e+00 
0.0000000e+00 1.2897681e-07 0.0000000e+00 
0.0000000e+00 8.5931013e-08 0.0000000e+00 
0.0000000e+00 -3.7935084e-08 0.0000000e+00 
0.0000000e+00 -2.1638897e-07 0.0000000e+00 
0.0000000e+00 -3.4345513e-07 0.0000000e+00 
0.0000000e+00 -2.8218517e-07 0.0000000e+00 
0.0000000e+00 -9.1801873e-08 0.0000000e+00 
0.0000000e+00 -7.7676265e-07 0.0000000e+00 
0.0000000e+00 -5.7861016e-06 0.0000000e+00 
0.0000000e+00 -2.3351362e-05 0.0000000e+00 
0.0000000e+00 -6.8392932e-05 0.0000000e+00 
0.0000000e+00 -1.6151334e-04 0.0000000e+00 
0.0000000e+00 -3.1508881e-04 0.0000000e+00 
0.0000000e+00 -4.9509312e-04 0.0000000e+00 
0.0000000e+00 -5.7892682e-04 0.0000000e+00 
0.0000000e+00 -5.0999084e-04 0.0000000e+00 
0.0000000e+00 -3.6974499e-04 0.0000000e+00 
0.0000000e+00 -2.2770693e-04 0.0000000e+00 
0.0000000e+00 -1.1253539e-04 0.0000000e+00 
0.0000000e+00 -2.7838119e-05 0.0000000e+00 
0.0000000e+00 3.5137808e-05 0.0000000e+00 
0.0000000e+00 8.8285065e-05 0.0000000e+00 
0.0000000e+00 0.0000000e+00 0.0000000e+00 
0.0000000e+00 0.0000000e+00 0.0000000e+00 
0.0000000e+00 0.0000000e+00 0.0000000e+00 
0.0000000e+00 0.0000000e+00 0.0000000e+00 
0.0000000e+00 0.0000000e+00 0.0000000e+00 
0.0000000e+00 0.0000000e+00 0.0000000e+00 
0.0000000e+00 0.0000000e+00 0.0000000e+00 
0.0000000e+00 0.0000000e+00 0.0000000e+00 
0.0000000e+00 0.0000000e+00 0.0000000e+00 
0.0000000e+00 0.0000000e+00 0.0000000e+00 
0.0000000e+00 0.0000000e+00 0.0000000e+00 
0.0000000e+00 0.0000000e+00 0.0000000e+00 
0.0000000e+00 0.0000000e+00 0.0000000e+00 
0.0000000e+00 0.0000000e+00 0.0000000e+00 
0.0000000e+00 0.0000000e+00 0.0000000e+00 
0.0000000e+00 0.0000000e+00 0.0000000e+00 
0.0000000e+00 0.0000000e+00 0.0000000e+00 
0.0000000e+00 0.0000000e+00 0.0000000e+00 
0.0000000e+00 0.0000000e+00 0.0000000e+00 
0.0000000e+00 0.0000000e+00 0.0000000e+00 
0.0000000e+00 0.0000000e+00 0.0000000e+00 
0.0000000e+00 0.0000000e+00 0.0000000e+00 
0.0000000e+00 0.0000000e+00 0.0000000e+00 
0.0000000e+00 8.1860598e-09 0.0000000e+00 
0.0000000e+00 1.4228034e-08 0.0000000e+00 
0.0000000e+00 5.3915894e-09 0.0000000e+00 
0.0000000e+00 3.3672412e-09 0.0000000e+00 
0.0000000e+00 0.0000000e+00 0.0000000e+00 
0.0000000e+00 0.0000000e+00 0.0000000e+00 
0.0000000e+00 0.0000000e+00 0.0000000e+00 
0.0000000e+00 0.0000000e+00 0.0000000e+00 
0.0000000e+00 0.0000000e+00 0.0000000e+00 
0.0000000e+00 0.0000000e+00 0.0000000e+00 
0.0000000e+00 0.0000000e+00 0.0000000e+00 
0.0000000e+00 0.0000000e+00 0.0000000e+00 
0.0000000e+00 0.0000000e+00 0.0000000e+00 
0.0000000e+00 0.0000000e+00 0.0000000e+00 
0.0000000e+00 0.0000000e+00 0.0000000e+00 
0.0000000e+00 0.0000000e+00 0.0000000e+00 
0.0000000e+00 0.0000000e+00 0.0000000e+00 
0.0000000e+00 0.0000000e+00 0.0000000e+00 
0.0000000e+00 0.0000000e+00 0.0000000e+00 
0.0000000e+00 0.0000000e+00 0.0000000e+00 
0.0000000e+00 0.0000000e+00 0.0000000e+00 
0.0000000e+00 0.0000000e+00 0.0000000e+00 
0.0000000e+00 0.0000000e+00 0.0000000e+00 
0.0000000e+00 0.0000000e+00 0.0000000e+00 
0.0000000e+00 0.0000000e+00 0.0000000e+00 
0.0000000e+00 0.0000000e+00 0.0000000e+00 
0.0000000e+00 1.6539003e-08 0.0000000e+00 
0.0000000e+00 2.3549562e-08 0.0000000e+00 
0.0000000e+00 4.7285393e-08 0.0000000e+00 
0.0000000e+00 1.1461847e-07 0.0000000e+00 
0.0000000e+00 1.6612883e-07 0.0000000e+00 
0.0000000e+00 2.0364577e-07 0.0000000e+00 
0.0000000e+00 -3.6770408e-07 0.0000000e+00 
0.0000000e+00 -9.2085025e-07 0.0000000e+00 
0.0000000e+00 -2.5529089e-06 0.0000000e+00 
0.0000000e+00 -1.6045441e-06 0.0000000e+00 
0.0000000e+00 -2.5583408e-06 0.0000000e+00 
0.0000000e+00 4.1936397e-09 0.0000000e+00 
0.0000000e+00 1.1715676e-08 0.0000000e+00 
0.0000000e+00 5.3277624e-08 0.0000000e+00 
0.0000000e+00 8.8263235e-08 0.0000000e+00 
0.0000000e+00 -6.7245772e-08 0.0000000e+00 
0.0000000e+00 -8.3808152e-07 0.0000000e+00 
0.0000000e+00 -3.8080786e-06 0.0000000e+00 
0.0000000e+00 -1.5691830e-05 0.0000000e+00 
0.0000000e+00 -5.2090832e-05 0.0000000e+00 
0.0000000e+00 -6.4485343e-05 0.0000000e+00 
0.0000000e+00 -3.2345735e-05 0.0000000e+00 
0.0000000e+00 1.5586565e-08 0.0000000e+00 
0.0000000e+00 1.3781256e-08 0.0000000e+00 
0.0000000e+00 1.0851831e-08 0.0000000e+00 
0.0000000e+00 -5.1302482e-06 0.0000000e+00 
0.0000000e+00 -1.3974571e-05 0.0000000e+00 
0.0000000e+00 -3.6489877e-05 0.0000000e+00 
0.0000000e+00 1.0807344e-08 0.0000000e+00 
0.0000000e+00 3.5843597e-09 0.0000000e+00 
0.0000000e+00 1.1079734e-08 0.0000000e+00 
0.0000000e+00 7.9354185e-09 0.0000000e+00 
0.0000000e+00 5.1750839e-09 0.0000000e+00 
0.0000000e+00 1.3552175e-08 0.0000000e+00 
0.0000000e+00 5.7198193e-09 0.0000000e+00 
0.0000000e+00 5.1487592e-09 0.0000000e+00 
0.0000000e+00 7.7436253e-09 0.0000000e+00 
0.0000000e+00 9.6775130e-09 0.0000000e+00 
0.0000000e+00 5.6774039e-09 0.0000000e+00 
0.0000000e+00 1.4730486e-08 0.0000000e+00 
0.0000000e+00 6.4238481e-09 0.0000000e+00 
0.0000000e+00 2.8184908e-09 0.0000000e+00 
0.0000000e+00 0.0000000e+00 0.0000000e+00 
0.0000000e+00 0.0000000e+00 0.0000000e+00 
0.0000000e+00 0.0000000e+00 0.0000000e+00 
0.0000000e+00 0.0000000e+00 0.0000000e+00 
0.0000000e+00 0.0000000e+00 0.0000000e+00 
0.0000000e+00 0.0000000e+00 0.0000000e+00 
0.0000000e+00 0.0000000e+00 0.0000000e+00 
0.0000000e+00 0.0000000e+00 0.0000000e+00 
0.0000000e+00 0.0000000e+00 0.0000000e+00 
0.0000000e+00 0.0000000e+00 0.0000000e+00 
0.0000000e+00 0.0000000e+00 0.0000000e+00 
0.0000000e+00 0.0000000e+00 0.0000000e+00 
0.0000000e+00 0.0000000e+00 0.0000000e+00 
0.0000000e+00 0.0000000e+00 0.0000000e+00 
0.0000000e+00 0.0000000e+00 0.0000000e+00 
0.0000000e+00 0.0000000e+00 0.0000000e+00 
0.0000000e+00 0.0000000e+00 0.0000000e+00 
0.0000000e+00 0.0000000e+00 0.0000000e+00 
0.0000000e+00 0.0000000e+00 0.0000000e+00 
0.0000000e+00 0.0000000e+00 0.0000000e+00 
0.0000000e+00 0.0000000e+00 0.0000000e+00 
0.0000000e+00 0.0000000e+00 0.0000000e+00 
0.0000000e+00 0.0000000e+00 0.0000000e+00 
0.0000000e+00 0.0000000e+00 0.0000000e+00 
0.0000000e+00 0.0000000e+00 0.0000000e+00 
0.0000000e+00 0.0000000e+00 0.0000000e+00 
0.0000000e+00 0.0000000e+00 0.0000000e+00 
0.0000000e+00 0.0000000e+00 0.0000000e+00 
0.0000000e+00 0.0000000e+00 0.0000000e+00 
0.0000000e+00 0.0000000e+00 0.0000000e+00 
0.0000000e+00 0.0000000e+00 0.0000000e+00 
0.0000000e+00 0.0000000e+00 0.0000000e+00 
0.0000000e+00 0.0000000e+00 0.0000000e+00 
0.0000000e+00 0.0000000e+00 0.0000000e+00 
0.0000000e+00 0.0000000e+00 0.0000000e+00 
0.0000000e+00 0.0000000e+00 0.0000000e+00 
0.0000000e+00 0.0000000e+00 0.0000000e+00 
0.0000000e+00 0.0000000e+00 0.0000000e+00 
0.0000000e+00 0.0000000e+00 0.0000000e+00 
0.0000000e+00 0.0000000e+00 0.0000000e+00 
0.0000000e+00 0.0000000e+00 0.0000000e+00 
0.0000000e+00 0.0000000e+00 0.0000000e+00 
0.0000000e+00 0.0000000e+00 0.0000000e+00 
0.0000000e+00 0.0000000e+00 0.0000000e+00 
0.0000000e+00 0.0000000e+00 0.0000000e+00 
0.0000000e+00 0.0000000e+00 0.0000000e+00 
0.0000000e+00 0.0000000e+00 0.0000000e+00 
0.0000000e+00 0.0000000e+00 0.0000000e+00 
0.0000000e+00 0.0000000e+00 0.0000000e+00 
0.0000000e+00 1.7459698e-08 0.0000000e+00 
0.0000000e+00 -1.6218153e-06 0.0000000e+00 
0.0000000e+00 6.7055176e-08 0.0000000e+00 
0.0000000e+00 1.9919038e-07 0.0000000e+00 
0.0000000e+00 -5.1129678e-07 0.0000000e+00 
0.0000000e+00 1.3193332e-08 0.0000000e+00 
0.0000000e+00 4.5277613e-08 0.0000000e+00 
0.0000000e+00 -1.9177127e-08 0.0000000e+00 
0.0000000e+00 3.0258157e-08 0.0000000e+00 
0.0000000e+00 8.3394696e-08 0.0000000e+00 
0.0000000e+00 2.6942693e-08 0.0000000e+00 
0.0000000e+00 1.3933524e-07 0.0000000e+00 
0.0000000e+00 2.0597307e-07 0.0000000e+00 
0.0000000e+00 -3.3005827e-07 0.0000000e+00 
0.0000000e+00 7.3533881e-09 0.0000000e+00 
0.0000000e+00 -7.5804411e-07 0.0000000e+00 
0.0000000e+00 -1.0332964e-06 0.0000000e+00 
0.0000000e+00 1.2097891e-08 0.0000000e+00 
0.0000000e+00 1.2246971e-07 0.0000000e+00 
0.0000000e+00 -1.9514578e-08 0.0000000e+00 
0.0000000e+00 1.5297612e-08 0.0000000e+00 
0.0000000e+00 1.7386417e-07 0.0000000e+00 
0.0000000e+00 7.5954055e-08 0.0000000e+00 
0.0000000e+00 3.4240145e-08 0.0000000e+00 
0.0000000e+00 -5.6821580e-07 0.0000000e+00 
0.0000000e+00 -2.0690204e-06 0.0000000e+00 
0.0000000e+00 -8.4195847e-07 0.0000000e+00 
0.0000000e+00 1.5548496e-08 0.0000000e+00 
0.0000000e+00 6.1216934e-09 0.0000000e+00 
0.0000000e+00 -3.2591484e-05 0.0000000e+00 
0.0000000e+00 2.9869296e-09 0.0000000e+00 
0.0000000e+00 9.6267252e-09 0.0000000e+00 
0.0000000e+00 1.2430204e-08 0.0000000e+00 
0.0000000e+00 -4.6714667e-06 0.0000000e+00 
0.0000000e+00 7.0503198e-08 0.0000000e+00 
0.0000000e+00 -3.4608479e-07 0.0000000e+00 
0.0000000e+00 -9.0420208e-06 0.0000000e+00 
0.0000000e+00 2.6296858e-08 0.0000000e+00 
0.0000000e+00 2.2882009e-08 0.0000000e+00 
0.0000000e+00 5.9556417e-08 0.0000000e+00 
0.0000000e+00 -2.0196674e-06 0.0000000e+00 
0.0000000e+00 -1.0616037e-06 0.0000000e+00 
0.0000000e+00 -2.8834827e-05 0.0000000e+00 
0.0000000e+00 3.8204835e-09 0.0000000e+00 
0.0000000e+00 3.2345433e-09 0.0000000e+00 
0.0000000e+00 -9.8663459e-06 0.0000000e+00 
0.0000000e+00 -3.6174907e-08 0.0000000e+00 
0.0000000e+00 -1.2228046e-06 0.0000000e+00 
0.0000000e+00 4.1575081e-08 0.0000000e+00 
0.0000000e+00 3.1792606e-08 0.0000000e+00 
0.0000000e+00 -3.8067581e-06 0.0000000e+00 
0.0000000e+00 -1.5649336e-07 0.0000000e+00 
0.0000000e+00 -1.3209857e-05 0.0000000e+00 
0.0000000e+00 7.2285018e-09 0.0000000e+00 
0.0000000e+00 -1.5701395e-05 0.0000000e+00 
0.0000000e+00 4.2632990e-09 0.0000000e+00 
0.0000000e+00 1.9330715e-09 0.0000000e+00 
0.0000000e+00 -5.7820806e-05 0.0000000e+00 
0.0000000e+00 -1.7804297e-05 0.0000000e+00 
0.0000000e+00 -3.3641766e-06 0.0000000e+00 
0.0000000e+00 -2.2697770e-05 0.0000000e+00 
0.0000000e+00 -8.1124213e-05 0.0000000e+00 
0.0000000e+00 -9.6473022e-06 0.0000000e+00 
0.0000000e+00 -8.7716544e-06 0.0000000e+00 
0.0000000e+00 -4.1589592e-06 0.0000000e+00 
0.0000000e+00 -6.0509512e-05 0.0000000e+00 
0.0000000e+00 -3.0821346e-05 0.0000000e+00 
0.0000000e+00 -1.1014666e-05 0.0000000e+00 
0.0000000e+00 -1.8188384e-06 0.0000000e+00 
0.0000000e+00 -3.8500802e-06 0.0000000e+00 
0.0000000e+00 -1.1432257e-04 0.0000000e+00 
0.0000000e+00 -2.6123946e-05 0.0000000e+00 
-5.4001543e-08 1.9290864e-07 3.0121680e-07 
-5.0245137e-07 -6.6392556e-07 1.7098102e-06 
-2.6236885e-06 -7.0759538e-06 6.2310673e-06 
-3.4612411e-09 2.7930520e-08 -1.1415323e-08 
-8.9376666e-09 9.6702145e-08 1.0505159e-08 
-1.4761787e-07 2.0755841e-07 2.3797379e-07 
-4.3745893e-10 3.7996568e-08 -4.8406461e-09 
-8.4025140e-07 -6.6900816e-07 1.0805753e-06 
-2.8003817e-09 8.3408089e-09 -3.6462919e-09 
-6.4312435e-06 -3.7564681e-05 1.2885981e-05 
-1.4347903e-09 1.4863601e-08 -1.7110215e-09 
-3.7787202e-06 -8.1871231e-06 1.4047216e-06 
-5.4571404e-07 -1.0075468e-07 7.1068155e-07 
-1.1452420e-06 -9.0360317e-07 1.8986268e-06 
-2.7477752e-06 -3.1976087e-06 3.4150071e-06 
-1.9487068e-06 -2.6864982e-06 2.5358001e-06 
-8.9331820e-07 -9.2222109e-07 1.5261685e-06 
-4.2355218e-06 -9.5645346e-06 4.2904680e-06 
-1.3859708e-06 -1.9114898e-06 3.3467791e-06 
-4.5254592e-07 -1.1503133e-07 1.0705169e-06 
-1.9722675e-07 1.2669091e-07 4.2803904e-07 
-2.4409999e-07 2.3102240e-08 7.0044769e-07 
-8.9244764e-08 2.2313112e-07 3.4542254e-07 
-5.0908088e-08 2.1829098e-07 1.2756915e-07 
-3.4570377e-08 1.8759664e-07 1.0055991e-07 
-1.7972971e-08 1.1011874e-07 2.9851353e-08 
-4.6128292e-09 9.9068629e-08 1.9413262e-08 
-3.2281700e-09 6.7066537e-08 -2.8449305e-09 
-5.4543405e-09 4.8862976e-08 -2.4138238e-09 
-2.2702762e-09 3.1365825e-08 -9.3979757e-09 
-2.4888787e-09 1.9401542e-08 -6.1617871e-09 
-1.7375915e-07 1.6915509e-07 7.2576358e-07 
-3.6529747e-07 -1.6301057e-07 1.0825140e-06 
-2.2649498e-08 1.2919318e-07 3.7877378e-08 
-4.0234234e-09 8.8175810e-08 1.9099773e-09 
-5.3391859e-06 -1.8429158e-05 2.9553926e-06 
-2.8141796e-08 2.2199541e-07 1.7421752e-07 
-6.0815559e-08 1.9737045e-07 1.0604139e-07 
-1.8863184e-09 1.2952354e-08 -1.4949478e-09 
-2.1833353e-06 -2.8273762e-06 1.3677613e-06 
-2.7883373e-06 -5.5268824e-06 5.4590864e-06 
-3.9390889e-06 -1.3523070e-05 6.1604369e-06 
-2.7985811e-07 -1.6853802e-08 9.7517500e-07 
-1.6595376e-10 1.9344144e-08 -2.3904714e-09 
-4.3955106e-09 5.1451465e-08 -8.3758520e-09 
-5.5203189e-09 7.5581376e-08 -6.9870454e-10 
-1.6274742e-08 1.2528371e-07 5.9757085e-08 
-4.3584674e-08 1.7418991e-07 1.7646144e-07 
-9.7452448e-07 -1.3433906e-06 2.7247456e-06 
-1.7045743e-06 -3.8991502e-06 4.8694001e-06 
-1.9331254e-09 7.7798452e-09 -1.2312689e-09 
-2.8223432e-09 1.4776404e-08 -6.9873378e-09 
-5.0384278e-06 -6.7509318e-05 7.9032188e-06 
-1.9305553e-09 1.7850356e-08 -3.8542134e-09 
-3.9235259e-09 3.8556063e-08 -1.2294026e-08 
-4.3975406e-06 -1.8793407e-05 1.0342560e-05 
-8.5264639e-07 -9.7848431e-07 2.1483659e-06 
-2.6543041e-09 1.3392595e-08 -5.3478111e-09 
-1.0471030e-07 6.8768742e-08 5.3907348e-07 
-4.0535051e-06 -7.1281306e-06 3.3123149e-06 
-1.8543310e-06 -3.8445282e-06 7.7900091e-07 
-6.0685873e-10 1.6361096e-08 -7.1846540e-10 
-2.4831714e-08 1.3779737e-07 4.3993250e-08 
-2.7921123e-09 2.0073944e-08 -8.8557925e-09 
-7.2064145e-06 -2.6490772e-05 8.0942882e-06 
-5.4559052e-07 -2.1161556e-07 1.2528425e-06 
-1.0986648e-09 2.4942809e-08 -4.0661208e-09 
-2.4157989e-09 5.6751357e-08 1.0593685e-09 
-2.0723832e-09 1.0491022e-08 -1.8985153e-09 
-6.8888291e-08 1.7398743e-07 3.7510034e-07 
-6.9469684e-06 -3.6899713e-05 6.5711465e-06 
-2.3243680e-09 2.1041043e-08 -7.5555810e-09 
-2.7003466e-09 1.0361075e-08 -5.7732614e-09 
-2.5379250e-09 4.4314469e-08 -9.7008401e-09 
-1.9352810e-09 7.4450583e-08 -5.1336988e-09 
-1.9441757e-09 5.8465459e-09 -2.8857357e-09 
-1.9747017e-09 1.0415843e-07 1.4371275e-08 
-1.2361425e-08 9.9801881e-08 6.7603267e-08 
-1.8470395e-08 5.1769319e-08 1.6304672e-07 
-8.1201293e-08 -1.8006597e-07 5.7600369e-07 
-2.3331604e-07 -4.4718306e-07 1.1710925e-06 
-2.0739907e-07 -8.8873736e-07 1.6156748e-06 
-3.9821620e-07 -2.1015908e-06 2.6701057e-06 
-5.8998631e-07 -4.2495221e-06 4.0927880e-06 
-1.2256196e-06 -1.0317199e-05 5.7288285e-06 
-1.7147494e-06 -2.1931361e-05 8.8583856e-06 
-1.7564555e-06 -4.5647597e-05 9.7327538e-06 
-3.0637627e-06 -9.3394010e-05 6.6099915e-06 
-1.0010782e-09 5.8468643e-09 -8.9346486e-10 
9.1616986e-10 1.4858579e-08 -3.7304632e-10 
1.0881447e-09 8.8177664e-08 -2.5804765e-08 
6.9637061e-08 1.0250534e-07 -4.5403345e-07 
6.5564427e-07 -2.4142159e-06 -2.1427518e-06 
2.6488703e-06 -1.6106964e-05 -6.0443335e-06 
8.9954605e-10 3.1196674e-08 -3.4505681e-09 
3.2020697e-08 1.1249313e-07 -7.2229774e-08 
2.8855067e-07 -1.8607673e-07 -7.4672175e-07 
-1.8910111e-08 1.8386228e-07 -3.9508954e-08 
-3.0472841e-10 4.3747111e-08 1.5911028e-10 
1.7459047e-10 6.4543095e-09 -1.9721011e-10 
1.6463799e-06 -2.2089675e-06 -2.2026350e-06 
4.8255766e-10 1.1013113e-08 -7.8583369e-11 
6.3701378e-08 -6.6384553e-07 -4.1039249e-07 
1.4856181e-07 -8.0608252e-06 -2.9078976e-06 
-5.1195728e-09 1.1811868e-07 6.2661110e-10 
1.6190208e-08 2.0182674e-07 -2.4239590e-08 
2.0348827e-09 4.4914039e-08 -5.7714855e-10 
-2.3066336e-09 1.2695544e-07 -1.1838902e-08 
-1.4443614e-08 1.1415004e-07 -1.4349472e-07 
-7.3500184e-10 1.6794591e-08 -1.3948228e-09 
1.1053590e-07 1.1688245e-07 -1.8035138e-07 
1.7023964e-06 -3.6543559e-05 -9.3982426e-06 
4.4415868e-10 1.1610482e-08 6.1364258e-10 
1.3728412e-06 -3.8727831e-06 -7.3665103e-07 
1.8169156e-09 2.3987331e-08 -7.1829120e-09 
1.1881137e-07 3.7813983e-08 -4.0070367e-07 
5.8702287e-10 1.4429613e-08 -3.1099505e-09 
-1.1190354e-09 3.5217234e-08 -2.7075028e-08 
1.6675481e-09 9.5051092e-08 3.8866501e-09 
1.9584317e-07 -1.1324531e-07 -1.5895679e-07 
-1.4611382e-07 -1.2847984e-06 -3.0423615e-07 
-2.9945360e-07 -2.0454006e-06 1.9395836e-08 
-5.7674328e-08 7.0824747e-08 2.2505404e-09 
2.8269367e-06 -8.5166348e-06 -2.1163901e-06 
2.3001904e-07 -6.2989989e-06 -1.8142956e-06 
5.6361749e-10 5.5404006e-09 -4.7656074e-10 
8.0246387e-09 7.0053360e-08 -2.7546481e-09 
6.6078049e-10 2.8712046e-09 2.5604513e-10 
1.6496907e-07 -6.7464543e-07 -1.1145269e-06 
-1.2068374e-08 8.0757417e-08 -6.6795423e-08 
2.5457982e-06 -2.2230219e-05 -1.8043552e-06 
8.2315154e-07 -5.4063235e-06 -4.5509300e-06 
-5.0571156e-09 1.4985514e-07 1.3369032e-08 
-6.1110006e-11 1.1288180e-08 -4.3811298e-11 
2.0931388e-08 2.3345581e-07 -4.0088349e-08 
4.6379487e-09 2.2765656e-08 -3.2079406e-09 
1.4641097e-06 -3.0469682e-06 -2.6495516e-06 
-1.5355680e-12 2.2624558e-08 -4.1781423e-10 
3.7485441e-09 2.7562541e-08 -2.5779107e-07 
8.3215199e-11 2.5002391e-08 8.0800422e-10 
7.2850463e-07 -6.9512305e-07 -9.4133941e-07 
2.8211736e-07 -1.8038969e-05 -1.3248301e-06 
-1.3619477e-07 -3.3626597e-07 1.6865842e-07 
2.3583471e-08 -3.5865636e-08 -3.3609979e-07 
2.4722257e-07 -2.9618352e-07 -8.7142718e-07 
2.3377852e-06 -1.8335852e-05 -6.1197661e-06 
6.4044249e-11 1.3290792e-08 3.9255754e-10 
-3.6641754e-09 1.4736870e-07 1.1451126e-08 
1.3702459e-08 4.3569976e-08 -3.0262552e-08 
-1.0013154e-08 2.3416499e-07 3.6779575e-08 
2.9945815e-07 -7.1054316e-08 -4.3220794e-07 
-3.5493433e-10 2.6045585e-08 -7.4761053e-10 
-7.5833373e-07 -1.7450762e-05 -1.5554251e-06 
2.1595064e-08 5.3736375e-08 -9.5693629e-08 
-9.4600175e-08 -1.0976830e-06 2.5764578e-07 