# vtk DataFile Version 4.0
vtk output
ASCII
DATASET UNSTRUCTURED_GRID
POINTS 460 float
0.0000000e+00 0.0000000e+00 0.0000000e+00 
5.0000000e+00 0.0000000e+00 0.0000000e+00 
5.0000000e+00 3.0000000e+00 0.0000000e+00 
0.0000000e+00 3.0000000e+00 0.0000000e+00 
0.0000000e+00 0.0000000e+00 1.0000000e+01 
5.0000000e+00 0.0000000e+00 1.0000000e+01 
5.0000000e+00 3.0000000e+00 1.0000000e+01 
0.0000000e+00 3.0000000e+00 1.0000000e+01 
1.0000000e+00 3.0000000e+00 -5.0000000e+00 
1.0000000e+00 3.0000000e+00 -4.5000000e+00 
1.0000000e+00 3.0000000e+00 -4.0000000e+00 
1.0000000e+00 3.0000000e+00 -3.5000000e+00 
1.0000000e+00 3.0000000e+00 -3.0000000e+00 
1.0000000e+00 3.0000000e+00 -2.5000000e+00 
1.0000000e+00 3.0000000e+00 -2.0000000e+00 
1.0000000e+00 3.0000000e+00 -1.5000000e+00 
1.0000000e+00 3.0000000e+00 -1.0000000e+00 
1.0000000e+00 3.0000000e+00 -5.0000000e-01 
1.0000000e+00 3.0000000e+00 0.0000000e+00 
1.0000000e+00 3.0000000e+00 5.0000000e-01 
1.0000000e+00 3.0000000e+00 1.0000000e+00 
1.0000000e+00 3.0000000e+00 1.5000000e+00 
1.0000000e+00 3.0000000e+00 2.0000000e+00 
1.0000000e+00 3.0000000e+00 2.5000000e+00 
1.0000000e+00 3.0000000e+00 3.0000000e+00 
1.0000000e+00 3.0000000e+00 3.5000000e+00 
1.0000000e+00 3.0000000e+00 4.0000000e+00 
1.0000000e+00 3.0000000e+00 4.5000000e+00 
1.0000000e+00 3.0000000e+00 5.0000000e+00 
1.0000000e+00 3.0000000e+00 5.5000000e+00 
1.0000000e+00 3.0000000e+00 6.0000000e+00 
1.0000000e+00 3.0000000e+00 6.5000000e+00 
1.0000000e+00 3.0000000e+00 7.0000000e+00 
1.0000000e+00 3.0000000e+00 7.5000000e+00 
1.0000000e+00 3.0000000e+00 8.0000000e+00 
1.0000000e+00 3.0000000e+00 8.5000000e+00 
1.0000000e+00 3.0000000e+00 9.0000000e+00 
1.0000000e+00 3.0000000e+00 9.5000000e+00 
1.0000000e+00 3.0000000e+00 1.0000000e+01 
1.0000000e+00 3.0000000e+00 1.0500000e+01 
1.0000000e+00 3.0000000e+00 1.1000000e+01 
1.0000000e+00 3.0000000e+00 1.1500000e+01 
1.0000000e+00 3.0000000e+00 1.2000000e+01 
1.0000000e+00 3.0000000e+00 1.2500000e+01 
1.0000000e+00 3.0000000e+00 1.3000000e+01 
1.0000000e+00 3.0000000e+00 1.3500000e+01 
1.0000000e+00 3.0000000e+00 1.4000000e+01 
1.0000000e+00 3.0000000e+00 1.4500000e+01 
1.0000000e+00 3.0250001e+00 -5.0000000e+00 
1.0000000e+00 3.0250001e+00 -4.5000000e+00 
1.0000000e+00 3.0250001e+00 -4.0000000e+00 
1.0000000e+00 3.0250001e+00 -3.5000000e+00 
1.0000000e+00 3.0250001e+00 -3.0000000e+00 
1.0000000e+00 3.0250001e+00 -2.5000000e+00 
1.0000000e+00 3.0250001e+00 -2.0000000e+00 
1.0000000e+00 3.0250001e+00 -1.5000000e+00 
1.0000000e+00 3.0250001e+00 -1.0000000e+00 
1.0000000e+00 3.0250001e+00 -5.0000000e-01 
1.0000000e+00 3.0250001e+00 0.0000000e+00 
1.0000000e+00 3.0250001e+00 5.0000000e-01 
1.0000000e+00 3.0250001e+00 1.0000000e+00 
1.0000000e+00 3.0250001e+00 1.5000000e+00 
1.0000000e+00 3.0250001e+00 2.0000000e+00 
1.0000000e+00 3.0250001e+00 2.5000000e+00 
1.0000000e+00 3.0250001e+00 3.0000000e+00 
1.0000000e+00 3.0250001e+00 3.5000000e+00 
1.0000000e+00 3.0250001e+00 4.0000000e+00 
1.0000000e+00 3.0250001e+00 4.5000000e+00 
1.0000000e+00 3.0250001e+00 5.0000000e+00 
1.0000000e+00 3.0250001e+00 5.5000000e+00 
1.0000000e+00 3.0250001e+00 6.0000000e+00 
1.0000000e+00 3.0250001e+00 6.5000000e+00 
1.0000000e+00 3.0250001e+00 7.0000000e+00 
1.0000000e+00 3.0250001e+00 7.5000000e+00 
1.0000000e+00 3.0250001e+00 8.0000000e+00 
1.0000000e+00 3.0250001e+00 8.5000000e+00 
1.0000000e+00 3.0250001e+00 9.0000000e+00 
1.0000000e+00 3.0250001e+00 9.5000000e+00 
1.0000000e+00 3.0250001e+00 1.0000000e+01 
1.0000000e+00 3.0250001e+00 1.0500000e+01 
1.0000000e+00 3.0250001e+00 1.1000000e+01 
1.0000000e+00 3.0250001e+00 1.1500000e+01 
1.0000000e+00 3.0250001e+00 1.2000000e+01 
1.0000000e+00 3.0250001e+00 1.2500000e+01 
1.0000000e+00 3.0250001e+00 1.3000000e+01 
1.0000000e+00 3.0250001e+00 1.3500000e+01 
1.0000000e+00 3.0250001e+00 1.4000000e+01 
1.0000000e+00 3.0250001e+00 1.4500000e+01 
1.0000000e+00 -2.0000000e+00 -5.0000000e+00 
1.0000000e+00 -2.0000000e+00 -4.5000000e+00 
1.0000000e+00 -2.0000000e+00 -4.0000000e+00 
1.0000000e+00 -2.0000000e+00 -3.5000000e+00 
1.0000000e+00 -2.0000000e+00 -3.0000000e+00 
1.0000000e+00 -2.0000000e+00 -2.5000000e+00 
1.0000000e+00 -2.0000000e+00 -2.0000000e+00 
1.0000000e+00 -2.0000000e+00 -1.5000000e+00 
1.0000000e+00 -2.0000000e+00 -1.0000000e+00 
1.0000000e+00 -2.0000000e+00 -5.0000000e-01 
1.0000000e+00 -2.0000000e+00 1.0500000e+01 
1.0000000e+00 -2.0000000e+00 1.1000000e+01 
1.0000000e+00 -2.0000000e+00 1.1500000e+01 
1.0000000e+00 -2.0000000e+00 1.2000000e+01 
1.0000000e+00 -2.0000000e+00 1.2500000e+01 
1.0000000e+00 -2.0000000e+00 1.3000000e+01 
1.0000000e+00 -2.0000000e+00 1.3500000e+01 
1.0000000e+00 -2.0000000e+00 1.4000000e+01 
1.0000000e+00 -2.0000000e+00 1.4500000e+01 
1.0000000e+00 0.0000000e+00 0.0000000e+00 
2.0000000e+00 0.0000000e+00 0.0000000e+00 
3.0000000e+00 0.0000000e+00 0.0000000e+00 
4.0000000e+00 0.0000000e+00 0.0000000e+00 
5.0000000e+00 1.0000000e+00 0.0000000e+00 
5.0000000e+00 2.0000000e+00 0.0000000e+00 
0.0000000e+00 2.0000000e+00 0.0000000e+00 
0.0000000e+00 1.0000000e+00 0.0000000e+00 
0.0000000e+00 0.0000000e+00 1.0000000e+00 
0.0000000e+00 0.0000000e+00 2.0000000e+00 
0.0000000e+00 0.0000000e+00 3.0000000e+00 
0.0000000e+00 0.0000000e+00 4.0000000e+00 
0.0000000e+00 0.0000000e+00 5.0000000e+00 
0.0000000e+00 0.0000000e+00 6.0000000e+00 
0.0000000e+00 0.0000000e+00 7.0000000e+00 
0.0000000e+00 0.0000000e+00 8.0000000e+00 
0.0000000e+00 0.0000000e+00 9.0000000e+00 
5.0000000e+00 0.0000000e+00 1.0000000e+00 
5.0000000e+00 0.0000000e+00 2.0000000e+00 
5.0000000e+00 0.0000000e+00 3.0000000e+00 
5.0000000e+00 0.0000000e+00 4.0000000e+00 
5.0000000e+00 0.0000000e+00 5.0000000e+00 
5.0000000e+00 0.0000000e+00 6.0000000e+00 
5.0000000e+00 0.0000000e+00 7.0000000e+00 
5.0000000e+00 0.0000000e+00 8.0000000e+00 
5.0000000e+00 0.0000000e+00 9.0000000e+00 
1.0000000e+00 0.0000000e+00 1.0000000e+01 
2.0000000e+00 0.0000000e+00 1.0000000e+01 
3.0000000e+00 0.0000000e+00 1.0000000e+01 
4.0000000e+00 0.0000000e+00 1.0000000e+01 
5.0000000e+00 3.0000000e+00 1.0000000e+00 
5.0000000e+00 3.0000000e+00 2.0000000e+00 
5.0000000e+00 3.0000000e+00 3.0000000e+00 
5.0000000e+00 3.0000000e+00 4.0000000e+00 
5.0000000e+00 3.0000000e+00 5.0000000e+00 
5.0000000e+00 3.0000000e+00 6.0000000e+00 
5.0000000e+00 3.0000000e+00 7.0000000e+00 
5.0000000e+00 3.0000000e+00 8.0000000e+00 
5.0000000e+00 3.0000000e+00 9.0000000e+00 
5.0000000e+00 1.0000000e+00 1.0000000e+01 
5.0000000e+00 2.0000000e+00 1.0000000e+01 
0.0000000e+00 3.0000000e+00 1.0000000e+00 
0.0000000e+00 3.0000000e+00 2.0000000e+00 
0.0000000e+00 3.0000000e+00 3.0000000e+00 
0.0000000e+00 3.0000000e+00 4.0000000e+00 
0.0000000e+00 3.0000000e+00 5.0000000e+00 
0.0000000e+00 3.0000000e+00 6.0000000e+00 
0.0000000e+00 3.0000000e+00 7.0000000e+00 
0.0000000e+00 3.0000000e+00 8.0000000e+00 
0.0000000e+00 3.0000000e+00 9.0000000e+00 
0.0000000e+00 2.0000000e+00 1.0000000e+01 
0.0000000e+00 1.0000000e+00 1.0000000e+01 
4.0000000e+00 3.0000000e+00 0.0000000e+00 
3.0000000e+00 3.0000000e+00 0.0000000e+00 
2.0000000e+00 3.0000000e+00 0.0000000e+00 
4.0000000e+00 3.0000000e+00 1.0000000e+01 
3.0000000e+00 3.0000000e+00 1.0000000e+01 
2.0000000e+00 3.0000000e+00 1.0000000e+01 
4.0618000e+00 1.5000000e+00 0.0000000e+00 
1.5046000e+00 7.6549745e-01 0.0000000e+00 
2.5000000e+00 2.1339746e+00 0.0000000e+00 
1.5046000e+00 2.2345026e+00 0.0000000e+00 
2.4957771e+00 8.1560516e-01 0.0000000e+00 
3.4707544e+00 2.2336540e+00 0.0000000e+00 
3.4700506e+00 7.5794268e-01 0.0000000e+00 
8.6322361e-01 1.5000000e+00 0.0000000e+00 
2.0000000e+00 1.5000000e+00 0.0000000e+00 
2.9960666e+00 1.4974480e+00 0.0000000e+00 
4.2679491e+00 7.3205084e-01 0.0000000e+00 
4.2679491e+00 2.2679491e+00 0.0000000e+00 
7.2695929e-01 2.2730408e+00 0.0000000e+00 
7.2695929e-01 7.2695929e-01 0.0000000e+00 
4.1822505e+00 0.0000000e+00 2.5515697e+00 
4.2017918e+00 0.0000000e+00 4.4725966e+00 
4.1114569e+00 0.0000000e+00 6.5092020e+00 
8.6602539e-01 0.0000000e+00 3.5000000e+00 
8.4778279e-01 0.0000000e+00 5.4684029e+00 
8.9629614e-01 0.0000000e+00 7.5867257e+00 
2.5566745e+00 0.0000000e+00 8.1853306e-01 
2.4918270e+00 0.0000000e+00 9.1386929e+00 
8.4677207e-01 0.0000000e+00 1.5042374e+00 
4.0943027e+00 0.0000000e+00 8.4081745e+00 
8.6281651e-01 0.0000000e+00 2.5007062e+00 
1.7315160e+00 0.0000000e+00 3.0001178e+00 
1.7319617e+00 0.0000000e+00 4.0000196e+00 
2.5980761e+00 0.0000000e+00 3.5000000e+00 
2.5536871e+00 0.0000000e+00 4.4963923e+00 
2.5928419e+00 0.0000000e+00 2.4239938e+00 
1.5037409e+00 0.0000000e+00 9.1535149e+00 
1.8433737e+00 0.0000000e+00 8.1858873e+00 
3.0000000e+00 0.0000000e+00 8.2679491e+00 
2.5000000e+00 0.0000000e+00 7.4019237e+00 
3.5042722e+00 0.0000000e+00 7.4271150e+00 
3.0310018e+00 0.0000000e+00 6.5282087e+00 
2.0373929e+00 0.0000000e+00 6.5307913e+00 
3.4767809e+00 0.0000000e+00 5.8031492e+00 
2.5452602e+00 0.0000000e+00 5.5720768e+00 
1.6456656e+00 0.0000000e+00 1.9697139e+00 
8.6297011e-01 0.0000000e+00 4.4947371e+00 
1.0111579e+00 0.0000000e+00 6.5282545e+00 
3.4994321e+00 0.0000000e+00 8.4691072e-01 
4.1860156e+00 0.0000000e+00 3.5040276e+00 
1.7320508e+00 0.0000000e+00 5.0000000e+00 
4.0544066e+00 0.0000000e+00 1.5781221e+00 
1.5817389e+00 0.0000000e+00 9.3943578e-01 
8.3166349e-01 0.0000000e+00 8.5090933e+00 
3.4686174e+00 0.0000000e+00 9.1752682e+00 
3.0709300e+00 0.0000000e+00 1.5799091e+00 
3.3927374e+00 0.0000000e+00 3.0399952e+00 
3.3826034e+00 0.0000000e+00 3.9747651e+00 
4.3420062e+00 0.0000000e+00 7.4688983e+00 
3.4023225e+00 0.0000000e+00 4.9314723e+00 
1.6740381e+00 0.0000000e+00 7.3014426e+00 
4.2715640e+00 0.0000000e+00 5.4758859e+00 
1.6225953e+00 0.0000000e+00 5.8104177e+00 
4.2679491e+00 0.0000000e+00 9.2679491e+00 
7.3205084e-01 0.0000000e+00 7.3205084e-01 
4.2679491e+00 0.0000000e+00 7.3205084e-01 
7.3205084e-01 0.0000000e+00 9.2679491e+00 
3.4586334e+00 0.0000000e+00 2.2347178e+00 
2.2895701e+00 0.0000000e+00 1.5463171e+00 
5.0000000e+00 2.2345026e+00 1.5046000e+00 
[...]
POINT_DATA 460
FIELD FieldData 5
DISPLACEMENT 3 460  float
0.0000000e+00 0.0000000e+00 0.0000000e+00 
0.0000000e+00 0.0000000e+00 0.0000000e+00 
0.0000000e+00 5.9181460e-10 0.0000000e+00 
0.0000000e+00 -9.5344088e-10 0.0000000e+00 
0.0000000e+00 0.0000000e+00 0.0000000e+00 
0.0000000e+00 0.0000000e+00 0.0000000e+00 
0.0000000e+00 -1.6276653e-07 0.0000000e+00 
0.0000000e+00 -2.4990700e-06 0.0000000e+00 
0.0000000e+00 -1.3167251e-09 0.0000000e+00 
0.0000000e+00 -1.3049630e-09 0.0000000e+00 
0.0000000e+00 -1.2654299e-09 0.0000000e+00 
0.0000000e+00 -1.2032121e-09 0.0000000e+00 
0.0000000e+00 -1.1229487e-09 0.0000000e+00 
0.0000000e+00 -1.0288043e-09 0.0000000e+00 
0.0000000e+00 -9.3383890e-10 0.0000000e+00 
0.0000000e+00 -8.6187846e-10 0.0000000e+00 
0.0000000e+00 -8.4217150e-10 0.0000000e+00 
0.0000000e+00 -9.0019020e-10 0.0000000e+00 
0.0000000e+00 -1.0471326e-09 0.0000000e+00 
-2.9967126e-10 -1.2527003e-09 4.6224938e-10 
-5.4506438e-10 -1.5521479e-09 1.0974245e-09 
-7.3938550e-10 -1.8492644e-09 1.7982679e-09 
-9.7365860e-10 -1.8698154e-09 2.9752358e-09 
-1.1253384e-09 -6.8982758e-10 4.3696926e-09 
-1.4679420e-09 3.2872625e-09 6.6947572e-09 
-9.1840785e-10 1.2721803e-08 1.3126837e-08 
1.9919344e-09 3.0030659e-08 2.7194693e-08 
1.2300614e-08 5.4646556e-08 5.0283930e-08 
2.5879235e-08 7.5718077e-08 1.0628133e-07 
4.7204590e-08 6.6775755e-08 1.8746263e-07 
8.5737454e-08 -2.0763986e-08 2.5662325e-07 
8.5829754e-08 -2.6758028e-07 3.5538639e-07 
3.0772316e-08 -7.3037734e-07 4.2014486e-07 
-2.3496112e-07 -1.3543826e-06 2.2323945e-07 
-6.5524063e-07 -1.8966738e-06 -1.6204376e-07 
-1.2720790e-06 -1.8025223e-06 -9.0266860e-07 
-1.4942536e-06 -6.0552219e-07 -1.1414708e-06 
-1.0666876e-06 1.9941883e-06 -3.2041052e-07 
0.0000000e+00 5.3355366e-06 0.0000000e+00 
0.0000000e+00 4.9581795e-06 0.0000000e+00 
0.0000000e+00 -3.5826772e-06 0.0000000e+00 
0.0000000e+00 -2.3992805e-05 0.0000000e+00 
0.0000000e+00 -5.6663237e-05 0.0000000e+00 
0.0000000e+00 -9.8494376e-05 0.0000000e+00 
0.0000000e+00 -1.4349764e-04 0.0000000e+00 
0.0000000e+00 -1.8417453e-04 0.0000000e+00 
0.0000000e+00 -2.1306252e-04 0.0000000e+00 
0.0000000e+00 -2.2381608e-04 0.0000000e+00 
0.0000000e+00 -1.2086351e-09 0.0000000e+00 
0.0000000e+00 -1.2305272e-09 0.0000000e+00 
0.0000000e+00 -1.2586224e-09 0.0000000e+00 
0.0000000e+00 -1.2192961e-09 0.0000000e+00 
0.0000000e+00 -1.1275082e-09 0.0000000e+00 
0.0000000e+00 -1.0257758e-09 0.0000000e+00 
0.0000000e+00 -9.3257879e-10 0.0000000e+00 
0.0000000e+00 -8.6309870e-10 0.0000000e+00 
0.0000000e+00 -8.4380691e-10 0.0000000e+00 
0.0000000e+00 -9.0196572e-10 0.0000000e+00 
0.0000000e+00 -1.0451406e-09 0.0000000e+00 
0.0000000e+00 -1.2629171e-09 0.0000000e+00 
0.0000000e+00 -1.5722660e-09 0.0000000e+00 
0.0000000e+00 -1.8975315e-09 0.0000000e+00 
0.0000000e+00 -1.9150337e-09 0.0000000e+00 
0.0000000e+00 -7.1743211e-10 0.0000000e+00 
0.0000000e+00 3.4031542e-09 0.0000000e+00 
0.0000000e+00 1.3079502e-08 0.0000000e+00 
0.0000000e+00 3.0779468e-08 0.0000000e+00 
0.0000000e+00 5.5357479e-08 0.0000000e+00 
0.0000000e+00 7.6118255e-08 0.0000000e+00 
0.0000000e+00 6.6341386e-08 0.0000000e+00 
0.0000000e+00 -2.6703482e-08 0.0000000e+00 
0.0000000e+00 -2.7953985e-07 0.0000000e+00 
0.0000000e+00 -7.4267621e-07 0.0000000e+00 
0.0000000e+00 -1.3547234e-06 0.0000000e+00 
0.0000000e+00 -1.8544473e-06 0.0000000e+00 
0.0000000e+00 -1.7351174e-06 0.0000000e+00 
0.0000000e+00 -4.4166620e-07 0.0000000e+00 
0.0000000e+00 2.2206448e-06 0.0000000e+00 
0.0000000e+00 5.1006969e-06 0.0000000e+00 
0.0000000e+00 4.8104544e-06 0.0000000e+00 
0.0000000e+00 -3.7672248e-06 0.0000000e+00 
0.0000000e+00 -2.4165469e-05 0.0000000e+00 
0.0000000e+00 -5.6781864e-05 0.0000000e+00 
0.0000000e+00 -9.8555036e-05 0.0000000e+00 
0.0000000e+00 -1.4354565e-04 0.0000000e+00 
0.0000000e+00 -1.8427530e-04 0.0000000e+00 
0.0000000e+00 -2.1324343e-04 0.0000000e+00 
0.0000000e+00 -2.2403282e-04 0.0000000e+00 
0.0000000e+00 0.0000000e+00 0.0000000e+00 
0.0000000e+00 0.0000000e+00 0.0000000e+00 
0.0000000e+00 0.0000000e+00 0.0000000e+00 
0.0000000e+00 0.0000000e+00 0.0000000e+00 
0.0000000e+00 0.0000000e+00 0.0000000e+00 
0.0000000e+00 0.0000000e+00 0.0000000e+00 
0.0000000e+00 0.0000000e+00 0.0000000e+00 
0.0000000e+00 0.0000000e+00 0.0000000e+00 
0.0000000e+00 0.0000000e+00 0.0000000e+00 
0.0000000e+00 0.0000000e+00 0.0000000e+00 
0.0000000e+00 0.0000000e+00 0.0000000e+00 
0.0000000e+00 0.0000000e+00 0.0000000e+00 
0.0000000e+00 0.0000000e+00 0.0000000e+00 
0.0000000e+00 0.0000000e+00 0.0000000e+00 
0.0000000e+00 0.0000000e+00 0.0000000e+00 
0.0000000e+00 0.0000000e+00 0.0000000e+00 
0.0000000e+00 0.0000000e+00 0.0000000e+00 
0.0000000e+00 0.0000000e+00 0.0000000e+00 
0.0000000e+00 0.0000000e+00 0.0000000e+00 
0.0000000e+00 0.0000000e+00 0.0000000e+00 
0.0000000e+00 0.0000000e+00 0.0000000e+00 
0.0000000e+00 0.0000000e+00 0.0000000e+00 
0.0000000e+00 0.0000000e+00 0.0000000e+00 
0.0000000e+00 3.8865408e-10 0.0000000e+00 
0.0000000e+00 5.1695326e-10 0.0000000e+00 
0.0000000e+00 -7.9909818e-10 0.0000000e+00 
0.0000000e+00 -4.2587620e-10 0.0000000e+00 
0.0000000e+00 0.0000000e+00 0.0000000e+00 
0.0000000e+00 0.0000000e+00 0.0000000e+00 
0.0000000e+00 0.0000000e+00 0.0000000e+00 
0.0000000e+00 0.0000000e+00 0.0000000e+00 
0.0000000e+00 0.0000000e+00 0.0000000e+00 
0.0000000e+00 0.0000000e+00 0.0000000e+00 
0.0000000e+00 0.0000000e+00 0.0000000e+00 
0.0000000e+00 0.0000000e+00 0.0000000e+00 
0.0000000e+00 0.0000000e+00 0.0000000e+00 
0.0000000e+00 0.0000000e+00 0.0000000e+00 
0.0000000e+00 0.0000000e+00 0.0000000e+00 
0.0000000e+00 0.0000000e+00 0.0000000e+00 
0.0000000e+00 0.0000000e+00 0.0000000e+00 
0.0000000e+00 0.0000000e+00 0.0000000e+00 
0.0000000e+00 0.0000000e+00 0.0000000e+00 
0.0000000e+00 0.0000000e+00 0.0000000e+00 
0.0000000e+00 0.0000000e+00 0.0000000e+00 
0.0000000e+00 0.0000000e+00 0.0000000e+00 
0.0000000e+00 0.0000000e+00 0.0000000e+00 
0.0000000e+00 0.0000000e+00 0.0000000e+00 
0.0000000e+00 0.0000000e+00 0.0000000e+00 
0.0000000e+00 0.0000000e+00 0.0000000e+00 
0.0000000e+00 1.6355958e-10 0.0000000e+00 
0.0000000e+00 -3.8374259e-10 0.0000000e+00 
0.0000000e+00 1.6320267e-09 0.0000000e+00 
0.0000000e+00 8.9569836e-09 0.0000000e+00 
0.0000000e+00 1.6078451e-08 0.0000000e+00 
0.0000000e+00 3.1093670e-08 0.0000000e+00 
0.0000000e+00 2.0719909e-08 0.0000000e+00 
0.0000000e+00 3.1901841e-09 0.0000000e+00 
0.0000000e+00 -1.3770290e-07 0.0000000e+00 
0.0000000e+00 -9.3322562e-08 0.0000000e+00 
0.0000000e+00 -1.4659624e-07 0.0000000e+00 
0.0000000e+00 -9.8279040e-10 0.0000000e+00 
0.0000000e+00 -4.8885374e-10 0.0000000e+00 
0.0000000e+00 3.9459533e-09 0.0000000e+00 
0.0000000e+00 1.9615452e-08 0.0000000e+00 
0.0000000e+00 3.0404347e-08 0.0000000e+00 
0.0000000e+00 -7.9519324e-08 0.0000000e+00 
0.0000000e+00 -6.7395951e-07 0.0000000e+00 
0.0000000e+00 -1.8602744e-06 0.0000000e+00 
0.0000000e+00 -2.3439375e-06 0.0000000e+00 
0.0000000e+00 -2.0192654e-06 0.0000000e+00 
0.0000000e+00 -1.2642005e-06 0.0000000e+00 
0.0000000e+00 2.3160746e-10 0.0000000e+00 
0.0000000e+00 -3.0988831e-10 0.0000000e+00 
0.0000000e+00 -8.9439772e-10 0.0000000e+00 
0.0000000e+00 -3.3364651e-07 0.0000000e+00 
0.0000000e+00 -8.9608670e-07 0.0000000e+00 
0.0000000e+00 -1.4873212e-06 0.0000000e+00 
0.0000000e+00 4.3437359e-10 0.0000000e+00 
0.0000000e+00 -1.2230966e-10 0.0000000e+00 
0.0000000e+00 -3.2172362e-10 0.0000000e+00 
0.0000000e+00 -7.8858059e-10 0.0000000e+00 
0.0000000e+00 3.8426450e-11 0.0000000e+00 
0.0000000e+00 2.6837660e-10 0.0000000e+00 
0.0000000e+00 2.5235405e-10 0.0000000e+00 
0.0000000e+00 -6.1037753e-10 0.0000000e+00 
0.0000000e+00 -2.4801078e-10 0.0000000e+00 
0.0000000e+00 9.0817742e-11 0.0000000e+00 
0.0000000e+00 3.5076017e-10 0.0000000e+00 
0.0000000e+00 5.0658189e-10 0.0000000e+00 
0.0000000e+00 -8.6446722e-10 0.0000000e+00 
0.0000000e+00 -2.4310523e-10 0.0000000e+00 
0.0000000e+00 0.0000000e+00 0.0000000e+00 
0.0000000e+00 0.0000000e+00 0.0000000e+00 
0.0000000e+00 0.0000000e+00 0.0000000e+00 
0.0000000e+00 0.0000000e+00 0.0000000e+00 
0.0000000e+00 0.0000000e+00 0.0000000e+00 
0.0000000e+00 0.0000000e+00 0.0000000e+00 
0.0000000e+00 0.0000000e+00 0.0000000e+00 
0.0000000e+00 0.0000000e+00 0.0000000e+00 
0.0000000e+00 0.0000000e+00 0.0000000e+00 
0.0000000e+00 0.0000000e+00 0.0000000e+00 
0.0000000e+00 0.0000000e+00 0.0000000e+00 
0.0000000e+00 0.0000000e+00 0.0000000e+00 
0.0000000e+00 0.0000000e+00 0.0000000e+00 
0.0000000e+00 0.0000000e+00 0.0000000e+00 
0.0000000e+00 0.0000000e+00 0.0000000e+00 
0.0000000e+00 0.0000000e+00 0.0000000e+00 
0.0000000e+00 0.0000000e+00 0.0000000e+00 
0.0000000e+00 0.0000000e+00 0.0000000e+00 
0.0000000e+00 0.0000000e+00 0.0000000e+00 
0.0000000e+00 0.0000000e+00 0.0000000e+00 
0.0000000e+00 0.0000000e+00 0.0000000e+00 
0.0000000e+00 0.0000000e+00 0.0000000e+00 
0.0000000e+00 0.0000000e+00 0.0000000e+00 
0.0000000e+00 0.0000000e+00 0.0000000e+00 
0.0000000e+00 0.0000000e+00 0.0000000e+00 
0.0000000e+00 0.0000000e+00 0.0000000e+00 
0.0000000e+00 0.0000000e+00 0.0000000e+00 
0.0000000e+00 0.0000000e+00 0.0000000e+00 
0.0000000e+00 0.0000000e+00 0.0000000e+00 
0.0000000e+00 0.0000000e+00 0.0000000e+00 
0.0000000e+00 0.0000000e+00 0.0000000e+00 
0.0000000e+00 0.0000000e+00 0.0000000e+00 
0.0000000e+00 0.0000000e+00 0.0000000e+00 
0.0000000e+00 0.0000000e+00 0.0000000e+00 
0.0000000e+00 0.0000000e+00 0.0000000e+00 
0.0000000e+00 0.0000000e+00 0.0000000e+00 
0.0000000e+00 0.0000000e+00 0.0000000e+00 
0.0000000e+00 0.0000000e+00 0.0000000e+00 
0.0000000e+00 0.0000000e+00 0.0000000e+00 
0.0000000e+00 0.0000000e+00 0.0000000e+00 
0.0000000e+00 0.0000000e+00 0.0000000e+00 
0.0000000e+00 0.0000000e+00 0.0000000e+00 
0.0000000e+00 0.0000000e+00 0.0000000e+00 
0.0000000e+00 0.0000000e+00 0.0000000e+00 
0.0000000e+00 0.0000000e+00 0.0000000e+00 
0.0000000e+00 0.0000000e+00 0.0000000e+00 
0.0000000e+00 0.0000000e+00 0.0000000e+00 
0.0000000e+00 0.0000000e+00 0.0000000e+00 
0.0000000e+00 0.0000000e+00 0.0000000e+00 
0.0000000e+00 1.4662936e-10 0.0000000e+00 
0.0000000e+00 -6.4572369e-08 0.0000000e+00 
0.0000000e+00 4.9858322e-09 0.0000000e+00 
0.0000000e+00 2.0530077e-08 0.0000000e+00 
0.0000000e+00 1.7501501e-08 0.0000000e+00 
0.0000000e+00 9.8367148e-10 0.0000000e+00 
0.0000000e+00 5.6418439e-09 0.0000000e+00 
0.0000000e+00 6.8293677e-09 0.0000000e+00 
0.0000000e+00 2.9225247e-09 0.0000000e+00 
0.0000000e+00 7.7109394e-09 0.0000000e+00 
0.0000000e+00 7.0308531e-10 0.0000000e+00 
0.0000000e+00 1.2022401e-08 0.0000000e+00 
0.0000000e+00 3.4766042e-08 0.0000000e+00 
0.0000000e+00 9.0961833e-10 0.0000000e+00 
0.0000000e+00 4.8014381e-10 0.0000000e+00 
0.0000000e+00 -7.2159829e-09 0.0000000e+00 
0.0000000e+00 -1.6243117e-08 0.0000000e+00 
0.0000000e+00 3.6283845e-10 0.0000000e+00 
0.0000000e+00 1.2066577e-08 0.0000000e+00 
0.0000000e+00 2.3864395e-08 0.0000000e+00 
0.0000000e+00 5.1785293e-10 0.0000000e+00 
0.0000000e+00 1.9419289e-08 0.0000000e+00 
0.0000000e+00 6.9819608e-09 0.0000000e+00 
0.0000000e+00 2.4074063e-09 0.0000000e+00 
0.0000000e+00 1.2560659e-08 0.0000000e+00 
0.0000000e+00 -9.4121965e-08 0.0000000e+00 
0.0000000e+00 -2.9369676e-08 0.0000000e+00 
0.0000000e+00 4.0356660e-10 0.0000000e+00 
0.0000000e+00 3.7422079e-10 0.0000000e+00 
0.0000000e+00 -2.1281394e-06 0.0000000e+00 
0.0000000e+00 -7.1325140e-10 0.0000000e+00 
0.0000000e+00 6.6644618e-10 0.0000000e+00 
0.0000000e+00 1.1552664e-08 0.0000000e+00 
0.0000000e+00 -5.6870232e-07 0.0000000e+00 
0.0000000e+00 9.1090797e-09 0.0000000e+00 
0.0000000e+00 1.1304656e-08 0.0000000e+00 
0.0000000e+00 -1.2614506e-06 0.0000000e+00 
0.0000000e+00 4.6708473e-09 0.0000000e+00 
0.0000000e+00 1.3367231e-09 0.0000000e+00 
0.0000000e+00 3.1725580e-08 0.0000000e+00 
0.0000000e+00 -2.7227154e-07 0.0000000e+00 
0.0000000e+00 -1.0214632e-07 0.0000000e+00 
0.0000000e+00 -2.3227944e-06 0.0000000e+00 
0.0000000e+00 -7.5440215e-10 0.0000000e+00 
0.0000000e+00 -2.1449789e-10 0.0000000e+00 
0.0000000e+00 -9.9329770e-07 0.0000000e+00 
0.0000000e+00 2.6870293e-08 0.0000000e+00 
0.0000000e+00 -1.4658931e-07 0.0000000e+00 
0.0000000e+00 1.3063869e-08 0.0000000e+00 
0.0000000e+00 3.2685594e-09 0.0000000e+00 
0.0000000e+00 -5.1402458e-07 0.0000000e+00 
0.0000000e+00 8.0989784e-09 0.0000000e+00 
0.0000000e+00 -1.5476919e-06 0.0000000e+00 
0.0000000e+00 -5.3114294e-11 0.0000000e+00 
0.0000000e+00 -1.1941837e-06 0.0000000e+00 
0.0000000e+00 -9.0930535e-10 0.0000000e+00 
0.0000000e+00 -3.2658129e-10 0.0000000e+00 
0.0000000e+00 -2.5606475e-06 0.0000000e+00 
0.0000000e+00 -5.3693310e-07 0.0000000e+00 
0.0000000e+00 -2.0140898e-07 0.0000000e+00 
0.0000000e+00 -9.9967781e-07 0.0000000e+00 
0.0000000e+00 -4.2999139e-07 0.0000000e+00 
0.0000000e+00 -3.5202856e-07 0.0000000e+00 
0.0000000e+00 -5.3581124e-07 0.0000000e+00 
0.0000000e+00 -2.0815118e-07 0.0000000e+00 
0.0000000e+00 -9.6020563e-07 0.0000000e+00 
0.0000000e+00 -6.9810238e-07 0.0000000e+00 
0.0000000e+00 -5.0865742e-07 0.0000000e+00 
0.0000000e+00 -1.0481570e-07 0.0000000e+00 
0.0000000e+00 -2.2588141e-07 0.0000000e+00 
0.0000000e+00 -2.4804098e-07 0.0000000e+00 
0.0000000e+00 -6.5571413e-07 0.0000000e+00 
1.8656108e-08 4.2926100e-08 6.8589536e-08 
8.4088235e-08 -3.9739835e-08 2.6091320e-07 
-4.1811288e-07 -1.0303198e-06 1.0260445e-07 
-2.0177309e-09 -1.7645742e-10 4.3240371e-09 
-2.1967308e-09 8.4196357e-09 1.2171616e-08 
2.3170430e-09 2.2467500e-08 2.8146626e-08 
-2.8358176e-09 -1.0525392e-10 4.8247389e-10 
-2.9354171e-08 2.5473209e-08 1.1873860e-07 
-1.2078412e-09 -1.4369204e-09 1.7226333e-09 
-1.4237801e-06 -1.3888267e-06 -7.7243425e-07 
-1.1777030e-09 -2.4679145e-10 1.3342052e-09 
-4.9688299e-07 -4.9729732e-07 2.0346995e-08 
-1.3003636e-08 2.0979948e-08 6.9353675e-08 
-1.8876325e-08 -1.5534142e-09 1.8812085e-07 
-1.7706708e-07 -8.4503107e-08 2.6679774e-07 
-6.9733630e-08 -1.0788913e-07 2.4390346e-07 
3.3182406e-08 -7.3018196e-09 1.8085626e-07 
-5.1733650e-07 -5.3390886e-07 1.2041758e-07 
1.2826274e-08 -1.3757929e-07 3.3916999e-07 
1.7835212e-08 1.8805155e-08 1.0951479e-07 
7.7546582e-09 1.6055163e-08 4.5891447e-08 
3.2159747e-08 2.1642137e-08 8.6112216e-08 
1.1967069e-08 2.3934392e-08 5.0910995e-08 
2.2487072e-09 1.5841017e-08 2.2893785e-08 
1.2929409e-09 1.6054351e-08 2.3288726e-08 
-3.0007374e-09 6.1996106e-09 9.2394910e-09 
-2.5730718e-09 6.1815899e-09 1.1277939e-08 
-4.1445283e-09 2.2015529e-09 5.1417413e-09 
-4.0839097e-09 1.0004578e-09 5.5795311e-09 
-4.0940695e-09 -5.5557020e-10 2.5966140e-09 
-3.2032543e-09 -1.0899995e-09 2.9213802e-09 
3.7920298e-08 4.1107029e-08 1.1548195e-07 
6.7136320e-08 2.5993096e-08 1.5866017e-07 
-1.4710131e-09 1.2833755e-08 1.8710711e-08 
-2.5576650e-09 4.2967629e-09 1.9280764e-09 
-9.1493831e-07 -9.9653869e-07 -1.9254421e-07 
9.5092023e-09 2.7100032e-08 3.8541216e-08 
-1.5716118e-09 1.5207577e-08 1.1184904e-08 
-1.3572061e-09 -7.9156648e-10 1.2732314e-09 
-1.9085152e-07 -1.0649975e-07 1.5172006e-07 
-2.8264125e-07 -4.6979861e-07 2.8811553e-07 
-7.7142590e-07 -9.9729948e-07 -1.4593937e-08 
6.7619212e-08 4.8078334e-08 1.8364724e-07 
-1.3184656e-09 -4.5865550e-10 9.6488206e-10 
-2.0909525e-09 2.0031061e-09 6.8743122e-09 
-3.0599798e-09 4.5051127e-09 9.4067047e-09 
-4.0395973e-10 1.7432795e-08 2.1884471e-08 
3.5813195e-09 2.9281269e-08 4.1911861e-08 
6.7517171e-08 -1.8805396e-07 3.1205016e-07 
-1.3702888e-07 -5.2727290e-07 2.9236313e-07 
-5.8418193e-10 -1.1605411e-09 6.9821732e-10 
-1.6387172e-09 -1.1107789e-09 2.9535074e-09 
-1.4314728e-06 -9.5053889e-07 -8.0963571e-07 
-2.7701290e-09 -9.6277575e-10 1.9398496e-09 
-3.0555649e-09 6.9181449e-10 5.0776667e-09 
-9.8295607e-07 -1.4507804e-06 -3.6016681e-07 
5.3906497e-08 -3.3204113e-08 2.5639170e-07 
-2.0913731e-09 -1.0810337e-09 2.1940330e-09 
4.1332466e-08 4.9742077e-08 1.1459004e-07 
-4.3699401e-07 -3.8362941e-07 1.4910181e-07 
-2.0069048e-07 -2.1386172e-07 6.4407004e-08 
-5.8640609e-10 1.6301563e-10 7.9987433e-10 
-1.4862194e-09 8.9437480e-09 9.0782315e-09 
-2.4915083e-09 -8.0579410e-10 3.4243908e-09 
-1.1513602e-06 -1.1848787e-06 -4.5637495e-07 
4.6087251e-08 2.5698657e-08 1.5109593e-07 
-3.1799232e-09 -8.0481383e-10 1.5045235e-09 
-4.4053339e-09 8.0138046e-10 2.8106748e-09 
-1.2177922e-09 -1.1111484e-09 1.2876340e-09 
2.3847667e-08 3.2827682e-08 7.0609786e-08 
-1.0521234e-06 -1.2724674e-06 -5.5819982e-07 
-6.6121902e-10 -5.6373300e-10 1.7004055e-09 
-3.9429415e-10 -1.2182572e-09 1.1305052e-09 
-5.5446037e-10 2.1999875e-09 2.5853972e-09 
-8.8053280e-11 6.2227881e-09 4.9008277e-09 
-3.3266609e-10 -1.2096888e-09 7.4895223e-10 
5.9715716e-10 1.6446791e-08 1.1367669e-08 
7.6278655e-09 2.4819721e-08 2.3265374e-08 
1.4639185e-08 3.9661629e-08 4.7242334e-08 
3.9090406e-08 2.7264434e-08 1.1697146e-07 
5.9017918e-08 -1.3327627e-08 2.0090242e-07 
7.3777734e-08 -1.1704400e-07 2.2980795e-07 
2.0868818e-08 -4.1706090e-07 2.4771222e-07 
-1.5495466e-07 -9.2939405e-07 1.1641563e-07 
-4.8691066e-07 -1.6461505e-06 -1.8396891e-07 
-7.8621542e-07 -1.9421389e-06 -4.9409761e-07 
-1.1336397e-06 -2.1022702e-06 -8.2322953e-07 
-1.0676563e-06 -1.1254498e-06 -6.9455285e-07 
-1.2401688e-10 -1.1025765e-09 3.5276032e-10 
-1.7854157e-09 4.4481371e-10 3.6304399e-09 
-1.6511490e-09 1.0822546e-08 1.2056546e-08 
5.7569366e-08 3.8788972e-08 4.2862207e-09 
1.2629248e-07 -2.0745074e-07 -1.0945616e-07 
-4.3157723e-07 -1.0694188e-06 -4.6535064e-07 
-3.5405667e-09 1.4670053e-09 3.8604866e-09 
2.2691484e-09 9.6948813e-09 6.3749783e-09 
7.5011386e-08 1.2812502e-08 1.9940078e-08 
7.6892137e-09 3.7977408e-08 3.2315654e-08 
-1.4181710e-09 2.8174749e-09 8.4139780e-09 
-9.4778518e-10 -9.3769714e-10 1.6972554e-09 
9.6415135e-08 -8.0792283e-08 -9.7627044e-09 
-1.7012450e-09 -4.1470694e-10 1.4435084e-09 
1.2096410e-07 -6.2610098e-08 1.9539424e-08 
-3.0393903e-07 -1.1392665e-06 -4.5322466e-07 
-6.7152138e-11 1.6604776e-08 1.7519241e-08 
6.1930137e-09 2.2010276e-08 2.0509702e-08 
-3.6110597e-09 2.6516502e-09 7.3403061e-09 
5.2524992e-08 6.6223436e-08 5.9027222e-08 
4.2023180e-09 1.8037856e-08 4.6890247e-09 
-1.4726953e-09 -5.9415167e-10 4.2165502e-09 
1.2648759e-08 1.0472414e-08 7.6960083e-09 
-9.2233381e-07 -1.9647321e-06 -6.4968759e-07 
-1.2739709e-09 3.1646127e-10 1.1697092e-09 
-8.0573209e-08 -1.7544846e-07 1.5111015e-08 
-1.1409551e-09 2.8003588e-09 4.9351172e-09 
2.3517908e-08 8.2355793e-09 -5.9833849e-09 
-2.2523261e-09 6.2639821e-10 2.7118627e-09 
-2.6549063e-09 3.7506247e-09 4.5274460e-09 
-3.2712180e-09 6.5068493e-09 9.4726165e-09 
3.6849308e-08 3.5283076e-08 6.1889374e-08 
1.0102968e-07 -4.8490865e-08 7.8145348e-08 
8.2468233e-08 -3.7755822e-07 -2.3335046e-08 
5.4989378e-08 2.6046788e-08 5.6123088e-08 
-1.8273238e-07 -4.1179015e-07 -1.5463243e-07 
-1.1215445e-07 -4.4949664e-07 -8.8998867e-08 
-8.4918667e-10 -2.0344305e-10 1.0836513e-09 
-1.9219430e-09 4.1778079e-09 3.0164231e-09 
-3.3044170e-10 -4.2940485e-10 1.0888568e-09 
7.4282035e-08 -4.5121592e-08 -6.9390381e-08 
1.1884413e-09 1.3900229e-08 7.9894793e-09 
-7.2785355e-07 -1.0449407e-06 -3.8820423e-07 
-1.5488455e-08 -6.3860284e-07 -3.8854910e-07 
-1.6995788e-09 1.7835113e-08 2.1442389e-08 
-1.9719903e-09 -7.4340961e-10 2.2672391e-09 
1.8573404e-08 2.0380110e-08 2.3693124e-08 
-1.3885381e-09 1.7502267e-09 1.7788586e-09 
8.1543227e-08 -1.9902544e-07 -1.1073688e-07 
-3.8471817e-09 -4.6735077e-10 3.0952627e-09 
1.5955290e-08 2.6080446e-08 -7.3867683e-11 
-2.4420228e-09 1.3227892e-10 1.4582887e-09 
5.7900948e-08 4.7831666e-10 4.5968362e-09 
-8.0239721e-07 -1.3780107e-06 -4.2968307e-07 
1.1332489e-07 8.3577723e-09 1.0502911e-07 
6.1992104e-08 5.0495998e-08 1.0066032e-08 
5.6658141e-08 -1.3575546e-08 -3.2257510e-08 
-3.5737497e-07 -1.1049847e-06 -3.7752358e-07 
-9.5273855e-10 8.2080696e-11 1.0388350e-09 
-8.3961077e-10 1.0365972e-08 6.3016752e-09 
3.8592651e-10 3.8007766e-09 2.6053320e-09 
1.9610493e-08 2.6553279e-08 3.4992542e-08 
3.2640596e-08 1.2838123e-08 1.6100858e-08 
-3.0303322e-09 8.9733825e-11 4.9693138e-09 
-7.5246919e-07 -1.8461012e-06 -5.4734738e-07 
2.2191509e-09 6.5894659e-09 1.6650624e-09 
3.0104355e-09 1.8867413e-08 1.0515073e-07 