# vtk DataFile Version 4.0
vtk output
ASCII
DATASET UNSTRUCTURED_GRID
POINTS 66 float
0.0000000e+00 -1.0000000e-01 0.0000000e+00 
1.0000000e+00 -1.0000000e-01 0.0000000e+00 
1.0000000e+00 0.0000000e+00 0.0000000e+00 
0.0000000e+00 0.0000000e+00 0.0000000e+00 
5.0000001e-02 -1.0000000e-01 0.0000000e+00 
1.0000000e-01 -1.0000000e-01 0.0000000e+00 
1.5000001e-01 -1.0000000e-01 0.0000000e+00 
2.0000000e-01 -1.0000000e-01 0.0000000e+00 
2.5000000e-01 -1.0000000e-01 0.0000000e+00 
3.0000001e-01 -1.0000000e-01 0.0000000e+00 
3.4999999e-01 -1.0000000e-01 0.0000000e+00 
4.0000001e-01 -1.0000000e-01 0.0000000e+00 
4.4999999e-01 -1.0000000e-01 0.0000000e+00 
5.0000000e-01 -1.0000000e-01 0.0000000e+00 
5.5000001e-01 -1.0000000e-01 0.0000000e+00 
6.0000002e-01 -1.0000000e-01 0.0000000e+00 
6.4999998e-01 -1.0000000e-01 0.0000000e+00 
6.9999999e-01 -1.0000000e-01 0.0000000e+00 
7.5000000e-01 -1.0000000e-01 0.0000000e+00 
8.0000001e-01 -1.0000000e-01 0.0000000e+00 
8.5000002e-01 -1.0000000e-01 0.0000000e+00 
8.9999998e-01 -1.0000000e-01 0.0000000e+00 
9.4999999e-01 -1.0000000e-01 0.0000000e+00 
1.0000000e+00 -5.0000001e-02 0.0000000e+00 
9.4999999e-01 0.0000000e+00 0.0000000e+00 
8.9999998e-01 0.0000000e+00 0.0000000e+00 
8.5000002e-01 0.0000000e+00 0.0000000e+00 
8.0000001e-01 0.0000000e+00 0.0000000e+00 
7.5000000e-01 0.0000000e+00 0.0000000e+00 
6.9999999e-01 0.0000000e+00 0.0000000e+00 
6.4999998e-01 0.0000000e+00 0.0000000e+00 
6.0000002e-01 0.0000000e+00 0.0000000e+00 
5.5000001e-01 0.0000000e+00 0.0000000e+00 
5.0000000e-01 0.0000000e+00 0.0000000e+00 
4.4999999e-01 0.0000000e+00 0.0000000e+00 
4.0000001e-01 0.0000000e+00 0.0000000e+00 
3.4999999e-01 0.0000000e+00 0.0000000e+00 
3.0000001e-01 0.0000000e+00 0.0000000e+00 
2.5000000e-01 0.0000000e+00 0.0000000e+00 
2.0000000e-01 0.0000000e+00 0.0000000e+00 
1.5000001e-01 0.0000000e+00 0.0000000e+00 
1.0000000e-01 0.0000000e+00 0.0000000e+00 
5.0000001e-02 0.0000000e+00 0.0000000e+00 
0.0000000e+00 -5.0000001e-02 0.0000000e+00 
6.2482655e-01 -4.8086077e-02 0.0000000e+00 
8.2508671e-01 -5.1763725e-02 0.0000000e+00 
3.7500000e-01 -4.9304143e-02 0.0000000e+00 
5.2493805e-01 -5.2249055e-02 0.0000000e+00 
1.2500000e-01 -4.9304143e-02 0.0000000e+00 
7.2491330e-01 -5.1763725e-02 0.0000000e+00 
9.2500001e-01 -4.3301269e-02 0.0000000e+00 
2.2493739e-01 -4.7616642e-02 0.0000000e+00 
4.7499263e-01 -4.8962854e-02 0.0000000e+00 
3.2487729e-01 -5.0790776e-02 0.0000000e+00 
4.2499876e-01 -4.9711168e-02 0.0000000e+00 
1.7499255e-01 -5.1095106e-02 0.0000000e+00 
7.7499998e-01 -5.0587907e-02 0.0000000e+00 
7.5000003e-02 -5.5115875e-02 0.0000000e+00 
8.7536418e-01 -5.2243404e-02 0.0000000e+00 
5.7496077e-01 -5.0055854e-02 0.0000000e+00 
6.7495662e-01 -4.9974967e-02 0.0000000e+00 
2.7496910e-01 -4.9734570e-02 0.0000000e+00 
9.6712744e-01 -6.3315883e-02 0.0000000e+00 
3.2797970e-02 -3.6339462e-02 0.0000000e+00 
2.9650923e-02 -7.0272885e-02 0.0000000e+00 
9.7100937e-01 -2.8899103e-02 0.0000000e+00 

CELLS 106 404
2 2 24
2 24 25
2 25 26
2 26 27
2 27 28
2 28 29
2 29 30
2 30 31
2 31 32
2 32 33
2 33 34
2 34 35
2 35 36
2 36 37
2 37 38
2 38 39
2 39 40
2 40 41
2 41 42
2 42 3
3 27 45 26
3 16 44 15
3 22 50 21
3 11 46 10
3 33 47 32
3 6 48 5
3 19 56 18
3 29 49 28
3 8 51 7
3 13 52 12
3 29 60 49
3 45 58 26
3 44 59 15
3 37 61 53
3 38 61 37
3 15 59 14
3 30 60 29
3 26 58 25
3 42 57 41
3 37 53 36
3 35 54 34
3 40 55 39
3 46 53 10
3 6 55 48
3 11 54 46
3 51 55 7
3 52 54 12
3 48 57 5
3 47 52 13
3 49 56 28
3 33 52 47
3 27 56 45
3 18 56 49
3 45 56 19
3 50 58 21
3 47 59 32
3 16 60 44
3 8 61 51
3 36 53 46
3 34 54 52
3 39 55 51
3 46 54 35
3 41 57 48
3 48 55 40
3 14 59 47
3 44 60 30
3 25 58 50
3 51 61 38
3 22 62 50
3 42 63 57
3 53 61 9
3 7 55 6
3 10 53 9
3 12 54 11
3 5 57 4
3 21 58 20
3 20 58 45
3 32 59 31
3 17 60 16
3 49 60 17
3 31 59 44
3 9 61 8
3 20 45 19
3 25 50 24
3 31 44 30
3 36 46 35
3 14 47 13
3 41 48 40
3 34 52 33
3 18 49 17
3 28 56 27
3 39 51 38
3 1 62 22
3 23 62 1
3 43 63 3
3 3 63 42
3 57 64 4
3 50 65 24
3 63 64 57
3 62 65 50
3 4 64 0
3 0 64 43
3 24 65 2
3 2 65 23
3 23 65 62
3 43 64 63

CELL_TYPES 106
3
3
3
3
3
3
3
3
3
3
3
3
3
3
3
3
3
3
3
3
5
5
5
5
5
5
5
5
5
5
5
5
5
5
5
5
5
5
5
5
5
5
5
5
5
5
5
5
5
5
5
5
5
5
5
5
5
5
5
5
5
5
5
5
5
5
5
5
5
5
5
5
5
5
5
5
5
5
5
5
5
5
5
5
5
5
5
5
5
5
5
5
5
5
5
5
5
5
5
5
5
5
5
5
5
5
POINT_DATA 66
FIELD FieldData 1
DISPLACEMENT 3 66  float
0.0000000e+00 0.0000000e+00 0.0000000e+00 
0.0000000e+00 0.0000000e+00 0.0000000e+00 
0.0000000e+00 0.0000000e+00 0.0000000e+00 
0.0000000e+00 0.0000000e+00 0.0000000e+00 
0.0000000e+00 0.0000000e+00 0.0000000e+00 
0.0000000e+00 0.0000000e+00 0.0000000e+00 
0.0000000e+00 0.0000000e+00 0.0000000e+00 
0.0000000e+00 0.0000000e+00 0.0000000e+00 
0.0000000e+00 0.0000000e+00 0.0000000e+00 
0.0000000e+00 0.0000000e+00 0.0000000e+00 
0.0000000e+00 0.0000000e+00 0.0000000e+00 
0.0000000e+00 0.0000000e+00 0.0000000e+00 
0.0000000e+00 0.0000000e+00 0.0000000e+00 
0.0000000e+00 0.0000000e+00 0.0000000e+00 
0.0000000e+00 0.0000000e+00 0.0000000e+00 
0.0000000e+00 0.0000000e+00 0.0000000e+00 
0.0000000e+00 0.0000000e+00 0.0000000e+00 
0.0000000e+00 0.0000000e+00 0.0000000e+00 
0.0000000e+00 0.0000000e+00 0.0000000e+00 
0.0000000e+00 0.0000000e+00 0.0000000e+00 
0.0000000e+00 0.0000000e+00 0.0000000e+00 
0.0000000e+00 0.0000000e+00 0.0000000e+00 
0.0000000e+00 0.0000000e+00 0.0000000e+00 
0.0000000e+00 0.0000000e+00 0.0000000e+00 
-4.8901126e-12 -1.0387984e-06 0.0000000e+00 
-7.4702041e-12 -2.0579503e-06 0.0000000e+00 
-8.9472553e-12 -3.0377914e-06 0.0000000e+00 
-9.4482200e-12 -3.9586225e-06 0.0000000e+00 
-9.1333772e-12 -4.8006946e-06 0.0000000e+00 
-8.1014275e-12 -5.5441919e-06 0.0000000e+00 
-6.4286454e-12 -6.1692203e-06 0.0000000e+00 
-4.2493214e-12 -6.6557936e-06 0.0000000e+00 
-1.7029214e-12 -6.9838225e-06 0.0000000e+00 
1.0754576e-12 -7.1331087e-06 0.0000000e+00 
3.9646303e-12 -7.0833376e-06 0.0000000e+00 
6.7492925e-12 -6.8140771e-06 0.0000000e+00 
9.2323397e-12 -6.3047769e-06 0.0000000e+00 
1.1138668e-11 -5.5347750e-06 0.0000000e+00 
1.2152122e-11 -4.4974263e-06 0.0000000e+00 
1.2032397e-11 -3.2968999e-06 0.0000000e+00 
1.0629341e-11 -2.0899199e-06 0.0000000e+00 
7.9993069e-12 -1.0334769e-06 0.0000000e+00 
4.5004742e-12 -2.8452465e-07 0.0000000e+00 
0.0000000e+00 0.0000000e+00 0.0000000e+00 
1.9186793e-07 -3.3250546e-06 0.0000000e+00 
3.5959278e-07 -1.6857332e-06 0.0000000e+00 
-2.1203957e-07 -3.3183737e-06 0.0000000e+00 
5.2426817e-08 -3.3636697e-06 0.0000000e+00 
-3.8048370e-07 -8.0332831e-07 0.0000000e+00 
2.9663590e-07 -2.4924809e-06 0.0000000e+00 
3.4355728e-07 -8.7224964e-07 0.0000000e+00 
-4.3819023e-07 -2.0402656e-06 0.0000000e+00 
-2.9458976e-08 -3.6211400e-06 0.0000000e+00 
-3.0681574e-07 -2.9037437e-06 0.0000000e+00 
-1.1817601e-07 -3.4868197e-06 0.0000000e+00 
-4.3624658e-07 -1.3225149e-06 0.0000000e+00 
3.3450362e-07 -2.1612746e-06 0.0000000e+00 
-2.7584537e-07 -3.1525008e-07 0.0000000e+00 
3.6650005e-07 -1.2006991e-06 0.0000000e+00 
1.2674214e-07 -3.3986603e-06 0.0000000e+00 
2.4870388e-07 -2.9288130e-06 0.0000000e+00 
-3.9002967e-07 -2.5100865e-06 0.0000000e+00 
1.7503278e-07 -2.6207388e-07 0.0000000e+00 
-9.2465001e-08 -1.1621027e-07 0.0000000e+00 
-9.6385953e-08 -7.0778398e-08 0.0000000e+00 
1.5667891e-07 -4.1365919e-07 0.0000000e+00 
CELL_DATA 106
FIELD FieldData 0
