# vtk DataFile Version 4.0
vtk output
ASCII
DATASET UNSTRUCTURED_GRID
POINTS 46 float
0.0000000e+00 0.0000000e+00 0.0000000e+00 
1.0000000e+00 0.0000000e+00 0.0000000e+00 
1.0000000e+00 1.0000000e+01 0.0000000e+00 
0.0000000e+00 1.0000000e+01 0.0000000e+00 
0.0000000e+00 0.0000000e+00 1.0000000e+00 
1.0000000e+00 0.0000000e+00 1.0000000e+00 
1.0000000e+00 1.0000000e+01 1.0000000e+00 
0.0000000e+00 1.0000000e+01 1.0000000e+00 
1.0000000e+00 2.0000000e+00 0.0000000e+00 
1.0000000e+00 4.0000000e+00 0.0000000e+00 
1.0000000e+00 6.0000000e+00 0.0000000e+00 
1.0000000e+00 8.0000000e+00 0.0000000e+00 
0.0000000e+00 8.0000000e+00 0.0000000e+00 
0.0000000e+00 6.0000000e+00 0.0000000e+00 
0.0000000e+00 4.0000000e+00 0.0000000e+00 
0.0000000e+00 2.0000000e+00 0.0000000e+00 
1.0000000e+00 2.0000000e+00 1.0000000e+00 
1.0000000e+00 4.0000000e+00 1.0000000e+00 
1.0000000e+00 6.0000000e+00 1.0000000e+00 
1.0000000e+00 8.0000000e+00 1.0000000e+00 
0.0000000e+00 8.0000000e+00 1.0000000e+00 
0.0000000e+00 6.0000000e+00 1.0000000e+00 
0.0000000e+00 4.0000000e+00 1.0000000e+00 
0.0000000e+00 2.0000000e+00 1.0000000e+00 
5.0000000e-01 9.0000000e+00 0.0000000e+00 
5.0000000e-01 7.0000000e+00 0.0000000e+00 
5.0000000e-01 1.0000000e+00 0.0000000e+00 
5.0000000e-01 3.0000000e+00 0.0000000e+00 
5.0000000e-01 5.0000000e+00 0.0000000e+00 
5.0000000e-01 0.0000000e+00 5.0000000e-01 
1.0000000e+00 9.0000000e+00 5.0000000e-01 
1.0000000e+00 5.0000000e+00 5.0000000e-01 
1.0000000e+00 1.0000000e+00 5.0000000e-01 
1.0000000e+00 3.0000000e+00 5.0000000e-01 
1.0000000e+00 7.0000000e+00 5.0000000e-01 
5.0000000e-01 1.0000000e+01 5.0000000e-01 
0.0000000e+00 9.0000000e+00 5.0000000e-01 
0.0000000e+00 1.0000000e+00 5.0000000e-01 
0.0000000e+00 7.0000000e+00 5.0000000e-01 
0.0000000e+00 5.0000000e+00 5.0000000e-01 
0.0000000e+00 3.0000000e+00 5.0000000e-01 
5.0000000e-01 9.0000000e+00 1.0000000e+00 
5.0000000e-01 1.0000000e+00 1.0000000e+00 
5.0000000e-01 3.0000000e+00 1.0000000e+00 
5.0000000e-01 5.0000000e+00 1.0000000e+00 
5.0000000e-01 7.0000000e+00 1.0000000e+00 

CELLS 100 500
4 37 23 4 42
4 27 15 40 14
4 13 12 38 25
4 19 18 45 34
4 45 20 38 21
4 39 21 22 44
4 33 43 16 17
4 40 22 23 43
4 33 27 9 8
4 16 42 32 5
4 31 17 18 44
4 7 20 36 41
4 41 6 19 30
4 0 15 37 26
4 36 12 3 24
4 2 11 30 24
4 25 11 34 10
4 39 14 13 28
4 31 10 9 28
4 8 32 26 1
4 32 37 29 42
4 37 32 29 26
4 36 35 41 30
4 36 35 30 24
4 14 39 31 28
4 38 34 20 45
4 34 38 20 25
4 31 39 14 44
4 43 23 40 33
4 26 37 32 8
4 37 42 32 8
4 33 40 9 27
4 38 45 18 34
4 34 18 38 25
4 36 30 19 24
4 30 36 19 41
4 40 33 9 43
4 39 31 13 44
4 31 39 13 28
4 33 40 27 8
4 44 18 31 10
4 41 20 36 19
4 31 13 10 28
4 22 14 39 44
4 17 33 43 9
4 40 9 27 14
4 40 14 22 43
4 33 43 23 16
4 14 22 31 44
4 17 31 22 44
4 38 45 21 18
4 26 15 37 8
4 40 9 14 43
4 16 32 42 8
4 33 23 40 8
4 20 12 34 25
4 39 13 21 44
4 19 45 20 34
4 20 38 12 25
4 18 13 38 25
4 25 34 18 10
4 19 12 36 24
4 19 30 11 24
4 11 34 12 25
4 31 13 44 10
4 9 14 31 28
4 15 27 40 8
4 42 37 23 8
4 26 32 29 1
4 32 42 29 5
4 29 0 37 26
4 29 37 4 42
4 7 36 35 41
4 2 30 35 24
4 6 41 35 30
4 35 36 3 24
4 19 12 34 20
4 20 12 36 19
4 13 18 44 10
4 14 31 17 9
4 22 14 31 17
4 14 17 43 9
4 17 14 43 22
4 21 13 38 18
4 18 21 13 44
4 12 19 34 11
4 25 18 13 10
4 23 15 40 8
4 12 19 11 24
4 23 33 16 8
4 37 15 23 8
4 16 42 23 8
4 35 6 30 2
4 3 36 35 7
4 29 32 5 1
4 42 4 29 5
4 37 4 0 29
4 41 35 7 6
4 35 3 2 24
4 26 29 0 1

CELL_TYPES 100
10
10
10
10
10
10
10
10
10
10
10
10
10
10
10
10
10
10
10
10
10
10
10
10
10
10
10
10
10
10
10
10
10
10
10
10
10
10
10
10
10
10
10
10
10
10
10
10
10
10
10
10
10
10
10
10
10
10
10
10
10
10
10
10
10
10
10
10
10
10
10
10
10
10
10
10
10
10
10
10
10
10
10
10
10
10
10
10
10
10
10
10
10
10
10
10
10
10
10
10
POINT_DATA 46
FIELD FieldData 2
DISPLACEMENT 3 46  float
0.0000000e+00 -1.1726873e-06 0.0000000e+00 
0.0000000e+00 -1.1726764e-06 0.0000000e+00 
0.0000000e+00 -2.0843618e-06 0.0000000e+00 
0.0000000e+00 -2.0842899e-06 0.0000000e+00 
0.0000000e+00 -1.1726895e-06 0.0000000e+00 
0.0000000e+00 -1.1726904e-06 0.0000000e+00 
0.0000000e+00 -2.0845980e-06 0.0000000e+00 
0.0000000e+00 -2.0845246e-06 0.0000000e+00 
0.0000000e+00 -1.3589568e-06 0.0000000e+00 
0.0000000e+00 -1.5396755e-06 0.0000000e+00 
0.0000000e+00 -1.7223529e-06 0.0000000e+00 
0.0000000e+00 -1.9045848e-06 0.0000000e+00 
0.0000000e+00 -1.9046512e-06 0.0000000e+00 
0.0000000e+00 -1.7223084e-06 0.0000000e+00 
0.0000000e+00 -1.5395277e-06 0.0000000e+00 
0.0000000e+00 -1.3588822e-06 0.0000000e+00 
0.0000000e+00 -1.3589072e-06 0.0000000e+00 
0.0000000e+00 -1.5396423e-06 0.0000000e+00 
0.0000000e+00 -1.7224668e-06 0.0000000e+00 
0.0000000e+00 -1.9045234e-06 0.0000000e+00 
0.0000000e+00 -1.9046375e-06 0.0000000e+00 
0.0000000e+00 -1.7223309e-06 0.0000000e+00 
0.0000000e+00 -1.5394378e-06 0.0000000e+00 
0.0000000e+00 -1.3589156e-06 0.0000000e+00 
0.0000000e+00 -1.9951344e-06 0.0000000e+00 
0.0000000e+00 -1.8138384e-06 0.0000000e+00 
0.0000000e+00 -1.2654084e-06 0.0000000e+00 
0.0000000e+00 -1.4498034e-06 0.0000000e+00 
0.0000000e+00 -1.6304374e-06 0.0000000e+00 
5.3714195e-12 -1.1725957e-06 -6.7100995e-12 
0.0000000e+00 -1.9950792e-06 0.0000000e+00 
0.0000000e+00 -1.6302949e-06 0.0000000e+00 
0.0000000e+00 -1.2654214e-06 0.0000000e+00 
0.0000000e+00 -1.4499886e-06 0.0000000e+00 
0.0000000e+00 -1.8136959e-06 0.0000000e+00 
-1.0593927e-11 -2.0844002e-06 9.3262897e-12 
0.0000000e+00 -1.9952272e-06 0.0000000e+00 
0.0000000e+00 -1.2654781e-06 0.0000000e+00 
0.0000000e+00 -1.8138954e-06 0.0000000e+00 
0.0000000e+00 -1.6303824e-06 0.0000000e+00 
0.0000000e+00 -1.4499034e-06 0.0000000e+00 
0.0000000e+00 -1.9951312e-06 0.0000000e+00 
0.0000000e+00 -1.2654766e-06 0.0000000e+00 
0.0000000e+00 -1.4498648e-06 0.0000000e+00 
0.0000000e+00 -1.6302857e-06 0.0000000e+00 
0.0000000e+00 -1.8137453e-06 0.0000000e+00 
VELOCITY 3 46  float
0.0000000e+00 -2.1963522e-05 0.0000000e+00 
0.0000000e+00 -2.1926147e-05 0.0000000e+00 
0.0000000e+00 -2.2657618e-05 0.0000000e+00 
0.0000000e+00 -2.2685641e-05 0.0000000e+00 
0.0000000e+00 -2.2000260e-05 0.0000000e+00 
0.0000000e+00 -2.1962258e-05 0.0000000e+00 
0.0000000e+00 -2.2578140e-05 0.0000000e+00 
0.0000000e+00 -2.2639593e-05 0.0000000e+00 
0.0000000e+00 -2.2413815e-05 0.0000000e+00 
0.0000000e+00 -2.0999987e-05 0.0000000e+00 
0.0000000e+00 -2.2327105e-05 0.0000000e+00 
0.0000000e+00 -2.1871403e-05 0.0000000e+00 
0.0000000e+00 -2.1823289e-05 0.0000000e+00 
0.0000000e+00 -2.2475824e-05 0.0000000e+00 
0.0000000e+00 -2.1007252e-05 0.0000000e+00 
0.0000000e+00 -2.2347400e-05 0.0000000e+00 
0.0000000e+00 -2.2338558e-05 0.0000000e+00 
0.0000000e+00 -2.1227628e-05 0.0000000e+00 
0.0000000e+00 -2.2183112e-05 0.0000000e+00 
0.0000000e+00 -2.2028968e-05 0.0000000e+00 
0.0000000e+00 -2.1734651e-05 0.0000000e+00 
0.0000000e+00 -2.2393773e-05 0.0000000e+00 
0.0000000e+00 -2.1133146e-05 0.0000000e+00 
0.0000000e+00 -2.2268545e-05 0.0000000e+00 
0.0000000e+00 -2.2062264e-05 0.0000000e+00 
0.0000000e+00 -2.1704671e-05 0.0000000e+00 
0.0000000e+00 -2.2518303e-05 0.0000000e+00 
0.0000000e+00 -2.1463213e-05 0.0000000e+00 
0.0000000e+00 -2.1915679e-05 0.0000000e+00 
5.9419234e-09 -2.1943613e-05 -5.3976845e-09 
0.0000000e+00 -2.2003891e-05 0.0000000e+00 
0.0000000e+00 -2.1959999e-05 0.0000000e+00 
0.0000000e+00 -2.2513927e-05 0.0000000e+00 
0.0000000e+00 -2.1467444e-05 0.0000000e+00 
0.0000000e+00 -2.1655804e-05 0.0000000e+00 
-1.0829205e-08 -2.2477911e-05 -2.4426383e-08 
0.0000000e+00 -2.2037730e-05 0.0000000e+00 
0.0000000e+00 -2.2570264e-05 0.0000000e+00 
0.0000000e+00 -2.1762402e-05 0.0000000e+00 
0.0000000e+00 -2.1984524e-05 0.0000000e+00 
0.0000000e+00 -2.1392372e-05 0.0000000e+00 
0.0000000e+00 -2.1921278e-05 0.0000000e+00 
0.0000000e+00 -2.2569757e-05 0.0000000e+00 
0.0000000e+00 -2.1391845e-05 0.0000000e+00 
0.0000000e+00 -2.2051903e-05 0.0000000e+00 
0.0000000e+00 -2.1722441e-05 0.0000000e+00 
CELL_DATA 100
FIELD FieldData 0
