# vtk DataFile Version 4.0
vtk output
ASCII
DATASET UNSTRUCTURED_GRID
POINTS 1920 float
0.0000000e+00 0.0000000e+00 0.0000000e+00 
0.0000000e+00 0.0000000e+00 5.0000000e+01 
5.0000000e+00 0.0000000e+00 0.0000000e+00 
5.0000000e+00 0.0000000e+00 5.0000000e+01 
5.0000000e+00 1.0000000e+00 0.0000000e+00 
5.0000000e+00 1.0000000e+00 5.0000000e+01 
0.0000000e+00 1.0000000e+00 0.0000000e+00 
0.0000000e+00 1.0000000e+00 5.0000000e+01 
5.0000000e+00 2.0000000e+00 0.0000000e+00 
5.0000000e+00 2.0000000e+00 5.0000000e+01 
3.0000000e+00 2.0000000e+00 0.0000000e+00 
3.0000000e+00 2.0000000e+00 5.0000000e+01 
0.0000000e+00 2.0000000e+00 0.0000000e+00 
0.0000000e+00 2.0000000e+00 5.0000000e+01 
1.5000000e+00 3.0000000e+00 0.0000000e+00 
1.5000000e+00 3.0000000e+00 5.0000000e+01 
7.5000000e-01 3.0000000e+00 0.0000000e+00 
7.5000000e-01 3.0000000e+00 5.0000000e+01 
0.0000000e+00 3.0000000e+00 0.0000000e+00 
0.0000000e+00 3.0000000e+00 5.0000000e+01 
7.5000000e-01 3.0000000e+00 5.0000000e-01 
7.5000000e-01 3.0000000e+00 1.0000000e+00 
7.5000000e-01 3.0000000e+00 1.5000000e+00 
7.5000000e-01 3.0000000e+00 2.0000000e+00 
7.5000000e-01 3.0000000e+00 2.5000000e+00 
7.5000000e-01 3.0000000e+00 3.0000000e+00 
7.5000000e-01 3.0000000e+00 3.5000000e+00 
7.5000000e-01 3.0000000e+00 4.0000000e+00 
7.5000000e-01 3.0000000e+00 4.5000000e+00 
7.5000000e-01 3.0000000e+00 5.0000000e+00 
7.5000000e-01 3.0000000e+00 5.5000000e+00 
7.5000000e-01 3.0000000e+00 6.0000000e+00 
7.5000000e-01 3.0000000e+00 6.5000000e+00 
7.5000000e-01 3.0000000e+00 7.0000000e+00 
7.5000000e-01 3.0000000e+00 7.5000000e+00 
7.5000000e-01 3.0000000e+00 8.0000000e+00 
7.5000000e-01 3.0000000e+00 8.5000000e+00 
7.5000000e-01 3.0000000e+00 9.0000000e+00 
7.5000000e-01 3.0000000e+00 9.5000000e+00 
7.5000000e-01 3.0000000e+00 1.0000000e+01 
7.5000000e-01 3.0000000e+00 1.0500000e+01 
7.5000000e-01 3.0000000e+00 1.1000000e+01 
7.5000000e-01 3.0000000e+00 1.1500000e+01 
7.5000000e-01 3.0000000e+00 1.2000000e+01 
7.5000000e-01 3.0000000e+00 1.2500000e+01 
7.5000000e-01 3.0000000e+00 1.3000000e+01 
7.5000000e-01 3.0000000e+00 1.3500000e+01 
7.5000000e-01 3.0000000e+00 1.4000000e+01 
7.5000000e-01 3.0000000e+00 1.4500000e+01 
7.5000000e-01 3.0000000e+00 1.5000000e+01 
7.5000000e-01 3.0000000e+00 1.5500000e+01 
7.5000000e-01 3.0000000e+00 1.6000000e+01 
7.5000000e-01 3.0000000e+00 1.6500000e+01 
7.5000000e-01 3.0000000e+00 1.7000000e+01 
7.5000000e-01 3.0000000e+00 1.7500000e+01 
7.5000000e-01 3.0000000e+00 1.8000000e+01 
7.5000000e-01 3.0000000e+00 1.8500000e+01 
7.5000000e-01 3.0000000e+00 1.9000000e+01 
7.5000000e-01 3.0000000e+00 1.9500000e+01 
7.5000000e-01 3.0000000e+00 2.0000000e+01 
7.5000000e-01 3.0000000e+00 2.0500000e+01 
7.5000000e-01 3.0000000e+00 2.1000000e+01 
7.5000000e-01 3.0000000e+00 2.1500000e+01 
7.5000000e-01 3.0000000e+00 2.2000000e+01 
7.5000000e-01 3.0000000e+00 2.2500000e+01 
7.5000000e-01 3.0000000e+00 2.3000000e+01 
7.5000000e-01 3.0000000e+00 2.3500000e+01 
7.5000000e-01 3.0000000e+00 2.4000000e+01 
7.5000000e-01 3.0000000e+00 2.4500000e+01 
7.5000000e-01 3.0000000e+00 2.5000000e+01 
7.5000000e-01 3.0000000e+00 2.5500000e+01 
7.5000000e-01 3.0000000e+00 2.6000000e+01 
7.5000000e-01 3.0000000e+00 2.6500000e+01 
7.5000000e-01 3.0000000e+00 2.7000000e+01 
7.5000000e-01 3.0000000e+00 2.7500000e+01 
7.5000000e-01 3.0000000e+00 2.8000000e+01 
7.5000000e-01 3.0000000e+00 2.8500000e+01 
7.5000000e-01 3.0000000e+00 2.9000000e+01 
7.5000000e-01 3.0000000e+00 2.9500000e+01 
7.5000000e-01 3.0000000e+00 3.0000000e+01 
7.5000000e-01 3.0000000e+00 3.0500000e+01 
7.5000000e-01 3.0000000e+00 3.1000000e+01 
7.5000000e-01 3.0000000e+00 3.1500000e+01 
7.5000000e-01 3.0000000e+00 3.2000000e+01 
7.5000000e-01 3.0000000e+00 3.2500000e+01 
7.5000000e-01 3.0000000e+00 3.3000000e+01 
7.5000000e-01 3.0000000e+00 3.3500000e+01 
7.5000000e-01 3.0000000e+00 3.4000000e+01 
7.5000000e-01 3.0000000e+00 3.4500000e+01 
7.5000000e-01 3.0000000e+00 3.5000000e+01 
7.5000000e-01 3.0000000e+00 3.5500000e+01 
7.5000000e-01 3.0000000e+00 3.6000000e+01 
7.5000000e-01 3.0000000e+00 3.6500000e+01 
7.5000000e-01 3.0000000e+00 3.7000000e+01 
7.5000000e-01 3.0000000e+00 3.7500000e+01 
7.5000000e-01 3.0000000e+00 3.8000000e+01 
7.5000000e-01 3.0000000e+00 3.8500000e+01 
7.5000000e-01 3.0000000e+00 3.9000000e+01 
7.5000000e-01 3.0000000e+00 3.9500000e+01 
7.5000000e-01 3.0000000e+00 4.0000000e+01 
7.5000000e-01 3.0000000e+00 4.0500000e+01 
7.5000000e-01 3.0000000e+00 4.1000000e+01 
7.5000000e-01 3.0000000e+00 4.1500000e+01 
7.5000000e-01 3.0000000e+00 4.2000000e+01 
7.5000000e-01 3.0000000e+00 4.2500000e+01 
7.5000000e-01 3.0000000e+00 4.3000000e+01 
7.5000000e-01 3.0000000e+00 4.3500000e+01 
7.5000000e-01 3.0000000e+00 4.4000000e+01 
7.5000000e-01 3.0000000e+00 4.4500000e+01 
7.5000000e-01 3.0000000e+00 4.5000000e+01 
7.5000000e-01 3.0000000e+00 4.5500000e+01 
7.5000000e-01 3.0000000e+00 4.6000000e+01 
7.5000000e-01 3.0000000e+00 4.6500000e+01 
7.5000000e-01 3.0000000e+00 4.7000000e+01 
7.5000000e-01 3.0000000e+00 4.7500000e+01 
7.5000000e-01 3.0000000e+00 4.8000000e+01 
7.5000000e-01 3.0000000e+00 4.8500000e+01 
7.5000000e-01 3.0000000e+00 4.9000000e+01 
7.5000000e-01 3.0000000e+00 4.9500000e+01 
7.5000000e-01 3.0250001e+00 0.0000000e+00 
7.5000000e-01 3.0250001e+00 5.0000000e-01 
7.5000000e-01 3.0250001e+00 1.0000000e+00 
7.5000000e-01 3.0250001e+00 1.5000000e+00 
7.5000000e-01 3.0250001e+00 2.0000000e+00 
7.5000000e-01 3.0250001e+00 2.5000000e+00 
7.5000000e-01 3.0250001e+00 3.0000000e+00 
7.5000000e-01 3.0250001e+00 3.5000000e+00 
7.5000000e-01 3.0250001e+00 4.0000000e+00 
7.5000000e-01 3.0250001e+00 4.5000000e+00 
7.5000000e-01 3.0250001e+00 5.0000000e+00 
7.5000000e-01 3.0250001e+00 5.5000000e+00 
7.5000000e-01 3.0250001e+00 6.0000000e+00 
7.5000000e-01 3.0250001e+00 6.5000000e+00 
7.5000000e-01 3.0250001e+00 7.0000000e+00 
7.5000000e-01 3.0250001e+00 7.5000000e+00 
7.5000000e-01 3.0250001e+00 8.0000000e+00 
7.5000000e-01 3.0250001e+00 8.5000000e+00 
7.5000000e-01 3.0250001e+00 9.0000000e+00 
7.5000000e-01 3.0250001e+00 9.5000000e+00 
7.5000000e-01 3.0250001e+00 1.0000000e+01 
7.5000000e-01 3.0250001e+00 1.0500000e+01 
7.5000000e-01 3.0250001e+00 1.1000000e+01 
7.5000000e-01 3.0250001e+00 1.1500000e+01 
7.5000000e-01 3.0250001e+00 1.2000000e+01 
7.5000000e-01 3.0250001e+00 1.2500000e+01 
7.5000000e-01 3.0250001e+00 1.3000000e+01 
7.5000000e-01 3.0250001e+00 1.3500000e+01 
7.5000000e-01 3.0250001e+00 1.4000000e+01 
7.5000000e-01 3.0250001e+00 1.4500000e+01 
7.5000000e-01 3.0250001e+00 1.5000000e+01 
7.5000000e-01 3.0250001e+00 1.5500000e+01 
7.5000000e-01 3.0250001e+00 1.6000000e+01 
7.5000000e-01 3.0250001e+00 1.6500000e+01 
7.5000000e-01 3.0250001e+00 1.7000000e+01 
7.5000000e-01 3.0250001e+00 1.7500000e+01 
7.5000000e-01 3.0250001e+00 1.8000000e+01 
7.5000000e-01 3.0250001e+00 1.8500000e+01 
7.5000000e-01 3.0250001e+00 1.9000000e+01 
7.5000000e-01 3.0250001e+00 1.9500000e+01 
7.5000000e-01 3.0250001e+00 2.0000000e+01 
7.5000000e-01 3.0250001e+00 2.0500000e+01 
7.5000000e-01 3.0250001e+00 2.1000000e+01 
7.5000000e-01 3.0250001e+00 2.1500000e+01 
7.5000000e-01 3.0250001e+00 2.2000000e+01 
7.5000000e-01 3.0250001e+00 2.2500000e+01 
7.5000000e-01 3.0250001e+00 2.3000000e+01 
7.5000000e-01 3.0250001e+00 2.3500000e+01 
7.5000000e-01 3.0250001e+00 2.4000000e+01 
7.5000000e-01 3.0250001e+00 2.4500000e+01 
7.5000000e-01 3.0250001e+00 2.5000000e+01 
7.5000000e-01 3.0250001e+00 2.5500000e+01 
7.5000000e-01 3.0250001e+00 2.6000000e+01 
7.5000000e-01 3.0250001e+00 2.6500000e+01 
7.5000000e-01 3.0250001e+00 2.7000000e+01 
7.5000000e-01 3.0250001e+00 2.7500000e+01 
7.5000000e-01 3.0250001e+00 2.8000000e+01 
7.5000000e-01 3.0250001e+00 2.8500000e+01 
7.5000000e-01 3.0250001e+00 2.9000000e+01 
7.5000000e-01 3.0250001e+00 2.9500000e+01 
7.5000000e-01 3.0250001e+00 3.0000000e+01 
7.5000000e-01 3.0250001e+00 3.0500000e+01 
7.5000000e-01 3.0250001e+00 3.1000000e+01 
7.5000000e-01 3.0250001e+00 3.1500000e+01 
7.5000000e-01 3.0250001e+00 3.2000000e+01 
7.5000000e-01 3.0250001e+00 3.2500000e+01 
7.5000000e-01 3.0250001e+00 3.3000000e+01 
7.5000000e-01 3.0250001e+00 3.3500000e+01 
7.5000000e-01 3.0250001e+00 3.4000000e+01 
7.5000000e-01 3.0250001e+00 3.4500000e+01 
7.5000000e-01 3.0250001e+00 3.5000000e+01 
7.5000000e-01 3.0250001e+00 3.5500000e+01 
7.5000000e-01 3.0250001e+00 3.6000000e+01 
7.5000000e-01 3.0250001e+00 3.6500000e+01 
7.5000000e-01 3.0250001e+00 3.7000000e+01 
7.5000000e-01 3.0250001e+00 3.7500000e+01 
7.5000000e-01 3.0250001e+00 3.8000000e+01 
7.5000000e-01 3.0250001e+00 3.8500000e+01 
7.5000000e-01 3.0250001e+00 3.9000000e+01 
7.5000000e-01 3.0250001e+00 3.9500000e+01 
7.5000000e-01 3.0250001e+00 4.0000000e+01 
7.5000000e-01 3.0250001e+00 4.0500000e+01 
7.5000000e-01 3.0250001e+00 4.1000000e+01 
7.5000000e-01 3.0250001e+00 4.1500000e+01 
7.5000000e-01 3.0250001e+00 4.2000000e+01 
7.5000000e-01 3.0250001e+00 4.2500000e+01 
7.5000000e-01 3.0250001e+00 4.3000000e+01 
7.5000000e-01 3.0250001e+00 4.3500000e+01 
7.5000000e-01 3.0250001e+00 4.4000000e+01 
7.5000000e-01 3.0250001e+00 4.4500000e+01 
7.5000000e-01 3.0250001e+00 4.5000000e+01 
7.5000000e-01 3.0250001e+00 4.5500000e+01 
7.5000000e-01 3.0250001e+00 4.6000000e+01 
7.5000000e-01 3.0250001e+00 4.6500000e+01 
7.5000000e-01 3.0250001e+00 4.7000000e+01 
7.5000000e-01 3.0250001e+00 4.7500000e+01 
7.5000000e-01 3.0250001e+00 4.8000000e+01 
7.5000000e-01 3.0250001e+00 4.8500000e+01 
7.5000000e-01 3.0250001e+00 4.9000000e+01 
7.5000000e-01 3.0250001e+00 4.9500000e+01 
7.5000000e-01 3.0250001e+00 5.0000000e+01 
1.5000000e+00 3.0000000e+00 2.5000000e+01 
3.0000000e+00 2.0000000e+00 2.5000000e+01 
4.0000000e+00 2.0000000e+00 2.5000000e+01 
5.0000000e+00 2.0000000e+00 2.5000000e+01 
0.0000000e+00 3.0000000e+00 2.5000000e+01 
0.0000000e+00 0.0000000e+00 1.0000000e+00 
0.0000000e+00 0.0000000e+00 2.0000000e+00 
0.0000000e+00 0.0000000e+00 3.0000000e+00 
0.0000000e+00 0.0000000e+00 4.0000000e+00 
0.0000000e+00 0.0000000e+00 5.0000000e+00 
[...]
POINT_DATA 1920
FIELD FieldData 3
DISPLACEMENT 3 1920  float
0.0000000e+00 0.0000000e+00 0.0000000e+00 
0.0000000e+00 0.0000000e+00 0.0000000e+00 
0.0000000e+00 0.0000000e+00 0.0000000e+00 
0.0000000e+00 0.0000000e+00 0.0000000e+00 
-2.4699061e-06 3.9528250e-06 3.1232005e-06 
1.3894406e-07 3.1375947e-07 -1.6660586e-07 
0.0000000e+00 -1.5536885e-05 0.0000000e+00 
0.0000000e+00 1.5414463e-06 0.0000000e+00 
-6.3131724e-06 4.1699586e-06 5.9081749e-06 
9.9873120e-08 7.8736264e-07 -1.1939918e-06 
-4.5772254e-06 -1.2794054e-06 1.0907327e-06 
3.2449736e-07 1.7588353e-07 -1.0105206e-06 
0.0000000e+00 -1.2717486e-05 0.0000000e+00 
0.0000000e+00 2.0079433e-06 0.0000000e+00 
1.3615962e-05 7.3523452e-06 -1.7104185e-05 
2.6903122e-06 2.6858463e-06 -4.2240499e-06 
-2.8428337e-06 3.3528271e-05 -3.8271378e-06 
1.1936802e-07 -3.1652321e-06 3.9695919e-06 
0.0000000e+00 -5.9572858e-06 0.0000000e+00 
0.0000000e+00 1.2228740e-08 0.0000000e+00 
1.4834814e-05 3.2884247e-05 -7.9445981e-06 
1.7460821e-05 3.0483054e-05 -1.2044616e-05 
2.9567607e-05 2.4303299e-05 -1.3845740e-05 
2.9482249e-05 1.4039118e-05 -1.2023148e-05 
3.0731011e-05 2.7336800e-06 -1.1823557e-05 
2.2772667e-05 -5.7664865e-06 -1.3962755e-05 
2.7446920e-05 -8.5902684e-06 -1.1284392e-05 
2.3452765e-05 -7.4633708e-06 -9.5602063e-06 
2.9420045e-05 -7.5198855e-06 -1.1624782e-05 
1.9452114e-05 -1.3702864e-05 -6.0798657e-06 
2.6807411e-05 -2.3687522e-05 5.8089074e-07 
1.1397829e-05 -2.9096038e-05 7.1474583e-06 
1.7764947e-05 -2.3990824e-05 6.6269417e-06 
8.3751629e-06 -9.4795623e-06 1.1487533e-05 
1.5117290e-05 6.2510103e-06 9.1902457e-06 
1.3600379e-05 1.4396805e-05 4.6506957e-06 
3.3845481e-05 1.5603306e-05 -8.5735364e-06 
2.7044272e-05 1.8986428e-05 -1.3605112e-06 
2.8012031e-05 4.0424158e-05 -5.8119231e-06 
2.8399418e-05 8.6933236e-05 -2.2436295e-06 
3.4271849e-05 1.3511199e-04 7.3871520e-06 
3.9921637e-05 1.3047628e-04 2.5446996e-05 
3.6148092e-05 2.1219821e-05 5.9709102e-05 
1.8537723e-05 -2.2838062e-04 9.2253649e-05 
-2.4726816e-05 -6.3643948e-04 1.7323041e-04 
-5.0811519e-05 -1.2203886e-03 1.4312839e-04 
-1.1004729e-04 -2.0276860e-03 2.6006784e-04 
-1.4984625e-04 -3.0547052e-03 1.1680383e-04 
-2.3866320e-04 -4.1738595e-03 1.9627046e-04 
-2.8386517e-04 -4.9227993e-03 5.5250486e-05 
-3.0027158e-04 -4.8770690e-03 -9.3283534e-06 
-2.9622347e-04 -4.5549036e-03 -7.0238377e-05 
-3.3817833e-04 -4.4617844e-03 -9.8281853e-05 
-6.2929705e-04 -4.5917644e-03 -1.5270371e-04 
-2.6097111e-04 -4.4261040e-03 -2.1322582e-04 
-1.5761802e-04 -3.4602105e-03 -1.4496653e-04 
-6.7333051e-05 -2.2025523e-03 -2.8293009e-04 
-3.5081299e-05 -1.1074559e-03 -1.3836252e-04 
2.2238393e-05 -3.6921364e-04 -1.2304768e-04 
3.8009446e-05 3.1274179e-05 -2.5218054e-05 
4.6623467e-05 1.9423447e-04 6.7463811e-06 
3.8941187e-05 2.2501627e-04 2.1932823e-05 
3.5588680e-05 1.9525721e-04 3.8918839e-05 
3.1375967e-05 1.3588420e-04 3.8124428e-05 
2.9425328e-05 6.6114808e-05 3.4749817e-05 
7.5481466e-06 5.3809026e-06 2.8678076e-05 
1.0634903e-05 -2.9295737e-05 3.2687080e-05 
6.4032997e-06 -3.7334445e-05 7.8649764e-06 
9.9645467e-07 -3.1327108e-05 -1.0360276e-05 
1.1158612e-06 -2.8720568e-05 -2.1835631e-05 
2.4177256e-05 -3.7431771e-05 -2.1261107e-05 
1.4867841e-05 -5.0699295e-05 -1.0195336e-05 
1.7238479e-05 -5.5563985e-05 1.5361329e-06 
6.6344123e-06 -4.3147986e-05 9.7701895e-06 
1.1793421e-05 -1.9742445e-05 -6.6580247e-07 
1.3968694e-05 4.0080031e-06 -3.5546930e-06 
3.3973909e-05 2.0875730e-05 -6.1690102e-06 
2.9325363e-05 2.9129473e-05 9.4034667e-06 
3.2957909e-05 3.7370533e-05 9.1343773e-06 
3.3527042e-05 5.7832716e-05 2.9227451e-05 
3.2467138e-05 8.7711225e-05 3.7030084e-05 
2.9656576e-05 9.5163465e-05 5.5530967e-05 
2.2464272e-05 1.5051372e-05 1.0497608e-04 
6.9261068e-06 -2.3828335e-04 1.0878915e-04 
-4.5926092e-05 -7.1580434e-04 1.7638468e-04 
-9.2845410e-05 -1.4166450e-03 1.2812993e-04 
-1.6652115e-04 -2.3276804e-03 2.2610957e-04 
-2.3783874e-04 -3.3665588e-03 6.8804067e-05 
-2.9862419e-04 -4.3640486e-03 1.3478505e-04 
-2.9020922e-04 -4.8959153e-03 1.4678165e-05 
-2.9134974e-04 -4.7876234e-03 -4.9494396e-05 
-2.9679708e-04 -4.5419657e-03 -8.3585961e-05 
-2.8642555e-04 -4.5376369e-03 -9.1085538e-05 
-3.5048556e-04 -4.6256599e-03 -2.1613677e-04 
-3.3313513e-04 -4.3492923e-03 -2.9979838e-04 
-3.8922421e-04 -3.3298510e-03 -4.5618622e-04 
-8.7371758e-05 -2.0555274e-03 -2.5358557e-04 
-1.2945128e-05 -1.0116870e-03 -1.1946701e-04 
2.7805412e-05 -3.3144001e-04 -1.0772800e-04 
2.9928977e-05 3.6073561e-05 -1.9557205e-05 
2.9676712e-05 1.9403503e-04 8.9317518e-06 
2.6617716e-05 2.2529370e-04 3.2099575e-05 
1.2237812e-05 1.8681072e-04 4.6275323e-05 
7.2059611e-06 1.1942674e-04 4.3220734e-05 
-1.0204402e-06 5.7740854e-05 4.3509517e-05 
-8.4908097e-06 1.9086547e-05 3.1396929e-05 
-1.4474986e-05 4.1567500e-06 2.2908833e-05 
-1.2188652e-05 8.3360743e-07 7.8597432e-06 
-1.2781388e-05 -1.7535989e-06 -9.4110983e-06 
-9.9236304e-06 -4.9490932e-06 -1.7861363e-05 
1.2426532e-06 -4.9589325e-06 -2.3010951e-05 
1.9659758e-06 -9.7498173e-07 -1.6835727e-05 
1.8955797e-06 3.5631012e-06 -5.2641471e-06 
2.5098634e-06 5.3320100e-06 5.3224073e-07 
-3.7799286e-06 3.4703394e-06 -3.1105674e-06 
-3.4702916e-06 7.3675913e-08 -6.6754883e-06 
3.9364086e-06 -2.4595286e-06 -9.9334766e-06 
3.5565890e-06 -3.3824570e-06 -8.0172331e-06 
4.1366543e-06 -3.3150052e-06 -1.5398756e-06 
0.0000000e+00 3.3601769e-05 0.0000000e+00 
0.0000000e+00 3.2997268e-05 0.0000000e+00 
0.0000000e+00 3.0414390e-05 0.0000000e+00 
0.0000000e+00 2.4144072e-05 0.0000000e+00 
0.0000000e+00 1.3998485e-05 0.0000000e+00 
0.0000000e+00 2.7493641e-06 0.0000000e+00 
0.0000000e+00 -5.5761875e-06 0.0000000e+00 
0.0000000e+00 -8.3943178e-06 0.0000000e+00 
0.0000000e+00 -7.3929386e-06 0.0000000e+00 
0.0000000e+00 -7.8308431e-06 0.0000000e+00 
0.0000000e+00 -1.4076840e-05 0.0000000e+00 
0.0000000e+00 -2.3762352e-05 0.0000000e+00 
0.0000000e+00 -2.8877404e-05 0.0000000e+00 
0.0000000e+00 -2.3576204e-05 0.0000000e+00 
0.0000000e+00 -9.2852706e-06 0.0000000e+00 
0.0000000e+00 5.9319686e-06 0.0000000e+00 
0.0000000e+00 1.3996989e-05 0.0000000e+00 
0.0000000e+00 1.5061596e-05 0.0000000e+00 
0.0000000e+00 1.9101155e-05 0.0000000e+00 
0.0000000e+00 4.1730513e-05 0.0000000e+00 
0.0000000e+00 8.8704895e-05 0.0000000e+00 
0.0000000e+00 1.3578338e-04 0.0000000e+00 
0.0000000e+00 1.3029591e-04 0.0000000e+00 
0.0000000e+00 1.9983048e-05 0.0000000e+00 
0.0000000e+00 -2.2913501e-04 0.0000000e+00 
0.0000000e+00 -6.3534704e-04 0.0000000e+00 
0.0000000e+00 -1.2226041e-03 0.0000000e+00 
0.0000000e+00 -2.0335412e-03 0.0000000e+00 
0.0000000e+00 -3.0719375e-03 0.0000000e+00 
0.0000000e+00 -4.1949335e-03 0.0000000e+00 
0.0000000e+00 -4.9538105e-03 0.0000000e+00 
0.0000000e+00 -4.8988601e-03 0.0000000e+00 
0.0000000e+00 -4.5816517e-03 0.0000000e+00 
0.0000000e+00 -4.4880859e-03 0.0000000e+00 
0.0000000e+00 -4.6124919e-03 0.0000000e+00 
0.0000000e+00 -4.4545811e-03 0.0000000e+00 
0.0000000e+00 -3.4843718e-03 0.0000000e+00 
0.0000000e+00 -2.2163936e-03 0.0000000e+00 
0.0000000e+00 -1.1177746e-03 0.0000000e+00 
0.0000000e+00 -3.7255613e-04 0.0000000e+00 
0.0000000e+00 3.1843771e-05 0.0000000e+00 
0.0000000e+00 1.9616204e-04 0.0000000e+00 
0.0000000e+00 2.2688627e-04 0.0000000e+00 
0.0000000e+00 1.9579822e-04 0.0000000e+00 
0.0000000e+00 1.3605213e-04 0.0000000e+00 
0.0000000e+00 6.6461260e-05 0.0000000e+00 
0.0000000e+00 6.1746309e-06 0.0000000e+00 
0.0000000e+00 -2.8871371e-05 0.0000000e+00 
0.0000000e+00 -3.7315214e-05 0.0000000e+00 
0.0000000e+00 -3.1728625e-05 0.0000000e+00 
0.0000000e+00 -2.9156405e-05 0.0000000e+00 
0.0000000e+00 -3.7743001e-05 0.0000000e+00 
0.0000000e+00 -5.0868723e-05 0.0000000e+00 
0.0000000e+00 -5.5164270e-05 0.0000000e+00 
0.0000000e+00 -4.2915821e-05 0.0000000e+00 
0.0000000e+00 -1.9607958e-05 0.0000000e+00 
0.0000000e+00 4.0132718e-06 0.0000000e+00 
0.0000000e+00 2.0383532e-05 0.0000000e+00 
0.0000000e+00 2.8689079e-05 0.0000000e+00 
0.0000000e+00 3.7607151e-05 0.0000000e+00 
0.0000000e+00 5.8949667e-05 0.0000000e+00 
0.0000000e+00 8.9793517e-05 0.0000000e+00 
0.0000000e+00 9.7126263e-05 0.0000000e+00 
0.0000000e+00 1.3977026e-05 0.0000000e+00 
0.0000000e+00 -2.4103317e-04 0.0000000e+00 
0.0000000e+00 -7.1762613e-04 0.0000000e+00 
0.0000000e+00 -1.4208854e-03 0.0000000e+00 
0.0000000e+00 -2.3322969e-03 0.0000000e+00 
0.0000000e+00 -3.3833743e-03 0.0000000e+00 
0.0000000e+00 -4.3850797e-03 0.0000000e+00 
0.0000000e+00 -4.9295044e-03 0.0000000e+00 
0.0000000e+00 -4.8116809e-03 0.0000000e+00 
0.0000000e+00 -4.5688231e-03 0.0000000e+00 
0.0000000e+00 -4.5579649e-03 0.0000000e+00 
0.0000000e+00 -4.6552364e-03 0.0000000e+00 
0.0000000e+00 -4.3739555e-03 0.0000000e+00 
0.0000000e+00 -3.3463247e-03 0.0000000e+00 
0.0000000e+00 -2.0731252e-03 0.0000000e+00 
0.0000000e+00 -1.0202578e-03 0.0000000e+00 
0.0000000e+00 -3.3308618e-04 0.0000000e+00 
0.0000000e+00 3.7303027e-05 0.0000000e+00 
0.0000000e+00 1.9515945e-04 0.0000000e+00 
0.0000000e+00 2.2609372e-04 0.0000000e+00 
0.0000000e+00 1.8744054e-04 0.0000000e+00 
0.0000000e+00 1.2060105e-04 0.0000000e+00 
0.0000000e+00 5.8590322e-05 0.0000000e+00 
0.0000000e+00 1.9469258e-05 0.0000000e+00 
0.0000000e+00 3.9125953e-06 0.0000000e+00 
0.0000000e+00 3.9482484e-07 0.0000000e+00 
0.0000000e+00 -1.8592943e-06 0.0000000e+00 
0.0000000e+00 -4.7169892e-06 0.0000000e+00 
0.0000000e+00 -4.8196375e-06 0.0000000e+00 
0.0000000e+00 -1.1127257e-06 0.0000000e+00 
0.0000000e+00 3.4101665e-06 0.0000000e+00 
0.0000000e+00 5.2788050e-06 0.0000000e+00 
0.0000000e+00 3.5448329e-06 0.0000000e+00 
0.0000000e+00 1.5606999e-07 0.0000000e+00 
0.0000000e+00 -2.4712197e-06 0.0000000e+00 
0.0000000e+00 -3.4384402e-06 0.0000000e+00 
0.0000000e+00 -3.3249200e-06 0.0000000e+00 
0.0000000e+00 -3.1264740e-06 0.0000000e+00 
5.3275648e-06 -4.5945959e-05 -7.4096806e-06 
1.9262094e-05 4.7223884e-06 1.8684298e-06 
7.6407368e-06 1.0611872e-06 1.7786980e-06 
-7.4607838e-06 -2.1738558e-06 4.0437449e-06 
0.0000000e+00 4.3229724e-05 0.0000000e+00 
0.0000000e+00 0.0000000e+00 0.0000000e+00 
0.0000000e+00 0.0000000e+00 0.0000000e+00 
0.0000000e+00 0.0000000e+00 0.0000000e+00 
0.0000000e+00 0.0000000e+00 0.0000000e+00 
0.0000000e+00 0.0000000e+00 0.0000000e+00 
0.0000000e+00 0.0000000e+00 0.0000000e+00 
0.0000000e+00 0.0000000e+00 0.0000000e+00 
0.0000000e+00 0.0000000e+00 0.0000000e+00 
0.0000000e+00 0.0000000e+00 0.0000000e+00 
0.0000000e+00 0.0000000e+00 0.0000000e+00 
0.0000000e+00 0.0000000e+00 0.0000000e+00 
0.0000000e+00 0.0000000e+00 0.0000000e+00 
0.0000000e+00 0.0000000e+00 0.0000000e+00 
0.0000000e+00 0.0000000e+00 0.0000000e+00 
0.0000000e+00 0.0000000e+00 0.0000000e+00 
0.0000000e+00 0.0000000e+00 0.0000000e+00 
0.0000000e+00 0.0000000e+00 0.0000000e+00 
0.0000000e+00 0.0000000e+00 0.0000000e+00 
0.0000000e+00 0.0000000e+00 0.0000000e+00 
0.0000000e+00 0.0000000e+00 0.0000000e+00 
0.0000000e+00 0.0000000e+00 0.0000000e+00 
0.0000000e+00 0.0000000e+00 0.0000000e+00 
0.0000000e+00 0.0000000e+00 0.0000000e+00 
0.0000000e+00 0.0000000e+00 0.0000000e+00 
0.0000000e+00 0.0000000e+00 0.0000000e+00 
0.0000000e+00 0.0000000e+00 0.0000000e+00 
0.0000000e+00 0.0000000e+00 0.0000000e+00 
0.0000000e+00 0.0000000e+00 0.0000000e+00 
0.0000000e+00 0.0000000e+00 0.0000000e+00 
0.0000000e+00 0.0000000e+00 0.0000000e+00 
0.0000000e+00 0.0000000e+00 0.0000000e+00 
0.0000000e+00 0.0000000e+00 0.0000000e+00 
0.0000000e+00 0.0000000e+00 0.0000000e+00 
0.0000000e+00 0.0000000e+00 0.0000000e+00 
0.0000000e+00 0.0000000e+00 0.0000000e+00 
0.0000000e+00 0.0000000e+00 0.0000000e+00 
0.0000000e+00 0.0000000e+00 0.0000000e+00 
0.0000000e+00 0.0000000e+00 0.0000000e+00 
0.0000000e+00 0.0000000e+00 0.0000000e+00 
0.0000000e+00 0.0000000e+00 0.0000000e+00 
0.0000000e+00 0.0000000e+00 0.0000000e+00 
0.0000000e+00 0.0000000e+00 0.0000000e+00 
0.0000000e+00 0.0000000e+00 0.0000000e+00 
0.0000000e+00 0.0000000e+00 0.0000000e+00 
0.0000000e+00 0.0000000e+00 0.0000000e+00 
0.0000000e+00 0.0000000e+00 0.0000000e+00 
0.0000000e+00 0.0000000e+00 0.0000000e+00 
0.0000000e+00 0.0000000e+00 0.0000000e+00 
0.0000000e+00 0.0000000e+00 0.0000000e+00 
0.0000000e+00 0.0000000e+00 0.0000000e+00 
0.0000000e+00 0.0000000e+00 0.0000000e+00 
0.0000000e+00 0.0000000e+00 0.0000000e+00 
0.0000000e+00 0.0000000e+00 0.0000000e+00 
0.0000000e+00 0.0000000e+00 0.0000000e+00 
0.0000000e+00 0.0000000e+00 0.0000000e+00 
0.0000000e+00 0.0000000e+00 0.0000000e+00 
0.0000000e+00 0.0000000e+00 0.0000000e+00 
0.0000000e+00 0.0000000e+00 0.0000000e+00 
0.0000000e+00 0.0000000e+00 0.0000000e+00 
0.0000000e+00 0.0000000e+00 0.0000000e+00 
0.0000000e+00 0.0000000e+00 0.0000000e+00 
0.0000000e+00 0.0000000e+00 0.0000000e+00 
0.0000000e+00 0.0000000e+00 0.0000000e+00 
0.0000000e+00 0.0000000e+00 0.0000000e+00 
0.0000000e+00 0.0000000e+00 0.0000000e+00 
0.0000000e+00 0.0000000e+00 0.0000000e+00 
0.0000000e+00 0.0000000e+00 0.0000000e+00 
0.0000000e+00 0.0000000e+00 0.0000000e+00 
0.0000000e+00 0.0000000e+00 0.0000000e+00 
0.0000000e+00 0.0000000e+00 0.0000000e+00 
0.0000000e+00 0.0000000e+00 0.0000000e+00 
0.0000000e+00 0.0000000e+00 0.0000000e+00 
0.0000000e+00 0.0000000e+00 0.0000000e+00 
0.0000000e+00 0.0000000e+00 0.0000000e+00 
0.0000000e+00 0.0000000e+00 0.0000000e+00 
0.0000000e+00 0.0000000e+00 0.0000000e+00 
0.0000000e+00 0.0000000e+00 0.0000000e+00 
0.0000000e+00 0.0000000e+00 0.0000000e+00 
0.0000000e+00 0.0000000e+00 0.0000000e+00 
0.0000000e+00 0.0000000e+00 0.0000000e+00 
0.0000000e+00 0.0000000e+00 0.0000000e+00 
0.0000000e+00 0.0000000e+00 0.0000000e+00 
0.0000000e+00 0.0000000e+00 0.0000000e+00 
0.0000000e+00 0.0000000e+00 0.0000000e+00 
0.0000000e+00 0.0000000e+00 0.0000000e+00 
0.0000000e+00 0.0000000e+00 0.0000000e+00 
0.0000000e+00 0.0000000e+00 0.0000000e+00 
0.0000000e+00 0.0000000e+00 0.0000000e+00 
0.0000000e+00 0.0000000e+00 0.0000000e+00 
0.0000000e+00 0.0000000e+00 0.0000000e+00 
0.0000000e+00 0.0000000e+00 0.0000000e+00 
0.0000000e+00 0.0000000e+00 0.0000000e+00 
0.0000000e+00 0.0000000e+00 0.0000000e+00 
0.0000000e+00 0.0000000e+00 0.0000000e+00 
0.0000000e+00 0.0000000e+00 0.0000000e+00 
0.0000000e+00 0.0000000e+00 0.0000000e+00 
0.0000000e+00 0.0000000e+00 0.0000000e+00 
0.0000000e+00 0.0000000e+00 0.0000000e+00 
0.0000000e+00 0.0000000e+00 0.0000000e+00 
0.0000000e+00 0.0000000e+00 0.0000000e+00 
0.0000000e+00 0.0000000e+00 0.0000000e+00 
0.0000000e+00 0.0000000e+00 0.0000000e+00 
0.0000000e+00 0.0000000e+00 0.0000000e+00 
0.0000000e+00 0.0000000e+00 0.0000000e+00 
0.0000000e+00 0.0000000e+00 0.0000000e+00 
0.0000000e+00 0.0000000e+00 0.0000000e+00 
-2.7292108e-06 6.9243993e-07 2.2301735e-06 
-3.1448685e-06 -3.3055710e-06 1.7600385e-06 
-3.9391139e-06 -4.8541956e-06 2.9902153e-06 
-6.1404148e-06 -4.5685861e-06 1.4215337e-06 
-7.1344334e-06 -5.5467976e-06 -6.4702789e-07 
-7.1676454e-06 -2.5109528e-06 -5.6974295e-07 
-3.9911338e-06 -1.5735335e-06 -7.6678083e-07 
-4.4403655e-06 -8.3064297e-06 -4.5266411e-06 
-4.6215473e-06 -1.1315037e-06 -8.3734940e-06 
1.9807260e-06 -5.7984648e-06 -1.4489719e-05 
9.0191934e-06 -1.2920959e-05 -1.8256778e-05 
1.7004779e-05 -7.4731674e-06 -1.9828492e-05 
3.1993248e-05 -9.3715862e-06 -2.2640810e-05 
3.8515100e-05 -1.3394400e-05 -1.5694792e-05 
4.6355872e-05 -1.1457601e-05 -1.0523785e-05 
4.8644011e-05 -8.9888290e-06 3.8304367e-07 
3.7820719e-05 -7.2811895e-06 1.2242565e-05 
2.5383695e-05 -4.5123957e-06 1.9196916e-05 
1.7444358e-05 -5.6885542e-06 1.7937342e-05 
8.0389655e-06 -3.2741684e-06 1.8836225e-05 
1.8254424e-06 -5.3973940e-06 1.6382499e-05 
2.7863416e-07 -2.8703707e-06 1.2134680e-05 
-1.3496330e-06 -3.9774527e-06 8.8081533e-06 
-6.1612495e-06 -1.6468528e-06 6.5141744e-06 
-3.7476152e-06 -7.1049858e-06 1.0368562e-06 
-8.9913401e-06 -5.3154722e-06 -2.3159383e-07 
-4.7296576e-06 1.6540587e-07 6.0866046e-07 
-3.9762608e-06 -6.2548388e-06 -2.4450073e-06 
-5.4818797e-06 -8.6014097e-06 -6.7837182e-06 
2.9913874e-08 -1.4283800e-06 -1.2116105e-05 
9.4521747e-06 -6.1478463e-06 -1.9426734e-05 
2.0513748e-05 -1.2710963e-05 -2.3442415e-05 
3.2421711e-05 -8.3045688e-06 -1.9678137e-05 
4.1721934e-05 -1.1808200e-05 -1.8092347e-05 
4.5787074e-05 -1.4219616e-05 -1.3603909e-05 
4.7224821e-05 -9.5187979e-06 -3.4174025e-06 
3.7773043e-05 -1.1077198e-05 6.0549382e-06 
2.4790426e-05 -8.2475535e-06 1.2254488e-05 
1.5835762e-05 -5.6995809e-06 1.3536542e-05 
9.5484220e-06 -3.3449642e-06 1.3718277e-05 
4.8082634e-06 -2.1432259e-06 1.2324315e-05 
3.1444683e-06 -1.9079982e-06 8.2560300e-06 
2.8474171e-06 -9.9113845e-07 5.4076063e-06 
7.0174616e-07 1.0594290e-07 2.6823457e-06 
-8.5623316e-07 -2.8872853e-07 1.1279748e-06 
-9.0736518e-07 -3.1548541e-07 1.7425056e-07 
-4.9803867e-07 1.3698592e-07 -3.8539343e-07 
-3.2766096e-08 -2.0036122e-09 -4.8609235e-07 
1.9231663e-07 -4.2073825e-07 -1.0493988e-08 
0.0000000e+00 -4.4106987e-06 0.0000000e+00 
0.0000000e+00 -4.1901176e-06 0.0000000e+00 
0.0000000e+00 8.8070383e-06 0.0000000e+00 
0.0000000e+00 2.6231844e-05 0.0000000e+00 
0.0000000e+00 1.6527621e-05 0.0000000e+00 
0.0000000e+00 2.6303826e-05 0.0000000e+00 
0.0000000e+00 4.1094896e-05 0.0000000e+00 
0.0000000e+00 1.9149062e-05 0.0000000e+00 
0.0000000e+00 1.0541064e-05 0.0000000e+00 
0.0000000e+00 1.8321562e-05 0.0000000e+00 
0.0000000e+00 -1.4690272e-05 0.0000000e+00 
0.0000000e+00 -1.0903310e-04 0.0000000e+00 
0.0000000e+00 -2.1261373e-04 0.0000000e+00 
0.0000000e+00 -4.1976853e-04 0.0000000e+00 
0.0000000e+00 -5.1120232e-04 0.0000000e+00 
0.0000000e+00 -5.4132845e-04 0.0000000e+00 
0.0000000e+00 -4.7081598e-04 0.0000000e+00 
0.0000000e+00 -3.0901469e-04 0.0000000e+00 
0.0000000e+00 -1.6025981e-04 0.0000000e+00 
0.0000000e+00 -2.5607224e-05 0.0000000e+00 
0.0000000e+00 7.8021094e-06 0.0000000e+00 
0.0000000e+00 1.5724123e-05 0.0000000e+00 
0.0000000e+00 1.3956726e-05 0.0000000e+00 
0.0000000e+00 4.1639760e-05 0.0000000e+00 
0.0000000e+00 4.8633650e-05 0.0000000e+00 
0.0000000e+00 4.0763953e-05 0.0000000e+00 
0.0000000e+00 5.2344752e-05 0.0000000e+00 
0.0000000e+00 5.1686500e-05 0.0000000e+00 
0.0000000e+00 1.3034288e-05 0.0000000e+00 
0.0000000e+00 2.2515669e-05 0.0000000e+00 
0.0000000e+00 -4.7881804e-06 0.0000000e+00 
0.0000000e+00 -1.0113703e-04 0.0000000e+00 
0.0000000e+00 -2.3646079e-04 0.0000000e+00 
0.0000000e+00 -4.1555904e-04 0.0000000e+00 
0.0000000e+00 -5.4987299e-04 0.0000000e+00 
0.0000000e+00 -5.2400207e-04 0.0000000e+00 
0.0000000e+00 -4.5595021e-04 0.0000000e+00 
0.0000000e+00 -3.3451893e-04 0.0000000e+00 
0.0000000e+00 -1.0172957e-04 0.0000000e+00 
0.0000000e+00 -2.9109508e-05 0.0000000e+00 
0.0000000e+00 1.6524303e-06 0.0000000e+00 
0.0000000e+00 6.9207482e-07 0.0000000e+00 
0.0000000e+00 5.4638485e-07 0.0000000e+00 
0.0000000e+00 2.6117384e-06 0.0000000e+00 
0.0000000e+00 3.5285418e-06 0.0000000e+00 
0.0000000e+00 1.3383557e-06 0.0000000e+00 
0.0000000e+00 9.3751623e-07 0.0000000e+00 
0.0000000e+00 -2.0500354e-06 0.0000000e+00 
0.0000000e+00 4.0272005e-07 0.0000000e+00 
-2.0465852e-06 -9.5913742e-07 1.7005369e-06 
-6.6199550e-07 -2.0294481e-06 -1.7239817e-06 
2.3615374e-07 -2.7056406e-06 -1.9764125e-06 
3.2980125e-07 -7.2729972e-06 -9.0053771e-07 
2.2252905e-07 7.7471306e-08 1.0154221e-07 
-1.1325510e-07 4.4420233e-08 2.1117047e-07 
-5.9004083e-07 1.1700580e-06 -6.4022129e-07 
2.4681293e-08 1.6464342e-06 -7.6231220e-07 
-4.4430803e-06 1.4125820e-06 4.8276270e-06 
2.4622119e-07 3.8347264e-07 -8.8933086e-07 
-1.7687940e-06 -2.2418617e-06 3.1876177e-06 
-2.7738070e-06 9.4021868e-07 3.0529086e-06 
0.0000000e+00 -1.4734094e-05 0.0000000e+00 
0.0000000e+00 -2.5548716e-06 0.0000000e+00 
0.0000000e+00 1.7105878e-05 0.0000000e+00 
0.0000000e+00 2.5929123e-05 0.0000000e+00 
0.0000000e+00 3.0426925e-05 0.0000000e+00 
0.0000000e+00 5.8738915e-05 0.0000000e+00 
0.0000000e+00 3.9129667e-05 0.0000000e+00 
0.0000000e+00 4.6139980e-05 0.0000000e+00 
0.0000000e+00 3.1233303e-05 0.0000000e+00 
0.0000000e+00 4.8262678e-05 0.0000000e+00 
0.0000000e+00 -2.7829414e-05 0.0000000e+00 
0.0000000e+00 -1.8126071e-04 0.0000000e+00 
0.0000000e+00 -3.9569862e-04 0.0000000e+00 
0.0000000e+00 -8.4350654e-04 0.0000000e+00 