# vtk DataFile Version 4.0
vtk output
ASCII
DATASET UNSTRUCTURED_GRID
POINTS 1920 float
0.0000000e+00 0.0000000e+00 0.0000000e+00 
0.0000000e+00 0.0000000e+00 5.0000000e+01 
5.0000000e+00 0.0000000e+00 0.0000000e+00 
5.0000000e+00 0.0000000e+00 5.0000000e+01 
5.0000000e+00 1.0000000e+00 0.0000000e+00 
5.0000000e+00 1.0000000e+00 5.0000000e+01 
0.0000000e+00 1.0000000e+00 0.0000000e+00 
0.0000000e+00 1.0000000e+00 5.0000000e+01 
5.0000000e+00 2.0000000e+00 0.0000000e+00 
5.0000000e+00 2.0000000e+00 5.0000000e+01 
3.0000000e+00 2.0000000e+00 0.0000000e+00 
3.0000000e+00 2.0000000e+00 5.0000000e+01 
0.0000000e+00 2.0000000e+00 0.0000000e+00 
0.0000000e+00 2.0000000e+00 5.0000000e+01 
1.5000000e+00 3.0000000e+00 0.0000000e+00 
1.5000000e+00 3.0000000e+00 5.0000000e+01 
7.5000000e-01 3.0000000e+00 0.0000000e+00 
7.5000000e-01 3.0000000e+00 5.0000000e+01 
0.0000000e+00 3.0000000e+00 0.0000000e+00 
0.0000000e+00 3.0000000e+00 5.0000000e+01 
7.5000000e-01 3.0000000e+00 5.0000000e-01 
7.5000000e-01 3.0000000e+00 1.0000000e+00 
7.5000000e-01 3.0000000e+00 1.5000000e+00 
7.5000000e-01 3.0000000e+00 2.0000000e+00 
7.5000000e-01 3.0000000e+00 2.5000000e+00 
7.5000000e-01 3.0000000e+00 3.0000000e+00 
7.5000000e-01 3.0000000e+00 3.5000000e+00 
7.5000000e-01 3.0000000e+00 4.0000000e+00 
7.5000000e-01 3.0000000e+00 4.5000000e+00 
7.5000000e-01 3.0000000e+00 5.0000000e+00 
7.5000000e-01 3.0000000e+00 5.5000000e+00 
7.5000000e-01 3.0000000e+00 6.0000000e+00 
7.5000000e-01 3.0000000e+00 6.5000000e+00 
7.5000000e-01 3.0000000e+00 7.0000000e+00 
7.5000000e-01 3.0000000e+00 7.5000000e+00 
7.5000000e-01 3.0000000e+00 8.0000000e+00 
7.5000000e-01 3.0000000e+00 8.5000000e+00 
7.5000000e-01 3.0000000e+00 9.0000000e+00 
7.5000000e-01 3.0000000e+00 9.5000000e+00 
7.5000000e-01 3.0000000e+00 1.0000000e+01 
7.5000000e-01 3.0000000e+00 1.0500000e+01 
7.5000000e-01 3.0000000e+00 1.1000000e+01 
7.5000000e-01 3.0000000e+00 1.1500000e+01 
7.5000000e-01 3.0000000e+00 1.2000000e+01 
7.5000000e-01 3.0000000e+00 1.2500000e+01 
7.5000000e-01 3.0000000e+00 1.3000000e+01 
7.5000000e-01 3.0000000e+00 1.3500000e+01 
7.5000000e-01 3.0000000e+00 1.4000000e+01 
7.5000000e-01 3.0000000e+00 1.4500000e+01 
7.5000000e-01 3.0000000e+00 1.5000000e+01 
7.5000000e-01 3.0000000e+00 1.5500000e+01 
7.5000000e-01 3.0000000e+00 1.6000000e+01 
7.5000000e-01 3.0000000e+00 1.6500000e+01 
7.5000000e-01 3.0000000e+00 1.7000000e+01 
7.5000000e-01 3.0000000e+00 1.7500000e+01 
7.5000000e-01 3.0000000e+00 1.8000000e+01 
7.5000000e-01 3.0000000e+00 1.8500000e+01 
7.5000000e-01 3.0000000e+00 1.9000000e+01 
7.5000000e-01 3.0000000e+00 1.9500000e+01 
7.5000000e-01 3.0000000e+00 2.0000000e+01 
7.5000000e-01 3.0000000e+00 2.0500000e+01 
7.5000000e-01 3.0000000e+00 2.1000000e+01 
7.5000000e-01 3.0000000e+00 2.1500000e+01 
7.5000000e-01 3.0000000e+00 2.2000000e+01 
7.5000000e-01 3.0000000e+00 2.2500000e+01 
7.5000000e-01 3.0000000e+00 2.3000000e+01 
7.5000000e-01 3.0000000e+00 2.3500000e+01 
7.5000000e-01 3.0000000e+00 2.4000000e+01 
7.5000000e-01 3.0000000e+00 2.4500000e+01 
7.5000000e-01 3.0000000e+00 2.5000000e+01 
7.5000000e-01 3.0000000e+00 2.5500000e+01 
7.5000000e-01 3.0000000e+00 2.6000000e+01 
7.5000000e-01 3.0000000e+00 2.6500000e+01 
7.5000000e-01 3.0000000e+00 2.7000000e+01 
7.5000000e-01 3.0000000e+00 2.7500000e+01 
7.5000000e-01 3.0000000e+00 2.8000000e+01 
7.5000000e-01 3.0000000e+00 2.8500000e+01 
7.5000000e-01 3.0000000e+00 2.9000000e+01 
7.5000000e-01 3.0000000e+00 2.9500000e+01 
7.5000000e-01 3.0000000e+00 3.0000000e+01 
7.5000000e-01 3.0000000e+00 3.0500000e+01 
7.5000000e-01 3.0000000e+00 3.1000000e+01 
7.5000000e-01 3.0000000e+00 3.1500000e+01 
7.5000000e-01 3.0000000e+00 3.2000000e+01 
7.5000000e-01 3.0000000e+00 3.2500000e+01 
7.5000000e-01 3.0000000e+00 3.3000000e+01 
7.5000000e-01 3.0000000e+00 3.3500000e+01 
7.5000000e-01 3.0000000e+00 3.4000000e+01 
7.5000000e-01 3.0000000e+00 3.4500000e+01 
7.5000000e-01 3.0000000e+00 3.5000000e+01 
7.5000000e-01 3.0000000e+00 3.5500000e+01 
7.5000000e-01 3.0000000e+00 3.6000000e+01 
7.5000000e-01 3.0000000e+00 3.6500000e+01 
7.5000000e-01 3.0000000e+00 3.7000000e+01 
7.5000000e-01 3.0000000e+00 3.7500000e+01 
7.5000000e-01 3.0000000e+00 3.8000000e+01 
7.5000000e-01 3.0000000e+00 3.8500000e+01 
7.5000000e-01 3.0000000e+00 3.9000000e+01 
7.5000000e-01 3.0000000e+00 3.9500000e+01 
7.5000000e-01 3.0000000e+00 4.0000000e+01 
7.5000000e-01 3.0000000e+00 4.0500000e+01 
7.5000000e-01 3.0000000e+00 4.1000000e+01 
7.5000000e-01 3.0000000e+00 4.1500000e+01 
7.5000000e-01 3.0000000e+00 4.2000000e+01 
7.5000000e-01 3.0000000e+00 4.2500000e+01 
7.5000000e-01 3.0000000e+00 4.3000000e+01 
7.5000000e-01 3.0000000e+00 4.3500000e+01 
7.5000000e-01 3.0000000e+00 4.4000000e+01 
7.5000000e-01 3.0000000e+00 4.4500000e+01 
7.5000000e-01 3.0000000e+00 4.5000000e+01 
7.5000000e-01 3.0000000e+00 4.5500000e+01 
7.5000000e-01 3.0000000e+00 4.6000000e+01 
7.5000000e-01 3.0000000e+00 4.6500000e+01 
7.5000000e-01 3.0000000e+00 4.7000000e+01 
7.5000000e-01 3.0000000e+00 4.7500000e+01 
7.5000000e-01 3.0000000e+00 4.8000000e+01 
7.5000000e-01 3.0000000e+00 4.8500000e+01 
7.5000000e-01 3.0000000e+00 4.9000000e+01 
7.5000000e-01 3.0000000e+00 4.9500000e+01 
7.5000000e-01 3.0250001e+00 0.0000000e+00 
7.5000000e-01 3.0250001e+00 5.0000000e-01 
7.5000000e-01 3.0250001e+00 1.0000000e+00 
7.5000000e-01 3.0250001e+00 1.5000000e+00 
7.5000000e-01 3.0250001e+00 2.0000000e+00 
7.5000000e-01 3.0250001e+00 2.5000000e+00 
7.5000000e-01 3.0250001e+00 3.0000000e+00 
7.5000000e-01 3.0250001e+00 3.5000000e+00 
7.5000000e-01 3.0250001e+00 4.0000000e+00 
7.5000000e-01 3.0250001e+00 4.5000000e+00 
7.5000000e-01 3.0250001e+00 5.0000000e+00 
7.5000000e-01 3.0250001e+00 5.5000000e+00 
7.5000000e-01 3.0250001e+00 6.0000000e+00 
7.5000000e-01 3.0250001e+00 6.5000000e+00 
7.5000000e-01 3.0250001e+00 7.0000000e+00 
7.5000000e-01 3.0250001e+00 7.5000000e+00 
7.5000000e-01 3.0250001e+00 8.0000000e+00 
7.5000000e-01 3.0250001e+00 8.5000000e+00 
7.5000000e-01 3.0250001e+00 9.0000000e+00 
7.5000000e-01 3.0250001e+00 9.5000000e+00 
7.5000000e-01 3.0250001e+00 1.0000000e+01 
7.5000000e-01 3.0250001e+00 1.0500000e+01 
7.5000000e-01 3.0250001e+00 1.1000000e+01 
7.5000000e-01 3.0250001e+00 1.1500000e+01 
7.5000000e-01 3.0250001e+00 1.2000000e+01 
7.5000000e-01 3.0250001e+00 1.2500000e+01 
7.5000000e-01 3.0250001e+00 1.3000000e+01 
7.5000000e-01 3.0250001e+00 1.3500000e+01 
7.5000000e-01 3.0250001e+00 1.4000000e+01 
7.5000000e-01 3.0250001e+00 1.4500000e+01 
7.5000000e-01 3.0250001e+00 1.5000000e+01 
7.5000000e-01 3.0250001e+00 1.5500000e+01 
7.5000000e-01 3.0250001e+00 1.6000000e+01 
7.5000000e-01 3.0250001e+00 1.6500000e+01 
7.5000000e-01 3.0250001e+00 1.7000000e+01 
7.5000000e-01 3.0250001e+00 1.7500000e+01 
7.5000000e-01 3.0250001e+00 1.8000000e+01 
7.5000000e-01 3.0250001e+00 1.8500000e+01 
7.5000000e-01 3.0250001e+00 1.9000000e+01 
7.5000000e-01 3.0250001e+00 1.9500000e+01 
7.5000000e-01 3.0250001e+00 2.0000000e+01 
7.5000000e-01 3.0250001e+00 2.0500000e+01 
7.5000000e-01 3.0250001e+00 2.1000000e+01 
7.5000000e-01 3.0250001e+00 2.1500000e+01 
7.5000000e-01 3.0250001e+00 2.2000000e+01 
7.5000000e-01 3.0250001e+00 2.2500000e+01 
7.5000000e-01 3.0250001e+00 2.3000000e+01 
7.5000000e-01 3.0250001e+00 2.3500000e+01 
7.5000000e-01 3.0250001e+00 2.4000000e+01 
7.5000000e-01 3.0250001e+00 2.4500000e+01 
7.5000000e-01 3.0250001e+00 2.5000000e+01 
7.5000000e-01 3.0250001e+00 2.5500000e+01 
7.5000000e-01 3.0250001e+00 2.6000000e+01 
7.5000000e-01 3.0250001e+00 2.6500000e+01 
7.5000000e-01 3.0250001e+00 2.7000000e+01 
7.5000000e-01 3.0250001e+00 2.7500000e+01 
7.5000000e-01 3.0250001e+00 2.8000000e+01 
7.5000000e-01 3.0250001e+00 2.8500000e+01 
7.5000000e-01 3.0250001e+00 2.9000000e+01 
7.5000000e-01 3.0250001e+00 2.9500000e+01 
7.5000000e-01 3.0250001e+00 3.0000000e+01 
7.5000000e-01 3.0250001e+00 3.0500000e+01 
7.5000000e-01 3.0250001e+00 3.1000000e+01 
7.5000000e-01 3.0250001e+00 3.1500000e+01 
7.5000000e-01 3.0250001e+00 3.2000000e+01 
7.5000000e-01 3.0250001e+00 3.2500000e+01 
7.5000000e-01 3.0250001e+00 3.3000000e+01 
7.5000000e-01 3.0250001e+00 3.3500000e+01 
7.5000000e-01 3.0250001e+00 3.4000000e+01 
7.5000000e-01 3.0250001e+00 3.4500000e+01 
7.5000000e-01 3.0250001e+00 3.5000000e+01 
7.5000000e-01 3.0250001e+00 3.5500000e+01 
7.5000000e-01 3.0250001e+00 3.6000000e+01 
7.5000000e-01 3.0250001e+00 3.6500000e+01 
7.5000000e-01 3.0250001e+00 3.7000000e+01 
7.5000000e-01 3.0250001e+00 3.7500000e+01 
7.5000000e-01 3.0250001e+00 3.8000000e+01 
7.5000000e-01 3.0250001e+00 3.8500000e+01 
7.5000000e-01 3.0250001e+00 3.9000000e+01 
7.5000000e-01 3.0250001e+00 3.9500000e+01 
7.5000000e-01 3.0250001e+00 4.0000000e+01 
7.5000000e-01 3.0250001e+00 4.0500000e+01 
7.5000000e-01 3.0250001e+00 4.1000000e+01 
7.5000000e-01 3.0250001e+00 4.1500000e+01 
7.5000000e-01 3.0250001e+00 4.2000000e+01 
7.5000000e-01 3.0250001e+00 4.2500000e+01 
7.5000000e-01 3.0250001e+00 4.3000000e+01 
7.5000000e-01 3.0250001e+00 4.3500000e+01 
7.5000000e-01 3.0250001e+00 4.4000000e+01 
7.5000000e-01 3.0250001e+00 4.4500000e+01 
7.5000000e-01 3.0250001e+00 4.5000000e+01 
7.5000000e-01 3.0250001e+00 4.5500000e+01 
7.5000000e-01 3.0250001e+00 4.6000000e+01 
7.5000000e-01 3.0250001e+00 4.6500000e+01 
7.5000000e-01 3.0250001e+00 4.7000000e+01 
7.5000000e-01 3.0250001e+00 4.7500000e+01 
7.5000000e-01 3.0250001e+00 4.8000000e+01 
7.5000000e-01 3.0250001e+00 4.8500000e+01 
7.5000000e-01 3.0250001e+00 4.9000000e+01 
7.5000000e-01 3.0250001e+00 4.9500000e+01 
7.5000000e-01 3.0250001e+00 5.0000000e+01 
1.5000000e+00 3.0000000e+00 2.5000000e+01 
3.0000000e+00 2.0000000e+00 2.5000000e+01 
4.0000000e+00 2.0000000e+00 2.5000000e+01 
5.0000000e+00 2.0000000e+00 2.5000000e+01 
0.0000000e+00 3.0000000e+00 2.5000000e+01 
0.0000000e+00 0.0000000e+00 1.0000000e+00 
0.0000000e+00 0.0000000e+00 2.0000000e+00 
0.0000000e+00 0.0000000e+00 3.0000000e+00 
0.0000000e+00 0.0000000e+00 4.0000000e+00 
0.0000000e+00 0.0000000e+00 5.0000000e+00 
[...]
POINT_DATA 1920
FIELD FieldData 3
DISPLACEMENT 3 1920  float
0.0000000e+00 0.0000000e+00 0.0000000e+00 
0.0000000e+00 0.0000000e+00 0.0000000e+00 
0.0000000e+00 0.0000000e+00 0.0000000e+00 
0.0000000e+00 0.0000000e+00 0.0000000e+00 
-4.9417923e-07 4.4669170e-07 8.6827208e-07 
1.0147156e-05 -5.1472161e-06 1.4730856e-05 
0.0000000e+00 2.0221451e-06 0.0000000e+00 
0.0000000e+00 -1.0756774e-05 0.0000000e+00 
-9.9638754e-08 2.9126053e-07 1.0940931e-06 
1.0430686e-05 -5.6024203e-07 1.5599006e-05 
-8.2551985e-08 1.2610491e-06 8.7781262e-07 
1.1303928e-05 5.1159059e-06 9.3980752e-06 
0.0000000e+00 4.0245122e-06 0.0000000e+00 
0.0000000e+00 3.7128972e-05 0.0000000e+00 
7.0548758e-08 5.9433441e-06 7.9742276e-06 
-2.9187508e-05 9.9708494e-05 -2.4691731e-04 
2.0963957e-07 -1.2500377e-06 4.8474835e-06 
3.4514738e-05 1.3806520e-04 -2.2743447e-04 
0.0000000e+00 3.7018488e-06 0.0000000e+00 
0.0000000e+00 2.6658541e-04 0.0000000e+00 
-1.1357506e-06 -1.3221046e-06 3.5689789e-06 
-1.8154518e-06 -1.6557433e-06 1.8815799e-06 
-2.6103532e-06 -2.4739752e-06 4.8579528e-07 
-4.1174176e-06 -3.9228844e-06 -2.0598388e-06 
-4.1088715e-06 -5.7036063e-06 -4.0426221e-06 
-3.8379462e-06 -7.1706863e-06 -5.4711891e-06 
-1.9443414e-06 -7.7995101e-06 -5.3998565e-06 
-1.8824146e-06 -7.7327568e-06 -5.4099323e-06 
-1.1245739e-06 -7.6891856e-06 -5.7356019e-06 
-1.2344062e-06 -8.0936325e-06 -6.9006796e-06 
3.5470865e-08 -8.9194637e-06 -6.9927592e-06 
-1.5591316e-07 -9.4791194e-06 -5.9859944e-06 
2.9427477e-07 -9.2622095e-06 -4.7298354e-06 
-1.1967348e-06 -7.9937754e-06 -3.2695730e-06 
-2.0808684e-06 -6.3276007e-06 -2.0769680e-06 
-3.0482922e-06 -5.2761475e-06 -2.4575425e-06 
-3.4116672e-06 -5.4868547e-06 -3.8271460e-06 
-4.2909819e-06 -6.3220714e-06 -3.3462734e-06 
-4.1826429e-06 -6.2101126e-06 -2.0043151e-06 
-5.0686367e-06 -3.8994185e-06 -1.1871980e-06 
-4.1504422e-06 -4.5083559e-07 1.2343160e-07 
-2.4723583e-06 1.8444664e-06 7.9126113e-07 
-1.6661477e-06 1.3430579e-06 4.7240394e-07 
-9.6118163e-07 -1.8469420e-06 -5.0894876e-08 
5.7217824e-07 -5.6239369e-06 -1.1802494e-07 
2.9122563e-07 -6.4969217e-06 1.3968494e-06 
-1.0812929e-06 -3.2830235e-06 4.2163215e-06 
-1.5052000e-06 1.4917209e-06 2.2998868e-06 
1.0172059e-06 2.7107312e-06 1.5434362e-06 
2.6173750e-06 -3.4141274e-06 1.2506790e-06 
4.5727520e-06 -1.2501374e-05 -5.8338865e-06 
3.6181020e-06 -1.4828252e-05 -4.2328661e-06 
3.2968976e-06 -4.2287165e-06 -5.0771878e-06 
4.1884050e-06 1.4923526e-05 -3.8386279e-06 
3.0872945e-06 2.9761630e-05 -1.8491814e-06 
3.0734777e-06 3.2857180e-05 1.8706501e-06 
6.0024809e-06 2.5862093e-05 -4.9179166e-06 
1.0583194e-06 2.0121106e-05 4.4558146e-06 
-3.7570862e-06 3.5492783e-05 1.0085330e-05 
-4.8630700e-06 8.0031794e-05 1.5970414e-05 
-3.5139263e-07 1.2817419e-04 3.2468175e-05 
1.4791104e-06 1.2108755e-04 4.5112076e-05 
-3.1377790e-06 5.8268110e-06 8.4462277e-05 
-3.0989315e-05 -2.4684492e-04 1.1863964e-04 
-5.7662124e-05 -6.5123924e-04 1.8198369e-04 
-6.3896914e-05 -1.2146754e-03 1.3292626e-04 
-1.6422647e-04 -1.9925795e-03 2.9601448e-04 
-1.9094590e-04 -2.9967516e-03 2.2518855e-04 
-2.4230016e-04 -4.0950994e-03 2.3387614e-04 
-1.6619149e-04 -4.8411530e-03 9.2403199e-05 
-2.7165850e-04 -4.8275343e-03 1.4693202e-05 
-3.2137611e-04 -4.5339139e-03 -4.8949871e-05 
-3.0265359e-04 -4.4506383e-03 -7.6575910e-05 
-3.1951570e-04 -4.5475648e-03 -1.4845902e-04 
-2.8830080e-04 -4.4247597e-03 -2.4343320e-04 
-2.3752726e-04 -3.4737042e-03 -1.8022637e-04 
-1.5162694e-04 -2.2334128e-03 -3.1134600e-04 
-8.2559651e-05 -1.1377729e-03 -1.5835959e-04 
-2.0851978e-05 -3.9819171e-04 -1.8387221e-04 
6.0967545e-06 1.2236427e-05 -7.8595767e-05 
1.3141478e-05 1.8688042e-04 -5.1042982e-05 
1.2827754e-05 2.2785807e-04 -1.9511541e-05 
1.0258272e-05 2.0193716e-04 2.4962198e-06 
7.3862816e-06 1.4205059e-04 1.2119920e-06 
1.9723354e-06 7.3038995e-05 5.9338577e-06 
-8.1411571e-07 1.5650725e-05 1.4709193e-06 
-1.8838755e-06 -1.3154196e-05 1.7113225e-06 
-5.1146612e-06 -1.5887270e-05 -4.7653739e-06 
-4.2966658e-06 -8.4114117e-06 -5.8626742e-06 
-2.0783010e-07 -4.6607975e-06 -8.5154916e-06 
6.6297721e-06 -9.5046780e-06 -7.0596252e-06 
4.5106199e-06 -1.7958229e-05 -5.6681470e-06 
4.4656181e-06 -1.9646881e-05 -4.6824048e-06 
2.6969435e-06 -7.6387278e-06 -1.9158147e-06 
6.3382151e-07 1.4286406e-05 -4.3710250e-07 
1.3889279e-07 3.5569923e-05 -2.9922883e-06 
8.1574799e-06 4.7996367e-05 -2.3793856e-07 
8.7891312e-06 5.0218448e-05 4.2621027e-06 
3.8331254e-06 5.0952756e-05 7.0972878e-06 
-5.1713431e-07 5.9548540e-05 2.0388865e-05 
-8.3665018e-06 7.4207441e-05 3.8225913e-05 
-1.2204279e-05 6.8252637e-05 4.3428739e-05 
-1.8384068e-05 -2.0043137e-05 9.8363780e-05 
-3.1158324e-05 -2.7390546e-04 1.1462066e-04 
-6.7388755e-05 -7.4582989e-04 1.9548167e-04 
-9.1164344e-05 -1.4327208e-03 1.6019640e-04 
-1.4049881e-04 -2.3252631e-03 2.7002068e-04 
-1.6744320e-04 -3.3504448e-03 1.0527055e-04 
-2.3378310e-04 -4.3371618e-03 1.8919042e-04 
-2.5123826e-04 -4.8642526e-03 5.8849491e-05 
-2.3842164e-04 -4.7425348e-03 6.6291414e-06 
-2.3564225e-04 -4.4737258e-03 -2.4608562e-05 
-2.0976603e-04 -4.4347327e-03 -3.3720604e-05 
-2.2734824e-04 -4.4715297e-03 -1.4426500e-04 
-2.0748150e-04 -4.1228388e-03 -2.2397983e-04 
-8.3181367e-05 -3.0336832e-03 -1.9331812e-04 
-9.9598547e-05 -1.7420783e-03 -2.7090893e-04 
-2.7057469e-05 -7.0019398e-04 -2.0779920e-04 
-1.5117910e-05 -6.9042326e-05 -2.0699747e-04 
0.0000000e+00 -1.2450109e-06 0.0000000e+00 
0.0000000e+00 -1.3193189e-06 0.0000000e+00 
0.0000000e+00 -1.6609359e-06 0.0000000e+00 
0.0000000e+00 -2.4987132e-06 0.0000000e+00 
0.0000000e+00 -3.9439601e-06 0.0000000e+00 
0.0000000e+00 -5.7053899e-06 0.0000000e+00 
0.0000000e+00 -7.1466093e-06 0.0000000e+00 
0.0000000e+00 -7.7737768e-06 0.0000000e+00 
0.0000000e+00 -7.7431732e-06 0.0000000e+00 
0.0000000e+00 -7.7120612e-06 0.0000000e+00 
0.0000000e+00 -8.1378912e-06 0.0000000e+00 
0.0000000e+00 -8.9329696e-06 0.0000000e+00 
0.0000000e+00 -9.4887273e-06 0.0000000e+00 
0.0000000e+00 -9.2250311e-06 0.0000000e+00 
0.0000000e+00 -7.9667934e-06 0.0000000e+00 
0.0000000e+00 -6.3281063e-06 0.0000000e+00 
0.0000000e+00 -5.3341964e-06 0.0000000e+00 
0.0000000e+00 -5.5653313e-06 0.0000000e+00 
0.0000000e+00 -6.3500997e-06 0.0000000e+00 
0.0000000e+00 -6.1192013e-06 0.0000000e+00 
0.0000000e+00 -3.8176086e-06 0.0000000e+00 
0.0000000e+00 -4.3476172e-07 0.0000000e+00 
0.0000000e+00 1.7815739e-06 0.0000000e+00 
0.0000000e+00 1.2184787e-06 0.0000000e+00 
0.0000000e+00 -1.9659365e-06 0.0000000e+00 
0.0000000e+00 -5.5664955e-06 0.0000000e+00 
0.0000000e+00 -6.3416314e-06 0.0000000e+00 
0.0000000e+00 -3.0800620e-06 0.0000000e+00 
0.0000000e+00 1.5562786e-06 0.0000000e+00 
0.0000000e+00 2.3402495e-06 0.0000000e+00 
0.0000000e+00 -3.7927070e-06 0.0000000e+00 
0.0000000e+00 -1.2506345e-05 0.0000000e+00 
0.0000000e+00 -1.4384365e-05 0.0000000e+00 
0.0000000e+00 -3.7032114e-06 0.0000000e+00 
0.0000000e+00 1.4836701e-05 0.0000000e+00 
0.0000000e+00 2.9507801e-05 0.0000000e+00 
0.0000000e+00 3.2477230e-05 0.0000000e+00 
0.0000000e+00 2.5218420e-05 0.0000000e+00 
0.0000000e+00 2.0236366e-05 0.0000000e+00 
0.0000000e+00 3.6960679e-05 0.0000000e+00 
0.0000000e+00 8.2061539e-05 0.0000000e+00 
0.0000000e+00 1.2875904e-04 0.0000000e+00 
0.0000000e+00 1.2052150e-04 0.0000000e+00 
0.0000000e+00 4.5832076e-06 0.0000000e+00 
0.0000000e+00 -2.4805224e-04 0.0000000e+00 
0.0000000e+00 -6.4933766e-04 0.0000000e+00 
0.0000000e+00 -1.2165600e-03 0.0000000e+00 
0.0000000e+00 -1.9994550e-03 0.0000000e+00 
0.0000000e+00 -3.0126602e-03 0.0000000e+00 
0.0000000e+00 -4.1158549e-03 0.0000000e+00 
0.0000000e+00 -4.8750588e-03 0.0000000e+00 
0.0000000e+00 -4.8485501e-03 0.0000000e+00 
0.0000000e+00 -4.5602536e-03 0.0000000e+00 
0.0000000e+00 -4.4703400e-03 0.0000000e+00 
0.0000000e+00 -4.5795366e-03 0.0000000e+00 
0.0000000e+00 -4.4472758e-03 0.0000000e+00 
0.0000000e+00 -3.4997032e-03 0.0000000e+00 
0.0000000e+00 -2.2456597e-03 0.0000000e+00 
0.0000000e+00 -1.1490890e-03 0.0000000e+00 
0.0000000e+00 -4.0091565e-04 0.0000000e+00 
0.0000000e+00 1.2627334e-05 0.0000000e+00 
0.0000000e+00 1.8879386e-04 0.0000000e+00 
0.0000000e+00 2.2932298e-04 0.0000000e+00 
0.0000000e+00 2.0232388e-04 0.0000000e+00 
0.0000000e+00 1.4257432e-04 0.0000000e+00 
0.0000000e+00 7.3460484e-05 0.0000000e+00 
0.0000000e+00 1.6472655e-05 0.0000000e+00 
0.0000000e+00 -1.2789296e-05 0.0000000e+00 
0.0000000e+00 -1.6160648e-05 0.0000000e+00 
0.0000000e+00 -8.6711480e-06 0.0000000e+00 
0.0000000e+00 -4.8050028e-06 0.0000000e+00 
0.0000000e+00 -9.7663005e-06 0.0000000e+00 
0.0000000e+00 -1.8153383e-05 0.0000000e+00 
0.0000000e+00 -1.9397045e-05 0.0000000e+00 
0.0000000e+00 -7.1788918e-06 0.0000000e+00 
0.0000000e+00 1.4496879e-05 0.0000000e+00 
0.0000000e+00 3.5416666e-05 0.0000000e+00 
0.0000000e+00 4.7522106e-05 0.0000000e+00 
0.0000000e+00 5.0019447e-05 0.0000000e+00 
0.0000000e+00 5.1162002e-05 0.0000000e+00 
0.0000000e+00 6.0540253e-05 0.0000000e+00 
0.0000000e+00 7.6271441e-05 0.0000000e+00 
0.0000000e+00 7.0121023e-05 0.0000000e+00 
0.0000000e+00 -2.1042326e-05 0.0000000e+00 
0.0000000e+00 -2.7682056e-04 0.0000000e+00 
0.0000000e+00 -7.4723776e-04 0.0000000e+00 
0.0000000e+00 -1.4366644e-03 0.0000000e+00 
0.0000000e+00 -2.3305279e-03 0.0000000e+00 
0.0000000e+00 -3.3673192e-03 0.0000000e+00 
0.0000000e+00 -4.3593366e-03 0.0000000e+00 
0.0000000e+00 -4.8971907e-03 0.0000000e+00 
0.0000000e+00 -4.7663036e-03 0.0000000e+00 
0.0000000e+00 -4.5007193e-03 0.0000000e+00 
0.0000000e+00 -4.4551985e-03 0.0000000e+00 
0.0000000e+00 -4.4997274e-03 0.0000000e+00 
0.0000000e+00 -4.1465648e-03 0.0000000e+00 
0.0000000e+00 -3.0541727e-03 0.0000000e+00 
0.0000000e+00 -1.7561808e-03 0.0000000e+00 
0.0000000e+00 -7.0644513e-04 0.0000000e+00 
0.0000000e+00 -6.9601112e-05 0.0000000e+00 
0.0000000e+00 1.3878543e-04 0.0000000e+00 
-5.9373962e-04 -1.4357213e-03 1.1478565e-04 
5.3511987e-05 -6.9481401e-05 -5.3850349e-06 
4.6948062e-05 -2.0923058e-05 5.5054278e-07 
4.3422973e-05 -1.5105041e-05 -3.0510075e-06 
0.0000000e+00 -2.5415667e-03 0.0000000e+00 
0.0000000e+00 0.0000000e+00 0.0000000e+00 
0.0000000e+00 0.0000000e+00 0.0000000e+00 
0.0000000e+00 0.0000000e+00 0.0000000e+00 
0.0000000e+00 0.0000000e+00 0.0000000e+00 
0.0000000e+00 0.0000000e+00 0.0000000e+00 
0.0000000e+00 0.0000000e+00 0.0000000e+00 
0.0000000e+00 0.0000000e+00 0.0000000e+00 
0.0000000e+00 0.0000000e+00 0.0000000e+00 
0.0000000e+00 0.0000000e+00 0.0000000e+00 
0.0000000e+00 0.0000000e+00 0.0000000e+00 
0.0000000e+00 0.0000000e+00 0.0000000e+00 
0.0000000e+00 0.0000000e+00 0.0000000e+00 
0.0000000e+00 0.0000000e+00 0.0000000e+00 
0.0000000e+00 0.0000000e+00 0.0000000e+00 
0.0000000e+00 0.0000000e+00 0.0000000e+00 
0.0000000e+00 0.0000000e+00 0.0000000e+00 
0.0000000e+00 0.0000000e+00 0.0000000e+00 
0.0000000e+00 0.0000000e+00 0.0000000e+00 
0.0000000e+00 0.0000000e+00 0.0000000e+00 
0.0000000e+00 0.0000000e+00 0.0000000e+00 
0.0000000e+00 0.0000000e+00 0.0000000e+00 
0.0000000e+00 0.0000000e+00 0.0000000e+00 
0.0000000e+00 0.0000000e+00 0.0000000e+00 
0.0000000e+00 0.0000000e+00 0.0000000e+00 
0.0000000e+00 0.0000000e+00 0.0000000e+00 
0.0000000e+00 0.0000000e+00 0.0000000e+00 
0.0000000e+00 0.0000000e+00 0.0000000e+00 
0.0000000e+00 0.0000000e+00 0.0000000e+00 
0.0000000e+00 0.0000000e+00 0.0000000e+00 
0.0000000e+00 0.0000000e+00 0.0000000e+00 
0.0000000e+00 0.0000000e+00 0.0000000e+00 
0.0000000e+00 0.0000000e+00 0.0000000e+00 
0.0000000e+00 0.0000000e+00 0.0000000e+00 
0.0000000e+00 0.0000000e+00 0.0000000e+00 
0.0000000e+00 0.0000000e+00 0.0000000e+00 
0.0000000e+00 0.0000000e+00 0.0000000e+00 
0.0000000e+00 0.0000000e+00 0.0000000e+00 
0.0000000e+00 0.0000000e+00 0.0000000e+00 
0.0000000e+00 0.0000000e+00 0.0000000e+00 
0.0000000e+00 0.0000000e+00 0.0000000e+00 
0.0000000e+00 0.0000000e+00 0.0000000e+00 
0.0000000e+00 0.0000000e+00 0.0000000e+00 
0.0000000e+00 0.0000000e+00 0.0000000e+00 
0.0000000e+00 0.0000000e+00 0.0000000e+00 
0.0000000e+00 0.0000000e+00 0.0000000e+00 
0.0000000e+00 0.0000000e+00 0.0000000e+00 
0.0000000e+00 0.0000000e+00 0.0000000e+00 
0.0000000e+00 0.0000000e+00 0.0000000e+00 
0.0000000e+00 0.0000000e+00 0.0000000e+00 
0.0000000e+00 0.0000000e+00 0.0000000e+00 
0.0000000e+00 0.0000000e+00 0.0000000e+00 
0.0000000e+00 0.0000000e+00 0.0000000e+00 
0.0000000e+00 0.0000000e+00 0.0000000e+00 
0.0000000e+00 0.0000000e+00 0.0000000e+00 
0.0000000e+00 0.0000000e+00 0.0000000e+00 
0.0000000e+00 0.0000000e+00 0.0000000e+00 
0.0000000e+00 0.0000000e+00 0.0000000e+00 
0.0000000e+00 0.0000000e+00 0.0000000e+00 
0.0000000e+00 0.0000000e+00 0.0000000e+00 
0.0000000e+00 0.0000000e+00 0.0000000e+00 
0.0000000e+00 0.0000000e+00 0.0000000e+00 
0.0000000e+00 0.0000000e+00 0.0000000e+00 
0.0000000e+00 0.0000000e+00 0.0000000e+00 
0.0000000e+00 0.0000000e+00 0.0000000e+00 
0.0000000e+00 0.0000000e+00 0.0000000e+00 
0.0000000e+00 0.0000000e+00 0.0000000e+00 
0.0000000e+00 0.0000000e+00 0.0000000e+00 
0.0000000e+00 0.0000000e+00 0.0000000e+00 
0.0000000e+00 0.0000000e+00 0.0000000e+00 
0.0000000e+00 0.0000000e+00 0.0000000e+00 
0.0000000e+00 0.0000000e+00 0.0000000e+00 
0.0000000e+00 0.0000000e+00 0.0000000e+00 
0.0000000e+00 0.0000000e+00 0.0000000e+00 
0.0000000e+00 0.0000000e+00 0.0000000e+00 
0.0000000e+00 0.0000000e+00 0.0000000e+00 
0.0000000e+00 0.0000000e+00 0.0000000e+00 
0.0000000e+00 0.0000000e+00 0.0000000e+00 
0.0000000e+00 0.0000000e+00 0.0000000e+00 
0.0000000e+00 0.0000000e+00 0.0000000e+00 
0.0000000e+00 0.0000000e+00 0.0000000e+00 
0.0000000e+00 0.0000000e+00 0.0000000e+00 
0.0000000e+00 0.0000000e+00 0.0000000e+00 
0.0000000e+00 0.0000000e+00 0.0000000e+00 
0.0000000e+00 0.0000000e+00 0.0000000e+00 
0.0000000e+00 0.0000000e+00 0.0000000e+00 
0.0000000e+00 0.0000000e+00 0.0000000e+00 
0.0000000e+00 0.0000000e+00 0.0000000e+00 
0.0000000e+00 0.0000000e+00 0.0000000e+00 
0.0000000e+00 0.0000000e+00 0.0000000e+00 
0.0000000e+00 0.0000000e+00 0.0000000e+00 
0.0000000e+00 0.0000000e+00 0.0000000e+00 
0.0000000e+00 0.0000000e+00 0.0000000e+00 
0.0000000e+00 0.0000000e+00 0.0000000e+00 
0.0000000e+00 0.0000000e+00 0.0000000e+00 
0.0000000e+00 0.0000000e+00 0.0000000e+00 
0.0000000e+00 0.0000000e+00 0.0000000e+00 
0.0000000e+00 0.0000000e+00 0.0000000e+00 
0.0000000e+00 0.0000000e+00 0.0000000e+00 
0.0000000e+00 0.0000000e+00 0.0000000e+00 
0.0000000e+00 0.0000000e+00 0.0000000e+00 
0.0000000e+00 0.0000000e+00 0.0000000e+00 
0.0000000e+00 0.0000000e+00 0.0000000e+00 
0.0000000e+00 0.0000000e+00 0.0000000e+00 
0.0000000e+00 0.0000000e+00 0.0000000e+00 
0.0000000e+00 0.0000000e+00 0.0000000e+00 
0.0000000e+00 0.0000000e+00 0.0000000e+00 
6.8591133e-09 -3.1817500e-08 3.8713745e-07 
1.5077887e-07 -6.8752996e-08 4.4040668e-08 
2.9676599e-07 -6.2059875e-08 -3.6191267e-07 
5.3106606e-07 -2.5883972e-07 -4.8025800e-07 
6.1747801e-07 -8.1492323e-07 -7.0176276e-07 
5.4404103e-07 -7.5267513e-07 -1.3801767e-06 
5.3182669e-07 -3.1307692e-07 -5.1562114e-07 
5.4646443e-07 -6.8059734e-07 -5.9811657e-07 
8.6402798e-07 -1.1118390e-07 -1.3865421e-06 
-2.0950588e-07 6.0838616e-08 2.6867323e-08 
4.8921578e-08 -4.3875673e-07 -1.4463881e-06 
2.3108367e-07 -4.2322358e-07 -1.9969013e-06 
-3.1075393e-07 5.4361095e-07 9.1845112e-07 
3.8045349e-07 2.2719426e-07 -1.8654848e-06 
-9.0887465e-07 -5.4744555e-07 -8.4314388e-07 
2.4187003e-07 -6.4941952e-07 1.7477478e-07 
6.6061830e-07 8.2374174e-07 -2.0214047e-06 
7.6175752e-07 -4.1484991e-06 -3.1754871e-06 
-3.6726107e-07 2.2661668e-06 -7.9618121e-07 
5.5752898e-06 6.3729300e-07 -5.9328931e-06 
9.2112268e-06 -7.5486673e-06 -1.0512561e-05 
1.8534340e-05 -4.4973176e-06 -1.2069069e-05 
2.7770817e-05 -8.4403218e-06 -1.1087423e-05 
4.0668445e-05 -1.6375561e-05 -1.1309328e-05 
4.8364222e-05 -1.3156647e-05 -5.1243646e-06 
4.8246035e-05 -1.3119917e-05 3.1940513e-06 
4.0869512e-05 -1.3801125e-05 9.4161114e-06 
3.1003663e-05 -1.0655211e-05 1.4905364e-05 
2.0267360e-05 -7.4748523e-06 1.3133482e-05 
9.6947115e-06 -1.7002682e-06 1.0120347e-05 
4.4062435e-06 -6.4885603e-07 7.3305559e-06 
2.0271409e-06 -2.2363108e-06 1.8234559e-06 
6.6173726e-07 7.1570656e-07 -2.0333998e-07 
-4.2078338e-07 4.5858661e-07 2.5557043e-07 
6.5872621e-07 -8.7314129e-07 -1.6827091e-06 
1.1547834e-06 -9.0541010e-07 -3.6528428e-07 
-1.9743588e-06 2.4199874e-06 -1.9595720e-06 
1.0542451e-06 2.9969004e-07 -3.2823953e-06 
1.3930993e-06 -5.1295519e-06 -3.4036254e-06 
7.1502936e-06 2.6787486e-06 -7.2943917e-06 
1.3057544e-05 -4.3250407e-06 -9.1338925e-06 
2.0882968e-05 -1.2089637e-05 -1.3041222e-05 
3.3419059e-05 -7.7410432e-06 -1.3588384e-05 
4.5953439e-05 -1.4613398e-05 -6.1761107e-06 
4.6917074e-05 -1.8807945e-05 9.2893991e-08 
4.8128190e-05 -1.4191657e-05 5.5416103e-06 
4.2534819e-05 -1.5274501e-05 1.5104008e-05 
3.0913456e-05 -1.0739288e-05 1.9443647e-05 
1.7164781e-05 -3.9431670e-06 1.7459100e-05 
0.0000000e+00 3.4407449e-06 0.0000000e+00 
0.0000000e+00 2.4407700e-06 0.0000000e+00 
0.0000000e+00 1.9812355e-06 0.0000000e+00 
0.0000000e+00 3.9528136e-06 0.0000000e+00 
0.0000000e+00 4.8896277e-06 0.0000000e+00 
0.0000000e+00 5.4743200e-06 0.0000000e+00 
0.0000000e+00 6.5213708e-06 0.0000000e+00 
0.0000000e+00 5.2465311e-06 0.0000000e+00 
0.0000000e+00 3.2828821e-06 0.0000000e+00 
0.0000000e+00 3.8351573e-06 0.0000000e+00 
0.0000000e+00 3.4121242e-06 0.0000000e+00 
0.0000000e+00 8.9113252e-07 0.0000000e+00 
0.0000000e+00 -5.9185209e-06 0.0000000e+00 
0.0000000e+00 7.9575047e-06 0.0000000e+00 
0.0000000e+00 2.6159291e-06 0.0000000e+00 
0.0000000e+00 5.4576628e-07 0.0000000e+00 
0.0000000e+00 2.2498391e-05 0.0000000e+00 
0.0000000e+00 -5.2421178e-06 0.0000000e+00 
0.0000000e+00 2.0724923e-07 0.0000000e+00 
0.0000000e+00 2.8542097e-05 0.0000000e+00 
0.0000000e+00 -2.9464947e-05 0.0000000e+00 
0.0000000e+00 -7.4954442e-05 0.0000000e+00 
0.0000000e+00 -1.9427614e-04 0.0000000e+00 
0.0000000e+00 -4.0810960e-04 0.0000000e+00 
0.0000000e+00 -4.9989624e-04 0.0000000e+00 
0.0000000e+00 -5.5682537e-04 0.0000000e+00 
0.0000000e+00 -4.8704617e-04 0.0000000e+00 
0.0000000e+00 -3.4068248e-04 0.0000000e+00 
0.0000000e+00 -1.2126854e-04 0.0000000e+00 
0.0000000e+00 -2.5670708e-05 0.0000000e+00 
0.0000000e+00 1.8259481e-05 0.0000000e+00 
0.0000000e+00 2.2828601e-05 0.0000000e+00 
0.0000000e+00 3.5526175e-06 0.0000000e+00 
0.0000000e+00 3.3841513e-06 0.0000000e+00 
0.0000000e+00 7.9869451e-06 0.0000000e+00 
0.0000000e+00 -1.9772108e-06 0.0000000e+00 
0.0000000e+00 3.9700635e-06 0.0000000e+00 
0.0000000e+00 3.4868215e-06 0.0000000e+00 
0.0000000e+00 -3.9494680e-06 0.0000000e+00 
0.0000000e+00 1.6250615e-06 0.0000000e+00 
0.0000000e+00 3.3888062e-07 0.0000000e+00 
0.0000000e+00 -1.1161796e-04 0.0000000e+00 
0.0000000e+00 -2.3398476e-04 0.0000000e+00 
0.0000000e+00 -3.9529879e-04 0.0000000e+00 
0.0000000e+00 -5.2340800e-04 0.0000000e+00 
0.0000000e+00 -5.2122085e-04 0.0000000e+00 
0.0000000e+00 -4.6952409e-04 0.0000000e+00 
0.0000000e+00 -3.0974453e-04 0.0000000e+00 
0.0000000e+00 -1.2265358e-04 0.0000000e+00 
-1.7435261e-07 5.3792144e-07 7.0923323e-07 
-3.6035303e-08 5.3489003e-07 2.1724325e-07 
-2.9959617e-07 5.9592583e-07 2.8195666e-07 
-3.9710213e-07 1.7441737e-06 6.6945944e-07 
1.6071333e-05 -3.7733751e-06 1.7633945e-05 
2.0007710e-05 -4.7407079e-07 2.9534378e-05 
2.1018972e-05 -2.0447633e-05 4.6367539e-05 
6.8358490e-06 -1.5619065e-05 5.9934617e-05 
2.5525148e-07 1.1426029e-06 7.4293882e-07 
1.2694562e-05 -7.5907303e-07 1.3336680e-05 
6.1154151e-07 2.9101072e-06 1.1023342e-06 
1.3962749e-07 2.3174450e-06 1.4053898e-06 
0.0000000e+00 4.9929426e-06 0.0000000e+00 
0.0000000e+00 3.4993259e-06 0.0000000e+00 
0.0000000e+00 3.6454478e-06 0.0000000e+00 
0.0000000e+00 4.5036081e-06 0.0000000e+00 
0.0000000e+00 6.9472776e-06 0.0000000e+00 
0.0000000e+00 1.0417790e-05 0.0000000e+00 
0.0000000e+00 8.4913536e-06 0.0000000e+00 
0.0000000e+00 8.8496290e-06 0.0000000e+00 
0.0000000e+00 5.9014305e-06 0.0000000e+00 
0.0000000e+00 9.6382118e-06 0.0000000e+00 
0.0000000e+00 1.7348730e-06 0.0000000e+00 
0.0000000e+00 3.7074017e-06 0.0000000e+00 
0.0000000e+00 4.4801486e-06 0.0000000e+00 