# vtk DataFile Version 4.0
vtk output
ASCII
DATASET UNSTRUCTURED_GRID
POINTS 7334 float
0.0000000e+00 0.0000000e+00 0.0000000e+00 
2.0000000e+01 0.0000000e+00 0.0000000e+00 
2.0000000e+01 2.0000000e+01 0.0000000e+00 
0.0000000e+00 2.0000000e+01 0.0000000e+00 
0.0000000e+00 0.0000000e+00 2.0000000e+01 
2.0000000e+01 0.0000000e+00 2.0000000e+01 
2.0000000e+01 2.0000000e+01 2.0000000e+01 
0.0000000e+00 2.0000000e+01 2.0000000e+01 
1.0000000e+00 0.0000000e+00 0.0000000e+00 
2.0000000e+00 0.0000000e+00 0.0000000e+00 
3.0000000e+00 0.0000000e+00 0.0000000e+00 
4.0000000e+00 0.0000000e+00 0.0000000e+00 
5.0000000e+00 0.0000000e+00 0.0000000e+00 
6.0000000e+00 0.0000000e+00 0.0000000e+00 
7.0000000e+00 0.0000000e+00 0.0000000e+00 
8.0000000e+00 0.0000000e+00 0.0000000e+00 
9.0000000e+00 0.0000000e+00 0.0000000e+00 
1.0000000e+01 0.0000000e+00 0.0000000e+00 
1.1000000e+01 0.0000000e+00 0.0000000e+00 
1.2000000e+01 0.0000000e+00 0.0000000e+00 
1.3000000e+01 0.0000000e+00 0.0000000e+00 
1.4000000e+01 0.0000000e+00 0.0000000e+00 
1.5000000e+01 0.0000000e+00 0.0000000e+00 
1.6000000e+01 0.0000000e+00 0.0000000e+00 
1.7000000e+01 0.0000000e+00 0.0000000e+00 
1.8000000e+01 0.0000000e+00 0.0000000e+00 
1.9000000e+01 0.0000000e+00 0.0000000e+00 
2.0000000e+01 1.0000000e+00 0.0000000e+00 
2.0000000e+01 2.0000000e+00 0.0000000e+00 
2.0000000e+01 3.0000000e+00 0.0000000e+00 
2.0000000e+01 4.0000000e+00 0.0000000e+00 
2.0000000e+01 5.0000000e+00 0.0000000e+00 
2.0000000e+01 6.0000000e+00 0.0000000e+00 
2.0000000e+01 7.0000000e+00 0.0000000e+00 
2.0000000e+01 8.0000000e+00 0.0000000e+00 
2.0000000e+01 9.0000000e+00 0.0000000e+00 
2.0000000e+01 1.0000000e+01 0.0000000e+00 
2.0000000e+01 1.1000000e+01 0.0000000e+00 
2.0000000e+01 1.2000000e+01 0.0000000e+00 
2.0000000e+01 1.3000000e+01 0.0000000e+00 
2.0000000e+01 1.4000000e+01 0.0000000e+00 
2.0000000e+01 1.5000000e+01 0.0000000e+00 
2.0000000e+01 1.6000000e+01 0.0000000e+00 
2.0000000e+01 1.7000000e+01 0.0000000e+00 
2.0000000e+01 1.8000000e+01 0.0000000e+00 
2.0000000e+01 1.9000000e+01 0.0000000e+00 
1.9000000e+01 2.0000000e+01 0.0000000e+00 
1.8000000e+01 2.0000000e+01 0.0000000e+00 
1.7000000e+01 2.0000000e+01 0.0000000e+00 
1.6000000e+01 2.0000000e+01 0.0000000e+00 
1.5000000e+01 2.0000000e+01 0.0000000e+00 
1.4000000e+01 2.0000000e+01 0.0000000e+00 
1.3000000e+01 2.0000000e+01 0.0000000e+00 
1.2000000e+01 2.0000000e+01 0.0000000e+00 
1.1000000e+01 2.0000000e+01 0.0000000e+00 
1.0000000e+01 2.0000000e+01 0.0000000e+00 
9.0000000e+00 2.0000000e+01 0.0000000e+00 
8.0000000e+00 2.0000000e+01 0.0000000e+00 
7.0000000e+00 2.0000000e+01 0.0000000e+00 
6.0000000e+00 2.0000000e+01 0.0000000e+00 
5.0000000e+00 2.0000000e+01 0.0000000e+00 
4.0000000e+00 2.0000000e+01 0.0000000e+00 
3.0000000e+00 2.0000000e+01 0.0000000e+00 
2.0000000e+00 2.0000000e+01 0.0000000e+00 
1.0000000e+00 2.0000000e+01 0.0000000e+00 
0.0000000e+00 1.9000000e+01 0.0000000e+00 
0.0000000e+00 1.8000000e+01 0.0000000e+00 
0.0000000e+00 1.7000000e+01 0.0000000e+00 
0.0000000e+00 1.6000000e+01 0.0000000e+00 
0.0000000e+00 1.5000000e+01 0.0000000e+00 
0.0000000e+00 1.4000000e+01 0.0000000e+00 
0.0000000e+00 1.3000000e+01 0.0000000e+00 
0.0000000e+00 1.2000000e+01 0.0000000e+00 
0.0000000e+00 1.1000000e+01 0.0000000e+00 
0.0000000e+00 1.0000000e+01 0.0000000e+00 
0.0000000e+00 9.0000000e+00 0.0000000e+00 
0.0000000e+00 8.0000000e+00 0.0000000e+00 
0.0000000e+00 7.0000000e+00 0.0000000e+00 
0.0000000e+00 6.0000000e+00 0.0000000e+00 
0.0000000e+00 5.0000000e+00 0.0000000e+00 
0.0000000e+00 4.0000000e+00 0.0000000e+00 
0.0000000e+00 3.0000000e+00 0.0000000e+00 
0.0000000e+00 2.0000000e+00 0.0000000e+00 
0.0000000e+00 1.0000000e+00 0.0000000e+00 
0.0000000e+00 0.0000000e+00 1.0000000e+00 
0.0000000e+00 0.0000000e+00 2.0000000e+00 
0.0000000e+00 0.0000000e+00 3.0000000e+00 
0.0000000e+00 0.0000000e+00 4.0000000e+00 
0.0000000e+00 0.0000000e+00 5.0000000e+00 
0.0000000e+00 0.0000000e+00 6.0000000e+00 
0.0000000e+00 0.0000000e+00 7.0000000e+00 
0.0000000e+00 0.0000000e+00 8.0000000e+00 
0.0000000e+00 0.0000000e+00 9.0000000e+00 
0.0000000e+00 0.0000000e+00 1.0000000e+01 
0.0000000e+00 0.0000000e+00 1.1000000e+01 
0.0000000e+00 0.0000000e+00 1.2000000e+01 
0.0000000e+00 0.0000000e+00 1.3000000e+01 
0.0000000e+00 0.0000000e+00 1.4000000e+01 
0.0000000e+00 0.0000000e+00 1.5000000e+01 
0.0000000e+00 0.0000000e+00 1.6000000e+01 
0.0000000e+00 0.0000000e+00 1.7000000e+01 
0.0000000e+00 0.0000000e+00 1.8000000e+01 
0.0000000e+00 0.0000000e+00 1.9000000e+01 
2.0000000e+01 0.0000000e+00 1.0000000e+00 
2.0000000e+01 0.0000000e+00 2.0000000e+00 
2.0000000e+01 0.0000000e+00 3.0000000e+00 
2.0000000e+01 0.0000000e+00 4.0000000e+00 
2.0000000e+01 0.0000000e+00 5.0000000e+00 
2.0000000e+01 0.0000000e+00 6.0000000e+00 
2.0000000e+01 0.0000000e+00 7.0000000e+00 
2.0000000e+01 0.0000000e+00 8.0000000e+00 
2.0000000e+01 0.0000000e+00 9.0000000e+00 
2.0000000e+01 0.0000000e+00 1.0000000e+01 
2.0000000e+01 0.0000000e+00 1.1000000e+01 
2.0000000e+01 0.0000000e+00 1.2000000e+01 
2.0000000e+01 0.0000000e+00 1.3000000e+01 
2.0000000e+01 0.0000000e+00 1.4000000e+01 
2.0000000e+01 0.0000000e+00 1.5000000e+01 
2.0000000e+01 0.0000000e+00 1.6000000e+01 
2.0000000e+01 0.0000000e+00 1.7000000e+01 
2.0000000e+01 0.0000000e+00 1.8000000e+01 
2.0000000e+01 0.0000000e+00 1.9000000e+01 
1.0000000e+00 0.0000000e+00 2.0000000e+01 
2.0000000e+00 0.0000000e+00 2.0000000e+01 
3.0000000e+00 0.0000000e+00 2.0000000e+01 
4.0000000e+00 0.0000000e+00 2.0000000e+01 
5.0000000e+00 0.0000000e+00 2.0000000e+01 
6.0000000e+00 0.0000000e+00 2.0000000e+01 
7.0000000e+00 0.0000000e+00 2.0000000e+01 
8.0000000e+00 0.0000000e+00 2.0000000e+01 
9.0000000e+00 0.0000000e+00 2.0000000e+01 
1.0000000e+01 0.0000000e+00 2.0000000e+01 
1.1000000e+01 0.0000000e+00 2.0000000e+01 
1.2000000e+01 0.0000000e+00 2.0000000e+01 
1.3000000e+01 0.0000000e+00 2.0000000e+01 
1.4000000e+01 0.0000000e+00 2.0000000e+01 
1.5000000e+01 0.0000000e+00 2.0000000e+01 
1.6000000e+01 0.0000000e+00 2.0000000e+01 
1.7000000e+01 0.0000000e+00 2.0000000e+01 
1.8000000e+01 0.0000000e+00 2.0000000e+01 
1.9000000e+01 0.0000000e+00 2.0000000e+01 
2.0000000e+01 2.0000000e+01 1.0000000e+00 
2.0000000e+01 2.0000000e+01 2.0000000e+00 
2.0000000e+01 2.0000000e+01 3.0000000e+00 
2.0000000e+01 2.0000000e+01 4.0000000e+00 
2.0000000e+01 2.0000000e+01 5.0000000e+00 
2.0000000e+01 2.0000000e+01 6.0000000e+00 
2.0000000e+01 2.0000000e+01 7.0000000e+00 
2.0000000e+01 2.0000000e+01 8.0000000e+00 
2.0000000e+01 2.0000000e+01 9.0000000e+00 
2.0000000e+01 2.0000000e+01 1.0000000e+01 
2.0000000e+01 2.0000000e+01 1.1000000e+01 
2.0000000e+01 2.0000000e+01 1.2000000e+01 
2.0000000e+01 2.0000000e+01 1.3000000e+01 
2.0000000e+01 2.0000000e+01 1.4000000e+01 
2.0000000e+01 2.0000000e+01 1.5000000e+01 
2.0000000e+01 2.0000000e+01 1.6000000e+01 
2.0000000e+01 2.0000000e+01 1.7000000e+01 
2.0000000e+01 2.0000000e+01 1.8000000e+01 
2.0000000e+01 2.0000000e+01 1.9000000e+01 
2.0000000e+01 1.0000000e+00 2.0000000e+01 
2.0000000e+01 2.0000000e+00 2.0000000e+01 
2.0000000e+01 3.0000000e+00 2.0000000e+01 
2.0000000e+01 4.0000000e+00 2.0000000e+01 
2.0000000e+01 5.0000000e+00 2.0000000e+01 
2.0000000e+01 6.0000000e+00 2.0000000e+01 
2.0000000e+01 7.0000000e+00 2.0000000e+01 
2.0000000e+01 8.0000000e+00 2.0000000e+01 
2.0000000e+01 9.0000000e+00 2.0000000e+01 
2.0000000e+01 1.0000000e+01 2.0000000e+01 
2.0000000e+01 1.1000000e+01 2.0000000e+01 
2.0000000e+01 1.2000000e+01 2.0000000e+01 
2.0000000e+01 1.3000000e+01 2.0000000e+01 
2.0000000e+01 1.4000000e+01 2.0000000e+01 
2.0000000e+01 1.5000000e+01 2.0000000e+01 
2.0000000e+01 1.6000000e+01 2.0000000e+01 
2.0000000e+01 1.7000000e+01 2.0000000e+01 
2.0000000e+01 1.8000000e+01 2.0000000e+01 
2.0000000e+01 1.9000000e+01 2.0000000e+01 
0.0000000e+00 2.0000000e+01 1.0000000e+00 
0.0000000e+00 2.0000000e+01 2.0000000e+00 
0.0000000e+00 2.0000000e+01 3.0000000e+00 
0.0000000e+00 2.0000000e+01 4.0000000e+00 
0.0000000e+00 2.0000000e+01 5.0000000e+00 
0.0000000e+00 2.0000000e+01 6.0000000e+00 
0.0000000e+00 2.0000000e+01 7.0000000e+00 
0.0000000e+00 2.0000000e+01 8.0000000e+00 
0.0000000e+00 2.0000000e+01 9.0000000e+00 
0.0000000e+00 2.0000000e+01 1.0000000e+01 
0.0000000e+00 2.0000000e+01 1.1000000e+01 
0.0000000e+00 2.0000000e+01 1.2000000e+01 
0.0000000e+00 2.0000000e+01 1.3000000e+01 
0.0000000e+00 2.0000000e+01 1.4000000e+01 
0.0000000e+00 2.0000000e+01 1.5000000e+01 
0.0000000e+00 2.0000000e+01 1.6000000e+01 
0.0000000e+00 2.0000000e+01 1.7000000e+01 
0.0000000e+00 2.0000000e+01 1.8000000e+01 
0.0000000e+00 2.0000000e+01 1.9000000e+01 
1.9000000e+01 2.0000000e+01 2.0000000e+01 
1.8000000e+01 2.0000000e+01 2.0000000e+01 
1.7000000e+01 2.0000000e+01 2.0000000e+01 
1.6000000e+01 2.0000000e+01 2.0000000e+01 
1.5000000e+01 2.0000000e+01 2.0000000e+01 
1.4000000e+01 2.0000000e+01 2.0000000e+01 
1.3000000e+01 2.0000000e+01 2.0000000e+01 
1.2000000e+01 2.0000000e+01 2.0000000e+01 
1.1000000e+01 2.0000000e+01 2.0000000e+01 
1.0000000e+01 2.0000000e+01 2.0000000e+01 
9.0000000e+00 2.0000000e+01 2.0000000e+01 
8.0000000e+00 2.0000000e+01 2.0000000e+01 
7.0000000e+00 2.0000000e+01 2.0000000e+01 
6.0000000e+00 2.0000000e+01 2.0000000e+01 
5.0000000e+00 2.0000000e+01 2.0000000e+01 
4.0000000e+00 2.0000000e+01 2.0000000e+01 
3.0000000e+00 2.0000000e+01 2.0000000e+01 
2.0000000e+00 2.0000000e+01 2.0000000e+01 
1.0000000e+00 2.0000000e+01 2.0000000e+01 
0.0000000e+00 1.9000000e+01 2.0000000e+01 
0.0000000e+00 1.8000000e+01 2.0000000e+01 
0.0000000e+00 1.7000000e+01 2.0000000e+01 
0.0000000e+00 1.6000000e+01 2.0000000e+01 
0.0000000e+00 1.5000000e+01 2.0000000e+01 
0.0000000e+00 1.4000000e+01 2.0000000e+01 
0.0000000e+00 1.3000000e+01 2.0000000e+01 
0.0000000e+00 1.2000000e+01 2.0000000e+01 
0.0000000e+00 1.1000000e+01 2.0000000e+01 
0.0000000e+00 1.0000000e+01 2.0000000e+01 
0.0000000e+00 9.0000000e+00 2.0000000e+01 
0.0000000e+00 8.0000000e+00 2.0000000e+01 
0.0000000e+00 7.0000000e+00 2.0000000e+01 
[...]
POINT_DATA 7334
FIELD FieldData 0
CELL_DATA 36628
FIELD FieldData 1
YOUNG_MODULUS 1 36628  float
9.8198042e+00
9.1342554e+00
8.2493696e+00
9.9702730e+00
9.7270269e+00
9.8919401e+00
9.7160969e+00
9.1862402e+00
8.2427673e+00
1.0164139e+01
1.0068734e+01
9.0902872e+00
7.9680934e+00
9.6558447e+00
9.8208942e+00
9.7017441e+00
1.1351105e+01
1.1773291e+01
1.0058503e+01
1.0028521e+01
9.7372007e+00
1.0132081e+01
9.5327749e+00
9.0500164e+00
8.1817904e+00
9.7683535e+00
9.3419685e+00
9.5117435e+00
1.0146515e+01
1.0361389e+01
1.0354171e+01
9.3952217e+00
9.0100594e+00
9.1040611e+00
1.0638104e+01
9.6242132e+00
8.5758877e+00
9.5607853e+00
9.7999229e+00
1.0675351e+01
9.3268681e+00
9.8068180e+00
8.5337572e+00
1.1664729e+01
1.0402852e+01
9.7941399e+00
1.0222509e+01
9.0376816e+00
9.5429335e+00
1.2077054e+01
9.0830355e+00
1.1294517e+01
8.9345074e+00
9.5791454e+00
1.0400632e+01
8.7432699e+00
1.1146439e+01
9.3014002e+00
8.6446629e+00
9.6320696e+00
9.6263275e+00
9.5158253e+00
9.6983900e+00
9.8275175e+00
8.9466038e+00
9.3697662e+00
9.0972767e+00
8.5582809e+00
9.7625151e+00
9.3938503e+00
9.9178400e+00
9.0783310e+00
9.6681890e+00
1.1566219e+01
9.0620031e+00
9.7066593e+00
1.1090384e+01
1.1151286e+01
9.8220749e+00
1.0334033e+01
9.9365788e+00
9.5509472e+00
1.0034532e+01
9.6385193e+00
9.9480572e+00
9.9935312e+00
9.4270658e+00
1.0235569e+01
1.0700880e+01
9.7226343e+00
9.6645908e+00
9.9454908e+00
9.9563723e+00
9.9025679e+00
9.8923016e+00
1.0353300e+01
9.5151577e+00
9.8982058e+00
1.1830309e+01
9.6632185e+00
9.0199041e+00
9.7494411e+00
8.5177689e+00
9.7054691e+00
9.3965225e+00
9.9358406e+00
8.8568668e+00
1.0607695e+01
9.5952454e+00
9.8898106e+00
1.1301997e+01
9.7817707e+00
9.2340670e+00
9.6556244e+00
1.1327337e+01
9.5218029e+00
9.6100531e+00
8.9287481e+00
9.5429096e+00
9.4260645e+00
9.9085703e+00
1.0550423e+01
1.0601015e+01
9.7166615e+00
1.0779925e+01
9.9559326e+00
8.6405935e+00
8.3525286e+00
1.0809352e+01
8.6428995e+00
9.5473537e+00
8.8601599e+00
1.1157348e+01
1.0098744e+01
1.0586347e+01
8.9224310e+00
1.0375060e+01
9.7624092e+00
9.4985285e+00
8.8825502e+00
1.0622762e+01
8.5513067e+00
8.4227867e+00
1.0021559e+01
9.8440256e+00
9.6179466e+00
9.2864161e+00
1.0256882e+01
9.3329239e+00
8.8910875e+00
1.0649371e+01
9.9158077e+00
1.0305229e+01
9.3297997e+00
1.1144043e+01
1.0336508e+01
9.6666317e+00
1.1164770e+01
9.7591600e+00
1.0013114e+01
9.6075783e+00
1.0130774e+01
8.5222416e+00
1.0899562e+01
1.0938299e+01
1.0555096e+01
8.8379173e+00
9.1771116e+00
9.9077911e+00
9.7621889e+00
8.1505451e+00
1.1048402e+01
1.0641669e+01
1.0026100e+01
8.7400742e+00
1.0733779e+01
1.2530209e+01
9.6429272e+00
1.0598896e+01
1.0282485e+01
1.1295121e+01
1.0105026e+01
9.0170250e+00
9.6153498e+00
9.4311800e+00
8.8274727e+00
1.0117637e+01
9.4601126e+00
1.0253643e+01
1.0362131e+01
9.3808832e+00
9.2740841e+00
1.0213696e+01
8.4897919e+00
8.9703102e+00
9.2261763e+00
8.7753134e+00
9.6146402e+00
1.1471868e+01
8.6476765e+00
9.0078840e+00
1.0108953e+01
1.0647365e+01
9.5785255e+00
9.9017735e+00
9.1733408e+00
1.0036244e+01
1.0003008e+01
9.4098778e+00
9.3368063e+00
1.0312357e+01
9.9257355e+00
1.1443363e+01
9.2797537e+00
8.6305437e+00
9.1035242e+00
8.8842258e+00
1.1692029e+01
1.0761234e+01
9.5382252e+00
1.1445034e+01
9.9484186e+00
8.8822756e+00
9.8595953e+00
9.9772005e+00
9.5524902e+00
9.5820856e+00
1.0722067e+01
1.1100810e+01
8.8812828e+00
9.5974312e+00
9.4492140e+00
9.9550600e+00
9.7049103e+00
9.3390903e+00
9.8241758e+00
1.0500069e+01
1.0791068e+01
1.1434054e+01
9.0680342e+00
9.6564980e+00
1.0524046e+01
9.7959290e+00
9.6184731e+00
1.0224197e+01
1.0500813e+01
1.1435686e+01
8.5381651e+00
9.2045593e+00
9.6379681e+00
9.2749920e+00
1.0474217e+01
9.3900776e+00
1.2043138e+01
1.0872963e+01
9.5587921e+00
1.0210493e+01
9.4073715e+00
8.7251549e+00
1.0913394e+01
9.8719454e+00
1.0775499e+01
9.9314022e+00
9.5150061e+00
1.1292311e+01
9.6686459e+00
1.0942956e+01
9.2675133e+00
9.4185305e+00
1.1197124e+01
9.4566879e+00
1.0048495e+01
1.0131277e+01
8.9819832e+00
9.2769594e+00
1.0027897e+01
1.0432940e+01
1.0110534e+01
9.7965574e+00
9.2698994e+00
9.9202118e+00
1.0308913e+01
1.0468767e+01
9.8908148e+00
1.1261021e+01
9.3012323e+00
1.1556619e+01
1.0931633e+01
1.1878941e+01
1.0418441e+01
1.0360240e+01
8.5095406e+00
8.8792896e+00
9.9979858e+00
9.5670748e+00
1.0912560e+01
1.0072496e+01
1.0187662e+01
8.0148516e+00
8.9189701e+00
1.1239510e+01
9.6702881e+00
1.2265364e+01
9.2520103e+00
1.0004203e+01
1.0359168e+01
8.8098106e+00
8.6703005e+00
9.8788347e+00
9.5927210e+00
9.0082216e+00
8.9883556e+00
9.6891823e+00
9.8750458e+00
9.2092876e+00
1.1666679e+01
1.1385598e+01
8.9606733e+00
1.1710341e+01
1.0236475e+01
9.8111610e+00
9.1168327e+00
1.0786938e+01
9.2544680e+00
9.9902735e+00
9.9390278e+00
1.0440866e+01
1.0311196e+01
1.2159792e+01
9.4383440e+00
9.7984753e+00
9.5120049e+00
8.4952078e+00
9.5197439e+00
1.1324899e+01
1.0641056e+01
1.0370795e+01
9.7820330e+00
1.1014200e+01
8.9816151e+00
9.4667177e+00
1.1010287e+01
9.3308239e+00
1.0089178e+01
1.0298487e+01
1.0030786e+01
8.5092335e+00
8.7662945e+00
8.7268677e+00
9.9211388e+00
9.5347252e+00
1.1791181e+01
9.7656689e+00
9.6603384e+00
1.0351505e+01
9.4832754e+00
8.6770048e+00
9.7626734e+00
8.8402042e+00
1.0317291e+01
1.0037606e+01
1.1425502e+01
9.6413555e+00
9.2940445e+00
9.2262278e+00
1.0405519e+01
7.6538739e+00
9.5848093e+00
8.5806942e+00
9.7622261e+00
1.0780183e+01
1.0623191e+01
9.7366104e+00
9.5923948e+00
9.6041689e+00
9.9495335e+00
1.0717618e+01
1.1451951e+01
1.0109032e+01
1.0461531e+01
9.8541250e+00
1.1208007e+01
1.0194940e+01
1.0059217e+01
1.0363100e+01
1.1235994e+01
9.5855017e+00
9.3516026e+00
1.0509727e+01
1.0803457e+01
9.1345768e+00
1.0418351e+01
9.6493969e+00
9.3282452e+00
8.5766621e+00
1.0675434e+01
1.1026815e+01
1.0400826e+01
1.1562450e+01
1.0321070e+01
1.0634272e+01
9.3571205e+00
1.2429574e+01
9.7969723e+00
9.7211447e+00
9.9431210e+00
1.0472482e+01
1.1056140e+01
1.0894546e+01
1.0328666e+01
8.9607191e+00
9.6515398e+00
9.2612972e+00
1.1601224e+01
1.0968158e+01
9.6585817e+00
1.0046339e+01
9.5388613e+00
9.9789867e+00
1.0179376e+01
8.9139109e+00
1.0930624e+01
8.7988329e+00
8.7361698e+00
9.9229040e+00
1.0248857e+01
9.3554325e+00
9.6368637e+00
1.0791472e+01
1.1175393e+01
9.4080172e+00
1.0464508e+01
9.6549463e+00
9.0009127e+00
1.0460219e+01
9.0970392e+00
1.0284914e+01
1.0263200e+01
9.7602348e+00
9.9767294e+00
1.0002130e+01
1.0664525e+01
1.0392218e+01
9.2365923e+00
9.7823343e+00
1.0046094e+01
9.7245731e+00
1.1043487e+01
9.5392599e+00
9.3296986e+00
8.7731771e+00
9.8335209e+00
1.0196795e+01
1.1038912e+01
1.1042781e+01
9.9748411e+00
9.2471685e+00
9.8406477e+00
9.0569305e+00
8.3700457e+00
1.0366773e+01
9.7001133e+00
1.1297654e+01
9.9902916e+00
9.6049995e+00
1.0244127e+01
1.0149236e+01
1.1531394e+01
9.6489124e+00
8.4171801e+00
9.5707512e+00
8.9683971e+00
1.1135836e+01
1.0487166e+01
9.8242474e+00
1.0909626e+01
1.0657321e+01
9.6891727e+00
1.0634300e+01
1.0805372e+01
1.1652579e+01
1.0065032e+01
9.2420998e+00
1.0592494e+01
1.0474442e+01
1.1071744e+01
9.7093239e+00
8.4610043e+00
9.2820539e+00
8.8215866e+00
9.1031294e+00
1.0923738e+01
1.0171192e+01
1.0223028e+01
1.0441659e+01
1.1889510e+01
8.8381977e+00
8.5329990e+00
9.7291727e+00
1.0352279e+01
1.0747916e+01
9.8056679e+00
1.0032179e+01
1.0370628e+01
9.7650690e+00
1.1087494e+01
1.0055784e+01
9.4876766e+00
8.5142145e+00
1.0689410e+01
1.0029159e+01
8.8612461e+00
1.0702400e+01
1.1298874e+01
9.3572836e+00
1.2008931e+01
9.9197855e+00
9.8836575e+00
8.3528318e+00
1.0045569e+01
1.0094943e+01
9.7521114e+00
1.0130578e+01
9.2339668e+00
9.8232040e+00
1.1328581e+01
9.8546419e+00
9.1213760e+00
1.0651687e+01
9.9402580e+00
8.5224524e+00
1.0441266e+01
1.0447045e+01
9.7626696e+00
9.0958395e+00
9.4261446e+00
1.0278810e+01
1.1474313e+01
9.7891102e+00
1.0767370e+01
9.4980173e+00
9.2400007e+00
9.5509415e+00
9.0851040e+00
1.0106622e+01
9.1210518e+00
1.0395789e+01
1.0158657e+01
9.5028210e+00
1.0377198e+01
9.6554441e+00
9.4902086e+00
1.0620011e+01
9.6313190e+00
9.4934034e+00
9.8246908e+00
9.9829845e+00
1.0862515e+01
1.0125747e+01
9.3720827e+00
1.0091349e+01
9.8685198e+00
1.0984244e+01
9.2276487e+00
1.1113684e+01
8.8210230e+00
1.0468498e+01
9.7373810e+00
1.0518769e+01
8.9965153e+00
9.8340635e+00
1.0234313e+01
9.7282839e+00
1.1621485e+01
9.6693001e+00
1.0421813e+01
1.0320104e+01
8.4472647e+00
9.7192230e+00
9.2788382e+00
1.0054331e+01
1.0545709e+01
1.0071500e+01
9.9989090e+00
9.0165176e+00
1.0050003e+01
1.0242218e+01
1.0562624e+01
1.0523430e+01
9.9353619e+00
1.0535744e+01
9.7108898e+00
1.0082727e+01
1.0249007e+01
9.7179899e+00
9.8604994e+00
9.1403790e+00
9.1071568e+00
9.6615696e+00
8.6463366e+00
1.0882134e+01
8.2049341e+00
9.6694975e+00
9.8151598e+00
1.0032303e+01
1.0772140e+01
8.5391979e+00
1.0281327e+01
9.7612686e+00
1.1697329e+01
8.0889750e+00
1.0354280e+01
1.1281356e+01
1.0553467e+01
9.6577272e+00
1.0258666e+01
9.9381886e+00
9.6722317e+00
1.0675242e+01
9.7162485e+00
1.1408957e+01
1.0552611e+01
8.8156147e+00
9.1105623e+00
9.3029146e+00
8.9018211e+00
8.2374430e+00
1.0309833e+01
7.9547100e+00
9.4510393e+00
9.9074430e+00
1.0365266e+01
9.7263002e+00
1.0756217e+01
8.2004538e+00
1.0467554e+01
9.2187834e+00
9.7671146e+00
1.0582615e+01
9.3637390e+00
1.1026429e+01
1.0039608e+01
9.7987719e+00
1.0671054e+01
1.0056051e+01
9.6825657e+00
9.7794657e+00
1.0621888e+01
1.0449421e+01
9.9322300e+00
8.7626266e+00
8.1402502e+00
1.0580619e+01
1.0148632e+01
9.1775827e+00
9.5654573e+00
8.6659222e+00
8.0957642e+00
1.0781845e+01
8.1510534e+00
1.0253444e+01
1.0227312e+01
1.0888091e+01
1.0024981e+01
1.0561975e+01
1.1096070e+01
1.1124365e+01
1.0639137e+01
1.0233753e+01
9.8653555e+00
9.2126961e+00
1.0584888e+01
8.1584711e+00
1.0429432e+01
9.1304340e+00
8.9812822e+00
9.4522753e+00
9.5053825e+00
1.2308274e+01
9.8644943e+00
9.5064392e+00
1.0638917e+01
7.7477546e+00
9.7892666e+00
9.5299263e+00
1.0825093e+01
7.6916709e+00
8.8738060e+00
1.0229183e+01
1.1047376e+01
9.1349611e+00
9.6584396e+00
9.1556482e+00
9.9913893e+00
1.0187409e+01
9.8716307e+00
9.8257742e+00
9.8326807e+00
1.0056826e+01
1.2142018e+01
1.0049530e+01
1.2403767e+01
1.2869673e+01
1.0540717e+01
9.6299362e+00
1.0326048e+01
9.0509844e+00
9.8062210e+00
1.0196967e+01
1.0311121e+01
9.2208128e+00
1.0352124e+01
1.0513820e+01
9.2284307e+00
9.9762526e+00
8.8925896e+00
9.0863562e+00
9.4597340e+00
9.5575542e+00
9.0724249e+00
1.0087937e+01
1.0235378e+01
8.9985657e+00
9.2973242e+00
1.1923789e+01
9.4217367e+00
1.0581327e+01
9.7082176e+00
1.0766141e+01
9.1966686e+00
9.6777039e+00
9.8299999e+00
1.1783706e+01
9.6087875e+00
9.3613586e+00
1.0361755e+01
1.0879523e+01
1.0368922e+01
9.7609243e+00
9.7687073e+00
8.9898024e+00
9.8865891e+00
1.1781389e+01
9.9398966e+00
1.1236848e+01
9.3706350e+00
9.2955923e+00
9.9915104e+00
1.0361612e+01
8.5481491e+00
1.1101540e+01
9.7363300e+00
9.1268978e+00
1.0315067e+01
1.1628670e+01
8.6118822e+00
8.6878853e+00
1.0959757e+01
1.0598078e+01
9.5130386e+00
9.1997290e+00
1.0478319e+01
1.1352290e+01
9.6317339e+00
1.0561036e+01
1.0566538e+01
1.0927091e+01
9.9735842e+00
9.4961815e+00
9.6208277e+00
8.7105570e+00
1.0314273e+01
1.0087708e+01
1.0479339e+01
8.9574909e+00
1.1143601e+01
8.5790539e+00
9.4876041e+00
9.4084234e+00
1.0324006e+01
9.7899132e+00
1.0474132e+01
9.9348888e+00
9.9406185e+00
1.0153888e+01
1.0568817e+01
1.0371382e+01
9.0251293e+00
1.0861099e+01
9.5000992e+00
1.1352026e+01
1.1192420e+01
1.0587707e+01
1.0037081e+01
8.6555119e+00
9.2977533e+00
8.9247255e+00
8.7618895e+00
9.3996687e+00
1.0449355e+01
9.6691074e+00
9.3941431e+00
1.0411849e+01
9.3558083e+00
9.3178921e+00
9.9126110e+00
1.0642235e+01
9.9219046e+00
9.3549623e+00
9.4785147e+00
9.3497438e+00
9.8919621e+00
9.5123186e+00
9.6527205e+00
9.7711658e+00
9.6613989e+00
1.0274793e+01
9.2698917e+00
1.1050109e+01
1.0072078e+01
1.0352562e+01
9.6905680e+00
1.0084783e+01
8.0803967e+00
1.1914929e+01
1.0077035e+01
1.0308229e+01
9.4735250e+00
1.0025051e+01
1.2792423e+01
1.1126624e+01
1.0294127e+01
9.5348711e+00
1.0502259e+01
1.0177326e+01
1.1613812e+01
9.7755814e+00
1.0321925e+01
8.9667463e+00
9.7423334e+00
1.1202966e+01
1.0229495e+01
9.7813501e+00
9.3974314e+00
1.1003963e+01
1.0189795e+01
1.0476902e+01
9.3787441e+00
1.0534842e+01
1.0393154e+01
9.1002617e+00
1.0440033e+01
8.9430771e+00
9.3657074e+00
1.1289286e+01
9.3950748e+00
9.4229374e+00
9.4767008e+00
1.0732439e+01
9.1509838e+00
1.1239634e+01
9.2814360e+00
9.1323547e+00
8.9130926e+00
1.0314248e+01
8.6786833e+00
1.0508731e+01
9.6577263e+00
9.7763023e+00
1.0615909e+01
1.1831289e+01
1.0572440e+01
9.7763109e+00
9.9067783e+00
1.1256631e+01
9.5575476e+00
1.0867047e+01
9.4808760e+00
1.0130854e+01
9.8435726e+00
8.4495850e+00
9.2614412e+00
8.9070997e+00
1.0557000e+01
9.7716322e+00
9.9301252e+00
9.8985624e+00
8.7615881e+00
1.0255334e+01
9.4821358e+00
9.3389025e+00
1.0589709e+01
9.1579981e+00
1.0022407e+01
1.0407778e+01
8.6471071e+00
9.0259247e+00
9.0224085e+00
9.5459642e+00
1.0491288e+01
9.9510355e+00
9.7754002e+00
8.9862852e+00
9.7442560e+00
1.0754943e+01
9.1320143e+00
9.8180122e+00
1.0553134e+01
9.3280096e+00
1.1091089e+01
8.1447926e+00
1.0512357e+01
8.2305832e+00
1.1065076e+01
9.5301733e+00
9.7288485e+00
9.3287725e+00
9.4402971e+00
9.4938650e+00
9.2654495e+00
9.4122734e+00
9.6812181e+00
1.0049530e+01
9.0808020e+00
8.7699118e+00
1.0109659e+01
8.9348898e+00
9.4836988e+00
8.9475861e+00
8.0618658e+00
1.0221883e+01
9.4172926e+00
9.2153130e+00
1.0058072e+01
1.0604023e+01
1.0401636e+01
1.0755778e+01
9.5663958e+00
8.4033422e+00
9.4512091e+00
1.0040615e+01
9.6773958e+00
1.0030587e+01
8.5825329e+00
8.4860582e+00
9.4656086e+00
9.0939045e+00
1.0227575e+01
9.5634098e+00
9.4017658e+00
9.0156965e+00
1.2078711e+01
8.8825817e+00
1.1228671e+01
1.2638217e+01
1.0955009e+01
8.3507128e+00
1.1045477e+01
9.0555000e+00
1.0497775e+01
9.6272678e+00
9.3124390e+00
9.4350395e+00
1.0035783e+01
9.4464483e+00
1.0462306e+01
9.5865755e+00
9.5672321e+00
1.1306500e+01
1.0168412e+01
1.0433457e+01
1.0904737e+01
9.4241257e+00
1.0605366e+01
9.7826672e+00
9.1999254e+00
7.7967844e+00
1.0547963e+01
1.0844109e+01
9.2047462e+00
9.2576208e+00
9.0794191e+00
1.0297493e+01
1.0416629e+01
1.0026791e+01
1.0704528e+01
1.0966171e+01
9.7984371e+00
9.4924564e+00
9.9501143e+00
1.0949838e+01
9.1121931e+00
9.2173939e+00
8.7273216e+00
1.0610524e+01
9.9465990e+00
1.0363066e+01
1.2193536e+01
1.0729563e+01
1.0818873e+01
9.6926661e+00
9.0255060e+00
1.0732966e+01
1.1318286e+01
1.1424041e+01
1.0265326e+01
9.2653894e+00
9.5964432e+00
1.2206187e+01
1.0241219e+01
9.3053522e+00
8.9643192e+00
1.0185462e+01
1.0523063e+01
9.0116386e+00
9.7270021e+00
8.9585352e+00
9.2207098e+00
9.0392256e+00
9.3455105e+00
1.2438974e+01
9.8104782e+00
9.8302536e+00
8.9872437e+00
8.1992226e+00
1.0866252e+01
1.0007432e+01
9.2524624e+00
8.5661678e+00
8.8729982e+00
9.5725727e+00
9.9653397e+00
1.0108898e+01
1.0083081e+01
9.4163799e+00
8.8953381e+00
8.7670603e+00
9.0060968e+00
9.2047567e+00
1.0705029e+01
1.0098622e+01
1.0276556e+01
9.9290113e+00
1.0701967e+01
9.1485901e+00
9.8202162e+00
9.5616131e+00
9.7562799e+00
8.8649254e+00
9.7472763e+00
9.1934233e+00
9.1987648e+00
1.2297003e+01
9.6089468e+00
9.8349037e+00
9.2409573e+00
9.9163465e+00
1.0090796e+01
1.0073979e+01
9.0827274e+00
1.0107159e+01
8.7014408e+00
8.8340559e+00
1.0614371e+01
8.5839767e+00
1.0156775e+01
1.0237559e+01
8.9851418e+00
9.3883581e+00
9.9402027e+00
9.2236214e+00
9.0858412e+00
1.0712633e+01
1.0600124e+01
8.3299217e+00
8.8430548e+00
9.0592480e+00
9.6045237e+00
9.3132925e+00
8.4478226e+00
9.1665745e+00
9.3467684e+00
1.0344719e+01
9.3376513e+00
1.0936388e+01
1.1150144e+01
9.4320955e+00
1.0539615e+01
8.8336401e+00
1.0796142e+01
9.2557173e+00
1.0053698e+01
8.9542351e+00
9.0818319e+00
8.0966635e+00
1.0346897e+01
9.3058977e+00
1.0728495e+01
1.1120264e+01
1.0493341e+01
8.9758892e+00
9.2414865e+00
9.6361856e+00
9.9528322e+00
1.0291924e+01
1.1209211e+01
1.0526897e+01
1.0420436e+01
8.3080893e+00
9.0528822e+00
8.7811460e+00
1.0094753e+01
9.5114260e+00
1.1355307e+01
1.0363998e+01
1.0471728e+01
1.0798933e+01
1.1687604e+01
9.2629299e+00
9.2375336e+00
1.0520736e+01
1.0265374e+01
1.1286130e+01
9.1551018e+00
9.1775331e+00
9.0793018e+00
9.7271881e+00
8.9618750e+00
9.8722486e+00
9.1241999e+00
8.4240618e+00
9.1774845e+00
9.2113438e+00
9.7881212e+00
1.1160884e+01
1.0465465e+01
9.8800144e+00
9.8180637e+00
9.7095051e+00
9.7343264e+00
1.0074575e+01
9.7666702e+00
1.0227835e+01
1.1782913e+01
8.3420525e+00
1.0140615e+01
8.7216883e+00
1.1341157e+01
9.3997669e+00
1.0838207e+01
8.3092155e+00
9.3815632e+00
1.0444735e+01
1.1345165e+01
9.6714125e+00
1.0955768e+01
1.1828646e+01
9.0429296e+00
9.0382137e+00
9.4266033e+00
8.7158413e+00
1.0091102e+01
1.0473097e+01
1.0264119e+01
9.2387486e+00
1.1454676e+01
1.0403563e+01
1.2542342e+01
1.0512426e+01
1.1075065e+01
9.3793974e+00
9.3308983e+00
1.0227771e+01
8.3119555e+00
9.9097538e+00
8.2853498e+00
9.6464233e+00
1.0855315e+01
9.4453354e+00
9.7792912e+00
9.4616842e+00
1.0060072e+01
1.0065658e+01
9.8904228e+00
1.0079615e+01
8.8942585e+00
8.7945700e+00
1.1241329e+01
8.6964016e+00
1.0402048e+01
9.5188694e+00
1.0018482e+01
9.8147306e+00
9.6246490e+00
1.2460887e+01
9.4253654e+00
8.8111029e+00
9.6486683e+00
1.0098063e+01
8.9045954e+00
9.5779352e+00
8.6897650e+00
9.9179430e+00
9.9808722e+00
1.0742081e+01
1.1620991e+01
1.0428740e+01
1.0374954e+01
1.0927017e+01
1.0163551e+01
9.0829601e+00
9.2062349e+00
1.0275644e+01
9.6764221e+00
8.9187307e+00
1.0290965e+01
8.8562269e+00
9.8026991e+00
9.0258789e+00
1.0535010e+01
9.5794830e+00
9.4689598e+00
9.8159704e+00
9.7767038e+00
1.0350962e+01
9.3912144e+00
8.4604073e+00
9.8571653e+00
1.0208693e+01
9.6686277e+00
1.0036591e+01
9.6974936e+00
8.7196560e+00
1.0046031e+01
1.0162329e+01
1.0447661e+01
9.6156759e+00
9.8949108e+00
8.7970638e+00
9.0860205e+00
9.5383930e+00
9.1259022e+00
9.0328684e+00
9.7594805e+00
8.9045210e+00
1.0354576e+01
9.2210722e+00
9.6432343e+00
1.1082026e+01
1.0907777e+01
1.0362406e+01
1.0621428e+01
9.5960331e+00
1.0393703e+01
1.0748504e+01
1.0082545e+01
9.3720083e+00
1.0152467e+01
9.1972523e+00
1.1072152e+01
8.2243586e+00
1.0035850e+01
1.0052475e+01
8.1386347e+00
9.9187098e+00
1.0196663e+01
9.3268261e+00
9.1446190e+00
1.0339819e+01
9.8847036e+00
1.1871424e+01
8.8694801e+00
9.6738663e+00
7.3986297e+00
1.1136366e+01
9.9716234e+00
9.5503416e+00
8.8695345e+00
9.9800739e+00
8.7739697e+00
1.1642039e+01
1.0862089e+01
9.8005009e+00
9.6590204e+00
9.5989428e+00
9.1380415e+00
9.3514462e+00
9.6342020e+00
9.1101303e+00
9.1200686e+00
8.6952524e+00
1.0457156e+01
9.1156807e+00
1.0824200e+01
9.8102102e+00
1.0066696e+01
1.0370805e+01
9.6942883e+00
9.4118471e+00
1.1793034e+01
9.7559767e+00
9.1424084e+00
1.0715078e+01
1.1150374e+01
9.6780376e+00
1.0355289e+01
1.1436082e+01
1.0428974e+01
9.8738661e+00
8.6447287e+00
8.9264898e+00
1.0811402e+01
1.0580716e+01
9.0160456e+00
9.4637003e+00
9.1471672e+00
9.5220575e+00
9.9478741e+00
9.9608479e+00
9.1236153e+00
1.1594742e+01
8.7266932e+00
1.0996065e+01
9.5918007e+00
1.1130245e+01
1.0267395e+01
1.0451941e+01
9.4744892e+00
9.5950928e+00
9.2031088e+00
1.1577518e+01
9.7552509e+00
9.2199535e+00
9.6063728e+00
1.0139129e+01
1.1529628e+01
1.0688109e+01
1.0205893e+01
9.5645857e+00
9.3870354e+00
1.0380499e+01
9.0380516e+00
8.4313946e+00
8.6448793e+00
1.0065270e+01
9.8145666e+00
9.6656132e+00
1.0442033e+01
8.7485580e+00
9.5266676e+00
9.9090004e+00
1.0729207e+01
9.3994608e+00
1.2140650e+01
1.1085300e+01
9.3740768e+00
9.8156157e+00
9.4794474e+00
9.8232508e+00
1.0248487e+01
7.4127746e+00
1.0194768e+01
1.0442842e+01
1.0045216e+01
1.0813761e+01
1.0676842e+01
8.5531511e+00
9.2500467e+00
9.9638233e+00
8.8571129e+00
9.3290329e+00
9.3361435e+00
9.3492994e+00
9.2600241e+00
1.0871930e+01
1.0016405e+01
1.0425962e+01
9.9812326e+00
1.1026235e+01
9.8501682e+00
1.0195073e+01
9.1507292e+00
1.0931988e+01
9.5815544e+00
9.8724127e+00
9.3990746e+00
9.1608047e+00
9.5067482e+00
1.0877684e+01
9.4472628e+00
9.8672905e+00
9.2240906e+00
9.6600924e+00
8.5886421e+00
8.5477676e+00
1.0731337e+01
1.2390265e+01
9.0525236e+00
1.0165998e+01
9.7032089e+00
9.5774984e+00
1.0402035e+01
9.2574406e+00
1.0048347e+01
1.0113360e+01
9.8254271e+00
1.0132497e+01
1.0095292e+01
9.9530048e+00
1.0319566e+01
9.7639313e+00
9.7966795e+00
8.5263577e+00
1.0637765e+01
1.1040472e+01
1.0522418e+01
1.1195321e+01
9.1088352e+00
1.0915491e+01
1.0234422e+01
9.2227345e+00