# vtk DataFile Version 4.0
vtk output
ASCII
DATASET UNSTRUCTURED_GRID
POINTS 460 float
0.0000000e+00 0.0000000e+00 0.0000000e+00 
5.0000000e+00 0.0000000e+00 0.0000000e+00 
5.0000000e+00 3.0000000e+00 0.0000000e+00 
0.0000000e+00 3.0000000e+00 0.0000000e+00 
0.0000000e+00 0.0000000e+00 1.0000000e+01 
5.0000000e+00 0.0000000e+00 1.0000000e+01 
5.0000000e+00 3.0000000e+00 1.0000000e+01 
0.0000000e+00 3.0000000e+00 1.0000000e+01 
1.0000000e+00 3.0000000e+00 -5.0000000e+00 
1.0000000e+00 3.0000000e+00 -4.5000000e+00 
1.0000000e+00 3.0000000e+00 -4.0000000e+00 
1.0000000e+00 3.0000000e+00 -3.5000000e+00 
1.0000000e+00 3.0000000e+00 -3.0000000e+00 
1.0000000e+00 3.0000000e+00 -2.5000000e+00 
1.0000000e+00 3.0000000e+00 -2.0000000e+00 
1.0000000e+00 3.0000000e+00 -1.5000000e+00 
1.0000000e+00 3.0000000e+00 -1.0000000e+00 
1.0000000e+00 3.0000000e+00 -5.0000000e-01 
1.0000000e+00 3.0000000e+00 0.0000000e+00 
1.0000000e+00 3.0000000e+00 5.0000000e-01 
1.0000000e+00 3.0000000e+00 1.0000000e+00 
1.0000000e+00 3.0000000e+00 1.5000000e+00 
1.0000000e+00 3.0000000e+00 2.0000000e+00 
1.0000000e+00 3.0000000e+00 2.5000000e+00 
1.0000000e+00 3.0000000e+00 3.0000000e+00 
1.0000000e+00 3.0000000e+00 3.5000000e+00 
1.0000000e+00 3.0000000e+00 4.0000000e+00 
1.0000000e+00 3.0000000e+00 4.5000000e+00 
1.0000000e+00 3.0000000e+00 5.0000000e+00 
1.0000000e+00 3.0000000e+00 5.5000000e+00 
1.0000000e+00 3.0000000e+00 6.0000000e+00 
1.0000000e+00 3.0000000e+00 6.5000000e+00 
1.0000000e+00 3.0000000e+00 7.0000000e+00 
1.0000000e+00 3.0000000e+00 7.5000000e+00 
1.0000000e+00 3.0000000e+00 8.0000000e+00 
1.0000000e+00 3.0000000e+00 8.5000000e+00 
1.0000000e+00 3.0000000e+00 9.0000000e+00 
1.0000000e+00 3.0000000e+00 9.5000000e+00 
1.0000000e+00 3.0000000e+00 1.0000000e+01 
1.0000000e+00 3.0000000e+00 1.0500000e+01 
1.0000000e+00 3.0000000e+00 1.1000000e+01 
1.0000000e+00 3.0000000e+00 1.1500000e+01 
1.0000000e+00 3.0000000e+00 1.2000000e+01 
1.0000000e+00 3.0000000e+00 1.2500000e+01 
1.0000000e+00 3.0000000e+00 1.3000000e+01 
1.0000000e+00 3.0000000e+00 1.3500000e+01 
1.0000000e+00 3.0000000e+00 1.4000000e+01 
1.0000000e+00 3.0000000e+00 1.4500000e+01 
1.0000000e+00 3.0250001e+00 -5.0000000e+00 
1.0000000e+00 3.0250001e+00 -4.5000000e+00 
1.0000000e+00 3.0250001e+00 -4.0000000e+00 
1.0000000e+00 3.0250001e+00 -3.5000000e+00 
1.0000000e+00 3.0250001e+00 -3.0000000e+00 
1.0000000e+00 3.0250001e+00 -2.5000000e+00 
1.0000000e+00 3.0250001e+00 -2.0000000e+00 
1.0000000e+00 3.0250001e+00 -1.5000000e+00 
1.0000000e+00 3.0250001e+00 -1.0000000e+00 
1.0000000e+00 3.0250001e+00 -5.0000000e-01 
1.0000000e+00 3.0250001e+00 0.0000000e+00 
1.0000000e+00 3.0250001e+00 5.0000000e-01 
1.0000000e+00 3.0250001e+00 1.0000000e+00 
1.0000000e+00 3.0250001e+00 1.5000000e+00 
1.0000000e+00 3.0250001e+00 2.0000000e+00 
1.0000000e+00 3.0250001e+00 2.5000000e+00 
1.0000000e+00 3.0250001e+00 3.0000000e+00 
1.0000000e+00 3.0250001e+00 3.5000000e+00 
1.0000000e+00 3.0250001e+00 4.0000000e+00 
1.0000000e+00 3.0250001e+00 4.5000000e+00 
1.0000000e+00 3.0250001e+00 5.0000000e+00 
1.0000000e+00 3.0250001e+00 5.5000000e+00 
1.0000000e+00 3.0250001e+00 6.0000000e+00 
1.0000000e+00 3.0250001e+00 6.5000000e+00 
1.0000000e+00 3.0250001e+00 7.0000000e+00 
1.0000000e+00 3.0250001e+00 7.5000000e+00 
1.0000000e+00 3.0250001e+00 8.0000000e+00 
1.0000000e+00 3.0250001e+00 8.5000000e+00 
1.0000000e+00 3.0250001e+00 9.0000000e+00 
1.0000000e+00 3.0250001e+00 9.5000000e+00 
1.0000000e+00 3.0250001e+00 1.0000000e+01 
1.0000000e+00 3.0250001e+00 1.0500000e+01 
1.0000000e+00 3.0250001e+00 1.1000000e+01 
1.0000000e+00 3.0250001e+00 1.1500000e+01 
1.0000000e+00 3.0250001e+00 1.2000000e+01 
1.0000000e+00 3.0250001e+00 1.2500000e+01 
1.0000000e+00 3.0250001e+00 1.3000000e+01 
1.0000000e+00 3.0250001e+00 1.3500000e+01 
1.0000000e+00 3.0250001e+00 1.4000000e+01 
1.0000000e+00 3.0250001e+00 1.4500000e+01 
1.0000000e+00 -2.0000000e+00 -5.0000000e+00 
1.0000000e+00 -2.0000000e+00 -4.5000000e+00 
1.0000000e+00 -2.0000000e+00 -4.0000000e+00 
1.0000000e+00 -2.0000000e+00 -3.5000000e+00 
1.0000000e+00 -2.0000000e+00 -3.0000000e+00 
1.0000000e+00 -2.0000000e+00 -2.5000000e+00 
1.0000000e+00 -2.0000000e+00 -2.0000000e+00 
1.0000000e+00 -2.0000000e+00 -1.5000000e+00 
1.0000000e+00 -2.0000000e+00 -1.0000000e+00 
1.0000000e+00 -2.0000000e+00 -5.0000000e-01 
1.0000000e+00 -2.0000000e+00 1.0500000e+01 
1.0000000e+00 -2.0000000e+00 1.1000000e+01 
1.0000000e+00 -2.0000000e+00 1.1500000e+01 
1.0000000e+00 -2.0000000e+00 1.2000000e+01 
1.0000000e+00 -2.0000000e+00 1.2500000e+01 
1.0000000e+00 -2.0000000e+00 1.3000000e+01 
1.0000000e+00 -2.0000000e+00 1.3500000e+01 
1.0000000e+00 -2.0000000e+00 1.4000000e+01 
1.0000000e+00 -2.0000000e+00 1.4500000e+01 
1.0000000e+00 0.0000000e+00 0.0000000e+00 
2.0000000e+00 0.0000000e+00 0.0000000e+00 
3.0000000e+00 0.0000000e+00 0.0000000e+00 
4.0000000e+00 0.0000000e+00 0.0000000e+00 
5.0000000e+00 1.0000000e+00 0.0000000e+00 
5.0000000e+00 2.0000000e+00 0.0000000e+00 
0.0000000e+00 2.0000000e+00 0.0000000e+00 
0.0000000e+00 1.0000000e+00 0.0000000e+00 
0.0000000e+00 0.0000000e+00 1.0000000e+00 
0.0000000e+00 0.0000000e+00 2.0000000e+00 
0.0000000e+00 0.0000000e+00 3.0000000e+00 
0.0000000e+00 0.0000000e+00 4.0000000e+00 
0.0000000e+00 0.0000000e+00 5.0000000e+00 
0.0000000e+00 0.0000000e+00 6.0000000e+00 
0.0000000e+00 0.0000000e+00 7.0000000e+00 
0.0000000e+00 0.0000000e+00 8.0000000e+00 
0.0000000e+00 0.0000000e+00 9.0000000e+00 
5.0000000e+00 0.0000000e+00 1.0000000e+00 
5.0000000e+00 0.0000000e+00 2.0000000e+00 
5.0000000e+00 0.0000000e+00 3.0000000e+00 
5.0000000e+00 0.0000000e+00 4.0000000e+00 
5.0000000e+00 0.0000000e+00 5.0000000e+00 
5.0000000e+00 0.0000000e+00 6.0000000e+00 
5.0000000e+00 0.0000000e+00 7.0000000e+00 
5.0000000e+00 0.0000000e+00 8.0000000e+00 
5.0000000e+00 0.0000000e+00 9.0000000e+00 
1.0000000e+00 0.0000000e+00 1.0000000e+01 
2.0000000e+00 0.0000000e+00 1.0000000e+01 
3.0000000e+00 0.0000000e+00 1.0000000e+01 
4.0000000e+00 0.0000000e+00 1.0000000e+01 
5.0000000e+00 3.0000000e+00 1.0000000e+00 
5.0000000e+00 3.0000000e+00 2.0000000e+00 
5.0000000e+00 3.0000000e+00 3.0000000e+00 
5.0000000e+00 3.0000000e+00 4.0000000e+00 
5.0000000e+00 3.0000000e+00 5.0000000e+00 
5.0000000e+00 3.0000000e+00 6.0000000e+00 
5.0000000e+00 3.0000000e+00 7.0000000e+00 
5.0000000e+00 3.0000000e+00 8.0000000e+00 
5.0000000e+00 3.0000000e+00 9.0000000e+00 
5.0000000e+00 1.0000000e+00 1.0000000e+01 
5.0000000e+00 2.0000000e+00 1.0000000e+01 
0.0000000e+00 3.0000000e+00 1.0000000e+00 
0.0000000e+00 3.0000000e+00 2.0000000e+00 
0.0000000e+00 3.0000000e+00 3.0000000e+00 
0.0000000e+00 3.0000000e+00 4.0000000e+00 
0.0000000e+00 3.0000000e+00 5.0000000e+00 
0.0000000e+00 3.0000000e+00 6.0000000e+00 
0.0000000e+00 3.0000000e+00 7.0000000e+00 
0.0000000e+00 3.0000000e+00 8.0000000e+00 
0.0000000e+00 3.0000000e+00 9.0000000e+00 
0.0000000e+00 2.0000000e+00 1.0000000e+01 
0.0000000e+00 1.0000000e+00 1.0000000e+01 
4.0000000e+00 3.0000000e+00 0.0000000e+00 
3.0000000e+00 3.0000000e+00 0.0000000e+00 
2.0000000e+00 3.0000000e+00 0.0000000e+00 
4.0000000e+00 3.0000000e+00 1.0000000e+01 
3.0000000e+00 3.0000000e+00 1.0000000e+01 
2.0000000e+00 3.0000000e+00 1.0000000e+01 
4.0618000e+00 1.5000000e+00 0.0000000e+00 
1.5046000e+00 7.6549745e-01 0.0000000e+00 
2.5000000e+00 2.1339746e+00 0.0000000e+00 
1.5046000e+00 2.2345026e+00 0.0000000e+00 
2.4957771e+00 8.1560516e-01 0.0000000e+00 
3.4707544e+00 2.2336540e+00 0.0000000e+00 
3.4700506e+00 7.5794268e-01 0.0000000e+00 
8.6322361e-01 1.5000000e+00 0.0000000e+00 
2.0000000e+00 1.5000000e+00 0.0000000e+00 
2.9960666e+00 1.4974480e+00 0.0000000e+00 
4.2679491e+00 7.3205084e-01 0.0000000e+00 
4.2679491e+00 2.2679491e+00 0.0000000e+00 
7.2695929e-01 2.2730408e+00 0.0000000e+00 
7.2695929e-01 7.2695929e-01 0.0000000e+00 
4.1822505e+00 0.0000000e+00 2.5515697e+00 
4.2017918e+00 0.0000000e+00 4.4725966e+00 
4.1114569e+00 0.0000000e+00 6.5092020e+00 
8.6602539e-01 0.0000000e+00 3.5000000e+00 
8.4778279e-01 0.0000000e+00 5.4684029e+00 
8.9629614e-01 0.0000000e+00 7.5867257e+00 
2.5566745e+00 0.0000000e+00 8.1853306e-01 
2.4918270e+00 0.0000000e+00 9.1386929e+00 
8.4677207e-01 0.0000000e+00 1.5042374e+00 
4.0943027e+00 0.0000000e+00 8.4081745e+00 
8.6281651e-01 0.0000000e+00 2.5007062e+00 
1.7315160e+00 0.0000000e+00 3.0001178e+00 
1.7319617e+00 0.0000000e+00 4.0000196e+00 
2.5980761e+00 0.0000000e+00 3.5000000e+00 
2.5536871e+00 0.0000000e+00 4.4963923e+00 
2.5928419e+00 0.0000000e+00 2.4239938e+00 
1.5037409e+00 0.0000000e+00 9.1535149e+00 
1.8433737e+00 0.0000000e+00 8.1858873e+00 
3.0000000e+00 0.0000000e+00 8.2679491e+00 
2.5000000e+00 0.0000000e+00 7.4019237e+00 
3.5042722e+00 0.0000000e+00 7.4271150e+00 
3.0310018e+00 0.0000000e+00 6.5282087e+00 
2.0373929e+00 0.0000000e+00 6.5307913e+00 
3.4767809e+00 0.0000000e+00 5.8031492e+00 
2.5452602e+00 0.0000000e+00 5.5720768e+00 
1.6456656e+00 0.0000000e+00 1.9697139e+00 
8.6297011e-01 0.0000000e+00 4.4947371e+00 
1.0111579e+00 0.0000000e+00 6.5282545e+00 
3.4994321e+00 0.0000000e+00 8.4691072e-01 
4.1860156e+00 0.0000000e+00 3.5040276e+00 
1.7320508e+00 0.0000000e+00 5.0000000e+00 
4.0544066e+00 0.0000000e+00 1.5781221e+00 
1.5817389e+00 0.0000000e+00 9.3943578e-01 
8.3166349e-01 0.0000000e+00 8.5090933e+00 
3.4686174e+00 0.0000000e+00 9.1752682e+00 
3.0709300e+00 0.0000000e+00 1.5799091e+00 
3.3927374e+00 0.0000000e+00 3.0399952e+00 
3.3826034e+00 0.0000000e+00 3.9747651e+00 
4.3420062e+00 0.0000000e+00 7.4688983e+00 
3.4023225e+00 0.0000000e+00 4.9314723e+00 
1.6740381e+00 0.0000000e+00 7.3014426e+00 
4.2715640e+00 0.0000000e+00 5.4758859e+00 
1.6225953e+00 0.0000000e+00 5.8104177e+00 
4.2679491e+00 0.0000000e+00 9.2679491e+00 
7.3205084e-01 0.0000000e+00 7.3205084e-01 
4.2679491e+00 0.0000000e+00 7.3205084e-01 
7.3205084e-01 0.0000000e+00 9.2679491e+00 
3.4586334e+00 0.0000000e+00 2.2347178e+00 
2.2895701e+00 0.0000000e+00 1.5463171e+00 
5.0000000e+00 2.2345026e+00 1.5046000e+00 
[...]
POINT_DATA 460
FIELD FieldData 2
DISPLACEMENT 3 460  float
0.0000000e+00 0.0000000e+00 0.0000000e+00 
0.0000000e+00 0.0000000e+00 0.0000000e+00 
0.0000000e+00 -3.0480319e-06 0.0000000e+00 
0.0000000e+00 -6.3826177e-05 0.0000000e+00 
0.0000000e+00 0.0000000e+00 0.0000000e+00 
0.0000000e+00 0.0000000e+00 0.0000000e+00 
0.0000000e+00 8.2098431e-08 0.0000000e+00 
0.0000000e+00 5.1045919e-08 0.0000000e+00 
0.0000000e+00 3.6543486e-06 0.0000000e+00 
0.0000000e+00 3.8963412e-06 0.0000000e+00 
0.0000000e+00 4.6503783e-06 0.0000000e+00 
0.0000000e+00 5.9422814e-06 0.0000000e+00 
0.0000000e+00 7.6546730e-06 0.0000000e+00 
0.0000000e+00 9.3035687e-06 0.0000000e+00 
0.0000000e+00 9.7592256e-06 0.0000000e+00 
0.0000000e+00 6.9981024e-06 0.0000000e+00 
0.0000000e+00 -1.9354939e-06 0.0000000e+00 
0.0000000e+00 -2.0463414e-05 0.0000000e+00 
0.0000000e+00 -5.1865198e-05 0.0000000e+00 
-3.7925543e-06 -9.6522555e-05 -2.1788101e-06 
-7.6246251e-06 -1.6640259e-04 7.3050501e-06 
2.9147600e-07 -2.4016172e-04 -2.5663303e-06 
4.5485558e-06 -2.5198219e-04 -1.1373076e-05 
-1.2466095e-06 -1.7453452e-04 -1.0010182e-05 
-3.2545281e-06 -9.5327065e-05 -1.1938852e-05 
-6.0856842e-06 -4.5192992e-05 -1.6961842e-05 
-2.5931060e-06 -1.8558483e-05 -9.0849862e-06 
-1.4193218e-06 -6.6841153e-06 -7.4782588e-06 
-5.4963357e-07 -2.1962751e-06 -3.8596522e-06 
-4.3628663e-07 -7.7372840e-07 -2.1880924e-06 
-3.9292624e-07 -3.5870033e-07 -1.5826826e-06 
-1.9406581e-07 -2.1341245e-07 -8.8768564e-07 
-1.1780255e-07 -1.0560407e-07 -5.0029314e-07 
-6.1894916e-08 -9.6091917e-09 -2.7466803e-07 
-4.3932136e-08 5.1079628e-08 -1.7396273e-07 
-2.7575927e-08 7.7741682e-08 -7.0953796e-08 
-1.8026142e-08 8.1170761e-08 -3.1273320e-08 
-1.0236111e-08 7.3522614e-08 -1.4539219e-08 
0.0000000e+00 5.8646339e-08 0.0000000e+00 
0.0000000e+00 3.9562270e-08 0.0000000e+00 
0.0000000e+00 2.2633342e-08 0.0000000e+00 
0.0000000e+00 1.0311036e-08 0.0000000e+00 
0.0000000e+00 2.7833140e-09 0.0000000e+00 
0.0000000e+00 -9.6605313e-10 0.0000000e+00 
0.0000000e+00 -2.2649325e-09 0.0000000e+00 
0.0000000e+00 -2.2982656e-09 0.0000000e+00 
0.0000000e+00 -1.9421182e-09 0.0000000e+00 
0.0000000e+00 -1.7495736e-09 0.0000000e+00 
0.0000000e+00 3.6559679e-06 0.0000000e+00 
0.0000000e+00 3.8991002e-06 0.0000000e+00 
0.0000000e+00 4.6565901e-06 0.0000000e+00 
0.0000000e+00 5.9545459e-06 0.0000000e+00 
0.0000000e+00 7.6751339e-06 0.0000000e+00 
0.0000000e+00 9.3322451e-06 0.0000000e+00 
0.0000000e+00 9.7913726e-06 0.0000000e+00 
0.0000000e+00 7.0207197e-06 0.0000000e+00 
0.0000000e+00 -1.9474435e-06 0.0000000e+00 
0.0000000e+00 -2.0548665e-05 0.0000000e+00 
0.0000000e+00 -5.1307674e-05 0.0000000e+00 
0.0000000e+00 -9.7354794e-05 0.0000000e+00 
0.0000000e+00 -1.6768994e-04 0.0000000e+00 
0.0000000e+00 -2.4442555e-04 0.0000000e+00 
0.0000000e+00 -2.5566146e-04 0.0000000e+00 
0.0000000e+00 -1.7731516e-04 0.0000000e+00 
0.0000000e+00 -9.6663833e-05 0.0000000e+00 
0.0000000e+00 -4.5238765e-05 0.0000000e+00 
0.0000000e+00 -1.8492112e-05 0.0000000e+00 
0.0000000e+00 -6.5758322e-06 0.0000000e+00 
0.0000000e+00 -2.1140770e-06 0.0000000e+00 
0.0000000e+00 -7.2699578e-07 0.0000000e+00 
0.0000000e+00 -3.4185328e-07 0.0000000e+00 
0.0000000e+00 -2.0660693e-07 0.0000000e+00 
0.0000000e+00 -1.0414966e-07 0.0000000e+00 
0.0000000e+00 -1.0839956e-08 0.0000000e+00 
0.0000000e+00 5.0652389e-08 0.0000000e+00 
0.0000000e+00 7.7716379e-08 0.0000000e+00 
0.0000000e+00 8.1505227e-08 0.0000000e+00 
0.0000000e+00 7.3533890e-08 0.0000000e+00 
0.0000000e+00 5.8500873e-08 0.0000000e+00 
0.0000000e+00 3.9719428e-08 0.0000000e+00 
0.0000000e+00 2.2722414e-08 0.0000000e+00 
0.0000000e+00 1.0350575e-08 0.0000000e+00 
0.0000000e+00 2.7926241e-09 0.0000000e+00 
0.0000000e+00 -9.7176300e-10 0.0000000e+00 
0.0000000e+00 -2.2758029e-09 0.0000000e+00 
0.0000000e+00 -2.3092144e-09 0.0000000e+00 
0.0000000e+00 -1.9515962e-09 0.0000000e+00 
0.0000000e+00 -1.7582635e-09 0.0000000e+00 
0.0000000e+00 0.0000000e+00 0.0000000e+00 
0.0000000e+00 0.0000000e+00 0.0000000e+00 
0.0000000e+00 0.0000000e+00 0.0000000e+00 
0.0000000e+00 0.0000000e+00 0.0000000e+00 
0.0000000e+00 0.0000000e+00 0.0000000e+00 
0.0000000e+00 0.0000000e+00 0.0000000e+00 
0.0000000e+00 0.0000000e+00 0.0000000e+00 
0.0000000e+00 0.0000000e+00 0.0000000e+00 
0.0000000e+00 0.0000000e+00 0.0000000e+00 
0.0000000e+00 0.0000000e+00 0.0000000e+00 
0.0000000e+00 0.0000000e+00 0.0000000e+00 
0.0000000e+00 0.0000000e+00 0.0000000e+00 
0.0000000e+00 0.0000000e+00 0.0000000e+00 
0.0000000e+00 0.0000000e+00 0.0000000e+00 
0.0000000e+00 0.0000000e+00 0.0000000e+00 
0.0000000e+00 0.0000000e+00 0.0000000e+00 
0.0000000e+00 0.0000000e+00 0.0000000e+00 
0.0000000e+00 0.0000000e+00 0.0000000e+00 
0.0000000e+00 0.0000000e+00 0.0000000e+00 
0.0000000e+00 0.0000000e+00 0.0000000e+00 
0.0000000e+00 0.0000000e+00 0.0000000e+00 
0.0000000e+00 0.0000000e+00 0.0000000e+00 
0.0000000e+00 0.0000000e+00 0.0000000e+00 
0.0000000e+00 -1.6757919e-06 0.0000000e+00 
0.0000000e+00 -2.8268546e-06 0.0000000e+00 
0.0000000e+00 -5.3737760e-05 0.0000000e+00 
0.0000000e+00 -2.8094539e-05 0.0000000e+00 
0.0000000e+00 0.0000000e+00 0.0000000e+00 
0.0000000e+00 0.0000000e+00 0.0000000e+00 
0.0000000e+00 0.0000000e+00 0.0000000e+00 
0.0000000e+00 0.0000000e+00 0.0000000e+00 
0.0000000e+00 0.0000000e+00 0.0000000e+00 
0.0000000e+00 0.0000000e+00 0.0000000e+00 
0.0000000e+00 0.0000000e+00 0.0000000e+00 
0.0000000e+00 0.0000000e+00 0.0000000e+00 
0.0000000e+00 0.0000000e+00 0.0000000e+00 
0.0000000e+00 0.0000000e+00 0.0000000e+00 
0.0000000e+00 0.0000000e+00 0.0000000e+00 
0.0000000e+00 0.0000000e+00 0.0000000e+00 
0.0000000e+00 0.0000000e+00 0.0000000e+00 
0.0000000e+00 0.0000000e+00 0.0000000e+00 
0.0000000e+00 0.0000000e+00 0.0000000e+00 
0.0000000e+00 0.0000000e+00 0.0000000e+00 
0.0000000e+00 0.0000000e+00 0.0000000e+00 
0.0000000e+00 0.0000000e+00 0.0000000e+00 
0.0000000e+00 0.0000000e+00 0.0000000e+00 
0.0000000e+00 0.0000000e+00 0.0000000e+00 
0.0000000e+00 0.0000000e+00 0.0000000e+00 
0.0000000e+00 0.0000000e+00 0.0000000e+00 
0.0000000e+00 -2.9110697e-06 0.0000000e+00 
0.0000000e+00 -1.2884340e-06 0.0000000e+00 
0.0000000e+00 -1.7092403e-06 0.0000000e+00 
0.0000000e+00 -1.8508487e-07 0.0000000e+00 
0.0000000e+00 -8.0668613e-08 0.0000000e+00 
0.0000000e+00 4.0396606e-07 0.0000000e+00 
0.0000000e+00 2.0785866e-07 0.0000000e+00 
0.0000000e+00 1.6908008e-07 0.0000000e+00 
0.0000000e+00 9.9348760e-08 0.0000000e+00 
0.0000000e+00 3.7657383e-08 0.0000000e+00 
0.0000000e+00 7.1847793e-08 0.0000000e+00 
0.0000000e+00 -9.0576446e-05 0.0000000e+00 
0.0000000e+00 -1.0898850e-04 0.0000000e+00 
0.0000000e+00 -6.1888117e-05 0.0000000e+00 
0.0000000e+00 -2.2938926e-05 0.0000000e+00 
0.0000000e+00 -6.3234233e-06 0.0000000e+00 
0.0000000e+00 -1.3213137e-06 0.0000000e+00 
0.0000000e+00 -2.7984609e-07 0.0000000e+00 
0.0000000e+00 -1.4013375e-09 0.0000000e+00 
0.0000000e+00 4.5824873e-08 0.0000000e+00 
0.0000000e+00 4.3283759e-08 0.0000000e+00 
0.0000000e+00 2.2082732e-08 0.0000000e+00 
0.0000000e+00 -5.5417559e-06 0.0000000e+00 
0.0000000e+00 -1.6957138e-05 0.0000000e+00 
0.0000000e+00 -4.0986251e-05 0.0000000e+00 
0.0000000e+00 8.5789694e-08 0.0000000e+00 
0.0000000e+00 8.6452623e-08 0.0000000e+00 
0.0000000e+00 8.4671079e-08 0.0000000e+00 
0.0000000e+00 -4.0318587e-06 0.0000000e+00 
0.0000000e+00 -1.6950184e-05 0.0000000e+00 
0.0000000e+00 -2.1890619e-05 0.0000000e+00 
0.0000000e+00 -4.8855607e-05 0.0000000e+00 
0.0000000e+00 -1.0159802e-05 0.0000000e+00 
0.0000000e+00 -8.6933542e-06 0.0000000e+00 
0.0000000e+00 -4.0571531e-06 0.0000000e+00 
0.0000000e+00 -4.0995656e-05 0.0000000e+00 
0.0000000e+00 -2.5081055e-05 0.0000000e+00 
0.0000000e+00 -1.1364182e-05 0.0000000e+00 
0.0000000e+00 -1.9994711e-06 0.0000000e+00 
0.0000000e+00 -4.2539318e-06 0.0000000e+00 
0.0000000e+00 -5.6031084e-05 0.0000000e+00 
0.0000000e+00 -1.9000845e-05 0.0000000e+00 
0.0000000e+00 0.0000000e+00 0.0000000e+00 
0.0000000e+00 0.0000000e+00 0.0000000e+00 
0.0000000e+00 0.0000000e+00 0.0000000e+00 
0.0000000e+00 0.0000000e+00 0.0000000e+00 
0.0000000e+00 0.0000000e+00 0.0000000e+00 
0.0000000e+00 0.0000000e+00 0.0000000e+00 
0.0000000e+00 0.0000000e+00 0.0000000e+00 
0.0000000e+00 0.0000000e+00 0.0000000e+00 
0.0000000e+00 0.0000000e+00 0.0000000e+00 
0.0000000e+00 0.0000000e+00 0.0000000e+00 
0.0000000e+00 0.0000000e+00 0.0000000e+00 
0.0000000e+00 0.0000000e+00 0.0000000e+00 
0.0000000e+00 0.0000000e+00 0.0000000e+00 
0.0000000e+00 0.0000000e+00 0.0000000e+00 
0.0000000e+00 0.0000000e+00 0.0000000e+00 
0.0000000e+00 0.0000000e+00 0.0000000e+00 
0.0000000e+00 0.0000000e+00 0.0000000e+00 
0.0000000e+00 0.0000000e+00 0.0000000e+00 
0.0000000e+00 0.0000000e+00 0.0000000e+00 
0.0000000e+00 0.0000000e+00 0.0000000e+00 
0.0000000e+00 0.0000000e+00 0.0000000e+00 
0.0000000e+00 0.0000000e+00 0.0000000e+00 
0.0000000e+00 0.0000000e+00 0.0000000e+00 
0.0000000e+00 0.0000000e+00 0.0000000e+00 
0.0000000e+00 0.0000000e+00 0.0000000e+00 
0.0000000e+00 0.0000000e+00 0.0000000e+00 
0.0000000e+00 0.0000000e+00 0.0000000e+00 
0.0000000e+00 0.0000000e+00 0.0000000e+00 
0.0000000e+00 0.0000000e+00 0.0000000e+00 
0.0000000e+00 0.0000000e+00 0.0000000e+00 
0.0000000e+00 0.0000000e+00 0.0000000e+00 
0.0000000e+00 0.0000000e+00 0.0000000e+00 
0.0000000e+00 0.0000000e+00 0.0000000e+00 
0.0000000e+00 0.0000000e+00 0.0000000e+00 
0.0000000e+00 0.0000000e+00 0.0000000e+00 
0.0000000e+00 0.0000000e+00 0.0000000e+00 
0.0000000e+00 0.0000000e+00 0.0000000e+00 
0.0000000e+00 0.0000000e+00 0.0000000e+00 
0.0000000e+00 0.0000000e+00 0.0000000e+00 
0.0000000e+00 0.0000000e+00 0.0000000e+00 
0.0000000e+00 0.0000000e+00 0.0000000e+00 
0.0000000e+00 0.0000000e+00 0.0000000e+00 
0.0000000e+00 0.0000000e+00 0.0000000e+00 
0.0000000e+00 0.0000000e+00 0.0000000e+00 
0.0000000e+00 0.0000000e+00 0.0000000e+00 
0.0000000e+00 0.0000000e+00 0.0000000e+00 
0.0000000e+00 0.0000000e+00 0.0000000e+00 
0.0000000e+00 0.0000000e+00 0.0000000e+00 
0.0000000e+00 0.0000000e+00 0.0000000e+00 
0.0000000e+00 -1.2795479e-06 0.0000000e+00 
0.0000000e+00 6.6289310e-08 0.0000000e+00 
0.0000000e+00 -1.7209078e-07 0.0000000e+00 
0.0000000e+00 4.1946168e-07 0.0000000e+00 
0.0000000e+00 1.9326112e-07 0.0000000e+00 
0.0000000e+00 -1.2447274e-06 0.0000000e+00 
0.0000000e+00 -1.7197210e-07 0.0000000e+00 
0.0000000e+00 6.9169218e-08 0.0000000e+00 
0.0000000e+00 -5.5058484e-07 0.0000000e+00 
0.0000000e+00 2.0217366e-08 0.0000000e+00 
0.0000000e+00 -1.2907659e-06 0.0000000e+00 
0.0000000e+00 4.6208005e-08 0.0000000e+00 
0.0000000e+00 2.6928572e-07 0.0000000e+00 
0.0000000e+00 7.0323850e-08 0.0000000e+00 
0.0000000e+00 -1.7840688e-06 0.0000000e+00 
0.0000000e+00 4.3917865e-08 0.0000000e+00 
0.0000000e+00 1.2042445e-07 0.0000000e+00 
0.0000000e+00 -1.7877600e-06 0.0000000e+00 
0.0000000e+00 1.9330803e-07 0.0000000e+00 
0.0000000e+00 1.6476375e-07 0.0000000e+00 
0.0000000e+00 -1.6456306e-06 0.0000000e+00 
0.0000000e+00 2.2391401e-07 0.0000000e+00 
0.0000000e+00 -1.2505237e-07 0.0000000e+00 
0.0000000e+00 -8.7462263e-07 0.0000000e+00 
0.0000000e+00 1.1948461e-07 0.0000000e+00 
0.0000000e+00 8.7600490e-08 0.0000000e+00 
0.0000000e+00 2.8569954e-08 0.0000000e+00 
0.0000000e+00 -1.9309193e-06 0.0000000e+00 
0.0000000e+00 -1.1066163e-06 0.0000000e+00 
0.0000000e+00 2.8382022e-08 0.0000000e+00 
0.0000000e+00 -5.0569695e-05 0.0000000e+00 
0.0000000e+00 -2.7364116e-05 0.0000000e+00 
0.0000000e+00 -4.6358095e-06 0.0000000e+00 
0.0000000e+00 -9.4075901e-08 0.0000000e+00 
0.0000000e+00 -3.3152915e-05 0.0000000e+00 
0.0000000e+00 -2.7774490e-06 0.0000000e+00 
0.0000000e+00 -8.9522594e-08 0.0000000e+00 
0.0000000e+00 -1.4497928e-05 0.0000000e+00 
0.0000000e+00 -7.1077891e-05 0.0000000e+00 
0.0000000e+00 -1.1156890e-05 0.0000000e+00 
0.0000000e+00 -6.5293256e-07 0.0000000e+00 
0.0000000e+00 -1.0562613e-06 0.0000000e+00 
0.0000000e+00 1.8844197e-08 0.0000000e+00 
0.0000000e+00 -9.2739690e-05 0.0000000e+00 
0.0000000e+00 -2.6075770e-05 0.0000000e+00 
0.0000000e+00 -7.5368511e-09 0.0000000e+00 
0.0000000e+00 -4.7669264e-06 0.0000000e+00 
0.0000000e+00 -2.5464595e-07 0.0000000e+00 
0.0000000e+00 -1.6185835e-05 0.0000000e+00 
0.0000000e+00 -3.6023499e-05 0.0000000e+00 
0.0000000e+00 -2.1709100e-07 0.0000000e+00 
0.0000000e+00 -1.3052115e-06 0.0000000e+00 
0.0000000e+00 -1.8288478e-08 0.0000000e+00 
0.0000000e+00 -5.6399203e-05 0.0000000e+00 
0.0000000e+00 1.0662252e-08 0.0000000e+00 
0.0000000e+00 -6.7986468e-05 0.0000000e+00 
0.0000000e+00 -2.3620811e-05 0.0000000e+00 
0.0000000e+00 4.4380290e-08 0.0000000e+00 
0.0000000e+00 1.9962282e-08 0.0000000e+00 
0.0000000e+00 5.9080843e-08 0.0000000e+00 
0.0000000e+00 8.6679677e-08 0.0000000e+00 
0.0000000e+00 7.5357534e-08 0.0000000e+00 
0.0000000e+00 2.4504711e-08 0.0000000e+00 
0.0000000e+00 8.6605645e-08 0.0000000e+00 
0.0000000e+00 2.6692369e-08 0.0000000e+00 
0.0000000e+00 4.4587360e-08 0.0000000e+00 
0.0000000e+00 5.7962090e-08 0.0000000e+00 
0.0000000e+00 6.2808319e-08 0.0000000e+00 
0.0000000e+00 2.5586829e-08 0.0000000e+00 
0.0000000e+00 8.1487684e-08 0.0000000e+00 
0.0000000e+00 5.6244115e-08 0.0000000e+00 
0.0000000e+00 1.6538456e-08 0.0000000e+00 
-1.7482308e-06 -6.5285240e-06 -5.8030137e-06 
-4.0638056e-07 -6.3381884e-07 -1.4521360e-06 
-6.5165167e-08 8.4040096e-08 -2.3133181e-07 
-1.9231560e-05 -9.4089010e-05 -9.4370207e-06 
-6.3839921e-06 -4.8238060e-05 -1.0992750e-05 
-6.6993459e-07 1.1816235e-07 -6.5553934e-07 
-2.5751053e-06 -2.6969149e-06 -1.1632342e-06 
-1.0213530e-07 2.0975943e-07 -1.0148551e-07 
-8.0124464e-06 -1.1348727e-04 3.0086142e-06 
-2.5282622e-08 9.6474821e-08 -5.1428703e-08 
-7.7551595e-06 -1.1047165e-05 4.9769458e-08 
-1.5676953e-08 1.0568601e-07 -1.6674493e-08 
-1.6541956e-07 2.8915221e-07 -1.9041374e-07 
-2.5586803e-07 2.5544679e-07 -4.5239460e-07 
-8.7271971e-08 1.5563603e-07 -1.7796584e-07 
-1.5191533e-07 1.8674665e-07 -2.5805249e-07 
-3.5415925e-07 -2.9819613e-08 -6.2345003e-07 
-3.8637985e-08 1.4406065e-07 -9.0874124e-08 
-2.0246821e-07 1.1004282e-07 -5.2479407e-07 
-5.9461155e-07 -4.4035954e-08 -8.9860447e-07 
-1.2150482e-06 -7.3527241e-07 -1.3251432e-06 
-1.1189453e-06 -1.2351156e-06 -1.7735121e-06 
-2.3030234e-06 -3.0022302e-06 -3.1957773e-06 
-2.7466756e-06 -2.1719161e-06 -2.5512104e-06 
-4.1830644e-06 -7.0706087e-06 -5.0462891e-06 
-3.6509589e-06 -4.8386078e-06 -2.7145495e-06 
-7.8505363e-06 -1.5594940e-05 -6.3903594e-06 
-7.4539716e-06 -1.2302098e-05 -4.1525846e-06 
-9.5531777e-06 -2.3734192e-05 -6.3035777e-06 
-9.0029125e-06 -1.4586125e-05 -3.2064079e-06 
-1.5769687e-05 -3.4938988e-05 -3.4778861e-06 
-1.1322816e-06 -1.8394931e-06 -2.5451920e-06 
-7.2667854e-07 -8.7413582e-07 -1.6006761e-06 
-7.2726684e-06 -1.7084394e-05 -9.0905532e-06 
-2.2178688e-06 -1.6104557e-06 -1.2897485e-06 
-1.9639787e-08 1.0793703e-07 -3.4623703e-08 
-3.2033665e-06 -7.4578920e-06 -5.2687233e-06 
-1.1191624e-06 -3.1099827e-07 -1.0561813e-06 
-9.8754581e-06 -2.8836161e-05 4.7559161e-07 
-2.1856501e-08 1.4216697e-07 -8.9249568e-09 
-7.4068403e-08 9.5221019e-08 -2.1202133e-07 
-6.3098589e-08 1.0758821e-07 -1.3153787e-07 
-8.2362396e-07 -1.1956588e-06 -2.4291996e-06 
-3.3871856e-06 -3.5299620e-06 -2.8939084e-07 
-9.1356496e-06 -7.6005905e-05 -1.2247244e-05 
-8.5279116e-06 -3.6618429e-05 -9.7639822e-06 
-5.5208952e-06 -2.5242789e-05 -1.1752629e-05 
-2.9843018e-06 -1.2351314e-05 -7.4322388e-06 
-2.4829697e-07 -7.8528664e-08 -7.7802787e-07 
-1.1406296e-07 4.5339274e-08 -3.5047674e-07 
-9.4314819e-06 -7.6755474e-05 4.0783243e-07 
-1.8785637e-05 -1.0737325e-04 -1.6736259e-06 
-1.5229022e-08 8.9375959e-08 -2.2371319e-08 
-1.0429839e-05 -1.6621310e-05 -1.5693549e-07 
-1.6697742e-05 -4.8181748e-05 -9.1264719e-06 
-4.4950699e-08 8.0184229e-08 -1.2276961e-07 
-3.6074522e-07 -1.6673233e-07 -8.0699243e-07 
-2.0050318e-05 -5.7466179e-05 -2.7545747e-07 
-1.1257683e-06 -3.2417549e-06 -4.0927862e-06 
-3.2978637e-08 1.4874220e-07 -7.3567833e-08 
-7.0824391e-09 1.0227102e-07 -4.2331290e-09 
-2.9145699e-06 -4.2323218e-06 7.9812686e-08 
-2.5322047e-06 -2.2251279e-06 -2.0590060e-06 
-1.9679179e-05 -6.7321482e-05 -4.3942346e-06 
-2.5833618e-08 1.0918324e-07 -4.3025782e-08 
-5.3199835e-07 -2.8014060e-07 -9.3717665e-07 
-6.1037663e-06 -7.0436263e-06 -1.5405839e-06 
-4.6968607e-06 -5.1431139e-06 -2.4068736e-06 
-8.4776948e-06 -5.9075952e-05 -2.1914214e-07 
-1.9097567e-06 -4.7432427e-06 -4.2695792e-06 
-1.4701853e-08 9.8534862e-08 -1.7268285e-08 
-1.1430616e-05 -1.3960284e-04 -4.0156656e-06 
-1.3643093e-05 -1.5343445e-04 -2.4543440e-06 
-4.5473648e-06 -9.0246023e-05 -1.0106297e-05 
-3.8843277e-06 -6.2180014e-05 -9.1553202e-06 
-9.2538021e-06 -1.3492683e-04 7.4575968e-07 
-1.5687136e-06 -3.3192875e-05 -5.7175557e-06 
-2.7228418e-07 -1.6349895e-05 -4.2715892e-06 
-3.2181666e-07 -7.5382522e-06 -2.6813293e-06 
1.8137611e-07 -3.5910780e-06 -1.7673215e-06 
-1.0771883e-07 -1.4982910e-06 -1.2753566e-06 
-1.0123128e-07 -9.1839934e-07 -1.0090371e-06 
-8.9856030e-08 -3.7046343e-07 -6.7187193e-07 
-3.4944829e-08 -7.2949540e-08 -3.5459126e-07 
-3.3389437e-08 1.6504456e-08 -1.9056750e-07 
-2.1884160e-08 4.1898481e-08 -1.0570826e-07 
-1.2528463e-08 4.8630966e-08 -5.2654702e-08 
-1.0093774e-08 6.0719316e-08 -1.9357943e-08 
4.7259201e-07 -8.4146617e-05 5.0930648e-06 
1.0170312e-05 -4.7804653e-05 3.0411070e-06 
5.0155109e-06 -1.7457638e-05 6.7969440e-06 
5.7338332e-07 -1.8522337e-06 1.9086854e-06 
5.0364740e-08 3.0465010e-08 3.8399858e-07 
2.4476152e-09 7.3451687e-08 7.7401388e-08 
5.0638691e-06 -7.5759563e-06 2.4285764e-06 
1.6519236e-06 -1.8884760e-06 1.7016523e-06 
2.0887627e-07 -6.4274204e-08 5.9738869e-07 
8.7508818e-07 -8.9821078e-06 3.8185626e-06 
4.8394340e-06 -6.2375417e-05 7.6548804e-06 
7.6282422e-06 -8.1327766e-05 -5.6887038e-06 
5.8203053e-08 9.8332059e-08 1.4765089e-07 
7.6601700e-06 -1.8587147e-05 5.8825243e-08 
8.2622648e-08 -5.0264640e-07 4.3498864e-07 
-1.5231075e-08 6.8466193e-08 5.6796715e-08 
4.5565565e-07 -2.7009022e-05 5.0838535e-06 
9.7746420e-07 -4.9225582e-06 1.6802738e-06 
6.6418193e-06 -2.5067673e-05 3.2130486e-06 
8.6243467e-08 -2.8534218e-06 3.8322767e-07 
1.8617962e-06 -4.3122823e-06 3.7025377e-06 
8.3264640e-06 -1.0246834e-04 2.0678301e-06 
5.3837107e-07 -1.1782038e-07 6.8495387e-07 
-4.9311017e-09 7.2492981e-08 7.5197626e-09 
3.6126105e-06 -3.9006163e-06 2.8250807e-07 
1.3760240e-08 9.9859101e-08 2.7781445e-08 
4.8979900e-06 -2.5183199e-05 6.1852143e-06 
1.2873070e-06 -1.4595277e-06 1.9217866e-06 
8.4226076e-06 -1.4281641e-05 2.6540320e-06 
4.8223665e-06 -8.1072130e-06 3.8766207e-06 
1.7898767e-06 -7.6495235e-06 8.0993112e-07 
4.8946752e-08 2.0692407e-07 9.1338265e-08 
-3.8067198e-09 2.5694153e-08 1.3024436e-07 
-2.5429673e-08 -9.1081924e-09 1.2963209e-08 
4.9016030e-08 -1.0079601e-06 2.6138127e-07 
1.2078638e-08 5.2369810e-08 5.4703893e-08 
1.5171175e-08 1.3654108e-07 9.6486360e-08 
8.0619320e-06 -1.9244188e-05 4.8945407e-07 
1.4007232e-06 -1.9065278e-06 6.1620523e-07 
5.1097300e-06 -3.7494967e-05 2.5072291e-07 
4.4103142e-08 -4.5473382e-07 7.8787934e-07 
2.0145094e-06 -9.5785090e-06 4.1650474e-06 
-5.2179607e-09 9.2349417e-08 1.5547347e-08 
-9.4878336e-09 7.8756299e-09 1.5904668e-07 
5.3525667e-07 -1.6094478e-05 1.4047710e-06 
7.2261942e-06 -4.4717275e-05 -5.6862768e-07 
1.1233069e-07 -7.8108724e-07 2.6172455e-07 
2.3325849e-06 -2.2112799e-06 9.0733249e-07 
2.3146915e-08 5.6299147e-08 1.8198899e-07 
3.0415249e-06 -1.5803638e-05 4.4576629e-07 
4.6198653e-07 -2.7125918e-06 2.2078425e-06 
1.3530549e-06 -3.4358377e-06 1.0381207e-07 
6.6412589e-08 7.8259980e-08 1.1057676e-07 
-1.5361147e-08 1.1351376e-07 -4.5554638e-10 
-5.9684822e-08 -3.1513375e-07 -6.2328276e-08 
1.7610457e-08 -1.3728054e-06 8.8298975e-07 
2.8967676e-07 -3.0695901e-07 9.4850526e-07 
5.4629135e-10 3.3495745e-08 4.2749299e-08 
1.8778605e-06 -6.4541000e-06 -7.6818843e-08 
9.5506266e-08 -4.0713314e-07 2.5113351e-08 
1.0297019e-06 -7.1753578e-07 6.8159653e-07 
4.7612463e-08 1.6387025e-07 9.3518082e-08 
1.9212038e-07 1.0534829e-07 2.8381274e-07 
4.6850168e-06 -4.7089972e-05 7.0339388e-07 
-2.0437765e-08 9.3002051e-08 -3.2916031e-08 