# vtk DataFile Version 4.0
vtk output
ASCII
DATASET UNSTRUCTURED_GRID
POINTS 460 float
0.0000000e+00 0.0000000e+00 0.0000000e+00 
5.0000000e+00 0.0000000e+00 0.0000000e+00 
5.0000000e+00 3.0000000e+00 0.0000000e+00 
0.0000000e+00 3.0000000e+00 0.0000000e+00 
0.0000000e+00 0.0000000e+00 1.0000000e+01 
5.0000000e+00 0.0000000e+00 1.0000000e+01 
5.0000000e+00 3.0000000e+00 1.0000000e+01 
0.0000000e+00 3.0000000e+00 1.0000000e+01 
1.0000000e+00 3.0000000e+00 -5.0000000e+00 
1.0000000e+00 3.0000000e+00 -4.5000000e+00 
1.0000000e+00 3.0000000e+00 -4.0000000e+00 
1.0000000e+00 3.0000000e+00 -3.5000000e+00 
1.0000000e+00 3.0000000e+00 -3.0000000e+00 
1.0000000e+00 3.0000000e+00 -2.5000000e+00 
1.0000000e+00 3.0000000e+00 -2.0000000e+00 
1.0000000e+00 3.0000000e+00 -1.5000000e+00 
1.0000000e+00 3.0000000e+00 -1.0000000e+00 
1.0000000e+00 3.0000000e+00 -5.0000000e-01 
1.0000000e+00 3.0000000e+00 0.0000000e+00 
1.0000000e+00 3.0000000e+00 5.0000000e-01 
1.0000000e+00 3.0000000e+00 1.0000000e+00 
1.0000000e+00 3.0000000e+00 1.5000000e+00 
1.0000000e+00 3.0000000e+00 2.0000000e+00 
1.0000000e+00 3.0000000e+00 2.5000000e+00 
1.0000000e+00 3.0000000e+00 3.0000000e+00 
1.0000000e+00 3.0000000e+00 3.5000000e+00 
1.0000000e+00 3.0000000e+00 4.0000000e+00 
1.0000000e+00 3.0000000e+00 4.5000000e+00 
1.0000000e+00 3.0000000e+00 5.0000000e+00 
1.0000000e+00 3.0000000e+00 5.5000000e+00 
1.0000000e+00 3.0000000e+00 6.0000000e+00 
1.0000000e+00 3.0000000e+00 6.5000000e+00 
1.0000000e+00 3.0000000e+00 7.0000000e+00 
1.0000000e+00 3.0000000e+00 7.5000000e+00 
1.0000000e+00 3.0000000e+00 8.0000000e+00 
1.0000000e+00 3.0000000e+00 8.5000000e+00 
1.0000000e+00 3.0000000e+00 9.0000000e+00 
1.0000000e+00 3.0000000e+00 9.5000000e+00 
1.0000000e+00 3.0000000e+00 1.0000000e+01 
1.0000000e+00 3.0000000e+00 1.0500000e+01 
1.0000000e+00 3.0000000e+00 1.1000000e+01 
1.0000000e+00 3.0000000e+00 1.1500000e+01 
1.0000000e+00 3.0000000e+00 1.2000000e+01 
1.0000000e+00 3.0000000e+00 1.2500000e+01 
1.0000000e+00 3.0000000e+00 1.3000000e+01 
1.0000000e+00 3.0000000e+00 1.3500000e+01 
1.0000000e+00 3.0000000e+00 1.4000000e+01 
1.0000000e+00 3.0000000e+00 1.4500000e+01 
1.0000000e+00 3.0250001e+00 -5.0000000e+00 
1.0000000e+00 3.0250001e+00 -4.5000000e+00 
1.0000000e+00 3.0250001e+00 -4.0000000e+00 
1.0000000e+00 3.0250001e+00 -3.5000000e+00 
1.0000000e+00 3.0250001e+00 -3.0000000e+00 
1.0000000e+00 3.0250001e+00 -2.5000000e+00 
1.0000000e+00 3.0250001e+00 -2.0000000e+00 
1.0000000e+00 3.0250001e+00 -1.5000000e+00 
1.0000000e+00 3.0250001e+00 -1.0000000e+00 
1.0000000e+00 3.0250001e+00 -5.0000000e-01 
1.0000000e+00 3.0250001e+00 0.0000000e+00 
1.0000000e+00 3.0250001e+00 5.0000000e-01 
1.0000000e+00 3.0250001e+00 1.0000000e+00 
1.0000000e+00 3.0250001e+00 1.5000000e+00 
1.0000000e+00 3.0250001e+00 2.0000000e+00 
1.0000000e+00 3.0250001e+00 2.5000000e+00 
1.0000000e+00 3.0250001e+00 3.0000000e+00 
1.0000000e+00 3.0250001e+00 3.5000000e+00 
1.0000000e+00 3.0250001e+00 4.0000000e+00 
1.0000000e+00 3.0250001e+00 4.5000000e+00 
1.0000000e+00 3.0250001e+00 5.0000000e+00 
1.0000000e+00 3.0250001e+00 5.5000000e+00 
1.0000000e+00 3.0250001e+00 6.0000000e+00 
1.0000000e+00 3.0250001e+00 6.5000000e+00 
1.0000000e+00 3.0250001e+00 7.0000000e+00 
1.0000000e+00 3.0250001e+00 7.5000000e+00 
1.0000000e+00 3.0250001e+00 8.0000000e+00 
1.0000000e+00 3.0250001e+00 8.5000000e+00 
1.0000000e+00 3.0250001e+00 9.0000000e+00 
1.0000000e+00 3.0250001e+00 9.5000000e+00 
1.0000000e+00 3.0250001e+00 1.0000000e+01 
1.0000000e+00 3.0250001e+00 1.0500000e+01 
1.0000000e+00 3.0250001e+00 1.1000000e+01 
1.0000000e+00 3.0250001e+00 1.1500000e+01 
1.0000000e+00 3.0250001e+00 1.2000000e+01 
1.0000000e+00 3.0250001e+00 1.2500000e+01 
1.0000000e+00 3.0250001e+00 1.3000000e+01 
1.0000000e+00 3.0250001e+00 1.3500000e+01 
1.0000000e+00 3.0250001e+00 1.4000000e+01 
1.0000000e+00 3.0250001e+00 1.4500000e+01 
1.0000000e+00 -2.0000000e+00 -5.0000000e+00 
1.0000000e+00 -2.0000000e+00 -4.5000000e+00 
1.0000000e+00 -2.0000000e+00 -4.0000000e+00 
1.0000000e+00 -2.0000000e+00 -3.5000000e+00 
1.0000000e+00 -2.0000000e+00 -3.0000000e+00 
1.0000000e+00 -2.0000000e+00 -2.5000000e+00 
1.0000000e+00 -2.0000000e+00 -2.0000000e+00 
1.0000000e+00 -2.0000000e+00 -1.5000000e+00 
1.0000000e+00 -2.0000000e+00 -1.0000000e+00 
1.0000000e+00 -2.0000000e+00 -5.0000000e-01 
1.0000000e+00 -2.0000000e+00 1.0500000e+01 
1.0000000e+00 -2.0000000e+00 1.1000000e+01 
1.0000000e+00 -2.0000000e+00 1.1500000e+01 
1.0000000e+00 -2.0000000e+00 1.2000000e+01 
1.0000000e+00 -2.0000000e+00 1.2500000e+01 
1.0000000e+00 -2.0000000e+00 1.3000000e+01 
1.0000000e+00 -2.0000000e+00 1.3500000e+01 
1.0000000e+00 -2.0000000e+00 1.4000000e+01 
1.0000000e+00 -2.0000000e+00 1.4500000e+01 
1.0000000e+00 0.0000000e+00 0.0000000e+00 
2.0000000e+00 0.0000000e+00 0.0000000e+00 
3.0000000e+00 0.0000000e+00 0.0000000e+00 
4.0000000e+00 0.0000000e+00 0.0000000e+00 
5.0000000e+00 1.0000000e+00 0.0000000e+00 
5.0000000e+00 2.0000000e+00 0.0000000e+00 
0.0000000e+00 2.0000000e+00 0.0000000e+00 
0.0000000e+00 1.0000000e+00 0.0000000e+00 
0.0000000e+00 0.0000000e+00 1.0000000e+00 
0.0000000e+00 0.0000000e+00 2.0000000e+00 
0.0000000e+00 0.0000000e+00 3.0000000e+00 
0.0000000e+00 0.0000000e+00 4.0000000e+00 
0.0000000e+00 0.0000000e+00 5.0000000e+00 
0.0000000e+00 0.0000000e+00 6.0000000e+00 
0.0000000e+00 0.0000000e+00 7.0000000e+00 
0.0000000e+00 0.0000000e+00 8.0000000e+00 
0.0000000e+00 0.0000000e+00 9.0000000e+00 
5.0000000e+00 0.0000000e+00 1.0000000e+00 
5.0000000e+00 0.0000000e+00 2.0000000e+00 
5.0000000e+00 0.0000000e+00 3.0000000e+00 
5.0000000e+00 0.0000000e+00 4.0000000e+00 
5.0000000e+00 0.0000000e+00 5.0000000e+00 
5.0000000e+00 0.0000000e+00 6.0000000e+00 
5.0000000e+00 0.0000000e+00 7.0000000e+00 
5.0000000e+00 0.0000000e+00 8.0000000e+00 
5.0000000e+00 0.0000000e+00 9.0000000e+00 
1.0000000e+00 0.0000000e+00 1.0000000e+01 
2.0000000e+00 0.0000000e+00 1.0000000e+01 
3.0000000e+00 0.0000000e+00 1.0000000e+01 
4.0000000e+00 0.0000000e+00 1.0000000e+01 
5.0000000e+00 3.0000000e+00 1.0000000e+00 
5.0000000e+00 3.0000000e+00 2.0000000e+00 
5.0000000e+00 3.0000000e+00 3.0000000e+00 
5.0000000e+00 3.0000000e+00 4.0000000e+00 
5.0000000e+00 3.0000000e+00 5.0000000e+00 
5.0000000e+00 3.0000000e+00 6.0000000e+00 
5.0000000e+00 3.0000000e+00 7.0000000e+00 
5.0000000e+00 3.0000000e+00 8.0000000e+00 
5.0000000e+00 3.0000000e+00 9.0000000e+00 
5.0000000e+00 1.0000000e+00 1.0000000e+01 
5.0000000e+00 2.0000000e+00 1.0000000e+01 
0.0000000e+00 3.0000000e+00 1.0000000e+00 
0.0000000e+00 3.0000000e+00 2.0000000e+00 
0.0000000e+00 3.0000000e+00 3.0000000e+00 
0.0000000e+00 3.0000000e+00 4.0000000e+00 
0.0000000e+00 3.0000000e+00 5.0000000e+00 
0.0000000e+00 3.0000000e+00 6.0000000e+00 
0.0000000e+00 3.0000000e+00 7.0000000e+00 
0.0000000e+00 3.0000000e+00 8.0000000e+00 
0.0000000e+00 3.0000000e+00 9.0000000e+00 
0.0000000e+00 2.0000000e+00 1.0000000e+01 
0.0000000e+00 1.0000000e+00 1.0000000e+01 
4.0000000e+00 3.0000000e+00 0.0000000e+00 
3.0000000e+00 3.0000000e+00 0.0000000e+00 
2.0000000e+00 3.0000000e+00 0.0000000e+00 
4.0000000e+00 3.0000000e+00 1.0000000e+01 
3.0000000e+00 3.0000000e+00 1.0000000e+01 
2.0000000e+00 3.0000000e+00 1.0000000e+01 
4.0618000e+00 1.5000000e+00 0.0000000e+00 
1.5046000e+00 7.6549745e-01 0.0000000e+00 
2.5000000e+00 2.1339746e+00 0.0000000e+00 
1.5046000e+00 2.2345026e+00 0.0000000e+00 
2.4957771e+00 8.1560516e-01 0.0000000e+00 
3.4707544e+00 2.2336540e+00 0.0000000e+00 
3.4700506e+00 7.5794268e-01 0.0000000e+00 
8.6322361e-01 1.5000000e+00 0.0000000e+00 
2.0000000e+00 1.5000000e+00 0.0000000e+00 
2.9960666e+00 1.4974480e+00 0.0000000e+00 
4.2679491e+00 7.3205084e-01 0.0000000e+00 
4.2679491e+00 2.2679491e+00 0.0000000e+00 
7.2695929e-01 2.2730408e+00 0.0000000e+00 
7.2695929e-01 7.2695929e-01 0.0000000e+00 
4.1822505e+00 0.0000000e+00 2.5515697e+00 
4.2017918e+00 0.0000000e+00 4.4725966e+00 
4.1114569e+00 0.0000000e+00 6.5092020e+00 
8.6602539e-01 0.0000000e+00 3.5000000e+00 
8.4778279e-01 0.0000000e+00 5.4684029e+00 
8.9629614e-01 0.0000000e+00 7.5867257e+00 
2.5566745e+00 0.0000000e+00 8.1853306e-01 
2.4918270e+00 0.0000000e+00 9.1386929e+00 
8.4677207e-01 0.0000000e+00 1.5042374e+00 
4.0943027e+00 0.0000000e+00 8.4081745e+00 
8.6281651e-01 0.0000000e+00 2.5007062e+00 
1.7315160e+00 0.0000000e+00 3.0001178e+00 
1.7319617e+00 0.0000000e+00 4.0000196e+00 
2.5980761e+00 0.0000000e+00 3.5000000e+00 
2.5536871e+00 0.0000000e+00 4.4963923e+00 
2.5928419e+00 0.0000000e+00 2.4239938e+00 
1.5037409e+00 0.0000000e+00 9.1535149e+00 
1.8433737e+00 0.0000000e+00 8.1858873e+00 
3.0000000e+00 0.0000000e+00 8.2679491e+00 
2.5000000e+00 0.0000000e+00 7.4019237e+00 
3.5042722e+00 0.0000000e+00 7.4271150e+00 
3.0310018e+00 0.0000000e+00 6.5282087e+00 
2.0373929e+00 0.0000000e+00 6.5307913e+00 
3.4767809e+00 0.0000000e+00 5.8031492e+00 
2.5452602e+00 0.0000000e+00 5.5720768e+00 
1.6456656e+00 0.0000000e+00 1.9697139e+00 
8.6297011e-01 0.0000000e+00 4.4947371e+00 
1.0111579e+00 0.0000000e+00 6.5282545e+00 
3.4994321e+00 0.0000000e+00 8.4691072e-01 
4.1860156e+00 0.0000000e+00 3.5040276e+00 
1.7320508e+00 0.0000000e+00 5.0000000e+00 
4.0544066e+00 0.0000000e+00 1.5781221e+00 
1.5817389e+00 0.0000000e+00 9.3943578e-01 
8.3166349e-01 0.0000000e+00 8.5090933e+00 
3.4686174e+00 0.0000000e+00 9.1752682e+00 
3.0709300e+00 0.0000000e+00 1.5799091e+00 
3.3927374e+00 0.0000000e+00 3.0399952e+00 
3.3826034e+00 0.0000000e+00 3.9747651e+00 
4.3420062e+00 0.0000000e+00 7.4688983e+00 
3.4023225e+00 0.0000000e+00 4.9314723e+00 
1.6740381e+00 0.0000000e+00 7.3014426e+00 
4.2715640e+00 0.0000000e+00 5.4758859e+00 
1.6225953e+00 0.0000000e+00 5.8104177e+00 
4.2679491e+00 0.0000000e+00 9.2679491e+00 
7.3205084e-01 0.0000000e+00 7.3205084e-01 
4.2679491e+00 0.0000000e+00 7.3205084e-01 
7.3205084e-01 0.0000000e+00 9.2679491e+00 
3.4586334e+00 0.0000000e+00 2.2347178e+00 
2.2895701e+00 0.0000000e+00 1.5463171e+00 
5.0000000e+00 2.2345026e+00 1.5046000e+00 
[...]
POINT_DATA 460
FIELD FieldData 5
DISPLACEMENT 3 460  float
0.0000000e+00 0.0000000e+00 0.0000000e+00 
0.0000000e+00 0.0000000e+00 0.0000000e+00 
0.0000000e+00 -4.4661806e-06 0.0000000e+00 
0.0000000e+00 -1.0870204e-04 0.0000000e+00 
0.0000000e+00 0.0000000e+00 0.0000000e+00 
0.0000000e+00 0.0000000e+00 0.0000000e+00 
0.0000000e+00 -2.8436402e-09 0.0000000e+00 
0.0000000e+00 8.4657428e-09 0.0000000e+00 
0.0000000e+00 -9.4964180e-06 0.0000000e+00 
0.0000000e+00 -7.5463490e-06 0.0000000e+00 
0.0000000e+00 -3.9456158e-06 0.0000000e+00 
0.0000000e+00 -4.3484033e-06 0.0000000e+00 
0.0000000e+00 -1.7024822e-05 0.0000000e+00 
0.0000000e+00 -5.1981544e-05 0.0000000e+00 
0.0000000e+00 -1.1787895e-04 0.0000000e+00 
0.0000000e+00 -2.1562091e-04 0.0000000e+00 
0.0000000e+00 -3.2826161e-04 0.0000000e+00 
0.0000000e+00 -4.0751515e-04 0.0000000e+00 
0.0000000e+00 -3.8233606e-04 0.0000000e+00 
-1.0191809e-05 -2.6603456e-04 -3.6019185e-06 
-1.1359389e-05 -1.4527196e-04 -1.5267253e-05 
-5.1939419e-06 -6.8062924e-05 -1.7608189e-05 
-4.6553164e-06 -2.7439526e-05 -1.6688249e-05 
-2.8936533e-06 -1.0255276e-05 -1.0464049e-05 
-1.3279661e-06 -4.0937912e-06 -6.3624561e-06 
-1.1000432e-06 -1.9447612e-06 -4.1449771e-06 
-5.2139637e-07 -1.1069587e-06 -2.4563865e-06 
-2.4948983e-07 -6.8669794e-07 -1.3875922e-06 
-5.6116971e-08 -2.7576110e-07 -7.1739896e-07 
-9.4456043e-10 -2.7048882e-08 -4.0383037e-07 
4.0920605e-09 7.6558457e-08 -2.4882135e-07 
1.9047787e-08 1.4079875e-07 -1.3089333e-07 
1.6219595e-08 1.8303898e-07 -6.8643921e-08 
1.7270908e-08 1.5943617e-07 -3.2118013e-08 
1.4247417e-08 1.3261170e-07 -1.4427399e-08 
9.0856567e-09 6.9624498e-08 -1.1264384e-08 
1.0964514e-08 4.8623079e-08 -1.1717320e-08 
4.1704804e-09 4.2962789e-08 1.6109063e-08 
0.0000000e+00 1.4087094e-07 0.0000000e+00 
0.0000000e+00 3.2259067e-07 0.0000000e+00 
0.0000000e+00 3.7739869e-07 0.0000000e+00 
0.0000000e+00 3.5434388e-07 0.0000000e+00 
0.0000000e+00 2.6695966e-07 0.0000000e+00 
0.0000000e+00 1.6122419e-07 0.0000000e+00 
0.0000000e+00 1.0602748e-07 0.0000000e+00 
0.0000000e+00 2.0277041e-07 0.0000000e+00 
0.0000000e+00 1.8593977e-07 0.0000000e+00 
0.0000000e+00 1.6230300e-07 0.0000000e+00 
0.0000000e+00 -9.4258439e-06 0.0000000e+00 
0.0000000e+00 -7.4712880e-06 0.0000000e+00 
0.0000000e+00 -3.8664693e-06 0.0000000e+00 
0.0000000e+00 -4.2872048e-06 0.0000000e+00 
0.0000000e+00 -1.7035321e-05 0.0000000e+00 
0.0000000e+00 -5.2155148e-05 0.0000000e+00 
0.0000000e+00 -1.1833863e-04 0.0000000e+00 
0.0000000e+00 -2.1648934e-04 0.0000000e+00 
0.0000000e+00 -3.2959093e-04 0.0000000e+00 
0.0000000e+00 -4.0916089e-04 0.0000000e+00 
0.0000000e+00 -3.8672317e-04 0.0000000e+00 
0.0000000e+00 -2.6911640e-04 0.0000000e+00 
0.0000000e+00 -1.4732692e-04 0.0000000e+00 
0.0000000e+00 -6.8251727e-05 0.0000000e+00 
0.0000000e+00 -2.7337281e-05 0.0000000e+00 
0.0000000e+00 -1.0083840e-05 0.0000000e+00 
0.0000000e+00 -3.9899660e-06 0.0000000e+00 
0.0000000e+00 -1.8951583e-06 0.0000000e+00 
0.0000000e+00 -1.0781969e-06 0.0000000e+00 
0.0000000e+00 -6.8326807e-07 0.0000000e+00 
0.0000000e+00 -2.7447774e-07 0.0000000e+00 
0.0000000e+00 -2.5820706e-08 0.0000000e+00 
0.0000000e+00 7.6503632e-08 0.0000000e+00 
0.0000000e+00 1.4136225e-07 0.0000000e+00 
0.0000000e+00 1.8453748e-07 0.0000000e+00 
0.0000000e+00 1.6020360e-07 0.0000000e+00 
0.0000000e+00 1.3353961e-07 0.0000000e+00 
0.0000000e+00 7.0015837e-08 0.0000000e+00 
0.0000000e+00 5.0157645e-08 0.0000000e+00 
0.0000000e+00 4.3626223e-08 0.0000000e+00 
0.0000000e+00 1.4411415e-07 0.0000000e+00 
0.0000000e+00 3.2383454e-07 0.0000000e+00 
0.0000000e+00 3.7879778e-07 0.0000000e+00 
0.0000000e+00 3.5558901e-07 0.0000000e+00 
0.0000000e+00 2.6778949e-07 0.0000000e+00 
0.0000000e+00 1.6154334e-07 0.0000000e+00 
0.0000000e+00 1.0603277e-07 0.0000000e+00 
0.0000000e+00 2.0311029e-07 0.0000000e+00 
0.0000000e+00 1.8618310e-07 0.0000000e+00 
0.0000000e+00 1.6244000e-07 0.0000000e+00 
0.0000000e+00 0.0000000e+00 0.0000000e+00 
0.0000000e+00 0.0000000e+00 0.0000000e+00 
0.0000000e+00 0.0000000e+00 0.0000000e+00 
0.0000000e+00 0.0000000e+00 0.0000000e+00 
0.0000000e+00 0.0000000e+00 0.0000000e+00 
0.0000000e+00 0.0000000e+00 0.0000000e+00 
0.0000000e+00 0.0000000e+00 0.0000000e+00 
0.0000000e+00 0.0000000e+00 0.0000000e+00 
0.0000000e+00 0.0000000e+00 0.0000000e+00 
0.0000000e+00 0.0000000e+00 0.0000000e+00 
0.0000000e+00 0.0000000e+00 0.0000000e+00 
0.0000000e+00 0.0000000e+00 0.0000000e+00 
0.0000000e+00 0.0000000e+00 0.0000000e+00 
0.0000000e+00 0.0000000e+00 0.0000000e+00 
0.0000000e+00 0.0000000e+00 0.0000000e+00 
0.0000000e+00 0.0000000e+00 0.0000000e+00 
0.0000000e+00 0.0000000e+00 0.0000000e+00 
0.0000000e+00 0.0000000e+00 0.0000000e+00 
0.0000000e+00 0.0000000e+00 0.0000000e+00 
0.0000000e+00 0.0000000e+00 0.0000000e+00 
0.0000000e+00 0.0000000e+00 0.0000000e+00 
0.0000000e+00 0.0000000e+00 0.0000000e+00 
0.0000000e+00 0.0000000e+00 0.0000000e+00 
0.0000000e+00 -2.2767260e-06 0.0000000e+00 
0.0000000e+00 -4.1168410e-06 0.0000000e+00 
0.0000000e+00 -9.4228104e-05 0.0000000e+00 
0.0000000e+00 -4.6423993e-05 0.0000000e+00 
0.0000000e+00 0.0000000e+00 0.0000000e+00 
0.0000000e+00 0.0000000e+00 0.0000000e+00 
0.0000000e+00 0.0000000e+00 0.0000000e+00 
0.0000000e+00 0.0000000e+00 0.0000000e+00 
0.0000000e+00 0.0000000e+00 0.0000000e+00 
0.0000000e+00 0.0000000e+00 0.0000000e+00 
0.0000000e+00 0.0000000e+00 0.0000000e+00 
0.0000000e+00 0.0000000e+00 0.0000000e+00 
0.0000000e+00 0.0000000e+00 0.0000000e+00 
0.0000000e+00 0.0000000e+00 0.0000000e+00 
0.0000000e+00 0.0000000e+00 0.0000000e+00 
0.0000000e+00 0.0000000e+00 0.0000000e+00 
0.0000000e+00 0.0000000e+00 0.0000000e+00 
0.0000000e+00 0.0000000e+00 0.0000000e+00 
0.0000000e+00 0.0000000e+00 0.0000000e+00 
0.0000000e+00 0.0000000e+00 0.0000000e+00 
0.0000000e+00 0.0000000e+00 0.0000000e+00 
0.0000000e+00 0.0000000e+00 0.0000000e+00 
0.0000000e+00 0.0000000e+00 0.0000000e+00 
0.0000000e+00 0.0000000e+00 0.0000000e+00 
0.0000000e+00 0.0000000e+00 0.0000000e+00 
0.0000000e+00 0.0000000e+00 0.0000000e+00 
0.0000000e+00 -3.4512348e-06 0.0000000e+00 
0.0000000e+00 -1.1900776e-06 0.0000000e+00 
0.0000000e+00 -7.3985319e-07 0.0000000e+00 
0.0000000e+00 1.6008907e-07 0.0000000e+00 
0.0000000e+00 1.8535036e-07 0.0000000e+00 
0.0000000e+00 1.8277980e-07 0.0000000e+00 
0.0000000e+00 7.8002245e-08 0.0000000e+00 
0.0000000e+00 3.1920411e-08 0.0000000e+00 
0.0000000e+00 4.8582538e-09 0.0000000e+00 
0.0000000e+00 -1.3402242e-09 0.0000000e+00 
0.0000000e+00 -3.0951506e-09 0.0000000e+00 
0.0000000e+00 -8.7451546e-05 0.0000000e+00 
0.0000000e+00 -3.1375650e-05 0.0000000e+00 
0.0000000e+00 -9.1580132e-06 0.0000000e+00 
0.0000000e+00 -2.3586947e-06 0.0000000e+00 
0.0000000e+00 -5.4101361e-07 0.0000000e+00 
0.0000000e+00 -9.0061142e-10 0.0000000e+00 
0.0000000e+00 1.1233235e-07 0.0000000e+00 
0.0000000e+00 7.3136150e-08 0.0000000e+00 
0.0000000e+00 1.6983156e-08 0.0000000e+00 
0.0000000e+00 1.4374090e-08 0.0000000e+00 
0.0000000e+00 7.3853443e-09 0.0000000e+00 
0.0000000e+00 -8.3214827e-06 0.0000000e+00 
0.0000000e+00 -2.1797638e-05 0.0000000e+00 
0.0000000e+00 -5.4258588e-05 0.0000000e+00 
0.0000000e+00 -1.2011512e-09 0.0000000e+00 
0.0000000e+00 1.4348209e-09 0.0000000e+00 
0.0000000e+00 -4.0402875e-10 0.0000000e+00 
0.0000000e+00 -5.4692186e-06 0.0000000e+00 
0.0000000e+00 -2.7443837e-05 0.0000000e+00 
0.0000000e+00 -3.4690063e-05 0.0000000e+00 
0.0000000e+00 -1.0496847e-04 0.0000000e+00 
0.0000000e+00 -1.6831011e-05 0.0000000e+00 
0.0000000e+00 -1.3721216e-05 0.0000000e+00 
0.0000000e+00 -4.6362361e-06 0.0000000e+00 
0.0000000e+00 -8.0490005e-05 0.0000000e+00 
0.0000000e+00 -4.5422712e-05 0.0000000e+00 
0.0000000e+00 -1.7259988e-05 0.0000000e+00 
0.0000000e+00 -2.7559236e-06 0.0000000e+00 
0.0000000e+00 -6.3546613e-06 0.0000000e+00 
0.0000000e+00 -1.5655441e-04 0.0000000e+00 
0.0000000e+00 -3.6706351e-05 0.0000000e+00 
0.0000000e+00 0.0000000e+00 0.0000000e+00 
0.0000000e+00 0.0000000e+00 0.0000000e+00 
0.0000000e+00 0.0000000e+00 0.0000000e+00 
0.0000000e+00 0.0000000e+00 0.0000000e+00 
0.0000000e+00 0.0000000e+00 0.0000000e+00 
0.0000000e+00 0.0000000e+00 0.0000000e+00 
0.0000000e+00 0.0000000e+00 0.0000000e+00 
0.0000000e+00 0.0000000e+00 0.0000000e+00 
0.0000000e+00 0.0000000e+00 0.0000000e+00 
0.0000000e+00 0.0000000e+00 0.0000000e+00 
0.0000000e+00 0.0000000e+00 0.0000000e+00 
0.0000000e+00 0.0000000e+00 0.0000000e+00 
0.0000000e+00 0.0000000e+00 0.0000000e+00 
0.0000000e+00 0.0000000e+00 0.0000000e+00 
0.0000000e+00 0.0000000e+00 0.0000000e+00 
0.0000000e+00 0.0000000e+00 0.0000000e+00 
0.0000000e+00 0.0000000e+00 0.0000000e+00 
0.0000000e+00 0.0000000e+00 0.0000000e+00 
0.0000000e+00 0.0000000e+00 0.0000000e+00 
0.0000000e+00 0.0000000e+00 0.0000000e+00 
0.0000000e+00 0.0000000e+00 0.0000000e+00 
0.0000000e+00 0.0000000e+00 0.0000000e+00 
0.0000000e+00 0.0000000e+00 0.0000000e+00 
0.0000000e+00 0.0000000e+00 0.0000000e+00 
0.0000000e+00 0.0000000e+00 0.0000000e+00 
0.0000000e+00 0.0000000e+00 0.0000000e+00 
0.0000000e+00 0.0000000e+00 0.0000000e+00 
0.0000000e+00 0.0000000e+00 0.0000000e+00 
0.0000000e+00 0.0000000e+00 0.0000000e+00 
0.0000000e+00 0.0000000e+00 0.0000000e+00 
0.0000000e+00 0.0000000e+00 0.0000000e+00 
0.0000000e+00 0.0000000e+00 0.0000000e+00 
0.0000000e+00 0.0000000e+00 0.0000000e+00 
0.0000000e+00 0.0000000e+00 0.0000000e+00 
0.0000000e+00 0.0000000e+00 0.0000000e+00 
0.0000000e+00 0.0000000e+00 0.0000000e+00 
0.0000000e+00 0.0000000e+00 0.0000000e+00 
0.0000000e+00 0.0000000e+00 0.0000000e+00 
0.0000000e+00 0.0000000e+00 0.0000000e+00 
0.0000000e+00 0.0000000e+00 0.0000000e+00 
0.0000000e+00 0.0000000e+00 0.0000000e+00 
0.0000000e+00 0.0000000e+00 0.0000000e+00 
0.0000000e+00 0.0000000e+00 0.0000000e+00 
0.0000000e+00 0.0000000e+00 0.0000000e+00 
0.0000000e+00 0.0000000e+00 0.0000000e+00 
0.0000000e+00 0.0000000e+00 0.0000000e+00 
0.0000000e+00 0.0000000e+00 0.0000000e+00 
0.0000000e+00 0.0000000e+00 0.0000000e+00 
0.0000000e+00 0.0000000e+00 0.0000000e+00 
0.0000000e+00 -1.4783755e-06 0.0000000e+00 
0.0000000e+00 1.9260633e-09 0.0000000e+00 
0.0000000e+00 1.0008789e-07 0.0000000e+00 
0.0000000e+00 2.3163643e-07 0.0000000e+00 
0.0000000e+00 4.7955542e-08 0.0000000e+00 
0.0000000e+00 -7.3176381e-07 0.0000000e+00 
0.0000000e+00 3.7974441e-08 0.0000000e+00 
0.0000000e+00 4.9076583e-08 0.0000000e+00 
0.0000000e+00 -1.2855406e-07 0.0000000e+00 
0.0000000e+00 7.8579689e-08 0.0000000e+00 
0.0000000e+00 -8.5087561e-07 0.0000000e+00 
0.0000000e+00 2.1354708e-07 0.0000000e+00 
0.0000000e+00 1.1082029e-07 0.0000000e+00 
0.0000000e+00 2.3538721e-08 0.0000000e+00 
0.0000000e+00 -1.3879514e-06 0.0000000e+00 
0.0000000e+00 6.2254499e-09 0.0000000e+00 
0.0000000e+00 1.3836623e-08 0.0000000e+00 
0.0000000e+00 -2.2243275e-06 0.0000000e+00 
0.0000000e+00 2.0388639e-07 0.0000000e+00 
0.0000000e+00 6.2119398e-08 0.0000000e+00 
0.0000000e+00 -1.2166233e-06 0.0000000e+00 
0.0000000e+00 1.2654121e-07 0.0000000e+00 
0.0000000e+00 9.7746742e-08 0.0000000e+00 
0.0000000e+00 -3.5277674e-07 0.0000000e+00 
0.0000000e+00 2.2507582e-08 0.0000000e+00 
0.0000000e+00 -1.4454968e-09 0.0000000e+00 
0.0000000e+00 -8.3776680e-10 0.0000000e+00 
0.0000000e+00 -2.8885170e-06 0.0000000e+00 
0.0000000e+00 -1.2517179e-06 0.0000000e+00 
0.0000000e+00 1.5372013e-08 0.0000000e+00 
0.0000000e+00 -5.4270837e-05 0.0000000e+00 
0.0000000e+00 -8.8451588e-06 0.0000000e+00 
0.0000000e+00 -5.0227953e-07 0.0000000e+00 
0.0000000e+00 2.3566091e-08 0.0000000e+00 
0.0000000e+00 -4.3314626e-06 0.0000000e+00 
0.0000000e+00 -1.4835548e-07 0.0000000e+00 
0.0000000e+00 9.3479741e-08 0.0000000e+00 
0.0000000e+00 -2.5864665e-06 0.0000000e+00 
0.0000000e+00 -1.6421202e-05 0.0000000e+00 
0.0000000e+00 -1.1042158e-06 0.0000000e+00 
0.0000000e+00 7.5749128e-08 0.0000000e+00 
0.0000000e+00 -3.5075225e-09 0.0000000e+00 
0.0000000e+00 4.0856438e-08 0.0000000e+00 
0.0000000e+00 -4.8822363e-05 0.0000000e+00 
0.0000000e+00 -1.7048898e-05 0.0000000e+00 
0.0000000e+00 1.5775976e-08 0.0000000e+00 
0.0000000e+00 -3.6350630e-07 0.0000000e+00 
0.0000000e+00 2.2522180e-08 0.0000000e+00 
0.0000000e+00 -2.0606087e-06 0.0000000e+00 
0.0000000e+00 -7.3136753e-06 0.0000000e+00 
0.0000000e+00 6.3463972e-08 0.0000000e+00 
0.0000000e+00 -7.4904037e-08 0.0000000e+00 
0.0000000e+00 4.7391836e-08 0.0000000e+00 
0.0000000e+00 -2.2866281e-05 0.0000000e+00 
0.0000000e+00 6.9750139e-09 0.0000000e+00 
0.0000000e+00 -9.2274437e-05 0.0000000e+00 
0.0000000e+00 -2.5854617e-05 0.0000000e+00 
0.0000000e+00 1.4573682e-08 0.0000000e+00 
0.0000000e+00 4.5841948e-09 0.0000000e+00 
0.0000000e+00 -9.1803742e-10 0.0000000e+00 
0.0000000e+00 1.9873532e-09 0.0000000e+00 
0.0000000e+00 1.8400099e-08 0.0000000e+00 
0.0000000e+00 2.7179681e-09 0.0000000e+00 
0.0000000e+00 -1.3796614e-09 0.0000000e+00 
0.0000000e+00 -8.4469387e-10 0.0000000e+00 
0.0000000e+00 1.5487487e-08 0.0000000e+00 
0.0000000e+00 7.2659465e-09 0.0000000e+00 
0.0000000e+00 -3.3799311e-10 0.0000000e+00 
0.0000000e+00 -2.1323097e-09 0.0000000e+00 
0.0000000e+00 -3.9254169e-09 0.0000000e+00 
0.0000000e+00 2.8007406e-08 0.0000000e+00 
0.0000000e+00 4.1428061e-09 0.0000000e+00 
-2.4062760e-07 -3.2338164e-07 -1.3373430e-06 
-1.3093468e-08 8.6076909e-08 -2.4377024e-07 
1.8061645e-08 9.1723784e-08 -2.3682652e-08 
-4.9261766e-06 -2.0294010e-05 -1.1725906e-05 
-1.8719716e-06 -3.5446967e-06 -5.4006191e-06 
-1.2374117e-07 1.7867701e-07 -1.9859066e-07 
-1.2202138e-06 -1.1840830e-06 -1.2790458e-06 
-1.0763564e-08 6.1957266e-08 -7.6566966e-09 
-8.1673124e-06 -7.1694267e-05 -1.5941823e-05 
1.0195278e-08 6.0115988e-09 -6.2837286e-09 
-6.7731926e-06 -1.1240871e-05 -3.2481753e-06 
2.3973081e-09 3.8704178e-09 3.3756391e-09 
-2.1872408e-08 1.3742742e-07 -2.6246038e-08 
-2.8943896e-08 1.1083177e-07 -6.7189582e-08 
-9.7905539e-10 4.6287894e-08 -1.4811272e-08 
-7.3266713e-09 8.3521883e-08 -3.3252146e-08 
-3.6041527e-08 1.1147231e-07 -1.0459885e-07 
9.9563584e-09 2.8613263e-08 -3.8280530e-09 
7.4488737e-10 1.1285307e-07 -6.8368124e-08 
-9.1589996e-08 1.6352161e-07 -1.8142109e-07 
-2.4363396e-07 1.8139414e-07 -3.8963367e-07 
-1.9466160e-07 9.6708881e-08 -4.3924169e-07 
-4.0591829e-07 9.1965880e-08 -9.6516032e-07 
-6.0502128e-07 1.8224084e-07 -1.0471960e-06 
-9.3136987e-07 -4.9079682e-07 -2.1719077e-06 
-1.0732997e-06 -7.2369323e-07 -1.6095393e-06 
-2.0612392e-06 -2.3782300e-06 -3.9029624e-06 
-2.4496198e-06 -3.1068369e-06 -3.5570588e-06 
-3.0181684e-06 -6.5118984e-06 -5.3019794e-06 
-4.0400696e-06 -6.5591098e-06 -4.6125770e-06 
-7.6556753e-06 -1.6281449e-05 -7.7066252e-06 
-1.4113577e-07 9.4380802e-08 -5.5549850e-07 
-7.4176725e-08 1.0079942e-07 -2.8516607e-07 
-1.3422600e-06 -1.8392691e-06 -3.3313931e-06 
-7.2357329e-07 -2.8058525e-07 -9.9069916e-07 
3.4809782e-09 5.0273581e-09 1.2841919e-09 
-5.0878009e-07 -3.4950185e-07 -1.6283238e-06 
-2.6201766e-07 2.5734096e-07 -4.1453924e-07 
-8.9759351e-06 -3.0606869e-05 -5.8014161e-06 
3.5957883e-09 1.6892102e-08 4.9641384e-09 
1.8348793e-08 6.0802989e-08 -1.4045188e-08 
1.9044892e-08 3.1801459e-08 -4.3740531e-09 
-5.9908956e-08 7.1175762e-08 -4.4399184e-07 
-2.3421271e-06 -3.0031770e-06 -1.3589938e-06 
-2.9351031e-06 -8.3801442e-06 -8.5947968e-06 
-2.6302296e-06 -4.6187388e-06 -5.7480343e-06 
-1.0777061e-06 -1.9541671e-06 -3.6267911e-06 
-5.1712584e-07 -7.6405553e-07 -1.9529550e-06 
6.4335235e-09 1.3295467e-07 -1.1692203e-07 
2.1972250e-08 1.0315517e-07 -4.0422332e-08 
-1.3606430e-05 -1.2947190e-04 -8.6160308e-06 
-8.4967742e-06 -4.1966716e-05 -1.6050355e-05 
2.3402555e-09 -1.0322486e-08 3.6477948e-10 
-6.9125936e-06 -1.2749076e-05 -5.5889013e-06 
-4.0147161e-06 -1.2503917e-05 -8.7050512e-06 
1.9686309e-08 4.6132786e-08 -1.3672245e-08 
-1.8193093e-08 1.2573591e-07 -1.2783173e-07 
-1.1336902e-05 -3.5931742e-05 -1.4150775e-05 
-1.2317663e-07 -1.3795825e-07 -8.3968121e-07 
6.0753322e-09 1.7184911e-08 5.5650498e-11 
3.2824692e-09 6.3249139e-10 1.9700817e-09 
-2.4883113e-06 -4.8828247e-06 -9.4455714e-07 
-6.4533214e-07 -1.8096688e-07 -1.0600650e-06 
-7.7033183e-06 -2.4590267e-05 -1.2902407e-05 
8.9385015e-09 6.5912293e-09 1.0082394e-09 
-5.2918676e-08 1.4732899e-07 -1.8264798e-07 
-3.7911425e-06 -4.2533829e-06 -3.0849192e-06 
-1.8423073e-06 -1.4464950e-06 -2.2902334e-06 
-9.1332804e-06 -6.4342690e-05 -1.2880654e-05 
-2.7035622e-07 -1.9299831e-07 -1.0478508e-06 
4.2201416e-09 -3.5424301e-09 -1.6756239e-09 
-1.3565776e-06 -2.4949761e-05 -9.8342998e-06 
-3.3162892e-06 -4.8727092e-05 -1.4101543e-05 
-5.4566203e-07 -1.2974738e-05 -7.4054647e-06 
-4.6494949e-07 -5.5400410e-06 -4.7909884e-06 
-6.3757307e-06 -9.2201073e-05 -1.1893352e-05 
-5.2387503e-07 -3.0100375e-06 -2.2873355e-06 
-2.7249783e-08 -1.3461524e-06 -1.0891548e-06 
-4.9212641e-08 -5.6954383e-07 -5.8946978e-07 
4.9055632e-08 -2.3038092e-07 -3.1644453e-07 
2.9696315e-08 4.4652526e-09 -1.9873397e-07 
3.5320937e-08 6.8488340e-08 -1.4924852e-07 
3.4211372e-08 1.3275219e-07 -9.0675734e-08 
2.8379899e-08 1.4982817e-07 -4.3863370e-08 
2.2226752e-08 1.1060159e-07 -2.2008527e-08 
1.3762603e-08 6.8493371e-08 -6.9752173e-09 
6.4423564e-09 2.1965169e-08 -2.6704058e-10 
5.5063691e-09 3.9478407e-09 1.1156226e-09 
-1.8756141e-06 -1.4416064e-04 -9.3101144e-06 
3.9934330e-06 -1.8940533e-05 9.1332849e-06 
8.1622647e-07 -2.7041121e-06 2.7636581e-06 
3.6189110e-08 -1.1975736e-08 3.4417593e-07 
-3.1884471e-09 7.5378161e-08 4.0788617e-08 
-6.0589866e-09 1.9964398e-08 -5.2126170e-09 
1.8627489e-06 -2.5485260e-06 2.4155934e-06 
2.9595100e-07 -5.7124534e-08 6.7779979e-07 
1.3223239e-08 1.1951327e-07 7.0193870e-08 
-3.8036116e-08 -5.1842477e-07 4.4910814e-07 
1.7223010e-07 -9.1948204e-06 2.6077334e-06 
4.8457346e-06 -6.2889805e-05 1.3194354e-05 
-1.8024080e-09 3.6428510e-08 -1.1244259e-09 
4.2173460e-06 -1.2486506e-05 3.2899902e-06 
-1.1393837e-09 1.0067711e-07 4.1455131e-08 
-1.0388562e-09 7.8333791e-08 -1.0933482e-08 
-2.0502179e-07 -2.5666111e-06 2.2888679e-07 
-2.8896048e-08 -1.0312375e-07 2.7779060e-07 
1.2929953e-06 -6.2086729e-06 2.4194255e-06 
-1.6086382e-08 -5.1742933e-08 -3.4593739e-08 
2.5490033e-07 -4.7187899e-07 1.0724247e-06 
1.0852692e-06 -2.6742051e-05 3.8770072e-06 
8.7516128e-08 1.6945565e-07 1.5856983e-07 
-1.4311248e-09 1.6706156e-08 -1.2393479e-08 
1.9252850e-06 -2.9692058e-06 1.1793267e-06 
-1.2895023e-09 8.8273397e-09 -2.4944660e-09 
1.0885276e-06 -5.5068367e-06 4.6025466e-06 
1.7534410e-07 -2.2158055e-08 4.8041903e-07 
3.5286878e-06 -6.6971447e-06 4.5483421e-06 
1.2615775e-06 -1.8673323e-06 2.3206344e-06 
3.0043054e-07 -1.2278194e-06 6.0988390e-07 
1.0886954e-09 8.6357083e-08 -4.8590940e-09 
-9.6997281e-09 1.1006708e-07 -8.5161771e-09 
-1.7640844e-09 1.1592427e-07 -1.6134674e-08 
-3.0275295e-08 1.5532308e-07 -5.0648936e-08 
-4.9098543e-09 6.7856241e-09 -3.3492291e-09 
-5.0490381e-09 4.8753968e-08 -5.4160894e-09 
5.1459806e-06 -1.5250486e-05 5.1996117e-06 
4.0300054e-07 -3.7306441e-07 4.0385055e-07 
3.8859221e-06 -2.7375105e-05 8.7283743e-06 
-1.2049391e-08 1.9103437e-08 1.2900254e-07 
1.2495106e-07 -1.0220404e-06 1.5250832e-06 
-1.6332933e-09 7.1779365e-09 -5.4269980e-09 
-9.3968548e-09 3.2622765e-08 6.9415527e-09 
-2.9926545e-07 -1.1364615e-06 -4.0148029e-07 
4.0202012e-06 -2.7143755e-05 4.9555565e-06 
-4.6897267e-08 2.4373409e-07 -4.0346006e-08 
8.0225010e-07 -7.8859136e-07 8.2339864e-07 
-5.0203917e-09 2.3148081e-08 9.8295878e-09 
9.9081626e-07 -7.3637507e-06 9.4846405e-07 
3.7087240e-08 -2.1862016e-07 5.3059324e-07 
4.4696895e-07 -1.8667009e-06 1.8599590e-07 
6.3370802e-09 2.8528902e-08 3.5604779e-09 
3.8216402e-10 2.5986603e-08 -1.2155370e-08 
-5.0038738e-09 1.4000642e-07 -5.3686350e-08 
-7.3566486e-09 -6.0362830e-09 1.2716750e-07 
1.5635761e-08 4.7275247e-08 1.5648190e-07 
-3.6341110e-09 7.1485169e-09 -2.2847619e-09 
1.1660566e-06 -6.1535952e-06 4.0708235e-07 
1.0378199e-08 2.4220662e-07 -5.4594768e-08 
2.5321975e-07 -6.7063958e-08 3.5298643e-07 
-2.0942020e-08 1.9874885e-07 -1.2890069e-08 
3.3616608e-08 7.0726742e-08 3.4358454e-08 
2.2633948e-07 -1.5291485e-05 1.1552677e-06 
5.1595364e-09 5.8036665e-08 -1.8679213e-08 