# vtk DataFile Version 4.0
vtk output
ASCII
DATASET UNSTRUCTURED_GRID
POINTS 460 float
0.0000000e+00 0.0000000e+00 0.0000000e+00 
5.0000000e+00 0.0000000e+00 0.0000000e+00 
5.0000000e+00 3.0000000e+00 0.0000000e+00 
0.0000000e+00 3.0000000e+00 0.0000000e+00 
0.0000000e+00 0.0000000e+00 1.0000000e+01 
5.0000000e+00 0.0000000e+00 1.0000000e+01 
5.0000000e+00 3.0000000e+00 1.0000000e+01 
0.0000000e+00 3.0000000e+00 1.0000000e+01 
1.0000000e+00 3.0000000e+00 -5.0000000e+00 
1.0000000e+00 3.0000000e+00 -4.5000000e+00 
1.0000000e+00 3.0000000e+00 -4.0000000e+00 
1.0000000e+00 3.0000000e+00 -3.5000000e+00 
1.0000000e+00 3.0000000e+00 -3.0000000e+00 
1.0000000e+00 3.0000000e+00 -2.5000000e+00 
1.0000000e+00 3.0000000e+00 -2.0000000e+00 
1.0000000e+00 3.0000000e+00 -1.5000000e+00 
1.0000000e+00 3.0000000e+00 -1.0000000e+00 
1.0000000e+00 3.0000000e+00 -5.0000000e-01 
1.0000000e+00 3.0000000e+00 0.0000000e+00 
1.0000000e+00 3.0000000e+00 5.0000000e-01 
1.0000000e+00 3.0000000e+00 1.0000000e+00 
1.0000000e+00 3.0000000e+00 1.5000000e+00 
1.0000000e+00 3.0000000e+00 2.0000000e+00 
1.0000000e+00 3.0000000e+00 2.5000000e+00 
1.0000000e+00 3.0000000e+00 3.0000000e+00 
1.0000000e+00 3.0000000e+00 3.5000000e+00 
1.0000000e+00 3.0000000e+00 4.0000000e+00 
1.0000000e+00 3.0000000e+00 4.5000000e+00 
1.0000000e+00 3.0000000e+00 5.0000000e+00 
1.0000000e+00 3.0000000e+00 5.5000000e+00 
1.0000000e+00 3.0000000e+00 6.0000000e+00 
1.0000000e+00 3.0000000e+00 6.5000000e+00 
1.0000000e+00 3.0000000e+00 7.0000000e+00 
1.0000000e+00 3.0000000e+00 7.5000000e+00 
1.0000000e+00 3.0000000e+00 8.0000000e+00 
1.0000000e+00 3.0000000e+00 8.5000000e+00 
1.0000000e+00 3.0000000e+00 9.0000000e+00 
1.0000000e+00 3.0000000e+00 9.5000000e+00 
1.0000000e+00 3.0000000e+00 1.0000000e+01 
1.0000000e+00 3.0000000e+00 1.0500000e+01 
1.0000000e+00 3.0000000e+00 1.1000000e+01 
1.0000000e+00 3.0000000e+00 1.1500000e+01 
1.0000000e+00 3.0000000e+00 1.2000000e+01 
1.0000000e+00 3.0000000e+00 1.2500000e+01 
1.0000000e+00 3.0000000e+00 1.3000000e+01 
1.0000000e+00 3.0000000e+00 1.3500000e+01 
1.0000000e+00 3.0000000e+00 1.4000000e+01 
1.0000000e+00 3.0000000e+00 1.4500000e+01 
1.0000000e+00 3.0250001e+00 -5.0000000e+00 
1.0000000e+00 3.0250001e+00 -4.5000000e+00 
1.0000000e+00 3.0250001e+00 -4.0000000e+00 
1.0000000e+00 3.0250001e+00 -3.5000000e+00 
1.0000000e+00 3.0250001e+00 -3.0000000e+00 
1.0000000e+00 3.0250001e+00 -2.5000000e+00 
1.0000000e+00 3.0250001e+00 -2.0000000e+00 
1.0000000e+00 3.0250001e+00 -1.5000000e+00 
1.0000000e+00 3.0250001e+00 -1.0000000e+00 
1.0000000e+00 3.0250001e+00 -5.0000000e-01 
1.0000000e+00 3.0250001e+00 0.0000000e+00 
1.0000000e+00 3.0250001e+00 5.0000000e-01 
1.0000000e+00 3.0250001e+00 1.0000000e+00 
1.0000000e+00 3.0250001e+00 1.5000000e+00 
1.0000000e+00 3.0250001e+00 2.0000000e+00 
1.0000000e+00 3.0250001e+00 2.5000000e+00 
1.0000000e+00 3.0250001e+00 3.0000000e+00 
1.0000000e+00 3.0250001e+00 3.5000000e+00 
1.0000000e+00 3.0250001e+00 4.0000000e+00 
1.0000000e+00 3.0250001e+00 4.5000000e+00 
1.0000000e+00 3.0250001e+00 5.0000000e+00 
1.0000000e+00 3.0250001e+00 5.5000000e+00 
1.0000000e+00 3.0250001e+00 6.0000000e+00 
1.0000000e+00 3.0250001e+00 6.5000000e+00 
1.0000000e+00 3.0250001e+00 7.0000000e+00 
1.0000000e+00 3.0250001e+00 7.5000000e+00 
1.0000000e+00 3.0250001e+00 8.0000000e+00 
1.0000000e+00 3.0250001e+00 8.5000000e+00 
1.0000000e+00 3.0250001e+00 9.0000000e+00 
1.0000000e+00 3.0250001e+00 9.5000000e+00 
1.0000000e+00 3.0250001e+00 1.0000000e+01 
1.0000000e+00 3.0250001e+00 1.0500000e+01 
1.0000000e+00 3.0250001e+00 1.1000000e+01 
1.0000000e+00 3.0250001e+00 1.1500000e+01 
1.0000000e+00 3.0250001e+00 1.2000000e+01 
1.0000000e+00 3.0250001e+00 1.2500000e+01 
1.0000000e+00 3.0250001e+00 1.3000000e+01 
1.0000000e+00 3.0250001e+00 1.3500000e+01 
1.0000000e+00 3.0250001e+00 1.4000000e+01 
1.0000000e+00 3.0250001e+00 1.4500000e+01 
1.0000000e+00 -2.0000000e+00 -5.0000000e+00 
1.0000000e+00 -2.0000000e+00 -4.5000000e+00 
1.0000000e+00 -2.0000000e+00 -4.0000000e+00 
1.0000000e+00 -2.0000000e+00 -3.5000000e+00 
1.0000000e+00 -2.0000000e+00 -3.0000000e+00 
1.0000000e+00 -2.0000000e+00 -2.5000000e+00 
1.0000000e+00 -2.0000000e+00 -2.0000000e+00 
1.0000000e+00 -2.0000000e+00 -1.5000000e+00 
1.0000000e+00 -2.0000000e+00 -1.0000000e+00 
1.0000000e+00 -2.0000000e+00 -5.0000000e-01 
1.0000000e+00 -2.0000000e+00 1.0500000e+01 
1.0000000e+00 -2.0000000e+00 1.1000000e+01 
1.0000000e+00 -2.0000000e+00 1.1500000e+01 
1.0000000e+00 -2.0000000e+00 1.2000000e+01 
1.0000000e+00 -2.0000000e+00 1.2500000e+01 
1.0000000e+00 -2.0000000e+00 1.3000000e+01 
1.0000000e+00 -2.0000000e+00 1.3500000e+01 
1.0000000e+00 -2.0000000e+00 1.4000000e+01 
1.0000000e+00 -2.0000000e+00 1.4500000e+01 
1.0000000e+00 0.0000000e+00 0.0000000e+00 
2.0000000e+00 0.0000000e+00 0.0000000e+00 
3.0000000e+00 0.0000000e+00 0.0000000e+00 
4.0000000e+00 0.0000000e+00 0.0000000e+00 
5.0000000e+00 1.0000000e+00 0.0000000e+00 
5.0000000e+00 2.0000000e+00 0.0000000e+00 
0.0000000e+00 2.0000000e+00 0.0000000e+00 
0.0000000e+00 1.0000000e+00 0.0000000e+00 
0.0000000e+00 0.0000000e+00 1.0000000e+00 
0.0000000e+00 0.0000000e+00 2.0000000e+00 
0.0000000e+00 0.0000000e+00 3.0000000e+00 
0.0000000e+00 0.0000000e+00 4.0000000e+00 
0.0000000e+00 0.0000000e+00 5.0000000e+00 
0.0000000e+00 0.0000000e+00 6.0000000e+00 
0.0000000e+00 0.0000000e+00 7.0000000e+00 
0.0000000e+00 0.0000000e+00 8.0000000e+00 
0.0000000e+00 0.0000000e+00 9.0000000e+00 
5.0000000e+00 0.0000000e+00 1.0000000e+00 
5.0000000e+00 0.0000000e+00 2.0000000e+00 
5.0000000e+00 0.0000000e+00 3.0000000e+00 
5.0000000e+00 0.0000000e+00 4.0000000e+00 
5.0000000e+00 0.0000000e+00 5.0000000e+00 
5.0000000e+00 0.0000000e+00 6.0000000e+00 
5.0000000e+00 0.0000000e+00 7.0000000e+00 
5.0000000e+00 0.0000000e+00 8.0000000e+00 
5.0000000e+00 0.0000000e+00 9.0000000e+00 
1.0000000e+00 0.0000000e+00 1.0000000e+01 
2.0000000e+00 0.0000000e+00 1.0000000e+01 
3.0000000e+00 0.0000000e+00 1.0000000e+01 
4.0000000e+00 0.0000000e+00 1.0000000e+01 
5.0000000e+00 3.0000000e+00 1.0000000e+00 
5.0000000e+00 3.0000000e+00 2.0000000e+00 
5.0000000e+00 3.0000000e+00 3.0000000e+00 
5.0000000e+00 3.0000000e+00 4.0000000e+00 
5.0000000e+00 3.0000000e+00 5.0000000e+00 
5.0000000e+00 3.0000000e+00 6.0000000e+00 
5.0000000e+00 3.0000000e+00 7.0000000e+00 
5.0000000e+00 3.0000000e+00 8.0000000e+00 
5.0000000e+00 3.0000000e+00 9.0000000e+00 
5.0000000e+00 1.0000000e+00 1.0000000e+01 
5.0000000e+00 2.0000000e+00 1.0000000e+01 
0.0000000e+00 3.0000000e+00 1.0000000e+00 
0.0000000e+00 3.0000000e+00 2.0000000e+00 
0.0000000e+00 3.0000000e+00 3.0000000e+00 
0.0000000e+00 3.0000000e+00 4.0000000e+00 
0.0000000e+00 3.0000000e+00 5.0000000e+00 
0.0000000e+00 3.0000000e+00 6.0000000e+00 
0.0000000e+00 3.0000000e+00 7.0000000e+00 
0.0000000e+00 3.0000000e+00 8.0000000e+00 
0.0000000e+00 3.0000000e+00 9.0000000e+00 
0.0000000e+00 2.0000000e+00 1.0000000e+01 
0.0000000e+00 1.0000000e+00 1.0000000e+01 
4.0000000e+00 3.0000000e+00 0.0000000e+00 
3.0000000e+00 3.0000000e+00 0.0000000e+00 
2.0000000e+00 3.0000000e+00 0.0000000e+00 
4.0000000e+00 3.0000000e+00 1.0000000e+01 
3.0000000e+00 3.0000000e+00 1.0000000e+01 
2.0000000e+00 3.0000000e+00 1.0000000e+01 
4.0618000e+00 1.5000000e+00 0.0000000e+00 
1.5046000e+00 7.6549745e-01 0.0000000e+00 
2.5000000e+00 2.1339746e+00 0.0000000e+00 
1.5046000e+00 2.2345026e+00 0.0000000e+00 
2.4957771e+00 8.1560516e-01 0.0000000e+00 
3.4707544e+00 2.2336540e+00 0.0000000e+00 
3.4700506e+00 7.5794268e-01 0.0000000e+00 
8.6322361e-01 1.5000000e+00 0.0000000e+00 
2.0000000e+00 1.5000000e+00 0.0000000e+00 
2.9960666e+00 1.4974480e+00 0.0000000e+00 
4.2679491e+00 7.3205084e-01 0.0000000e+00 
4.2679491e+00 2.2679491e+00 0.0000000e+00 
7.2695929e-01 2.2730408e+00 0.0000000e+00 
7.2695929e-01 7.2695929e-01 0.0000000e+00 
4.1822505e+00 0.0000000e+00 2.5515697e+00 
4.2017918e+00 0.0000000e+00 4.4725966e+00 
4.1114569e+00 0.0000000e+00 6.5092020e+00 
8.6602539e-01 0.0000000e+00 3.5000000e+00 
8.4778279e-01 0.0000000e+00 5.4684029e+00 
8.9629614e-01 0.0000000e+00 7.5867257e+00 
2.5566745e+00 0.0000000e+00 8.1853306e-01 
2.4918270e+00 0.0000000e+00 9.1386929e+00 
8.4677207e-01 0.0000000e+00 1.5042374e+00 
4.0943027e+00 0.0000000e+00 8.4081745e+00 
8.6281651e-01 0.0000000e+00 2.5007062e+00 
1.7315160e+00 0.0000000e+00 3.0001178e+00 
1.7319617e+00 0.0000000e+00 4.0000196e+00 
2.5980761e+00 0.0000000e+00 3.5000000e+00 
2.5536871e+00 0.0000000e+00 4.4963923e+00 
2.5928419e+00 0.0000000e+00 2.4239938e+00 
1.5037409e+00 0.0000000e+00 9.1535149e+00 
1.8433737e+00 0.0000000e+00 8.1858873e+00 
3.0000000e+00 0.0000000e+00 8.2679491e+00 
2.5000000e+00 0.0000000e+00 7.4019237e+00 
3.5042722e+00 0.0000000e+00 7.4271150e+00 
3.0310018e+00 0.0000000e+00 6.5282087e+00 
2.0373929e+00 0.0000000e+00 6.5307913e+00 
3.4767809e+00 0.0000000e+00 5.8031492e+00 
2.5452602e+00 0.0000000e+00 5.5720768e+00 
1.6456656e+00 0.0000000e+00 1.9697139e+00 
8.6297011e-01 0.0000000e+00 4.4947371e+00 
1.0111579e+00 0.0000000e+00 6.5282545e+00 
3.4994321e+00 0.0000000e+00 8.4691072e-01 
4.1860156e+00 0.0000000e+00 3.5040276e+00 
1.7320508e+00 0.0000000e+00 5.0000000e+00 
4.0544066e+00 0.0000000e+00 1.5781221e+00 
1.5817389e+00 0.0000000e+00 9.3943578e-01 
8.3166349e-01 0.0000000e+00 8.5090933e+00 
3.4686174e+00 0.0000000e+00 9.1752682e+00 
3.0709300e+00 0.0000000e+00 1.5799091e+00 
3.3927374e+00 0.0000000e+00 3.0399952e+00 
3.3826034e+00 0.0000000e+00 3.9747651e+00 
4.3420062e+00 0.0000000e+00 7.4688983e+00 
3.4023225e+00 0.0000000e+00 4.9314723e+00 
1.6740381e+00 0.0000000e+00 7.3014426e+00 
4.2715640e+00 0.0000000e+00 5.4758859e+00 
1.6225953e+00 0.0000000e+00 5.8104177e+00 
4.2679491e+00 0.0000000e+00 9.2679491e+00 
7.3205084e-01 0.0000000e+00 7.3205084e-01 
4.2679491e+00 0.0000000e+00 7.3205084e-01 
7.3205084e-01 0.0000000e+00 9.2679491e+00 
3.4586334e+00 0.0000000e+00 2.2347178e+00 
2.2895701e+00 0.0000000e+00 1.5463171e+00 
5.0000000e+00 2.2345026e+00 1.5046000e+00 
[...]
POINT_DATA 460
FIELD FieldData 2
DISPLACEMENT 3 460  float
0.0000000e+00 0.0000000e+00 0.0000000e+00 
0.0000000e+00 0.0000000e+00 0.0000000e+00 
0.0000000e+00 2.9520734e-08 0.0000000e+00 
0.0000000e+00 2.4141663e-08 0.0000000e+00 
0.0000000e+00 0.0000000e+00 0.0000000e+00 
0.0000000e+00 0.0000000e+00 0.0000000e+00 
0.0000000e+00 -5.4115253e-06 0.0000000e+00 
0.0000000e+00 -1.3292576e-04 0.0000000e+00 
0.0000000e+00 1.0093878e-08 0.0000000e+00 
0.0000000e+00 9.8068655e-09 0.0000000e+00 
0.0000000e+00 8.9992502e-09 0.0000000e+00 
0.0000000e+00 7.7792013e-09 0.0000000e+00 
0.0000000e+00 6.3460313e-09 0.0000000e+00 
0.0000000e+00 5.0379456e-09 0.0000000e+00 
0.0000000e+00 4.3523558e-09 0.0000000e+00 
0.0000000e+00 4.9280815e-09 0.0000000e+00 
0.0000000e+00 7.4374991e-09 0.0000000e+00 
0.0000000e+00 1.2311325e-08 0.0000000e+00 
0.0000000e+00 1.9398126e-08 0.0000000e+00 
-1.9256163e-09 2.7477366e-08 -1.3236895e-10 
-4.0004200e-09 3.8352084e-08 6.2001643e-10 
-4.6570778e-09 5.3871396e-08 5.2565792e-09 
-7.6763369e-09 7.6402586e-08 1.7475980e-08 
-1.3645425e-08 1.0371546e-07 4.9689355e-08 
-1.8709832e-08 1.2668650e-07 1.0318928e-07 
-2.4338135e-08 1.2521511e-07 2.0415852e-07 
-8.0062271e-08 6.8709333e-08 4.4673297e-07 
-1.3080333e-07 -8.3133649e-08 7.3259088e-07 
-3.3024779e-07 -3.4830995e-07 1.5000653e-06 
-5.9944620e-07 -7.4280672e-07 2.4312251e-06 
-8.6655484e-07 -1.4011506e-06 3.9012903e-06 
-2.1657897e-06 -2.9652444e-06 6.5222962e-06 
-3.0128624e-06 -7.5270441e-06 9.6519489e-06 
-4.4031608e-06 -2.0220696e-05 1.3039806e-05 
-5.3366625e-06 -5.0170831e-05 1.6331451e-05 
-6.3713255e-06 -1.0952723e-04 3.5640958e-05 
-1.5155119e-05 -2.0280301e-04 2.7361422e-05 
-7.6525721e-06 -3.1477300e-04 6.6733037e-06 
0.0000000e+00 -3.6809954e-04 0.0000000e+00 
0.0000000e+00 -3.1550947e-04 0.0000000e+00 
0.0000000e+00 -2.2195825e-04 0.0000000e+00 
0.0000000e+00 -1.3225700e-04 0.0000000e+00 
0.0000000e+00 -6.3940584e-05 0.0000000e+00 
0.0000000e+00 -1.9809455e-05 0.0000000e+00 
0.0000000e+00 4.4540543e-06 0.0000000e+00 
0.0000000e+00 1.5371110e-05 0.0000000e+00 
0.0000000e+00 1.8966963e-05 0.0000000e+00 
0.0000000e+00 1.9555679e-05 0.0000000e+00 
0.0000000e+00 1.0280128e-08 0.0000000e+00 
0.0000000e+00 9.9487494e-09 0.0000000e+00 
0.0000000e+00 9.0341885e-09 0.0000000e+00 
0.0000000e+00 7.7598887e-09 0.0000000e+00 
0.0000000e+00 6.3332890e-09 0.0000000e+00 
0.0000000e+00 5.0391855e-09 0.0000000e+00 
0.0000000e+00 4.3570396e-09 0.0000000e+00 
0.0000000e+00 4.9365330e-09 0.0000000e+00 
0.0000000e+00 7.4592208e-09 0.0000000e+00 
0.0000000e+00 1.2356640e-08 0.0000000e+00 
0.0000000e+00 1.9301119e-08 0.0000000e+00 
0.0000000e+00 2.7474783e-08 0.0000000e+00 
0.0000000e+00 3.8316923e-08 0.0000000e+00 
0.0000000e+00 5.4012268e-08 0.0000000e+00 
0.0000000e+00 7.6613787e-08 0.0000000e+00 
0.0000000e+00 1.0407669e-07 0.0000000e+00 
0.0000000e+00 1.2708225e-07 0.0000000e+00 
0.0000000e+00 1.2562550e-07 0.0000000e+00 
0.0000000e+00 6.7795327e-08 0.0000000e+00 
0.0000000e+00 -8.4070408e-08 0.0000000e+00 
0.0000000e+00 -3.4708398e-07 0.0000000e+00 
0.0000000e+00 -7.3223504e-07 0.0000000e+00 
0.0000000e+00 -1.3632982e-06 0.0000000e+00 
0.0000000e+00 -2.8734730e-06 0.0000000e+00 
0.0000000e+00 -7.3859651e-06 0.0000000e+00 
0.0000000e+00 -2.0068435e-05 0.0000000e+00 
0.0000000e+00 -5.0285027e-05 0.0000000e+00 
0.0000000e+00 -1.0983043e-04 0.0000000e+00 
0.0000000e+00 -2.0474459e-04 0.0000000e+00 
0.0000000e+00 -3.1937065e-04 0.0000000e+00 
0.0000000e+00 -3.7210397e-04 0.0000000e+00 
0.0000000e+00 -3.1677319e-04 0.0000000e+00 
0.0000000e+00 -2.2285139e-04 0.0000000e+00 
0.0000000e+00 -1.3279174e-04 0.0000000e+00 
0.0000000e+00 -6.4200955e-05 0.0000000e+00 
0.0000000e+00 -1.9891768e-05 0.0000000e+00 
0.0000000e+00 4.4701733e-06 0.0000000e+00 
0.0000000e+00 1.5431900e-05 0.0000000e+00 
0.0000000e+00 1.9042722e-05 0.0000000e+00 
0.0000000e+00 1.9633981e-05 0.0000000e+00 
0.0000000e+00 0.0000000e+00 0.0000000e+00 
0.0000000e+00 0.0000000e+00 0.0000000e+00 
0.0000000e+00 0.0000000e+00 0.0000000e+00 
0.0000000e+00 0.0000000e+00 0.0000000e+00 
0.0000000e+00 0.0000000e+00 0.0000000e+00 
0.0000000e+00 0.0000000e+00 0.0000000e+00 
0.0000000e+00 0.0000000e+00 0.0000000e+00 
0.0000000e+00 0.0000000e+00 0.0000000e+00 
0.0000000e+00 0.0000000e+00 0.0000000e+00 
0.0000000e+00 0.0000000e+00 0.0000000e+00 
0.0000000e+00 0.0000000e+00 0.0000000e+00 
0.0000000e+00 0.0000000e+00 0.0000000e+00 
0.0000000e+00 0.0000000e+00 0.0000000e+00 
0.0000000e+00 0.0000000e+00 0.0000000e+00 
0.0000000e+00 0.0000000e+00 0.0000000e+00 
0.0000000e+00 0.0000000e+00 0.0000000e+00 
0.0000000e+00 0.0000000e+00 0.0000000e+00 
0.0000000e+00 0.0000000e+00 0.0000000e+00 
0.0000000e+00 0.0000000e+00 0.0000000e+00 
0.0000000e+00 0.0000000e+00 0.0000000e+00 
0.0000000e+00 0.0000000e+00 0.0000000e+00 
0.0000000e+00 0.0000000e+00 0.0000000e+00 
0.0000000e+00 0.0000000e+00 0.0000000e+00 
0.0000000e+00 1.5374079e-08 0.0000000e+00 
0.0000000e+00 2.6497053e-08 0.0000000e+00 
0.0000000e+00 2.1325164e-08 0.0000000e+00 
0.0000000e+00 1.2298131e-08 0.0000000e+00 
0.0000000e+00 0.0000000e+00 0.0000000e+00 
0.0000000e+00 0.0000000e+00 0.0000000e+00 
0.0000000e+00 0.0000000e+00 0.0000000e+00 
0.0000000e+00 0.0000000e+00 0.0000000e+00 
0.0000000e+00 0.0000000e+00 0.0000000e+00 
0.0000000e+00 0.0000000e+00 0.0000000e+00 
0.0000000e+00 0.0000000e+00 0.0000000e+00 
0.0000000e+00 0.0000000e+00 0.0000000e+00 
0.0000000e+00 0.0000000e+00 0.0000000e+00 
0.0000000e+00 0.0000000e+00 0.0000000e+00 
0.0000000e+00 0.0000000e+00 0.0000000e+00 
0.0000000e+00 0.0000000e+00 0.0000000e+00 
0.0000000e+00 0.0000000e+00 0.0000000e+00 
0.0000000e+00 0.0000000e+00 0.0000000e+00 
0.0000000e+00 0.0000000e+00 0.0000000e+00 
0.0000000e+00 0.0000000e+00 0.0000000e+00 
0.0000000e+00 0.0000000e+00 0.0000000e+00 
0.0000000e+00 0.0000000e+00 0.0000000e+00 
0.0000000e+00 0.0000000e+00 0.0000000e+00 
0.0000000e+00 0.0000000e+00 0.0000000e+00 
0.0000000e+00 0.0000000e+00 0.0000000e+00 
0.0000000e+00 0.0000000e+00 0.0000000e+00 
0.0000000e+00 4.1406437e-08 0.0000000e+00 
0.0000000e+00 8.7180787e-08 0.0000000e+00 
0.0000000e+00 1.5137904e-07 0.0000000e+00 
0.0000000e+00 2.8069493e-07 0.0000000e+00 
0.0000000e+00 2.7853278e-07 0.0000000e+00 
0.0000000e+00 2.4067745e-07 0.0000000e+00 
0.0000000e+00 -1.0458009e-06 0.0000000e+00 
0.0000000e+00 -1.9906520e-06 0.0000000e+00 
0.0000000e+00 -4.9388623e-06 0.0000000e+00 
0.0000000e+00 -2.9459266e-06 0.0000000e+00 
0.0000000e+00 -4.9812252e-06 0.0000000e+00 
0.0000000e+00 3.1911355e-08 0.0000000e+00 
0.0000000e+00 5.7260813e-08 0.0000000e+00 
0.0000000e+00 7.5048220e-08 0.0000000e+00 
0.0000000e+00 -6.7855844e-08 0.0000000e+00 
0.0000000e+00 -8.3693988e-07 0.0000000e+00 
0.0000000e+00 -3.5875698e-06 0.0000000e+00 
0.0000000e+00 -1.4429216e-05 0.0000000e+00 
0.0000000e+00 -4.4954795e-05 0.0000000e+00 
0.0000000e+00 -1.1002267e-04 0.0000000e+00 
0.0000000e+00 -1.1084566e-04 0.0000000e+00 
0.0000000e+00 -5.4705848e-05 0.0000000e+00 
0.0000000e+00 2.9119525e-08 0.0000000e+00 
0.0000000e+00 2.9710868e-08 0.0000000e+00 
0.0000000e+00 2.8409136e-08 0.0000000e+00 
0.0000000e+00 -9.7008242e-06 0.0000000e+00 
0.0000000e+00 -2.6480626e-05 0.0000000e+00 
0.0000000e+00 -7.0275295e-05 0.0000000e+00 
0.0000000e+00 1.9983512e-08 0.0000000e+00 
0.0000000e+00 1.0853499e-08 0.0000000e+00 
0.0000000e+00 2.5671334e-08 0.0000000e+00 
0.0000000e+00 2.2649409e-08 0.0000000e+00 
0.0000000e+00 1.2707663e-08 0.0000000e+00 
0.0000000e+00 2.5629518e-08 0.0000000e+00 
0.0000000e+00 1.3352137e-08 0.0000000e+00 
0.0000000e+00 1.8102718e-08 0.0000000e+00 
0.0000000e+00 2.1157053e-08 0.0000000e+00 
0.0000000e+00 2.0801494e-08 0.0000000e+00 
0.0000000e+00 9.1009369e-09 0.0000000e+00 
0.0000000e+00 2.6113604e-08 0.0000000e+00 
0.0000000e+00 2.1745631e-08 0.0000000e+00 
0.0000000e+00 8.6489180e-09 0.0000000e+00 
0.0000000e+00 0.0000000e+00 0.0000000e+00 
0.0000000e+00 0.0000000e+00 0.0000000e+00 
0.0000000e+00 0.0000000e+00 0.0000000e+00 
0.0000000e+00 0.0000000e+00 0.0000000e+00 
0.0000000e+00 0.0000000e+00 0.0000000e+00 
0.0000000e+00 0.0000000e+00 0.0000000e+00 
0.0000000e+00 0.0000000e+00 0.0000000e+00 
0.0000000e+00 0.0000000e+00 0.0000000e+00 
0.0000000e+00 0.0000000e+00 0.0000000e+00 
0.0000000e+00 0.0000000e+00 0.0000000e+00 
0.0000000e+00 0.0000000e+00 0.0000000e+00 
0.0000000e+00 0.0000000e+00 0.0000000e+00 
0.0000000e+00 0.0000000e+00 0.0000000e+00 
0.0000000e+00 0.0000000e+00 0.0000000e+00 
0.0000000e+00 0.0000000e+00 0.0000000e+00 
0.0000000e+00 0.0000000e+00 0.0000000e+00 
0.0000000e+00 0.0000000e+00 0.0000000e+00 
0.0000000e+00 0.0000000e+00 0.0000000e+00 
0.0000000e+00 0.0000000e+00 0.0000000e+00 
0.0000000e+00 0.0000000e+00 0.0000000e+00 
0.0000000e+00 0.0000000e+00 0.0000000e+00 
0.0000000e+00 0.0000000e+00 0.0000000e+00 
0.0000000e+00 0.0000000e+00 0.0000000e+00 
0.0000000e+00 0.0000000e+00 0.0000000e+00 
0.0000000e+00 0.0000000e+00 0.0000000e+00 
0.0000000e+00 0.0000000e+00 0.0000000e+00 
0.0000000e+00 0.0000000e+00 0.0000000e+00 
0.0000000e+00 0.0000000e+00 0.0000000e+00 
0.0000000e+00 0.0000000e+00 0.0000000e+00 
0.0000000e+00 0.0000000e+00 0.0000000e+00 
0.0000000e+00 0.0000000e+00 0.0000000e+00 
0.0000000e+00 0.0000000e+00 0.0000000e+00 
0.0000000e+00 0.0000000e+00 0.0000000e+00 
0.0000000e+00 0.0000000e+00 0.0000000e+00 
0.0000000e+00 0.0000000e+00 0.0000000e+00 
0.0000000e+00 0.0000000e+00 0.0000000e+00 
0.0000000e+00 0.0000000e+00 0.0000000e+00 
0.0000000e+00 0.0000000e+00 0.0000000e+00 
0.0000000e+00 0.0000000e+00 0.0000000e+00 
0.0000000e+00 0.0000000e+00 0.0000000e+00 
0.0000000e+00 0.0000000e+00 0.0000000e+00 
0.0000000e+00 0.0000000e+00 0.0000000e+00 
0.0000000e+00 0.0000000e+00 0.0000000e+00 
0.0000000e+00 0.0000000e+00 0.0000000e+00 
0.0000000e+00 0.0000000e+00 0.0000000e+00 
0.0000000e+00 0.0000000e+00 0.0000000e+00 
0.0000000e+00 0.0000000e+00 0.0000000e+00 
0.0000000e+00 0.0000000e+00 0.0000000e+00 
0.0000000e+00 0.0000000e+00 0.0000000e+00 
0.0000000e+00 5.6669023e-08 0.0000000e+00 
0.0000000e+00 -3.2626237e-06 0.0000000e+00 
0.0000000e+00 1.9685132e-07 0.0000000e+00 
0.0000000e+00 3.1425407e-07 0.0000000e+00 
0.0000000e+00 -1.2113859e-06 0.0000000e+00 
0.0000000e+00 4.7921802e-08 0.0000000e+00 
0.0000000e+00 8.2738737e-08 0.0000000e+00 
0.0000000e+00 -1.7952672e-07 0.0000000e+00 
0.0000000e+00 8.6568662e-08 0.0000000e+00 
0.0000000e+00 1.2452313e-07 0.0000000e+00 
0.0000000e+00 1.0401772e-07 0.0000000e+00 
0.0000000e+00 3.0316116e-07 0.0000000e+00 
0.0000000e+00 2.2120072e-07 0.0000000e+00 
0.0000000e+00 -8.4295789e-07 0.0000000e+00 
0.0000000e+00 2.4078394e-08 0.0000000e+00 
0.0000000e+00 -1.5987754e-06 0.0000000e+00 
0.0000000e+00 -2.0994064e-06 0.0000000e+00 
0.0000000e+00 2.9260542e-08 0.0000000e+00 
0.0000000e+00 2.1274127e-07 0.0000000e+00 
0.0000000e+00 -2.6484858e-07 0.0000000e+00 
0.0000000e+00 5.6970439e-08 0.0000000e+00 
0.0000000e+00 2.3190989e-07 0.0000000e+00 
0.0000000e+00 1.9059347e-07 0.0000000e+00 
0.0000000e+00 1.1301690e-07 0.0000000e+00 
0.0000000e+00 -1.2711746e-06 0.0000000e+00 
0.0000000e+00 -3.8900557e-06 0.0000000e+00 
0.0000000e+00 -1.6656159e-06 0.0000000e+00 
0.0000000e+00 3.4485023e-08 0.0000000e+00 
0.0000000e+00 1.4041239e-08 0.0000000e+00 
0.0000000e+00 -6.4950167e-05 0.0000000e+00 
0.0000000e+00 2.2263732e-08 0.0000000e+00 
0.0000000e+00 2.7102727e-08 0.0000000e+00 
0.0000000e+00 -1.8065650e-07 0.0000000e+00 
0.0000000e+00 -1.1897860e-05 0.0000000e+00 
0.0000000e+00 3.8169222e-08 0.0000000e+00 
0.0000000e+00 -1.8504442e-06 0.0000000e+00 
0.0000000e+00 -2.5171685e-05 0.0000000e+00 
0.0000000e+00 3.7348640e-09 0.0000000e+00 
0.0000000e+00 6.1663549e-08 0.0000000e+00 
0.0000000e+00 -2.9068212e-07 0.0000000e+00 
0.0000000e+00 -7.1720815e-06 0.0000000e+00 
0.0000000e+00 -3.8240964e-06 0.0000000e+00 
0.0000000e+00 -6.8855596e-05 0.0000000e+00 
0.0000000e+00 3.8914600e-08 0.0000000e+00 
0.0000000e+00 1.7748418e-08 0.0000000e+00 
0.0000000e+00 -2.1572290e-05 0.0000000e+00 
0.0000000e+00 -6.4018587e-07 0.0000000e+00 
0.0000000e+00 -3.7593052e-06 0.0000000e+00 
0.0000000e+00 -1.2008014e-07 0.0000000e+00 
0.0000000e+00 3.8333347e-08 0.0000000e+00 
0.0000000e+00 -1.1254569e-05 0.0000000e+00 
0.0000000e+00 -8.2424157e-07 0.0000000e+00 
0.0000000e+00 -3.2869051e-05 0.0000000e+00 
0.0000000e+00 3.9082575e-08 0.0000000e+00 
0.0000000e+00 -3.0744573e-05 0.0000000e+00 
0.0000000e+00 2.6326836e-08 0.0000000e+00 
0.0000000e+00 1.1233102e-08 0.0000000e+00 
0.0000000e+00 -1.1034025e-04 0.0000000e+00 
0.0000000e+00 -3.0313049e-05 0.0000000e+00 
0.0000000e+00 -6.2367867e-06 0.0000000e+00 
0.0000000e+00 -4.1466606e-05 0.0000000e+00 
0.0000000e+00 -1.2621484e-04 0.0000000e+00 
0.0000000e+00 -1.6873812e-05 0.0000000e+00 
0.0000000e+00 -1.5908154e-05 0.0000000e+00 
0.0000000e+00 -7.4465875e-06 0.0000000e+00 
0.0000000e+00 -9.5294374e-05 0.0000000e+00 
0.0000000e+00 -5.1166306e-05 0.0000000e+00 
0.0000000e+00 -2.0101550e-05 0.0000000e+00 
0.0000000e+00 -3.4109967e-06 0.0000000e+00 
0.0000000e+00 -7.1303234e-06 0.0000000e+00 
0.0000000e+00 -1.7400246e-04 0.0000000e+00 
0.0000000e+00 -4.1901756e-05 0.0000000e+00 
-2.1782998e-07 3.7547888e-08 1.0847633e-06 
-1.5815343e-06 -3.5708972e-06 4.7461954e-06 
-6.3518860e-06 -2.8928001e-05 1.3552422e-05 
-1.6658948e-08 8.4331404e-08 4.0987874e-08 
-4.6339323e-08 1.6610242e-07 1.8912985e-07 
-4.4450280e-07 2.3605421e-07 6.2975420e-07 
-1.9373772e-08 1.3230093e-07 1.5230377e-08 
-1.9442862e-06 -1.7366007e-06 2.1004369e-06 
-5.3347908e-09 4.6932186e-08 3.7272798e-09 
-1.3297003e-05 -9.7469419e-05 2.1505864e-05 
-3.4674297e-09 3.9210580e-08 -4.2900261e-09 
-7.4843374e-06 -1.5926060e-05 2.0991131e-06 
-1.3797171e-06 -5.9592691e-07 1.4750088e-06 
-2.8795962e-06 -2.9201349e-06 3.9321340e-06 
-6.4183664e-06 -7.1134832e-06 6.3930393e-06 
-4.6937139e-06 -7.5593989e-06 4.9638543e-06 
-2.4631540e-06 -3.3837023e-06 3.3998558e-06 
-9.6305539e-06 -2.1580981e-05 7.6947035e-06 
-4.0296968e-06 -7.8748099e-06 7.8817202e-06 
-1.3768068e-06 -9.1744442e-07 2.4801643e-06 
-6.3285069e-07 -6.3065578e-08 1.1340037e-06 
-8.6189698e-07 -6.2643670e-07 1.8281860e-06 
-4.0236574e-07 1.3107250e-07 1.1002182e-06 
-2.3533653e-07 3.5400919e-07 4.7735745e-07 
-1.8492837e-07 2.9148626e-07 4.5618748e-07 
-1.1482842e-07 2.3034862e-07 1.9481935e-07 
-5.8957987e-08 2.0252537e-07 1.9669211e-07 
-4.4723134e-08 1.7531848e-07 8.2397172e-08 
-4.5164949e-08 1.3963258e-07 9.0492783e-08 
-2.7256680e-08 1.0358495e-07 2.5114142e-08 
-1.4202990e-08 7.9109107e-08 2.2992623e-08 
-6.5300878e-07 -2.9154793e-07 2.1807225e-06 
-1.2033285e-06 -1.5442397e-06 2.9094656e-06 
-1.2142688e-07 1.8329071e-07 3.0534920e-07 
-5.2298841e-08 2.3020624e-07 6.2764542e-08 
-1.0315862e-05 -3.6731541e-05 4.5141865e-06 
-1.8568770e-07 2.2352741e-07 7.0130642e-07 
-2.2156803e-07 3.8760612e-07 3.4621604e-07 
-4.1886645e-09 4.3481297e-08 1.2792345e-09 
-4.5682273e-06 -5.7904786e-06 2.2879990e-06 
-7.7730119e-06 -1.7416383e-05 1.1591859e-05 
-1.0039164e-05 -3.5195575e-05 1.2114311e-05 
-9.3456038e-07 -1.0375910e-06 2.8574459e-06 
-5.0378963e-09 6.3886922e-08 -3.0513627e-09 
-2.5327978e-08 1.1990707e-07 8.8260272e-08 
-4.5097799e-08 1.6619936e-07 1.3550230e-07 
-8.5317701e-08 1.4037428e-07 3.6876617e-07 
-1.9042471e-07 1.4605625e-07 7.3504543e-07 
-2.8904803e-06 -7.0977758e-06 6.9225448e-06 
-5.0413978e-06 -1.6700300e-05 1.1337539e-05 
-3.3490948e-09 3.2678518e-08 -4.4978668e-10 
-7.7330702e-09 6.6259368e-08 1.3868755e-08 
-1.2806788e-05 -1.4191923e-04 1.3043321e-05 
-1.0635251e-08 6.9396080e-08 4.9977009e-09 
-2.8813247e-08 1.0928899e-07 5.5113141e-08 
-1.1990143e-05 -5.6558227e-05 1.9707935e-05 
-2.6064656e-06 -4.3342666e-06 5.3633025e-06 
-8.0646254e-09 5.7103438e-08 8.4873495e-09 
-3.7579608e-07 -4.6867297e-07 1.7148908e-06 
-8.5293586e-06 -1.4902204e-05 5.5599221e-06 
-3.7090149e-06 -7.3906590e-06 1.2555341e-06 
-2.0205972e-09 3.6766739e-08 -2.8695533e-09 
-1.4135881e-07 2.7205570e-07 2.2598410e-07 
-1.4437598e-08 8.1556038e-08 2.3687861e-08 
-1.6196343e-05 -5.7742047e-05 1.3776206e-05 
-1.6845310e-06 -1.5821471e-06 2.9974394e-06 
-1.3510626e-08 9.1775625e-08 1.2883969e-08 
-3.9391995e-08 1.6800563e-07 6.6551998e-08 
-4.3543897e-09 4.3137838e-08 2.6552536e-09 
-2.9509783e-07 -7.5017169e-08 1.2677409e-06 
-1.2730982e-05 -7.5513890e-05 9.3330409e-06 
-3.7045933e-09 7.3272005e-08 2.2282210e-08 
-3.0608294e-09 5.4785474e-08 8.2105442e-09 
-3.6739911e-09 7.8557044e-08 4.4525724e-08 
-7.3901232e-09 8.7451106e-08 7.3329495e-08 
-2.4900750e-09 4.0867633e-08 2.7619089e-09 
-9.5402335e-09 5.0288126e-08 1.3790934e-07 
-5.9035848e-08 -1.0364779e-07 3.0856779e-07 
-7.4160056e-08 -3.8712415e-07 5.6742914e-07 
-1.9174026e-07 -1.1328718e-06 1.6815650e-06 
-4.0001467e-07 -2.0088619e-06 3.1863956e-06 
-7.2549221e-07 -4.6996875e-06 4.7571207e-06 
-9.3037653e-07 -9.4988782e-06 7.1103159e-06 
-1.5199422e-06 -1.8730414e-05 9.2565388e-06 
-3.6747433e-06 -3.9960985e-05 1.1541147e-05 
-3.9927654e-06 -6.4918226e-05 1.6032413e-05 
-4.5718220e-06 -1.1156934e-04 1.7354982e-05 
-2.4271751e-06 -1.8168449e-04 1.2762353e-05 
-1.5759718e-09 2.8434073e-08 -7.5451939e-10 
2.3461275e-09 6.0710725e-08 -8.9781949e-10 
8.9350527e-09 1.4686799e-07 -8.8810395e-08 
2.5246024e-07 -4.5848213e-07 -1.2073302e-06 
2.1082287e-06 -7.6879269e-06 -5.0125213e-06 
6.7395731e-06 -3.6430301e-05 -1.0284413e-05 
4.8411879e-09 1.0563718e-07 -1.3063834e-08 
1.0675904e-07 2.0382538e-07 -2.0899087e-07 
9.0425971e-07 -1.2312389e-06 -1.7275589e-06 
-5.1159073e-08 1.2504269e-07 -7.0728674e-08 
-1.6024722e-09 1.0292624e-07 2.6940373e-08 
-1.1735375e-10 4.1854594e-08 9.0232657e-09 
4.0817758e-06 -5.8114083e-06 -4.2607385e-06 
-1.9092297e-09 4.5593634e-08 8.8935428e-09 
2.6828590e-07 -3.6459969e-06 -1.3416587e-06 
5.7584759e-07 -2.8776496e-05 -6.8270451e-06 
-1.6973326e-08 1.2969701e-07 5.1743207e-08 
3.5477946e-08 2.5349456e-07 -4.2480213e-08 
2.5037850e-09 1.3488456e-07 1.1055905e-08 
-2.3574191e-08 -3.9477766e-07 1.1507631e-08 
-4.6343680e-09 8.6542613e-08 -4.3577913e-07 
-4.5202445e-10 7.3263102e-08 1.9389688e-08 
3.2983061e-07 9.9014194e-08 -4.4738519e-07 
2.5199474e-06 -8.7919085e-05 -1.6407488e-05 
-1.5684108e-10 4.1638604e-08 6.0535577e-09 
3.0931226e-06 -7.7333134e-06 -1.3389003e-06 
9.3381320e-09 5.1510348e-08 -4.4442725e-08 
3.8974153e-07 -2.3451506e-07 -1.0275220e-06 
3.2691101e-09 5.4431869e-08 -1.2047126e-08 
8.9643324e-09 8.2778726e-08 -9.4113183e-08 
-9.2855954e-09 2.1842949e-07 4.6556249e-08 
5.1166990e-07 -6.4570645e-07 -3.2357357e-07 
-4.9753140e-08 -4.6884038e-06 -8.1979374e-07 
-3.2074996e-07 -1.0365569e-05 -4.0680004e-07 
-1.3067006e-07 -7.2397080e-07 5.2438902e-09 
6.3494954e-06 -1.7124887e-05 -3.6459548e-06 
1.6909272e-06 -1.7033308e-05 -3.7698969e-06 
-2.6143282e-10 2.4589008e-08 6.9807216e-10 
1.9643696e-08 1.9770771e-07 -5.4963429e-09 
1.3744071e-10 2.3033495e-08 9.8551256e-10 
4.7266212e-07 -2.6403277e-06 -2.8164386e-06 
-2.2029734e-08 6.4373438e-08 -2.1916840e-07 
6.1379151e-06 -4.4254102e-05 -3.1760042e-06 
2.6332339e-06 -1.4551525e-05 -8.9550967e-06 
-3.5665806e-08 2.2535711e-07 1.1677788e-07 
-2.2846331e-09 5.5587083e-08 1.4260372e-08 
5.6877212e-08 1.9482817e-07 -7.5575507e-08 
1.8587535e-08 7.0541624e-08 -1.6662767e-08 
3.6632546e-06 -7.8668909e-06 -5.2800065e-06 
-5.9591811e-09 9.4835073e-08 1.5021165e-08 
3.6611649e-08 -2.8307545e-07 -7.4732617e-07 
-3.8559902e-09 9.5752071e-08 1.0303503e-08 
1.7903737e-06 -1.8388347e-06 -1.8505036e-06 
1.3790449e-06 -4.7442580e-05 -2.8021325e-06 
-3.0170693e-07 -2.3460377e-06 3.4685476e-07 
8.1376136e-08 -9.8837302e-07 -9.9782005e-07 
8.0665041e-07 -1.2816703e-06 -2.0740817e-06 
5.2028336e-06 -3.8362828e-05 -8.8608394e-06 
-1.8186074e-09 3.7395594e-08 6.2448957e-09 
-2.4863896e-08 3.2983056e-07 4.9712408e-08 
5.1240622e-08 9.4769113e-08 -8.8213248e-08 
-4.5643183e-09 1.7565465e-07 7.7020175e-08 
7.8750912e-07 -4.3550659e-07 -9.3213862e-07 
-6.2181180e-09 1.0134239e-07 2.8339135e-08 
-1.8039063e-06 -5.6796529e-05 -3.7296411e-06 
8.6422403e-08 5.2469552e-08 -2.8608895e-07 
-1.0890924e-07 -2.4874435e-06 4.3956140e-07 