# vtk DataFile Version 4.0
vtk output
ASCII
DATASET UNSTRUCTURED_GRID
POINTS 460 float
0.0000000e+00 0.0000000e+00 0.0000000e+00 
5.0000000e+00 0.0000000e+00 0.0000000e+00 
5.0000000e+00 3.0000000e+00 0.0000000e+00 
0.0000000e+00 3.0000000e+00 0.0000000e+00 
0.0000000e+00 0.0000000e+00 1.0000000e+01 
5.0000000e+00 0.0000000e+00 1.0000000e+01 
5.0000000e+00 3.0000000e+00 1.0000000e+01 
0.0000000e+00 3.0000000e+00 1.0000000e+01 
1.0000000e+00 3.0000000e+00 -5.0000000e+00 
1.0000000e+00 3.0000000e+00 -4.5000000e+00 
1.0000000e+00 3.0000000e+00 -4.0000000e+00 
1.0000000e+00 3.0000000e+00 -3.5000000e+00 
1.0000000e+00 3.0000000e+00 -3.0000000e+00 
1.0000000e+00 3.0000000e+00 -2.5000000e+00 
1.0000000e+00 3.0000000e+00 -2.0000000e+00 
1.0000000e+00 3.0000000e+00 -1.5000000e+00 
1.0000000e+00 3.0000000e+00 -1.0000000e+00 
1.0000000e+00 3.0000000e+00 -5.0000000e-01 
1.0000000e+00 3.0000000e+00 0.0000000e+00 
1.0000000e+00 3.0000000e+00 5.0000000e-01 
1.0000000e+00 3.0000000e+00 1.0000000e+00 
1.0000000e+00 3.0000000e+00 1.5000000e+00 
1.0000000e+00 3.0000000e+00 2.0000000e+00 
1.0000000e+00 3.0000000e+00 2.5000000e+00 
1.0000000e+00 3.0000000e+00 3.0000000e+00 
1.0000000e+00 3.0000000e+00 3.5000000e+00 
1.0000000e+00 3.0000000e+00 4.0000000e+00 
1.0000000e+00 3.0000000e+00 4.5000000e+00 
1.0000000e+00 3.0000000e+00 5.0000000e+00 
1.0000000e+00 3.0000000e+00 5.5000000e+00 
1.0000000e+00 3.0000000e+00 6.0000000e+00 
1.0000000e+00 3.0000000e+00 6.5000000e+00 
1.0000000e+00 3.0000000e+00 7.0000000e+00 
1.0000000e+00 3.0000000e+00 7.5000000e+00 
1.0000000e+00 3.0000000e+00 8.0000000e+00 
1.0000000e+00 3.0000000e+00 8.5000000e+00 
1.0000000e+00 3.0000000e+00 9.0000000e+00 
1.0000000e+00 3.0000000e+00 9.5000000e+00 
1.0000000e+00 3.0000000e+00 1.0000000e+01 
1.0000000e+00 3.0000000e+00 1.0500000e+01 
1.0000000e+00 3.0000000e+00 1.1000000e+01 
1.0000000e+00 3.0000000e+00 1.1500000e+01 
1.0000000e+00 3.0000000e+00 1.2000000e+01 
1.0000000e+00 3.0000000e+00 1.2500000e+01 
1.0000000e+00 3.0000000e+00 1.3000000e+01 
1.0000000e+00 3.0000000e+00 1.3500000e+01 
1.0000000e+00 3.0000000e+00 1.4000000e+01 
1.0000000e+00 3.0000000e+00 1.4500000e+01 
1.0000000e+00 3.0250001e+00 -5.0000000e+00 
1.0000000e+00 3.0250001e+00 -4.5000000e+00 
1.0000000e+00 3.0250001e+00 -4.0000000e+00 
1.0000000e+00 3.0250001e+00 -3.5000000e+00 
1.0000000e+00 3.0250001e+00 -3.0000000e+00 
1.0000000e+00 3.0250001e+00 -2.5000000e+00 
1.0000000e+00 3.0250001e+00 -2.0000000e+00 
1.0000000e+00 3.0250001e+00 -1.5000000e+00 
1.0000000e+00 3.0250001e+00 -1.0000000e+00 
1.0000000e+00 3.0250001e+00 -5.0000000e-01 
1.0000000e+00 3.0250001e+00 0.0000000e+00 
1.0000000e+00 3.0250001e+00 5.0000000e-01 
1.0000000e+00 3.0250001e+00 1.0000000e+00 
1.0000000e+00 3.0250001e+00 1.5000000e+00 
1.0000000e+00 3.0250001e+00 2.0000000e+00 
1.0000000e+00 3.0250001e+00 2.5000000e+00 
1.0000000e+00 3.0250001e+00 3.0000000e+00 
1.0000000e+00 3.0250001e+00 3.5000000e+00 
1.0000000e+00 3.0250001e+00 4.0000000e+00 
1.0000000e+00 3.0250001e+00 4.5000000e+00 
1.0000000e+00 3.0250001e+00 5.0000000e+00 
1.0000000e+00 3.0250001e+00 5.5000000e+00 
1.0000000e+00 3.0250001e+00 6.0000000e+00 
1.0000000e+00 3.0250001e+00 6.5000000e+00 
1.0000000e+00 3.0250001e+00 7.0000000e+00 
1.0000000e+00 3.0250001e+00 7.5000000e+00 
1.0000000e+00 3.0250001e+00 8.0000000e+00 
1.0000000e+00 3.0250001e+00 8.5000000e+00 
1.0000000e+00 3.0250001e+00 9.0000000e+00 
1.0000000e+00 3.0250001e+00 9.5000000e+00 
1.0000000e+00 3.0250001e+00 1.0000000e+01 
1.0000000e+00 3.0250001e+00 1.0500000e+01 
1.0000000e+00 3.0250001e+00 1.1000000e+01 
1.0000000e+00 3.0250001e+00 1.1500000e+01 
1.0000000e+00 3.0250001e+00 1.2000000e+01 
1.0000000e+00 3.0250001e+00 1.2500000e+01 
1.0000000e+00 3.0250001e+00 1.3000000e+01 
1.0000000e+00 3.0250001e+00 1.3500000e+01 
1.0000000e+00 3.0250001e+00 1.4000000e+01 
1.0000000e+00 3.0250001e+00 1.4500000e+01 
1.0000000e+00 -2.0000000e+00 -5.0000000e+00 
1.0000000e+00 -2.0000000e+00 -4.5000000e+00 
1.0000000e+00 -2.0000000e+00 -4.0000000e+00 
1.0000000e+00 -2.0000000e+00 -3.5000000e+00 
1.0000000e+00 -2.0000000e+00 -3.0000000e+00 
1.0000000e+00 -2.0000000e+00 -2.5000000e+00 
1.0000000e+00 -2.0000000e+00 -2.0000000e+00 
1.0000000e+00 -2.0000000e+00 -1.5000000e+00 
1.0000000e+00 -2.0000000e+00 -1.0000000e+00 
1.0000000e+00 -2.0000000e+00 -5.0000000e-01 
1.0000000e+00 -2.0000000e+00 1.0500000e+01 
1.0000000e+00 -2.0000000e+00 1.1000000e+01 
1.0000000e+00 -2.0000000e+00 1.1500000e+01 
1.0000000e+00 -2.0000000e+00 1.2000000e+01 
1.0000000e+00 -2.0000000e+00 1.2500000e+01 
1.0000000e+00 -2.0000000e+00 1.3000000e+01 
1.0000000e+00 -2.0000000e+00 1.3500000e+01 
1.0000000e+00 -2.0000000e+00 1.4000000e+01 
1.0000000e+00 -2.0000000e+00 1.4500000e+01 
1.0000000e+00 0.0000000e+00 0.0000000e+00 
2.0000000e+00 0.0000000e+00 0.0000000e+00 
3.0000000e+00 0.0000000e+00 0.0000000e+00 
4.0000000e+00 0.0000000e+00 0.0000000e+00 
5.0000000e+00 1.0000000e+00 0.0000000e+00 
5.0000000e+00 2.0000000e+00 0.0000000e+00 
0.0000000e+00 2.0000000e+00 0.0000000e+00 
0.0000000e+00 1.0000000e+00 0.0000000e+00 
0.0000000e+00 0.0000000e+00 1.0000000e+00 
0.0000000e+00 0.0000000e+00 2.0000000e+00 
0.0000000e+00 0.0000000e+00 3.0000000e+00 
0.0000000e+00 0.0000000e+00 4.0000000e+00 
0.0000000e+00 0.0000000e+00 5.0000000e+00 
0.0000000e+00 0.0000000e+00 6.0000000e+00 
0.0000000e+00 0.0000000e+00 7.0000000e+00 
0.0000000e+00 0.0000000e+00 8.0000000e+00 
0.0000000e+00 0.0000000e+00 9.0000000e+00 
5.0000000e+00 0.0000000e+00 1.0000000e+00 
5.0000000e+00 0.0000000e+00 2.0000000e+00 
5.0000000e+00 0.0000000e+00 3.0000000e+00 
5.0000000e+00 0.0000000e+00 4.0000000e+00 
5.0000000e+00 0.0000000e+00 5.0000000e+00 
5.0000000e+00 0.0000000e+00 6.0000000e+00 
5.0000000e+00 0.0000000e+00 7.0000000e+00 
5.0000000e+00 0.0000000e+00 8.0000000e+00 
5.0000000e+00 0.0000000e+00 9.0000000e+00 
1.0000000e+00 0.0000000e+00 1.0000000e+01 
2.0000000e+00 0.0000000e+00 1.0000000e+01 
3.0000000e+00 0.0000000e+00 1.0000000e+01 
4.0000000e+00 0.0000000e+00 1.0000000e+01 
5.0000000e+00 3.0000000e+00 1.0000000e+00 
5.0000000e+00 3.0000000e+00 2.0000000e+00 
5.0000000e+00 3.0000000e+00 3.0000000e+00 
5.0000000e+00 3.0000000e+00 4.0000000e+00 
5.0000000e+00 3.0000000e+00 5.0000000e+00 
5.0000000e+00 3.0000000e+00 6.0000000e+00 
5.0000000e+00 3.0000000e+00 7.0000000e+00 
5.0000000e+00 3.0000000e+00 8.0000000e+00 
5.0000000e+00 3.0000000e+00 9.0000000e+00 
5.0000000e+00 1.0000000e+00 1.0000000e+01 
5.0000000e+00 2.0000000e+00 1.0000000e+01 
0.0000000e+00 3.0000000e+00 1.0000000e+00 
0.0000000e+00 3.0000000e+00 2.0000000e+00 
0.0000000e+00 3.0000000e+00 3.0000000e+00 
0.0000000e+00 3.0000000e+00 4.0000000e+00 
0.0000000e+00 3.0000000e+00 5.0000000e+00 
0.0000000e+00 3.0000000e+00 6.0000000e+00 
0.0000000e+00 3.0000000e+00 7.0000000e+00 
0.0000000e+00 3.0000000e+00 8.0000000e+00 
0.0000000e+00 3.0000000e+00 9.0000000e+00 
0.0000000e+00 2.0000000e+00 1.0000000e+01 
0.0000000e+00 1.0000000e+00 1.0000000e+01 
4.0000000e+00 3.0000000e+00 0.0000000e+00 
3.0000000e+00 3.0000000e+00 0.0000000e+00 
2.0000000e+00 3.0000000e+00 0.0000000e+00 
4.0000000e+00 3.0000000e+00 1.0000000e+01 
3.0000000e+00 3.0000000e+00 1.0000000e+01 
2.0000000e+00 3.0000000e+00 1.0000000e+01 
4.0618000e+00 1.5000000e+00 0.0000000e+00 
1.5046000e+00 7.6549745e-01 0.0000000e+00 
2.5000000e+00 2.1339746e+00 0.0000000e+00 
1.5046000e+00 2.2345026e+00 0.0000000e+00 
2.4957771e+00 8.1560516e-01 0.0000000e+00 
3.4707544e+00 2.2336540e+00 0.0000000e+00 
3.4700506e+00 7.5794268e-01 0.0000000e+00 
8.6322361e-01 1.5000000e+00 0.0000000e+00 
2.0000000e+00 1.5000000e+00 0.0000000e+00 
2.9960666e+00 1.4974480e+00 0.0000000e+00 
4.2679491e+00 7.3205084e-01 0.0000000e+00 
4.2679491e+00 2.2679491e+00 0.0000000e+00 
7.2695929e-01 2.2730408e+00 0.0000000e+00 
7.2695929e-01 7.2695929e-01 0.0000000e+00 
4.1822505e+00 0.0000000e+00 2.5515697e+00 
4.2017918e+00 0.0000000e+00 4.4725966e+00 
4.1114569e+00 0.0000000e+00 6.5092020e+00 
8.6602539e-01 0.0000000e+00 3.5000000e+00 
8.4778279e-01 0.0000000e+00 5.4684029e+00 
8.9629614e-01 0.0000000e+00 7.5867257e+00 
2.5566745e+00 0.0000000e+00 8.1853306e-01 
2.4918270e+00 0.0000000e+00 9.1386929e+00 
8.4677207e-01 0.0000000e+00 1.5042374e+00 
4.0943027e+00 0.0000000e+00 8.4081745e+00 
8.6281651e-01 0.0000000e+00 2.5007062e+00 
1.7315160e+00 0.0000000e+00 3.0001178e+00 
1.7319617e+00 0.0000000e+00 4.0000196e+00 
2.5980761e+00 0.0000000e+00 3.5000000e+00 
2.5536871e+00 0.0000000e+00 4.4963923e+00 
2.5928419e+00 0.0000000e+00 2.4239938e+00 
1.5037409e+00 0.0000000e+00 9.1535149e+00 
1.8433737e+00 0.0000000e+00 8.1858873e+00 
3.0000000e+00 0.0000000e+00 8.2679491e+00 
2.5000000e+00 0.0000000e+00 7.4019237e+00 
3.5042722e+00 0.0000000e+00 7.4271150e+00 
3.0310018e+00 0.0000000e+00 6.5282087e+00 
2.0373929e+00 0.0000000e+00 6.5307913e+00 
3.4767809e+00 0.0000000e+00 5.8031492e+00 
2.5452602e+00 0.0000000e+00 5.5720768e+00 
1.6456656e+00 0.0000000e+00 1.9697139e+00 
8.6297011e-01 0.0000000e+00 4.4947371e+00 
1.0111579e+00 0.0000000e+00 6.5282545e+00 
3.4994321e+00 0.0000000e+00 8.4691072e-01 
4.1860156e+00 0.0000000e+00 3.5040276e+00 
1.7320508e+00 0.0000000e+00 5.0000000e+00 
4.0544066e+00 0.0000000e+00 1.5781221e+00 
1.5817389e+00 0.0000000e+00 9.3943578e-01 
8.3166349e-01 0.0000000e+00 8.5090933e+00 
3.4686174e+00 0.0000000e+00 9.1752682e+00 
3.0709300e+00 0.0000000e+00 1.5799091e+00 
3.3927374e+00 0.0000000e+00 3.0399952e+00 
3.3826034e+00 0.0000000e+00 3.9747651e+00 
4.3420062e+00 0.0000000e+00 7.4688983e+00 
3.4023225e+00 0.0000000e+00 4.9314723e+00 
1.6740381e+00 0.0000000e+00 7.3014426e+00 
4.2715640e+00 0.0000000e+00 5.4758859e+00 
1.6225953e+00 0.0000000e+00 5.8104177e+00 
4.2679491e+00 0.0000000e+00 9.2679491e+00 
7.3205084e-01 0.0000000e+00 7.3205084e-01 
4.2679491e+00 0.0000000e+00 7.3205084e-01 
7.3205084e-01 0.0000000e+00 9.2679491e+00 
3.4586334e+00 0.0000000e+00 2.2347178e+00 
2.2895701e+00 0.0000000e+00 1.5463171e+00 
5.0000000e+00 2.2345026e+00 1.5046000e+00 
[...]
POINT_DATA 460
FIELD FieldData 2
DISPLACEMENT 3 460  float
0.0000000e+00 0.0000000e+00 0.0000000e+00 
0.0000000e+00 0.0000000e+00 0.0000000e+00 
0.0000000e+00 9.4372119e-09 0.0000000e+00 
0.0000000e+00 7.8986773e-09 0.0000000e+00 
0.0000000e+00 0.0000000e+00 0.0000000e+00 
0.0000000e+00 0.0000000e+00 0.0000000e+00 
0.0000000e+00 -2.8624604e-06 0.0000000e+00 
0.0000000e+00 -7.1702096e-05 0.0000000e+00 
0.0000000e+00 -1.6140008e-09 0.0000000e+00 
0.0000000e+00 -1.6519867e-09 0.0000000e+00 
0.0000000e+00 -1.7323244e-09 0.0000000e+00 
0.0000000e+00 -1.8215529e-09 0.0000000e+00 
0.0000000e+00 -1.8736448e-09 0.0000000e+00 
0.0000000e+00 -1.8064547e-09 0.0000000e+00 
0.0000000e+00 -1.4940039e-09 0.0000000e+00 
0.0000000e+00 -7.6370055e-10 0.0000000e+00 
0.0000000e+00 5.8311339e-10 0.0000000e+00 
0.0000000e+00 2.6932809e-09 0.0000000e+00 
0.0000000e+00 5.5581730e-09 0.0000000e+00 
-6.9624939e-10 8.8922159e-09 -1.8104640e-09 
-1.2987863e-09 1.3779078e-08 -4.1868251e-09 
-1.5616016e-09 2.1371012e-08 -4.6204072e-09 
-2.7051879e-09 3.3385934e-08 -4.3819450e-09 
-4.4105777e-09 4.9629350e-08 2.0413251e-09 
-6.0537673e-09 6.6903503e-08 1.4353901e-08 
-7.9185627e-09 7.5991935e-08 4.0564238e-08 
-2.3106047e-08 5.9747947e-08 1.0727703e-07 
-4.4766718e-08 -3.2686813e-09 1.9728611e-07 
-1.0436928e-07 -1.1758794e-07 4.2909576e-07 
-1.6946572e-07 -2.4068700e-07 7.1653062e-07 
-2.6741000e-07 -2.5081562e-07 1.2220130e-06 
-7.2558015e-07 -2.9255141e-09 2.1154744e-06 
-1.2612377e-06 4.4969988e-07 3.0721801e-06 
-2.0692385e-06 3.0510275e-08 5.2476671e-06 
-2.6596288e-06 -4.7586987e-06 7.8036601e-06 
-4.1673816e-06 -2.2403527e-05 1.7929317e-05 
-6.6679054e-06 -6.7759094e-05 1.5837877e-05 
-5.6192112e-06 -1.6228325e-04 -7.6775932e-06 
0.0000000e+00 -3.1617549e-04 0.0000000e+00 
0.0000000e+00 -5.0541776e-04 0.0000000e+00 
0.0000000e+00 -5.7928171e-04 0.0000000e+00 
0.0000000e+00 -4.9012172e-04 0.0000000e+00 
0.0000000e+00 -3.4058085e-04 0.0000000e+00 
0.0000000e+00 -1.9689479e-04 0.0000000e+00 
0.0000000e+00 -8.6583692e-05 0.0000000e+00 
0.0000000e+00 -1.4688031e-05 0.0000000e+00 
0.0000000e+00 2.3725384e-05 0.0000000e+00 
0.0000000e+00 3.5389730e-05 0.0000000e+00 
0.0000000e+00 -1.4527309e-09 0.0000000e+00 
0.0000000e+00 -1.5325053e-09 0.0000000e+00 
0.0000000e+00 -1.7097185e-09 0.0000000e+00 
0.0000000e+00 -1.8441946e-09 0.0000000e+00 
0.0000000e+00 -1.8870698e-09 0.0000000e+00 
0.0000000e+00 -1.8069199e-09 0.0000000e+00 
0.0000000e+00 -1.4932542e-09 0.0000000e+00 
0.0000000e+00 -7.6380069e-10 0.0000000e+00 
0.0000000e+00 5.8687916e-10 0.0000000e+00 
0.0000000e+00 2.7053613e-09 0.0000000e+00 
0.0000000e+00 5.5186233e-09 0.0000000e+00 
0.0000000e+00 8.8915959e-09 0.0000000e+00 
0.0000000e+00 1.3751889e-08 0.0000000e+00 
0.0000000e+00 2.1424027e-08 0.0000000e+00 
0.0000000e+00 3.3463362e-08 0.0000000e+00 
0.0000000e+00 4.9807142e-08 0.0000000e+00 
0.0000000e+00 6.7171591e-08 0.0000000e+00 
0.0000000e+00 7.6197558e-08 0.0000000e+00 
0.0000000e+00 5.9317120e-08 0.0000000e+00 
0.0000000e+00 -4.7556057e-09 0.0000000e+00 
0.0000000e+00 -1.2056152e-07 0.0000000e+00 
0.0000000e+00 -2.4316111e-07 0.0000000e+00 
0.0000000e+00 -2.4927772e-07 0.0000000e+00 
0.0000000e+00 2.1108207e-08 0.0000000e+00 
0.0000000e+00 5.1562995e-07 0.0000000e+00 
0.0000000e+00 1.8567039e-07 0.0000000e+00 
0.0000000e+00 -4.5327110e-06 0.0000000e+00 
0.0000000e+00 -2.2105776e-05 0.0000000e+00 
0.0000000e+00 -6.7865585e-05 0.0000000e+00 
0.0000000e+00 -1.6304207e-04 0.0000000e+00 
0.0000000e+00 -3.2080451e-04 0.0000000e+00 
0.0000000e+00 -5.0742889e-04 0.0000000e+00 
0.0000000e+00 -5.8158615e-04 0.0000000e+00 
0.0000000e+00 -4.9207918e-04 0.0000000e+00 
0.0000000e+00 -3.4194498e-04 0.0000000e+00 
0.0000000e+00 -1.9768573e-04 0.0000000e+00 
0.0000000e+00 -8.6933229e-05 0.0000000e+00 
0.0000000e+00 -1.4749202e-05 0.0000000e+00 
0.0000000e+00 2.3818593e-05 0.0000000e+00 
0.0000000e+00 3.5529887e-05 0.0000000e+00 
0.0000000e+00 0.0000000e+00 0.0000000e+00 
0.0000000e+00 0.0000000e+00 0.0000000e+00 
0.0000000e+00 0.0000000e+00 0.0000000e+00 
0.0000000e+00 0.0000000e+00 0.0000000e+00 
0.0000000e+00 0.0000000e+00 0.0000000e+00 
0.0000000e+00 0.0000000e+00 0.0000000e+00 
0.0000000e+00 0.0000000e+00 0.0000000e+00 
0.0000000e+00 0.0000000e+00 0.0000000e+00 
0.0000000e+00 0.0000000e+00 0.0000000e+00 
0.0000000e+00 0.0000000e+00 0.0000000e+00 
0.0000000e+00 0.0000000e+00 0.0000000e+00 
0.0000000e+00 0.0000000e+00 0.0000000e+00 
0.0000000e+00 0.0000000e+00 0.0000000e+00 
0.0000000e+00 0.0000000e+00 0.0000000e+00 
0.0000000e+00 0.0000000e+00 0.0000000e+00 
0.0000000e+00 0.0000000e+00 0.0000000e+00 
0.0000000e+00 0.0000000e+00 0.0000000e+00 
0.0000000e+00 0.0000000e+00 0.0000000e+00 
0.0000000e+00 0.0000000e+00 0.0000000e+00 
0.0000000e+00 0.0000000e+00 0.0000000e+00 
0.0000000e+00 0.0000000e+00 0.0000000e+00 
0.0000000e+00 0.0000000e+00 0.0000000e+00 
0.0000000e+00 0.0000000e+00 0.0000000e+00 
0.0000000e+00 4.9787583e-09 0.0000000e+00 
0.0000000e+00 8.4800131e-09 0.0000000e+00 
0.0000000e+00 6.9589530e-09 0.0000000e+00 
0.0000000e+00 4.0582440e-09 0.0000000e+00 
0.0000000e+00 0.0000000e+00 0.0000000e+00 
0.0000000e+00 0.0000000e+00 0.0000000e+00 
0.0000000e+00 0.0000000e+00 0.0000000e+00 
0.0000000e+00 0.0000000e+00 0.0000000e+00 
0.0000000e+00 0.0000000e+00 0.0000000e+00 
0.0000000e+00 0.0000000e+00 0.0000000e+00 
0.0000000e+00 0.0000000e+00 0.0000000e+00 
0.0000000e+00 0.0000000e+00 0.0000000e+00 
0.0000000e+00 0.0000000e+00 0.0000000e+00 
0.0000000e+00 0.0000000e+00 0.0000000e+00 
0.0000000e+00 0.0000000e+00 0.0000000e+00 
0.0000000e+00 0.0000000e+00 0.0000000e+00 
0.0000000e+00 0.0000000e+00 0.0000000e+00 
0.0000000e+00 0.0000000e+00 0.0000000e+00 
0.0000000e+00 0.0000000e+00 0.0000000e+00 
0.0000000e+00 0.0000000e+00 0.0000000e+00 
0.0000000e+00 0.0000000e+00 0.0000000e+00 
0.0000000e+00 0.0000000e+00 0.0000000e+00 
0.0000000e+00 0.0000000e+00 0.0000000e+00 
0.0000000e+00 0.0000000e+00 0.0000000e+00 
0.0000000e+00 0.0000000e+00 0.0000000e+00 
0.0000000e+00 0.0000000e+00 0.0000000e+00 
0.0000000e+00 1.4343566e-08 0.0000000e+00 
0.0000000e+00 3.2575574e-08 0.0000000e+00 
0.0000000e+00 6.2852898e-08 0.0000000e+00 
0.0000000e+00 1.2329782e-07 0.0000000e+00 
0.0000000e+00 1.4637280e-07 0.0000000e+00 
0.0000000e+00 1.5055244e-07 0.0000000e+00 
0.0000000e+00 -4.1675045e-07 0.0000000e+00 
0.0000000e+00 -9.6617816e-07 0.0000000e+00 
0.0000000e+00 -2.5395386e-06 0.0000000e+00 
0.0000000e+00 -1.5344558e-06 0.0000000e+00 
0.0000000e+00 -2.6281195e-06 0.0000000e+00 
0.0000000e+00 1.1862838e-08 0.0000000e+00 
0.0000000e+00 2.5775019e-08 0.0000000e+00 
0.0000000e+00 4.5430856e-08 0.0000000e+00 
0.0000000e+00 2.6425244e-08 0.0000000e+00 
0.0000000e+00 -1.4734493e-07 0.0000000e+00 
0.0000000e+00 -8.2401397e-07 0.0000000e+00 
0.0000000e+00 -3.2423127e-06 0.0000000e+00 
0.0000000e+00 -1.4706613e-05 0.0000000e+00 
0.0000000e+00 -5.1552364e-05 0.0000000e+00 
0.0000000e+00 -6.4571701e-05 0.0000000e+00 
0.0000000e+00 -3.2326290e-05 0.0000000e+00 
0.0000000e+00 9.1967403e-09 0.0000000e+00 
0.0000000e+00 9.5813135e-09 0.0000000e+00 
0.0000000e+00 9.3721271e-09 0.0000000e+00 
0.0000000e+00 -5.0444100e-06 0.0000000e+00 
0.0000000e+00 -1.3723899e-05 0.0000000e+00 
0.0000000e+00 -3.6286689e-05 0.0000000e+00 
0.0000000e+00 5.8344796e-09 0.0000000e+00 
0.0000000e+00 3.3381335e-09 0.0000000e+00 
0.0000000e+00 7.2781674e-09 0.0000000e+00 
0.0000000e+00 6.5379009e-09 0.0000000e+00 
0.0000000e+00 3.6926977e-09 0.0000000e+00 
0.0000000e+00 7.3318143e-09 0.0000000e+00 
0.0000000e+00 4.2767225e-09 0.0000000e+00 
0.0000000e+00 5.3571143e-09 0.0000000e+00 
0.0000000e+00 5.9769985e-09 0.0000000e+00 
0.0000000e+00 6.0557017e-09 0.0000000e+00 
0.0000000e+00 2.6572951e-09 0.0000000e+00 
0.0000000e+00 7.8709315e-09 0.0000000e+00 
0.0000000e+00 6.5325763e-09 0.0000000e+00 
0.0000000e+00 2.6429987e-09 0.0000000e+00 
0.0000000e+00 0.0000000e+00 0.0000000e+00 
0.0000000e+00 0.0000000e+00 0.0000000e+00 
0.0000000e+00 0.0000000e+00 0.0000000e+00 
0.0000000e+00 0.0000000e+00 0.0000000e+00 
0.0000000e+00 0.0000000e+00 0.0000000e+00 
0.0000000e+00 0.0000000e+00 0.0000000e+00 
0.0000000e+00 0.0000000e+00 0.0000000e+00 
0.0000000e+00 0.0000000e+00 0.0000000e+00 
0.0000000e+00 0.0000000e+00 0.0000000e+00 
0.0000000e+00 0.0000000e+00 0.0000000e+00 
0.0000000e+00 0.0000000e+00 0.0000000e+00 
0.0000000e+00 0.0000000e+00 0.0000000e+00 
0.0000000e+00 0.0000000e+00 0.0000000e+00 
0.0000000e+00 0.0000000e+00 0.0000000e+00 
0.0000000e+00 0.0000000e+00 0.0000000e+00 
0.0000000e+00 0.0000000e+00 0.0000000e+00 
0.0000000e+00 0.0000000e+00 0.0000000e+00 
0.0000000e+00 0.0000000e+00 0.0000000e+00 
0.0000000e+00 0.0000000e+00 0.0000000e+00 
0.0000000e+00 0.0000000e+00 0.0000000e+00 
0.0000000e+00 0.0000000e+00 0.0000000e+00 
0.0000000e+00 0.0000000e+00 0.0000000e+00 
0.0000000e+00 0.0000000e+00 0.0000000e+00 
0.0000000e+00 0.0000000e+00 0.0000000e+00 
0.0000000e+00 0.0000000e+00 0.0000000e+00 
0.0000000e+00 0.0000000e+00 0.0000000e+00 
0.0000000e+00 0.0000000e+00 0.0000000e+00 
0.0000000e+00 0.0000000e+00 0.0000000e+00 
0.0000000e+00 0.0000000e+00 0.0000000e+00 
0.0000000e+00 0.0000000e+00 0.0000000e+00 
0.0000000e+00 0.0000000e+00 0.0000000e+00 
0.0000000e+00 0.0000000e+00 0.0000000e+00 
0.0000000e+00 0.0000000e+00 0.0000000e+00 
0.0000000e+00 0.0000000e+00 0.0000000e+00 
0.0000000e+00 0.0000000e+00 0.0000000e+00 
0.0000000e+00 0.0000000e+00 0.0000000e+00 
0.0000000e+00 0.0000000e+00 0.0000000e+00 
0.0000000e+00 0.0000000e+00 0.0000000e+00 
0.0000000e+00 0.0000000e+00 0.0000000e+00 
0.0000000e+00 0.0000000e+00 0.0000000e+00 
0.0000000e+00 0.0000000e+00 0.0000000e+00 
0.0000000e+00 0.0000000e+00 0.0000000e+00 
0.0000000e+00 0.0000000e+00 0.0000000e+00 
0.0000000e+00 0.0000000e+00 0.0000000e+00 
0.0000000e+00 0.0000000e+00 0.0000000e+00 
0.0000000e+00 0.0000000e+00 0.0000000e+00 
0.0000000e+00 0.0000000e+00 0.0000000e+00 
0.0000000e+00 0.0000000e+00 0.0000000e+00 
0.0000000e+00 0.0000000e+00 0.0000000e+00 
0.0000000e+00 2.0228219e-08 0.0000000e+00 
0.0000000e+00 -1.6410233e-06 0.0000000e+00 
0.0000000e+00 8.2437246e-08 0.0000000e+00 
0.0000000e+00 1.6648214e-07 0.0000000e+00 
0.0000000e+00 -5.5838473e-07 0.0000000e+00 
0.0000000e+00 1.8791834e-08 0.0000000e+00 
0.0000000e+00 4.3685851e-08 0.0000000e+00 
0.0000000e+00 -4.2934108e-08 0.0000000e+00 
0.0000000e+00 3.7482028e-08 0.0000000e+00 
0.0000000e+00 6.5922180e-08 0.0000000e+00 
0.0000000e+00 3.9960430e-08 0.0000000e+00 
0.0000000e+00 1.3717312e-07 0.0000000e+00 
0.0000000e+00 1.4440336e-07 0.0000000e+00 
0.0000000e+00 -3.4565173e-07 0.0000000e+00 
0.0000000e+00 8.7657162e-09 0.0000000e+00 
0.0000000e+00 -7.6373385e-07 0.0000000e+00 
0.0000000e+00 -1.0647273e-06 0.0000000e+00 
0.0000000e+00 9.9196367e-09 0.0000000e+00 
0.0000000e+00 1.0908497e-07 0.0000000e+00 
0.0000000e+00 -6.5003114e-08 0.0000000e+00 
0.0000000e+00 2.1149589e-08 0.0000000e+00 
0.0000000e+00 1.3341541e-07 0.0000000e+00 
0.0000000e+00 8.3547619e-08 0.0000000e+00 
0.0000000e+00 4.6181537e-08 0.0000000e+00 
0.0000000e+00 -6.0071613e-07 0.0000000e+00 
0.0000000e+00 -2.0513689e-06 0.0000000e+00 
0.0000000e+00 -8.3794151e-07 0.0000000e+00 
0.0000000e+00 1.1529529e-08 0.0000000e+00 
0.0000000e+00 4.8064752e-09 0.0000000e+00 
0.0000000e+00 -3.2157444e-05 0.0000000e+00 
0.0000000e+00 8.1138989e-09 0.0000000e+00 
0.0000000e+00 1.3638386e-08 0.0000000e+00 
0.0000000e+00 -2.0898758e-08 0.0000000e+00 
0.0000000e+00 -4.4001108e-06 0.0000000e+00 
0.0000000e+00 4.1216939e-08 0.0000000e+00 
0.0000000e+00 -4.0141796e-07 0.0000000e+00 
0.0000000e+00 -8.3284749e-06 0.0000000e+00 
0.0000000e+00 1.4533385e-08 0.0000000e+00 
0.0000000e+00 3.0647083e-08 0.0000000e+00 
0.0000000e+00 -2.0840899e-08 0.0000000e+00 
0.0000000e+00 -1.7456382e-06 0.0000000e+00 
0.0000000e+00 -9.7272618e-07 0.0000000e+00 
0.0000000e+00 -2.7986825e-05 0.0000000e+00 
0.0000000e+00 1.5808761e-08 0.0000000e+00 
0.0000000e+00 7.5021909e-09 0.0000000e+00 
0.0000000e+00 -9.5560254e-06 0.0000000e+00 
0.0000000e+00 -1.0282329e-07 0.0000000e+00 
0.0000000e+00 -1.1129107e-06 0.0000000e+00 
0.0000000e+00 -4.1138740e-10 0.0000000e+00 
0.0000000e+00 2.6185514e-08 0.0000000e+00 
0.0000000e+00 -3.4573673e-06 0.0000000e+00 
0.0000000e+00 -1.7103034e-07 0.0000000e+00 
0.0000000e+00 -1.2570727e-05 0.0000000e+00 
0.0000000e+00 1.7186375e-08 0.0000000e+00 
0.0000000e+00 -1.5462441e-05 0.0000000e+00 
0.0000000e+00 9.1477936e-09 0.0000000e+00 
0.0000000e+00 4.2038146e-09 0.0000000e+00 
0.0000000e+00 -5.7529793e-05 0.0000000e+00 
0.0000000e+00 -1.7763679e-05 0.0000000e+00 
0.0000000e+00 -3.2895568e-06 0.0000000e+00 
0.0000000e+00 -2.2473620e-05 0.0000000e+00 
0.0000000e+00 -8.1797400e-05 0.0000000e+00 
0.0000000e+00 -9.5710475e-06 0.0000000e+00 
0.0000000e+00 -8.6124501e-06 0.0000000e+00 
0.0000000e+00 -4.1002359e-06 0.0000000e+00 
0.0000000e+00 -6.0876126e-05 0.0000000e+00 
0.0000000e+00 -3.0820960e-05 0.0000000e+00 
0.0000000e+00 -1.0855571e-05 0.0000000e+00 
0.0000000e+00 -1.8012229e-06 0.0000000e+00 
0.0000000e+00 -3.8081857e-06 0.0000000e+00 
0.0000000e+00 -1.1550981e-04 0.0000000e+00 
0.0000000e+00 -2.6212954e-05 0.0000000e+00 
-6.1794779e-08 1.0601538e-07 2.9601523e-07 
-4.5872753e-07 -5.4952034e-07 1.5726805e-06 
-2.4936642e-06 -6.2483596e-06 6.0679731e-06 
-4.2311541e-09 3.7914656e-08 -1.0619108e-09 
-1.3303090e-08 8.0841048e-08 3.5247400e-08 
-1.4706676e-07 1.6712404e-07 2.4598714e-07 
-3.8122629e-09 5.2429360e-08 -1.4140622e-09 
-7.9668661e-07 -7.0568109e-07 1.0557083e-06 
-1.5078097e-09 1.7288647e-08 -4.7018691e-09 
-6.3360631e-06 -3.6938116e-05 1.3002088e-05 
-2.3837901e-10 1.3264147e-08 -4.9847784e-09 
-3.7019001e-06 -8.0192713e-06 1.4003003e-06 
-5.1155041e-07 -1.4879637e-07 6.9494774e-07 
-1.0734412e-06 -8.8079486e-07 1.8412401e-06 
-2.6277023e-06 -3.0989943e-06 3.3637978e-06 
-1.8453601e-06 -2.5146089e-06 2.4697401e-06 
-8.2935992e-07 -8.7276374e-07 1.4620260e-06 
-4.0926229e-06 -9.1958600e-06 4.2486004e-06 
-1.2788718e-06 -1.6281358e-06 3.1925777e-06 
-4.2241714e-07 -1.4900853e-07 1.0367831e-06 
-1.9517739e-07 9.0130030e-08 4.3012312e-07 
-2.3314618e-07 -2.2233428e-08 6.8120954e-07 
-9.6006247e-08 1.6721702e-07 3.4965126e-07 
-6.1166219e-08 1.9388635e-07 1.4673188e-07 
-4.6764935e-08 1.5822793e-07 1.2343047e-07 
-2.7783361e-08 1.1203649e-07 4.7858837e-08 
-1.3172648e-08 9.6679877e-08 4.1591239e-08 
-9.5253503e-09 7.6726828e-08 1.0813581e-08 
-1.0656206e-08 5.9503918e-08 1.1732500e-08 
-5.5534164e-09 4.2362295e-08 -3.9875694e-09 
-2.7691927e-09 3.0497823e-08 -3.2183156e-09 
-1.6647434e-07 1.0419506e-07 6.8226689e-07 
-3.3623243e-07 -1.7122240e-07 1.0126865e-06 
-3.2778757e-08 1.0128370e-07 6.5984217e-08 
-1.1169494e-08 9.9986089e-08 1.2075433e-08 
-5.2674018e-06 -1.8101884e-05 2.9557882e-06 
-4.0802281e-08 1.6159595e-07 1.9226687e-07 
-6.5645331e-08 1.8425361e-07 1.2011900e-07 
-5.3480337e-10 1.4397251e-08 -3.7528864e-09 
-2.1083156e-06 -2.7863020e-06 1.3520508e-06 
-2.6237922e-06 -5.0337599e-06 5.3278377e-06 
-3.7737661e-06 -1.2911480e-05 6.0725188e-06 
-2.6083350e-07 -4.2501682e-08 9.0054897e-07 
-2.4384583e-10 2.3049452e-08 -4.3560098e-09 
-6.9141937e-09 5.5967607e-08 9.5454782e-09 
-1.1092356e-08 7.5774388e-08 2.1318328e-08 
-2.4470973e-08 8.3465650e-08 8.5264418e-08 
-5.2318960e-08 1.0448383e-07 1.9007561e-07 
-9.0587082e-07 -1.0261426e-06 2.5456857e-06 
-1.5758006e-06 -3.3300289e-06 4.6806467e-06 
-8.9899282e-10 1.0772225e-08 -3.0543652e-09 
-1.7838444e-09 2.6801652e-08 -4.7152553e-09 
-4.9468485e-06 -6.7495246e-05 7.9894244e-06 
-1.7292643e-09 2.4833177e-08 -5.0037237e-09 
-6.9582899e-09 4.7799247e-08 1.1116809e-09 
-4.2473389e-06 -1.7945897e-05 1.0314662e-05 
-7.7857987e-07 -8.6768370e-07 2.0232956e-06 
-1.6040634e-09 2.1689923e-08 -5.1231801e-09 
-1.0216542e-07 9.2966040e-10 5.0106138e-07 
-3.9427068e-06 -6.9113416e-06 3.2938308e-06 
-1.8073791e-06 -3.7876989e-06 7.7345368e-07 
-4.3222897e-11 1.2144160e-08 -2.7081020e-09 
-3.4289471e-08 1.3447568e-07 6.2433898e-08 
-3.0560827e-09 3.2562031e-08 -3.7630494e-09 
-7.1025975e-06 -2.6053602e-05 8.1469843e-06 
-5.0445323e-07 -2.2306119e-07 1.1960711e-06 
-2.2619349e-09 3.4911675e-08 -3.3779579e-09 
-8.1896872e-09 7.0753259e-08 1.0055868e-08 
-8.8134161e-10 1.4680032e-08 -3.4152419e-09 
-7.7060271e-08 1.0462546e-07 3.6667763e-07 
-6.9356979e-06 -3.6628255e-05 6.6599446e-06 
-1.4398589e-09 3.3859909e-08 -1.1151613e-09 
-1.3537458e-09 2.3777314e-08 -3.4851808e-09 
-1.8653299e-09 4.3592035e-08 2.8061515e-09 
-3.0352594e-09 5.5524406e-08 9.7640473e-09 
-9.4701336e-10 1.5798600e-08 -3.1278355e-09 
-4.0702788e-09 5.5782444e-08 2.7473966e-08 
-1.9654141e-08 2.4149998e-08 7.5580239e-08 
-2.4420865e-08 -3.3901948e-08 1.5342783e-07 
-7.7598258e-08 -2.1472979e-07 5.0743688e-07 
-1.6417094e-07 -3.1053722e-07 1.0352858e-06 
-3.0708310e-07 -8.4204379e-07 1.6021719e-06 
-3.8976532e-07 -1.6813912e-06 2.5536090e-06 
-5.4254878e-07 -3.5096705e-06 3.9735442e-06 
-1.1513630e-06 -9.2780674e-06 5.6433246e-06 
-1.6323952e-06 -2.0908174e-05 8.8646620e-06 
-1.6765906e-06 -4.4904074e-05 9.8118244e-06 
-3.0496251e-06 -9.3675902e-05 6.6753719e-06 
-7.5909007e-10 9.8579314e-09 -2.1977793e-09 
1.1586252e-09 2.3960151e-08 4.0395604e-10 
3.8095433e-09 7.2346126e-08 -2.6365708e-08 
5.9913248e-08 5.6896674e-08 -4.1414842e-07 
5.9716371e-07 -2.1986054e-06 -2.0667878e-06 
2.5817687e-06 -1.5647724e-05 -6.0900002e-06 
1.5463184e-09 4.2164324e-08 -1.3607420e-09 
3.2356333e-08 1.0590601e-07 -6.7084066e-08 
2.5746220e-07 -1.9129270e-07 -7.0003171e-07 
-1.8083940e-08 1.1025494e-07 -3.3245836e-08 
-1.3762258e-10 4.7047418e-08 3.3863192e-09 
1.1070616e-10 1.4931834e-08 1.4904405e-09 
1.5678963e-06 -2.0829909e-06 -2.1585531e-06 
-1.4179427e-10 1.5504783e-08 2.6687617e-09 
4.4077659e-08 -5.3936776e-07 -3.9165243e-07 
1.4532485e-07 -7.3026708e-06 -2.9401881e-06 
-5.4540732e-09 7.6187561e-08 5.2367080e-09 
1.4140269e-08 1.6009037e-07 -1.4075691e-08 
2.2364193e-09 5.5373732e-08 2.1844824e-09 
-8.4509875e-09 5.2291789e-08 -4.5977604e-09 
-9.1506536e-09 8.2267753e-08 -1.3468134e-07 
-9.5191507e-11 2.9931076e-08 1.6533175e-09 
1.0291483e-07 9.4541335e-08 -1.6919225e-07 
1.7241202e-06 -3.5888796e-05 -9.5876012e-06 
-1.8569878e-10 1.5033919e-08 3.4032279e-09 
1.3381726e-06 -3.7798479e-06 -7.1725395e-07 
3.2803611e-09 2.5062429e-08 -1.1010470e-08 
1.1145852e-07 1.5094143e-08 -3.7414972e-07 
9.7249853e-10 2.1502739e-08 -1.4988899e-09 
1.7500046e-09 3.8093919e-08 -2.7272719e-08 
-2.0824152e-10 9.8575242e-08 1.2150624e-08 
1.8309501e-07 -1.5000710e-07 -1.4584900e-07 
-1.5767479e-07 -1.1701570e-06 -2.8710772e-07 
-3.0452469e-07 -1.6051430e-06 -1.8153289e-08 
-6.2166116e-08 3.1012767e-08 1.4399965e-08 
2.7503359e-06 -8.3296000e-06 -2.1031358e-06 
1.9037398e-07 -5.9079898e-06 -1.8100556e-06 
9.3112282e-11 8.7100664e-09 1.1878770e-09 
6.9695107e-09 8.2341273e-08 5.6605065e-10 
2.3831212e-10 8.5393674e-09 1.3550062e-09 
1.4872607e-07 -6.1102253e-07 -1.0445507e-06 
-8.7482297e-09 4.8982763e-08 -6.7036709e-08 
2.5448810e-06 -2.1872873e-05 -1.8314468e-06 
7.5997588e-07 -5.0573972e-06 -4.5172415e-06 
-6.9115087e-09 1.1397161e-07 2.4194337e-08 
-1.5636960e-10 1.9618151e-08 2.1910884e-09 
1.4134867e-08 1.9167383e-07 -2.4840565e-08 
5.3283782e-09 2.9932206e-08 -2.4379951e-09 
1.3938013e-06 -2.8736781e-06 -2.5979166e-06 
-7.5987211e-10 3.5113800e-08 2.5411435e-09 
6.2755481e-09 -8.0832070e-09 -2.3817067e-07 
-6.9217115e-10 3.5988766e-08 3.2573704e-09 
6.8655532e-07 -6.8146994e-07 -9.1041653e-07 
3.1523555e-07 -1.7330643e-05 -1.3969924e-06 
-1.3751381e-07 -2.9392888e-07 1.6155225e-07 
1.9060936e-08 -7.0964113e-08 -3.0339177e-07 
2.2249027e-07 -2.8770307e-07 -8.2077133e-07 
2.2999623e-06 -1.8031056e-05 -6.2145205e-06 
-1.2880434e-10 1.2166861e-08 1.6056712e-09 
-6.7015202e-09 1.4772120e-07 1.9102508e-08 
1.5004394e-08 4.6469104e-08 -2.9207250e-08 
-1.4275615e-08 1.8369063e-07 4.6626166e-08 
2.7793783e-07 -8.9143761e-08 -4.1115641e-07 
-8.2176554e-10 3.9678959e-08 3.5701599e-09 
-7.1817061e-07 -1.6472675e-05 -1.6656221e-06 
2.3858748e-08 4.5577231e-08 -9.1955805e-08 
-9.6141576e-08 -1.1039391e-06 2.6436891e-07 