# vtk DataFile Version 4.0
vtk output
ASCII
DATASET UNSTRUCTURED_GRID
POINTS 460 float
0.0000000e+00 0.0000000e+00 0.0000000e+00 
5.0000000e+00 0.0000000e+00 0.0000000e+00 
5.0000000e+00 3.0000000e+00 0.0000000e+00 
0.0000000e+00 3.0000000e+00 0.0000000e+00 
0.0000000e+00 0.0000000e+00 1.0000000e+01 
5.0000000e+00 0.0000000e+00 1.0000000e+01 
5.0000000e+00 3.0000000e+00 1.0000000e+01 
0.0000000e+00 3.0000000e+00 1.0000000e+01 
1.0000000e+00 3.0000000e+00 -5.0000000e+00 
1.0000000e+00 3.0000000e+00 -4.5000000e+00 
1.0000000e+00 3.0000000e+00 -4.0000000e+00 
1.0000000e+00 3.0000000e+00 -3.5000000e+00 
1.0000000e+00 3.0000000e+00 -3.0000000e+00 
1.0000000e+00 3.0000000e+00 -2.5000000e+00 
1.0000000e+00 3.0000000e+00 -2.0000000e+00 
1.0000000e+00 3.0000000e+00 -1.5000000e+00 
1.0000000e+00 3.0000000e+00 -1.0000000e+00 
1.0000000e+00 3.0000000e+00 -5.0000000e-01 
1.0000000e+00 3.0000000e+00 0.0000000e+00 
1.0000000e+00 3.0000000e+00 5.0000000e-01 
1.0000000e+00 3.0000000e+00 1.0000000e+00 
1.0000000e+00 3.0000000e+00 1.5000000e+00 
1.0000000e+00 3.0000000e+00 2.0000000e+00 
1.0000000e+00 3.0000000e+00 2.5000000e+00 
1.0000000e+00 3.0000000e+00 3.0000000e+00 
1.0000000e+00 3.0000000e+00 3.5000000e+00 
1.0000000e+00 3.0000000e+00 4.0000000e+00 
1.0000000e+00 3.0000000e+00 4.5000000e+00 
1.0000000e+00 3.0000000e+00 5.0000000e+00 
1.0000000e+00 3.0000000e+00 5.5000000e+00 
1.0000000e+00 3.0000000e+00 6.0000000e+00 
1.0000000e+00 3.0000000e+00 6.5000000e+00 
1.0000000e+00 3.0000000e+00 7.0000000e+00 
1.0000000e+00 3.0000000e+00 7.5000000e+00 
1.0000000e+00 3.0000000e+00 8.0000000e+00 
1.0000000e+00 3.0000000e+00 8.5000000e+00 
1.0000000e+00 3.0000000e+00 9.0000000e+00 
1.0000000e+00 3.0000000e+00 9.5000000e+00 
1.0000000e+00 3.0000000e+00 1.0000000e+01 
1.0000000e+00 3.0000000e+00 1.0500000e+01 
1.0000000e+00 3.0000000e+00 1.1000000e+01 
1.0000000e+00 3.0000000e+00 1.1500000e+01 
1.0000000e+00 3.0000000e+00 1.2000000e+01 
1.0000000e+00 3.0000000e+00 1.2500000e+01 
1.0000000e+00 3.0000000e+00 1.3000000e+01 
1.0000000e+00 3.0000000e+00 1.3500000e+01 
1.0000000e+00 3.0000000e+00 1.4000000e+01 
1.0000000e+00 3.0000000e+00 1.4500000e+01 
1.0000000e+00 3.0250001e+00 -5.0000000e+00 
1.0000000e+00 3.0250001e+00 -4.5000000e+00 
1.0000000e+00 3.0250001e+00 -4.0000000e+00 
1.0000000e+00 3.0250001e+00 -3.5000000e+00 
1.0000000e+00 3.0250001e+00 -3.0000000e+00 
1.0000000e+00 3.0250001e+00 -2.5000000e+00 
1.0000000e+00 3.0250001e+00 -2.0000000e+00 
1.0000000e+00 3.0250001e+00 -1.5000000e+00 
1.0000000e+00 3.0250001e+00 -1.0000000e+00 
1.0000000e+00 3.0250001e+00 -5.0000000e-01 
1.0000000e+00 3.0250001e+00 0.0000000e+00 
1.0000000e+00 3.0250001e+00 5.0000000e-01 
1.0000000e+00 3.0250001e+00 1.0000000e+00 
1.0000000e+00 3.0250001e+00 1.5000000e+00 
1.0000000e+00 3.0250001e+00 2.0000000e+00 
1.0000000e+00 3.0250001e+00 2.5000000e+00 
1.0000000e+00 3.0250001e+00 3.0000000e+00 
1.0000000e+00 3.0250001e+00 3.5000000e+00 
1.0000000e+00 3.0250001e+00 4.0000000e+00 
1.0000000e+00 3.0250001e+00 4.5000000e+00 
1.0000000e+00 3.0250001e+00 5.0000000e+00 
1.0000000e+00 3.0250001e+00 5.5000000e+00 
1.0000000e+00 3.0250001e+00 6.0000000e+00 
1.0000000e+00 3.0250001e+00 6.5000000e+00 
1.0000000e+00 3.0250001e+00 7.0000000e+00 
1.0000000e+00 3.0250001e+00 7.5000000e+00 
1.0000000e+00 3.0250001e+00 8.0000000e+00 
1.0000000e+00 3.0250001e+00 8.5000000e+00 
1.0000000e+00 3.0250001e+00 9.0000000e+00 
1.0000000e+00 3.0250001e+00 9.5000000e+00 
1.0000000e+00 3.0250001e+00 1.0000000e+01 
1.0000000e+00 3.0250001e+00 1.0500000e+01 
1.0000000e+00 3.0250001e+00 1.1000000e+01 
1.0000000e+00 3.0250001e+00 1.1500000e+01 
1.0000000e+00 3.0250001e+00 1.2000000e+01 
1.0000000e+00 3.0250001e+00 1.2500000e+01 
1.0000000e+00 3.0250001e+00 1.3000000e+01 
1.0000000e+00 3.0250001e+00 1.3500000e+01 
1.0000000e+00 3.0250001e+00 1.4000000e+01 
1.0000000e+00 3.0250001e+00 1.4500000e+01 
1.0000000e+00 -2.0000000e+00 -5.0000000e+00 
1.0000000e+00 -2.0000000e+00 -4.5000000e+00 
1.0000000e+00 -2.0000000e+00 -4.0000000e+00 
1.0000000e+00 -2.0000000e+00 -3.5000000e+00 
1.0000000e+00 -2.0000000e+00 -3.0000000e+00 
1.0000000e+00 -2.0000000e+00 -2.5000000e+00 
1.0000000e+00 -2.0000000e+00 -2.0000000e+00 
1.0000000e+00 -2.0000000e+00 -1.5000000e+00 
1.0000000e+00 -2.0000000e+00 -1.0000000e+00 
1.0000000e+00 -2.0000000e+00 -5.0000000e-01 
1.0000000e+00 -2.0000000e+00 1.0500000e+01 
1.0000000e+00 -2.0000000e+00 1.1000000e+01 
1.0000000e+00 -2.0000000e+00 1.1500000e+01 
1.0000000e+00 -2.0000000e+00 1.2000000e+01 
1.0000000e+00 -2.0000000e+00 1.2500000e+01 
1.0000000e+00 -2.0000000e+00 1.3000000e+01 
1.0000000e+00 -2.0000000e+00 1.3500000e+01 
1.0000000e+00 -2.0000000e+00 1.4000000e+01 
1.0000000e+00 -2.0000000e+00 1.4500000e+01 
1.0000000e+00 0.0000000e+00 0.0000000e+00 
2.0000000e+00 0.0000000e+00 0.0000000e+00 
3.0000000e+00 0.0000000e+00 0.0000000e+00 
4.0000000e+00 0.0000000e+00 0.0000000e+00 
5.0000000e+00 1.0000000e+00 0.0000000e+00 
5.0000000e+00 2.0000000e+00 0.0000000e+00 
0.0000000e+00 2.0000000e+00 0.0000000e+00 
0.0000000e+00 1.0000000e+00 0.0000000e+00 
0.0000000e+00 0.0000000e+00 1.0000000e+00 
0.0000000e+00 0.0000000e+00 2.0000000e+00 
0.0000000e+00 0.0000000e+00 3.0000000e+00 
0.0000000e+00 0.0000000e+00 4.0000000e+00 
0.0000000e+00 0.0000000e+00 5.0000000e+00 
0.0000000e+00 0.0000000e+00 6.0000000e+00 
0.0000000e+00 0.0000000e+00 7.0000000e+00 
0.0000000e+00 0.0000000e+00 8.0000000e+00 
0.0000000e+00 0.0000000e+00 9.0000000e+00 
5.0000000e+00 0.0000000e+00 1.0000000e+00 
5.0000000e+00 0.0000000e+00 2.0000000e+00 
5.0000000e+00 0.0000000e+00 3.0000000e+00 
5.0000000e+00 0.0000000e+00 4.0000000e+00 
5.0000000e+00 0.0000000e+00 5.0000000e+00 
5.0000000e+00 0.0000000e+00 6.0000000e+00 
5.0000000e+00 0.0000000e+00 7.0000000e+00 
5.0000000e+00 0.0000000e+00 8.0000000e+00 
5.0000000e+00 0.0000000e+00 9.0000000e+00 
1.0000000e+00 0.0000000e+00 1.0000000e+01 
2.0000000e+00 0.0000000e+00 1.0000000e+01 
3.0000000e+00 0.0000000e+00 1.0000000e+01 
4.0000000e+00 0.0000000e+00 1.0000000e+01 
5.0000000e+00 3.0000000e+00 1.0000000e+00 
5.0000000e+00 3.0000000e+00 2.0000000e+00 
5.0000000e+00 3.0000000e+00 3.0000000e+00 
5.0000000e+00 3.0000000e+00 4.0000000e+00 
5.0000000e+00 3.0000000e+00 5.0000000e+00 
5.0000000e+00 3.0000000e+00 6.0000000e+00 
5.0000000e+00 3.0000000e+00 7.0000000e+00 
5.0000000e+00 3.0000000e+00 8.0000000e+00 
5.0000000e+00 3.0000000e+00 9.0000000e+00 
5.0000000e+00 1.0000000e+00 1.0000000e+01 
5.0000000e+00 2.0000000e+00 1.0000000e+01 
0.0000000e+00 3.0000000e+00 1.0000000e+00 
0.0000000e+00 3.0000000e+00 2.0000000e+00 
0.0000000e+00 3.0000000e+00 3.0000000e+00 
0.0000000e+00 3.0000000e+00 4.0000000e+00 
0.0000000e+00 3.0000000e+00 5.0000000e+00 
0.0000000e+00 3.0000000e+00 6.0000000e+00 
0.0000000e+00 3.0000000e+00 7.0000000e+00 
0.0000000e+00 3.0000000e+00 8.0000000e+00 
0.0000000e+00 3.0000000e+00 9.0000000e+00 
0.0000000e+00 2.0000000e+00 1.0000000e+01 
0.0000000e+00 1.0000000e+00 1.0000000e+01 
4.0000000e+00 3.0000000e+00 0.0000000e+00 
3.0000000e+00 3.0000000e+00 0.0000000e+00 
2.0000000e+00 3.0000000e+00 0.0000000e+00 
4.0000000e+00 3.0000000e+00 1.0000000e+01 
3.0000000e+00 3.0000000e+00 1.0000000e+01 
2.0000000e+00 3.0000000e+00 1.0000000e+01 
4.0618000e+00 1.5000000e+00 0.0000000e+00 
1.5046000e+00 7.6549745e-01 0.0000000e+00 
2.5000000e+00 2.1339746e+00 0.0000000e+00 
1.5046000e+00 2.2345026e+00 0.0000000e+00 
2.4957771e+00 8.1560516e-01 0.0000000e+00 
3.4707544e+00 2.2336540e+00 0.0000000e+00 
3.4700506e+00 7.5794268e-01 0.0000000e+00 
8.6322361e-01 1.5000000e+00 0.0000000e+00 
2.0000000e+00 1.5000000e+00 0.0000000e+00 
2.9960666e+00 1.4974480e+00 0.0000000e+00 
4.2679491e+00 7.3205084e-01 0.0000000e+00 
4.2679491e+00 2.2679491e+00 0.0000000e+00 
7.2695929e-01 2.2730408e+00 0.0000000e+00 
7.2695929e-01 7.2695929e-01 0.0000000e+00 
4.1822505e+00 0.0000000e+00 2.5515697e+00 
4.2017918e+00 0.0000000e+00 4.4725966e+00 
4.1114569e+00 0.0000000e+00 6.5092020e+00 
8.6602539e-01 0.0000000e+00 3.5000000e+00 
8.4778279e-01 0.0000000e+00 5.4684029e+00 
8.9629614e-01 0.0000000e+00 7.5867257e+00 
2.5566745e+00 0.0000000e+00 8.1853306e-01 
2.4918270e+00 0.0000000e+00 9.1386929e+00 
8.4677207e-01 0.0000000e+00 1.5042374e+00 
4.0943027e+00 0.0000000e+00 8.4081745e+00 
8.6281651e-01 0.0000000e+00 2.5007062e+00 
1.7315160e+00 0.0000000e+00 3.0001178e+00 
1.7319617e+00 0.0000000e+00 4.0000196e+00 
2.5980761e+00 0.0000000e+00 3.5000000e+00 
2.5536871e+00 0.0000000e+00 4.4963923e+00 
2.5928419e+00 0.0000000e+00 2.4239938e+00 
1.5037409e+00 0.0000000e+00 9.1535149e+00 
1.8433737e+00 0.0000000e+00 8.1858873e+00 
3.0000000e+00 0.0000000e+00 8.2679491e+00 
2.5000000e+00 0.0000000e+00 7.4019237e+00 
3.5042722e+00 0.0000000e+00 7.4271150e+00 
3.0310018e+00 0.0000000e+00 6.5282087e+00 
2.0373929e+00 0.0000000e+00 6.5307913e+00 
3.4767809e+00 0.0000000e+00 5.8031492e+00 
2.5452602e+00 0.0000000e+00 5.5720768e+00 
1.6456656e+00 0.0000000e+00 1.9697139e+00 
8.6297011e-01 0.0000000e+00 4.4947371e+00 
1.0111579e+00 0.0000000e+00 6.5282545e+00 
3.4994321e+00 0.0000000e+00 8.4691072e-01 
4.1860156e+00 0.0000000e+00 3.5040276e+00 
1.7320508e+00 0.0000000e+00 5.0000000e+00 
4.0544066e+00 0.0000000e+00 1.5781221e+00 
1.5817389e+00 0.0000000e+00 9.3943578e-01 
8.3166349e-01 0.0000000e+00 8.5090933e+00 
3.4686174e+00 0.0000000e+00 9.1752682e+00 
3.0709300e+00 0.0000000e+00 1.5799091e+00 
3.3927374e+00 0.0000000e+00 3.0399952e+00 
3.3826034e+00 0.0000000e+00 3.9747651e+00 
4.3420062e+00 0.0000000e+00 7.4688983e+00 
3.4023225e+00 0.0000000e+00 4.9314723e+00 
1.6740381e+00 0.0000000e+00 7.3014426e+00 
4.2715640e+00 0.0000000e+00 5.4758859e+00 
1.6225953e+00 0.0000000e+00 5.8104177e+00 
4.2679491e+00 0.0000000e+00 9.2679491e+00 
7.3205084e-01 0.0000000e+00 7.3205084e-01 
4.2679491e+00 0.0000000e+00 7.3205084e-01 
7.3205084e-01 0.0000000e+00 9.2679491e+00 
3.4586334e+00 0.0000000e+00 2.2347178e+00 
2.2895701e+00 0.0000000e+00 1.5463171e+00 
5.0000000e+00 2.2345026e+00 1.5046000e+00 
[...]
POINT_DATA 460
FIELD FieldData 5
DISPLACEMENT 3 460  float
0.0000000e+00 0.0000000e+00 0.0000000e+00 
0.0000000e+00 0.0000000e+00 0.0000000e+00 
0.0000000e+00 5.4298704e-07 0.0000000e+00 
0.0000000e+00 5.1036500e-06 0.0000000e+00 
0.0000000e+00 0.0000000e+00 0.0000000e+00 
0.0000000e+00 0.0000000e+00 0.0000000e+00 
0.0000000e+00 -3.9224346e-06 0.0000000e+00 
0.0000000e+00 -7.7895231e-05 0.0000000e+00 
0.0000000e+00 1.2253678e-05 0.0000000e+00 
0.0000000e+00 1.2204206e-05 0.0000000e+00 
0.0000000e+00 9.9191184e-06 0.0000000e+00 
0.0000000e+00 9.1931315e-06 0.0000000e+00 
0.0000000e+00 8.2405286e-06 0.0000000e+00 
0.0000000e+00 4.8859520e-06 0.0000000e+00 
0.0000000e+00 2.3443713e-06 0.0000000e+00 
0.0000000e+00 2.1822943e-06 0.0000000e+00 
0.0000000e+00 5.5870905e-06 0.0000000e+00 
0.0000000e+00 1.4835775e-05 0.0000000e+00 
0.0000000e+00 1.9001769e-05 0.0000000e+00 
9.6007433e-08 1.4493690e-05 7.9684486e-07 
-3.0955425e-07 9.5684736e-06 1.7052409e-06 
-9.4371507e-07 3.4364643e-06 2.1841593e-06 
-7.2135941e-07 -7.7985133e-06 3.3646625e-06 
-6.4828960e-08 -2.1860498e-05 6.0418239e-07 
-4.2784561e-07 -2.5073454e-05 -1.2285417e-06 
-1.7688583e-06 -1.7676817e-05 -3.4823750e-06 
-4.8629926e-07 -5.9666136e-06 -3.0573231e-06 
-1.8537642e-07 5.4106640e-06 -4.1701564e-06 
-2.6056202e-07 1.4012682e-05 -1.1728469e-06 
-1.0978521e-06 1.5844293e-05 2.4259111e-06 
-1.0759221e-06 9.1200354e-06 3.9322736e-06 
-2.7467815e-06 -4.0772588e-06 7.5859157e-06 
-2.2516035e-06 -2.6495962e-05 1.2062519e-05 
-2.8637294e-06 -5.7421719e-05 1.0437215e-05 
-3.4345480e-06 -9.4730101e-05 8.3990517e-06 
-1.6956506e-06 -1.6024351e-04 1.4403003e-05 
-1.1917555e-05 -2.0033948e-04 3.9494989e-06 
-4.2812567e-06 -1.7200997e-04 9.0832473e-06 
0.0000000e+00 -1.2709016e-04 0.0000000e+00 
0.0000000e+00 -8.2205122e-05 0.0000000e+00 
0.0000000e+00 -4.1041498e-05 0.0000000e+00 
0.0000000e+00 -1.2220568e-05 0.0000000e+00 
0.0000000e+00 4.0018763e-06 0.0000000e+00 
0.0000000e+00 1.1188972e-05 0.0000000e+00 
0.0000000e+00 1.3096200e-05 0.0000000e+00 
0.0000000e+00 9.6132562e-06 0.0000000e+00 
0.0000000e+00 1.3595511e-06 0.0000000e+00 
0.0000000e+00 -3.0313120e-06 0.0000000e+00 
0.0000000e+00 1.2292435e-05 0.0000000e+00 
0.0000000e+00 1.2243262e-05 0.0000000e+00 
0.0000000e+00 9.9514336e-06 0.0000000e+00 
0.0000000e+00 9.2279770e-06 0.0000000e+00 
0.0000000e+00 8.2722818e-06 0.0000000e+00 
0.0000000e+00 4.9000946e-06 0.0000000e+00 
0.0000000e+00 2.3467742e-06 0.0000000e+00 
0.0000000e+00 2.1845578e-06 0.0000000e+00 
0.0000000e+00 5.6055669e-06 0.0000000e+00 
0.0000000e+00 1.4895081e-05 0.0000000e+00 
0.0000000e+00 1.9240590e-05 0.0000000e+00 
0.0000000e+00 1.4672220e-05 0.0000000e+00 
0.0000000e+00 9.7596321e-06 0.0000000e+00 
0.0000000e+00 3.5216528e-06 0.0000000e+00 
0.0000000e+00 -7.8830517e-06 0.0000000e+00 
0.0000000e+00 -2.2300876e-05 0.0000000e+00 
0.0000000e+00 -2.5608839e-05 0.0000000e+00 
0.0000000e+00 -1.7889961e-05 0.0000000e+00 
0.0000000e+00 -6.0975417e-06 0.0000000e+00 
0.0000000e+00 5.5341620e-06 0.0000000e+00 
0.0000000e+00 1.4298885e-05 0.0000000e+00 
0.0000000e+00 1.6151698e-05 0.0000000e+00 
0.0000000e+00 9.3951394e-06 0.0000000e+00 
0.0000000e+00 -3.8736221e-06 0.0000000e+00 
0.0000000e+00 -2.6494865e-05 0.0000000e+00 
0.0000000e+00 -5.7732173e-05 0.0000000e+00 
0.0000000e+00 -9.5461139e-05 0.0000000e+00 
0.0000000e+00 -1.6175178e-04 0.0000000e+00 
0.0000000e+00 -2.0398266e-04 0.0000000e+00 
0.0000000e+00 -1.7543214e-04 0.0000000e+00 
0.0000000e+00 -1.2734820e-04 0.0000000e+00 
0.0000000e+00 -8.2514372e-05 0.0000000e+00 
0.0000000e+00 -4.1186653e-05 0.0000000e+00 
0.0000000e+00 -1.2250053e-05 0.0000000e+00 
0.0000000e+00 4.0346549e-06 0.0000000e+00 
0.0000000e+00 1.1244680e-05 0.0000000e+00 
0.0000000e+00 1.3152507e-05 0.0000000e+00 
0.0000000e+00 9.6486556e-06 0.0000000e+00 
0.0000000e+00 1.3567713e-06 0.0000000e+00 
0.0000000e+00 -3.0534131e-06 0.0000000e+00 
0.0000000e+00 0.0000000e+00 0.0000000e+00 
0.0000000e+00 0.0000000e+00 0.0000000e+00 
0.0000000e+00 0.0000000e+00 0.0000000e+00 
0.0000000e+00 0.0000000e+00 0.0000000e+00 
0.0000000e+00 0.0000000e+00 0.0000000e+00 
0.0000000e+00 0.0000000e+00 0.0000000e+00 
0.0000000e+00 0.0000000e+00 0.0000000e+00 
0.0000000e+00 0.0000000e+00 0.0000000e+00 
0.0000000e+00 0.0000000e+00 0.0000000e+00 
0.0000000e+00 0.0000000e+00 0.0000000e+00 
0.0000000e+00 0.0000000e+00 0.0000000e+00 
0.0000000e+00 0.0000000e+00 0.0000000e+00 
0.0000000e+00 0.0000000e+00 0.0000000e+00 
0.0000000e+00 0.0000000e+00 0.0000000e+00 
0.0000000e+00 0.0000000e+00 0.0000000e+00 
0.0000000e+00 0.0000000e+00 0.0000000e+00 
0.0000000e+00 0.0000000e+00 0.0000000e+00 
0.0000000e+00 0.0000000e+00 0.0000000e+00 
0.0000000e+00 0.0000000e+00 0.0000000e+00 
0.0000000e+00 0.0000000e+00 0.0000000e+00 
0.0000000e+00 0.0000000e+00 0.0000000e+00 
0.0000000e+00 0.0000000e+00 0.0000000e+00 
0.0000000e+00 0.0000000e+00 0.0000000e+00 
0.0000000e+00 3.1695822e-07 0.0000000e+00 
0.0000000e+00 5.1550688e-07 0.0000000e+00 
0.0000000e+00 4.2600859e-06 0.0000000e+00 
0.0000000e+00 1.8292247e-06 0.0000000e+00 
0.0000000e+00 0.0000000e+00 0.0000000e+00 
0.0000000e+00 0.0000000e+00 0.0000000e+00 
0.0000000e+00 0.0000000e+00 0.0000000e+00 
0.0000000e+00 0.0000000e+00 0.0000000e+00 
0.0000000e+00 0.0000000e+00 0.0000000e+00 
0.0000000e+00 0.0000000e+00 0.0000000e+00 
0.0000000e+00 0.0000000e+00 0.0000000e+00 
0.0000000e+00 0.0000000e+00 0.0000000e+00 
0.0000000e+00 0.0000000e+00 0.0000000e+00 
0.0000000e+00 0.0000000e+00 0.0000000e+00 
0.0000000e+00 0.0000000e+00 0.0000000e+00 
0.0000000e+00 0.0000000e+00 0.0000000e+00 
0.0000000e+00 0.0000000e+00 0.0000000e+00 
0.0000000e+00 0.0000000e+00 0.0000000e+00 
0.0000000e+00 0.0000000e+00 0.0000000e+00 
0.0000000e+00 0.0000000e+00 0.0000000e+00 
0.0000000e+00 0.0000000e+00 0.0000000e+00 
0.0000000e+00 0.0000000e+00 0.0000000e+00 
0.0000000e+00 0.0000000e+00 0.0000000e+00 
0.0000000e+00 0.0000000e+00 0.0000000e+00 
0.0000000e+00 0.0000000e+00 0.0000000e+00 
0.0000000e+00 0.0000000e+00 0.0000000e+00 
0.0000000e+00 3.5473150e-07 0.0000000e+00 
0.0000000e+00 2.7739725e-07 0.0000000e+00 
0.0000000e+00 2.3605907e-07 0.0000000e+00 
0.0000000e+00 4.3747860e-07 0.0000000e+00 
0.0000000e+00 2.4028395e-07 0.0000000e+00 
0.0000000e+00 -1.6486253e-07 0.0000000e+00 
0.0000000e+00 -1.4633894e-06 0.0000000e+00 
0.0000000e+00 -2.0092991e-06 0.0000000e+00 
0.0000000e+00 -3.7431480e-06 0.0000000e+00 
0.0000000e+00 -2.1684759e-06 0.0000000e+00 
0.0000000e+00 -3.6339375e-06 0.0000000e+00 
0.0000000e+00 3.6288764e-06 0.0000000e+00 
0.0000000e+00 -4.7607018e-06 0.0000000e+00 
0.0000000e+00 -9.1709917e-06 0.0000000e+00 
0.0000000e+00 -3.6423937e-06 0.0000000e+00 
0.0000000e+00 1.8141041e-06 0.0000000e+00 
0.0000000e+00 -1.1912449e-06 0.0000000e+00 
0.0000000e+00 -2.3597064e-05 0.0000000e+00 
0.0000000e+00 -5.3026393e-05 0.0000000e+00 
0.0000000e+00 -8.1957252e-05 0.0000000e+00 
0.0000000e+00 -6.2485793e-05 0.0000000e+00 
0.0000000e+00 -3.0506200e-05 0.0000000e+00 
0.0000000e+00 6.5082992e-07 0.0000000e+00 
0.0000000e+00 1.1591286e-06 0.0000000e+00 
0.0000000e+00 2.6938919e-06 0.0000000e+00 
0.0000000e+00 -6.6675384e-06 0.0000000e+00 
0.0000000e+00 -1.7251316e-05 0.0000000e+00 
0.0000000e+00 -4.3965149e-05 0.0000000e+00 
0.0000000e+00 5.0743103e-07 0.0000000e+00 
0.0000000e+00 1.1958808e-06 0.0000000e+00 
0.0000000e+00 1.8830980e-06 0.0000000e+00 
0.0000000e+00 5.5331247e-06 0.0000000e+00 
0.0000000e+00 8.2821737e-07 0.0000000e+00 
0.0000000e+00 9.4253323e-07 0.0000000e+00 
0.0000000e+00 2.9536236e-07 0.0000000e+00 
0.0000000e+00 3.8774101e-06 0.0000000e+00 
0.0000000e+00 2.2635520e-06 0.0000000e+00 
0.0000000e+00 1.0327947e-06 0.0000000e+00 
0.0000000e+00 3.5788386e-07 0.0000000e+00 
0.0000000e+00 6.5892010e-07 0.0000000e+00 
0.0000000e+00 7.8940866e-06 0.0000000e+00 
0.0000000e+00 1.7196393e-06 0.0000000e+00 
0.0000000e+00 0.0000000e+00 0.0000000e+00 
0.0000000e+00 0.0000000e+00 0.0000000e+00 
0.0000000e+00 0.0000000e+00 0.0000000e+00 
0.0000000e+00 0.0000000e+00 0.0000000e+00 
0.0000000e+00 0.0000000e+00 0.0000000e+00 
0.0000000e+00 0.0000000e+00 0.0000000e+00 
0.0000000e+00 0.0000000e+00 0.0000000e+00 
0.0000000e+00 0.0000000e+00 0.0000000e+00 
0.0000000e+00 0.0000000e+00 0.0000000e+00 
0.0000000e+00 0.0000000e+00 0.0000000e+00 
0.0000000e+00 0.0000000e+00 0.0000000e+00 
0.0000000e+00 0.0000000e+00 0.0000000e+00 
0.0000000e+00 0.0000000e+00 0.0000000e+00 
0.0000000e+00 0.0000000e+00 0.0000000e+00 
0.0000000e+00 0.0000000e+00 0.0000000e+00 
0.0000000e+00 0.0000000e+00 0.0000000e+00 
0.0000000e+00 0.0000000e+00 0.0000000e+00 
0.0000000e+00 0.0000000e+00 0.0000000e+00 
0.0000000e+00 0.0000000e+00 0.0000000e+00 
0.0000000e+00 0.0000000e+00 0.0000000e+00 
0.0000000e+00 0.0000000e+00 0.0000000e+00 
0.0000000e+00 0.0000000e+00 0.0000000e+00 
0.0000000e+00 0.0000000e+00 0.0000000e+00 
0.0000000e+00 0.0000000e+00 0.0000000e+00 
0.0000000e+00 0.0000000e+00 0.0000000e+00 
0.0000000e+00 0.0000000e+00 0.0000000e+00 
0.0000000e+00 0.0000000e+00 0.0000000e+00 
0.0000000e+00 0.0000000e+00 0.0000000e+00 
0.0000000e+00 0.0000000e+00 0.0000000e+00 
0.0000000e+00 0.0000000e+00 0.0000000e+00 
0.0000000e+00 0.0000000e+00 0.0000000e+00 
0.0000000e+00 0.0000000e+00 0.0000000e+00 
0.0000000e+00 0.0000000e+00 0.0000000e+00 
0.0000000e+00 0.0000000e+00 0.0000000e+00 
0.0000000e+00 0.0000000e+00 0.0000000e+00 
0.0000000e+00 0.0000000e+00 0.0000000e+00 
0.0000000e+00 0.0000000e+00 0.0000000e+00 
0.0000000e+00 0.0000000e+00 0.0000000e+00 
0.0000000e+00 0.0000000e+00 0.0000000e+00 
0.0000000e+00 0.0000000e+00 0.0000000e+00 
0.0000000e+00 0.0000000e+00 0.0000000e+00 
0.0000000e+00 0.0000000e+00 0.0000000e+00 
0.0000000e+00 0.0000000e+00 0.0000000e+00 
0.0000000e+00 0.0000000e+00 0.0000000e+00 
0.0000000e+00 0.0000000e+00 0.0000000e+00 
0.0000000e+00 0.0000000e+00 0.0000000e+00 
0.0000000e+00 0.0000000e+00 0.0000000e+00 
0.0000000e+00 0.0000000e+00 0.0000000e+00 
0.0000000e+00 0.0000000e+00 0.0000000e+00 
0.0000000e+00 3.0555097e-07 0.0000000e+00 
0.0000000e+00 -2.5948086e-06 0.0000000e+00 
0.0000000e+00 3.4464122e-07 0.0000000e+00 
0.0000000e+00 1.4123206e-07 0.0000000e+00 
0.0000000e+00 -1.3981943e-06 0.0000000e+00 
0.0000000e+00 8.8817458e-08 0.0000000e+00 
0.0000000e+00 5.6817431e-08 0.0000000e+00 
0.0000000e+00 -3.5021401e-07 0.0000000e+00 
0.0000000e+00 1.1544385e-07 0.0000000e+00 
0.0000000e+00 5.1345463e-08 0.0000000e+00 
0.0000000e+00 2.3140416e-07 0.0000000e+00 
0.0000000e+00 4.1227713e-07 0.0000000e+00 
0.0000000e+00 -2.7110374e-07 0.0000000e+00 
0.0000000e+00 -9.5770315e-07 0.0000000e+00 
0.0000000e+00 1.1481509e-07 0.0000000e+00 
0.0000000e+00 -1.3610502e-06 0.0000000e+00 
0.0000000e+00 -1.9441109e-06 0.0000000e+00 
0.0000000e+00 3.3053374e-07 0.0000000e+00 
0.0000000e+00 1.6443310e-07 0.0000000e+00 
0.0000000e+00 -6.8072035e-07 0.0000000e+00 
0.0000000e+00 1.6771855e-07 0.0000000e+00 
0.0000000e+00 -4.7754760e-08 0.0000000e+00 
0.0000000e+00 2.7975943e-07 0.0000000e+00 
0.0000000e+00 1.9931618e-07 0.0000000e+00 
0.0000000e+00 -1.3618468e-06 0.0000000e+00 
0.0000000e+00 -3.0088715e-06 0.0000000e+00 
0.0000000e+00 -1.3694403e-06 0.0000000e+00 
0.0000000e+00 4.6831309e-07 0.0000000e+00 
0.0000000e+00 2.3916303e-07 0.0000000e+00 
0.0000000e+00 -4.5872112e-05 0.0000000e+00 
0.0000000e+00 1.6031067e-06 0.0000000e+00 
0.0000000e+00 -1.9876488e-06 0.0000000e+00 
0.0000000e+00 -5.5113742e-07 0.0000000e+00 
0.0000000e+00 -1.2634172e-05 0.0000000e+00 
0.0000000e+00 -5.7403740e-06 0.0000000e+00 
0.0000000e+00 2.0440385e-07 0.0000000e+00 
0.0000000e+00 -3.0861400e-05 0.0000000e+00 
0.0000000e+00 -1.9110696e-06 0.0000000e+00 
0.0000000e+00 -6.4668052e-06 0.0000000e+00 
0.0000000e+00 -3.9234101e-07 0.0000000e+00 
0.0000000e+00 -9.8196970e-06 0.0000000e+00 
0.0000000e+00 -4.8913003e-06 0.0000000e+00 
0.0000000e+00 -6.2666419e-05 0.0000000e+00 
0.0000000e+00 -5.1701488e-07 0.0000000e+00 
0.0000000e+00 -3.7676850e-07 0.0000000e+00 
0.0000000e+00 -1.8164914e-05 0.0000000e+00 
0.0000000e+00 -3.9279709e-07 0.0000000e+00 
0.0000000e+00 -5.0666486e-06 0.0000000e+00 
0.0000000e+00 -2.3709706e-06 0.0000000e+00 
0.0000000e+00 -4.5106426e-06 0.0000000e+00 
0.0000000e+00 -1.4627237e-05 0.0000000e+00 
0.0000000e+00 -1.0131656e-06 0.0000000e+00 
0.0000000e+00 -3.2827866e-05 0.0000000e+00 
0.0000000e+00 -2.5454581e-06 0.0000000e+00 
0.0000000e+00 -2.1198744e-05 0.0000000e+00 
0.0000000e+00 3.8983462e-06 0.0000000e+00 
0.0000000e+00 6.0180020e-07 0.0000000e+00 
0.0000000e+00 -7.1147231e-05 0.0000000e+00 
0.0000000e+00 -1.7500535e-05 0.0000000e+00 
0.0000000e+00 -4.1877493e-06 0.0000000e+00 
0.0000000e+00 -2.5414516e-05 0.0000000e+00 
0.0000000e+00 -6.3416832e-05 0.0000000e+00 
0.0000000e+00 -9.9859490e-06 0.0000000e+00 
0.0000000e+00 -9.6988933e-06 0.0000000e+00 
0.0000000e+00 -4.5257170e-06 0.0000000e+00 
0.0000000e+00 -4.8614391e-05 0.0000000e+00 
0.0000000e+00 -2.8066826e-05 0.0000000e+00 
0.0000000e+00 -1.2441264e-05 0.0000000e+00 
0.0000000e+00 -2.3308421e-06 0.0000000e+00 
0.0000000e+00 -4.8287648e-06 0.0000000e+00 
0.0000000e+00 -8.3216095e-05 0.0000000e+00 
0.0000000e+00 -2.1666883e-05 0.0000000e+00 
-5.3561808e-07 1.9778863e-06 -2.4978028e-06 
-1.6117913e-06 -3.3109388e-06 4.4358389e-06 
-6.5297659e-06 -4.6436999e-05 8.4969497e-06 
-2.0309783e-06 -6.1113910e-06 1.0187633e-06 
-6.4933943e-07 -1.0451236e-05 -1.9500560e-06 
-6.6374849e-07 -5.8467450e-08 3.0251582e-07 
-2.0584271e-07 1.8109036e-07 -1.3875160e-07 
-1.9419485e-06 -2.2030326e-06 1.0745811e-06 
-9.9264025e-07 3.6628564e-06 1.6772384e-06 
-8.0127074e-06 -9.0208290e-05 4.7577514e-06 
-1.9732109e-07 5.3593391e-07 4.1866318e-07 
-5.1104221e-06 -1.0994519e-05 2.7554665e-07 
-1.5709846e-06 -1.2242939e-06 7.9575602e-07 
-3.2223995e-06 -4.2582524e-06 2.2534996e-06 
-6.1441028e-06 -6.7168830e-06 2.9176672e-06 
-4.8987490e-06 -9.6116082e-06 2.0654909e-06 
-3.1439629e-06 -5.1190391e-06 1.7184500e-06 
-8.5275988e-06 -1.9687484e-05 2.5470497e-06 
-5.2955611e-06 -1.3452801e-05 6.1772075e-06 
-1.9539448e-06 -1.8329383e-06 1.5522691e-06 
-1.0722874e-06 -2.3905386e-07 3.7343250e-07 
-1.3372606e-06 -1.0286465e-06 5.4241576e-07 
-8.8332183e-07 3.1159431e-07 -5.0826230e-07 
-5.9413316e-07 4.5291074e-07 -7.3759082e-07 
-7.5934719e-07 -2.1842396e-07 -1.4019549e-06 
-3.8790208e-07 9.6780425e-08 -8.0970125e-07 
-9.5111312e-07 -1.5490937e-06 -1.1969860e-06 
-7.2558959e-07 -7.0013579e-07 -6.1700280e-07 
-9.5527503e-07 -1.7851107e-06 -6.1361845e-07 
-6.4324314e-07 -4.0689338e-07 -4.7817625e-08 
-9.4003150e-07 -6.8906098e-07 4.6426237e-07 
-8.1548234e-07 1.7911248e-06 6.5150005e-07 
-1.5285544e-06 -1.6602970e-06 1.5675269e-06 
-1.3838827e-06 -2.2332163e-06 -2.2359475e-06 
-1.7948047e-07 4.0364480e-07 -2.5617976e-07 
-6.5917484e-06 -2.5360558e-05 1.0960428e-06 
-6.6768985e-07 -1.2921103e-07 -2.0953048e-06 
-4.3046964e-07 5.6170973e-07 -2.9713769e-08 
-2.7428118e-07 1.3765793e-06 5.9238647e-07 
-3.6558415e-06 -4.7172352e-06 6.2513567e-07 
-9.3752424e-06 -2.4224242e-05 6.9161106e-06 
-1.0265905e-05 -3.7190624e-05 5.8374362e-06 
-1.4647472e-06 3.4501754e-06 1.4263552e-06 
-2.4158678e-07 2.8678076e-07 1.4057223e-07 
-1.2593036e-06 -1.0040375e-05 -7.8462921e-07 
-7.6249216e-07 -5.3820504e-06 -1.5101200e-06 
-9.9529723e-07 -5.5516148e-06 -3.4576613e-06 
-7.4532079e-07 -1.3363643e-06 -3.4932450e-06 
-3.6669476e-06 -1.2735774e-05 6.1749483e-06 
-6.9987223e-06 -2.8921988e-05 8.6111568e-06 
1.0683124e-07 7.3997885e-06 1.1564013e-06 
-1.1474345e-06 -9.7089844e-07 1.9523786e-06 
-7.6998358e-06 -9.2831069e-05 4.6245459e-06 
-6.4963280e-07 2.0007062e-07 5.9683475e-07 
-1.9044380e-06 -3.5518356e-06 1.9675618e-07 
-1.2074436e-05 -6.6478373e-05 7.4764030e-06 
-3.7593302e-06 -7.0479391e-06 4.3971727e-06 
-7.1053137e-07 4.9726458e-07 1.6197686e-06 
-5.0704341e-07 4.3900232e-06 -1.7130570e-06 
-6.8027130e-06 -1.2014732e-05 1.6335422e-06 
-2.5262043e-06 -5.3253757e-06 2.1425330e-07 
-2.2925720e-07 4.3012071e-07 2.6242279e-07 
-3.1612203e-07 5.5690811e-07 -6.2692573e-07 
-1.4052675e-06 -2.0222019e-06 1.3932170e-06 
-1.1782180e-05 -4.4416302e-05 4.4796861e-06 
-2.3617079e-06 -2.6680220e-06 1.6002342e-06 
-4.5927518e-07 6.9514449e-08 1.0251513e-07 
-3.9646946e-07 -1.0109253e-08 -3.7786521e-07 
-4.7049232e-07 3.2130301e-06 1.3278953e-06 
-5.7601022e-07 1.2204997e-06 -1.8863586e-06 
-6.9309835e-06 -5.0183764e-05 2.5131289e-06 
-1.5591214e-06 -8.9899850e-06 3.0317511e-07 
-6.6662068e-07 -2.1560616e-06 1.6786913e-06 
-1.2732688e-06 -1.1046474e-05 -4.6115997e-07 
-1.4247662e-06 -1.2199827e-05 -1.3334716e-06 
-3.0023554e-07 3.6280003e-06 1.4666847e-06 
-7.5908355e-07 -6.6858165e-06 -1.7066005e-06 
-4.8256015e-07 -1.7358833e-06 -1.8869524e-06 
-5.0147895e-07 2.5752445e-06 -9.9671956e-07 
7.2779966e-07 4.7230692e-06 1.0615540e-06 
7.1491434e-07 4.4127614e-06 3.2577923e-06 
-2.0752428e-07 -3.2455000e-06 5.3568892e-06 
-1.2337589e-06 -1.6457656e-05 7.4926697e-06 
-2.7559499e-06 -3.4591540e-05 6.8936547e-06 
-4.8010202e-06 -6.0121318e-05 6.2833547e-06 
-4.5022111e-06 -7.5879594e-05 5.4619732e-06 
-6.1232463e-06 -9.9340345e-05 5.1485554e-06 
-2.6242772e-06 -1.1108644e-04 4.0903938e-06 
-5.0168450e-07 7.3539841e-06 8.9237869e-07 
4.1074395e-07 -1.9102547e-06 -1.3902487e-06 
4.6990073e-07 -2.0488255e-06 1.0759161e-07 
-3.7653061e-07 -2.2546338e-08 -2.1145283e-06 
2.2735148e-06 -1.0597349e-05 -5.9293652e-06 
6.3849666e-06 -3.1255709e-05 -5.2263649e-06 
2.9597382e-07 -4.1175642e-07 -2.3775254e-07 
2.0787695e-07 1.8321644e-07 -4.9237246e-07 
7.3265602e-07 -2.2141414e-06 -2.7103242e-06 
-4.8425102e-07 6.1222687e-07 6.1556267e-07 
2.6123661e-07 -8.1801754e-06 -9.0398976e-07 
-2.4844709e-07 1.9469414e-06 -1.4188558e-06 
3.7636380e-06 -6.4989267e-06 -3.2706605e-06 
2.2978059e-08 5.6970904e-08 -4.8992484e-07 
-1.2662788e-07 -4.2085981e-06 -3.6634208e-06 
5.7425649e-07 -4.1260831e-05 -6.5619215e-06 
-3.1529297e-07 -5.2399591e-06 2.2811983e-07 
-4.3684295e-08 -1.6863364e-08 -6.4769438e-07 
5.8304903e-07 -2.1519854e-06 -4.7148254e-07 
-4.6193895e-07 3.7184500e-06 -7.0642454e-07 
-2.2845478e-07 -3.9589747e-08 -3.2289276e-07 
2.1955596e-07 -4.1516555e-06 -1.2471038e-06 
3.0795178e-07 3.1943237e-08 -9.0006330e-07 
1.3576043e-06 -7.5911834e-05 -6.6470520e-06 
9.5139427e-08 1.0809145e-07 -1.3063008e-07 
2.3833952e-06 -5.7294478e-06 -1.0049753e-06 
5.0104308e-07 -2.6028699e-06 -2.2388045e-07 
2.0986334e-07 -5.0141477e-07 -1.6866251e-06 
3.8303094e-07 -5.2608902e-07 -5.1645918e-07 
3.7040110e-07 -8.0645879e-07 1.8699792e-08 
1.2766461e-07 -3.8338453e-07 -5.8401440e-07 
3.3908208e-07 -1.3299772e-06 -7.2817068e-07 
-1.0173320e-07 -7.1568770e-06 -2.5544020e-06 
-7.2217112e-08 -1.9750794e-05 -2.9654411e-06 
-8.2594073e-07 -1.0133823e-06 -1.6525170e-06 
5.1914558e-06 -1.2276399e-05 -2.0408877e-06 
2.6343951e-06 -1.9566878e-05 -3.8445996e-06 
5.8908036e-08 1.1377682e-07 -6.1150877e-07 
1.4452841e-07 1.9210489e-07 -1.5159779e-07 
6.7533881e-09 2.0049423e-07 -9.0009490e-07 
6.5640037e-08 -3.7932086e-06 -3.9274782e-06 
1.6973382e-07 -1.0377373e-06 2.2246311e-07 
5.0538833e-06 -3.1078929e-05 -1.7219299e-06 
2.8467080e-06 -1.6576618e-05 -6.4808637e-06 
4.2860279e-08 -2.3407008e-06 -4.3195476e-07 
-1.5441397e-07 1.4586740e-07 -7.9460688e-07 
-2.9895992e-07 2.0886471e-07 -1.0961002e-06 
2.0336086e-07 -5.7703989e-08 -5.4056414e-08 
3.3514132e-06 -8.7182170e-06 -4.2215215e-06 
4.1474308e-08 -5.1514610e-07 -2.6971986e-07 
-2.3745385e-07 -2.4969191e-07 -9.9609440e-07 
1.3101261e-08 8.0304794e-08 -5.4048837e-08 
1.5663250e-06 -2.0998950e-06 -1.6421839e-06 
1.8510666e-06 -4.8798680e-05 -2.6105618e-06 
-8.6345966e-07 -3.1058041e-06 -1.5957569e-06 
-4.3072220e-07 -1.3669066e-07 -2.2621098e-06 
5.8736435e-07 -1.7175247e-06 -2.7654944e-06 
4.2163274e-06 -2.9251158e-05 -3.2094674e-06 
-1.1031570e-07 3.4126674e-07 -4.4382929e-08 
-5.7022071e-08 5.9791745e-07 -2.5901392e-07 
1.4415450e-07 1.0226675e-07 -2.5134437e-07 
-2.2562277e-07 -2.5283140e-07 -5.6612919e-07 
6.0103679e-07 -8.3509775e-07 -1.4529554e-06 
1.2794155e-07 -2.3520640e-06 -5.9758793e-07 
-1.2061225e-06 -7.1722134e-05 -3.6799818e-06 