# vtk DataFile Version 4.0
vtk output
ASCII
DATASET UNSTRUCTURED_GRID
POINTS 460 float
0.0000000e+00 0.0000000e+00 0.0000000e+00 
5.0000000e+00 0.0000000e+00 0.0000000e+00 
5.0000000e+00 3.0000000e+00 0.0000000e+00 
0.0000000e+00 3.0000000e+00 0.0000000e+00 
0.0000000e+00 0.0000000e+00 1.0000000e+01 
5.0000000e+00 0.0000000e+00 1.0000000e+01 
5.0000000e+00 3.0000000e+00 1.0000000e+01 
0.0000000e+00 3.0000000e+00 1.0000000e+01 
1.0000000e+00 3.0000000e+00 -5.0000000e+00 
1.0000000e+00 3.0000000e+00 -4.5000000e+00 
1.0000000e+00 3.0000000e+00 -4.0000000e+00 
1.0000000e+00 3.0000000e+00 -3.5000000e+00 
1.0000000e+00 3.0000000e+00 -3.0000000e+00 
1.0000000e+00 3.0000000e+00 -2.5000000e+00 
1.0000000e+00 3.0000000e+00 -2.0000000e+00 
1.0000000e+00 3.0000000e+00 -1.5000000e+00 
1.0000000e+00 3.0000000e+00 -1.0000000e+00 
1.0000000e+00 3.0000000e+00 -5.0000000e-01 
1.0000000e+00 3.0000000e+00 0.0000000e+00 
1.0000000e+00 3.0000000e+00 5.0000000e-01 
1.0000000e+00 3.0000000e+00 1.0000000e+00 
1.0000000e+00 3.0000000e+00 1.5000000e+00 
1.0000000e+00 3.0000000e+00 2.0000000e+00 
1.0000000e+00 3.0000000e+00 2.5000000e+00 
1.0000000e+00 3.0000000e+00 3.0000000e+00 
1.0000000e+00 3.0000000e+00 3.5000000e+00 
1.0000000e+00 3.0000000e+00 4.0000000e+00 
1.0000000e+00 3.0000000e+00 4.5000000e+00 
1.0000000e+00 3.0000000e+00 5.0000000e+00 
1.0000000e+00 3.0000000e+00 5.5000000e+00 
1.0000000e+00 3.0000000e+00 6.0000000e+00 
1.0000000e+00 3.0000000e+00 6.5000000e+00 
1.0000000e+00 3.0000000e+00 7.0000000e+00 
1.0000000e+00 3.0000000e+00 7.5000000e+00 
1.0000000e+00 3.0000000e+00 8.0000000e+00 
1.0000000e+00 3.0000000e+00 8.5000000e+00 
1.0000000e+00 3.0000000e+00 9.0000000e+00 
1.0000000e+00 3.0000000e+00 9.5000000e+00 
1.0000000e+00 3.0000000e+00 1.0000000e+01 
1.0000000e+00 3.0000000e+00 1.0500000e+01 
1.0000000e+00 3.0000000e+00 1.1000000e+01 
1.0000000e+00 3.0000000e+00 1.1500000e+01 
1.0000000e+00 3.0000000e+00 1.2000000e+01 
1.0000000e+00 3.0000000e+00 1.2500000e+01 
1.0000000e+00 3.0000000e+00 1.3000000e+01 
1.0000000e+00 3.0000000e+00 1.3500000e+01 
1.0000000e+00 3.0000000e+00 1.4000000e+01 
1.0000000e+00 3.0000000e+00 1.4500000e+01 
1.0000000e+00 3.0250001e+00 -5.0000000e+00 
1.0000000e+00 3.0250001e+00 -4.5000000e+00 
1.0000000e+00 3.0250001e+00 -4.0000000e+00 
1.0000000e+00 3.0250001e+00 -3.5000000e+00 
1.0000000e+00 3.0250001e+00 -3.0000000e+00 
1.0000000e+00 3.0250001e+00 -2.5000000e+00 
1.0000000e+00 3.0250001e+00 -2.0000000e+00 
1.0000000e+00 3.0250001e+00 -1.5000000e+00 
1.0000000e+00 3.0250001e+00 -1.0000000e+00 
1.0000000e+00 3.0250001e+00 -5.0000000e-01 
1.0000000e+00 3.0250001e+00 0.0000000e+00 
1.0000000e+00 3.0250001e+00 5.0000000e-01 
1.0000000e+00 3.0250001e+00 1.0000000e+00 
1.0000000e+00 3.0250001e+00 1.5000000e+00 
1.0000000e+00 3.0250001e+00 2.0000000e+00 
1.0000000e+00 3.0250001e+00 2.5000000e+00 
1.0000000e+00 3.0250001e+00 3.0000000e+00 
1.0000000e+00 3.0250001e+00 3.5000000e+00 
1.0000000e+00 3.0250001e+00 4.0000000e+00 
1.0000000e+00 3.0250001e+00 4.5000000e+00 
1.0000000e+00 3.0250001e+00 5.0000000e+00 
1.0000000e+00 3.0250001e+00 5.5000000e+00 
1.0000000e+00 3.0250001e+00 6.0000000e+00 
1.0000000e+00 3.0250001e+00 6.5000000e+00 
1.0000000e+00 3.0250001e+00 7.0000000e+00 
1.0000000e+00 3.0250001e+00 7.5000000e+00 
1.0000000e+00 3.0250001e+00 8.0000000e+00 
1.0000000e+00 3.0250001e+00 8.5000000e+00 
1.0000000e+00 3.0250001e+00 9.0000000e+00 
1.0000000e+00 3.0250001e+00 9.5000000e+00 
1.0000000e+00 3.0250001e+00 1.0000000e+01 
1.0000000e+00 3.0250001e+00 1.0500000e+01 
1.0000000e+00 3.0250001e+00 1.1000000e+01 
1.0000000e+00 3.0250001e+00 1.1500000e+01 
1.0000000e+00 3.0250001e+00 1.2000000e+01 
1.0000000e+00 3.0250001e+00 1.2500000e+01 
1.0000000e+00 3.0250001e+00 1.3000000e+01 
1.0000000e+00 3.0250001e+00 1.3500000e+01 
1.0000000e+00 3.0250001e+00 1.4000000e+01 
1.0000000e+00 3.0250001e+00 1.4500000e+01 
1.0000000e+00 -2.0000000e+00 -5.0000000e+00 
1.0000000e+00 -2.0000000e+00 -4.5000000e+00 
1.0000000e+00 -2.0000000e+00 -4.0000000e+00 
1.0000000e+00 -2.0000000e+00 -3.5000000e+00 
1.0000000e+00 -2.0000000e+00 -3.0000000e+00 
1.0000000e+00 -2.0000000e+00 -2.5000000e+00 
1.0000000e+00 -2.0000000e+00 -2.0000000e+00 
1.0000000e+00 -2.0000000e+00 -1.5000000e+00 
1.0000000e+00 -2.0000000e+00 -1.0000000e+00 
1.0000000e+00 -2.0000000e+00 -5.0000000e-01 
1.0000000e+00 -2.0000000e+00 1.0500000e+01 
1.0000000e+00 -2.0000000e+00 1.1000000e+01 
1.0000000e+00 -2.0000000e+00 1.1500000e+01 
1.0000000e+00 -2.0000000e+00 1.2000000e+01 
1.0000000e+00 -2.0000000e+00 1.2500000e+01 
1.0000000e+00 -2.0000000e+00 1.3000000e+01 
1.0000000e+00 -2.0000000e+00 1.3500000e+01 
1.0000000e+00 -2.0000000e+00 1.4000000e+01 
1.0000000e+00 -2.0000000e+00 1.4500000e+01 
1.0000000e+00 0.0000000e+00 0.0000000e+00 
2.0000000e+00 0.0000000e+00 0.0000000e+00 
3.0000000e+00 0.0000000e+00 0.0000000e+00 
4.0000000e+00 0.0000000e+00 0.0000000e+00 
5.0000000e+00 1.0000000e+00 0.0000000e+00 
5.0000000e+00 2.0000000e+00 0.0000000e+00 
0.0000000e+00 2.0000000e+00 0.0000000e+00 
0.0000000e+00 1.0000000e+00 0.0000000e+00 
0.0000000e+00 0.0000000e+00 1.0000000e+00 
0.0000000e+00 0.0000000e+00 2.0000000e+00 
0.0000000e+00 0.0000000e+00 3.0000000e+00 
0.0000000e+00 0.0000000e+00 4.0000000e+00 
0.0000000e+00 0.0000000e+00 5.0000000e+00 
0.0000000e+00 0.0000000e+00 6.0000000e+00 
0.0000000e+00 0.0000000e+00 7.0000000e+00 
0.0000000e+00 0.0000000e+00 8.0000000e+00 
0.0000000e+00 0.0000000e+00 9.0000000e+00 
5.0000000e+00 0.0000000e+00 1.0000000e+00 
5.0000000e+00 0.0000000e+00 2.0000000e+00 
5.0000000e+00 0.0000000e+00 3.0000000e+00 
5.0000000e+00 0.0000000e+00 4.0000000e+00 
5.0000000e+00 0.0000000e+00 5.0000000e+00 
5.0000000e+00 0.0000000e+00 6.0000000e+00 
5.0000000e+00 0.0000000e+00 7.0000000e+00 
5.0000000e+00 0.0000000e+00 8.0000000e+00 
5.0000000e+00 0.0000000e+00 9.0000000e+00 
1.0000000e+00 0.0000000e+00 1.0000000e+01 
2.0000000e+00 0.0000000e+00 1.0000000e+01 
3.0000000e+00 0.0000000e+00 1.0000000e+01 
4.0000000e+00 0.0000000e+00 1.0000000e+01 
5.0000000e+00 3.0000000e+00 1.0000000e+00 
5.0000000e+00 3.0000000e+00 2.0000000e+00 
5.0000000e+00 3.0000000e+00 3.0000000e+00 
5.0000000e+00 3.0000000e+00 4.0000000e+00 
5.0000000e+00 3.0000000e+00 5.0000000e+00 
5.0000000e+00 3.0000000e+00 6.0000000e+00 
5.0000000e+00 3.0000000e+00 7.0000000e+00 
5.0000000e+00 3.0000000e+00 8.0000000e+00 
5.0000000e+00 3.0000000e+00 9.0000000e+00 
5.0000000e+00 1.0000000e+00 1.0000000e+01 
5.0000000e+00 2.0000000e+00 1.0000000e+01 
0.0000000e+00 3.0000000e+00 1.0000000e+00 
0.0000000e+00 3.0000000e+00 2.0000000e+00 
0.0000000e+00 3.0000000e+00 3.0000000e+00 
0.0000000e+00 3.0000000e+00 4.0000000e+00 
0.0000000e+00 3.0000000e+00 5.0000000e+00 
0.0000000e+00 3.0000000e+00 6.0000000e+00 
0.0000000e+00 3.0000000e+00 7.0000000e+00 
0.0000000e+00 3.0000000e+00 8.0000000e+00 
0.0000000e+00 3.0000000e+00 9.0000000e+00 
0.0000000e+00 2.0000000e+00 1.0000000e+01 
0.0000000e+00 1.0000000e+00 1.0000000e+01 
4.0000000e+00 3.0000000e+00 0.0000000e+00 
3.0000000e+00 3.0000000e+00 0.0000000e+00 
2.0000000e+00 3.0000000e+00 0.0000000e+00 
4.0000000e+00 3.0000000e+00 1.0000000e+01 
3.0000000e+00 3.0000000e+00 1.0000000e+01 
2.0000000e+00 3.0000000e+00 1.0000000e+01 
4.0618000e+00 1.5000000e+00 0.0000000e+00 
1.5046000e+00 7.6549745e-01 0.0000000e+00 
2.5000000e+00 2.1339746e+00 0.0000000e+00 
1.5046000e+00 2.2345026e+00 0.0000000e+00 
2.4957771e+00 8.1560516e-01 0.0000000e+00 
3.4707544e+00 2.2336540e+00 0.0000000e+00 
3.4700506e+00 7.5794268e-01 0.0000000e+00 
8.6322361e-01 1.5000000e+00 0.0000000e+00 
2.0000000e+00 1.5000000e+00 0.0000000e+00 
2.9960666e+00 1.4974480e+00 0.0000000e+00 
4.2679491e+00 7.3205084e-01 0.0000000e+00 
4.2679491e+00 2.2679491e+00 0.0000000e+00 
7.2695929e-01 2.2730408e+00 0.0000000e+00 
7.2695929e-01 7.2695929e-01 0.0000000e+00 
4.1822505e+00 0.0000000e+00 2.5515697e+00 
4.2017918e+00 0.0000000e+00 4.4725966e+00 
4.1114569e+00 0.0000000e+00 6.5092020e+00 
8.6602539e-01 0.0000000e+00 3.5000000e+00 
8.4778279e-01 0.0000000e+00 5.4684029e+00 
8.9629614e-01 0.0000000e+00 7.5867257e+00 
2.5566745e+00 0.0000000e+00 8.1853306e-01 
2.4918270e+00 0.0000000e+00 9.1386929e+00 
8.4677207e-01 0.0000000e+00 1.5042374e+00 
4.0943027e+00 0.0000000e+00 8.4081745e+00 
8.6281651e-01 0.0000000e+00 2.5007062e+00 
1.7315160e+00 0.0000000e+00 3.0001178e+00 
1.7319617e+00 0.0000000e+00 4.0000196e+00 
2.5980761e+00 0.0000000e+00 3.5000000e+00 
2.5536871e+00 0.0000000e+00 4.4963923e+00 
2.5928419e+00 0.0000000e+00 2.4239938e+00 
1.5037409e+00 0.0000000e+00 9.1535149e+00 
1.8433737e+00 0.0000000e+00 8.1858873e+00 
3.0000000e+00 0.0000000e+00 8.2679491e+00 
2.5000000e+00 0.0000000e+00 7.4019237e+00 
3.5042722e+00 0.0000000e+00 7.4271150e+00 
3.0310018e+00 0.0000000e+00 6.5282087e+00 
2.0373929e+00 0.0000000e+00 6.5307913e+00 
3.4767809e+00 0.0000000e+00 5.8031492e+00 
2.5452602e+00 0.0000000e+00 5.5720768e+00 
1.6456656e+00 0.0000000e+00 1.9697139e+00 
8.6297011e-01 0.0000000e+00 4.4947371e+00 
1.0111579e+00 0.0000000e+00 6.5282545e+00 
3.4994321e+00 0.0000000e+00 8.4691072e-01 
4.1860156e+00 0.0000000e+00 3.5040276e+00 
1.7320508e+00 0.0000000e+00 5.0000000e+00 
4.0544066e+00 0.0000000e+00 1.5781221e+00 
1.5817389e+00 0.0000000e+00 9.3943578e-01 
8.3166349e-01 0.0000000e+00 8.5090933e+00 
3.4686174e+00 0.0000000e+00 9.1752682e+00 
3.0709300e+00 0.0000000e+00 1.5799091e+00 
3.3927374e+00 0.0000000e+00 3.0399952e+00 
3.3826034e+00 0.0000000e+00 3.9747651e+00 
4.3420062e+00 0.0000000e+00 7.4688983e+00 
3.4023225e+00 0.0000000e+00 4.9314723e+00 
1.6740381e+00 0.0000000e+00 7.3014426e+00 
4.2715640e+00 0.0000000e+00 5.4758859e+00 
1.6225953e+00 0.0000000e+00 5.8104177e+00 
4.2679491e+00 0.0000000e+00 9.2679491e+00 
7.3205084e-01 0.0000000e+00 7.3205084e-01 
4.2679491e+00 0.0000000e+00 7.3205084e-01 
7.3205084e-01 0.0000000e+00 9.2679491e+00 
3.4586334e+00 0.0000000e+00 2.2347178e+00 
2.2895701e+00 0.0000000e+00 1.5463171e+00 
5.0000000e+00 2.2345026e+00 1.5046000e+00 
[...]
POINT_DATA 460
FIELD FieldData 2
DISPLACEMENT 3 460  float
0.0000000e+00 0.0000000e+00 0.0000000e+00 
0.0000000e+00 0.0000000e+00 0.0000000e+00 
0.0000000e+00 8.5980986e-08 0.0000000e+00 
0.0000000e+00 -5.4726183e-06 0.0000000e+00 
0.0000000e+00 0.0000000e+00 0.0000000e+00 
0.0000000e+00 0.0000000e+00 0.0000000e+00 
0.0000000e+00 3.1160153e-07 0.0000000e+00 
0.0000000e+00 1.7818737e-08 0.0000000e+00 
0.0000000e+00 -4.9402456e-07 0.0000000e+00 
0.0000000e+00 -4.8628681e-07 0.0000000e+00 
0.0000000e+00 -4.5831305e-07 0.0000000e+00 
0.0000000e+00 -4.0467313e-07 0.0000000e+00 
0.0000000e+00 -3.2436617e-07 0.0000000e+00 
0.0000000e+00 -2.2531917e-07 0.0000000e+00 
0.0000000e+00 -1.3099938e-07 0.0000000e+00 
0.0000000e+00 -8.8076732e-08 0.0000000e+00 
0.0000000e+00 -1.7179508e-07 0.0000000e+00 
0.0000000e+00 -4.8229361e-07 0.0000000e+00 
0.0000000e+00 -1.1639891e-06 0.0000000e+00 
-8.1494073e-07 -2.4567125e-06 2.6493208e-06 
-2.2738425e-06 -6.0125203e-06 6.8744057e-06 
-2.7162705e-06 -1.5460726e-05 9.5529231e-06 
-3.8360840e-06 -3.8162492e-05 1.5720003e-05 
-4.2413458e-06 -8.3443912e-05 1.3936798e-05 
-4.5839920e-06 -1.5646295e-04 9.1755237e-06 
-1.3651777e-05 -2.3660295e-04 1.4644501e-05 
-2.0353325e-06 -2.4540906e-04 1.6339366e-06 
-1.4635719e-05 -1.7611073e-04 -1.9832138e-05 
-8.7073749e-06 -9.9242337e-05 -1.5648242e-05 
-3.4371401e-06 -4.7582864e-05 -1.4914233e-05 
-3.7284867e-06 -2.0018302e-05 -9.7067059e-06 
-2.1373326e-06 -7.5160128e-06 -7.1060372e-06 
-1.5524287e-06 -2.5779491e-06 -4.9563050e-06 
-7.5826750e-07 -8.4796994e-07 -3.1418142e-06 
-4.9316913e-07 -2.7749783e-07 -2.0881525e-06 
-2.2937414e-07 -7.3211552e-08 -1.0323790e-06 
-1.2862751e-07 3.1998223e-08 -5.7982703e-07 
-7.5361264e-08 9.6145286e-08 -2.7509739e-07 
0.0000000e+00 1.0337648e-07 0.0000000e+00 
0.0000000e+00 8.3512433e-08 0.0000000e+00 
0.0000000e+00 5.5485479e-08 0.0000000e+00 
0.0000000e+00 3.0553061e-08 0.0000000e+00 
0.0000000e+00 1.2785629e-08 0.0000000e+00 
0.0000000e+00 2.2106827e-09 0.0000000e+00 
0.0000000e+00 -2.9057383e-09 0.0000000e+00 
0.0000000e+00 -4.6749222e-09 0.0000000e+00 
0.0000000e+00 -4.8957727e-09 0.0000000e+00 
0.0000000e+00 -4.7989426e-09 0.0000000e+00 
0.0000000e+00 -4.9412159e-07 0.0000000e+00 
0.0000000e+00 -4.8641141e-07 0.0000000e+00 
0.0000000e+00 -4.5853506e-07 0.0000000e+00 
0.0000000e+00 -4.0488371e-07 0.0000000e+00 
0.0000000e+00 -3.2439107e-07 0.0000000e+00 
0.0000000e+00 -2.2508053e-07 0.0000000e+00 
0.0000000e+00 -1.3056282e-07 0.0000000e+00 
0.0000000e+00 -8.7682452e-08 0.0000000e+00 
0.0000000e+00 -1.7196653e-07 0.0000000e+00 
0.0000000e+00 -4.8392860e-07 0.0000000e+00 
0.0000000e+00 -1.1248229e-06 0.0000000e+00 
0.0000000e+00 -2.4029396e-06 0.0000000e+00 
0.0000000e+00 -5.8894893e-06 0.0000000e+00 
0.0000000e+00 -1.5351414e-05 0.0000000e+00 
0.0000000e+00 -3.8157010e-05 0.0000000e+00 
0.0000000e+00 -8.4004416e-05 0.0000000e+00 
0.0000000e+00 -1.5823670e-04 0.0000000e+00 
0.0000000e+00 -2.3961859e-04 0.0000000e+00 
0.0000000e+00 -2.5058954e-04 0.0000000e+00 
0.0000000e+00 -1.7812276e-04 0.0000000e+00 
0.0000000e+00 -1.0043557e-04 0.0000000e+00 
0.0000000e+00 -4.7861548e-05 0.0000000e+00 
0.0000000e+00 -1.9940915e-05 0.0000000e+00 
0.0000000e+00 -7.3971269e-06 0.0000000e+00 
0.0000000e+00 -2.4951344e-06 0.0000000e+00 
0.0000000e+00 -8.0352720e-07 0.0000000e+00 
0.0000000e+00 -2.5957166e-07 0.0000000e+00 
0.0000000e+00 -6.6216842e-08 0.0000000e+00 
0.0000000e+00 3.4396308e-08 0.0000000e+00 
0.0000000e+00 9.4020884e-08 0.0000000e+00 
0.0000000e+00 1.0378363e-07 0.0000000e+00 
0.0000000e+00 8.3843531e-08 0.0000000e+00 
0.0000000e+00 5.5705986e-08 0.0000000e+00 
0.0000000e+00 3.0674947e-08 0.0000000e+00 
0.0000000e+00 1.2837106e-08 0.0000000e+00 
0.0000000e+00 2.2201541e-09 0.0000000e+00 
0.0000000e+00 -2.9166729e-09 0.0000000e+00 
0.0000000e+00 -4.6929887e-09 0.0000000e+00 
0.0000000e+00 -4.9147988e-09 0.0000000e+00 
0.0000000e+00 -4.8176156e-09 0.0000000e+00 
0.0000000e+00 0.0000000e+00 0.0000000e+00 
0.0000000e+00 0.0000000e+00 0.0000000e+00 
0.0000000e+00 0.0000000e+00 0.0000000e+00 
0.0000000e+00 0.0000000e+00 0.0000000e+00 
0.0000000e+00 0.0000000e+00 0.0000000e+00 
0.0000000e+00 0.0000000e+00 0.0000000e+00 
0.0000000e+00 0.0000000e+00 0.0000000e+00 
0.0000000e+00 0.0000000e+00 0.0000000e+00 
0.0000000e+00 0.0000000e+00 0.0000000e+00 
0.0000000e+00 0.0000000e+00 0.0000000e+00 
0.0000000e+00 0.0000000e+00 0.0000000e+00 
0.0000000e+00 0.0000000e+00 0.0000000e+00 
0.0000000e+00 0.0000000e+00 0.0000000e+00 
0.0000000e+00 0.0000000e+00 0.0000000e+00 
0.0000000e+00 0.0000000e+00 0.0000000e+00 
0.0000000e+00 0.0000000e+00 0.0000000e+00 
0.0000000e+00 0.0000000e+00 0.0000000e+00 
0.0000000e+00 0.0000000e+00 0.0000000e+00 
0.0000000e+00 0.0000000e+00 0.0000000e+00 
0.0000000e+00 0.0000000e+00 0.0000000e+00 
0.0000000e+00 0.0000000e+00 0.0000000e+00 
0.0000000e+00 0.0000000e+00 0.0000000e+00 
0.0000000e+00 0.0000000e+00 0.0000000e+00 
0.0000000e+00 -5.9721870e-08 0.0000000e+00 
0.0000000e+00 5.0187925e-08 0.0000000e+00 
0.0000000e+00 -4.9845694e-06 0.0000000e+00 
0.0000000e+00 -3.0817773e-06 0.0000000e+00 
0.0000000e+00 0.0000000e+00 0.0000000e+00 
0.0000000e+00 0.0000000e+00 0.0000000e+00 
0.0000000e+00 0.0000000e+00 0.0000000e+00 
0.0000000e+00 0.0000000e+00 0.0000000e+00 
0.0000000e+00 0.0000000e+00 0.0000000e+00 
0.0000000e+00 0.0000000e+00 0.0000000e+00 
0.0000000e+00 0.0000000e+00 0.0000000e+00 
0.0000000e+00 0.0000000e+00 0.0000000e+00 
0.0000000e+00 0.0000000e+00 0.0000000e+00 
0.0000000e+00 0.0000000e+00 0.0000000e+00 
0.0000000e+00 0.0000000e+00 0.0000000e+00 
0.0000000e+00 0.0000000e+00 0.0000000e+00 
0.0000000e+00 0.0000000e+00 0.0000000e+00 
0.0000000e+00 0.0000000e+00 0.0000000e+00 
0.0000000e+00 0.0000000e+00 0.0000000e+00 
0.0000000e+00 0.0000000e+00 0.0000000e+00 
0.0000000e+00 0.0000000e+00 0.0000000e+00 
0.0000000e+00 0.0000000e+00 0.0000000e+00 
0.0000000e+00 0.0000000e+00 0.0000000e+00 
0.0000000e+00 0.0000000e+00 0.0000000e+00 
0.0000000e+00 0.0000000e+00 0.0000000e+00 
0.0000000e+00 0.0000000e+00 0.0000000e+00 
0.0000000e+00 -2.1771235e-07 0.0000000e+00 
0.0000000e+00 -2.9685131e-07 0.0000000e+00 
0.0000000e+00 -1.5287357e-06 0.0000000e+00 
0.0000000e+00 -1.0712073e-06 0.0000000e+00 
0.0000000e+00 -1.3785956e-06 0.0000000e+00 
0.0000000e+00 4.4177938e-07 0.0000000e+00 
0.0000000e+00 7.3879754e-08 0.0000000e+00 
0.0000000e+00 3.9491408e-07 0.0000000e+00 
0.0000000e+00 3.0484000e-07 0.0000000e+00 
0.0000000e+00 1.1776561e-07 0.0000000e+00 
0.0000000e+00 2.6566084e-07 0.0000000e+00 
0.0000000e+00 -1.0354206e-05 0.0000000e+00 
0.0000000e+00 -3.5222110e-05 0.0000000e+00 
0.0000000e+00 -8.3896761e-05 0.0000000e+00 
0.0000000e+00 -1.0074974e-04 0.0000000e+00 
0.0000000e+00 -5.9315807e-05 0.0000000e+00 
0.0000000e+00 -2.1774624e-05 0.0000000e+00 
0.0000000e+00 -6.2482222e-06 0.0000000e+00 
0.0000000e+00 -1.3957706e-06 0.0000000e+00 
0.0000000e+00 -2.3164631e-07 0.0000000e+00 
0.0000000e+00 2.2483208e-10 0.0000000e+00 
0.0000000e+00 -2.6993154e-08 0.0000000e+00 
0.0000000e+00 -8.6921254e-08 0.0000000e+00 
0.0000000e+00 -1.6231357e-06 0.0000000e+00 
0.0000000e+00 -3.4122429e-06 0.0000000e+00 
0.0000000e+00 2.9070432e-07 0.0000000e+00 
0.0000000e+00 2.4605131e-07 0.0000000e+00 
0.0000000e+00 2.4010251e-07 0.0000000e+00 
0.0000000e+00 -6.4938618e-08 0.0000000e+00 
0.0000000e+00 -1.8655250e-06 0.0000000e+00 
0.0000000e+00 -1.0684050e-06 0.0000000e+00 
0.0000000e+00 -2.1017931e-06 0.0000000e+00 
0.0000000e+00 -8.7756831e-07 0.0000000e+00 
0.0000000e+00 -1.0309907e-07 0.0000000e+00 
0.0000000e+00 -6.1263199e-07 0.0000000e+00 
0.0000000e+00 -2.8464071e-06 0.0000000e+00 
0.0000000e+00 -1.6507032e-06 0.0000000e+00 
0.0000000e+00 -6.6854977e-07 0.0000000e+00 
0.0000000e+00 -8.9253376e-08 0.0000000e+00 
0.0000000e+00 9.5308692e-08 0.0000000e+00 
0.0000000e+00 -3.1982142e-06 0.0000000e+00 
0.0000000e+00 -1.6207002e-06 0.0000000e+00 
0.0000000e+00 0.0000000e+00 0.0000000e+00 
0.0000000e+00 0.0000000e+00 0.0000000e+00 
0.0000000e+00 0.0000000e+00 0.0000000e+00 
0.0000000e+00 0.0000000e+00 0.0000000e+00 
0.0000000e+00 0.0000000e+00 0.0000000e+00 
0.0000000e+00 0.0000000e+00 0.0000000e+00 
0.0000000e+00 0.0000000e+00 0.0000000e+00 
0.0000000e+00 0.0000000e+00 0.0000000e+00 
0.0000000e+00 0.0000000e+00 0.0000000e+00 
0.0000000e+00 0.0000000e+00 0.0000000e+00 
0.0000000e+00 0.0000000e+00 0.0000000e+00 
0.0000000e+00 0.0000000e+00 0.0000000e+00 
0.0000000e+00 0.0000000e+00 0.0000000e+00 
0.0000000e+00 0.0000000e+00 0.0000000e+00 
0.0000000e+00 0.0000000e+00 0.0000000e+00 
0.0000000e+00 0.0000000e+00 0.0000000e+00 
0.0000000e+00 0.0000000e+00 0.0000000e+00 
0.0000000e+00 0.0000000e+00 0.0000000e+00 
0.0000000e+00 0.0000000e+00 0.0000000e+00 
0.0000000e+00 0.0000000e+00 0.0000000e+00 
0.0000000e+00 0.0000000e+00 0.0000000e+00 
0.0000000e+00 0.0000000e+00 0.0000000e+00 
0.0000000e+00 0.0000000e+00 0.0000000e+00 
0.0000000e+00 0.0000000e+00 0.0000000e+00 
0.0000000e+00 0.0000000e+00 0.0000000e+00 
0.0000000e+00 0.0000000e+00 0.0000000e+00 
0.0000000e+00 0.0000000e+00 0.0000000e+00 
0.0000000e+00 0.0000000e+00 0.0000000e+00 
0.0000000e+00 0.0000000e+00 0.0000000e+00 
0.0000000e+00 0.0000000e+00 0.0000000e+00 
0.0000000e+00 0.0000000e+00 0.0000000e+00 
0.0000000e+00 0.0000000e+00 0.0000000e+00 
0.0000000e+00 0.0000000e+00 0.0000000e+00 
0.0000000e+00 0.0000000e+00 0.0000000e+00 
0.0000000e+00 0.0000000e+00 0.0000000e+00 
0.0000000e+00 0.0000000e+00 0.0000000e+00 
0.0000000e+00 0.0000000e+00 0.0000000e+00 
0.0000000e+00 0.0000000e+00 0.0000000e+00 
0.0000000e+00 0.0000000e+00 0.0000000e+00 
0.0000000e+00 0.0000000e+00 0.0000000e+00 
0.0000000e+00 0.0000000e+00 0.0000000e+00 
0.0000000e+00 0.0000000e+00 0.0000000e+00 
0.0000000e+00 0.0000000e+00 0.0000000e+00 
0.0000000e+00 0.0000000e+00 0.0000000e+00 
0.0000000e+00 0.0000000e+00 0.0000000e+00 
0.0000000e+00 0.0000000e+00 0.0000000e+00 
0.0000000e+00 0.0000000e+00 0.0000000e+00 
0.0000000e+00 0.0000000e+00 0.0000000e+00 
0.0000000e+00 0.0000000e+00 0.0000000e+00 
0.0000000e+00 -1.0401294e-07 0.0000000e+00 
0.0000000e+00 1.9449330e-07 0.0000000e+00 
0.0000000e+00 -6.5154967e-07 0.0000000e+00 
0.0000000e+00 1.6010576e-07 0.0000000e+00 
0.0000000e+00 3.9624985e-07 0.0000000e+00 
0.0000000e+00 -7.3234639e-07 0.0000000e+00 
0.0000000e+00 -7.6586326e-07 0.0000000e+00 
0.0000000e+00 -2.5751098e-07 0.0000000e+00 
0.0000000e+00 -9.3992406e-07 0.0000000e+00 
0.0000000e+00 -5.3013156e-07 0.0000000e+00 
0.0000000e+00 -5.4821464e-07 0.0000000e+00 
0.0000000e+00 -8.1778091e-07 0.0000000e+00 
0.0000000e+00 2.4494295e-07 0.0000000e+00 
0.0000000e+00 2.9206206e-09 0.0000000e+00 
0.0000000e+00 -6.0588337e-07 0.0000000e+00 
0.0000000e+00 7.7087826e-08 0.0000000e+00 
0.0000000e+00 3.2506975e-07 0.0000000e+00 
0.0000000e+00 -5.5829261e-08 0.0000000e+00 
0.0000000e+00 -5.1627268e-07 0.0000000e+00 
0.0000000e+00 9.1978784e-08 0.0000000e+00 
0.0000000e+00 -6.3232505e-07 0.0000000e+00 
0.0000000e+00 -9.9282609e-08 0.0000000e+00 
0.0000000e+00 -7.4605782e-07 0.0000000e+00 
0.0000000e+00 -9.8220880e-07 0.0000000e+00 
0.0000000e+00 2.4911941e-07 0.0000000e+00 
0.0000000e+00 3.1375620e-07 0.0000000e+00 
0.0000000e+00 6.7842656e-08 0.0000000e+00 
0.0000000e+00 1.4172753e-07 0.0000000e+00 
0.0000000e+00 -1.7908516e-07 0.0000000e+00 
0.0000000e+00 -1.9448557e-07 0.0000000e+00 
0.0000000e+00 -7.9772117e-06 0.0000000e+00 
0.0000000e+00 -1.8325460e-05 0.0000000e+00 
0.0000000e+00 -2.2718359e-05 0.0000000e+00 
0.0000000e+00 -1.8894385e-06 0.0000000e+00 
0.0000000e+00 -8.2529768e-05 0.0000000e+00 
0.0000000e+00 -3.2354124e-05 0.0000000e+00 
0.0000000e+00 -3.0678698e-06 0.0000000e+00 
0.0000000e+00 -2.7527967e-05 0.0000000e+00 
0.0000000e+00 -4.9144655e-05 0.0000000e+00 
0.0000000e+00 -7.1174894e-05 0.0000000e+00 
0.0000000e+00 -1.1544460e-05 0.0000000e+00 
0.0000000e+00 -1.4268062e-05 0.0000000e+00 
0.0000000e+00 -7.0271369e-07 0.0000000e+00 
0.0000000e+00 -1.9089446e-05 0.0000000e+00 
0.0000000e+00 -8.5482934e-06 0.0000000e+00 
0.0000000e+00 -4.8245221e-07 0.0000000e+00 
0.0000000e+00 -3.6006197e-05 0.0000000e+00 
0.0000000e+00 -4.2205306e-06 0.0000000e+00 
0.0000000e+00 -5.4107506e-05 0.0000000e+00 
0.0000000e+00 -4.6768520e-05 0.0000000e+00 
0.0000000e+00 -4.8184934e-06 0.0000000e+00 
0.0000000e+00 -1.2405503e-05 0.0000000e+00 
0.0000000e+00 -1.2122608e-06 0.0000000e+00 
0.0000000e+00 -2.3495102e-05 0.0000000e+00 
0.0000000e+00 -1.3484221e-07 0.0000000e+00 
0.0000000e+00 -7.7322620e-06 0.0000000e+00 
0.0000000e+00 -4.2098991e-06 0.0000000e+00 
0.0000000e+00 -1.0992385e-07 0.0000000e+00 
0.0000000e+00 -1.1616057e-09 0.0000000e+00 
0.0000000e+00 2.0650528e-07 0.0000000e+00 
0.0000000e+00 3.2763819e-07 0.0000000e+00 
0.0000000e+00 2.8331536e-07 0.0000000e+00 
0.0000000e+00 1.3698637e-08 0.0000000e+00 
0.0000000e+00 3.5086057e-07 0.0000000e+00 
0.0000000e+00 8.2191683e-08 0.0000000e+00 
0.0000000e+00 1.0682351e-07 0.0000000e+00 
0.0000000e+00 1.8671574e-07 0.0000000e+00 
0.0000000e+00 2.4235459e-07 0.0000000e+00 
0.0000000e+00 7.3528213e-08 0.0000000e+00 
0.0000000e+00 3.3234880e-07 0.0000000e+00 
0.0000000e+00 1.3188530e-07 0.0000000e+00 
0.0000000e+00 -4.5131370e-09 0.0000000e+00 
-1.3384576e-05 -8.2325547e-05 -1.0354705e-05 
-3.9083156e-06 -1.5278642e-05 -8.4121430e-06 
-7.2858546e-07 -8.9165201e-07 -2.5569509e-06 
-9.5530959e-06 -4.1241990e-05 1.3617259e-05 
-6.8772924e-06 -1.0723476e-04 7.3316123e-06 
-2.6587575e-06 -9.3056997e-07 -9.5342028e-07 
-2.0608338e-06 -2.1060096e-06 4.0931494e-07 
-7.3530077e-07 7.0195249e-08 -6.5445539e-07 
-3.2782580e-06 -1.0104027e-05 6.9470957e-06 
-2.0627894e-07 -3.1392783e-08 -8.4807181e-07 
-1.9754491e-06 -1.6675600e-06 1.6709206e-06 
-1.6761226e-07 3.1448218e-07 -2.5918555e-07 
-1.0409198e-06 -2.9165173e-07 -9.1186325e-07 
-1.8106662e-06 -8.3962544e-07 -2.2174308e-06 
-8.0278375e-07 -4.2733856e-07 -1.3244294e-06 
-1.3147954e-06 -1.3828244e-06 -1.6316657e-06 
-2.6444818e-06 -4.2516440e-06 -2.8536376e-06 
-4.6847777e-07 -2.1748060e-07 -9.2049765e-07 
-1.8304229e-06 -2.9991240e-06 -4.1826197e-06 
-3.5624546e-06 -3.3319284e-06 -2.9929379e-06 
-4.5982470e-06 -6.0316620e-06 -2.5065613e-06 
-6.1320848e-06 -1.1186095e-05 -4.4379831e-06 
-1.0048757e-05 -2.0579286e-05 -5.3419762e-06 
-6.9352554e-06 -1.0311654e-05 -1.4601804e-06 
-1.1419267e-05 -2.6234908e-05 -1.0009348e-06 
-5.6116278e-06 -9.2389109e-06 5.9849654e-08 
-1.0324842e-05 -2.6821903e-05 3.6128779e-06 
-6.9245189e-06 -1.3443688e-05 2.7831045e-06 
-8.9118303e-06 -2.1263839e-05 4.6456025e-06 
-6.0245316e-06 -8.8244160e-06 3.3864583e-06 
-6.1841424e-06 -1.2004720e-05 5.4663888e-06 
-8.8961333e-06 -2.4635190e-05 -9.1129514e-06 
-6.2283302e-06 -1.4456456e-05 -7.1009754e-06 
-1.7133341e-05 -5.5323930e-05 1.2330271e-06 
-3.0490776e-06 -3.0048711e-06 3.8711929e-07 
-2.1835943e-07 2.6382568e-07 -4.2235524e-07 
-1.4618219e-05 -5.0386705e-05 -5.2517462e-06 
-2.8405293e-06 -2.6539001e-06 -1.0419981e-06 
-2.4886799e-06 -3.5085686e-06 2.6453756e-06 
-2.3885985e-07 3.3297343e-07 -2.6760060e-07 
-7.1811945e-07 -1.3264506e-06 -2.2707827e-06 
-5.9210947e-07 -4.1087185e-07 -1.5891160e-06 
-6.4024825e-06 -2.9475355e-05 -9.4167390e-06 
-1.4584272e-06 -8.5987904e-07 8.0587967e-07 
-9.7373177e-06 -6.5032582e-05 1.1599754e-05 
-8.4465682e-06 -5.1894316e-05 5.3566132e-06 
-1.2882053e-05 -1.3338223e-04 7.1052982e-06 
-1.3692614e-05 -1.1877594e-04 -7.4119625e-06 
-2.3387272e-06 -6.3329940e-06 -5.6874765e-06 
-1.1141537e-06 -2.6251291e-06 -3.2957380e-06 
-1.7304712e-06 -3.9053639e-06 4.1162793e-06 
-5.5207288e-06 -2.2025877e-05 9.8256423e-06 
-1.4209009e-07 2.1333977e-07 -4.1413921e-07 
-3.6819436e-06 -4.5945822e-06 3.4121938e-06 
-1.2035673e-05 -3.2355056e-05 1.0914418e-05 
-4.1319069e-07 -4.4645410e-07 -1.5846784e-06 
-3.0050908e-06 -7.3215888e-06 -4.9403925e-06 
-5.1246157e-06 -1.1709099e-05 7.5610155e-06 
-9.0539434e-06 -5.4529039e-05 -1.3266084e-05 
-3.6887457e-07 1.8004391e-07 -7.0163452e-07 
-9.5153261e-08 3.5009799e-07 -1.4118362e-07 
-8.3419894e-07 -2.7340039e-07 5.7701175e-07 
-4.9546875e-06 -6.0568909e-06 -2.0708659e-07 
-7.6822880e-06 -2.1686039e-05 1.0458228e-05 
-2.7284054e-07 1.1265285e-07 -6.6913930e-07 
-3.8575422e-06 -7.3587935e-06 -3.8779262e-06 
-2.8811971e-06 -3.0422432e-06 1.5760594e-06 
-4.0813379e-06 -5.5287483e-06 9.6888039e-07 
-2.4572835e-06 -5.6321915e-06 4.3544464e-06 
-1.4531722e-05 -4.3434644e-05 -9.9394156e-06 
-1.5442328e-07 2.6495800e-07 -3.0321624e-07 
-4.2304937e-06 -5.0543076e-05 9.3546696e-06 
-1.6176820e-06 -2.8613942e-05 9.9159679e-06 
-5.3349959e-06 -8.0830534e-05 1.0660307e-05 
-8.2544657e-06 -1.1341843e-04 6.3989155e-06 
-1.3498722e-06 -1.4208660e-05 6.8961549e-06 
-1.3483157e-06 -1.2351075e-04 6.6472069e-07 
-5.2713008e-06 -1.2063756e-04 -4.7346020e-06 
-2.1775027e-06 -8.5031148e-05 -4.9943401e-06 
-3.4637494e-06 -5.7275625e-05 -8.5822821e-06 
-2.1362512e-06 -3.0341764e-05 -7.3084498e-06 
-1.5010128e-06 -1.9158882e-05 -7.3580395e-06 
-8.2704247e-07 -8.4875473e-06 -5.9004524e-06 
-2.7112009e-07 -3.4543584e-06 -3.5226917e-06 
-2.7138509e-07 -1.4626769e-06 -2.1412752e-06 
-1.6754296e-07 -7.8804948e-07 -1.3529003e-06 
-6.8960645e-08 -3.3988124e-07 -7.5929586e-07 
-5.7805664e-08 -1.5150167e-08 -3.4005436e-07 
-6.2511458e-07 -6.4566616e-06 3.4482521e-06 
4.4725871e-06 -1.9008594e-05 -7.1458048e-06 
1.0428711e-05 -3.8010516e-05 -1.7888902e-06 
5.4326692e-06 -1.9533065e-05 6.2650943e-06 
9.6438771e-07 -3.0872225e-06 2.6351452e-06 
8.7175565e-08 -2.0018592e-07 7.0208330e-07 
4.5850888e-06 -6.7243113e-06 -2.0794600e-06 
4.8939855e-06 -6.2887912e-06 5.8499694e-07 
2.0357127e-06 -3.6330446e-06 2.3806979e-06 
7.7612240e-06 -5.9596281e-05 6.8928603e-06 
2.4937042e-06 -6.1482388e-05 -6.7187289e-06 
4.3277967e-07 -1.0651198e-05 -2.7622903e-06 
5.9694588e-07 -4.2121297e-07 1.0474253e-06 
1.7553677e-06 -4.5332054e-06 -1.9902027e-06 
1.4012471e-06 -1.3359680e-05 4.3994778e-06 
-4.1917993e-08 -1.1463121e-06 4.3050437e-07 
-1.3629067e-06 -1.0709607e-04 -5.2728510e-06 
6.7727688e-06 -2.3949457e-05 1.9428323e-06 
6.3447847e-06 -2.1572048e-05 -3.5219878e-06 
1.8527184e-06 -4.5183773e-05 6.4314572e-06 
7.8059593e-06 -1.8897086e-05 3.2395658e-06 
1.2816467e-06 -3.0175057e-05 -2.3786331e-06 
2.3322634e-06 -2.2356633e-06 1.2061787e-06 
-3.7167851e-08 -4.8742287e-08 1.5259109e-10 
1.7457446e-06 -1.2382659e-06 -1.2404720e-06 
1.4296832e-07 2.5431706e-07 2.2399941e-07 
6.3001007e-06 -2.4446466e-05 -5.1439838e-06 
5.7155257e-06 -8.2272145e-06 3.4188779e-06 
4.9583846e-06 -7.3243532e-06 -3.7672421e-06 
7.2837447e-06 -1.2106471e-05 -1.4684634e-06 
3.9359729e-06 -1.2819652e-05 -1.1971021e-06 
4.1356796e-07 -2.3960249e-07 3.7713747e-07 
5.4812858e-07 -4.1707276e-06 1.0369931e-06 
-8.7215298e-08 -4.0203204e-06 2.8219199e-07 
2.0906102e-06 -1.2756877e-05 1.5404944e-06 
1.5516488e-07 3.0901205e-08 4.8021292e-07 
2.1189318e-07 -7.9569639e-07 6.7233429e-07 
2.0506102e-06 -4.6527466e-06 -3.1470138e-06 
2.1649314e-06 -2.7838846e-06 -3.7029849e-07 
8.3720585e-07 -7.2939215e-06 -3.7045452e-06 
1.5358681e-06 -7.3379174e-06 4.1151220e-06 
5.8529454e-06 -3.7379188e-05 2.4980638e-06 
-5.5217630e-08 2.0927534e-07 7.9166568e-08 
1.1279353e-07 -1.0488455e-06 1.4555590e-06 
8.9510022e-06 -6.2363528e-05 -2.1809990e-06 
8.6567911e-07 -9.3957997e-06 -2.1151129e-06 
1.6672949e-06 -7.0481151e-06 9.3573027e-07 
2.5275615e-06 -2.0039188e-06 -5.6235308e-07 
3.9344823e-07 -7.2905596e-07 1.3369906e-06 
1.4376668e-06 -7.5951198e-06 -1.0881797e-06 
3.4810714e-06 -1.7987610e-05 5.0227909e-06 
9.8036139e-07 -1.7843888e-06 -5.2287817e-07 
4.4894634e-07 -1.4048003e-07 5.9398116e-07 
-1.1929743e-07 -1.7191237e-08 -2.5276177e-07 
4.6844536e-07 -1.0825529e-05 4.7560417e-07 
1.1684787e-06 -2.0896841e-05 5.1753295e-06 
2.8629770e-06 -4.8346483e-06 3.5898011e-06 
2.1950084e-08 -6.5512268e-08 4.1679175e-07 
4.6051395e-07 -9.0123569e-07 -4.3412729e-07 
3.8646851e-07 -2.7035858e-06 1.1698261e-07 
2.3707146e-06 -1.9076342e-06 2.4157606e-07 
5.9555606e-07 -1.6876991e-06 2.9266076e-07 
1.0790588e-06 -5.9253193e-07 9.4623329e-07 
7.7344328e-07 -2.1424124e-05 -1.2551963e-06 