# vtk DataFile Version 4.0
vtk output
ASCII
DATASET UNSTRUCTURED_GRID
POINTS 460 float
0.0000000e+00 0.0000000e+00 0.0000000e+00 
5.0000000e+00 0.0000000e+00 0.0000000e+00 
5.0000000e+00 3.0000000e+00 0.0000000e+00 
0.0000000e+00 3.0000000e+00 0.0000000e+00 
0.0000000e+00 0.0000000e+00 1.0000000e+01 
5.0000000e+00 0.0000000e+00 1.0000000e+01 
5.0000000e+00 3.0000000e+00 1.0000000e+01 
0.0000000e+00 3.0000000e+00 1.0000000e+01 
1.0000000e+00 3.0000000e+00 -5.0000000e+00 
1.0000000e+00 3.0000000e+00 -4.5000000e+00 
1.0000000e+00 3.0000000e+00 -4.0000000e+00 
1.0000000e+00 3.0000000e+00 -3.5000000e+00 
1.0000000e+00 3.0000000e+00 -3.0000000e+00 
1.0000000e+00 3.0000000e+00 -2.5000000e+00 
1.0000000e+00 3.0000000e+00 -2.0000000e+00 
1.0000000e+00 3.0000000e+00 -1.5000000e+00 
1.0000000e+00 3.0000000e+00 -1.0000000e+00 
1.0000000e+00 3.0000000e+00 -5.0000000e-01 
1.0000000e+00 3.0000000e+00 0.0000000e+00 
1.0000000e+00 3.0000000e+00 5.0000000e-01 
1.0000000e+00 3.0000000e+00 1.0000000e+00 
1.0000000e+00 3.0000000e+00 1.5000000e+00 
1.0000000e+00 3.0000000e+00 2.0000000e+00 
1.0000000e+00 3.0000000e+00 2.5000000e+00 
1.0000000e+00 3.0000000e+00 3.0000000e+00 
1.0000000e+00 3.0000000e+00 3.5000000e+00 
1.0000000e+00 3.0000000e+00 4.0000000e+00 
1.0000000e+00 3.0000000e+00 4.5000000e+00 
1.0000000e+00 3.0000000e+00 5.0000000e+00 
1.0000000e+00 3.0000000e+00 5.5000000e+00 
1.0000000e+00 3.0000000e+00 6.0000000e+00 
1.0000000e+00 3.0000000e+00 6.5000000e+00 
1.0000000e+00 3.0000000e+00 7.0000000e+00 
1.0000000e+00 3.0000000e+00 7.5000000e+00 
1.0000000e+00 3.0000000e+00 8.0000000e+00 
1.0000000e+00 3.0000000e+00 8.5000000e+00 
1.0000000e+00 3.0000000e+00 9.0000000e+00 
1.0000000e+00 3.0000000e+00 9.5000000e+00 
1.0000000e+00 3.0000000e+00 1.0000000e+01 
1.0000000e+00 3.0000000e+00 1.0500000e+01 
1.0000000e+00 3.0000000e+00 1.1000000e+01 
1.0000000e+00 3.0000000e+00 1.1500000e+01 
1.0000000e+00 3.0000000e+00 1.2000000e+01 
1.0000000e+00 3.0000000e+00 1.2500000e+01 
1.0000000e+00 3.0000000e+00 1.3000000e+01 
1.0000000e+00 3.0000000e+00 1.3500000e+01 
1.0000000e+00 3.0000000e+00 1.4000000e+01 
1.0000000e+00 3.0000000e+00 1.4500000e+01 
1.0000000e+00 3.0250001e+00 -5.0000000e+00 
1.0000000e+00 3.0250001e+00 -4.5000000e+00 
1.0000000e+00 3.0250001e+00 -4.0000000e+00 
1.0000000e+00 3.0250001e+00 -3.5000000e+00 
1.0000000e+00 3.0250001e+00 -3.0000000e+00 
1.0000000e+00 3.0250001e+00 -2.5000000e+00 
1.0000000e+00 3.0250001e+00 -2.0000000e+00 
1.0000000e+00 3.0250001e+00 -1.5000000e+00 
1.0000000e+00 3.0250001e+00 -1.0000000e+00 
1.0000000e+00 3.0250001e+00 -5.0000000e-01 
1.0000000e+00 3.0250001e+00 0.0000000e+00 
1.0000000e+00 3.0250001e+00 5.0000000e-01 
1.0000000e+00 3.0250001e+00 1.0000000e+00 
1.0000000e+00 3.0250001e+00 1.5000000e+00 
1.0000000e+00 3.0250001e+00 2.0000000e+00 
1.0000000e+00 3.0250001e+00 2.5000000e+00 
1.0000000e+00 3.0250001e+00 3.0000000e+00 
1.0000000e+00 3.0250001e+00 3.5000000e+00 
1.0000000e+00 3.0250001e+00 4.0000000e+00 
1.0000000e+00 3.0250001e+00 4.5000000e+00 
1.0000000e+00 3.0250001e+00 5.0000000e+00 
1.0000000e+00 3.0250001e+00 5.5000000e+00 
1.0000000e+00 3.0250001e+00 6.0000000e+00 
1.0000000e+00 3.0250001e+00 6.5000000e+00 
1.0000000e+00 3.0250001e+00 7.0000000e+00 
1.0000000e+00 3.0250001e+00 7.5000000e+00 
1.0000000e+00 3.0250001e+00 8.0000000e+00 
1.0000000e+00 3.0250001e+00 8.5000000e+00 
1.0000000e+00 3.0250001e+00 9.0000000e+00 
1.0000000e+00 3.0250001e+00 9.5000000e+00 
1.0000000e+00 3.0250001e+00 1.0000000e+01 
1.0000000e+00 3.0250001e+00 1.0500000e+01 
1.0000000e+00 3.0250001e+00 1.1000000e+01 
1.0000000e+00 3.0250001e+00 1.1500000e+01 
1.0000000e+00 3.0250001e+00 1.2000000e+01 
1.0000000e+00 3.0250001e+00 1.2500000e+01 
1.0000000e+00 3.0250001e+00 1.3000000e+01 
1.0000000e+00 3.0250001e+00 1.3500000e+01 
1.0000000e+00 3.0250001e+00 1.4000000e+01 
1.0000000e+00 3.0250001e+00 1.4500000e+01 
1.0000000e+00 -2.0000000e+00 -5.0000000e+00 
1.0000000e+00 -2.0000000e+00 -4.5000000e+00 
1.0000000e+00 -2.0000000e+00 -4.0000000e+00 
1.0000000e+00 -2.0000000e+00 -3.5000000e+00 
1.0000000e+00 -2.0000000e+00 -3.0000000e+00 
1.0000000e+00 -2.0000000e+00 -2.5000000e+00 
1.0000000e+00 -2.0000000e+00 -2.0000000e+00 
1.0000000e+00 -2.0000000e+00 -1.5000000e+00 
1.0000000e+00 -2.0000000e+00 -1.0000000e+00 
1.0000000e+00 -2.0000000e+00 -5.0000000e-01 
1.0000000e+00 -2.0000000e+00 1.0500000e+01 
1.0000000e+00 -2.0000000e+00 1.1000000e+01 
1.0000000e+00 -2.0000000e+00 1.1500000e+01 
1.0000000e+00 -2.0000000e+00 1.2000000e+01 
1.0000000e+00 -2.0000000e+00 1.2500000e+01 
1.0000000e+00 -2.0000000e+00 1.3000000e+01 
1.0000000e+00 -2.0000000e+00 1.3500000e+01 
1.0000000e+00 -2.0000000e+00 1.4000000e+01 
1.0000000e+00 -2.0000000e+00 1.4500000e+01 
1.0000000e+00 0.0000000e+00 0.0000000e+00 
2.0000000e+00 0.0000000e+00 0.0000000e+00 
3.0000000e+00 0.0000000e+00 0.0000000e+00 
4.0000000e+00 0.0000000e+00 0.0000000e+00 
5.0000000e+00 1.0000000e+00 0.0000000e+00 
5.0000000e+00 2.0000000e+00 0.0000000e+00 
0.0000000e+00 2.0000000e+00 0.0000000e+00 
0.0000000e+00 1.0000000e+00 0.0000000e+00 
0.0000000e+00 0.0000000e+00 1.0000000e+00 
0.0000000e+00 0.0000000e+00 2.0000000e+00 
0.0000000e+00 0.0000000e+00 3.0000000e+00 
0.0000000e+00 0.0000000e+00 4.0000000e+00 
0.0000000e+00 0.0000000e+00 5.0000000e+00 
0.0000000e+00 0.0000000e+00 6.0000000e+00 
0.0000000e+00 0.0000000e+00 7.0000000e+00 
0.0000000e+00 0.0000000e+00 8.0000000e+00 
0.0000000e+00 0.0000000e+00 9.0000000e+00 
5.0000000e+00 0.0000000e+00 1.0000000e+00 
5.0000000e+00 0.0000000e+00 2.0000000e+00 
5.0000000e+00 0.0000000e+00 3.0000000e+00 
5.0000000e+00 0.0000000e+00 4.0000000e+00 
5.0000000e+00 0.0000000e+00 5.0000000e+00 
5.0000000e+00 0.0000000e+00 6.0000000e+00 
5.0000000e+00 0.0000000e+00 7.0000000e+00 
5.0000000e+00 0.0000000e+00 8.0000000e+00 
5.0000000e+00 0.0000000e+00 9.0000000e+00 
1.0000000e+00 0.0000000e+00 1.0000000e+01 
2.0000000e+00 0.0000000e+00 1.0000000e+01 
3.0000000e+00 0.0000000e+00 1.0000000e+01 
4.0000000e+00 0.0000000e+00 1.0000000e+01 
5.0000000e+00 3.0000000e+00 1.0000000e+00 
5.0000000e+00 3.0000000e+00 2.0000000e+00 
5.0000000e+00 3.0000000e+00 3.0000000e+00 
5.0000000e+00 3.0000000e+00 4.0000000e+00 
5.0000000e+00 3.0000000e+00 5.0000000e+00 
5.0000000e+00 3.0000000e+00 6.0000000e+00 
5.0000000e+00 3.0000000e+00 7.0000000e+00 
5.0000000e+00 3.0000000e+00 8.0000000e+00 
5.0000000e+00 3.0000000e+00 9.0000000e+00 
5.0000000e+00 1.0000000e+00 1.0000000e+01 
5.0000000e+00 2.0000000e+00 1.0000000e+01 
0.0000000e+00 3.0000000e+00 1.0000000e+00 
0.0000000e+00 3.0000000e+00 2.0000000e+00 
0.0000000e+00 3.0000000e+00 3.0000000e+00 
0.0000000e+00 3.0000000e+00 4.0000000e+00 
0.0000000e+00 3.0000000e+00 5.0000000e+00 
0.0000000e+00 3.0000000e+00 6.0000000e+00 
0.0000000e+00 3.0000000e+00 7.0000000e+00 
0.0000000e+00 3.0000000e+00 8.0000000e+00 
0.0000000e+00 3.0000000e+00 9.0000000e+00 
0.0000000e+00 2.0000000e+00 1.0000000e+01 
0.0000000e+00 1.0000000e+00 1.0000000e+01 
4.0000000e+00 3.0000000e+00 0.0000000e+00 
3.0000000e+00 3.0000000e+00 0.0000000e+00 
2.0000000e+00 3.0000000e+00 0.0000000e+00 
4.0000000e+00 3.0000000e+00 1.0000000e+01 
3.0000000e+00 3.0000000e+00 1.0000000e+01 
2.0000000e+00 3.0000000e+00 1.0000000e+01 
4.0618000e+00 1.5000000e+00 0.0000000e+00 
1.5046000e+00 7.6549745e-01 0.0000000e+00 
2.5000000e+00 2.1339746e+00 0.0000000e+00 
1.5046000e+00 2.2345026e+00 0.0000000e+00 
2.4957771e+00 8.1560516e-01 0.0000000e+00 
3.4707544e+00 2.2336540e+00 0.0000000e+00 
3.4700506e+00 7.5794268e-01 0.0000000e+00 
8.6322361e-01 1.5000000e+00 0.0000000e+00 
2.0000000e+00 1.5000000e+00 0.0000000e+00 
2.9960666e+00 1.4974480e+00 0.0000000e+00 
4.2679491e+00 7.3205084e-01 0.0000000e+00 
4.2679491e+00 2.2679491e+00 0.0000000e+00 
7.2695929e-01 2.2730408e+00 0.0000000e+00 
7.2695929e-01 7.2695929e-01 0.0000000e+00 
4.1822505e+00 0.0000000e+00 2.5515697e+00 
4.2017918e+00 0.0000000e+00 4.4725966e+00 
4.1114569e+00 0.0000000e+00 6.5092020e+00 
8.6602539e-01 0.0000000e+00 3.5000000e+00 
8.4778279e-01 0.0000000e+00 5.4684029e+00 
8.9629614e-01 0.0000000e+00 7.5867257e+00 
2.5566745e+00 0.0000000e+00 8.1853306e-01 
2.4918270e+00 0.0000000e+00 9.1386929e+00 
8.4677207e-01 0.0000000e+00 1.5042374e+00 
4.0943027e+00 0.0000000e+00 8.4081745e+00 
8.6281651e-01 0.0000000e+00 2.5007062e+00 
1.7315160e+00 0.0000000e+00 3.0001178e+00 
1.7319617e+00 0.0000000e+00 4.0000196e+00 
2.5980761e+00 0.0000000e+00 3.5000000e+00 
2.5536871e+00 0.0000000e+00 4.4963923e+00 
2.5928419e+00 0.0000000e+00 2.4239938e+00 
1.5037409e+00 0.0000000e+00 9.1535149e+00 
1.8433737e+00 0.0000000e+00 8.1858873e+00 
3.0000000e+00 0.0000000e+00 8.2679491e+00 
2.5000000e+00 0.0000000e+00 7.4019237e+00 
3.5042722e+00 0.0000000e+00 7.4271150e+00 
3.0310018e+00 0.0000000e+00 6.5282087e+00 
2.0373929e+00 0.0000000e+00 6.5307913e+00 
3.4767809e+00 0.0000000e+00 5.8031492e+00 
2.5452602e+00 0.0000000e+00 5.5720768e+00 
1.6456656e+00 0.0000000e+00 1.9697139e+00 
8.6297011e-01 0.0000000e+00 4.4947371e+00 
1.0111579e+00 0.0000000e+00 6.5282545e+00 
3.4994321e+00 0.0000000e+00 8.4691072e-01 
4.1860156e+00 0.0000000e+00 3.5040276e+00 
1.7320508e+00 0.0000000e+00 5.0000000e+00 
4.0544066e+00 0.0000000e+00 1.5781221e+00 
1.5817389e+00 0.0000000e+00 9.3943578e-01 
8.3166349e-01 0.0000000e+00 8.5090933e+00 
3.4686174e+00 0.0000000e+00 9.1752682e+00 
3.0709300e+00 0.0000000e+00 1.5799091e+00 
3.3927374e+00 0.0000000e+00 3.0399952e+00 
3.3826034e+00 0.0000000e+00 3.9747651e+00 
4.3420062e+00 0.0000000e+00 7.4688983e+00 
3.4023225e+00 0.0000000e+00 4.9314723e+00 
1.6740381e+00 0.0000000e+00 7.3014426e+00 
4.2715640e+00 0.0000000e+00 5.4758859e+00 
1.6225953e+00 0.0000000e+00 5.8104177e+00 
4.2679491e+00 0.0000000e+00 9.2679491e+00 
7.3205084e-01 0.0000000e+00 7.3205084e-01 
4.2679491e+00 0.0000000e+00 7.3205084e-01 
7.3205084e-01 0.0000000e+00 9.2679491e+00 
3.4586334e+00 0.0000000e+00 2.2347178e+00 
2.2895701e+00 0.0000000e+00 1.5463171e+00 
5.0000000e+00 2.2345026e+00 1.5046000e+00 
[...]
POINT_DATA 460
FIELD FieldData 2
DISPLACEMENT 3 460  float
0.0000000e+00 0.0000000e+00 0.0000000e+00 
0.0000000e+00 0.0000000e+00 0.0000000e+00 
0.0000000e+00 -4.4547942e-06 0.0000000e+00 
0.0000000e+00 -1.0864150e-04 0.0000000e+00 
0.0000000e+00 0.0000000e+00 0.0000000e+00 
0.0000000e+00 0.0000000e+00 0.0000000e+00 
0.0000000e+00 1.8223160e-08 0.0000000e+00 
0.0000000e+00 1.2579989e-08 0.0000000e+00 
0.0000000e+00 -9.5177975e-06 0.0000000e+00 
0.0000000e+00 -7.5564549e-06 0.0000000e+00 
0.0000000e+00 -3.9464544e-06 0.0000000e+00 
0.0000000e+00 -4.2806591e-06 0.0000000e+00 
0.0000000e+00 -1.6909273e-05 0.0000000e+00 
0.0000000e+00 -5.1863415e-05 0.0000000e+00 
0.0000000e+00 -1.1775680e-04 0.0000000e+00 
0.0000000e+00 -2.1550477e-04 0.0000000e+00 
0.0000000e+00 -3.2812299e-04 0.0000000e+00 
0.0000000e+00 -4.0735566e-04 0.0000000e+00 
0.0000000e+00 -3.8222288e-04 0.0000000e+00 
-1.0198134e-05 -2.6599501e-04 -3.6034467e-06 
-1.1364052e-05 -1.4530319e-04 -1.5278041e-05 
-5.1929987e-06 -6.8171714e-05 -1.7647009e-05 
-4.6329492e-06 -2.7592572e-05 -1.6768770e-05 
-2.9206444e-06 -9.8963183e-06 -1.0513019e-05 
-1.3767295e-06 -3.3163210e-06 -6.3925704e-06 
-1.1105815e-06 -1.2450271e-06 -4.1367302e-06 
-5.7884671e-07 -6.8193043e-07 -2.4600483e-06 
-2.9150752e-07 -4.0937442e-07 -1.3504044e-06 
-1.1833932e-07 -2.1212333e-07 -6.8120494e-07 
-6.8080880e-08 -6.2435362e-08 -3.7377586e-07 
-6.2937154e-08 3.2879168e-08 -2.2159314e-07 
-3.5018086e-08 7.6399282e-08 -1.1037307e-07 
-2.2458160e-08 8.4851095e-08 -5.0639272e-08 
-1.2652898e-08 7.6093613e-08 -1.4827706e-08 
-8.7816154e-09 5.9859460e-08 -2.0766024e-09 
-5.8106506e-09 4.2651237e-08 8.2993727e-09 
-3.2904899e-09 2.7917162e-08 8.0516527e-09 
-1.8903721e-09 1.7311841e-08 3.9815302e-09 
0.0000000e+00 1.0000604e-08 0.0000000e+00 
0.0000000e+00 4.0183834e-09 0.0000000e+00 
0.0000000e+00 1.8759991e-10 0.0000000e+00 
0.0000000e+00 -1.5618936e-09 0.0000000e+00 
0.0000000e+00 -1.6526805e-09 0.0000000e+00 
0.0000000e+00 -6.9610345e-10 0.0000000e+00 
0.0000000e+00 7.0699829e-10 0.0000000e+00 
0.0000000e+00 2.0632476e-09 0.0000000e+00 
0.0000000e+00 3.0195142e-09 0.0000000e+00 
0.0000000e+00 3.3633145e-09 0.0000000e+00 
0.0000000e+00 -9.4481929e-06 0.0000000e+00 
0.0000000e+00 -7.4822942e-06 0.0000000e+00 
0.0000000e+00 -3.8681096e-06 0.0000000e+00 
0.0000000e+00 -4.2199144e-06 0.0000000e+00 
0.0000000e+00 -1.6919850e-05 0.0000000e+00 
0.0000000e+00 -5.2036907e-05 0.0000000e+00 
0.0000000e+00 -1.1821629e-04 0.0000000e+00 
0.0000000e+00 -2.1637313e-04 0.0000000e+00 
0.0000000e+00 -3.2945219e-04 0.0000000e+00 
0.0000000e+00 -4.0900096e-04 0.0000000e+00 
0.0000000e+00 -3.8660908e-04 0.0000000e+00 
0.0000000e+00 -2.6907999e-04 0.0000000e+00 
0.0000000e+00 -1.4736080e-04 0.0000000e+00 
0.0000000e+00 -6.8367124e-05 0.0000000e+00 
0.0000000e+00 -2.7497987e-05 0.0000000e+00 
0.0000000e+00 -9.7197671e-06 0.0000000e+00 
0.0000000e+00 -3.1946049e-06 0.0000000e+00 
0.0000000e+00 -1.1853849e-06 0.0000000e+00 
0.0000000e+00 -6.4601551e-07 0.0000000e+00 
0.0000000e+00 -4.0351202e-07 0.0000000e+00 
0.0000000e+00 -2.1110205e-07 0.0000000e+00 
0.0000000e+00 -6.2476865e-08 0.0000000e+00 
0.0000000e+00 3.2427387e-08 0.0000000e+00 
0.0000000e+00 7.6302278e-08 0.0000000e+00 
0.0000000e+00 8.5070603e-08 0.0000000e+00 
0.0000000e+00 7.6103845e-08 0.0000000e+00 
0.0000000e+00 5.9902348e-08 0.0000000e+00 
0.0000000e+00 4.2697625e-08 0.0000000e+00 
0.0000000e+00 2.8024399e-08 0.0000000e+00 
0.0000000e+00 1.7376278e-08 0.0000000e+00 
0.0000000e+00 9.8816875e-09 0.0000000e+00 
0.0000000e+00 4.0522510e-09 0.0000000e+00 
0.0000000e+00 2.0516086e-10 0.0000000e+00 
0.0000000e+00 -1.5552583e-09 0.0000000e+00 
0.0000000e+00 -1.6522735e-09 0.0000000e+00 
0.0000000e+00 -6.9856498e-10 0.0000000e+00 
0.0000000e+00 7.0369249e-10 0.0000000e+00 
0.0000000e+00 2.0600641e-09 0.0000000e+00 
0.0000000e+00 3.0166967e-09 0.0000000e+00 
0.0000000e+00 3.3606744e-09 0.0000000e+00 
0.0000000e+00 0.0000000e+00 0.0000000e+00 
0.0000000e+00 0.0000000e+00 0.0000000e+00 
0.0000000e+00 0.0000000e+00 0.0000000e+00 
0.0000000e+00 0.0000000e+00 0.0000000e+00 
0.0000000e+00 0.0000000e+00 0.0000000e+00 
0.0000000e+00 0.0000000e+00 0.0000000e+00 
0.0000000e+00 0.0000000e+00 0.0000000e+00 
0.0000000e+00 0.0000000e+00 0.0000000e+00 
0.0000000e+00 0.0000000e+00 0.0000000e+00 
0.0000000e+00 0.0000000e+00 0.0000000e+00 
0.0000000e+00 0.0000000e+00 0.0000000e+00 
0.0000000e+00 0.0000000e+00 0.0000000e+00 
0.0000000e+00 0.0000000e+00 0.0000000e+00 
0.0000000e+00 0.0000000e+00 0.0000000e+00 
0.0000000e+00 0.0000000e+00 0.0000000e+00 
0.0000000e+00 0.0000000e+00 0.0000000e+00 
0.0000000e+00 0.0000000e+00 0.0000000e+00 
0.0000000e+00 0.0000000e+00 0.0000000e+00 
0.0000000e+00 0.0000000e+00 0.0000000e+00 
0.0000000e+00 0.0000000e+00 0.0000000e+00 
0.0000000e+00 0.0000000e+00 0.0000000e+00 
0.0000000e+00 0.0000000e+00 0.0000000e+00 
0.0000000e+00 0.0000000e+00 0.0000000e+00 
0.0000000e+00 -2.2678564e-06 0.0000000e+00 
0.0000000e+00 -4.1076551e-06 0.0000000e+00 
0.0000000e+00 -9.4182513e-05 0.0000000e+00 
0.0000000e+00 -4.6411591e-05 0.0000000e+00 
0.0000000e+00 0.0000000e+00 0.0000000e+00 
0.0000000e+00 0.0000000e+00 0.0000000e+00 
0.0000000e+00 0.0000000e+00 0.0000000e+00 
0.0000000e+00 0.0000000e+00 0.0000000e+00 
0.0000000e+00 0.0000000e+00 0.0000000e+00 
0.0000000e+00 0.0000000e+00 0.0000000e+00 
0.0000000e+00 0.0000000e+00 0.0000000e+00 
0.0000000e+00 0.0000000e+00 0.0000000e+00 
0.0000000e+00 0.0000000e+00 0.0000000e+00 
0.0000000e+00 0.0000000e+00 0.0000000e+00 
0.0000000e+00 0.0000000e+00 0.0000000e+00 
0.0000000e+00 0.0000000e+00 0.0000000e+00 
0.0000000e+00 0.0000000e+00 0.0000000e+00 
0.0000000e+00 0.0000000e+00 0.0000000e+00 
0.0000000e+00 0.0000000e+00 0.0000000e+00 
0.0000000e+00 0.0000000e+00 0.0000000e+00 
0.0000000e+00 0.0000000e+00 0.0000000e+00 
0.0000000e+00 0.0000000e+00 0.0000000e+00 
0.0000000e+00 0.0000000e+00 0.0000000e+00 
0.0000000e+00 0.0000000e+00 0.0000000e+00 
0.0000000e+00 0.0000000e+00 0.0000000e+00 
0.0000000e+00 0.0000000e+00 0.0000000e+00 
0.0000000e+00 -3.4419900e-06 0.0000000e+00 
0.0000000e+00 -1.1788543e-06 0.0000000e+00 
0.0000000e+00 -7.2214488e-07 0.0000000e+00 
0.0000000e+00 1.8265601e-07 0.0000000e+00 
0.0000000e+00 2.1199459e-07 0.0000000e+00 
0.0000000e+00 2.1574186e-07 0.0000000e+00 
0.0000000e+00 1.0730280e-07 0.0000000e+00 
0.0000000e+00 5.7408062e-08 0.0000000e+00 
0.0000000e+00 2.6495432e-08 0.0000000e+00 
0.0000000e+00 9.6430108e-09 0.0000000e+00 
0.0000000e+00 1.6277815e-08 0.0000000e+00 
0.0000000e+00 -8.7403096e-05 0.0000000e+00 
0.0000000e+00 -3.1276679e-05 0.0000000e+00 
0.0000000e+00 -8.8782990e-06 0.0000000e+00 
0.0000000e+00 -2.1549233e-06 0.0000000e+00 
0.0000000e+00 -4.9058968e-07 0.0000000e+00 
0.0000000e+00 -3.2502150e-08 0.0000000e+00 
0.0000000e+00 5.0235990e-08 0.0000000e+00 
0.0000000e+00 4.2053060e-08 0.0000000e+00 
0.0000000e+00 2.1248328e-08 0.0000000e+00 
0.0000000e+00 1.1210573e-08 0.0000000e+00 
0.0000000e+00 6.3570864e-09 0.0000000e+00 
0.0000000e+00 -8.3093892e-06 0.0000000e+00 
0.0000000e+00 -2.1771377e-05 0.0000000e+00 
0.0000000e+00 -5.4220101e-05 0.0000000e+00 
0.0000000e+00 1.9223018e-08 0.0000000e+00 
0.0000000e+00 1.9422163e-08 0.0000000e+00 
0.0000000e+00 1.7793981e-08 0.0000000e+00 
0.0000000e+00 -5.4535617e-06 0.0000000e+00 
0.0000000e+00 -2.7425591e-05 0.0000000e+00 
0.0000000e+00 -3.4656023e-05 0.0000000e+00 
0.0000000e+00 -1.0491536e-04 0.0000000e+00 
0.0000000e+00 -1.6812830e-05 0.0000000e+00 
0.0000000e+00 -1.3702462e-05 0.0000000e+00 
0.0000000e+00 -4.6192099e-06 0.0000000e+00 
0.0000000e+00 -8.0455182e-05 0.0000000e+00 
0.0000000e+00 -4.5391102e-05 0.0000000e+00 
0.0000000e+00 -1.7232434e-05 0.0000000e+00 
0.0000000e+00 -2.7393171e-06 0.0000000e+00 
0.0000000e+00 -6.3416187e-06 0.0000000e+00 
0.0000000e+00 -1.5649026e-04 0.0000000e+00 
0.0000000e+00 -3.6691639e-05 0.0000000e+00 
0.0000000e+00 0.0000000e+00 0.0000000e+00 
0.0000000e+00 0.0000000e+00 0.0000000e+00 
0.0000000e+00 0.0000000e+00 0.0000000e+00 
0.0000000e+00 0.0000000e+00 0.0000000e+00 
0.0000000e+00 0.0000000e+00 0.0000000e+00 
0.0000000e+00 0.0000000e+00 0.0000000e+00 
0.0000000e+00 0.0000000e+00 0.0000000e+00 
0.0000000e+00 0.0000000e+00 0.0000000e+00 
0.0000000e+00 0.0000000e+00 0.0000000e+00 
0.0000000e+00 0.0000000e+00 0.0000000e+00 
0.0000000e+00 0.0000000e+00 0.0000000e+00 
0.0000000e+00 0.0000000e+00 0.0000000e+00 
0.0000000e+00 0.0000000e+00 0.0000000e+00 
0.0000000e+00 0.0000000e+00 0.0000000e+00 
0.0000000e+00 0.0000000e+00 0.0000000e+00 
0.0000000e+00 0.0000000e+00 0.0000000e+00 
0.0000000e+00 0.0000000e+00 0.0000000e+00 
0.0000000e+00 0.0000000e+00 0.0000000e+00 
0.0000000e+00 0.0000000e+00 0.0000000e+00 
0.0000000e+00 0.0000000e+00 0.0000000e+00 
0.0000000e+00 0.0000000e+00 0.0000000e+00 
0.0000000e+00 0.0000000e+00 0.0000000e+00 
0.0000000e+00 0.0000000e+00 0.0000000e+00 
0.0000000e+00 0.0000000e+00 0.0000000e+00 
0.0000000e+00 0.0000000e+00 0.0000000e+00 
0.0000000e+00 0.0000000e+00 0.0000000e+00 
0.0000000e+00 0.0000000e+00 0.0000000e+00 
0.0000000e+00 0.0000000e+00 0.0000000e+00 
0.0000000e+00 0.0000000e+00 0.0000000e+00 
0.0000000e+00 0.0000000e+00 0.0000000e+00 
0.0000000e+00 0.0000000e+00 0.0000000e+00 
0.0000000e+00 0.0000000e+00 0.0000000e+00 
0.0000000e+00 0.0000000e+00 0.0000000e+00 
0.0000000e+00 0.0000000e+00 0.0000000e+00 
0.0000000e+00 0.0000000e+00 0.0000000e+00 
0.0000000e+00 0.0000000e+00 0.0000000e+00 
0.0000000e+00 0.0000000e+00 0.0000000e+00 
0.0000000e+00 0.0000000e+00 0.0000000e+00 
0.0000000e+00 0.0000000e+00 0.0000000e+00 
0.0000000e+00 0.0000000e+00 0.0000000e+00 
0.0000000e+00 0.0000000e+00 0.0000000e+00 
0.0000000e+00 0.0000000e+00 0.0000000e+00 
0.0000000e+00 0.0000000e+00 0.0000000e+00 
0.0000000e+00 0.0000000e+00 0.0000000e+00 
0.0000000e+00 0.0000000e+00 0.0000000e+00 
0.0000000e+00 0.0000000e+00 0.0000000e+00 
0.0000000e+00 0.0000000e+00 0.0000000e+00 
0.0000000e+00 0.0000000e+00 0.0000000e+00 
0.0000000e+00 0.0000000e+00 0.0000000e+00 
0.0000000e+00 -1.4720282e-06 0.0000000e+00 
0.0000000e+00 1.8062950e-08 0.0000000e+00 
0.0000000e+00 1.1931522e-07 0.0000000e+00 
0.0000000e+00 2.6071126e-07 0.0000000e+00 
0.0000000e+00 7.3969360e-08 0.0000000e+00 
0.0000000e+00 -7.2805869e-07 0.0000000e+00 
0.0000000e+00 4.9567635e-08 0.0000000e+00 
0.0000000e+00 6.4806969e-08 0.0000000e+00 
0.0000000e+00 -1.2030939e-07 0.0000000e+00 
0.0000000e+00 9.2158267e-08 0.0000000e+00 
0.0000000e+00 -8.4027255e-07 0.0000000e+00 
0.0000000e+00 2.3900802e-07 0.0000000e+00 
0.0000000e+00 1.4276681e-07 0.0000000e+00 
0.0000000e+00 3.6969542e-08 0.0000000e+00 
0.0000000e+00 -1.3832057e-06 0.0000000e+00 
0.0000000e+00 1.5985512e-08 0.0000000e+00 
0.0000000e+00 3.7135095e-08 0.0000000e+00 
0.0000000e+00 -2.2195786e-06 0.0000000e+00 
0.0000000e+00 2.2407194e-07 0.0000000e+00 
0.0000000e+00 8.6047123e-08 0.0000000e+00 
0.0000000e+00 -1.2176198e-06 0.0000000e+00 
0.0000000e+00 1.5201992e-07 0.0000000e+00 
0.0000000e+00 1.1613835e-07 0.0000000e+00 
0.0000000e+00 -3.4387148e-07 0.0000000e+00 
0.0000000e+00 4.3039524e-08 0.0000000e+00 
0.0000000e+00 2.1191799e-08 0.0000000e+00 
0.0000000e+00 8.7961851e-09 0.0000000e+00 
0.0000000e+00 -2.8772990e-06 0.0000000e+00 
0.0000000e+00 -1.2498817e-06 0.0000000e+00 
0.0000000e+00 1.3773377e-08 0.0000000e+00 
0.0000000e+00 -5.4236378e-05 0.0000000e+00 
0.0000000e+00 -8.7902536e-06 0.0000000e+00 
0.0000000e+00 -4.7224339e-07 0.0000000e+00 
0.0000000e+00 1.3923844e-08 0.0000000e+00 
0.0000000e+00 -4.1270218e-06 0.0000000e+00 
0.0000000e+00 -1.6761749e-07 0.0000000e+00 
0.0000000e+00 4.4263970e-08 0.0000000e+00 
0.0000000e+00 -2.5261129e-06 0.0000000e+00 
0.0000000e+00 -1.6265023e-05 0.0000000e+00 
0.0000000e+00 -1.0060140e-06 0.0000000e+00 
0.0000000e+00 1.9982085e-08 0.0000000e+00 
0.0000000e+00 -2.8135076e-08 0.0000000e+00 
0.0000000e+00 2.5771508e-08 0.0000000e+00 
0.0000000e+00 -4.8778995e-05 0.0000000e+00 
0.0000000e+00 -1.7019485e-05 0.0000000e+00 
0.0000000e+00 1.0472133e-08 0.0000000e+00 
0.0000000e+00 -3.3866957e-07 0.0000000e+00 
0.0000000e+00 9.0757757e-09 0.0000000e+00 
0.0000000e+00 -1.9640263e-06 0.0000000e+00 
0.0000000e+00 -7.1931586e-06 0.0000000e+00 
0.0000000e+00 3.3295596e-08 0.0000000e+00 
0.0000000e+00 -7.3605740e-08 0.0000000e+00 
0.0000000e+00 2.5832971e-08 0.0000000e+00 
0.0000000e+00 -2.2793687e-05 0.0000000e+00 
0.0000000e+00 6.6729622e-09 0.0000000e+00 
0.0000000e+00 -9.2216877e-05 0.0000000e+00 
0.0000000e+00 -2.5841775e-05 0.0000000e+00 
0.0000000e+00 1.5586034e-08 0.0000000e+00 
0.0000000e+00 5.7131517e-09 0.0000000e+00 
0.0000000e+00 1.3345989e-08 0.0000000e+00 
0.0000000e+00 1.5745258e-08 0.0000000e+00 
0.0000000e+00 1.2711270e-08 0.0000000e+00 
0.0000000e+00 7.9389002e-09 0.0000000e+00 
0.0000000e+00 1.6132299e-08 0.0000000e+00 
0.0000000e+00 6.3503056e-09 0.0000000e+00 
0.0000000e+00 9.0278105e-09 0.0000000e+00 
0.0000000e+00 1.1267398e-08 0.0000000e+00 
0.0000000e+00 1.2134026e-08 0.0000000e+00 
0.0000000e+00 6.6359629e-09 0.0000000e+00 
0.0000000e+00 1.6374914e-08 0.0000000e+00 
0.0000000e+00 1.0464506e-08 0.0000000e+00 
0.0000000e+00 4.3633426e-09 0.0000000e+00 
-3.0398692e-07 -1.7855382e-07 -1.3239198e-06 
-7.8153072e-08 8.8830795e-08 -2.2950420e-07 
-1.2999009e-08 7.0982743e-08 -8.3778193e-09 
-4.9258210e-06 -2.0160205e-05 -1.1762979e-05 
-1.9335382e-06 -3.1930940e-06 -5.4237034e-06 
-1.3254662e-07 2.2073355e-07 -1.9540400e-07 
-1.2246078e-06 -1.1626219e-06 -1.2654140e-06 
-1.8096440e-08 9.5240487e-08 -5.0333697e-09 
-8.1745811e-06 -7.1660594e-05 -1.5952042e-05 
-4.6401860e-09 3.6292136e-08 8.4242204e-09 
-6.7673809e-06 -1.1220902e-05 -3.2370242e-06 
-1.3828750e-09 2.4889165e-08 4.2625992e-09 
-3.1597395e-08 1.7932570e-07 -2.3002819e-08 
-4.6821587e-08 1.5010320e-07 -6.6419247e-08 
-1.5292281e-08 7.8283264e-08 -1.2475237e-08 
-2.6954186e-08 1.1801968e-07 -2.8797622e-08 
-6.6083096e-08 1.5439899e-07 -1.0799400e-07 
-5.3204565e-09 5.7766659e-08 2.5691402e-09 
-4.1296524e-08 1.2852968e-07 -5.8514185e-08 
-1.1714713e-07 2.1003301e-07 -1.8214010e-07 
-2.6428376e-07 2.2599774e-07 -3.8457719e-07 
-2.3175130e-07 1.5454161e-07 -4.4080375e-07 
-4.4488792e-07 1.6019855e-07 -9.5945234e-07 
-6.2984265e-07 2.2938252e-07 -1.0371191e-06 
-9.5429391e-07 -4.1939271e-07 -2.1669671e-06 
-1.0879469e-06 -6.9131772e-07 -1.5992213e-06 
-2.0790806e-06 -2.3009700e-06 -3.9055794e-06 
-2.4572603e-06 -3.0680808e-06 -3.5522537e-06 
-3.0236458e-06 -6.4406158e-06 -5.2956011e-06 
-4.0313894e-06 -6.5191712e-06 -4.5925635e-06 
-7.6463803e-06 -1.6228823e-05 -7.6986780e-06 
-2.1182034e-07 1.4928102e-07 -5.5499908e-07 
-1.3640123e-07 1.4423033e-07 -2.9406417e-07 
-1.3538076e-06 -1.6979081e-06 -3.3198107e-06 
-7.3284832e-07 -2.5149015e-07 -9.7301984e-07 
-1.6685030e-09 2.6003432e-08 4.4413309e-09 
-5.5613191e-07 -2.3175218e-07 -1.6187464e-06 
-2.7588689e-07 2.9177298e-07 -4.0614691e-07 
-8.9699970e-06 -3.0567306e-05 -5.7875081e-06 
-2.1092050e-09 4.2532090e-08 7.7051112e-09 
-1.4514387e-08 7.7207289e-08 -6.7313959e-09 
-9.6651158e-09 5.1676732e-08 2.9952136e-09 
-1.3428428e-07 1.0059019e-07 -4.3676266e-07 
-2.3396497e-06 -2.9890939e-06 -1.3474004e-06 
-2.9661508e-06 -8.1352282e-06 -8.6213449e-06 
-2.6603554e-06 -4.4538269e-06 -5.7496072e-06 
-1.1195375e-06 -1.6398695e-06 -3.6333322e-06 
-5.8592627e-07 -5.2392886e-07 -1.9433871e-06 
-4.5601336e-08 1.1807968e-07 -1.0116042e-07 
-2.2327937e-08 9.3053011e-08 -2.7068106e-08 
-1.3622486e-05 -1.2940326e-04 -8.6228729e-06 
-8.4940621e-06 -4.1893782e-05 -1.6066240e-05 
-1.8345344e-09 2.0920991e-08 6.0809704e-09 
-6.9002635e-06 -1.2713464e-05 -5.5689216e-06 
-4.0036948e-06 -1.2381984e-05 -8.7145199e-06 
-7.7463040e-09 4.9858837e-08 4.2510200e-09 
-6.8126774e-08 1.5856847e-07 -1.2527265e-07 
-1.1326623e-05 -3.5867579e-05 -1.4152876e-05 
-2.0524567e-07 -6.1674562e-08 -8.2473457e-07 
-4.1278381e-09 4.6217043e-08 1.5861452e-09 
-3.4580147e-10 2.3963977e-08 4.5820974e-09 
-2.4857229e-06 -4.8721399e-06 -9.3398904e-07 
-6.6239386e-07 -1.4650341e-07 -1.0434921e-06 
-7.7002296e-06 -2.4506109e-05 -1.2917346e-05 
-3.3057939e-09 3.3566312e-08 7.9645162e-09 
-1.0107639e-07 1.9802177e-07 -1.9104104e-07 
-3.7877551e-06 -4.2323336e-06 -3.0642957e-06 
-1.8483375e-06 -1.4267480e-06 -2.2753463e-06 
-9.1430556e-06 -6.4293366e-05 -1.2872691e-05 
-3.4402012e-07 -9.8542074e-08 -1.0428246e-06 
-1.4672501e-09 2.2137066e-08 4.6297126e-09 
-1.3634843e-06 -2.4800338e-05 -9.8656474e-06 
-3.3443332e-06 -4.8686408e-05 -1.4139038e-05 
-5.4902392e-07 -1.2673747e-05 -7.4614709e-06 
-4.7049627e-07 -5.1535294e-06 -4.8190841e-06 
-6.3887801e-06 -9.2171358e-05 -1.1919878e-05 
-5.6493303e-07 -2.7211031e-06 -2.2951690e-06 
-6.5944633e-08 -1.1285027e-06 -1.0767037e-06 
-9.1671282e-08 -4.5739549e-07 -5.7754727e-07 
-1.2028083e-08 -2.1541057e-07 -2.9132531e-07 
-4.1155388e-08 -4.3580879e-08 -1.8008738e-07 
-2.8676979e-08 4.4559401e-09 -1.3103640e-07 
-1.8469695e-08 4.8826745e-08 -7.4125744e-08 
-7.0762676e-09 6.9695211e-08 -2.9801013e-08 
-6.0962950e-09 5.6842175e-08 -9.6247694e-09 
-4.8428355e-09 4.4215835e-08 7.2182621e-10 
-3.1508296e-09 2.7937979e-08 4.2525756e-09 
-2.3154476e-09 1.7935031e-08 4.1814245e-09 
-1.8778333e-06 -1.4408697e-04 -9.3177969e-06 
3.9801689e-06 -1.8874231e-05 9.1640295e-06 
7.8153442e-07 -2.6025036e-06 2.7701703e-06 
3.0831995e-08 2.1019712e-08 3.3630261e-07 
5.2067510e-09 8.4630585e-08 4.5933714e-08 
1.0095415e-09 3.1049190e-08 1.4045428e-09 
1.8508740e-06 -2.5202880e-06 2.4400615e-06 
2.8553956e-07 -2.9393233e-08 6.9071274e-07 
8.8320835e-09 1.5487502e-07 6.9468577e-08 
-6.3104693e-08 -4.1315286e-07 4.3071392e-07 
1.4241029e-07 -8.9746109e-06 2.6355981e-06 
4.8409502e-06 -6.2858373e-05 1.3194398e-05 
3.4663490e-09 5.7752732e-08 1.5000676e-09 
4.2062220e-06 -1.2454323e-05 3.3084295e-06 
5.8181737e-10 8.8202810e-08 4.1490036e-08 
-3.2425063e-09 5.9671642e-08 6.0578875e-09 
-2.2384047e-07 -2.3285781e-06 2.1699989e-07 
-5.9321852e-08 -3.6679207e-08 2.8330501e-07 
1.2657863e-06 -6.1374990e-06 2.4458509e-06 
-3.6139443e-08 -1.0111805e-08 -4.3151893e-08 
2.4327028e-07 -4.3502379e-07 1.0723725e-06 
1.0667064e-06 -2.6660404e-05 3.8943822e-06 
8.0946066e-08 1.9165800e-07 1.6475614e-07 
-2.6369090e-10 2.7877675e-08 -1.0076220e-10 
1.9140127e-06 -2.9551729e-06 1.1931402e-06 
6.2755544e-11 2.7557766e-08 -2.5279403e-09 
1.0706234e-06 -5.4253478e-06 4.6135915e-06 
1.6797750e-07 9.2580006e-09 4.8250905e-07 
3.5220303e-06 -6.6647567e-06 4.5766728e-06 
1.2419868e-06 -1.8297164e-06 2.3398659e-06 
2.7575214e-07 -1.1959248e-06 6.2981758e-07 
-1.8191515e-09 1.2348612e-07 -3.3749277e-09 
-1.5253962e-08 1.4884125e-07 -6.1145546e-09 
-6.7757031e-09 9.3083280e-08 -5.1811427e-10 
-5.4919642e-08 2.1117960e-07 -5.3975004e-08 
1.1512556e-09 1.7964217e-08 -1.6570276e-09 
-4.0763684e-10 7.2952666e-08 4.5046384e-09 
5.1414136e-06 -1.5224225e-05 5.2216210e-06 
3.9920644e-07 -3.5246086e-07 4.2076877e-07 
3.8866779e-06 -2.7352031e-05 8.7440958e-06 
-2.0462578e-09 2.4774028e-08 1.2815815e-07 
1.1176152e-07 -9.4761992e-07 1.5169725e-06 
-4.5276075e-10 2.2570784e-08 9.3783648e-10 
-1.4372283e-09 2.9572353e-08 1.2682354e-08 
-3.5158709e-07 -9.7769487e-07 -3.9839082e-07 
4.0148402e-06 -2.7098176e-05 4.9784094e-06 
-6.7542302e-08 2.9010474e-07 -3.2454093e-08 
7.9336502e-07 -7.7401643e-07 8.3645040e-07 
5.5871259e-09 3.6439872e-08 1.3223485e-08 
9.8961846e-07 -7.3207775e-06 9.7896759e-07 
3.7048839e-08 -1.9240750e-07 5.2369916e-07 
4.4563308e-07 -1.8490741e-06 2.0731603e-07 
7.2076443e-09 4.6353239e-08 2.9795626e-09 
-2.6099316e-09 4.2441592e-08 3.2636489e-09 
-2.3493763e-08 1.7192578e-07 -5.0353314e-08 
-3.7883683e-09 -7.0398562e-11 1.2084990e-07 
2.1564572e-08 6.3858074e-08 1.5792428e-07 
4.3869197e-10 1.3330930e-08 1.3268807e-09 
1.1583348e-06 -6.1381697e-06 4.1968087e-07 
-3.2397976e-10 2.7130613e-07 -3.8366789e-08 
2.5008453e-07 -5.6052176e-08 3.6013719e-07 
-2.7695727e-08 2.4318780e-07 -9.1912664e-09 
2.8086466e-08 9.4504777e-08 3.4313530e-08 
2.1468692e-07 -1.5210115e-05 1.1798705e-06 
-3.7291841e-09 4.8896251e-08 2.2011026e-09 