# vtk DataFile Version 4.0
vtk output
ASCII
DATASET UNSTRUCTURED_GRID
POINTS 460 float
0.0000000e+00 0.0000000e+00 0.0000000e+00 
5.0000000e+00 0.0000000e+00 0.0000000e+00 
5.0000000e+00 3.0000000e+00 0.0000000e+00 
0.0000000e+00 3.0000000e+00 0.0000000e+00 
0.0000000e+00 0.0000000e+00 1.0000000e+01 
5.0000000e+00 0.0000000e+00 1.0000000e+01 
5.0000000e+00 3.0000000e+00 1.0000000e+01 
0.0000000e+00 3.0000000e+00 1.0000000e+01 
1.0000000e+00 3.0000000e+00 -5.0000000e+00 
1.0000000e+00 3.0000000e+00 -4.5000000e+00 
1.0000000e+00 3.0000000e+00 -4.0000000e+00 
1.0000000e+00 3.0000000e+00 -3.5000000e+00 
1.0000000e+00 3.0000000e+00 -3.0000000e+00 
1.0000000e+00 3.0000000e+00 -2.5000000e+00 
1.0000000e+00 3.0000000e+00 -2.0000000e+00 
1.0000000e+00 3.0000000e+00 -1.5000000e+00 
1.0000000e+00 3.0000000e+00 -1.0000000e+00 
1.0000000e+00 3.0000000e+00 -5.0000000e-01 
1.0000000e+00 3.0000000e+00 0.0000000e+00 
1.0000000e+00 3.0000000e+00 5.0000000e-01 
1.0000000e+00 3.0000000e+00 1.0000000e+00 
1.0000000e+00 3.0000000e+00 1.5000000e+00 
1.0000000e+00 3.0000000e+00 2.0000000e+00 
1.0000000e+00 3.0000000e+00 2.5000000e+00 
1.0000000e+00 3.0000000e+00 3.0000000e+00 
1.0000000e+00 3.0000000e+00 3.5000000e+00 
1.0000000e+00 3.0000000e+00 4.0000000e+00 
1.0000000e+00 3.0000000e+00 4.5000000e+00 
1.0000000e+00 3.0000000e+00 5.0000000e+00 
1.0000000e+00 3.0000000e+00 5.5000000e+00 
1.0000000e+00 3.0000000e+00 6.0000000e+00 
1.0000000e+00 3.0000000e+00 6.5000000e+00 
1.0000000e+00 3.0000000e+00 7.0000000e+00 
1.0000000e+00 3.0000000e+00 7.5000000e+00 
1.0000000e+00 3.0000000e+00 8.0000000e+00 
1.0000000e+00 3.0000000e+00 8.5000000e+00 
1.0000000e+00 3.0000000e+00 9.0000000e+00 
1.0000000e+00 3.0000000e+00 9.5000000e+00 
1.0000000e+00 3.0000000e+00 1.0000000e+01 
1.0000000e+00 3.0000000e+00 1.0500000e+01 
1.0000000e+00 3.0000000e+00 1.1000000e+01 
1.0000000e+00 3.0000000e+00 1.1500000e+01 
1.0000000e+00 3.0000000e+00 1.2000000e+01 
1.0000000e+00 3.0000000e+00 1.2500000e+01 
1.0000000e+00 3.0000000e+00 1.3000000e+01 
1.0000000e+00 3.0000000e+00 1.3500000e+01 
1.0000000e+00 3.0000000e+00 1.4000000e+01 
1.0000000e+00 3.0000000e+00 1.4500000e+01 
1.0000000e+00 3.0250001e+00 -5.0000000e+00 
1.0000000e+00 3.0250001e+00 -4.5000000e+00 
1.0000000e+00 3.0250001e+00 -4.0000000e+00 
1.0000000e+00 3.0250001e+00 -3.5000000e+00 
1.0000000e+00 3.0250001e+00 -3.0000000e+00 
1.0000000e+00 3.0250001e+00 -2.5000000e+00 
1.0000000e+00 3.0250001e+00 -2.0000000e+00 
1.0000000e+00 3.0250001e+00 -1.5000000e+00 
1.0000000e+00 3.0250001e+00 -1.0000000e+00 
1.0000000e+00 3.0250001e+00 -5.0000000e-01 
1.0000000e+00 3.0250001e+00 0.0000000e+00 
1.0000000e+00 3.0250001e+00 5.0000000e-01 
1.0000000e+00 3.0250001e+00 1.0000000e+00 
1.0000000e+00 3.0250001e+00 1.5000000e+00 
1.0000000e+00 3.0250001e+00 2.0000000e+00 
1.0000000e+00 3.0250001e+00 2.5000000e+00 
1.0000000e+00 3.0250001e+00 3.0000000e+00 
1.0000000e+00 3.0250001e+00 3.5000000e+00 
1.0000000e+00 3.0250001e+00 4.0000000e+00 
1.0000000e+00 3.0250001e+00 4.5000000e+00 
1.0000000e+00 3.0250001e+00 5.0000000e+00 
1.0000000e+00 3.0250001e+00 5.5000000e+00 
1.0000000e+00 3.0250001e+00 6.0000000e+00 
1.0000000e+00 3.0250001e+00 6.5000000e+00 
1.0000000e+00 3.0250001e+00 7.0000000e+00 
1.0000000e+00 3.0250001e+00 7.5000000e+00 
1.0000000e+00 3.0250001e+00 8.0000000e+00 
1.0000000e+00 3.0250001e+00 8.5000000e+00 
1.0000000e+00 3.0250001e+00 9.0000000e+00 
1.0000000e+00 3.0250001e+00 9.5000000e+00 
1.0000000e+00 3.0250001e+00 1.0000000e+01 
1.0000000e+00 3.0250001e+00 1.0500000e+01 
1.0000000e+00 3.0250001e+00 1.1000000e+01 
1.0000000e+00 3.0250001e+00 1.1500000e+01 
1.0000000e+00 3.0250001e+00 1.2000000e+01 
1.0000000e+00 3.0250001e+00 1.2500000e+01 
1.0000000e+00 3.0250001e+00 1.3000000e+01 
1.0000000e+00 3.0250001e+00 1.3500000e+01 
1.0000000e+00 3.0250001e+00 1.4000000e+01 
1.0000000e+00 3.0250001e+00 1.4500000e+01 
1.0000000e+00 -2.0000000e+00 -5.0000000e+00 
1.0000000e+00 -2.0000000e+00 -4.5000000e+00 
1.0000000e+00 -2.0000000e+00 -4.0000000e+00 
1.0000000e+00 -2.0000000e+00 -3.5000000e+00 
1.0000000e+00 -2.0000000e+00 -3.0000000e+00 
1.0000000e+00 -2.0000000e+00 -2.5000000e+00 
1.0000000e+00 -2.0000000e+00 -2.0000000e+00 
1.0000000e+00 -2.0000000e+00 -1.5000000e+00 
1.0000000e+00 -2.0000000e+00 -1.0000000e+00 
1.0000000e+00 -2.0000000e+00 -5.0000000e-01 
1.0000000e+00 -2.0000000e+00 1.0500000e+01 
1.0000000e+00 -2.0000000e+00 1.1000000e+01 
1.0000000e+00 -2.0000000e+00 1.1500000e+01 
1.0000000e+00 -2.0000000e+00 1.2000000e+01 
1.0000000e+00 -2.0000000e+00 1.2500000e+01 
1.0000000e+00 -2.0000000e+00 1.3000000e+01 
1.0000000e+00 -2.0000000e+00 1.3500000e+01 
1.0000000e+00 -2.0000000e+00 1.4000000e+01 
1.0000000e+00 -2.0000000e+00 1.4500000e+01 
1.0000000e+00 0.0000000e+00 0.0000000e+00 
2.0000000e+00 0.0000000e+00 0.0000000e+00 
3.0000000e+00 0.0000000e+00 0.0000000e+00 
4.0000000e+00 0.0000000e+00 0.0000000e+00 
5.0000000e+00 1.0000000e+00 0.0000000e+00 
5.0000000e+00 2.0000000e+00 0.0000000e+00 
0.0000000e+00 2.0000000e+00 0.0000000e+00 
0.0000000e+00 1.0000000e+00 0.0000000e+00 
0.0000000e+00 0.0000000e+00 1.0000000e+00 
0.0000000e+00 0.0000000e+00 2.0000000e+00 
0.0000000e+00 0.0000000e+00 3.0000000e+00 
0.0000000e+00 0.0000000e+00 4.0000000e+00 
0.0000000e+00 0.0000000e+00 5.0000000e+00 
0.0000000e+00 0.0000000e+00 6.0000000e+00 
0.0000000e+00 0.0000000e+00 7.0000000e+00 
0.0000000e+00 0.0000000e+00 8.0000000e+00 
0.0000000e+00 0.0000000e+00 9.0000000e+00 
5.0000000e+00 0.0000000e+00 1.0000000e+00 
5.0000000e+00 0.0000000e+00 2.0000000e+00 
5.0000000e+00 0.0000000e+00 3.0000000e+00 
5.0000000e+00 0.0000000e+00 4.0000000e+00 
5.0000000e+00 0.0000000e+00 5.0000000e+00 
5.0000000e+00 0.0000000e+00 6.0000000e+00 
5.0000000e+00 0.0000000e+00 7.0000000e+00 
5.0000000e+00 0.0000000e+00 8.0000000e+00 
5.0000000e+00 0.0000000e+00 9.0000000e+00 
1.0000000e+00 0.0000000e+00 1.0000000e+01 
2.0000000e+00 0.0000000e+00 1.0000000e+01 
3.0000000e+00 0.0000000e+00 1.0000000e+01 
4.0000000e+00 0.0000000e+00 1.0000000e+01 
5.0000000e+00 3.0000000e+00 1.0000000e+00 
5.0000000e+00 3.0000000e+00 2.0000000e+00 
5.0000000e+00 3.0000000e+00 3.0000000e+00 
5.0000000e+00 3.0000000e+00 4.0000000e+00 
5.0000000e+00 3.0000000e+00 5.0000000e+00 
5.0000000e+00 3.0000000e+00 6.0000000e+00 
5.0000000e+00 3.0000000e+00 7.0000000e+00 
5.0000000e+00 3.0000000e+00 8.0000000e+00 
5.0000000e+00 3.0000000e+00 9.0000000e+00 
5.0000000e+00 1.0000000e+00 1.0000000e+01 
5.0000000e+00 2.0000000e+00 1.0000000e+01 
0.0000000e+00 3.0000000e+00 1.0000000e+00 
0.0000000e+00 3.0000000e+00 2.0000000e+00 
0.0000000e+00 3.0000000e+00 3.0000000e+00 
0.0000000e+00 3.0000000e+00 4.0000000e+00 
0.0000000e+00 3.0000000e+00 5.0000000e+00 
0.0000000e+00 3.0000000e+00 6.0000000e+00 
0.0000000e+00 3.0000000e+00 7.0000000e+00 
0.0000000e+00 3.0000000e+00 8.0000000e+00 
0.0000000e+00 3.0000000e+00 9.0000000e+00 
0.0000000e+00 2.0000000e+00 1.0000000e+01 
0.0000000e+00 1.0000000e+00 1.0000000e+01 
4.0000000e+00 3.0000000e+00 0.0000000e+00 
3.0000000e+00 3.0000000e+00 0.0000000e+00 
2.0000000e+00 3.0000000e+00 0.0000000e+00 
4.0000000e+00 3.0000000e+00 1.0000000e+01 
3.0000000e+00 3.0000000e+00 1.0000000e+01 
2.0000000e+00 3.0000000e+00 1.0000000e+01 
4.0618000e+00 1.5000000e+00 0.0000000e+00 
1.5046000e+00 7.6549745e-01 0.0000000e+00 
2.5000000e+00 2.1339746e+00 0.0000000e+00 
1.5046000e+00 2.2345026e+00 0.0000000e+00 
2.4957771e+00 8.1560516e-01 0.0000000e+00 
3.4707544e+00 2.2336540e+00 0.0000000e+00 
3.4700506e+00 7.5794268e-01 0.0000000e+00 
8.6322361e-01 1.5000000e+00 0.0000000e+00 
2.0000000e+00 1.5000000e+00 0.0000000e+00 
2.9960666e+00 1.4974480e+00 0.0000000e+00 
4.2679491e+00 7.3205084e-01 0.0000000e+00 
4.2679491e+00 2.2679491e+00 0.0000000e+00 
7.2695929e-01 2.2730408e+00 0.0000000e+00 
7.2695929e-01 7.2695929e-01 0.0000000e+00 
4.1822505e+00 0.0000000e+00 2.5515697e+00 
4.2017918e+00 0.0000000e+00 4.4725966e+00 
4.1114569e+00 0.0000000e+00 6.5092020e+00 
8.6602539e-01 0.0000000e+00 3.5000000e+00 
8.4778279e-01 0.0000000e+00 5.4684029e+00 
8.9629614e-01 0.0000000e+00 7.5867257e+00 
2.5566745e+00 0.0000000e+00 8.1853306e-01 
2.4918270e+00 0.0000000e+00 9.1386929e+00 
8.4677207e-01 0.0000000e+00 1.5042374e+00 
4.0943027e+00 0.0000000e+00 8.4081745e+00 
8.6281651e-01 0.0000000e+00 2.5007062e+00 
1.7315160e+00 0.0000000e+00 3.0001178e+00 
1.7319617e+00 0.0000000e+00 4.0000196e+00 
2.5980761e+00 0.0000000e+00 3.5000000e+00 
2.5536871e+00 0.0000000e+00 4.4963923e+00 
2.5928419e+00 0.0000000e+00 2.4239938e+00 
1.5037409e+00 0.0000000e+00 9.1535149e+00 
1.8433737e+00 0.0000000e+00 8.1858873e+00 
3.0000000e+00 0.0000000e+00 8.2679491e+00 
2.5000000e+00 0.0000000e+00 7.4019237e+00 
3.5042722e+00 0.0000000e+00 7.4271150e+00 
3.0310018e+00 0.0000000e+00 6.5282087e+00 
2.0373929e+00 0.0000000e+00 6.5307913e+00 
3.4767809e+00 0.0000000e+00 5.8031492e+00 
2.5452602e+00 0.0000000e+00 5.5720768e+00 
1.6456656e+00 0.0000000e+00 1.9697139e+00 
8.6297011e-01 0.0000000e+00 4.4947371e+00 
1.0111579e+00 0.0000000e+00 6.5282545e+00 
3.4994321e+00 0.0000000e+00 8.4691072e-01 
4.1860156e+00 0.0000000e+00 3.5040276e+00 
1.7320508e+00 0.0000000e+00 5.0000000e+00 
4.0544066e+00 0.0000000e+00 1.5781221e+00 
1.5817389e+00 0.0000000e+00 9.3943578e-01 
8.3166349e-01 0.0000000e+00 8.5090933e+00 
3.4686174e+00 0.0000000e+00 9.1752682e+00 
3.0709300e+00 0.0000000e+00 1.5799091e+00 
3.3927374e+00 0.0000000e+00 3.0399952e+00 
3.3826034e+00 0.0000000e+00 3.9747651e+00 
4.3420062e+00 0.0000000e+00 7.4688983e+00 
3.4023225e+00 0.0000000e+00 4.9314723e+00 
1.6740381e+00 0.0000000e+00 7.3014426e+00 
4.2715640e+00 0.0000000e+00 5.4758859e+00 
1.6225953e+00 0.0000000e+00 5.8104177e+00 
4.2679491e+00 0.0000000e+00 9.2679491e+00 
7.3205084e-01 0.0000000e+00 7.3205084e-01 
4.2679491e+00 0.0000000e+00 7.3205084e-01 
7.3205084e-01 0.0000000e+00 9.2679491e+00 
3.4586334e+00 0.0000000e+00 2.2347178e+00 
2.2895701e+00 0.0000000e+00 1.5463171e+00 
5.0000000e+00 2.2345026e+00 1.5046000e+00 
[...]
POINT_DATA 460
FIELD FieldData 2
DISPLACEMENT 3 460  float
0.0000000e+00 0.0000000e+00 0.0000000e+00 
0.0000000e+00 0.0000000e+00 0.0000000e+00 
0.0000000e+00 -5.4285637e-10 0.0000000e+00 
0.0000000e+00 -2.8281408e-10 0.0000000e+00 
0.0000000e+00 0.0000000e+00 0.0000000e+00 
0.0000000e+00 0.0000000e+00 0.0000000e+00 
0.0000000e+00 -5.6407686e-07 0.0000000e+00 
0.0000000e+00 -1.4998889e-05 0.0000000e+00 
0.0000000e+00 -3.5978891e-09 0.0000000e+00 
0.0000000e+00 -3.5517915e-09 0.0000000e+00 
0.0000000e+00 -3.4027583e-09 0.0000000e+00 
0.0000000e+00 -3.1591456e-09 0.0000000e+00 
0.0000000e+00 -2.8390019e-09 0.0000000e+00 
0.0000000e+00 -2.4635654e-09 0.0000000e+00 
0.0000000e+00 -2.0627184e-09 0.0000000e+00 
0.0000000e+00 -1.6714068e-09 0.0000000e+00 
0.0000000e+00 -1.3173949e-09 0.0000000e+00 
0.0000000e+00 -1.0087308e-09 0.0000000e+00 
0.0000000e+00 -7.2315148e-10 0.0000000e+00 
-1.8875962e-11 -3.8130771e-10 -1.0569821e-09 
4.7229800e-11 3.0126263e-10 -2.6336930e-09 
2.4262503e-11 1.6347893e-09 -3.8467407e-09 
-3.6195682e-11 4.1591419e-09 -6.1990204e-09 
1.7286109e-10 8.2338127e-09 -8.9517904e-09 
2.3252950e-10 1.3886771e-08 -1.2498425e-08 
2.4688263e-10 1.9928668e-08 -1.7306096e-08 
2.5805984e-09 2.2818911e-08 -2.6457148e-08 
1.1694615e-10 1.8541845e-08 -3.0826698e-08 
4.6658473e-09 8.3965048e-09 -4.6727234e-08 
1.9126327e-08 1.9371933e-08 -6.2126283e-08 
1.4729069e-08 1.4398495e-07 -5.5474196e-08 
3.1114711e-09 5.8112454e-07 -4.8306692e-08 
-1.3582674e-07 1.6863748e-06 -9.9561738e-08 
-3.2400504e-07 3.8099372e-06 4.7755958e-07 
-4.7632105e-07 6.6994608e-06 1.2823886e-06 
-1.1187316e-06 7.9071024e-06 3.3076647e-06 
-8.8159334e-07 6.3772966e-08 3.6560587e-06 
-1.7096811e-06 -3.1483916e-05 -5.6156000e-06 
0.0000000e+00 -1.0828065e-04 0.0000000e+00 
0.0000000e+00 -2.5870639e-04 0.0000000e+00 
0.0000000e+00 -4.5424330e-04 0.0000000e+00 
0.0000000e+00 -6.2820071e-04 0.0000000e+00 
0.0000000e+00 -6.6181348e-04 0.0000000e+00 
0.0000000e+00 -5.2828086e-04 0.0000000e+00 
0.0000000e+00 -3.4338655e-04 0.0000000e+00 
0.0000000e+00 -1.8095774e-04 0.0000000e+00 
0.0000000e+00 -7.5035758e-05 0.0000000e+00 
0.0000000e+00 -3.8569819e-05 0.0000000e+00 
0.0000000e+00 -3.4532468e-09 0.0000000e+00 
0.0000000e+00 -3.4466585e-09 0.0000000e+00 
0.0000000e+00 -3.3858414e-09 0.0000000e+00 
0.0000000e+00 -3.1802825e-09 0.0000000e+00 
0.0000000e+00 -2.8494962e-09 0.0000000e+00 
0.0000000e+00 -2.4624183e-09 0.0000000e+00 
0.0000000e+00 -2.0617716e-09 0.0000000e+00 
0.0000000e+00 -1.6734500e-09 0.0000000e+00 
0.0000000e+00 -1.3201384e-09 0.0000000e+00 
0.0000000e+00 -1.0110132e-09 0.0000000e+00 
0.0000000e+00 -7.2737705e-10 0.0000000e+00 
0.0000000e+00 -3.8090120e-10 0.0000000e+00 
0.0000000e+00 2.9258101e-10 0.0000000e+00 
0.0000000e+00 1.6375786e-09 0.0000000e+00 
0.0000000e+00 4.1618344e-09 0.0000000e+00 
0.0000000e+00 8.2635623e-09 0.0000000e+00 
0.0000000e+00 1.3959477e-08 0.0000000e+00 
0.0000000e+00 1.9963229e-08 0.0000000e+00 
0.0000000e+00 2.2746047e-08 0.0000000e+00 
0.0000000e+00 1.7888206e-08 0.0000000e+00 
0.0000000e+00 6.5210228e-09 0.0000000e+00 
0.0000000e+00 1.6035541e-08 0.0000000e+00 
0.0000000e+00 1.3785119e-07 0.0000000e+00 
0.0000000e+00 5.7745905e-07 0.0000000e+00 
0.0000000e+00 1.6967758e-06 0.0000000e+00 
0.0000000e+00 3.8676462e-06 0.0000000e+00 
0.0000000e+00 6.8455743e-06 0.0000000e+00 
0.0000000e+00 8.1278067e-06 0.0000000e+00 
0.0000000e+00 3.6390557e-07 0.0000000e+00 
0.0000000e+00 -3.1051179e-05 0.0000000e+00 
0.0000000e+00 -1.1010615e-04 0.0000000e+00 
0.0000000e+00 -2.5974264e-04 0.0000000e+00 
0.0000000e+00 -4.5605793e-04 0.0000000e+00 
0.0000000e+00 -6.3070236e-04 0.0000000e+00 
0.0000000e+00 -6.6444749e-04 0.0000000e+00 
0.0000000e+00 -5.3039071e-04 0.0000000e+00 
0.0000000e+00 -3.4476194e-04 0.0000000e+00 
0.0000000e+00 -1.8168543e-04 0.0000000e+00 
0.0000000e+00 -7.5340256e-05 0.0000000e+00 
0.0000000e+00 -3.8728467e-05 0.0000000e+00 
0.0000000e+00 0.0000000e+00 0.0000000e+00 
0.0000000e+00 0.0000000e+00 0.0000000e+00 
0.0000000e+00 0.0000000e+00 0.0000000e+00 
0.0000000e+00 0.0000000e+00 0.0000000e+00 
0.0000000e+00 0.0000000e+00 0.0000000e+00 
0.0000000e+00 0.0000000e+00 0.0000000e+00 
0.0000000e+00 0.0000000e+00 0.0000000e+00 
0.0000000e+00 0.0000000e+00 0.0000000e+00 
0.0000000e+00 0.0000000e+00 0.0000000e+00 
0.0000000e+00 0.0000000e+00 0.0000000e+00 
0.0000000e+00 0.0000000e+00 0.0000000e+00 
0.0000000e+00 0.0000000e+00 0.0000000e+00 
0.0000000e+00 0.0000000e+00 0.0000000e+00 
0.0000000e+00 0.0000000e+00 0.0000000e+00 
0.0000000e+00 0.0000000e+00 0.0000000e+00 
0.0000000e+00 0.0000000e+00 0.0000000e+00 
0.0000000e+00 0.0000000e+00 0.0000000e+00 
0.0000000e+00 0.0000000e+00 0.0000000e+00 
0.0000000e+00 0.0000000e+00 0.0000000e+00 
0.0000000e+00 0.0000000e+00 0.0000000e+00 
0.0000000e+00 0.0000000e+00 0.0000000e+00 
0.0000000e+00 0.0000000e+00 0.0000000e+00 
0.0000000e+00 0.0000000e+00 0.0000000e+00 
0.0000000e+00 -2.4231386e-10 0.0000000e+00 
0.0000000e+00 -4.7683157e-10 0.0000000e+00 
0.0000000e+00 -2.6113331e-10 0.0000000e+00 
0.0000000e+00 -1.2458201e-10 0.0000000e+00 
0.0000000e+00 0.0000000e+00 0.0000000e+00 
0.0000000e+00 0.0000000e+00 0.0000000e+00 
0.0000000e+00 0.0000000e+00 0.0000000e+00 
0.0000000e+00 0.0000000e+00 0.0000000e+00 
0.0000000e+00 0.0000000e+00 0.0000000e+00 
0.0000000e+00 0.0000000e+00 0.0000000e+00 
0.0000000e+00 0.0000000e+00 0.0000000e+00 
0.0000000e+00 0.0000000e+00 0.0000000e+00 
0.0000000e+00 0.0000000e+00 0.0000000e+00 
0.0000000e+00 0.0000000e+00 0.0000000e+00 
0.0000000e+00 0.0000000e+00 0.0000000e+00 
0.0000000e+00 0.0000000e+00 0.0000000e+00 
0.0000000e+00 0.0000000e+00 0.0000000e+00 
0.0000000e+00 0.0000000e+00 0.0000000e+00 
0.0000000e+00 0.0000000e+00 0.0000000e+00 
0.0000000e+00 0.0000000e+00 0.0000000e+00 
0.0000000e+00 0.0000000e+00 0.0000000e+00 
0.0000000e+00 0.0000000e+00 0.0000000e+00 
0.0000000e+00 0.0000000e+00 0.0000000e+00 
0.0000000e+00 0.0000000e+00 0.0000000e+00 
0.0000000e+00 0.0000000e+00 0.0000000e+00 
0.0000000e+00 0.0000000e+00 0.0000000e+00 
0.0000000e+00 -4.2769305e-11 0.0000000e+00 
0.0000000e+00 1.4841507e-09 0.0000000e+00 
0.0000000e+00 6.4776975e-09 0.0000000e+00 
0.0000000e+00 1.6219108e-08 0.0000000e+00 
0.0000000e+00 3.0573155e-08 0.0000000e+00 
0.0000000e+00 4.1700037e-08 0.0000000e+00 
0.0000000e+00 -2.9688888e-08 0.0000000e+00 
0.0000000e+00 -1.5508454e-07 0.0000000e+00 
0.0000000e+00 -4.7459943e-07 0.0000000e+00 
0.0000000e+00 -2.9455796e-07 0.0000000e+00 
0.0000000e+00 -5.1614188e-07 0.0000000e+00 
0.0000000e+00 4.8950383e-10 0.0000000e+00 
0.0000000e+00 3.6107324e-09 0.0000000e+00 
0.0000000e+00 1.1903929e-08 0.0000000e+00 
0.0000000e+00 3.0423497e-08 0.0000000e+00 
0.0000000e+00 8.3135127e-08 0.0000000e+00 
0.0000000e+00 2.3071439e-07 0.0000000e+00 
0.0000000e+00 9.2039909e-07 0.0000000e+00 
0.0000000e+00 2.4470279e-07 0.0000000e+00 
0.0000000e+00 -8.1069575e-06 0.0000000e+00 
0.0000000e+00 -1.5215131e-05 0.0000000e+00 
0.0000000e+00 -7.7561508e-06 0.0000000e+00 
0.0000000e+00 -5.9471056e-10 0.0000000e+00 
0.0000000e+00 -4.6686577e-10 0.0000000e+00 
0.0000000e+00 -3.0323918e-10 0.0000000e+00 
0.0000000e+00 -9.7195914e-07 0.0000000e+00 
0.0000000e+00 -2.6547418e-06 0.0000000e+00 
0.0000000e+00 -7.0047727e-06 0.0000000e+00 
0.0000000e+00 -6.9953399e-10 0.0000000e+00 
0.0000000e+00 -2.6069483e-10 0.0000000e+00 
0.0000000e+00 -9.9891873e-10 0.0000000e+00 
0.0000000e+00 -8.0465345e-10 0.0000000e+00 
0.0000000e+00 -4.4135001e-10 0.0000000e+00 
0.0000000e+00 -9.7960462e-10 0.0000000e+00 
0.0000000e+00 -2.2969686e-10 0.0000000e+00 
0.0000000e+00 -5.5499427e-10 0.0000000e+00 
0.0000000e+00 -8.2544255e-10 0.0000000e+00 
0.0000000e+00 -7.2281398e-10 0.0000000e+00 
0.0000000e+00 -3.2676434e-10 0.0000000e+00 
0.0000000e+00 -7.6830015e-10 0.0000000e+00 
0.0000000e+00 -6.0986077e-10 0.0000000e+00 
0.0000000e+00 -2.1746488e-10 0.0000000e+00 
0.0000000e+00 0.0000000e+00 0.0000000e+00 
0.0000000e+00 0.0000000e+00 0.0000000e+00 
0.0000000e+00 0.0000000e+00 0.0000000e+00 
0.0000000e+00 0.0000000e+00 0.0000000e+00 
0.0000000e+00 0.0000000e+00 0.0000000e+00 
0.0000000e+00 0.0000000e+00 0.0000000e+00 
0.0000000e+00 0.0000000e+00 0.0000000e+00 
0.0000000e+00 0.0000000e+00 0.0000000e+00 
0.0000000e+00 0.0000000e+00 0.0000000e+00 
0.0000000e+00 0.0000000e+00 0.0000000e+00 
0.0000000e+00 0.0000000e+00 0.0000000e+00 
0.0000000e+00 0.0000000e+00 0.0000000e+00 
0.0000000e+00 0.0000000e+00 0.0000000e+00 
0.0000000e+00 0.0000000e+00 0.0000000e+00 
0.0000000e+00 0.0000000e+00 0.0000000e+00 
0.0000000e+00 0.0000000e+00 0.0000000e+00 
0.0000000e+00 0.0000000e+00 0.0000000e+00 
0.0000000e+00 0.0000000e+00 0.0000000e+00 
0.0000000e+00 0.0000000e+00 0.0000000e+00 
0.0000000e+00 0.0000000e+00 0.0000000e+00 
0.0000000e+00 0.0000000e+00 0.0000000e+00 
0.0000000e+00 0.0000000e+00 0.0000000e+00 
0.0000000e+00 0.0000000e+00 0.0000000e+00 
0.0000000e+00 0.0000000e+00 0.0000000e+00 
0.0000000e+00 0.0000000e+00 0.0000000e+00 
0.0000000e+00 0.0000000e+00 0.0000000e+00 
0.0000000e+00 0.0000000e+00 0.0000000e+00 
0.0000000e+00 0.0000000e+00 0.0000000e+00 
0.0000000e+00 0.0000000e+00 0.0000000e+00 
0.0000000e+00 0.0000000e+00 0.0000000e+00 
0.0000000e+00 0.0000000e+00 0.0000000e+00 
0.0000000e+00 0.0000000e+00 0.0000000e+00 
0.0000000e+00 0.0000000e+00 0.0000000e+00 
0.0000000e+00 0.0000000e+00 0.0000000e+00 
0.0000000e+00 0.0000000e+00 0.0000000e+00 
0.0000000e+00 0.0000000e+00 0.0000000e+00 
0.0000000e+00 0.0000000e+00 0.0000000e+00 
0.0000000e+00 0.0000000e+00 0.0000000e+00 
0.0000000e+00 0.0000000e+00 0.0000000e+00 
0.0000000e+00 0.0000000e+00 0.0000000e+00 
0.0000000e+00 0.0000000e+00 0.0000000e+00 
0.0000000e+00 0.0000000e+00 0.0000000e+00 
0.0000000e+00 0.0000000e+00 0.0000000e+00 
0.0000000e+00 0.0000000e+00 0.0000000e+00 
0.0000000e+00 0.0000000e+00 0.0000000e+00 
0.0000000e+00 0.0000000e+00 0.0000000e+00 
0.0000000e+00 0.0000000e+00 0.0000000e+00 
0.0000000e+00 0.0000000e+00 0.0000000e+00 
0.0000000e+00 0.0000000e+00 0.0000000e+00 
0.0000000e+00 3.5549941e-10 0.0000000e+00 
0.0000000e+00 -2.9236347e-07 0.0000000e+00 
0.0000000e+00 8.9267722e-09 0.0000000e+00 
0.0000000e+00 3.5477829e-08 0.0000000e+00 
0.0000000e+00 -7.6733578e-08 0.0000000e+00 
0.0000000e+00 1.3673189e-09 0.0000000e+00 
0.0000000e+00 9.2267216e-09 0.0000000e+00 
0.0000000e+00 1.1794761e-08 0.0000000e+00 
0.0000000e+00 4.6473292e-09 0.0000000e+00 
0.0000000e+00 1.4204602e-08 0.0000000e+00 
0.0000000e+00 2.4894964e-09 0.0000000e+00 
0.0000000e+00 2.0021785e-08 0.0000000e+00 
0.0000000e+00 4.2576801e-08 0.0000000e+00 
0.0000000e+00 -3.0929058e-08 0.0000000e+00 
0.0000000e+00 2.5576183e-10 0.0000000e+00 
0.0000000e+00 -1.2104265e-07 0.0000000e+00 
0.0000000e+00 -1.8881795e-07 0.0000000e+00 
0.0000000e+00 -1.6365617e-10 0.0000000e+00 
0.0000000e+00 2.1774705e-08 0.0000000e+00 
0.0000000e+00 1.7565156e-08 0.0000000e+00 
0.0000000e+00 8.8410512e-10 0.0000000e+00 
0.0000000e+00 3.2748286e-08 0.0000000e+00 
0.0000000e+00 1.0921561e-08 0.0000000e+00 
0.0000000e+00 4.3922692e-09 0.0000000e+00 
0.0000000e+00 -8.9473836e-08 0.0000000e+00 
0.0000000e+00 -4.0008965e-07 0.0000000e+00 
0.0000000e+00 -1.4944710e-07 0.0000000e+00 
0.0000000e+00 -2.9955413e-10 0.0000000e+00 
0.0000000e+00 -5.5058486e-11 0.0000000e+00 
0.0000000e+00 -5.7276261e-06 0.0000000e+00 
0.0000000e+00 2.4576163e-10 0.0000000e+00 
0.0000000e+00 2.6114759e-09 0.0000000e+00 
0.0000000e+00 2.4304507e-08 0.0000000e+00 
0.0000000e+00 -2.1108860e-07 0.0000000e+00 
0.0000000e+00 1.7161685e-08 0.0000000e+00 
0.0000000e+00 1.3472308e-07 0.0000000e+00 
0.0000000e+00 1.0120912e-07 0.0000000e+00 
0.0000000e+00 8.0302094e-09 0.0000000e+00 
0.0000000e+00 5.7090874e-09 0.0000000e+00 
0.0000000e+00 4.7664265e-08 0.0000000e+00 
0.0000000e+00 3.9196783e-07 0.0000000e+00 
0.0000000e+00 1.8666557e-07 0.0000000e+00 
0.0000000e+00 -2.6808139e-06 0.0000000e+00 
0.0000000e+00 1.4207221e-09 0.0000000e+00 
0.0000000e+00 8.2883328e-10 0.0000000e+00 
0.0000000e+00 -1.2698860e-06 0.0000000e+00 
0.0000000e+00 6.8382882e-08 0.0000000e+00 
0.0000000e+00 9.2432536e-08 0.0000000e+00 
0.0000000e+00 2.4494204e-08 0.0000000e+00 
0.0000000e+00 7.9256361e-09 0.0000000e+00 
0.0000000e+00 1.9989277e-07 0.0000000e+00 
0.0000000e+00 6.3607409e-08 0.0000000e+00 
0.0000000e+00 -8.2594852e-07 0.0000000e+00 
0.0000000e+00 2.2512761e-09 0.0000000e+00 
0.0000000e+00 -2.8381376e-06 0.0000000e+00 
0.0000000e+00 1.8779513e-11 0.0000000e+00 
0.0000000e+00 1.8839121e-10 0.0000000e+00 
0.0000000e+00 -1.1370161e-05 0.0000000e+00 
0.0000000e+00 -4.2141846e-06 0.0000000e+00 
0.0000000e+00 -6.4957953e-07 0.0000000e+00 
0.0000000e+00 -4.7225585e-06 0.0000000e+00 
0.0000000e+00 -2.2017084e-05 0.0000000e+00 
0.0000000e+00 -2.1611675e-06 0.0000000e+00 
0.0000000e+00 -1.7919443e-06 0.0000000e+00 
0.0000000e+00 -8.7899440e-07 0.0000000e+00 
0.0000000e+00 -1.6106746e-05 0.0000000e+00 
0.0000000e+00 -7.5851199e-06 0.0000000e+00 
0.0000000e+00 -2.2606832e-06 0.0000000e+00 
0.0000000e+00 -3.5677164e-07 0.0000000e+00 
0.0000000e+00 -7.6732732e-07 0.0000000e+00 
0.0000000e+00 -3.1918455e-05 0.0000000e+00 
0.0000000e+00 -6.7617611e-06 0.0000000e+00 
7.3147812e-09 5.6919919e-08 -4.2281737e-08 
4.3263082e-08 3.7916141e-07 -1.8968418e-08 
-1.9523124e-07 1.9464137e-06 8.3661092e-07 
8.6697938e-10 5.3084150e-09 -9.0154728e-09 
1.5008303e-09 1.4496585e-08 -1.7420414e-08 
2.4672264e-09 5.1322093e-08 1.7062202e-08 
1.6455940e-09 4.1213069e-09 -3.9884918e-09 
-7.7546474e-08 -5.8564030e-08 1.9141400e-07 
1.9283225e-10 6.3024008e-10 -3.5801559e-09 
-1.0296989e-06 -2.3448622e-06 3.2031853e-06 
5.7384680e-10 -2.2402308e-10 -2.1118229e-09 
-6.5639836e-07 -1.4597183e-06 3.8412924e-07 
-2.4699379e-08 3.4355903e-08 1.0802105e-07 
-5.5300394e-08 6.7024629e-08 2.8404278e-07 
-2.5776058e-07 -3.7703992e-07 6.7118418e-07 
-1.4478050e-07 3.2196155e-08 4.4037822e-07 
2.6763876e-09 1.5977940e-07 1.7210991e-07 
-4.7143948e-07 -1.0556610e-06 9.1980138e-07 
4.5603930e-08 5.8607219e-07 2.9663056e-07 
2.5161130e-08 9.5349563e-08 1.0837807e-07 
1.1374066e-08 6.5145365e-08 2.4068230e-08 
3.3789707e-08 1.1108065e-07 3.2515786e-08 
2.3262167e-08 7.1930423e-08 -1.5003547e-08 
1.0862612e-08 4.2856286e-08 -9.8792450e-09 
9.3897414e-09 3.4743827e-08 -1.9086924e-08 
6.5694463e-09 1.9573026e-08 -1.1211481e-08 
4.0639665e-09 1.6260698e-08 -1.5248379e-08 
3.3538461e-09 9.8491881e-09 -1.0391634e-08 
2.8060314e-09 6.9042159e-09 -1.1461803e-08 
2.2169058e-09 3.9962962e-09 -7.5359354e-09 
1.2360317e-09 1.9278921e-09 -6.6334414e-09 
3.1518503e-08 1.2002410e-07 -3.3478443e-08 
4.0770754e-08 2.0455846e-07 1.3532239e-08 
5.0574687e-09 2.3228800e-08 -2.2622478e-08 
3.8848160e-09 1.2527027e-08 -5.6989626e-09 
-9.9776935e-07 -3.1728098e-06 7.9862116e-07 
1.2980072e-08 5.0818670e-08 -2.7480359e-08 
5.5984337e-09 3.0712460e-08 5.7609184e-10 
5.4139215e-10 -4.0475587e-10 -2.5168114e-09 
-3.1570730e-07 -4.5170341e-07 3.2143609e-07 
-3.2664442e-09 4.7700718e-07 7.9161538e-07 
-2.1866698e-07 -5.8249464e-07 1.1080357e-06 
3.1526024e-08 1.8313183e-07 -3.9087539e-08 
8.8318652e-10 5.5833310e-10 -1.9906716e-09 
1.0390454e-09 8.8608179e-09 -1.2311121e-08 
2.5421125e-09 1.1299382e-08 -1.4894145e-08 
2.7783975e-09 2.1703597e-08 -2.3908433e-08 
7.3476869e-09 3.3648476e-08 -3.5150340e-08 
3.9503252e-08 7.7809761e-07 1.1538609e-07 
6.9104914e-08 1.2894768e-06 4.7892490e-07 
1.5297660e-10 -3.3280534e-10 -1.7379775e-09 
5.1265348e-10 2.3590694e-09 -5.6603366e-09 
-3.3308629e-07 -1.1004866e-05 2.0111108e-06 
1.1341207e-09 5.1768934e-10 -4.0334776e-09 
1.7048978e-09 6.1330958e-09 -1.0606562e-08 
-1.2064724e-07 5.9219218e-07 2.0479442e-06 
5.7693175e-08 3.4275214e-07 1.1681315e-07 
6.8803763e-10 1.1779714e-09 -4.8093964e-09 
1.4818437e-08 9.6624142e-08 -4.7065360e-08 
-5.9473689e-07 -1.0346093e-06 7.8907198e-07 
-3.0975104e-07 -7.0700281e-07 1.9394164e-07 
3.9206954e-10 -4.0778711e-10 -1.0375765e-09 
7.9840321e-09 2.4435762e-08 -8.9723349e-09 
1.1140466e-09 2.6738849e-09 -7.1033850e-09 
-9.1682404e-07 -3.6742861e-06 1.9537647e-06 
3.7399442e-08 1.8187842e-07 9.9630142e-08 
1.3912124e-09 1.9430704e-09 -4.6726121e-09 
3.0678600e-09 7.7510505e-09 -7.6144202e-09 
3.6679948e-10 -1.5152526e-10 -2.5942755e-09 
1.3663806e-08 7.7256971e-08 -3.7487727e-08 
-1.4755946e-06 -6.2248969e-06 1.9695781e-06 
-1.0337145e-10 5.1422484e-09 -5.2482192e-09 
-1.8041994e-10 2.9024541e-09 -3.7757411e-09 
-3.5756070e-10 9.9858442e-09 -7.4518436e-09 
-2.9315356e-10 1.5461438e-08 -9.1403090e-09 
-5.3711952e-11 9.9369890e-10 -2.4420184e-09 
-4.6330823e-10 2.3686555e-08 -1.1604381e-08 
3.2245237e-10 3.6804618e-08 -1.7423849e-08 
4.4015486e-10 6.0388473e-08 -2.2936943e-08 
-6.5663528e-09 1.0353867e-07 -3.5637918e-08 
-1.5202211e-08 2.2040838e-07 -2.4048248e-08 
-3.3460832e-08 4.3184440e-07 -2.6656526e-09 
-4.0679847e-08 8.6699316e-07 8.7039126e-08 
-1.5690709e-08 1.5748177e-06 4.7565598e-07 
4.6282764e-08 2.3190710e-06 9.7608211e-07 
-1.6303839e-07 5.0449211e-07 1.9259107e-06 
-8.4932871e-08 -4.1406229e-06 2.2033553e-06 
-1.2647505e-06 -1.8178664e-05 1.3133867e-06 
-1.2902965e-10 3.3216377e-12 -1.1609047e-09 
1.8026258e-10 1.8503524e-09 4.0800760e-10 
2.9093050e-10 1.3379305e-08 2.2893007e-09 
-1.4913835e-08 1.2362425e-07 -3.2219054e-09 
-6.2724190e-08 2.2889631e-07 -2.1254782e-07 
1.7874088e-07 -1.8754927e-06 -1.4678897e-06 
-1.0609808e-10 3.5023655e-09 1.7822629e-09 
-2.3665285e-09 2.1321650e-08 2.2919537e-09 
-2.7212533e-08 1.3090883e-07 -6.5096195e-08 
-6.6322409e-10 4.1398664e-08 -5.2705182e-09 
2.0620472e-10 7.0756210e-09 -3.4219323e-09 
8.1323108e-11 2.8055255e-10 -9.6754049e-10 
1.0752379e-07 -5.9553145e-08 -4.0289603e-07 
2.8997577e-10 -1.5684792e-10 -2.4867253e-10 
-2.6136176e-08 3.9849522e-07 3.1998898e-08 
-2.5070833e-08 1.3325854e-06 -3.6617621e-07 
1.0549109e-10 1.9576795e-08 -7.1808950e-09 
1.0329209e-09 4.3387129e-08 -7.2904585e-11 
7.4512213e-10 5.4389306e-09 -9.8538655e-10 
-4.7178994e-10 1.1161151e-07 -5.5508376e-09 
-4.7100230e-09 3.1231647e-08 7.7062383e-09 
2.3717339e-11 2.8083753e-09 -2.9777552e-09 
-5.1659210e-09 3.5601669e-08 -9.6686978e-09 
4.9322693e-07 -3.5256494e-06 -2.2726178e-06 
-8.6734682e-11 3.7806644e-10 7.7398082e-10 
1.6554046e-07 -6.3989313e-07 -1.4805219e-07 
-1.4568270e-12 4.4660258e-09 2.4711835e-09 
-1.1841500e-08 5.4872725e-08 -1.4477004e-08 
-1.2368689e-10 1.6541616e-09 1.5234188e-09 
-8.4272861e-10 5.7804699e-09 2.7963121e-09 
1.6395690e-09 1.4080395e-08 -2.3456699e-09 
5.8921938e-09 4.3700680e-08 -2.0729292e-08 
-7.8169727e-08 2.3983563e-07 -7.8876372e-09 
-1.0838537e-07 1.0662040e-06 6.1395539e-08 
-1.0112049e-08 1.6001528e-07 5.9190124e-09 
3.4235669e-07 -1.4157017e-06 -4.8711206e-07 
-2.0816763e-07 -8.2308532e-08 -3.0417667e-07 
9.3753207e-11 1.2237887e-10 5.5277988e-10 
1.3795393e-10 8.6592031e-09 1.3311421e-09 
1.0350156e-10 3.4368960e-10 5.9969479e-10 
-6.6238224e-09 1.6210571e-07 -5.3058930e-08 
-8.6600233e-10 1.6473246e-08 4.3831032e-09 
2.7252844e-07 -3.8692187e-06 -4.2581209e-07 
-7.0205338e-08 -7.9076351e-08 -8.3994541e-07 
2.9270730e-09 2.2448363e-08 -9.2124557e-09 
3.5884754e-10 2.5975999e-10 -1.6253979e-09 
-2.9045069e-09 7.2859606e-08 -1.2489605e-10 
-6.0624344e-10 3.3878877e-09 1.9003652e-09 
8.9290573e-08 -1.1671460e-07 -4.5694460e-07 
7.3134326e-10 1.4758356e-09 -1.5942191e-09 
-3.7957069e-09 5.1745026e-08 8.5504919e-09 
3.5847561e-10 1.7920860e-09 -2.0214497e-10 
4.5878544e-08 -2.9678473e-08 -1.5900201e-07 
-7.7023131e-08 -7.5732697e-07 -2.5843210e-07 
-1.9522632e-08 2.8876022e-07 2.2677218e-08 
-5.1224496e-09 1.5444745e-07 1.8523906e-08 
-2.8246880e-08 8.4397101e-08 -6.7118400e-08 
3.0807249e-07 -2.8484924e-06 -1.8077299e-06 
2.9178140e-10 -5.0028104e-10 -3.3393488e-10 
9.9532671e-10 2.0655303e-08 9.9318265e-10 
-1.4479150e-09 8.2860847e-09 5.3142346e-10 
-7.0118431e-09 7.2714450e-08 1.0953137e-08 
6.2796786e-09 3.5089926e-08 -5.3317248e-08 
7.4721274e-10 2.8943090e-09 -3.6716197e-09 
-5.8003462e-08 1.4528639e-06 -2.3853258e-07 
-3.2917451e-09 1.6173187e-08 3.1063532e-09 
-3.3021937e-08 -1.3819225e-07 6.4147983e-08 