# vtk DataFile Version 4.0
vtk output
ASCII
DATASET UNSTRUCTURED_GRID
POINTS 460 float
0.0000000e+00 0.0000000e+00 0.0000000e+00 
5.0000000e+00 0.0000000e+00 0.0000000e+00 
5.0000000e+00 3.0000000e+00 0.0000000e+00 
0.0000000e+00 3.0000000e+00 0.0000000e+00 
0.0000000e+00 0.0000000e+00 1.0000000e+01 
5.0000000e+00 0.0000000e+00 1.0000000e+01 
5.0000000e+00 3.0000000e+00 1.0000000e+01 
0.0000000e+00 3.0000000e+00 1.0000000e+01 
1.0000000e+00 3.0000000e+00 -5.0000000e+00 
1.0000000e+00 3.0000000e+00 -4.5000000e+00 
1.0000000e+00 3.0000000e+00 -4.0000000e+00 
1.0000000e+00 3.0000000e+00 -3.5000000e+00 
1.0000000e+00 3.0000000e+00 -3.0000000e+00 
1.0000000e+00 3.0000000e+00 -2.5000000e+00 
1.0000000e+00 3.0000000e+00 -2.0000000e+00 
1.0000000e+00 3.0000000e+00 -1.5000000e+00 
1.0000000e+00 3.0000000e+00 -1.0000000e+00 
1.0000000e+00 3.0000000e+00 -5.0000000e-01 
1.0000000e+00 3.0000000e+00 0.0000000e+00 
1.0000000e+00 3.0000000e+00 5.0000000e-01 
1.0000000e+00 3.0000000e+00 1.0000000e+00 
1.0000000e+00 3.0000000e+00 1.5000000e+00 
1.0000000e+00 3.0000000e+00 2.0000000e+00 
1.0000000e+00 3.0000000e+00 2.5000000e+00 
1.0000000e+00 3.0000000e+00 3.0000000e+00 
1.0000000e+00 3.0000000e+00 3.5000000e+00 
1.0000000e+00 3.0000000e+00 4.0000000e+00 
1.0000000e+00 3.0000000e+00 4.5000000e+00 
1.0000000e+00 3.0000000e+00 5.0000000e+00 
1.0000000e+00 3.0000000e+00 5.5000000e+00 
1.0000000e+00 3.0000000e+00 6.0000000e+00 
1.0000000e+00 3.0000000e+00 6.5000000e+00 
1.0000000e+00 3.0000000e+00 7.0000000e+00 
1.0000000e+00 3.0000000e+00 7.5000000e+00 
1.0000000e+00 3.0000000e+00 8.0000000e+00 
1.0000000e+00 3.0000000e+00 8.5000000e+00 
1.0000000e+00 3.0000000e+00 9.0000000e+00 
1.0000000e+00 3.0000000e+00 9.5000000e+00 
1.0000000e+00 3.0000000e+00 1.0000000e+01 
1.0000000e+00 3.0000000e+00 1.0500000e+01 
1.0000000e+00 3.0000000e+00 1.1000000e+01 
1.0000000e+00 3.0000000e+00 1.1500000e+01 
1.0000000e+00 3.0000000e+00 1.2000000e+01 
1.0000000e+00 3.0000000e+00 1.2500000e+01 
1.0000000e+00 3.0000000e+00 1.3000000e+01 
1.0000000e+00 3.0000000e+00 1.3500000e+01 
1.0000000e+00 3.0000000e+00 1.4000000e+01 
1.0000000e+00 3.0000000e+00 1.4500000e+01 
1.0000000e+00 3.0250001e+00 -5.0000000e+00 
1.0000000e+00 3.0250001e+00 -4.5000000e+00 
1.0000000e+00 3.0250001e+00 -4.0000000e+00 
1.0000000e+00 3.0250001e+00 -3.5000000e+00 
1.0000000e+00 3.0250001e+00 -3.0000000e+00 
1.0000000e+00 3.0250001e+00 -2.5000000e+00 
1.0000000e+00 3.0250001e+00 -2.0000000e+00 
1.0000000e+00 3.0250001e+00 -1.5000000e+00 
1.0000000e+00 3.0250001e+00 -1.0000000e+00 
1.0000000e+00 3.0250001e+00 -5.0000000e-01 
1.0000000e+00 3.0250001e+00 0.0000000e+00 
1.0000000e+00 3.0250001e+00 5.0000000e-01 
1.0000000e+00 3.0250001e+00 1.0000000e+00 
1.0000000e+00 3.0250001e+00 1.5000000e+00 
1.0000000e+00 3.0250001e+00 2.0000000e+00 
1.0000000e+00 3.0250001e+00 2.5000000e+00 
1.0000000e+00 3.0250001e+00 3.0000000e+00 
1.0000000e+00 3.0250001e+00 3.5000000e+00 
1.0000000e+00 3.0250001e+00 4.0000000e+00 
1.0000000e+00 3.0250001e+00 4.5000000e+00 
1.0000000e+00 3.0250001e+00 5.0000000e+00 
1.0000000e+00 3.0250001e+00 5.5000000e+00 
1.0000000e+00 3.0250001e+00 6.0000000e+00 
1.0000000e+00 3.0250001e+00 6.5000000e+00 
1.0000000e+00 3.0250001e+00 7.0000000e+00 
1.0000000e+00 3.0250001e+00 7.5000000e+00 
1.0000000e+00 3.0250001e+00 8.0000000e+00 
1.0000000e+00 3.0250001e+00 8.5000000e+00 
1.0000000e+00 3.0250001e+00 9.0000000e+00 
1.0000000e+00 3.0250001e+00 9.5000000e+00 
1.0000000e+00 3.0250001e+00 1.0000000e+01 
1.0000000e+00 3.0250001e+00 1.0500000e+01 
1.0000000e+00 3.0250001e+00 1.1000000e+01 
1.0000000e+00 3.0250001e+00 1.1500000e+01 
1.0000000e+00 3.0250001e+00 1.2000000e+01 
1.0000000e+00 3.0250001e+00 1.2500000e+01 
1.0000000e+00 3.0250001e+00 1.3000000e+01 
1.0000000e+00 3.0250001e+00 1.3500000e+01 
1.0000000e+00 3.0250001e+00 1.4000000e+01 
1.0000000e+00 3.0250001e+00 1.4500000e+01 
1.0000000e+00 -2.0000000e+00 -5.0000000e+00 
1.0000000e+00 -2.0000000e+00 -4.5000000e+00 
1.0000000e+00 -2.0000000e+00 -4.0000000e+00 
1.0000000e+00 -2.0000000e+00 -3.5000000e+00 
1.0000000e+00 -2.0000000e+00 -3.0000000e+00 
1.0000000e+00 -2.0000000e+00 -2.5000000e+00 
1.0000000e+00 -2.0000000e+00 -2.0000000e+00 
1.0000000e+00 -2.0000000e+00 -1.5000000e+00 
1.0000000e+00 -2.0000000e+00 -1.0000000e+00 
1.0000000e+00 -2.0000000e+00 -5.0000000e-01 
1.0000000e+00 -2.0000000e+00 1.0500000e+01 
1.0000000e+00 -2.0000000e+00 1.1000000e+01 
1.0000000e+00 -2.0000000e+00 1.1500000e+01 
1.0000000e+00 -2.0000000e+00 1.2000000e+01 
1.0000000e+00 -2.0000000e+00 1.2500000e+01 
1.0000000e+00 -2.0000000e+00 1.3000000e+01 
1.0000000e+00 -2.0000000e+00 1.3500000e+01 
1.0000000e+00 -2.0000000e+00 1.4000000e+01 
1.0000000e+00 -2.0000000e+00 1.4500000e+01 
1.0000000e+00 0.0000000e+00 0.0000000e+00 
2.0000000e+00 0.0000000e+00 0.0000000e+00 
3.0000000e+00 0.0000000e+00 0.0000000e+00 
4.0000000e+00 0.0000000e+00 0.0000000e+00 
5.0000000e+00 1.0000000e+00 0.0000000e+00 
5.0000000e+00 2.0000000e+00 0.0000000e+00 
0.0000000e+00 2.0000000e+00 0.0000000e+00 
0.0000000e+00 1.0000000e+00 0.0000000e+00 
0.0000000e+00 0.0000000e+00 1.0000000e+00 
0.0000000e+00 0.0000000e+00 2.0000000e+00 
0.0000000e+00 0.0000000e+00 3.0000000e+00 
0.0000000e+00 0.0000000e+00 4.0000000e+00 
0.0000000e+00 0.0000000e+00 5.0000000e+00 
0.0000000e+00 0.0000000e+00 6.0000000e+00 
0.0000000e+00 0.0000000e+00 7.0000000e+00 
0.0000000e+00 0.0000000e+00 8.0000000e+00 
0.0000000e+00 0.0000000e+00 9.0000000e+00 
5.0000000e+00 0.0000000e+00 1.0000000e+00 
5.0000000e+00 0.0000000e+00 2.0000000e+00 
5.0000000e+00 0.0000000e+00 3.0000000e+00 
5.0000000e+00 0.0000000e+00 4.0000000e+00 
5.0000000e+00 0.0000000e+00 5.0000000e+00 
5.0000000e+00 0.0000000e+00 6.0000000e+00 
5.0000000e+00 0.0000000e+00 7.0000000e+00 
5.0000000e+00 0.0000000e+00 8.0000000e+00 
5.0000000e+00 0.0000000e+00 9.0000000e+00 
1.0000000e+00 0.0000000e+00 1.0000000e+01 
2.0000000e+00 0.0000000e+00 1.0000000e+01 
3.0000000e+00 0.0000000e+00 1.0000000e+01 
4.0000000e+00 0.0000000e+00 1.0000000e+01 
5.0000000e+00 3.0000000e+00 1.0000000e+00 
5.0000000e+00 3.0000000e+00 2.0000000e+00 
5.0000000e+00 3.0000000e+00 3.0000000e+00 
5.0000000e+00 3.0000000e+00 4.0000000e+00 
5.0000000e+00 3.0000000e+00 5.0000000e+00 
5.0000000e+00 3.0000000e+00 6.0000000e+00 
5.0000000e+00 3.0000000e+00 7.0000000e+00 
5.0000000e+00 3.0000000e+00 8.0000000e+00 
5.0000000e+00 3.0000000e+00 9.0000000e+00 
5.0000000e+00 1.0000000e+00 1.0000000e+01 
5.0000000e+00 2.0000000e+00 1.0000000e+01 
0.0000000e+00 3.0000000e+00 1.0000000e+00 
0.0000000e+00 3.0000000e+00 2.0000000e+00 
0.0000000e+00 3.0000000e+00 3.0000000e+00 
0.0000000e+00 3.0000000e+00 4.0000000e+00 
0.0000000e+00 3.0000000e+00 5.0000000e+00 
0.0000000e+00 3.0000000e+00 6.0000000e+00 
0.0000000e+00 3.0000000e+00 7.0000000e+00 
0.0000000e+00 3.0000000e+00 8.0000000e+00 
0.0000000e+00 3.0000000e+00 9.0000000e+00 
0.0000000e+00 2.0000000e+00 1.0000000e+01 
0.0000000e+00 1.0000000e+00 1.0000000e+01 
4.0000000e+00 3.0000000e+00 0.0000000e+00 
3.0000000e+00 3.0000000e+00 0.0000000e+00 
2.0000000e+00 3.0000000e+00 0.0000000e+00 
4.0000000e+00 3.0000000e+00 1.0000000e+01 
3.0000000e+00 3.0000000e+00 1.0000000e+01 
2.0000000e+00 3.0000000e+00 1.0000000e+01 
4.0618000e+00 1.5000000e+00 0.0000000e+00 
1.5046000e+00 7.6549745e-01 0.0000000e+00 
2.5000000e+00 2.1339746e+00 0.0000000e+00 
1.5046000e+00 2.2345026e+00 0.0000000e+00 
2.4957771e+00 8.1560516e-01 0.0000000e+00 
3.4707544e+00 2.2336540e+00 0.0000000e+00 
3.4700506e+00 7.5794268e-01 0.0000000e+00 
8.6322361e-01 1.5000000e+00 0.0000000e+00 
2.0000000e+00 1.5000000e+00 0.0000000e+00 
2.9960666e+00 1.4974480e+00 0.0000000e+00 
4.2679491e+00 7.3205084e-01 0.0000000e+00 
4.2679491e+00 2.2679491e+00 0.0000000e+00 
7.2695929e-01 2.2730408e+00 0.0000000e+00 
7.2695929e-01 7.2695929e-01 0.0000000e+00 
4.1822505e+00 0.0000000e+00 2.5515697e+00 
4.2017918e+00 0.0000000e+00 4.4725966e+00 
4.1114569e+00 0.0000000e+00 6.5092020e+00 
8.6602539e-01 0.0000000e+00 3.5000000e+00 
8.4778279e-01 0.0000000e+00 5.4684029e+00 
8.9629614e-01 0.0000000e+00 7.5867257e+00 
2.5566745e+00 0.0000000e+00 8.1853306e-01 
2.4918270e+00 0.0000000e+00 9.1386929e+00 
8.4677207e-01 0.0000000e+00 1.5042374e+00 
4.0943027e+00 0.0000000e+00 8.4081745e+00 
8.6281651e-01 0.0000000e+00 2.5007062e+00 
1.7315160e+00 0.0000000e+00 3.0001178e+00 
1.7319617e+00 0.0000000e+00 4.0000196e+00 
2.5980761e+00 0.0000000e+00 3.5000000e+00 
2.5536871e+00 0.0000000e+00 4.4963923e+00 
2.5928419e+00 0.0000000e+00 2.4239938e+00 
1.5037409e+00 0.0000000e+00 9.1535149e+00 
1.8433737e+00 0.0000000e+00 8.1858873e+00 
3.0000000e+00 0.0000000e+00 8.2679491e+00 
2.5000000e+00 0.0000000e+00 7.4019237e+00 
3.5042722e+00 0.0000000e+00 7.4271150e+00 
3.0310018e+00 0.0000000e+00 6.5282087e+00 
2.0373929e+00 0.0000000e+00 6.5307913e+00 
3.4767809e+00 0.0000000e+00 5.8031492e+00 
2.5452602e+00 0.0000000e+00 5.5720768e+00 
1.6456656e+00 0.0000000e+00 1.9697139e+00 
8.6297011e-01 0.0000000e+00 4.4947371e+00 
1.0111579e+00 0.0000000e+00 6.5282545e+00 
3.4994321e+00 0.0000000e+00 8.4691072e-01 
4.1860156e+00 0.0000000e+00 3.5040276e+00 
1.7320508e+00 0.0000000e+00 5.0000000e+00 
4.0544066e+00 0.0000000e+00 1.5781221e+00 
1.5817389e+00 0.0000000e+00 9.3943578e-01 
8.3166349e-01 0.0000000e+00 8.5090933e+00 
3.4686174e+00 0.0000000e+00 9.1752682e+00 
3.0709300e+00 0.0000000e+00 1.5799091e+00 
3.3927374e+00 0.0000000e+00 3.0399952e+00 
3.3826034e+00 0.0000000e+00 3.9747651e+00 
4.3420062e+00 0.0000000e+00 7.4688983e+00 
3.4023225e+00 0.0000000e+00 4.9314723e+00 
1.6740381e+00 0.0000000e+00 7.3014426e+00 
4.2715640e+00 0.0000000e+00 5.4758859e+00 
1.6225953e+00 0.0000000e+00 5.8104177e+00 
4.2679491e+00 0.0000000e+00 9.2679491e+00 
7.3205084e-01 0.0000000e+00 7.3205084e-01 
4.2679491e+00 0.0000000e+00 7.3205084e-01 
7.3205084e-01 0.0000000e+00 9.2679491e+00 
3.4586334e+00 0.0000000e+00 2.2347178e+00 
2.2895701e+00 0.0000000e+00 1.5463171e+00 
5.0000000e+00 2.2345026e+00 1.5046000e+00 
[...]
POINT_DATA 460
FIELD FieldData 2
DISPLACEMENT 3 460  float
0.0000000e+00 0.0000000e+00 0.0000000e+00 
0.0000000e+00 0.0000000e+00 0.0000000e+00 
0.0000000e+00 9.5023778e-10 0.0000000e+00 
0.0000000e+00 4.2536477e-09 0.0000000e+00 
0.0000000e+00 0.0000000e+00 0.0000000e+00 
0.0000000e+00 0.0000000e+00 0.0000000e+00 
0.0000000e+00 3.0685129e-07 0.0000000e+00 
0.0000000e+00 5.3254953e-06 0.0000000e+00 
0.0000000e+00 -4.2256119e-09 0.0000000e+00 
0.0000000e+00 -4.0892587e-09 0.0000000e+00 
0.0000000e+00 -3.6513463e-09 0.0000000e+00 
0.0000000e+00 -2.8964453e-09 0.0000000e+00 
0.0000000e+00 -1.8340574e-09 0.0000000e+00 
0.0000000e+00 -5.0610066e-10 0.0000000e+00 
0.0000000e+00 9.9435160e-10 0.0000000e+00 
0.0000000e+00 2.5137290e-09 0.0000000e+00 
0.0000000e+00 3.8407038e-09 0.0000000e+00 
0.0000000e+00 4.7195545e-09 0.0000000e+00 
0.0000000e+00 4.8362510e-09 0.0000000e+00 
2.4003477e-10 4.0302206e-09 1.8404234e-09 
4.6000596e-11 1.4784413e-09 4.3822417e-09 
-9.3499118e-11 -3.1889267e-09 5.7227716e-09 
-5.8112426e-10 -1.0587932e-08 7.4205446e-09 
-1.2300049e-09 -1.9687667e-08 5.7695639e-09 
-1.9146398e-09 -2.7800265e-08 8.7234214e-10 
-2.1770545e-09 -2.9569852e-08 -8.6224761e-09 
2.8723832e-09 -1.8240032e-08 -2.9320388e-08 
6.3850023e-09 1.3134399e-08 -5.2906767e-08 
1.7952214e-08 6.4712751e-08 -9.1234803e-08 
3.0129996e-08 1.2847376e-07 -1.2504429e-07 
4.2468621e-08 1.8352662e-07 -1.6167452e-07 
8.6972960e-08 2.0228401e-07 -2.2090980e-07 
1.3400934e-07 1.8393757e-07 -2.6942584e-07 
1.8836806e-07 2.3780720e-07 -4.0055360e-07 
2.2323186e-07 7.0249359e-07 -5.6638197e-07 
2.8927144e-07 2.3499915e-06 -1.4211921e-06 
5.4033001e-07 6.3399480e-06 -1.2192102e-06 
3.9745152e-07 1.4097443e-05 5.7652289e-07 
0.0000000e+00 2.5291907e-05 0.0000000e+00 
0.0000000e+00 3.5722660e-05 0.0000000e+00 
0.0000000e+00 2.9901606e-05 0.0000000e+00 
0.0000000e+00 -1.0567253e-05 0.0000000e+00 
0.0000000e+00 -1.0492720e-04 0.0000000e+00 
0.0000000e+00 -2.6582292e-04 0.0000000e+00 
0.0000000e+00 -4.8573737e-04 0.0000000e+00 
0.0000000e+00 -7.1640185e-04 0.0000000e+00 
0.0000000e+00 -8.6812081e-04 0.0000000e+00 
0.0000000e+00 -9.0388046e-04 0.0000000e+00 
0.0000000e+00 -4.1070871e-09 0.0000000e+00 
0.0000000e+00 -4.0061514e-09 0.0000000e+00 
0.0000000e+00 -3.6418053e-09 0.0000000e+00 
0.0000000e+00 -2.9136920e-09 0.0000000e+00 
0.0000000e+00 -1.8392377e-09 0.0000000e+00 
0.0000000e+00 -5.0176696e-10 0.0000000e+00 
0.0000000e+00 9.9797903e-10 0.0000000e+00 
0.0000000e+00 2.5151894e-09 0.0000000e+00 
0.0000000e+00 3.8418708e-09 0.0000000e+00 
0.0000000e+00 4.7205089e-09 0.0000000e+00 
0.0000000e+00 4.8772666e-09 0.0000000e+00 
0.0000000e+00 3.9829877e-09 0.0000000e+00 
0.0000000e+00 1.4580039e-09 0.0000000e+00 
0.0000000e+00 -3.2813843e-09 0.0000000e+00 
0.0000000e+00 -1.0655092e-08 0.0000000e+00 
0.0000000e+00 -1.9740840e-08 0.0000000e+00 
0.0000000e+00 -2.7749552e-08 0.0000000e+00 
0.0000000e+00 -2.9443839e-08 0.0000000e+00 
0.0000000e+00 -1.7818923e-08 0.0000000e+00 
0.0000000e+00 1.3528813e-08 0.0000000e+00 
0.0000000e+00 6.5350349e-08 0.0000000e+00 
0.0000000e+00 1.2898030e-07 0.0000000e+00 
0.0000000e+00 1.8246784e-07 0.0000000e+00 
0.0000000e+00 1.9819147e-07 0.0000000e+00 
0.0000000e+00 1.7485984e-07 0.0000000e+00 
0.0000000e+00 2.1928251e-07 0.0000000e+00 
0.0000000e+00 6.8140611e-07 0.0000000e+00 
0.0000000e+00 2.3254361e-06 0.0000000e+00 
0.0000000e+00 6.3736629e-06 0.0000000e+00 
0.0000000e+00 1.4224366e-05 0.0000000e+00 
0.0000000e+00 2.5776933e-05 0.0000000e+00 
0.0000000e+00 3.5839836e-05 0.0000000e+00 
0.0000000e+00 2.9971960e-05 0.0000000e+00 
0.0000000e+00 -1.0682121e-05 0.0000000e+00 
0.0000000e+00 -1.0543727e-04 0.0000000e+00 
0.0000000e+00 -2.6698402e-04 0.0000000e+00 
0.0000000e+00 -4.8777342e-04 0.0000000e+00 
0.0000000e+00 -7.1934320e-04 0.0000000e+00 
0.0000000e+00 -8.7164412e-04 0.0000000e+00 
0.0000000e+00 -9.0753625e-04 0.0000000e+00 
0.0000000e+00 0.0000000e+00 0.0000000e+00 
0.0000000e+00 0.0000000e+00 0.0000000e+00 
0.0000000e+00 0.0000000e+00 0.0000000e+00 
0.0000000e+00 0.0000000e+00 0.0000000e+00 
0.0000000e+00 0.0000000e+00 0.0000000e+00 
0.0000000e+00 0.0000000e+00 0.0000000e+00 
0.0000000e+00 0.0000000e+00 0.0000000e+00 
0.0000000e+00 0.0000000e+00 0.0000000e+00 
0.0000000e+00 0.0000000e+00 0.0000000e+00 
0.0000000e+00 0.0000000e+00 0.0000000e+00 
0.0000000e+00 0.0000000e+00 0.0000000e+00 
0.0000000e+00 0.0000000e+00 0.0000000e+00 
0.0000000e+00 0.0000000e+00 0.0000000e+00 
0.0000000e+00 0.0000000e+00 0.0000000e+00 
0.0000000e+00 0.0000000e+00 0.0000000e+00 
0.0000000e+00 0.0000000e+00 0.0000000e+00 
0.0000000e+00 0.0000000e+00 0.0000000e+00 
0.0000000e+00 0.0000000e+00 0.0000000e+00 
0.0000000e+00 0.0000000e+00 0.0000000e+00 
0.0000000e+00 0.0000000e+00 0.0000000e+00 
0.0000000e+00 0.0000000e+00 0.0000000e+00 
0.0000000e+00 0.0000000e+00 0.0000000e+00 
0.0000000e+00 0.0000000e+00 0.0000000e+00 
0.0000000e+00 6.1137162e-10 0.0000000e+00 
0.0000000e+00 9.7024166e-10 0.0000000e+00 
0.0000000e+00 3.5647834e-09 0.0000000e+00 
0.0000000e+00 2.0236262e-09 0.0000000e+00 
0.0000000e+00 0.0000000e+00 0.0000000e+00 
0.0000000e+00 0.0000000e+00 0.0000000e+00 
0.0000000e+00 0.0000000e+00 0.0000000e+00 
0.0000000e+00 0.0000000e+00 0.0000000e+00 
0.0000000e+00 0.0000000e+00 0.0000000e+00 
0.0000000e+00 0.0000000e+00 0.0000000e+00 
0.0000000e+00 0.0000000e+00 0.0000000e+00 
0.0000000e+00 0.0000000e+00 0.0000000e+00 
0.0000000e+00 0.0000000e+00 0.0000000e+00 
0.0000000e+00 0.0000000e+00 0.0000000e+00 
0.0000000e+00 0.0000000e+00 0.0000000e+00 
0.0000000e+00 0.0000000e+00 0.0000000e+00 
0.0000000e+00 0.0000000e+00 0.0000000e+00 
0.0000000e+00 0.0000000e+00 0.0000000e+00 
0.0000000e+00 0.0000000e+00 0.0000000e+00 
0.0000000e+00 0.0000000e+00 0.0000000e+00 
0.0000000e+00 0.0000000e+00 0.0000000e+00 
0.0000000e+00 0.0000000e+00 0.0000000e+00 
0.0000000e+00 0.0000000e+00 0.0000000e+00 
0.0000000e+00 0.0000000e+00 0.0000000e+00 
0.0000000e+00 0.0000000e+00 0.0000000e+00 
0.0000000e+00 0.0000000e+00 0.0000000e+00 
0.0000000e+00 1.1733080e-09 0.0000000e+00 
0.0000000e+00 -4.8120702e-10 0.0000000e+00 
0.0000000e+00 -9.5877528e-09 0.0000000e+00 
0.0000000e+00 -2.6063589e-08 0.0000000e+00 
0.0000000e+00 -3.0698864e-08 0.0000000e+00 
0.0000000e+00 -1.7853290e-08 0.0000000e+00 
0.0000000e+00 6.5169274e-08 0.0000000e+00 
0.0000000e+00 1.3970643e-07 0.0000000e+00 
0.0000000e+00 2.7447359e-07 0.0000000e+00 
0.0000000e+00 1.6091157e-07 0.0000000e+00 
0.0000000e+00 2.7485879e-07 0.0000000e+00 
0.0000000e+00 1.6048947e-09 0.0000000e+00 
0.0000000e+00 -8.8312628e-09 0.0000000e+00 
0.0000000e+00 -2.3167319e-08 0.0000000e+00 
0.0000000e+00 -1.3489625e-08 0.0000000e+00 
0.0000000e+00 6.5588914e-08 0.0000000e+00 
0.0000000e+00 2.4023853e-07 0.0000000e+00 
0.0000000e+00 5.2116388e-07 0.0000000e+00 
0.0000000e+00 1.3555385e-06 0.0000000e+00 
0.0000000e+00 4.0675295e-06 0.0000000e+00 
0.0000000e+00 4.8155316e-06 0.0000000e+00 
0.0000000e+00 2.3584721e-06 0.0000000e+00 
0.0000000e+00 1.3689324e-09 0.0000000e+00 
0.0000000e+00 1.7624165e-09 0.0000000e+00 
0.0000000e+00 2.6555536e-09 0.0000000e+00 
0.0000000e+00 4.5515384e-07 0.0000000e+00 
0.0000000e+00 1.0600999e-06 0.0000000e+00 
0.0000000e+00 2.7285082e-06 0.0000000e+00 
0.0000000e+00 1.3838143e-09 0.0000000e+00 
0.0000000e+00 1.5217555e-09 0.0000000e+00 
0.0000000e+00 3.0908378e-09 0.0000000e+00 
0.0000000e+00 4.1027377e-09 0.0000000e+00 
0.0000000e+00 1.5945849e-09 0.0000000e+00 
0.0000000e+00 2.1249107e-09 0.0000000e+00 
0.0000000e+00 8.2439539e-10 0.0000000e+00 
0.0000000e+00 3.4252188e-09 0.0000000e+00 
0.0000000e+00 2.9903180e-09 0.0000000e+00 
0.0000000e+00 2.1159769e-09 0.0000000e+00 
0.0000000e+00 6.9371497e-10 0.0000000e+00 
0.0000000e+00 1.3795556e-09 0.0000000e+00 
0.0000000e+00 4.3849337e-09 0.0000000e+00 
0.0000000e+00 1.7402154e-09 0.0000000e+00 
0.0000000e+00 0.0000000e+00 0.0000000e+00 
0.0000000e+00 0.0000000e+00 0.0000000e+00 
0.0000000e+00 0.0000000e+00 0.0000000e+00 
0.0000000e+00 0.0000000e+00 0.0000000e+00 
0.0000000e+00 0.0000000e+00 0.0000000e+00 
0.0000000e+00 0.0000000e+00 0.0000000e+00 
0.0000000e+00 0.0000000e+00 0.0000000e+00 
0.0000000e+00 0.0000000e+00 0.0000000e+00 
0.0000000e+00 0.0000000e+00 0.0000000e+00 
0.0000000e+00 0.0000000e+00 0.0000000e+00 
0.0000000e+00 0.0000000e+00 0.0000000e+00 
0.0000000e+00 0.0000000e+00 0.0000000e+00 
0.0000000e+00 0.0000000e+00 0.0000000e+00 
0.0000000e+00 0.0000000e+00 0.0000000e+00 
0.0000000e+00 0.0000000e+00 0.0000000e+00 
0.0000000e+00 0.0000000e+00 0.0000000e+00 
0.0000000e+00 0.0000000e+00 0.0000000e+00 
0.0000000e+00 0.0000000e+00 0.0000000e+00 
0.0000000e+00 0.0000000e+00 0.0000000e+00 
0.0000000e+00 0.0000000e+00 0.0000000e+00 
0.0000000e+00 0.0000000e+00 0.0000000e+00 
0.0000000e+00 0.0000000e+00 0.0000000e+00 
0.0000000e+00 0.0000000e+00 0.0000000e+00 
0.0000000e+00 0.0000000e+00 0.0000000e+00 
0.0000000e+00 0.0000000e+00 0.0000000e+00 
0.0000000e+00 0.0000000e+00 0.0000000e+00 
0.0000000e+00 0.0000000e+00 0.0000000e+00 
0.0000000e+00 0.0000000e+00 0.0000000e+00 
0.0000000e+00 0.0000000e+00 0.0000000e+00 
0.0000000e+00 0.0000000e+00 0.0000000e+00 
0.0000000e+00 0.0000000e+00 0.0000000e+00 
0.0000000e+00 0.0000000e+00 0.0000000e+00 
0.0000000e+00 0.0000000e+00 0.0000000e+00 
0.0000000e+00 0.0000000e+00 0.0000000e+00 
0.0000000e+00 0.0000000e+00 0.0000000e+00 
0.0000000e+00 0.0000000e+00 0.0000000e+00 
0.0000000e+00 0.0000000e+00 0.0000000e+00 
0.0000000e+00 0.0000000e+00 0.0000000e+00 
0.0000000e+00 0.0000000e+00 0.0000000e+00 
0.0000000e+00 0.0000000e+00 0.0000000e+00 
0.0000000e+00 0.0000000e+00 0.0000000e+00 
0.0000000e+00 0.0000000e+00 0.0000000e+00 
0.0000000e+00 0.0000000e+00 0.0000000e+00 
0.0000000e+00 0.0000000e+00 0.0000000e+00 
0.0000000e+00 0.0000000e+00 0.0000000e+00 
0.0000000e+00 0.0000000e+00 0.0000000e+00 
0.0000000e+00 0.0000000e+00 0.0000000e+00 
0.0000000e+00 0.0000000e+00 0.0000000e+00 
0.0000000e+00 0.0000000e+00 0.0000000e+00 
0.0000000e+00 1.0480241e-09 0.0000000e+00 
0.0000000e+00 1.8762010e-07 0.0000000e+00 
0.0000000e+00 -1.5893857e-08 0.0000000e+00 
0.0000000e+00 -2.9625250e-08 0.0000000e+00 
0.0000000e+00 8.5713232e-08 0.0000000e+00 
0.0000000e+00 -1.4672721e-09 0.0000000e+00 
0.0000000e+00 -1.2231595e-08 0.0000000e+00 
0.0000000e+00 9.6603321e-09 0.0000000e+00 
0.0000000e+00 -7.4079129e-09 0.0000000e+00 
0.0000000e+00 -1.3612929e-08 0.0000000e+00 
0.0000000e+00 -3.0200069e-09 0.0000000e+00 
0.0000000e+00 -2.9993576e-08 0.0000000e+00 
0.0000000e+00 -4.4239306e-09 0.0000000e+00 
0.0000000e+00 4.9798782e-08 0.0000000e+00 
0.0000000e+00 2.7399150e-10 0.0000000e+00 
0.0000000e+00 8.9049458e-08 0.0000000e+00 
0.0000000e+00 1.5294421e-07 0.0000000e+00 
0.0000000e+00 9.7084640e-10 0.0000000e+00 
0.0000000e+00 -2.3317329e-08 0.0000000e+00 
0.0000000e+00 2.6600176e-08 0.0000000e+00 
0.0000000e+00 -9.2857541e-11 0.0000000e+00 
0.0000000e+00 -1.7287125e-08 0.0000000e+00 
0.0000000e+00 -1.8394132e-08 0.0000000e+00 
0.0000000e+00 -6.8227570e-09 0.0000000e+00 
0.0000000e+00 9.3579821e-08 0.0000000e+00 
0.0000000e+00 2.3583446e-07 0.0000000e+00 
0.0000000e+00 9.7885760e-08 0.0000000e+00 
0.0000000e+00 1.1089930e-09 0.0000000e+00 
0.0000000e+00 5.0512883e-10 0.0000000e+00 
0.0000000e+00 2.4219271e-06 0.0000000e+00 
0.0000000e+00 1.3687833e-09 0.0000000e+00 
0.0000000e+00 -6.3974399e-09 0.0000000e+00 
0.0000000e+00 8.1414706e-09 0.0000000e+00 
0.0000000e+00 4.3310334e-07 0.0000000e+00 
0.0000000e+00 -2.3161077e-08 0.0000000e+00 
0.0000000e+00 1.3682698e-07 0.0000000e+00 
0.0000000e+00 8.8136778e-07 0.0000000e+00 
0.0000000e+00 -9.4708668e-09 0.0000000e+00 
0.0000000e+00 -1.5195624e-08 0.0000000e+00 
0.0000000e+00 1.3670680e-08 0.0000000e+00 
0.0000000e+00 3.6008549e-07 0.0000000e+00 
0.0000000e+00 2.0476294e-07 0.0000000e+00 
0.0000000e+00 2.3123896e-06 0.0000000e+00 
0.0000000e+00 -2.5093072e-09 0.0000000e+00 
0.0000000e+00 -1.4745152e-09 0.0000000e+00 
0.0000000e+00 7.7100748e-07 0.0000000e+00 
0.0000000e+00 4.5378371e-08 0.0000000e+00 
0.0000000e+00 1.7412877e-07 0.0000000e+00 
0.0000000e+00 -6.4043246e-09 0.0000000e+00 
0.0000000e+00 -1.6405876e-08 0.0000000e+00 
0.0000000e+00 4.4867136e-07 0.0000000e+00 
0.0000000e+00 5.4859512e-08 0.0000000e+00 
0.0000000e+00 1.1147649e-06 0.0000000e+00 
0.0000000e+00 -6.2704149e-09 0.0000000e+00 
0.0000000e+00 1.1301363e-06 0.0000000e+00 
0.0000000e+00 2.8151361e-09 0.0000000e+00 
0.0000000e+00 7.4676726e-10 0.0000000e+00 
0.0000000e+00 4.3805157e-06 0.0000000e+00 
0.0000000e+00 1.3223146e-06 0.0000000e+00 
0.0000000e+00 3.0177134e-07 0.0000000e+00 
0.0000000e+00 1.6775465e-06 0.0000000e+00 
0.0000000e+00 6.3245488e-06 0.0000000e+00 
0.0000000e+00 7.2450393e-07 0.0000000e+00 
0.0000000e+00 6.7990840e-07 0.0000000e+00 
0.0000000e+00 3.2357701e-07 0.0000000e+00 
0.0000000e+00 4.5904312e-06 0.0000000e+00 
0.0000000e+00 2.3251948e-06 0.0000000e+00 
0.0000000e+00 8.2828660e-07 0.0000000e+00 
0.0000000e+00 1.6608055e-07 0.0000000e+00 
0.0000000e+00 3.6194359e-07 0.0000000e+00 
0.0000000e+00 9.0036301e-06 0.0000000e+00 
0.0000000e+00 1.9405361e-06 0.0000000e+00 
1.3429112e-08 5.0715059e-09 -6.6589372e-08 
6.9398382e-08 2.0332321e-07 -1.8501038e-07 
2.2387468e-07 7.3086608e-07 -4.5472194e-07 
-1.6535611e-09 -1.1242331e-08 6.7000303e-09 
-7.3811501e-10 -2.8181683e-08 -5.1307101e-09 
2.7386106e-08 -1.9392473e-08 -3.5570960e-08 
-2.9065914e-10 -5.4409921e-09 3.2527470e-09 
7.9526274e-08 1.1488475e-07 -9.5753016e-08 
-1.9386678e-10 2.7548245e-11 5.1355760e-09 
4.9460988e-07 3.2325493e-06 -9.6440749e-07 
-6.8314410e-10 1.3151088e-09 2.6917724e-09 
2.7528296e-07 6.7481818e-07 -9.4226998e-08 
6.1368866e-08 3.6719662e-08 -7.3345255e-08 
1.1826205e-07 1.5379010e-07 -1.6855260e-07 
2.2983424e-07 3.3596572e-07 -2.5883324e-07 
1.7609617e-07 3.3713775e-07 -2.0561411e-07 
1.0561172e-07 1.8111022e-07 -1.5388235e-07 
3.3552513e-07 8.2453187e-07 -3.1362327e-07 
1.4185436e-07 3.2233936e-07 -2.8077875e-07 
7.0036144e-08 5.4488108e-08 -1.1919499e-07 
3.6979621e-08 -3.5407925e-09 -6.0559621e-08 
5.0068572e-08 4.1235225e-08 -9.7461900e-08 
2.4747580e-08 -1.0441572e-08 -6.2811594e-08 
1.4060608e-08 -3.2269149e-08 -2.5645853e-08 
1.0031901e-08 -3.0161029e-08 -2.4281578e-08 
5.4578617e-09 -2.2559998e-08 -5.4683507e-09 
5.1786986e-10 -2.3406416e-08 -4.4082000e-09 
-1.9175149e-10 -1.5481668e-08 3.4638523e-09 
-6.7757572e-10 -1.3331451e-08 3.7186836e-09 
-1.1982757e-09 -5.8263057e-09 6.3276029e-09 
-1.4427280e-09 -3.5422183e-09 6.2968333e-09 
3.8237584e-08 4.2246178e-08 -1.1159925e-07 
6.1963668e-08 1.1154372e-07 -1.3904105e-07 
4.5427488e-09 -2.6422752e-08 -1.5225746e-08 
1.9928574e-09 -1.9592072e-08 1.3393504e-09 
3.9999097e-07 1.4240353e-06 -2.0566956e-07 
1.1678343e-08 -2.0473264e-08 -4.3787079e-08 
1.4270277e-08 -3.5419021e-08 -1.8540243e-08 
-5.3244759e-10 1.8700095e-09 3.4300758e-09 
1.6425423e-07 2.9383182e-07 -1.0036840e-07 
2.4218559e-07 5.7635322e-07 -4.1000769e-07 
3.1899060e-07 1.1509152e-06 -4.3985790e-07 
4.5158504e-08 1.1070176e-07 -1.3487528e-07 
-9.5012254e-10 6.1709327e-10 2.2606781e-09 
-1.6805011e-09 -1.9679515e-08 3.6672538e-09 
-7.7202811e-10 -2.2752914e-08 1.0060849e-10 
2.4207749e-09 -2.5185690e-08 -2.0825068e-08 
1.0026349e-08 -1.8153345e-08 -4.6293199e-08 
1.0838323e-07 2.9541744e-07 -2.4251887e-07 
1.6005731e-07 4.9670172e-07 -3.7205237e-07 
6.9682676e-11 3.2404162e-09 2.8627956e-09 
-1.1077773e-09 -4.9946567e-09 6.5424932e-09 
3.9476333e-07 5.6034669e-06 -5.6506218e-07 
-1.0866199e-09 -4.3666235e-10 5.0209232e-09 
-1.7086923e-09 -1.2374180e-08 6.3729759e-09 
3.6519026e-07 1.6478302e-06 -7.6651725e-07 
1.0239368e-07 2.1472052e-07 -2.0746710e-07 
-9.5512398e-10 -1.3778141e-09 6.1188188e-09 
2.3748280e-08 5.7158019e-08 -9.6880299e-08 
3.1010967e-07 6.1692441e-07 -2.3770680e-07 
1.3379922e-07 3.7217373e-07 -5.5979122e-08 
-4.6657228e-10 1.2507505e-09 1.1905090e-09 
8.2230684e-09 -2.6663026e-08 -9.0779348e-09 
-1.5186477e-09 -6.2053740e-09 7.1500641e-09 
5.7697792e-07 2.1249150e-06 -5.9862441e-07 
7.9262882e-08 1.0573391e-07 -1.3966577e-07 
-1.0754829e-09 -1.9075195e-09 4.3592077e-09 
2.2878813e-10 -1.1442443e-08 2.8637583e-09 
-2.3724528e-10 1.8447753e-09 3.8448214e-09 
2.0455012e-08 1.0703109e-08 -7.5307540e-08 
5.4071251e-07 2.8921304e-06 -4.8640624e-07 
-9.6467700e-10 -1.2746049e-08 4.5330162e-09 
-1.9655272e-10 -5.9241154e-09 4.8249462e-09 
-1.5957798e-09 -2.0193308e-08 2.6756455e-09 
-2.0620838e-09 -2.6848225e-08 -8.3571622e-10 
-2.3050969e-11 -3.0389036e-10 3.7435433e-09 
-1.7055964e-09 -2.2415511e-08 -8.3711402e-09 
1.0269987e-09 -2.7464235e-09 -2.2912303e-08 
2.0545090e-09 3.5689801e-08 -3.6553079e-08 
1.4672609e-08 1.0080702e-07 -8.0638614e-08 
2.6302676e-08 1.7776829e-07 -1.2826999e-07 
4.2286416e-08 2.6296081e-07 -1.7007490e-07 
5.0227893e-08 3.7976591e-07 -2.2943962e-07 
5.8919980e-08 5.5247006e-07 -3.1173076e-07 
1.0690316e-07 1.0023953e-06 -4.0711234e-07 
1.2408847e-07 1.8797350e-06 -6.4127124e-07 
1.2304589e-07 3.7701327e-06 -7.1101005e-07 
1.6328774e-07 7.6523165e-06 -4.7071907e-07 
3.2431555e-10 3.2191922e-09 2.0568325e-09 
3.0634936e-10 -5.5202372e-09 -5.0381793e-10 
-2.2318734e-10 -2.1120368e-08 4.4250927e-09 
-1.2769709e-08 4.5775298e-08 4.5293831e-08 
-6.1746725e-08 3.1672172e-07 1.5326570e-07 
-2.1754440e-07 1.2910050e-06 4.3739743e-07 
4.3937917e-10 -7.4139286e-09 2.9224240e-10 
-4.2842467e-09 -2.1047160e-08 9.4961496e-09 
-3.1690057e-08 7.6322479e-08 6.1036850e-08 
2.7368705e-10 -7.9256637e-09 2.1690583e-09 
-5.0625137e-10 -1.8912134e-08 -2.0901515e-10 
-1.1594381e-11 4.1280934e-10 5.8636218e-10 
-1.3367857e-07 2.4989046e-07 1.5277381e-07 
-7.7236141e-11 5.4661775e-10 7.2867112e-10 
-5.2118003e-09 2.1014766e-07 2.5375764e-08 
-1.6057328e-08 7.9734440e-07 2.4355876e-07 
-4.4571999e-10 -2.7821468e-08 -2.8110909e-09 
-9.8044306e-10 -2.4114422e-08 5.0535026e-10 
-6.9760235e-12 -1.4141967e-08 1.1646953e-09 
4.3770451e-10 6.0316538e-08 -1.1270695e-08 
-2.2710336e-09 -7.1584085e-09 2.1915682e-08 
-2.5832961e-10 -7.8434095e-09 1.8513322e-09 
-1.4223438e-08 -1.1896644e-08 1.9126764e-08 
-1.2891017e-07 2.9854741e-06 8.0363014e-07 
2.5774410e-10 2.4193600e-10 -1.7173069e-10 
-1.0666165e-07 3.5424489e-07 4.8155044e-08 
2.3310726e-10 -1.0109748e-08 9.6955477e-10 
-1.6900753e-08 8.9494669e-09 4.2892367e-08 
6.8208583e-10 -3.6077814e-09 -3.6137460e-10 
2.1778007e-10 -1.0320500e-08 4.1147432e-09 
8.0661522e-10 -2.1417119e-08 -9.5722430e-10 
-1.3934867e-08 5.3701871e-08 8.8530898e-09 
1.2828562e-08 2.2943912e-07 1.0058585e-08 
3.0188392e-08 3.5594988e-07 -7.2616180e-09 
9.0600301e-09 5.5846883e-08 -1.2807795e-08 
-2.1801846e-07 6.6384206e-07 1.4002035e-07 
-2.8667820e-08 6.1377835e-07 1.2747931e-07 
2.2260277e-10 3.1475184e-10 -5.5825539e-10 
-5.1018434e-10 -1.5376019e-08 2.2520742e-10 
9.8164449e-11 3.0103098e-13 -1.0683296e-09 
-2.1548155e-08 1.3288852e-07 9.2999400e-08 
6.7077588e-10 -1.3218073e-08 1.1424541e-08 
-2.2082615e-07 1.7031678e-06 1.3165236e-07 
-7.5123964e-08 5.0549755e-07 3.2348032e-07 
1.0223837e-09 -3.0073952e-08 -6.0734093e-09 
-1.6035023e-10 -5.0553367e-10 1.6070596e-09 
1.0038428e-09 -1.4274141e-08 -1.6978042e-09 
-2.3688751e-10 -5.3615792e-09 -2.3413943e-10 
-1.2240672e-07 3.0922592e-07 1.8565861e-07 
-2.7038818e-10 -3.9408667e-09 2.1929119e-09 
-3.7578634e-09 2.1936710e-08 3.3097905e-08 
-3.5467324e-11 -2.2257884e-09 6.6059092e-10 
-6.0794171e-08 9.1641795e-08 7.0354346e-08 
-4.1823668e-08 1.4987286e-06 1.3983677e-07 
1.9659600e-08 1.5572019e-07 -3.4659418e-08 
-5.3903135e-09 8.9646640e-08 3.1721356e-08 
-3.0119576e-08 6.6011069e-08 7.5267955e-08 
-1.7744897e-07 1.3981947e-06 4.4961467e-07 
-3.4733807e-10 1.5827140e-09 8.9764085e-10 
2.7130962e-09 -3.1157587e-08 -2.6449745e-09 
-2.0726771e-09 -1.0770543e-08 3.2898628e-09 
5.8144849e-09 -8.1369969e-09 -8.8691463e-09 
-3.0017546e-08 2.7026919e-08 3.7915196e-08 
-4.7079901e-10 -8.6281986e-09 2.5407429e-09 
6.2786434e-08 1.5194233e-06 1.9198939e-07 
-3.8224295e-09 -9.0619139e-09 1.2912587e-08 
7.9733518e-09 1.5222578e-07 -2.2852040e-08 
2.1466877e-09 1.1438849e-09 -1.0474303e-08 