# vtk DataFile Version 4.0
vtk output
ASCII
DATASET UNSTRUCTURED_GRID
POINTS 460 float
0.0000000e+00 0.0000000e+00 0.0000000e+00 
5.0000000e+00 0.0000000e+00 0.0000000e+00 
5.0000000e+00 3.0000000e+00 0.0000000e+00 
0.0000000e+00 3.0000000e+00 0.0000000e+00 
0.0000000e+00 0.0000000e+00 1.0000000e+01 
5.0000000e+00 0.0000000e+00 1.0000000e+01 
5.0000000e+00 3.0000000e+00 1.0000000e+01 
0.0000000e+00 3.0000000e+00 1.0000000e+01 
1.0000000e+00 3.0000000e+00 -5.0000000e+00 
1.0000000e+00 3.0000000e+00 -4.5000000e+00 
1.0000000e+00 3.0000000e+00 -4.0000000e+00 
1.0000000e+00 3.0000000e+00 -3.5000000e+00 
1.0000000e+00 3.0000000e+00 -3.0000000e+00 
1.0000000e+00 3.0000000e+00 -2.5000000e+00 
1.0000000e+00 3.0000000e+00 -2.0000000e+00 
1.0000000e+00 3.0000000e+00 -1.5000000e+00 
1.0000000e+00 3.0000000e+00 -1.0000000e+00 
1.0000000e+00 3.0000000e+00 -5.0000000e-01 
1.0000000e+00 3.0000000e+00 0.0000000e+00 
1.0000000e+00 3.0000000e+00 5.0000000e-01 
1.0000000e+00 3.0000000e+00 1.0000000e+00 
1.0000000e+00 3.0000000e+00 1.5000000e+00 
1.0000000e+00 3.0000000e+00 2.0000000e+00 
1.0000000e+00 3.0000000e+00 2.5000000e+00 
1.0000000e+00 3.0000000e+00 3.0000000e+00 
1.0000000e+00 3.0000000e+00 3.5000000e+00 
1.0000000e+00 3.0000000e+00 4.0000000e+00 
1.0000000e+00 3.0000000e+00 4.5000000e+00 
1.0000000e+00 3.0000000e+00 5.0000000e+00 
1.0000000e+00 3.0000000e+00 5.5000000e+00 
1.0000000e+00 3.0000000e+00 6.0000000e+00 
1.0000000e+00 3.0000000e+00 6.5000000e+00 
1.0000000e+00 3.0000000e+00 7.0000000e+00 
1.0000000e+00 3.0000000e+00 7.5000000e+00 
1.0000000e+00 3.0000000e+00 8.0000000e+00 
1.0000000e+00 3.0000000e+00 8.5000000e+00 
1.0000000e+00 3.0000000e+00 9.0000000e+00 
1.0000000e+00 3.0000000e+00 9.5000000e+00 
1.0000000e+00 3.0000000e+00 1.0000000e+01 
1.0000000e+00 3.0000000e+00 1.0500000e+01 
1.0000000e+00 3.0000000e+00 1.1000000e+01 
1.0000000e+00 3.0000000e+00 1.1500000e+01 
1.0000000e+00 3.0000000e+00 1.2000000e+01 
1.0000000e+00 3.0000000e+00 1.2500000e+01 
1.0000000e+00 3.0000000e+00 1.3000000e+01 
1.0000000e+00 3.0000000e+00 1.3500000e+01 
1.0000000e+00 3.0000000e+00 1.4000000e+01 
1.0000000e+00 3.0000000e+00 1.4500000e+01 
1.0000000e+00 3.0250001e+00 -5.0000000e+00 
1.0000000e+00 3.0250001e+00 -4.5000000e+00 
1.0000000e+00 3.0250001e+00 -4.0000000e+00 
1.0000000e+00 3.0250001e+00 -3.5000000e+00 
1.0000000e+00 3.0250001e+00 -3.0000000e+00 
1.0000000e+00 3.0250001e+00 -2.5000000e+00 
1.0000000e+00 3.0250001e+00 -2.0000000e+00 
1.0000000e+00 3.0250001e+00 -1.5000000e+00 
1.0000000e+00 3.0250001e+00 -1.0000000e+00 
1.0000000e+00 3.0250001e+00 -5.0000000e-01 
1.0000000e+00 3.0250001e+00 0.0000000e+00 
1.0000000e+00 3.0250001e+00 5.0000000e-01 
1.0000000e+00 3.0250001e+00 1.0000000e+00 
1.0000000e+00 3.0250001e+00 1.5000000e+00 
1.0000000e+00 3.0250001e+00 2.0000000e+00 
1.0000000e+00 3.0250001e+00 2.5000000e+00 
1.0000000e+00 3.0250001e+00 3.0000000e+00 
1.0000000e+00 3.0250001e+00 3.5000000e+00 
1.0000000e+00 3.0250001e+00 4.0000000e+00 
1.0000000e+00 3.0250001e+00 4.5000000e+00 
1.0000000e+00 3.0250001e+00 5.0000000e+00 
1.0000000e+00 3.0250001e+00 5.5000000e+00 
1.0000000e+00 3.0250001e+00 6.0000000e+00 
1.0000000e+00 3.0250001e+00 6.5000000e+00 
1.0000000e+00 3.0250001e+00 7.0000000e+00 
1.0000000e+00 3.0250001e+00 7.5000000e+00 
1.0000000e+00 3.0250001e+00 8.0000000e+00 
1.0000000e+00 3.0250001e+00 8.5000000e+00 
1.0000000e+00 3.0250001e+00 9.0000000e+00 
1.0000000e+00 3.0250001e+00 9.5000000e+00 
1.0000000e+00 3.0250001e+00 1.0000000e+01 
1.0000000e+00 3.0250001e+00 1.0500000e+01 
1.0000000e+00 3.0250001e+00 1.1000000e+01 
1.0000000e+00 3.0250001e+00 1.1500000e+01 
1.0000000e+00 3.0250001e+00 1.2000000e+01 
1.0000000e+00 3.0250001e+00 1.2500000e+01 
1.0000000e+00 3.0250001e+00 1.3000000e+01 
1.0000000e+00 3.0250001e+00 1.3500000e+01 
1.0000000e+00 3.0250001e+00 1.4000000e+01 
1.0000000e+00 3.0250001e+00 1.4500000e+01 
1.0000000e+00 -2.0000000e+00 -5.0000000e+00 
1.0000000e+00 -2.0000000e+00 -4.5000000e+00 
1.0000000e+00 -2.0000000e+00 -4.0000000e+00 
1.0000000e+00 -2.0000000e+00 -3.5000000e+00 
1.0000000e+00 -2.0000000e+00 -3.0000000e+00 
1.0000000e+00 -2.0000000e+00 -2.5000000e+00 
1.0000000e+00 -2.0000000e+00 -2.0000000e+00 
1.0000000e+00 -2.0000000e+00 -1.5000000e+00 
1.0000000e+00 -2.0000000e+00 -1.0000000e+00 
1.0000000e+00 -2.0000000e+00 -5.0000000e-01 
1.0000000e+00 -2.0000000e+00 1.0500000e+01 
1.0000000e+00 -2.0000000e+00 1.1000000e+01 
1.0000000e+00 -2.0000000e+00 1.1500000e+01 
1.0000000e+00 -2.0000000e+00 1.2000000e+01 
1.0000000e+00 -2.0000000e+00 1.2500000e+01 
1.0000000e+00 -2.0000000e+00 1.3000000e+01 
1.0000000e+00 -2.0000000e+00 1.3500000e+01 
1.0000000e+00 -2.0000000e+00 1.4000000e+01 
1.0000000e+00 -2.0000000e+00 1.4500000e+01 
1.0000000e+00 0.0000000e+00 0.0000000e+00 
2.0000000e+00 0.0000000e+00 0.0000000e+00 
3.0000000e+00 0.0000000e+00 0.0000000e+00 
4.0000000e+00 0.0000000e+00 0.0000000e+00 
5.0000000e+00 1.0000000e+00 0.0000000e+00 
5.0000000e+00 2.0000000e+00 0.0000000e+00 
0.0000000e+00 2.0000000e+00 0.0000000e+00 
0.0000000e+00 1.0000000e+00 0.0000000e+00 
0.0000000e+00 0.0000000e+00 1.0000000e+00 
0.0000000e+00 0.0000000e+00 2.0000000e+00 
0.0000000e+00 0.0000000e+00 3.0000000e+00 
0.0000000e+00 0.0000000e+00 4.0000000e+00 
0.0000000e+00 0.0000000e+00 5.0000000e+00 
0.0000000e+00 0.0000000e+00 6.0000000e+00 
0.0000000e+00 0.0000000e+00 7.0000000e+00 
0.0000000e+00 0.0000000e+00 8.0000000e+00 
0.0000000e+00 0.0000000e+00 9.0000000e+00 
5.0000000e+00 0.0000000e+00 1.0000000e+00 
5.0000000e+00 0.0000000e+00 2.0000000e+00 
5.0000000e+00 0.0000000e+00 3.0000000e+00 
5.0000000e+00 0.0000000e+00 4.0000000e+00 
5.0000000e+00 0.0000000e+00 5.0000000e+00 
5.0000000e+00 0.0000000e+00 6.0000000e+00 
5.0000000e+00 0.0000000e+00 7.0000000e+00 
5.0000000e+00 0.0000000e+00 8.0000000e+00 
5.0000000e+00 0.0000000e+00 9.0000000e+00 
1.0000000e+00 0.0000000e+00 1.0000000e+01 
2.0000000e+00 0.0000000e+00 1.0000000e+01 
3.0000000e+00 0.0000000e+00 1.0000000e+01 
4.0000000e+00 0.0000000e+00 1.0000000e+01 
5.0000000e+00 3.0000000e+00 1.0000000e+00 
5.0000000e+00 3.0000000e+00 2.0000000e+00 
5.0000000e+00 3.0000000e+00 3.0000000e+00 
5.0000000e+00 3.0000000e+00 4.0000000e+00 
5.0000000e+00 3.0000000e+00 5.0000000e+00 
5.0000000e+00 3.0000000e+00 6.0000000e+00 
5.0000000e+00 3.0000000e+00 7.0000000e+00 
5.0000000e+00 3.0000000e+00 8.0000000e+00 
5.0000000e+00 3.0000000e+00 9.0000000e+00 
5.0000000e+00 1.0000000e+00 1.0000000e+01 
5.0000000e+00 2.0000000e+00 1.0000000e+01 
0.0000000e+00 3.0000000e+00 1.0000000e+00 
0.0000000e+00 3.0000000e+00 2.0000000e+00 
0.0000000e+00 3.0000000e+00 3.0000000e+00 
0.0000000e+00 3.0000000e+00 4.0000000e+00 
0.0000000e+00 3.0000000e+00 5.0000000e+00 
0.0000000e+00 3.0000000e+00 6.0000000e+00 
0.0000000e+00 3.0000000e+00 7.0000000e+00 
0.0000000e+00 3.0000000e+00 8.0000000e+00 
0.0000000e+00 3.0000000e+00 9.0000000e+00 
0.0000000e+00 2.0000000e+00 1.0000000e+01 
0.0000000e+00 1.0000000e+00 1.0000000e+01 
4.0000000e+00 3.0000000e+00 0.0000000e+00 
3.0000000e+00 3.0000000e+00 0.0000000e+00 
2.0000000e+00 3.0000000e+00 0.0000000e+00 
4.0000000e+00 3.0000000e+00 1.0000000e+01 
3.0000000e+00 3.0000000e+00 1.0000000e+01 
2.0000000e+00 3.0000000e+00 1.0000000e+01 
4.0618000e+00 1.5000000e+00 0.0000000e+00 
1.5046000e+00 7.6549745e-01 0.0000000e+00 
2.5000000e+00 2.1339746e+00 0.0000000e+00 
1.5046000e+00 2.2345026e+00 0.0000000e+00 
2.4957771e+00 8.1560516e-01 0.0000000e+00 
3.4707544e+00 2.2336540e+00 0.0000000e+00 
3.4700506e+00 7.5794268e-01 0.0000000e+00 
8.6322361e-01 1.5000000e+00 0.0000000e+00 
2.0000000e+00 1.5000000e+00 0.0000000e+00 
2.9960666e+00 1.4974480e+00 0.0000000e+00 
4.2679491e+00 7.3205084e-01 0.0000000e+00 
4.2679491e+00 2.2679491e+00 0.0000000e+00 
7.2695929e-01 2.2730408e+00 0.0000000e+00 
7.2695929e-01 7.2695929e-01 0.0000000e+00 
4.1822505e+00 0.0000000e+00 2.5515697e+00 
4.2017918e+00 0.0000000e+00 4.4725966e+00 
4.1114569e+00 0.0000000e+00 6.5092020e+00 
8.6602539e-01 0.0000000e+00 3.5000000e+00 
8.4778279e-01 0.0000000e+00 5.4684029e+00 
8.9629614e-01 0.0000000e+00 7.5867257e+00 
2.5566745e+00 0.0000000e+00 8.1853306e-01 
2.4918270e+00 0.0000000e+00 9.1386929e+00 
8.4677207e-01 0.0000000e+00 1.5042374e+00 
4.0943027e+00 0.0000000e+00 8.4081745e+00 
8.6281651e-01 0.0000000e+00 2.5007062e+00 
1.7315160e+00 0.0000000e+00 3.0001178e+00 
1.7319617e+00 0.0000000e+00 4.0000196e+00 
2.5980761e+00 0.0000000e+00 3.5000000e+00 
2.5536871e+00 0.0000000e+00 4.4963923e+00 
2.5928419e+00 0.0000000e+00 2.4239938e+00 
1.5037409e+00 0.0000000e+00 9.1535149e+00 
1.8433737e+00 0.0000000e+00 8.1858873e+00 
3.0000000e+00 0.0000000e+00 8.2679491e+00 
2.5000000e+00 0.0000000e+00 7.4019237e+00 
3.5042722e+00 0.0000000e+00 7.4271150e+00 
3.0310018e+00 0.0000000e+00 6.5282087e+00 
2.0373929e+00 0.0000000e+00 6.5307913e+00 
3.4767809e+00 0.0000000e+00 5.8031492e+00 
2.5452602e+00 0.0000000e+00 5.5720768e+00 
1.6456656e+00 0.0000000e+00 1.9697139e+00 
8.6297011e-01 0.0000000e+00 4.4947371e+00 
1.0111579e+00 0.0000000e+00 6.5282545e+00 
3.4994321e+00 0.0000000e+00 8.4691072e-01 
4.1860156e+00 0.0000000e+00 3.5040276e+00 
1.7320508e+00 0.0000000e+00 5.0000000e+00 
4.0544066e+00 0.0000000e+00 1.5781221e+00 
1.5817389e+00 0.0000000e+00 9.3943578e-01 
8.3166349e-01 0.0000000e+00 8.5090933e+00 
3.4686174e+00 0.0000000e+00 9.1752682e+00 
3.0709300e+00 0.0000000e+00 1.5799091e+00 
3.3927374e+00 0.0000000e+00 3.0399952e+00 
3.3826034e+00 0.0000000e+00 3.9747651e+00 
4.3420062e+00 0.0000000e+00 7.4688983e+00 
3.4023225e+00 0.0000000e+00 4.9314723e+00 
1.6740381e+00 0.0000000e+00 7.3014426e+00 
4.2715640e+00 0.0000000e+00 5.4758859e+00 
1.6225953e+00 0.0000000e+00 5.8104177e+00 
4.2679491e+00 0.0000000e+00 9.2679491e+00 
7.3205084e-01 0.0000000e+00 7.3205084e-01 
4.2679491e+00 0.0000000e+00 7.3205084e-01 
7.3205084e-01 0.0000000e+00 9.2679491e+00 
3.4586334e+00 0.0000000e+00 2.2347178e+00 
2.2895701e+00 0.0000000e+00 1.5463171e+00 
5.0000000e+00 2.2345026e+00 1.5046000e+00 
[...]
POINT_DATA 460
FIELD FieldData 2
DISPLACEMENT 3 460  float
0.0000000e+00 0.0000000e+00 0.0000000e+00 
0.0000000e+00 0.0000000e+00 0.0000000e+00 
0.0000000e+00 -5.4281446e-10 0.0000000e+00 
0.0000000e+00 -2.8320485e-10 0.0000000e+00 
0.0000000e+00 0.0000000e+00 0.0000000e+00 
0.0000000e+00 0.0000000e+00 0.0000000e+00 
0.0000000e+00 -5.6409010e-07 0.0000000e+00 
0.0000000e+00 -1.4999196e-05 0.0000000e+00 
0.0000000e+00 -3.5598442e-09 0.0000000e+00 
0.0000000e+00 -3.5148855e-09 0.0000000e+00 
0.0000000e+00 -3.3686356e-09 0.0000000e+00 
0.0000000e+00 -3.1283209e-09 0.0000000e+00 
0.0000000e+00 -2.8121572e-09 0.0000000e+00 
0.0000000e+00 -2.4417000e-09 0.0000000e+00 
0.0000000e+00 -2.0463089e-09 0.0000000e+00 
0.0000000e+00 -1.6602099e-09 0.0000000e+00 
0.0000000e+00 -1.3107446e-09 0.0000000e+00 
0.0000000e+00 -1.0056864e-09 0.0000000e+00 
0.0000000e+00 -7.2256445e-10 0.0000000e+00 
-1.8890129e-11 -3.8162187e-10 -1.0571337e-09 
4.7202634e-11 3.0080505e-10 -2.6338474e-09 
2.4259707e-11 1.6345858e-09 -3.8469210e-09 
-3.6180555e-11 4.1593049e-09 -6.1992482e-09 
1.7289414e-10 8.2343439e-09 -8.9519752e-09 
2.3258184e-10 1.3887628e-08 -1.2498567e-08 
2.4693686e-10 1.9929791e-08 -1.7306117e-08 
2.5807072e-09 2.2820261e-08 -2.6456917e-08 
1.1694862e-10 1.8543556e-08 -3.0826115e-08 
4.6656532e-09 8.3992999e-09 -4.6725717e-08 
1.9125778e-08 1.9377717e-08 -6.2123583e-08 
1.4727736e-08 1.4399703e-07 -5.5467339e-08 
3.1070089e-09 5.8114665e-07 -4.8293998e-08 
-1.3583558e-07 1.6864049e-06 -9.9543179e-08 
-3.2401735e-07 3.8099536e-06 4.7758977e-07 
-4.7633503e-07 6.6994089e-06 1.2824310e-06 
-1.1187467e-06 7.9068859e-06 3.3077606e-06 
-8.8162835e-07 6.3290614e-08 3.6561303e-06 
-1.7096962e-06 -3.1484677e-05 -5.6155704e-06 
0.0000000e+00 -1.0828140e-04 0.0000000e+00 
0.0000000e+00 -2.5870628e-04 0.0000000e+00 
0.0000000e+00 -4.5424132e-04 0.0000000e+00 
0.0000000e+00 -6.2819675e-04 0.0000000e+00 
0.0000000e+00 -6.6180975e-04 0.0000000e+00 
0.0000000e+00 -5.2827928e-04 0.0000000e+00 
0.0000000e+00 -3.4338696e-04 0.0000000e+00 
0.0000000e+00 -1.8095932e-04 0.0000000e+00 
0.0000000e+00 -7.5037802e-05 0.0000000e+00 
0.0000000e+00 -3.8571943e-05 0.0000000e+00 
0.0000000e+00 -3.4183449e-09 0.0000000e+00 
0.0000000e+00 -3.4094592e-09 0.0000000e+00 
0.0000000e+00 -3.3491951e-09 0.0000000e+00 
0.0000000e+00 -3.1498577e-09 0.0000000e+00 
0.0000000e+00 -2.8242770e-09 0.0000000e+00 
0.0000000e+00 -2.4408244e-09 0.0000000e+00 
0.0000000e+00 -2.0448412e-09 0.0000000e+00 
0.0000000e+00 -1.6619986e-09 0.0000000e+00 
0.0000000e+00 -1.3135709e-09 0.0000000e+00 
0.0000000e+00 -1.0080531e-09 0.0000000e+00 
0.0000000e+00 -7.2671130e-10 0.0000000e+00 
0.0000000e+00 -3.8121156e-10 0.0000000e+00 
0.0000000e+00 2.9211095e-10 0.0000000e+00 
0.0000000e+00 1.6373628e-09 0.0000000e+00 
0.0000000e+00 4.1619845e-09 0.0000000e+00 
0.0000000e+00 8.2640970e-09 0.0000000e+00 
0.0000000e+00 1.3960331e-08 0.0000000e+00 
0.0000000e+00 1.9964356e-08 0.0000000e+00 
0.0000000e+00 2.2747383e-08 0.0000000e+00 
0.0000000e+00 1.7889905e-08 0.0000000e+00 
0.0000000e+00 6.5237979e-09 0.0000000e+00 
0.0000000e+00 1.6041332e-08 0.0000000e+00 
0.0000000e+00 1.3786345e-07 0.0000000e+00 
0.0000000e+00 5.7748167e-07 0.0000000e+00 
0.0000000e+00 1.6968066e-06 0.0000000e+00 
0.0000000e+00 3.8676640e-06 0.0000000e+00 
0.0000000e+00 6.8455233e-06 0.0000000e+00 
0.0000000e+00 8.1275903e-06 0.0000000e+00 
0.0000000e+00 3.6341845e-07 0.0000000e+00 
0.0000000e+00 -3.1051950e-05 0.0000000e+00 
0.0000000e+00 -1.1010691e-04 0.0000000e+00 
0.0000000e+00 -2.5974252e-04 0.0000000e+00 
0.0000000e+00 -4.5605592e-04 0.0000000e+00 
0.0000000e+00 -6.3069846e-04 0.0000000e+00 
0.0000000e+00 -6.6444377e-04 0.0000000e+00 
0.0000000e+00 -5.3038908e-04 0.0000000e+00 
0.0000000e+00 -3.4476235e-04 0.0000000e+00 
0.0000000e+00 -1.8168702e-04 0.0000000e+00 
0.0000000e+00 -7.5342308e-05 0.0000000e+00 
0.0000000e+00 -3.8730599e-05 0.0000000e+00 
0.0000000e+00 0.0000000e+00 0.0000000e+00 
0.0000000e+00 0.0000000e+00 0.0000000e+00 
0.0000000e+00 0.0000000e+00 0.0000000e+00 
0.0000000e+00 0.0000000e+00 0.0000000e+00 
0.0000000e+00 0.0000000e+00 0.0000000e+00 
0.0000000e+00 0.0000000e+00 0.0000000e+00 
0.0000000e+00 0.0000000e+00 0.0000000e+00 
0.0000000e+00 0.0000000e+00 0.0000000e+00 
0.0000000e+00 0.0000000e+00 0.0000000e+00 
0.0000000e+00 0.0000000e+00 0.0000000e+00 
0.0000000e+00 0.0000000e+00 0.0000000e+00 
0.0000000e+00 0.0000000e+00 0.0000000e+00 
0.0000000e+00 0.0000000e+00 0.0000000e+00 
0.0000000e+00 0.0000000e+00 0.0000000e+00 
0.0000000e+00 0.0000000e+00 0.0000000e+00 
0.0000000e+00 0.0000000e+00 0.0000000e+00 
0.0000000e+00 0.0000000e+00 0.0000000e+00 
0.0000000e+00 0.0000000e+00 0.0000000e+00 
0.0000000e+00 0.0000000e+00 0.0000000e+00 
0.0000000e+00 0.0000000e+00 0.0000000e+00 
0.0000000e+00 0.0000000e+00 0.0000000e+00 
0.0000000e+00 0.0000000e+00 0.0000000e+00 
0.0000000e+00 0.0000000e+00 0.0000000e+00 
0.0000000e+00 -2.4229027e-10 0.0000000e+00 
0.0000000e+00 -4.7679521e-10 0.0000000e+00 
0.0000000e+00 -2.6140337e-10 0.0000000e+00 
0.0000000e+00 -1.2472862e-10 0.0000000e+00 
0.0000000e+00 0.0000000e+00 0.0000000e+00 
0.0000000e+00 0.0000000e+00 0.0000000e+00 
0.0000000e+00 0.0000000e+00 0.0000000e+00 
0.0000000e+00 0.0000000e+00 0.0000000e+00 
0.0000000e+00 0.0000000e+00 0.0000000e+00 
0.0000000e+00 0.0000000e+00 0.0000000e+00 
0.0000000e+00 0.0000000e+00 0.0000000e+00 
0.0000000e+00 0.0000000e+00 0.0000000e+00 
0.0000000e+00 0.0000000e+00 0.0000000e+00 
0.0000000e+00 0.0000000e+00 0.0000000e+00 
0.0000000e+00 0.0000000e+00 0.0000000e+00 
0.0000000e+00 0.0000000e+00 0.0000000e+00 
0.0000000e+00 0.0000000e+00 0.0000000e+00 
0.0000000e+00 0.0000000e+00 0.0000000e+00 
0.0000000e+00 0.0000000e+00 0.0000000e+00 
0.0000000e+00 0.0000000e+00 0.0000000e+00 
0.0000000e+00 0.0000000e+00 0.0000000e+00 
0.0000000e+00 0.0000000e+00 0.0000000e+00 
0.0000000e+00 0.0000000e+00 0.0000000e+00 
0.0000000e+00 0.0000000e+00 0.0000000e+00 
0.0000000e+00 0.0000000e+00 0.0000000e+00 
0.0000000e+00 0.0000000e+00 0.0000000e+00 
0.0000000e+00 -4.2697068e-11 0.0000000e+00 
0.0000000e+00 1.4843203e-09 0.0000000e+00 
0.0000000e+00 6.4780465e-09 0.0000000e+00 
0.0000000e+00 1.6219774e-08 0.0000000e+00 
0.0000000e+00 3.0573940e-08 0.0000000e+00 
0.0000000e+00 4.1700634e-08 0.0000000e+00 
0.0000000e+00 -2.9691225e-08 0.0000000e+00 
0.0000000e+00 -1.5508957e-07 0.0000000e+00 
0.0000000e+00 -4.7461148e-07 0.0000000e+00 
0.0000000e+00 -2.9456507e-07 0.0000000e+00 
0.0000000e+00 -5.1615405e-07 0.0000000e+00 
0.0000000e+00 4.8929483e-10 0.0000000e+00 
0.0000000e+00 3.6109788e-09 0.0000000e+00 
0.0000000e+00 1.1904730e-08 0.0000000e+00 
0.0000000e+00 3.0425003e-08 0.0000000e+00 
0.0000000e+00 8.3137614e-08 0.0000000e+00 
0.0000000e+00 2.3071627e-07 0.0000000e+00 
0.0000000e+00 9.2038869e-07 0.0000000e+00 
0.0000000e+00 2.4461986e-07 0.0000000e+00 
0.0000000e+00 -8.1072067e-06 0.0000000e+00 
0.0000000e+00 -1.5215380e-05 0.0000000e+00 
0.0000000e+00 -7.7562736e-06 0.0000000e+00 
0.0000000e+00 -5.9469202e-10 0.0000000e+00 
0.0000000e+00 -4.6690057e-10 0.0000000e+00 
0.0000000e+00 -3.0341762e-10 0.0000000e+00 
0.0000000e+00 -9.7198222e-07 0.0000000e+00 
0.0000000e+00 -2.6548030e-06 0.0000000e+00 
0.0000000e+00 -7.0049355e-06 0.0000000e+00 
0.0000000e+00 -6.9952111e-10 0.0000000e+00 
0.0000000e+00 -2.6076652e-10 0.0000000e+00 
0.0000000e+00 -9.9902642e-10 0.0000000e+00 
0.0000000e+00 -8.0484536e-10 0.0000000e+00 
0.0000000e+00 -4.4139026e-10 0.0000000e+00 
0.0000000e+00 -9.7962627e-10 0.0000000e+00 
0.0000000e+00 -2.2968556e-10 0.0000000e+00 
0.0000000e+00 -5.5519778e-10 0.0000000e+00 
0.0000000e+00 -8.2555829e-10 0.0000000e+00 
0.0000000e+00 -7.2285489e-10 0.0000000e+00 
0.0000000e+00 -3.2675693e-10 0.0000000e+00 
0.0000000e+00 -7.6827916e-10 0.0000000e+00 
0.0000000e+00 -6.1003524e-10 0.0000000e+00 
0.0000000e+00 -2.1756988e-10 0.0000000e+00 
0.0000000e+00 0.0000000e+00 0.0000000e+00 
0.0000000e+00 0.0000000e+00 0.0000000e+00 
0.0000000e+00 0.0000000e+00 0.0000000e+00 
0.0000000e+00 0.0000000e+00 0.0000000e+00 
0.0000000e+00 0.0000000e+00 0.0000000e+00 
0.0000000e+00 0.0000000e+00 0.0000000e+00 
0.0000000e+00 0.0000000e+00 0.0000000e+00 
0.0000000e+00 0.0000000e+00 0.0000000e+00 
0.0000000e+00 0.0000000e+00 0.0000000e+00 
0.0000000e+00 0.0000000e+00 0.0000000e+00 
0.0000000e+00 0.0000000e+00 0.0000000e+00 
0.0000000e+00 0.0000000e+00 0.0000000e+00 
0.0000000e+00 0.0000000e+00 0.0000000e+00 
0.0000000e+00 0.0000000e+00 0.0000000e+00 
0.0000000e+00 0.0000000e+00 0.0000000e+00 
0.0000000e+00 0.0000000e+00 0.0000000e+00 
0.0000000e+00 0.0000000e+00 0.0000000e+00 
0.0000000e+00 0.0000000e+00 0.0000000e+00 
0.0000000e+00 0.0000000e+00 0.0000000e+00 
0.0000000e+00 0.0000000e+00 0.0000000e+00 
0.0000000e+00 0.0000000e+00 0.0000000e+00 
0.0000000e+00 0.0000000e+00 0.0000000e+00 
0.0000000e+00 0.0000000e+00 0.0000000e+00 
0.0000000e+00 0.0000000e+00 0.0000000e+00 
0.0000000e+00 0.0000000e+00 0.0000000e+00 
0.0000000e+00 0.0000000e+00 0.0000000e+00 
0.0000000e+00 0.0000000e+00 0.0000000e+00 
0.0000000e+00 0.0000000e+00 0.0000000e+00 
0.0000000e+00 0.0000000e+00 0.0000000e+00 
0.0000000e+00 0.0000000e+00 0.0000000e+00 
0.0000000e+00 0.0000000e+00 0.0000000e+00 
0.0000000e+00 0.0000000e+00 0.0000000e+00 
0.0000000e+00 0.0000000e+00 0.0000000e+00 
0.0000000e+00 0.0000000e+00 0.0000000e+00 
0.0000000e+00 0.0000000e+00 0.0000000e+00 
0.0000000e+00 0.0000000e+00 0.0000000e+00 
0.0000000e+00 0.0000000e+00 0.0000000e+00 
0.0000000e+00 0.0000000e+00 0.0000000e+00 
0.0000000e+00 0.0000000e+00 0.0000000e+00 
0.0000000e+00 0.0000000e+00 0.0000000e+00 
0.0000000e+00 0.0000000e+00 0.0000000e+00 
0.0000000e+00 0.0000000e+00 0.0000000e+00 
0.0000000e+00 0.0000000e+00 0.0000000e+00 
0.0000000e+00 0.0000000e+00 0.0000000e+00 
0.0000000e+00 0.0000000e+00 0.0000000e+00 
0.0000000e+00 0.0000000e+00 0.0000000e+00 
0.0000000e+00 0.0000000e+00 0.0000000e+00 
0.0000000e+00 0.0000000e+00 0.0000000e+00 
0.0000000e+00 0.0000000e+00 0.0000000e+00 
0.0000000e+00 3.5560685e-10 0.0000000e+00 
0.0000000e+00 -2.9237142e-07 0.0000000e+00 
0.0000000e+00 8.9272190e-09 0.0000000e+00 
0.0000000e+00 3.5478642e-08 0.0000000e+00 
0.0000000e+00 -7.6736619e-08 0.0000000e+00 
0.0000000e+00 1.3674260e-09 0.0000000e+00 
0.0000000e+00 9.2269836e-09 0.0000000e+00 
0.0000000e+00 1.1794504e-08 0.0000000e+00 
0.0000000e+00 4.6475490e-09 0.0000000e+00 
0.0000000e+00 1.4204964e-08 0.0000000e+00 
0.0000000e+00 2.4897062e-09 0.0000000e+00 
0.0000000e+00 2.0022522e-08 0.0000000e+00 
0.0000000e+00 4.2577295e-08 0.0000000e+00 
0.0000000e+00 -3.0930934e-08 0.0000000e+00 
0.0000000e+00 2.5581315e-10 0.0000000e+00 
0.0000000e+00 -1.2104645e-07 0.0000000e+00 
0.0000000e+00 -1.8882335e-07 0.0000000e+00 
0.0000000e+00 -1.6360484e-10 0.0000000e+00 
0.0000000e+00 2.1775289e-08 0.0000000e+00 
0.0000000e+00 1.7564579e-08 0.0000000e+00 
0.0000000e+00 8.8422147e-10 0.0000000e+00 
0.0000000e+00 3.2748922e-08 0.0000000e+00 
0.0000000e+00 1.0922027e-08 0.0000000e+00 
0.0000000e+00 4.3925281e-09 0.0000000e+00 
0.0000000e+00 -8.9477034e-08 0.0000000e+00 
0.0000000e+00 -4.0009934e-07 0.0000000e+00 
0.0000000e+00 -1.4945113e-07 0.0000000e+00 
0.0000000e+00 -2.9949698e-10 0.0000000e+00 
0.0000000e+00 -5.5031150e-11 0.0000000e+00 
0.0000000e+00 -5.7277716e-06 0.0000000e+00 
0.0000000e+00 2.4563007e-10 0.0000000e+00 
0.0000000e+00 2.6116866e-09 0.0000000e+00 
0.0000000e+00 2.4305194e-08 0.0000000e+00 
0.0000000e+00 -2.1111126e-07 0.0000000e+00 
0.0000000e+00 1.7162707e-08 0.0000000e+00 
0.0000000e+00 1.3472511e-07 0.0000000e+00 
0.0000000e+00 1.0116818e-07 0.0000000e+00 
0.0000000e+00 8.0306561e-09 0.0000000e+00 
0.0000000e+00 5.7095670e-09 0.0000000e+00 
0.0000000e+00 4.7666102e-08 0.0000000e+00 
0.0000000e+00 3.9196451e-07 0.0000000e+00 
0.0000000e+00 1.8666341e-07 0.0000000e+00 
0.0000000e+00 -2.6809626e-06 0.0000000e+00 
0.0000000e+00 1.4207340e-09 0.0000000e+00 
0.0000000e+00 8.2887469e-10 0.0000000e+00 
0.0000000e+00 -1.2699323e-06 0.0000000e+00 
0.0000000e+00 6.8384374e-08 0.0000000e+00 
0.0000000e+00 9.2428053e-08 0.0000000e+00 
0.0000000e+00 2.4495202e-08 0.0000000e+00 
0.0000000e+00 7.9262090e-09 0.0000000e+00 
0.0000000e+00 1.9987702e-07 0.0000000e+00 
0.0000000e+00 6.3607793e-08 0.0000000e+00 
0.0000000e+00 -8.2601520e-07 0.0000000e+00 
0.0000000e+00 2.2514703e-09 0.0000000e+00 
0.0000000e+00 -2.8382062e-06 0.0000000e+00 
0.0000000e+00 1.8526384e-11 0.0000000e+00 
0.0000000e+00 1.8832451e-10 0.0000000e+00 
0.0000000e+00 -1.1370411e-05 0.0000000e+00 
0.0000000e+00 -4.2142519e-06 0.0000000e+00 
0.0000000e+00 -6.4959443e-07 0.0000000e+00 
0.0000000e+00 -4.7226536e-06 0.0000000e+00 
0.0000000e+00 -2.2017364e-05 0.0000000e+00 
0.0000000e+00 -2.1612057e-06 0.0000000e+00 
0.0000000e+00 -1.7919817e-06 0.0000000e+00 
0.0000000e+00 -8.7901157e-07 0.0000000e+00 
0.0000000e+00 -1.6106957e-05 0.0000000e+00 
0.0000000e+00 -7.5852345e-06 0.0000000e+00 
0.0000000e+00 -2.2607294e-06 0.0000000e+00 
0.0000000e+00 -3.5677971e-07 0.0000000e+00 
0.0000000e+00 -7.6734455e-07 0.0000000e+00 
0.0000000e+00 -3.1918840e-05 0.0000000e+00 
0.0000000e+00 -6.7618539e-06 0.0000000e+00 
7.3148314e-09 5.6922286e-08 -4.2280554e-08 
4.3261458e-08 3.7916459e-07 -1.8959613e-08 
-1.9524543e-07 1.9463753e-06 8.3664344e-07 
8.6700380e-10 5.3087779e-09 -9.0156602e-09 
1.5008810e-09 1.4497552e-08 -1.7420456e-08 
2.4665852e-09 5.1322907e-08 1.7063487e-08 
1.6456005e-09 4.1216053e-09 -3.9885104e-09 
-7.7550396e-08 -5.8567938e-08 1.9141902e-07 
1.9281450e-10 6.3009548e-10 -3.5802969e-09 
-1.0297300e-06 -2.3450830e-06 3.2032399e-06 
5.7383220e-10 -2.2398115e-10 -2.1118818e-09 
-6.5641524e-07 -1.4597555e-06 3.8413447e-07 
-2.4701942e-08 3.4354926e-08 1.0802456e-07 
-5.5305776e-08 6.7019734e-08 2.8405191e-07 
-2.5777379e-07 -3.7705527e-07 6.7119970e-07 
-1.4478994e-07 3.2182914e-08 4.4039018e-07 
2.6723141e-09 1.5977541e-07 1.7211754e-07 
-4.7146025e-07 -1.0557072e-06 9.1982014e-07 
4.5597638e-08 5.8606554e-07 2.9664804e-07 
2.5159219e-08 9.5348980e-08 1.0838346e-07 
1.1373242e-08 6.5146146e-08 2.4070545e-08 
3.3788897e-08 1.1108142e-07 3.2519431e-08 
2.3262020e-08 7.1932121e-08 -1.5001751e-08 
1.0862458e-08 4.2857611e-08 -9.8784909e-09 
9.3897174e-09 3.4745174e-08 -1.9086361e-08 
6.5694135e-09 1.9573807e-08 -1.1211259e-08 
4.0640287e-09 1.6261533e-08 -1.5248276e-08 
3.3538776e-09 9.8497566e-09 -1.0391644e-08 
2.8060740e-09 6.9047177e-09 -1.1461859e-08 
2.2169304e-09 3.9965977e-09 -7.5360242e-09 
1.2360369e-09 1.9280928e-09 -6.6335604e-09 
3.1518294e-08 1.2002698e-07 -3.3474887e-08 
4.0769642e-08 2.0455995e-07 1.3537729e-08 
5.0575153e-09 2.3229951e-08 -2.2622306e-08 
3.8848156e-09 1.2527614e-08 -5.6989125e-09 
-9.9779265e-07 -3.1728941e-06 7.9863196e-07 
1.2980173e-08 5.0820475e-08 -2.7479482e-08 
5.5981695e-09 3.0713487e-08 5.7674882e-10 
5.4137128e-10 -4.0478290e-10 -2.5168834e-09 
-3.1571730e-07 -4.5171714e-07 3.2144175e-07 
-3.2812368e-09 4.7697972e-07 7.9164340e-07 
-2.1868753e-07 -5.8256666e-07 1.1080650e-06 
3.1524994e-08 1.8313645e-07 -3.9082696e-08 
8.8319219e-10 5.5845589e-10 -1.9907083e-09 
1.0390946e-09 8.8614511e-09 -1.2311262e-08 
2.5421736e-09 1.1300148e-08 -1.4894195e-08 
2.7784623e-09 2.1704825e-08 -2.3908271e-08 
7.3477504e-09 3.3650178e-08 -3.5149736e-08 
3.9498445e-08 7.7809932e-07 1.1540072e-07 
6.9096679e-08 1.2894607e-06 4.7895134e-07 
1.5292005e-10 -3.3308242e-10 -1.7380852e-09 
5.1264765e-10 2.3591715e-09 -5.6605125e-09 
-3.3311778e-07 -1.1005202e-05 2.0111427e-06 
1.1341162e-09 5.1781573e-10 -4.0335624e-09 
1.7049396e-09 6.1335443e-09 -1.0606715e-08 
-1.2067278e-07 5.9208145e-07 2.0479945e-06 
5.7689807e-08 3.4274990e-07 1.1682450e-07 
6.8801836e-10 1.1780248e-09 -4.8095452e-09 
1.4818391e-08 9.6627261e-08 -4.7063079e-08 
-5.9475553e-07 -1.0346431e-06 7.8908550e-07 
-3.0975937e-07 -7.0702055e-07 1.9394477e-07 
3.9206535e-10 -4.0773177e-10 -1.0376003e-09 
7.9839646e-09 2.4436627e-08 -8.9720249e-09 
1.1140562e-09 2.6741087e-09 -7.1035551e-09 
-9.1686127e-07 -3.6744177e-06 1.9537988e-06 
3.7397232e-08 1.8187842e-07 9.9636608e-08 
1.3912187e-09 1.9432775e-09 -4.6726645e-09 
3.0678695e-09 7.7515034e-09 -7.6144016e-09 
3.6677392e-10 -1.5164504e-10 -2.5943725e-09 
1.3663876e-08 7.7259152e-08 -3.7486032e-08 
-1.4756238e-06 -6.2250733e-06 1.9695999e-06 
-1.0335700e-10 5.1426037e-09 -5.2483751e-09 
-1.8043514e-10 2.9025227e-09 -3.7759098e-09 
-3.5753295e-10 9.9865174e-09 -7.4520008e-09 
-2.9311475e-10 1.5462422e-08 -9.1404173e-09 
-5.3732522e-11 9.9351150e-10 -2.4421591e-09 
-4.6327644e-10 2.3687905e-08 -1.1604374e-08 
3.2246436e-10 3.6806384e-08 -1.7423700e-08 
4.4008167e-10 6.0390974e-08 -2.2936343e-08 
-6.5664807e-09 1.0354206e-07 -3.5635512e-08 
-1.5202303e-08 2.2041499e-07 -2.4042430e-08 
-3.3461728e-08 4.3184988e-07 -2.6565155e-09 
-4.0680359e-08 8.6699640e-07 8.7053898e-08 
-1.5691846e-08 1.5748074e-06 4.7567767e-07 
4.6276547e-08 2.3190125e-06 9.7611019e-07 
-1.6304645e-07 5.0436665e-07 1.9259519e-06 
-8.4941910e-08 -4.1408721e-06 2.2034005e-06 
-1.2647523e-06 -1.8179087e-05 1.3134205e-06 
-1.2902483e-10 3.0163740e-12 -1.1609891e-09 
1.8025700e-10 1.8505484e-09 4.0813769e-10 
2.9083530e-10 1.3380148e-08 2.2894269e-09 
-1.4914171e-08 1.2362632e-07 -3.2234826e-09 
-6.2721554e-08 2.2888618e-07 -2.1255855e-07 
1.7875462e-07 -1.8755724e-06 -1.4679148e-06 
-1.0614521e-10 3.5026708e-09 1.7823544e-09 
-2.3665261e-09 2.1322389e-08 2.2917406e-09 
-2.7211703e-08 1.3090805e-07 -6.5099634e-08 
-6.6350714e-10 4.1400725e-08 -5.2701976e-09 
2.0620362e-10 7.0762156e-09 -3.4218284e-09 
8.1341697e-11 2.8046471e-10 -9.6749442e-10 
1.0753156e-07 -5.9564783e-08 -4.0290635e-07 
2.8998151e-10 -1.5678041e-10 -2.4860847e-10 
-2.6136716e-08 3.9849817e-07 3.1997867e-08 
-2.5070594e-08 1.3325398e-06 -3.6619278e-07 
1.0544477e-10 1.9578051e-08 -7.1807333e-09 
1.0328011e-09 4.3388606e-08 -7.2701102e-11 
7.4509221e-10 5.4394080e-09 -9.8526265e-10 
-4.7211041e-10 1.1161509e-07 -5.5500098e-09 
-4.7103756e-09 3.1232744e-08 7.7058733e-09 
2.3729426e-11 2.8086020e-09 -2.9777210e-09 
-5.1655800e-09 3.5602266e-08 -9.6695150e-09 
4.9323205e-07 -3.5258470e-06 -2.2726597e-06 
-8.6750891e-11 3.7815373e-10 7.7403589e-10 
1.6554712e-07 -6.3991126e-07 -1.4805552e-07 
-1.4903595e-12 4.4663744e-09 2.4712958e-09 
-1.1841325e-08 5.4873247e-08 -1.4478768e-08 
-1.2371693e-10 1.6543312e-09 1.5235181e-09 
-8.4282303e-10 5.7808420e-09 2.7963156e-09 
1.6395223e-09 1.4081121e-08 -2.3455147e-09 
5.8929572e-09 4.3699487e-08 -2.0730020e-08 
-7.8171141e-08 2.3983023e-07 -7.8890023e-09 
-1.0838808e-07 1.0662008e-06 6.1395966e-08 
-1.0112798e-08 1.6001690e-07 5.9194871e-09 
3.4237033e-07 -1.4157406e-06 -4.8712116e-07 
-2.0816624e-07 -8.2341003e-08 -3.0418573e-07 
9.3761617e-11 1.2240128e-10 5.5285465e-10 
1.3794235e-10 8.6596854e-09 1.3311982e-09 
1.0351822e-10 3.4367748e-10 5.9978411e-10 
-6.6236305e-09 1.6210404e-07 -5.3064351e-08 
-8.6614199e-10 1.6474139e-08 4.3830268e-09 
2.7254214e-07 -3.8693192e-06 -4.2582025e-07 
-7.0200677e-08 -7.9102904e-08 -8.3996673e-07 
2.9270395e-09 2.2449669e-08 -9.2122017e-09 
3.5885789e-10 2.5981156e-10 -1.6253489e-09 
-2.9046556e-09 7.2860963e-08 -1.2484945e-10 
-6.0626199e-10 3.3880792e-09 1.9003965e-09 
8.9297401e-08 -1.1672942e-07 -4.5695705e-07 
7.3133177e-10 1.4760715e-09 -1.5941655e-09 
-3.7959551e-09 5.1746120e-08 8.5496135e-09 
3.5845951e-10 1.7922921e-09 -2.0210220e-10 
4.5881951e-08 -2.9682287e-08 -1.5900643e-07 
-7.7020914e-08 -7.5742673e-07 -2.5843977e-07 
-1.9523881e-08 2.8876192e-07 2.2678629e-08 
-5.1227205e-09 1.5445019e-07 1.8522972e-08 
-2.8246195e-08 8.4396213e-08 -6.7122549e-08 
3.0808366e-07 -2.8485779e-06 -1.8077508e-06 
2.9178002e-10 -5.0022891e-10 -3.3391276e-10 
9.9525344e-10 2.0656172e-08 9.9332820e-10 
-1.4479110e-09 8.2863894e-09 5.3130411e-10 
-7.0120438e-09 7.2715387e-08 1.0953436e-08 
6.2809198e-09 3.5089410e-08 -5.3319329e-08 
7.4721979e-10 2.8946274e-09 -3.6715777e-09 
-5.8008780e-08 1.4527577e-06 -2.3854324e-07 
-3.2918162e-09 1.6173665e-08 3.1060485e-09 
-3.3022378e-08 -1.3819817e-07 6.4149013e-08 