# vtk DataFile Version 4.0
vtk output
ASCII
DATASET UNSTRUCTURED_GRID
POINTS 460 float
0.0000000e+00 0.0000000e+00 0.0000000e+00 
5.0000000e+00 0.0000000e+00 0.0000000e+00 
5.0000000e+00 3.0000000e+00 0.0000000e+00 
0.0000000e+00 3.0000000e+00 0.0000000e+00 
0.0000000e+00 0.0000000e+00 1.0000000e+01 
5.0000000e+00 0.0000000e+00 1.0000000e+01 
5.0000000e+00 3.0000000e+00 1.0000000e+01 
0.0000000e+00 3.0000000e+00 1.0000000e+01 
1.0000000e+00 3.0000000e+00 -5.0000000e+00 
1.0000000e+00 3.0000000e+00 -4.5000000e+00 
1.0000000e+00 3.0000000e+00 -4.0000000e+00 
1.0000000e+00 3.0000000e+00 -3.5000000e+00 
1.0000000e+00 3.0000000e+00 -3.0000000e+00 
1.0000000e+00 3.0000000e+00 -2.5000000e+00 
1.0000000e+00 3.0000000e+00 -2.0000000e+00 
1.0000000e+00 3.0000000e+00 -1.5000000e+00 
1.0000000e+00 3.0000000e+00 -1.0000000e+00 
1.0000000e+00 3.0000000e+00 -5.0000000e-01 
1.0000000e+00 3.0000000e+00 0.0000000e+00 
1.0000000e+00 3.0000000e+00 5.0000000e-01 
1.0000000e+00 3.0000000e+00 1.0000000e+00 
1.0000000e+00 3.0000000e+00 1.5000000e+00 
1.0000000e+00 3.0000000e+00 2.0000000e+00 
1.0000000e+00 3.0000000e+00 2.5000000e+00 
1.0000000e+00 3.0000000e+00 3.0000000e+00 
1.0000000e+00 3.0000000e+00 3.5000000e+00 
1.0000000e+00 3.0000000e+00 4.0000000e+00 
1.0000000e+00 3.0000000e+00 4.5000000e+00 
1.0000000e+00 3.0000000e+00 5.0000000e+00 
1.0000000e+00 3.0000000e+00 5.5000000e+00 
1.0000000e+00 3.0000000e+00 6.0000000e+00 
1.0000000e+00 3.0000000e+00 6.5000000e+00 
1.0000000e+00 3.0000000e+00 7.0000000e+00 
1.0000000e+00 3.0000000e+00 7.5000000e+00 
1.0000000e+00 3.0000000e+00 8.0000000e+00 
1.0000000e+00 3.0000000e+00 8.5000000e+00 
1.0000000e+00 3.0000000e+00 9.0000000e+00 
1.0000000e+00 3.0000000e+00 9.5000000e+00 
1.0000000e+00 3.0000000e+00 1.0000000e+01 
1.0000000e+00 3.0000000e+00 1.0500000e+01 
1.0000000e+00 3.0000000e+00 1.1000000e+01 
1.0000000e+00 3.0000000e+00 1.1500000e+01 
1.0000000e+00 3.0000000e+00 1.2000000e+01 
1.0000000e+00 3.0000000e+00 1.2500000e+01 
1.0000000e+00 3.0000000e+00 1.3000000e+01 
1.0000000e+00 3.0000000e+00 1.3500000e+01 
1.0000000e+00 3.0000000e+00 1.4000000e+01 
1.0000000e+00 3.0000000e+00 1.4500000e+01 
1.0000000e+00 3.0250001e+00 -5.0000000e+00 
1.0000000e+00 3.0250001e+00 -4.5000000e+00 
1.0000000e+00 3.0250001e+00 -4.0000000e+00 
1.0000000e+00 3.0250001e+00 -3.5000000e+00 
1.0000000e+00 3.0250001e+00 -3.0000000e+00 
1.0000000e+00 3.0250001e+00 -2.5000000e+00 
1.0000000e+00 3.0250001e+00 -2.0000000e+00 
1.0000000e+00 3.0250001e+00 -1.5000000e+00 
1.0000000e+00 3.0250001e+00 -1.0000000e+00 
1.0000000e+00 3.0250001e+00 -5.0000000e-01 
1.0000000e+00 3.0250001e+00 0.0000000e+00 
1.0000000e+00 3.0250001e+00 5.0000000e-01 
1.0000000e+00 3.0250001e+00 1.0000000e+00 
1.0000000e+00 3.0250001e+00 1.5000000e+00 
1.0000000e+00 3.0250001e+00 2.0000000e+00 
1.0000000e+00 3.0250001e+00 2.5000000e+00 
1.0000000e+00 3.0250001e+00 3.0000000e+00 
1.0000000e+00 3.0250001e+00 3.5000000e+00 
1.0000000e+00 3.0250001e+00 4.0000000e+00 
1.0000000e+00 3.0250001e+00 4.5000000e+00 
1.0000000e+00 3.0250001e+00 5.0000000e+00 
1.0000000e+00 3.0250001e+00 5.5000000e+00 
1.0000000e+00 3.0250001e+00 6.0000000e+00 
1.0000000e+00 3.0250001e+00 6.5000000e+00 
1.0000000e+00 3.0250001e+00 7.0000000e+00 
1.0000000e+00 3.0250001e+00 7.5000000e+00 
1.0000000e+00 3.0250001e+00 8.0000000e+00 
1.0000000e+00 3.0250001e+00 8.5000000e+00 
1.0000000e+00 3.0250001e+00 9.0000000e+00 
1.0000000e+00 3.0250001e+00 9.5000000e+00 
1.0000000e+00 3.0250001e+00 1.0000000e+01 
1.0000000e+00 3.0250001e+00 1.0500000e+01 
1.0000000e+00 3.0250001e+00 1.1000000e+01 
1.0000000e+00 3.0250001e+00 1.1500000e+01 
1.0000000e+00 3.0250001e+00 1.2000000e+01 
1.0000000e+00 3.0250001e+00 1.2500000e+01 
1.0000000e+00 3.0250001e+00 1.3000000e+01 
1.0000000e+00 3.0250001e+00 1.3500000e+01 
1.0000000e+00 3.0250001e+00 1.4000000e+01 
1.0000000e+00 3.0250001e+00 1.4500000e+01 
1.0000000e+00 -2.0000000e+00 -5.0000000e+00 
1.0000000e+00 -2.0000000e+00 -4.5000000e+00 
1.0000000e+00 -2.0000000e+00 -4.0000000e+00 
1.0000000e+00 -2.0000000e+00 -3.5000000e+00 
1.0000000e+00 -2.0000000e+00 -3.0000000e+00 
1.0000000e+00 -2.0000000e+00 -2.5000000e+00 
1.0000000e+00 -2.0000000e+00 -2.0000000e+00 
1.0000000e+00 -2.0000000e+00 -1.5000000e+00 
1.0000000e+00 -2.0000000e+00 -1.0000000e+00 
1.0000000e+00 -2.0000000e+00 -5.0000000e-01 
1.0000000e+00 -2.0000000e+00 1.0500000e+01 
1.0000000e+00 -2.0000000e+00 1.1000000e+01 
1.0000000e+00 -2.0000000e+00 1.1500000e+01 
1.0000000e+00 -2.0000000e+00 1.2000000e+01 
1.0000000e+00 -2.0000000e+00 1.2500000e+01 
1.0000000e+00 -2.0000000e+00 1.3000000e+01 
1.0000000e+00 -2.0000000e+00 1.3500000e+01 
1.0000000e+00 -2.0000000e+00 1.4000000e+01 
1.0000000e+00 -2.0000000e+00 1.4500000e+01 
1.0000000e+00 0.0000000e+00 0.0000000e+00 
2.0000000e+00 0.0000000e+00 0.0000000e+00 
3.0000000e+00 0.0000000e+00 0.0000000e+00 
4.0000000e+00 0.0000000e+00 0.0000000e+00 
5.0000000e+00 1.0000000e+00 0.0000000e+00 
5.0000000e+00 2.0000000e+00 0.0000000e+00 
0.0000000e+00 2.0000000e+00 0.0000000e+00 
0.0000000e+00 1.0000000e+00 0.0000000e+00 
0.0000000e+00 0.0000000e+00 1.0000000e+00 
0.0000000e+00 0.0000000e+00 2.0000000e+00 
0.0000000e+00 0.0000000e+00 3.0000000e+00 
0.0000000e+00 0.0000000e+00 4.0000000e+00 
0.0000000e+00 0.0000000e+00 5.0000000e+00 
0.0000000e+00 0.0000000e+00 6.0000000e+00 
0.0000000e+00 0.0000000e+00 7.0000000e+00 
0.0000000e+00 0.0000000e+00 8.0000000e+00 
0.0000000e+00 0.0000000e+00 9.0000000e+00 
5.0000000e+00 0.0000000e+00 1.0000000e+00 
5.0000000e+00 0.0000000e+00 2.0000000e+00 
5.0000000e+00 0.0000000e+00 3.0000000e+00 
5.0000000e+00 0.0000000e+00 4.0000000e+00 
5.0000000e+00 0.0000000e+00 5.0000000e+00 
5.0000000e+00 0.0000000e+00 6.0000000e+00 
5.0000000e+00 0.0000000e+00 7.0000000e+00 
5.0000000e+00 0.0000000e+00 8.0000000e+00 
5.0000000e+00 0.0000000e+00 9.0000000e+00 
1.0000000e+00 0.0000000e+00 1.0000000e+01 
2.0000000e+00 0.0000000e+00 1.0000000e+01 
3.0000000e+00 0.0000000e+00 1.0000000e+01 
4.0000000e+00 0.0000000e+00 1.0000000e+01 
5.0000000e+00 3.0000000e+00 1.0000000e+00 
5.0000000e+00 3.0000000e+00 2.0000000e+00 
5.0000000e+00 3.0000000e+00 3.0000000e+00 
5.0000000e+00 3.0000000e+00 4.0000000e+00 
5.0000000e+00 3.0000000e+00 5.0000000e+00 
5.0000000e+00 3.0000000e+00 6.0000000e+00 
5.0000000e+00 3.0000000e+00 7.0000000e+00 
5.0000000e+00 3.0000000e+00 8.0000000e+00 
5.0000000e+00 3.0000000e+00 9.0000000e+00 
5.0000000e+00 1.0000000e+00 1.0000000e+01 
5.0000000e+00 2.0000000e+00 1.0000000e+01 
0.0000000e+00 3.0000000e+00 1.0000000e+00 
0.0000000e+00 3.0000000e+00 2.0000000e+00 
0.0000000e+00 3.0000000e+00 3.0000000e+00 
0.0000000e+00 3.0000000e+00 4.0000000e+00 
0.0000000e+00 3.0000000e+00 5.0000000e+00 
0.0000000e+00 3.0000000e+00 6.0000000e+00 
0.0000000e+00 3.0000000e+00 7.0000000e+00 
0.0000000e+00 3.0000000e+00 8.0000000e+00 
0.0000000e+00 3.0000000e+00 9.0000000e+00 
0.0000000e+00 2.0000000e+00 1.0000000e+01 
0.0000000e+00 1.0000000e+00 1.0000000e+01 
4.0000000e+00 3.0000000e+00 0.0000000e+00 
3.0000000e+00 3.0000000e+00 0.0000000e+00 
2.0000000e+00 3.0000000e+00 0.0000000e+00 
4.0000000e+00 3.0000000e+00 1.0000000e+01 
3.0000000e+00 3.0000000e+00 1.0000000e+01 
2.0000000e+00 3.0000000e+00 1.0000000e+01 
4.0618000e+00 1.5000000e+00 0.0000000e+00 
1.5046000e+00 7.6549745e-01 0.0000000e+00 
2.5000000e+00 2.1339746e+00 0.0000000e+00 
1.5046000e+00 2.2345026e+00 0.0000000e+00 
2.4957771e+00 8.1560516e-01 0.0000000e+00 
3.4707544e+00 2.2336540e+00 0.0000000e+00 
3.4700506e+00 7.5794268e-01 0.0000000e+00 
8.6322361e-01 1.5000000e+00 0.0000000e+00 
2.0000000e+00 1.5000000e+00 0.0000000e+00 
2.9960666e+00 1.4974480e+00 0.0000000e+00 
4.2679491e+00 7.3205084e-01 0.0000000e+00 
4.2679491e+00 2.2679491e+00 0.0000000e+00 
7.2695929e-01 2.2730408e+00 0.0000000e+00 
7.2695929e-01 7.2695929e-01 0.0000000e+00 
4.1822505e+00 0.0000000e+00 2.5515697e+00 
4.2017918e+00 0.0000000e+00 4.4725966e+00 
4.1114569e+00 0.0000000e+00 6.5092020e+00 
8.6602539e-01 0.0000000e+00 3.5000000e+00 
8.4778279e-01 0.0000000e+00 5.4684029e+00 
8.9629614e-01 0.0000000e+00 7.5867257e+00 
2.5566745e+00 0.0000000e+00 8.1853306e-01 
2.4918270e+00 0.0000000e+00 9.1386929e+00 
8.4677207e-01 0.0000000e+00 1.5042374e+00 
4.0943027e+00 0.0000000e+00 8.4081745e+00 
8.6281651e-01 0.0000000e+00 2.5007062e+00 
1.7315160e+00 0.0000000e+00 3.0001178e+00 
1.7319617e+00 0.0000000e+00 4.0000196e+00 
2.5980761e+00 0.0000000e+00 3.5000000e+00 
2.5536871e+00 0.0000000e+00 4.4963923e+00 
2.5928419e+00 0.0000000e+00 2.4239938e+00 
1.5037409e+00 0.0000000e+00 9.1535149e+00 
1.8433737e+00 0.0000000e+00 8.1858873e+00 
3.0000000e+00 0.0000000e+00 8.2679491e+00 
2.5000000e+00 0.0000000e+00 7.4019237e+00 
3.5042722e+00 0.0000000e+00 7.4271150e+00 
3.0310018e+00 0.0000000e+00 6.5282087e+00 
2.0373929e+00 0.0000000e+00 6.5307913e+00 
3.4767809e+00 0.0000000e+00 5.8031492e+00 
2.5452602e+00 0.0000000e+00 5.5720768e+00 
1.6456656e+00 0.0000000e+00 1.9697139e+00 
8.6297011e-01 0.0000000e+00 4.4947371e+00 
1.0111579e+00 0.0000000e+00 6.5282545e+00 
3.4994321e+00 0.0000000e+00 8.4691072e-01 
4.1860156e+00 0.0000000e+00 3.5040276e+00 
1.7320508e+00 0.0000000e+00 5.0000000e+00 
4.0544066e+00 0.0000000e+00 1.5781221e+00 
1.5817389e+00 0.0000000e+00 9.3943578e-01 
8.3166349e-01 0.0000000e+00 8.5090933e+00 
3.4686174e+00 0.0000000e+00 9.1752682e+00 
3.0709300e+00 0.0000000e+00 1.5799091e+00 
3.3927374e+00 0.0000000e+00 3.0399952e+00 
3.3826034e+00 0.0000000e+00 3.9747651e+00 
4.3420062e+00 0.0000000e+00 7.4688983e+00 
3.4023225e+00 0.0000000e+00 4.9314723e+00 
1.6740381e+00 0.0000000e+00 7.3014426e+00 
4.2715640e+00 0.0000000e+00 5.4758859e+00 
1.6225953e+00 0.0000000e+00 5.8104177e+00 
4.2679491e+00 0.0000000e+00 9.2679491e+00 
7.3205084e-01 0.0000000e+00 7.3205084e-01 
4.2679491e+00 0.0000000e+00 7.3205084e-01 
7.3205084e-01 0.0000000e+00 9.2679491e+00 
3.4586334e+00 0.0000000e+00 2.2347178e+00 
2.2895701e+00 0.0000000e+00 1.5463171e+00 
5.0000000e+00 2.2345026e+00 1.5046000e+00 
[...]
POINT_DATA 460
FIELD FieldData 2
DISPLACEMENT 3 460  float
0.0000000e+00 0.0000000e+00 0.0000000e+00 
0.0000000e+00 0.0000000e+00 0.0000000e+00 
0.0000000e+00 -8.4925097e-07 0.0000000e+00 
0.0000000e+00 -2.1303773e-05 0.0000000e+00 
0.0000000e+00 0.0000000e+00 0.0000000e+00 
0.0000000e+00 0.0000000e+00 0.0000000e+00 
0.0000000e+00 1.6653853e-07 0.0000000e+00 
0.0000000e+00 8.2669821e-08 0.0000000e+00 
0.0000000e+00 6.3584270e-07 0.0000000e+00 
0.0000000e+00 6.5963104e-07 0.0000000e+00 
0.0000000e+00 7.5385731e-07 0.0000000e+00 
0.0000000e+00 9.6071153e-07 0.0000000e+00 
0.0000000e+00 1.3114905e-06 0.0000000e+00 
0.0000000e+00 1.7818662e-06 0.0000000e+00 
0.0000000e+00 2.2246043e-06 0.0000000e+00 
0.0000000e+00 2.2872509e-06 0.0000000e+00 
0.0000000e+00 1.3416621e-06 0.0000000e+00 
0.0000000e+00 -1.5175219e-06 0.0000000e+00 
0.0000000e+00 -7.5463013e-06 0.0000000e+00 
-1.8434616e-06 -1.8228862e-05 3.6501381e-06 
-4.9663604e-06 -4.1209903e-05 1.1442798e-05 
-3.7208947e-06 -8.4553030e-05 1.1734351e-05 
-7.8656495e-07 -1.5601947e-04 2.0051546e-05 
1.8631379e-06 -2.3209694e-04 7.1276977e-06 
-1.8710526e-06 -2.4242248e-04 -2.4661458e-06 
-1.2808597e-05 -1.7299537e-04 -1.8803799e-05 
-3.5441954e-06 -9.5626761e-05 -1.1134062e-05 
-4.9902269e-06 -4.5650326e-05 -1.7938457e-05 
-2.5866916e-06 -1.8715151e-05 -9.8240089e-06 
-1.4917301e-06 -6.8179102e-06 -6.4125907e-06 
-1.3562818e-06 -2.3718981e-06 -4.6087284e-06 
-6.8826876e-07 -9.4190767e-07 -2.7874603e-06 
-4.2418066e-07 -4.4809545e-07 -1.6567258e-06 
-1.9500581e-07 -1.9727766e-07 -1.0058319e-06 
-1.2894984e-07 -3.8940172e-08 -6.6333104e-07 
-7.1170192e-08 5.8182014e-08 -3.1248476e-07 
-4.5498734e-08 1.0791829e-07 -1.6026191e-07 
-2.6038817e-08 1.2412049e-07 -7.4115292e-08 
0.0000000e+00 1.0982472e-07 0.0000000e+00 
0.0000000e+00 7.9674393e-08 0.0000000e+00 
0.0000000e+00 4.8755954e-08 0.0000000e+00 
0.0000000e+00 2.4328299e-08 0.0000000e+00 
0.0000000e+00 8.2684313e-09 0.0000000e+00 
0.0000000e+00 -5.3770022e-10 0.0000000e+00 
0.0000000e+00 -4.2822728e-09 0.0000000e+00 
0.0000000e+00 -5.1643965e-09 0.0000000e+00 
0.0000000e+00 -4.9171898e-09 0.0000000e+00 
0.0000000e+00 -4.6796664e-09 0.0000000e+00 
0.0000000e+00 6.3604580e-07 0.0000000e+00 
0.0000000e+00 6.5993959e-07 0.0000000e+00 
0.0000000e+00 7.5452937e-07 0.0000000e+00 
0.0000000e+00 9.6234999e-07 0.0000000e+00 
0.0000000e+00 1.3148651e-06 0.0000000e+00 
0.0000000e+00 1.7875417e-06 0.0000000e+00 
0.0000000e+00 2.2324512e-06 0.0000000e+00 
0.0000000e+00 2.2956888e-06 0.0000000e+00 
0.0000000e+00 1.3465319e-06 0.0000000e+00 
0.0000000e+00 -1.5240296e-06 0.0000000e+00 
0.0000000e+00 -7.3386936e-06 0.0000000e+00 
0.0000000e+00 -1.8178294e-05 0.0000000e+00 
0.0000000e+00 -4.1067302e-05 0.0000000e+00 
0.0000000e+00 -8.5306332e-05 0.0000000e+00 
0.0000000e+00 -1.5740906e-04 0.0000000e+00 
0.0000000e+00 -2.3567627e-04 0.0000000e+00 
0.0000000e+00 -2.4725407e-04 0.0000000e+00 
0.0000000e+00 -1.7495644e-04 0.0000000e+00 
0.0000000e+00 -9.7085358e-05 0.0000000e+00 
0.0000000e+00 -4.5743709e-05 0.0000000e+00 
0.0000000e+00 -1.8675053e-05 0.0000000e+00 
0.0000000e+00 -6.7048159e-06 0.0000000e+00 
0.0000000e+00 -2.2853876e-06 0.0000000e+00 
0.0000000e+00 -8.9246134e-07 0.0000000e+00 
0.0000000e+00 -4.2996294e-07 0.0000000e+00 
0.0000000e+00 -1.9410447e-07 0.0000000e+00 
0.0000000e+00 -3.8696488e-08 0.0000000e+00 
0.0000000e+00 5.8157003e-08 0.0000000e+00 
0.0000000e+00 1.0834490e-07 0.0000000e+00 
0.0000000e+00 1.2359861e-07 0.0000000e+00 
0.0000000e+00 1.0979415e-07 0.0000000e+00 
0.0000000e+00 7.9992276e-08 0.0000000e+00 
0.0000000e+00 4.8950351e-08 0.0000000e+00 
0.0000000e+00 2.4425141e-08 0.0000000e+00 
0.0000000e+00 8.3011722e-09 0.0000000e+00 
0.0000000e+00 -5.4005639e-10 0.0000000e+00 
0.0000000e+00 -4.2994941e-09 0.0000000e+00 
0.0000000e+00 -5.1850568e-09 0.0000000e+00 
0.0000000e+00 -4.9368052e-09 0.0000000e+00 
0.0000000e+00 -4.6983133e-09 0.0000000e+00 
0.0000000e+00 0.0000000e+00 0.0000000e+00 
0.0000000e+00 0.0000000e+00 0.0000000e+00 
0.0000000e+00 0.0000000e+00 0.0000000e+00 
0.0000000e+00 0.0000000e+00 0.0000000e+00 
0.0000000e+00 0.0000000e+00 0.0000000e+00 
0.0000000e+00 0.0000000e+00 0.0000000e+00 
0.0000000e+00 0.0000000e+00 0.0000000e+00 
0.0000000e+00 0.0000000e+00 0.0000000e+00 
0.0000000e+00 0.0000000e+00 0.0000000e+00 
0.0000000e+00 0.0000000e+00 0.0000000e+00 
0.0000000e+00 0.0000000e+00 0.0000000e+00 
0.0000000e+00 0.0000000e+00 0.0000000e+00 
0.0000000e+00 0.0000000e+00 0.0000000e+00 
0.0000000e+00 0.0000000e+00 0.0000000e+00 
0.0000000e+00 0.0000000e+00 0.0000000e+00 
0.0000000e+00 0.0000000e+00 0.0000000e+00 
0.0000000e+00 0.0000000e+00 0.0000000e+00 
0.0000000e+00 0.0000000e+00 0.0000000e+00 
0.0000000e+00 0.0000000e+00 0.0000000e+00 
0.0000000e+00 0.0000000e+00 0.0000000e+00 
0.0000000e+00 0.0000000e+00 0.0000000e+00 
0.0000000e+00 0.0000000e+00 0.0000000e+00 
0.0000000e+00 0.0000000e+00 0.0000000e+00 
0.0000000e+00 -5.7477496e-07 0.0000000e+00 
0.0000000e+00 -8.1391312e-07 0.0000000e+00 
0.0000000e+00 -1.8626282e-05 0.0000000e+00 
0.0000000e+00 -1.0468939e-05 0.0000000e+00 
0.0000000e+00 0.0000000e+00 0.0000000e+00 
0.0000000e+00 0.0000000e+00 0.0000000e+00 
0.0000000e+00 0.0000000e+00 0.0000000e+00 
0.0000000e+00 0.0000000e+00 0.0000000e+00 
0.0000000e+00 0.0000000e+00 0.0000000e+00 
0.0000000e+00 0.0000000e+00 0.0000000e+00 
0.0000000e+00 0.0000000e+00 0.0000000e+00 
0.0000000e+00 0.0000000e+00 0.0000000e+00 
0.0000000e+00 0.0000000e+00 0.0000000e+00 
0.0000000e+00 0.0000000e+00 0.0000000e+00 
0.0000000e+00 0.0000000e+00 0.0000000e+00 
0.0000000e+00 0.0000000e+00 0.0000000e+00 
0.0000000e+00 0.0000000e+00 0.0000000e+00 
0.0000000e+00 0.0000000e+00 0.0000000e+00 
0.0000000e+00 0.0000000e+00 0.0000000e+00 
0.0000000e+00 0.0000000e+00 0.0000000e+00 
0.0000000e+00 0.0000000e+00 0.0000000e+00 
0.0000000e+00 0.0000000e+00 0.0000000e+00 
0.0000000e+00 0.0000000e+00 0.0000000e+00 
0.0000000e+00 0.0000000e+00 0.0000000e+00 
0.0000000e+00 0.0000000e+00 0.0000000e+00 
0.0000000e+00 0.0000000e+00 0.0000000e+00 
0.0000000e+00 -1.1770339e-06 0.0000000e+00 
0.0000000e+00 -8.3184557e-07 0.0000000e+00 
0.0000000e+00 -1.9569252e-06 0.0000000e+00 
0.0000000e+00 -8.0763510e-07 0.0000000e+00 
0.0000000e+00 -7.6860044e-07 0.0000000e+00 
0.0000000e+00 4.2072509e-07 0.0000000e+00 
0.0000000e+00 1.8847346e-07 0.0000000e+00 
0.0000000e+00 2.6490065e-07 0.0000000e+00 
0.0000000e+00 1.8073389e-07 0.0000000e+00 
0.0000000e+00 6.9573346e-08 0.0000000e+00 
0.0000000e+00 1.4398340e-07 0.0000000e+00 
0.0000000e+00 -3.6064666e-05 0.0000000e+00 
0.0000000e+00 -8.6377600e-05 0.0000000e+00 
0.0000000e+00 -1.0526059e-04 0.0000000e+00 
0.0000000e+00 -6.1662387e-05 0.0000000e+00 
0.0000000e+00 -2.2080829e-05 0.0000000e+00 
0.0000000e+00 -5.6594786e-06 0.0000000e+00 
0.0000000e+00 -1.4194263e-06 0.0000000e+00 
0.0000000e+00 -2.3066750e-07 0.0000000e+00 
0.0000000e+00 2.8963157e-08 0.0000000e+00 
0.0000000e+00 6.8215201e-08 0.0000000e+00 
0.0000000e+00 3.0193608e-08 0.0000000e+00 
0.0000000e+00 -1.6814506e-06 0.0000000e+00 
0.0000000e+00 -6.4136543e-06 0.0000000e+00 
0.0000000e+00 -1.4185925e-05 0.0000000e+00 
0.0000000e+00 1.7004200e-07 0.0000000e+00 
0.0000000e+00 1.6793864e-07 0.0000000e+00 
0.0000000e+00 1.6998916e-07 0.0000000e+00 
0.0000000e+00 -1.3014297e-06 0.0000000e+00 
0.0000000e+00 -6.4765813e-06 0.0000000e+00 
0.0000000e+00 -6.7339729e-06 0.0000000e+00 
0.0000000e+00 -1.3223498e-05 0.0000000e+00 
0.0000000e+00 -3.6186650e-06 0.0000000e+00 
0.0000000e+00 -2.4857652e-06 0.0000000e+00 
0.0000000e+00 -1.8518305e-06 0.0000000e+00 
0.0000000e+00 -1.2842010e-05 0.0000000e+00 
0.0000000e+00 -8.1733651e-06 0.0000000e+00 
0.0000000e+00 -3.7476630e-06 0.0000000e+00 
0.0000000e+00 -6.8087303e-07 0.0000000e+00 
0.0000000e+00 -1.1665589e-06 0.0000000e+00 
0.0000000e+00 -1.5343670e-05 0.0000000e+00 
0.0000000e+00 -6.2656618e-06 0.0000000e+00 
0.0000000e+00 0.0000000e+00 0.0000000e+00 
0.0000000e+00 0.0000000e+00 0.0000000e+00 
0.0000000e+00 0.0000000e+00 0.0000000e+00 
0.0000000e+00 0.0000000e+00 0.0000000e+00 
0.0000000e+00 0.0000000e+00 0.0000000e+00 
0.0000000e+00 0.0000000e+00 0.0000000e+00 
0.0000000e+00 0.0000000e+00 0.0000000e+00 
0.0000000e+00 0.0000000e+00 0.0000000e+00 
0.0000000e+00 0.0000000e+00 0.0000000e+00 
0.0000000e+00 0.0000000e+00 0.0000000e+00 
0.0000000e+00 0.0000000e+00 0.0000000e+00 
0.0000000e+00 0.0000000e+00 0.0000000e+00 
0.0000000e+00 0.0000000e+00 0.0000000e+00 
0.0000000e+00 0.0000000e+00 0.0000000e+00 
0.0000000e+00 0.0000000e+00 0.0000000e+00 
0.0000000e+00 0.0000000e+00 0.0000000e+00 
0.0000000e+00 0.0000000e+00 0.0000000e+00 
0.0000000e+00 0.0000000e+00 0.0000000e+00 
0.0000000e+00 0.0000000e+00 0.0000000e+00 
0.0000000e+00 0.0000000e+00 0.0000000e+00 
0.0000000e+00 0.0000000e+00 0.0000000e+00 
0.0000000e+00 0.0000000e+00 0.0000000e+00 
0.0000000e+00 0.0000000e+00 0.0000000e+00 
0.0000000e+00 0.0000000e+00 0.0000000e+00 
0.0000000e+00 0.0000000e+00 0.0000000e+00 
0.0000000e+00 0.0000000e+00 0.0000000e+00 
0.0000000e+00 0.0000000e+00 0.0000000e+00 
0.0000000e+00 0.0000000e+00 0.0000000e+00 
0.0000000e+00 0.0000000e+00 0.0000000e+00 
0.0000000e+00 0.0000000e+00 0.0000000e+00 
0.0000000e+00 0.0000000e+00 0.0000000e+00 
0.0000000e+00 0.0000000e+00 0.0000000e+00 
0.0000000e+00 0.0000000e+00 0.0000000e+00 
0.0000000e+00 0.0000000e+00 0.0000000e+00 
0.0000000e+00 0.0000000e+00 0.0000000e+00 
0.0000000e+00 0.0000000e+00 0.0000000e+00 
0.0000000e+00 0.0000000e+00 0.0000000e+00 
0.0000000e+00 0.0000000e+00 0.0000000e+00 
0.0000000e+00 0.0000000e+00 0.0000000e+00 
0.0000000e+00 0.0000000e+00 0.0000000e+00 
0.0000000e+00 0.0000000e+00 0.0000000e+00 
0.0000000e+00 0.0000000e+00 0.0000000e+00 
0.0000000e+00 0.0000000e+00 0.0000000e+00 
0.0000000e+00 0.0000000e+00 0.0000000e+00 
0.0000000e+00 0.0000000e+00 0.0000000e+00 
0.0000000e+00 0.0000000e+00 0.0000000e+00 
0.0000000e+00 0.0000000e+00 0.0000000e+00 
0.0000000e+00 0.0000000e+00 0.0000000e+00 
0.0000000e+00 0.0000000e+00 0.0000000e+00 
0.0000000e+00 -6.0482927e-07 0.0000000e+00 
0.0000000e+00 1.1844993e-07 0.0000000e+00 
0.0000000e+00 -6.0546483e-07 0.0000000e+00 
0.0000000e+00 3.0184080e-07 0.0000000e+00 
0.0000000e+00 2.8112936e-07 0.0000000e+00 
0.0000000e+00 -1.1109935e-06 0.0000000e+00 
0.0000000e+00 -5.2071766e-07 0.0000000e+00 
0.0000000e+00 -4.4671115e-08 0.0000000e+00 
0.0000000e+00 -8.9409195e-07 0.0000000e+00 
0.0000000e+00 -2.3976659e-07 0.0000000e+00 
0.0000000e+00 -1.0784961e-06 0.0000000e+00 
0.0000000e+00 -4.8474271e-07 0.0000000e+00 
0.0000000e+00 2.6482871e-07 0.0000000e+00 
0.0000000e+00 5.7842133e-08 0.0000000e+00 
0.0000000e+00 -1.1870168e-06 0.0000000e+00 
0.0000000e+00 6.2168432e-08 0.0000000e+00 
0.0000000e+00 2.0167482e-07 0.0000000e+00 
0.0000000e+00 -6.5605354e-07 0.0000000e+00 
0.0000000e+00 -1.6605115e-07 0.0000000e+00 
0.0000000e+00 1.5107236e-07 0.0000000e+00 
0.0000000e+00 -1.2172163e-06 0.0000000e+00 
0.0000000e+00 9.8953187e-08 0.0000000e+00 
0.0000000e+00 -5.5090294e-07 0.0000000e+00 
0.0000000e+00 -1.1343540e-06 0.0000000e+00 
0.0000000e+00 1.7730257e-07 0.0000000e+00 
0.0000000e+00 1.7064521e-07 0.0000000e+00 
0.0000000e+00 4.6012438e-08 0.0000000e+00 
0.0000000e+00 -4.8567927e-07 0.0000000e+00 
0.0000000e+00 -5.2742240e-07 0.0000000e+00 
0.0000000e+00 1.3269128e-08 0.0000000e+00 
0.0000000e+00 -2.3303508e-05 0.0000000e+00 
0.0000000e+00 -2.8167799e-05 0.0000000e+00 
0.0000000e+00 -1.2361143e-05 0.0000000e+00 
0.0000000e+00 -4.7258337e-07 0.0000000e+00 
0.0000000e+00 -7.0419897e-05 0.0000000e+00 
0.0000000e+00 -1.0490038e-05 0.0000000e+00 
0.0000000e+00 -6.1439806e-07 0.0000000e+00 
0.0000000e+00 -2.4981935e-05 0.0000000e+00 
0.0000000e+00 -8.1741338e-05 0.0000000e+00 
0.0000000e+00 -3.3573768e-05 0.0000000e+00 
0.0000000e+00 -2.9291198e-06 0.0000000e+00 
0.0000000e+00 -4.3223122e-06 0.0000000e+00 
0.0000000e+00 -8.3095863e-08 0.0000000e+00 
0.0000000e+00 -5.2363630e-05 0.0000000e+00 
0.0000000e+00 -1.7597575e-05 0.0000000e+00 
0.0000000e+00 -9.1665548e-08 0.0000000e+00 
0.0000000e+00 -1.5358994e-05 0.0000000e+00 
0.0000000e+00 -1.1522478e-06 0.0000000e+00 
0.0000000e+00 -3.6949965e-05 0.0000000e+00 
0.0000000e+00 -5.3376119e-05 0.0000000e+00 
0.0000000e+00 -1.1353389e-06 0.0000000e+00 
0.0000000e+00 -4.6077903e-06 0.0000000e+00 
0.0000000e+00 -2.2039744e-07 0.0000000e+00 
0.0000000e+00 -4.5692032e-05 0.0000000e+00 
0.0000000e+00 -5.8894170e-09 0.0000000e+00 
0.0000000e+00 -2.6207677e-05 0.0000000e+00 
0.0000000e+00 -1.1351133e-05 0.0000000e+00 
0.0000000e+00 5.1650879e-08 0.0000000e+00 
0.0000000e+00 3.0126433e-08 0.0000000e+00 
0.0000000e+00 1.1741778e-07 0.0000000e+00 
0.0000000e+00 1.9045270e-07 0.0000000e+00 
0.0000000e+00 1.6634796e-07 0.0000000e+00 
0.0000000e+00 3.4796010e-08 0.0000000e+00 
0.0000000e+00 1.8830849e-07 0.0000000e+00 
0.0000000e+00 5.0757592e-08 0.0000000e+00 
0.0000000e+00 8.8618528e-08 0.0000000e+00 
0.0000000e+00 1.2193601e-07 0.0000000e+00 
0.0000000e+00 1.3551374e-07 0.0000000e+00 
0.0000000e+00 4.6269427e-08 0.0000000e+00 
0.0000000e+00 1.7320706e-07 0.0000000e+00 
0.0000000e+00 1.1075016e-07 0.0000000e+00 
0.0000000e+00 2.4874636e-08 0.0000000e+00 
-5.6605568e-06 -2.9115765e-05 -1.0524855e-05 
-1.2943046e-06 -3.5875307e-06 -3.9686338e-06 
-1.9258106e-07 -4.3636238e-08 -8.4520622e-07 
-1.9464605e-05 -9.0005000e-05 9.2802793e-06 
-5.1168136e-06 -1.1356016e-04 -4.1320791e-06 
-1.4593288e-06 -3.6012236e-07 -9.6687734e-07 
-2.5677914e-06 -2.9217442e-06 -2.6919261e-07 
-2.8210690e-07 2.1341651e-07 -2.9451670e-07 
-7.0332553e-06 -4.1877876e-05 9.7060611e-06 
-6.7161018e-08 1.3121345e-07 -2.4525076e-07 
-4.3901587e-06 -5.1333250e-06 1.8579917e-06 
-5.1606289e-08 2.0340981e-07 -8.1663465e-08 
-4.2623904e-07 1.2984064e-07 -4.6924083e-07 
-7.0074805e-07 5.6675745e-08 -1.1266320e-06 
-2.6160512e-07 7.8763719e-08 -5.4182840e-07 
-4.5297872e-07 -6.7346846e-08 -7.2965719e-07 
-1.0008462e-06 -1.0561469e-06 -1.5096280e-06 
-1.3091199e-07 1.5100595e-07 -3.3403177e-07 
-5.8848968e-07 -3.9694373e-07 -1.6474428e-06 
-1.5200455e-06 -1.1042897e-06 -1.8735263e-06 
-2.5566205e-06 -2.9512819e-06 -2.0961195e-06 
-2.7729932e-06 -4.7639132e-06 -3.2705209e-06 
-5.3367744e-06 -1.0128841e-05 -4.9503565e-06 
-4.8708898e-06 -6.3399079e-06 -2.7169895e-06 
-7.7623681e-06 -1.7257138e-05 -4.3972473e-06 
-4.9602891e-06 -8.4280528e-06 -1.8352604e-06 
-1.0113976e-05 -2.7271712e-05 -2.0690957e-06 
-8.4207195e-06 -1.6310032e-05 -5.6590534e-07 
-1.0858538e-05 -2.9165280e-05 -5.3297316e-07 
-8.4432841e-06 -1.3690850e-05 1.1526336e-06 
-1.1973534e-05 -2.5294263e-05 3.8796848e-06 
-3.4000384e-06 -8.2191309e-06 -5.5611372e-06 
-2.2314946e-06 -4.4201215e-06 -3.8952053e-06 
-1.3648708e-05 -4.0126513e-05 -7.9099855e-06 
-2.8848988e-06 -2.7801709e-06 -5.8342158e-07 
-6.5419385e-08 2.0394471e-07 -1.4349364e-07 
-7.9602905e-06 -2.4616604e-05 -7.3243941e-06 
-1.9627730e-06 -1.5768856e-06 -1.2813242e-06 
-5.6348181e-06 -1.1973356e-05 3.1683744e-06 
-7.3463497e-08 2.3707774e-07 -7.4784417e-08 
-2.1089096e-07 -1.1742534e-07 -7.7339081e-07 
-1.8403883e-07 7.6151942e-08 -5.1420812e-07 
-2.6113664e-06 -7.1285936e-06 -5.7676857e-06 
-2.4471412e-06 -2.1295693e-06 6.5151494e-07 
-1.0471051e-05 -1.1263609e-04 1.2367605e-06 
-8.5816691e-06 -6.3977292e-05 -3.1991822e-06 
-9.5209853e-06 -7.9000165e-05 -1.0812571e-05 
-7.4686586e-06 -4.9890568e-05 -1.1356341e-05 
-7.7463284e-07 -1.1109782e-06 -2.3399452e-06 
-3.2983536e-07 -3.7149329e-07 -1.1833066e-06 
-4.2520692e-06 -2.0754596e-05 6.0300076e-06 
-1.2549916e-05 -6.2913045e-05 1.1394872e-05 
-4.4265263e-08 1.7032404e-07 -1.1541656e-07 
-7.1136442e-06 -1.0284816e-05 3.5885794e-06 
-1.9651903e-05 -5.3807118e-05 4.7784201e-06 
-1.2597927e-07 2.8287092e-08 -4.9438171e-07 
-1.0592195e-06 -1.7457141e-06 -2.2226711e-06 
-1.2245702e-05 -3.1301199e-05 9.3332292e-06 
-3.5814405e-06 -1.5706622e-05 -9.0818012e-06 
-1.0925700e-07 2.2904032e-07 -2.6026723e-07 
-2.6356108e-08 2.0037201e-07 -3.9623455e-08 
-1.7290091e-06 -1.6471046e-06 6.1832054e-07 
-3.9334741e-06 -4.6362120e-06 -1.6448947e-06 
-1.5858581e-05 -4.9983373e-05 1.0090820e-05 
-8.0566387e-08 1.7693208e-07 -2.0218839e-07 
-1.4929302e-06 -2.1886583e-06 -2.1279507e-06 
-4.6756322e-06 -5.5057521e-06 7.3219087e-07 
-5.0017616e-06 -6.6879329e-06 -6.4189027e-07 
-5.4174725e-06 -2.1630354e-05 5.8636820e-06 
-5.8609771e-06 -1.7504215e-05 -8.0557720e-06 
-4.6790287e-08 1.9426128e-07 -8.8179526e-08 
-1.1514525e-05 -1.2683068e-04 3.8566318e-06 
-6.1403653e-06 -8.8648289e-05 1.0383515e-05 
-7.9616639e-06 -1.2865390e-04 -3.0570473e-07 
-9.8138817e-06 -1.3226320e-04 -5.0586195e-06 
-3.8996732e-06 -5.4751650e-05 8.9196401e-06 
-2.0385746e-06 -8.6985398e-05 -6.0286966e-06 
-1.4184524e-06 -5.6009369e-05 -7.3555148e-06 
-8.8853801e-07 -3.0176461e-05 -5.2818427e-06 
-4.5931333e-08 -1.6078773e-05 -4.6753462e-06 
-3.5593987e-07 -7.0509118e-06 -3.6271956e-06 
-3.2239308e-07 -4.2965244e-06 -3.0999413e-06 
-2.3923585e-07 -1.7624160e-06 -2.2069271e-06 
-8.1768988e-08 -6.0170629e-07 -1.2392560e-06 
-9.0067282e-08 -2.0801170e-07 -7.0435891e-07 
-5.5798871e-08 -7.3614487e-08 -4.1997407e-07 
-2.6449094e-08 1.0500712e-08 -2.2418266e-07 
-2.2921945e-08 8.8060908e-08 -9.3965809e-08 
-1.0187034e-06 -2.6519392e-05 6.1660185e-06 
8.7814697e-06 -3.8849248e-05 -6.4736046e-06 
8.9905343e-06 -3.2290689e-05 5.0625845e-06 
1.9885174e-06 -7.1099512e-06 4.0801310e-06 
2.1408438e-07 -5.1408904e-07 1.0678305e-06 
6.1395027e-09 7.6054505e-08 2.4953366e-07 
5.7069215e-06 -8.7121207e-06 -2.0835046e-07 
3.3732658e-06 -4.4172648e-06 1.6779765e-06 
7.1950700e-07 -1.0785408e-06 1.4261578e-06 
3.3682063e-06 -2.8299268e-05 7.8585008e-06 
5.5362279e-06 -9.3036797e-05 -1.2225902e-06 
3.4122847e-06 -3.6336027e-05 -7.3114552e-06 
1.8908557e-07 1.5454633e-08 4.5091178e-07 
4.6607629e-06 -1.1128675e-05 -2.3180201e-06 
3.4644771e-07 -3.0359342e-06 1.5044452e-06 
-3.8974317e-08 -7.6698633e-08 1.4047669e-07 
6.1420462e-07 -7.0400711e-05 6.4033161e-06 
3.5579699e-06 -1.4037528e-05 2.9151365e-06 
8.9852592e-06 -3.0901825e-05 -5.9159999e-07 
4.9620763e-07 -1.3333259e-05 2.1364201e-06 
4.4289745e-06 -1.0712371e-05 4.9147634e-06 
6.5898548e-06 -7.7231460e-05 -5.4595548e-06 
1.2849968e-06 -1.0335749e-06 1.1278822e-06 
-1.5632756e-08 1.0160065e-07 6.4161374e-09 
2.8754894e-06 -2.5065335e-06 -9.2228782e-07 
4.5568086e-08 1.7576772e-07 9.5584163e-08 
6.9321604e-06 -3.3350887e-05 8.0330909e-07 
3.1180709e-06 -4.3237051e-06 3.1901723e-06 
7.7159075e-06 -1.2335007e-05 -2.1765063e-06 
7.0645824e-06 -1.2110273e-05 1.8989401e-06 
3.4368275e-06 -1.2637685e-05 -1.6150206e-07 
1.6306447e-07 9.3661669e-08 2.5334285e-07 
8.2752045e-08 -8.8476020e-07 4.1490404e-07 
-6.9041668e-08 -6.3595053e-07 2.5180499e-08 
5.7525557e-07 -4.7055973e-06 9.2554643e-07 
3.8613962e-08 7.4579518e-08 1.8397874e-07 
4.8354565e-08 4.0156657e-08 2.7263408e-07 
4.9558994e-06 -1.1240426e-05 -3.3091899e-06 
2.0554448e-06 -2.9331898e-06 1.8107934e-07 
2.8381353e-06 -1.9948544e-05 -4.2790457e-06 
3.2710787e-07 -2.1045723e-06 1.9730858e-06 
4.4557787e-06 -2.3645496e-05 5.0112799e-06 
-2.0015300e-08 1.7697029e-07 3.8036379e-08 
-1.3751095e-08 -1.5047452e-07 5.0133588e-07 
4.4772996e-06 -4.2362120e-05 2.7986900e-06 
3.8309504e-06 -2.5058916e-05 -3.7862126e-06 
7.2704415e-07 -3.4001096e-06 7.7236041e-07 
2.8275913e-06 -2.5444074e-06 1.0460807e-07 
7.4680031e-08 -4.1006338e-08 5.3832628e-07 
2.7660512e-06 -1.3508803e-05 -8.6283478e-07 
1.4547405e-06 -8.2070892e-06 4.0491382e-06 
1.4037215e-06 -3.0015153e-06 -3.1520460e-07 
1.8113181e-07 3.2411059e-08 3.0495562e-07 
-4.5777455e-08 1.6422500e-07 -5.1356189e-08 
-4.2928207e-08 -2.6049897e-06 1.4240146e-08 
2.0239696e-07 -6.1471501e-06 2.4164049e-06 
9.9735303e-07 -1.5650756e-06 2.1333392e-06 
-2.0876777e-10 3.9639360e-08 1.3985651e-07 
1.1210691e-06 -3.0427038e-06 -4.8952603e-07 
2.7011882e-07 -1.7020469e-06 1.1384371e-07 
1.7900027e-06 -1.4737278e-06 5.6565210e-07 
2.7391911e-07 -5.0808791e-07 2.5804366e-07 
4.9091381e-07 -9.3252652e-08 6.2651520e-07 
4.0710647e-06 -4.1908414e-05 -1.6908643e-06 