# vtk DataFile Version 4.0
vtk output
ASCII
DATASET UNSTRUCTURED_GRID
POINTS 460 float
0.0000000e+00 0.0000000e+00 0.0000000e+00 
5.0000000e+00 0.0000000e+00 0.0000000e+00 
5.0000000e+00 3.0000000e+00 0.0000000e+00 
0.0000000e+00 3.0000000e+00 0.0000000e+00 
0.0000000e+00 0.0000000e+00 1.0000000e+01 
5.0000000e+00 0.0000000e+00 1.0000000e+01 
5.0000000e+00 3.0000000e+00 1.0000000e+01 
0.0000000e+00 3.0000000e+00 1.0000000e+01 
1.0000000e+00 3.0000000e+00 -5.0000000e+00 
1.0000000e+00 3.0000000e+00 -4.5000000e+00 
1.0000000e+00 3.0000000e+00 -4.0000000e+00 
1.0000000e+00 3.0000000e+00 -3.5000000e+00 
1.0000000e+00 3.0000000e+00 -3.0000000e+00 
1.0000000e+00 3.0000000e+00 -2.5000000e+00 
1.0000000e+00 3.0000000e+00 -2.0000000e+00 
1.0000000e+00 3.0000000e+00 -1.5000000e+00 
1.0000000e+00 3.0000000e+00 -1.0000000e+00 
1.0000000e+00 3.0000000e+00 -5.0000000e-01 
1.0000000e+00 3.0000000e+00 0.0000000e+00 
1.0000000e+00 3.0000000e+00 5.0000000e-01 
1.0000000e+00 3.0000000e+00 1.0000000e+00 
1.0000000e+00 3.0000000e+00 1.5000000e+00 
1.0000000e+00 3.0000000e+00 2.0000000e+00 
1.0000000e+00 3.0000000e+00 2.5000000e+00 
1.0000000e+00 3.0000000e+00 3.0000000e+00 
1.0000000e+00 3.0000000e+00 3.5000000e+00 
1.0000000e+00 3.0000000e+00 4.0000000e+00 
1.0000000e+00 3.0000000e+00 4.5000000e+00 
1.0000000e+00 3.0000000e+00 5.0000000e+00 
1.0000000e+00 3.0000000e+00 5.5000000e+00 
1.0000000e+00 3.0000000e+00 6.0000000e+00 
1.0000000e+00 3.0000000e+00 6.5000000e+00 
1.0000000e+00 3.0000000e+00 7.0000000e+00 
1.0000000e+00 3.0000000e+00 7.5000000e+00 
1.0000000e+00 3.0000000e+00 8.0000000e+00 
1.0000000e+00 3.0000000e+00 8.5000000e+00 
1.0000000e+00 3.0000000e+00 9.0000000e+00 
1.0000000e+00 3.0000000e+00 9.5000000e+00 
1.0000000e+00 3.0000000e+00 1.0000000e+01 
1.0000000e+00 3.0000000e+00 1.0500000e+01 
1.0000000e+00 3.0000000e+00 1.1000000e+01 
1.0000000e+00 3.0000000e+00 1.1500000e+01 
1.0000000e+00 3.0000000e+00 1.2000000e+01 
1.0000000e+00 3.0000000e+00 1.2500000e+01 
1.0000000e+00 3.0000000e+00 1.3000000e+01 
1.0000000e+00 3.0000000e+00 1.3500000e+01 
1.0000000e+00 3.0000000e+00 1.4000000e+01 
1.0000000e+00 3.0000000e+00 1.4500000e+01 
1.0000000e+00 3.0250001e+00 -5.0000000e+00 
1.0000000e+00 3.0250001e+00 -4.5000000e+00 
1.0000000e+00 3.0250001e+00 -4.0000000e+00 
1.0000000e+00 3.0250001e+00 -3.5000000e+00 
1.0000000e+00 3.0250001e+00 -3.0000000e+00 
1.0000000e+00 3.0250001e+00 -2.5000000e+00 
1.0000000e+00 3.0250001e+00 -2.0000000e+00 
1.0000000e+00 3.0250001e+00 -1.5000000e+00 
1.0000000e+00 3.0250001e+00 -1.0000000e+00 
1.0000000e+00 3.0250001e+00 -5.0000000e-01 
1.0000000e+00 3.0250001e+00 0.0000000e+00 
1.0000000e+00 3.0250001e+00 5.0000000e-01 
1.0000000e+00 3.0250001e+00 1.0000000e+00 
1.0000000e+00 3.0250001e+00 1.5000000e+00 
1.0000000e+00 3.0250001e+00 2.0000000e+00 
1.0000000e+00 3.0250001e+00 2.5000000e+00 
1.0000000e+00 3.0250001e+00 3.0000000e+00 
1.0000000e+00 3.0250001e+00 3.5000000e+00 
1.0000000e+00 3.0250001e+00 4.0000000e+00 
1.0000000e+00 3.0250001e+00 4.5000000e+00 
1.0000000e+00 3.0250001e+00 5.0000000e+00 
1.0000000e+00 3.0250001e+00 5.5000000e+00 
1.0000000e+00 3.0250001e+00 6.0000000e+00 
1.0000000e+00 3.0250001e+00 6.5000000e+00 
1.0000000e+00 3.0250001e+00 7.0000000e+00 
1.0000000e+00 3.0250001e+00 7.5000000e+00 
1.0000000e+00 3.0250001e+00 8.0000000e+00 
1.0000000e+00 3.0250001e+00 8.5000000e+00 
1.0000000e+00 3.0250001e+00 9.0000000e+00 
1.0000000e+00 3.0250001e+00 9.5000000e+00 
1.0000000e+00 3.0250001e+00 1.0000000e+01 
1.0000000e+00 3.0250001e+00 1.0500000e+01 
1.0000000e+00 3.0250001e+00 1.1000000e+01 
1.0000000e+00 3.0250001e+00 1.1500000e+01 
1.0000000e+00 3.0250001e+00 1.2000000e+01 
1.0000000e+00 3.0250001e+00 1.2500000e+01 
1.0000000e+00 3.0250001e+00 1.3000000e+01 
1.0000000e+00 3.0250001e+00 1.3500000e+01 
1.0000000e+00 3.0250001e+00 1.4000000e+01 
1.0000000e+00 3.0250001e+00 1.4500000e+01 
1.0000000e+00 -2.0000000e+00 -5.0000000e+00 
1.0000000e+00 -2.0000000e+00 -4.5000000e+00 
1.0000000e+00 -2.0000000e+00 -4.0000000e+00 
1.0000000e+00 -2.0000000e+00 -3.5000000e+00 
1.0000000e+00 -2.0000000e+00 -3.0000000e+00 
1.0000000e+00 -2.0000000e+00 -2.5000000e+00 
1.0000000e+00 -2.0000000e+00 -2.0000000e+00 
1.0000000e+00 -2.0000000e+00 -1.5000000e+00 
1.0000000e+00 -2.0000000e+00 -1.0000000e+00 
1.0000000e+00 -2.0000000e+00 -5.0000000e-01 
1.0000000e+00 -2.0000000e+00 1.0500000e+01 
1.0000000e+00 -2.0000000e+00 1.1000000e+01 
1.0000000e+00 -2.0000000e+00 1.1500000e+01 
1.0000000e+00 -2.0000000e+00 1.2000000e+01 
1.0000000e+00 -2.0000000e+00 1.2500000e+01 
1.0000000e+00 -2.0000000e+00 1.3000000e+01 
1.0000000e+00 -2.0000000e+00 1.3500000e+01 
1.0000000e+00 -2.0000000e+00 1.4000000e+01 
1.0000000e+00 -2.0000000e+00 1.4500000e+01 
1.0000000e+00 0.0000000e+00 0.0000000e+00 
2.0000000e+00 0.0000000e+00 0.0000000e+00 
3.0000000e+00 0.0000000e+00 0.0000000e+00 
4.0000000e+00 0.0000000e+00 0.0000000e+00 
5.0000000e+00 1.0000000e+00 0.0000000e+00 
5.0000000e+00 2.0000000e+00 0.0000000e+00 
0.0000000e+00 2.0000000e+00 0.0000000e+00 
0.0000000e+00 1.0000000e+00 0.0000000e+00 
0.0000000e+00 0.0000000e+00 1.0000000e+00 
0.0000000e+00 0.0000000e+00 2.0000000e+00 
0.0000000e+00 0.0000000e+00 3.0000000e+00 
0.0000000e+00 0.0000000e+00 4.0000000e+00 
0.0000000e+00 0.0000000e+00 5.0000000e+00 
0.0000000e+00 0.0000000e+00 6.0000000e+00 
0.0000000e+00 0.0000000e+00 7.0000000e+00 
0.0000000e+00 0.0000000e+00 8.0000000e+00 
0.0000000e+00 0.0000000e+00 9.0000000e+00 
5.0000000e+00 0.0000000e+00 1.0000000e+00 
5.0000000e+00 0.0000000e+00 2.0000000e+00 
5.0000000e+00 0.0000000e+00 3.0000000e+00 
5.0000000e+00 0.0000000e+00 4.0000000e+00 
5.0000000e+00 0.0000000e+00 5.0000000e+00 
5.0000000e+00 0.0000000e+00 6.0000000e+00 
5.0000000e+00 0.0000000e+00 7.0000000e+00 
5.0000000e+00 0.0000000e+00 8.0000000e+00 
5.0000000e+00 0.0000000e+00 9.0000000e+00 
1.0000000e+00 0.0000000e+00 1.0000000e+01 
2.0000000e+00 0.0000000e+00 1.0000000e+01 
3.0000000e+00 0.0000000e+00 1.0000000e+01 
4.0000000e+00 0.0000000e+00 1.0000000e+01 
5.0000000e+00 3.0000000e+00 1.0000000e+00 
5.0000000e+00 3.0000000e+00 2.0000000e+00 
5.0000000e+00 3.0000000e+00 3.0000000e+00 
5.0000000e+00 3.0000000e+00 4.0000000e+00 
5.0000000e+00 3.0000000e+00 5.0000000e+00 
5.0000000e+00 3.0000000e+00 6.0000000e+00 
5.0000000e+00 3.0000000e+00 7.0000000e+00 
5.0000000e+00 3.0000000e+00 8.0000000e+00 
5.0000000e+00 3.0000000e+00 9.0000000e+00 
5.0000000e+00 1.0000000e+00 1.0000000e+01 
5.0000000e+00 2.0000000e+00 1.0000000e+01 
0.0000000e+00 3.0000000e+00 1.0000000e+00 
0.0000000e+00 3.0000000e+00 2.0000000e+00 
0.0000000e+00 3.0000000e+00 3.0000000e+00 
0.0000000e+00 3.0000000e+00 4.0000000e+00 
0.0000000e+00 3.0000000e+00 5.0000000e+00 
0.0000000e+00 3.0000000e+00 6.0000000e+00 
0.0000000e+00 3.0000000e+00 7.0000000e+00 
0.0000000e+00 3.0000000e+00 8.0000000e+00 
0.0000000e+00 3.0000000e+00 9.0000000e+00 
0.0000000e+00 2.0000000e+00 1.0000000e+01 
0.0000000e+00 1.0000000e+00 1.0000000e+01 
4.0000000e+00 3.0000000e+00 0.0000000e+00 
3.0000000e+00 3.0000000e+00 0.0000000e+00 
2.0000000e+00 3.0000000e+00 0.0000000e+00 
4.0000000e+00 3.0000000e+00 1.0000000e+01 
3.0000000e+00 3.0000000e+00 1.0000000e+01 
2.0000000e+00 3.0000000e+00 1.0000000e+01 
4.0618000e+00 1.5000000e+00 0.0000000e+00 
1.5046000e+00 7.6549745e-01 0.0000000e+00 
2.5000000e+00 2.1339746e+00 0.0000000e+00 
1.5046000e+00 2.2345026e+00 0.0000000e+00 
2.4957771e+00 8.1560516e-01 0.0000000e+00 
3.4707544e+00 2.2336540e+00 0.0000000e+00 
3.4700506e+00 7.5794268e-01 0.0000000e+00 
8.6322361e-01 1.5000000e+00 0.0000000e+00 
2.0000000e+00 1.5000000e+00 0.0000000e+00 
2.9960666e+00 1.4974480e+00 0.0000000e+00 
4.2679491e+00 7.3205084e-01 0.0000000e+00 
4.2679491e+00 2.2679491e+00 0.0000000e+00 
7.2695929e-01 2.2730408e+00 0.0000000e+00 
7.2695929e-01 7.2695929e-01 0.0000000e+00 
4.1822505e+00 0.0000000e+00 2.5515697e+00 
4.2017918e+00 0.0000000e+00 4.4725966e+00 
4.1114569e+00 0.0000000e+00 6.5092020e+00 
8.6602539e-01 0.0000000e+00 3.5000000e+00 
8.4778279e-01 0.0000000e+00 5.4684029e+00 
8.9629614e-01 0.0000000e+00 7.5867257e+00 
2.5566745e+00 0.0000000e+00 8.1853306e-01 
2.4918270e+00 0.0000000e+00 9.1386929e+00 
8.4677207e-01 0.0000000e+00 1.5042374e+00 
4.0943027e+00 0.0000000e+00 8.4081745e+00 
8.6281651e-01 0.0000000e+00 2.5007062e+00 
1.7315160e+00 0.0000000e+00 3.0001178e+00 
1.7319617e+00 0.0000000e+00 4.0000196e+00 
2.5980761e+00 0.0000000e+00 3.5000000e+00 
2.5536871e+00 0.0000000e+00 4.4963923e+00 
2.5928419e+00 0.0000000e+00 2.4239938e+00 
1.5037409e+00 0.0000000e+00 9.1535149e+00 
1.8433737e+00 0.0000000e+00 8.1858873e+00 
3.0000000e+00 0.0000000e+00 8.2679491e+00 
2.5000000e+00 0.0000000e+00 7.4019237e+00 
3.5042722e+00 0.0000000e+00 7.4271150e+00 
3.0310018e+00 0.0000000e+00 6.5282087e+00 
2.0373929e+00 0.0000000e+00 6.5307913e+00 
3.4767809e+00 0.0000000e+00 5.8031492e+00 
2.5452602e+00 0.0000000e+00 5.5720768e+00 
1.6456656e+00 0.0000000e+00 1.9697139e+00 
8.6297011e-01 0.0000000e+00 4.4947371e+00 
1.0111579e+00 0.0000000e+00 6.5282545e+00 
3.4994321e+00 0.0000000e+00 8.4691072e-01 
4.1860156e+00 0.0000000e+00 3.5040276e+00 
1.7320508e+00 0.0000000e+00 5.0000000e+00 
4.0544066e+00 0.0000000e+00 1.5781221e+00 
1.5817389e+00 0.0000000e+00 9.3943578e-01 
8.3166349e-01 0.0000000e+00 8.5090933e+00 
3.4686174e+00 0.0000000e+00 9.1752682e+00 
3.0709300e+00 0.0000000e+00 1.5799091e+00 
3.3927374e+00 0.0000000e+00 3.0399952e+00 
3.3826034e+00 0.0000000e+00 3.9747651e+00 
4.3420062e+00 0.0000000e+00 7.4688983e+00 
3.4023225e+00 0.0000000e+00 4.9314723e+00 
1.6740381e+00 0.0000000e+00 7.3014426e+00 
4.2715640e+00 0.0000000e+00 5.4758859e+00 
1.6225953e+00 0.0000000e+00 5.8104177e+00 
4.2679491e+00 0.0000000e+00 9.2679491e+00 
7.3205084e-01 0.0000000e+00 7.3205084e-01 
4.2679491e+00 0.0000000e+00 7.3205084e-01 
7.3205084e-01 0.0000000e+00 9.2679491e+00 
3.4586334e+00 0.0000000e+00 2.2347178e+00 
2.2895701e+00 0.0000000e+00 1.5463171e+00 
5.0000000e+00 2.2345026e+00 1.5046000e+00 
[...]
POINT_DATA 460
FIELD FieldData 5
DISPLACEMENT 3 460  float
0.0000000e+00 0.0000000e+00 0.0000000e+00 
0.0000000e+00 0.0000000e+00 0.0000000e+00 
0.0000000e+00 -1.8490398e-06 0.0000000e+00 
0.0000000e+00 -4.4637174e-05 0.0000000e+00 
0.0000000e+00 0.0000000e+00 0.0000000e+00 
0.0000000e+00 0.0000000e+00 0.0000000e+00 
0.0000000e+00 -1.9336936e-08 0.0000000e+00 
0.0000000e+00 1.7651617e-08 0.0000000e+00 
0.0000000e+00 2.3516102e-06 0.0000000e+00 
0.0000000e+00 -3.8171597e-06 0.0000000e+00 
0.0000000e+00 -2.7318321e-05 0.0000000e+00 
0.0000000e+00 -7.9051722e-05 0.0000000e+00 
0.0000000e+00 -1.7029402e-04 0.0000000e+00 
0.0000000e+00 -3.0422932e-04 0.0000000e+00 
0.0000000e+00 -4.6235905e-04 0.0000000e+00 
0.0000000e+00 -5.8613025e-04 0.0000000e+00 
0.0000000e+00 -5.8256940e-04 0.0000000e+00 
0.0000000e+00 -4.2972213e-04 0.0000000e+00 
0.0000000e+00 -2.3737700e-04 0.0000000e+00 
-5.2960054e-06 -1.0794854e-04 5.9033487e-06 
-4.0917694e-06 -3.5864832e-05 -6.0477437e-06 
-2.4503831e-06 -6.4856304e-06 -7.1481359e-06 
-1.9111590e-06 2.2298684e-06 -5.0416365e-06 
-9.1037487e-07 2.5023585e-06 -3.2933647e-06 
-3.4214730e-07 1.0217830e-06 -1.7998727e-06 
-2.1783065e-07 3.5548350e-08 -8.9910094e-07 
-1.0239451e-07 -3.0996188e-07 -5.9187414e-07 
-6.4914552e-08 -3.5900288e-07 -3.2356468e-07 
-4.5567834e-09 -1.3531493e-07 -1.9126674e-07 
2.2178966e-08 4.3417842e-08 -1.1912489e-07 
2.3610891e-08 1.2599398e-07 -6.1626835e-08 
2.4486061e-08 1.6087749e-07 -2.2323002e-08 
1.8243497e-08 1.7749383e-07 3.5943393e-09 
1.8237081e-08 1.2155763e-07 1.0852262e-08 
1.5568180e-08 8.3318696e-08 1.6082504e-08 
1.0251938e-08 3.6360873e-08 7.4946200e-09 
9.3693364e-09 2.8679027e-08 -5.3222504e-10 
5.3154952e-09 9.6867467e-08 2.1264492e-08 
0.0000000e+00 2.2754215e-07 0.0000000e+00 
0.0000000e+00 4.4136070e-07 0.0000000e+00 
0.0000000e+00 4.7105328e-07 0.0000000e+00 
0.0000000e+00 3.7262706e-07 0.0000000e+00 
0.0000000e+00 2.1416508e-07 0.0000000e+00 
0.0000000e+00 5.1899459e-08 0.0000000e+00 
0.0000000e+00 -1.1866797e-08 0.0000000e+00 
0.0000000e+00 8.3118650e-08 0.0000000e+00 
0.0000000e+00 5.1658247e-08 0.0000000e+00 
0.0000000e+00 1.8760851e-08 0.0000000e+00 
0.0000000e+00 2.5303195e-06 0.0000000e+00 
0.0000000e+00 -3.6687186e-06 0.0000000e+00 
0.0000000e+00 -2.7280899e-05 0.0000000e+00 
0.0000000e+00 -7.9245772e-05 0.0000000e+00 
0.0000000e+00 -1.7088068e-04 0.0000000e+00 
0.0000000e+00 -3.0537811e-04 0.0000000e+00 
0.0000000e+00 -4.6416212e-04 0.0000000e+00 
0.0000000e+00 -5.8844121e-04 0.0000000e+00 
0.0000000e+00 -5.8486930e-04 0.0000000e+00 
0.0000000e+00 -4.3141865e-04 0.0000000e+00 
0.0000000e+00 -2.4151229e-04 0.0000000e+00 
0.0000000e+00 -1.0822299e-04 0.0000000e+00 
0.0000000e+00 -3.6099125e-05 0.0000000e+00 
0.0000000e+00 -6.1368796e-06 0.0000000e+00 
0.0000000e+00 2.4491719e-06 0.0000000e+00 
0.0000000e+00 2.6466807e-06 0.0000000e+00 
0.0000000e+00 1.0821253e-06 0.0000000e+00 
0.0000000e+00 4.3068528e-08 0.0000000e+00 
0.0000000e+00 -3.0995065e-07 0.0000000e+00 
0.0000000e+00 -3.6361186e-07 0.0000000e+00 
0.0000000e+00 -1.3768467e-07 0.0000000e+00 
0.0000000e+00 4.3227548e-08 0.0000000e+00 
0.0000000e+00 1.2672541e-07 0.0000000e+00 
0.0000000e+00 1.6170334e-07 0.0000000e+00 
0.0000000e+00 1.7902617e-07 0.0000000e+00 
0.0000000e+00 1.2208962e-07 0.0000000e+00 
0.0000000e+00 8.3895621e-08 0.0000000e+00 
0.0000000e+00 3.6423625e-08 0.0000000e+00 
0.0000000e+00 2.8935435e-08 0.0000000e+00 
0.0000000e+00 9.8551510e-08 0.0000000e+00 
0.0000000e+00 2.3299275e-07 0.0000000e+00 
0.0000000e+00 4.4312586e-07 0.0000000e+00 
0.0000000e+00 4.7294560e-07 0.0000000e+00 
0.0000000e+00 3.7410794e-07 0.0000000e+00 
0.0000000e+00 2.1498700e-07 0.0000000e+00 
0.0000000e+00 5.2047710e-08 0.0000000e+00 
0.0000000e+00 -1.1993797e-08 0.0000000e+00 
0.0000000e+00 8.3327379e-08 0.0000000e+00 
0.0000000e+00 5.1689295e-08 0.0000000e+00 
0.0000000e+00 1.8639073e-08 0.0000000e+00 
0.0000000e+00 0.0000000e+00 0.0000000e+00 
0.0000000e+00 0.0000000e+00 0.0000000e+00 
0.0000000e+00 0.0000000e+00 0.0000000e+00 
0.0000000e+00 0.0000000e+00 0.0000000e+00 
0.0000000e+00 0.0000000e+00 0.0000000e+00 
0.0000000e+00 0.0000000e+00 0.0000000e+00 
0.0000000e+00 0.0000000e+00 0.0000000e+00 
0.0000000e+00 0.0000000e+00 0.0000000e+00 
0.0000000e+00 0.0000000e+00 0.0000000e+00 
0.0000000e+00 0.0000000e+00 0.0000000e+00 
0.0000000e+00 0.0000000e+00 0.0000000e+00 
0.0000000e+00 0.0000000e+00 0.0000000e+00 
0.0000000e+00 0.0000000e+00 0.0000000e+00 
0.0000000e+00 0.0000000e+00 0.0000000e+00 
0.0000000e+00 0.0000000e+00 0.0000000e+00 
0.0000000e+00 0.0000000e+00 0.0000000e+00 
0.0000000e+00 0.0000000e+00 0.0000000e+00 
0.0000000e+00 0.0000000e+00 0.0000000e+00 
0.0000000e+00 0.0000000e+00 0.0000000e+00 
0.0000000e+00 0.0000000e+00 0.0000000e+00 
0.0000000e+00 0.0000000e+00 0.0000000e+00 
0.0000000e+00 0.0000000e+00 0.0000000e+00 
0.0000000e+00 0.0000000e+00 0.0000000e+00 
0.0000000e+00 -9.3246803e-07 0.0000000e+00 
0.0000000e+00 -1.7001706e-06 0.0000000e+00 
0.0000000e+00 -4.1125077e-05 0.0000000e+00 
0.0000000e+00 -2.0053463e-05 0.0000000e+00 
0.0000000e+00 0.0000000e+00 0.0000000e+00 
0.0000000e+00 0.0000000e+00 0.0000000e+00 
0.0000000e+00 0.0000000e+00 0.0000000e+00 
0.0000000e+00 0.0000000e+00 0.0000000e+00 
0.0000000e+00 0.0000000e+00 0.0000000e+00 
0.0000000e+00 0.0000000e+00 0.0000000e+00 
0.0000000e+00 0.0000000e+00 0.0000000e+00 
0.0000000e+00 0.0000000e+00 0.0000000e+00 
0.0000000e+00 0.0000000e+00 0.0000000e+00 
0.0000000e+00 0.0000000e+00 0.0000000e+00 
0.0000000e+00 0.0000000e+00 0.0000000e+00 
0.0000000e+00 0.0000000e+00 0.0000000e+00 
0.0000000e+00 0.0000000e+00 0.0000000e+00 
0.0000000e+00 0.0000000e+00 0.0000000e+00 
0.0000000e+00 0.0000000e+00 0.0000000e+00 
0.0000000e+00 0.0000000e+00 0.0000000e+00 
0.0000000e+00 0.0000000e+00 0.0000000e+00 
0.0000000e+00 0.0000000e+00 0.0000000e+00 
0.0000000e+00 0.0000000e+00 0.0000000e+00 
0.0000000e+00 0.0000000e+00 0.0000000e+00 
0.0000000e+00 0.0000000e+00 0.0000000e+00 
0.0000000e+00 0.0000000e+00 0.0000000e+00 
0.0000000e+00 -1.3711024e-06 0.0000000e+00 
0.0000000e+00 -4.9029353e-07 0.0000000e+00 
0.0000000e+00 -2.3969926e-07 0.0000000e+00 
0.0000000e+00 7.5913199e-08 0.0000000e+00 
0.0000000e+00 8.7320224e-08 0.0000000e+00 
0.0000000e+00 6.1053299e-08 0.0000000e+00 
0.0000000e+00 1.5149102e-08 0.0000000e+00 
0.0000000e+00 -9.1819876e-09 0.0000000e+00 
0.0000000e+00 -1.6739557e-08 0.0000000e+00 
0.0000000e+00 -9.7381694e-09 0.0000000e+00 
0.0000000e+00 -1.7610576e-08 0.0000000e+00 
0.0000000e+00 -3.0713243e-05 0.0000000e+00 
0.0000000e+00 -6.5185518e-06 0.0000000e+00 
0.0000000e+00 -1.2793269e-06 0.0000000e+00 
0.0000000e+00 -3.5202004e-07 0.0000000e+00 
0.0000000e+00 -7.3745447e-08 0.0000000e+00 
0.0000000e+00 8.8769305e-08 0.0000000e+00 
0.0000000e+00 1.2141572e-07 0.0000000e+00 
0.0000000e+00 6.2589883e-08 0.0000000e+00 
0.0000000e+00 2.4375501e-08 0.0000000e+00 
0.0000000e+00 2.2273790e-08 0.0000000e+00 
0.0000000e+00 9.2001784e-09 0.0000000e+00 
0.0000000e+00 -3.4348511e-06 0.0000000e+00 
0.0000000e+00 -8.5916527e-06 0.0000000e+00 
0.0000000e+00 -2.0984262e-05 0.0000000e+00 
0.0000000e+00 -1.6760767e-08 0.0000000e+00 
0.0000000e+00 -1.0270059e-08 0.0000000e+00 
0.0000000e+00 -3.5915970e-09 0.0000000e+00 
0.0000000e+00 -2.1923015e-06 0.0000000e+00 
0.0000000e+00 -1.2125995e-05 0.0000000e+00 
0.0000000e+00 -1.4586808e-05 0.0000000e+00 
0.0000000e+00 -4.9902159e-05 0.0000000e+00 
0.0000000e+00 -7.4090699e-06 0.0000000e+00 
0.0000000e+00 -5.7134935e-06 0.0000000e+00 
0.0000000e+00 -1.7995329e-06 0.0000000e+00 
0.0000000e+00 -3.6753328e-05 0.0000000e+00 
0.0000000e+00 -2.0599309e-05 0.0000000e+00 
0.0000000e+00 -7.1813060e-06 0.0000000e+00 
0.0000000e+00 -1.1184377e-06 0.0000000e+00 
0.0000000e+00 -2.6112061e-06 0.0000000e+00 
0.0000000e+00 -8.0188285e-05 0.0000000e+00 
0.0000000e+00 -1.6611393e-05 0.0000000e+00 
0.0000000e+00 0.0000000e+00 0.0000000e+00 
0.0000000e+00 0.0000000e+00 0.0000000e+00 
0.0000000e+00 0.0000000e+00 0.0000000e+00 
0.0000000e+00 0.0000000e+00 0.0000000e+00 
0.0000000e+00 0.0000000e+00 0.0000000e+00 
0.0000000e+00 0.0000000e+00 0.0000000e+00 
0.0000000e+00 0.0000000e+00 0.0000000e+00 
0.0000000e+00 0.0000000e+00 0.0000000e+00 
0.0000000e+00 0.0000000e+00 0.0000000e+00 
0.0000000e+00 0.0000000e+00 0.0000000e+00 
0.0000000e+00 0.0000000e+00 0.0000000e+00 
0.0000000e+00 0.0000000e+00 0.0000000e+00 
0.0000000e+00 0.0000000e+00 0.0000000e+00 
0.0000000e+00 0.0000000e+00 0.0000000e+00 
0.0000000e+00 0.0000000e+00 0.0000000e+00 
0.0000000e+00 0.0000000e+00 0.0000000e+00 
0.0000000e+00 0.0000000e+00 0.0000000e+00 
0.0000000e+00 0.0000000e+00 0.0000000e+00 
0.0000000e+00 0.0000000e+00 0.0000000e+00 
0.0000000e+00 0.0000000e+00 0.0000000e+00 
0.0000000e+00 0.0000000e+00 0.0000000e+00 
0.0000000e+00 0.0000000e+00 0.0000000e+00 
0.0000000e+00 0.0000000e+00 0.0000000e+00 
0.0000000e+00 0.0000000e+00 0.0000000e+00 
0.0000000e+00 0.0000000e+00 0.0000000e+00 
0.0000000e+00 0.0000000e+00 0.0000000e+00 
0.0000000e+00 0.0000000e+00 0.0000000e+00 
0.0000000e+00 0.0000000e+00 0.0000000e+00 
0.0000000e+00 0.0000000e+00 0.0000000e+00 
0.0000000e+00 0.0000000e+00 0.0000000e+00 
0.0000000e+00 0.0000000e+00 0.0000000e+00 
0.0000000e+00 0.0000000e+00 0.0000000e+00 
0.0000000e+00 0.0000000e+00 0.0000000e+00 
0.0000000e+00 0.0000000e+00 0.0000000e+00 
0.0000000e+00 0.0000000e+00 0.0000000e+00 
0.0000000e+00 0.0000000e+00 0.0000000e+00 
0.0000000e+00 0.0000000e+00 0.0000000e+00 
0.0000000e+00 0.0000000e+00 0.0000000e+00 
0.0000000e+00 0.0000000e+00 0.0000000e+00 
0.0000000e+00 0.0000000e+00 0.0000000e+00 
0.0000000e+00 0.0000000e+00 0.0000000e+00 
0.0000000e+00 0.0000000e+00 0.0000000e+00 
0.0000000e+00 0.0000000e+00 0.0000000e+00 
0.0000000e+00 0.0000000e+00 0.0000000e+00 
0.0000000e+00 0.0000000e+00 0.0000000e+00 
0.0000000e+00 0.0000000e+00 0.0000000e+00 
0.0000000e+00 0.0000000e+00 0.0000000e+00 
0.0000000e+00 0.0000000e+00 0.0000000e+00 
0.0000000e+00 0.0000000e+00 0.0000000e+00 
0.0000000e+00 -6.2411351e-07 0.0000000e+00 
0.0000000e+00 -1.2850133e-08 0.0000000e+00 
0.0000000e+00 4.1816342e-08 0.0000000e+00 
0.0000000e+00 8.7356113e-08 0.0000000e+00 
0.0000000e+00 -7.2469496e-11 0.0000000e+00 
0.0000000e+00 -2.5133073e-07 0.0000000e+00 
0.0000000e+00 2.9144271e-08 0.0000000e+00 
0.0000000e+00 1.6400495e-08 0.0000000e+00 
0.0000000e+00 -2.8183056e-08 0.0000000e+00 
0.0000000e+00 3.5126632e-08 0.0000000e+00 
0.0000000e+00 -3.1803057e-07 0.0000000e+00 
0.0000000e+00 9.2739469e-08 0.0000000e+00 
0.0000000e+00 3.0478773e-08 0.0000000e+00 
0.0000000e+00 1.8252518e-09 0.0000000e+00 
0.0000000e+00 -5.0051892e-07 0.0000000e+00 
0.0000000e+00 -5.1180762e-09 0.0000000e+00 
0.0000000e+00 -1.4608342e-08 0.0000000e+00 
0.0000000e+00 -9.0304911e-07 0.0000000e+00 
0.0000000e+00 8.4528082e-08 0.0000000e+00 
0.0000000e+00 1.2491411e-08 0.0000000e+00 
0.0000000e+00 -4.5083240e-07 0.0000000e+00 
0.0000000e+00 4.5414467e-08 0.0000000e+00 
0.0000000e+00 4.9422987e-08 0.0000000e+00 
0.0000000e+00 -1.1720092e-07 0.0000000e+00 
0.0000000e+00 -7.0905171e-09 0.0000000e+00 
0.0000000e+00 -1.9657620e-08 0.0000000e+00 
0.0000000e+00 -7.9856939e-09 0.0000000e+00 
0.0000000e+00 -1.2140453e-06 0.0000000e+00 
0.0000000e+00 -5.0218904e-07 0.0000000e+00 
0.0000000e+00 1.5864076e-08 0.0000000e+00 
0.0000000e+00 -2.0221176e-05 0.0000000e+00 
0.0000000e+00 -2.2050829e-06 0.0000000e+00 
0.0000000e+00 -7.6390961e-08 0.0000000e+00 
0.0000000e+00 2.6585806e-08 0.0000000e+00 
0.0000000e+00 -6.5920597e-07 0.0000000e+00 
0.0000000e+00 4.0876390e-08 0.0000000e+00 
0.0000000e+00 8.9240871e-08 0.0000000e+00 
0.0000000e+00 -4.9457873e-07 0.0000000e+00 
0.0000000e+00 -3.2251719e-06 0.0000000e+00 
0.0000000e+00 -1.8405642e-07 0.0000000e+00 
0.0000000e+00 1.1346690e-07 0.0000000e+00 
0.0000000e+00 6.0600193e-08 0.0000000e+00 
0.0000000e+00 3.8826542e-08 0.0000000e+00 
0.0000000e+00 -1.4106975e-05 0.0000000e+00 
0.0000000e+00 -5.6283661e-06 0.0000000e+00 
0.0000000e+00 1.4505199e-08 0.0000000e+00 
0.0000000e+00 -2.6167870e-08 0.0000000e+00 
0.0000000e+00 3.5398127e-08 0.0000000e+00 
0.0000000e+00 -3.3186956e-07 0.0000000e+00 
0.0000000e+00 -1.4390168e-06 0.0000000e+00 
0.0000000e+00 7.0424278e-08 0.0000000e+00 
0.0000000e+00 1.1639140e-08 0.0000000e+00 
0.0000000e+00 4.2979377e-08 0.0000000e+00 
0.0000000e+00 -6.1823371e-06 0.0000000e+00 
0.0000000e+00 5.8421157e-09 0.0000000e+00 
0.0000000e+00 -3.6155452e-05 0.0000000e+00 
0.0000000e+00 -9.7721577e-06 0.0000000e+00 
0.0000000e+00 2.1578490e-08 0.0000000e+00 
0.0000000e+00 3.5201027e-09 0.0000000e+00 
0.0000000e+00 -1.2604435e-08 0.0000000e+00 
0.0000000e+00 -6.9931394e-09 0.0000000e+00 
0.0000000e+00 2.8824681e-08 0.0000000e+00 
0.0000000e+00 -1.9205597e-09 0.0000000e+00 
0.0000000e+00 -1.5455727e-08 0.0000000e+00 
0.0000000e+00 -6.3941847e-09 0.0000000e+00 
0.0000000e+00 2.2239607e-08 0.0000000e+00 
0.0000000e+00 3.4681968e-09 0.0000000e+00 
0.0000000e+00 -1.0080810e-08 0.0000000e+00 
0.0000000e+00 -8.0407903e-09 0.0000000e+00 
0.0000000e+00 -1.9144823e-08 0.0000000e+00 
0.0000000e+00 5.1244573e-08 0.0000000e+00 
0.0000000e+00 6.0587646e-09 0.0000000e+00 
-4.4002345e-08 -6.4834587e-08 -3.2235593e-07 
1.8500169e-08 8.8070458e-08 -4.7440274e-08 
1.8704199e-08 6.0414891e-08 1.8380861e-08 
-9.5870814e-07 -3.2674282e-06 -3.8960111e-06 
-4.0932525e-07 5.0596391e-08 -1.5036504e-06 
-3.0288867e-08 6.9544001e-08 -5.2964857e-08 
-3.6572638e-07 -3.9100502e-07 -4.7958639e-07 
1.9420421e-09 4.0256203e-09 6.4846275e-09 
-3.2033540e-06 -1.8532779e-05 -7.2391817e-06 
9.4595896e-09 9.5612558e-09 8.4061398e-09 
-2.3342473e-06 -4.1181293e-06 -1.5027904e-06 
6.4497825e-09 -1.4289942e-08 6.5522134e-09 
-1.0255561e-09 3.8082657e-08 2.6497247e-09 
1.3335429e-09 3.1187593e-08 1.9040656e-09 
9.5470529e-09 3.7371000e-09 1.2973384e-08 
6.9587180e-09 2.7221263e-08 1.1166270e-08 
1.0796469e-09 4.8743715e-08 -2.6943316e-09 
1.3330381e-08 3.4982750e-10 1.4707161e-08 
1.5549880e-08 6.5858117e-08 7.8824538e-09 
-1.6046350e-08 6.7659656e-08 -2.8154806e-08 
-5.9153162e-08 9.4498283e-08 -1.0265172e-07 
-3.9534452e-08 7.1020850e-08 -1.0218045e-07 
-8.6173131e-08 9.9371846e-08 -2.6046757e-07 
-1.3969478e-07 1.2795800e-07 -3.1401257e-07 
-2.1679359e-07 -1.5671470e-09 -6.2406252e-07 
-2.7264650e-07 -1.1109785e-07 -5.3014634e-07 
-4.5311072e-07 -3.6744680e-07 -1.1877838e-06 
-6.1304979e-07 -6.8478562e-07 -1.1999942e-06 
-7.3588978e-07 -1.4542651e-06 -1.7480371e-06 
-1.1301868e-06 -1.8850827e-06 -1.7206700e-06 
-2.1316389e-06 -4.2986176e-06 -2.9102187e-06 
-1.2417539e-08 7.6412029e-08 -1.3240540e-07 
2.3436990e-09 7.1955476e-08 -4.7706454e-08 
-2.6291372e-07 -2.3209357e-07 -8.7996409e-07 
-1.9468692e-07 -5.7748764e-08 -3.5521083e-07 
7.3751774e-09 -8.7991632e-09 8.3748173e-09 
-1.0100160e-07 8.5972907e-10 -4.3301486e-07 
-6.6232978e-08 1.1651613e-07 -1.2822589e-07 
-3.1321415e-06 -1.1160983e-05 -2.8097711e-06 
7.6924680e-09 -1.3791600e-08 6.1007284e-09 
2.0440098e-08 3.1024531e-08 2.3246779e-08 
2.2255861e-08 1.1450277e-08 2.1236756e-08 
1.1035711e-08 6.5391916e-08 -9.6551176e-08 
-7.6005085e-07 -1.1130537e-06 -5.8174078e-07 
-6.6837390e-07 -3.1549678e-07 -2.5916263e-06 
-6.1123717e-07 -4.7410174e-07 -1.6904045e-06 
-2.1187344e-07 -1.9989739e-07 -8.7633873e-07 
-1.0267718e-07 -1.4301347e-07 -4.8094688e-07 
1.8366187e-08 1.0754236e-07 -8.8021643e-09 
2.3633353e-08 7.4220580e-08 1.8412660e-08 
-3.2384094e-06 -4.8806600e-05 -2.8947793e-06 
-2.2778997e-06 -9.3509989e-06 -6.2862478e-06 
2.2211522e-09 3.9233972e-09 6.4585217e-09 
-2.1918313e-06 -4.3463019e-06 -2.4639614e-06 
-8.1831581e-07 -2.5559577e-06 -2.7813348e-06 
1.8491717e-08 2.9961317e-08 1.5590908e-08 
1.2520621e-08 7.1817979e-08 -6.5854620e-09 
-3.2472531e-06 -1.0495402e-05 -5.9545982e-06 
-6.1245320e-09 -1.1327206e-08 -2.0124439e-07 
1.1916790e-08 -1.1360763e-08 1.3573642e-08 
5.3486682e-09 -1.9304974e-08 2.2326456e-09 
-8.5556155e-07 -1.8810101e-06 -4.5212130e-07 
-1.5837514e-07 6.4062213e-09 -3.4358385e-07 
-1.9942270e-06 -5.6182271e-06 -4.7754447e-06 
1.1595255e-08 -3.4344807e-09 1.0891100e-08 
2.9570126e-09 7.1344409e-08 -2.2658982e-08 
-1.1959378e-06 -1.3931459e-06 -1.2327343e-06 
-5.1147208e-07 -3.7018842e-07 -8.2213677e-07 
-3.3792123e-06 -2.2894867e-05 -5.9219892e-06 
-4.6676885e-08 5.8775185e-09 -2.6205552e-07 
6.0971357e-09 -6.4971313e-09 2.8299278e-09 
-1.9873390e-08 -2.7065842e-06 -3.7337109e-06 
-2.5178019e-07 -9.2238797e-06 -5.4397842e-06 
-5.7012876e-08 -1.3636276e-06 -2.3120310e-06 
-6.5334810e-08 -1.6149841e-07 -1.3931243e-06 
-1.6476586e-06 -2.7641147e-05 -4.5052884e-06 
-1.3868534e-07 -2.7914362e-07 -6.4059788e-07 
-8.0108551e-09 -2.2491908e-07 -2.7556592e-07 
-5.8560254e-09 -1.1173725e-07 -1.4999877e-07 
2.5344692e-08 -1.3034996e-08 -8.8394550e-08 
3.2260978e-08 9.1504731e-08 -4.8126214e-08 
3.3874734e-08 1.2278201e-07 -3.2297397e-08 
3.4218989e-08 1.5199743e-07 -1.2527620e-08 
2.4785479e-08 1.3557550e-07 2.1823250e-10 
1.8793630e-08 8.7264169e-08 6.9059825e-09 
1.2172613e-08 5.4483738e-08 1.0079268e-08 
6.8651209e-09 2.9607429e-08 8.4818979e-09 
6.9056099e-09 2.8731922e-08 4.8806581e-09 
-2.9738455e-06 -5.7841313e-05 -4.1401549e-06 
1.1628708e-06 -5.0152994e-06 3.5783082e-06 
1.4193512e-07 -4.4324136e-07 7.5835709e-07 
-6.3089329e-09 4.6928136e-08 7.9833320e-08 
-1.4676827e-08 4.7016353e-08 7.5221749e-09 
-1.0308722e-08 8.6427567e-09 -3.2135443e-09 
4.9902297e-07 -6.7511780e-07 8.0734395e-07 
5.4656493e-08 4.0819057e-08 1.8558715e-07 
-8.6509448e-09 5.1387122e-08 1.3993610e-08 
-3.3554816e-08 -1.3267749e-08 4.0119026e-08 
-1.8316641e-07 -1.0819472e-06 5.0639028e-07 
1.3614871e-06 -2.1044107e-05 6.3753037e-06 
-1.1394075e-08 6.5990511e-09 -5.1746833e-09 
1.1900726e-06 -3.8852959e-06 1.3976612e-06 
-1.0635788e-08 9.5383065e-08 1.4042223e-08 
-4.2100505e-09 5.5295537e-08 -4.0749843e-09 
-1.0106597e-07 -2.7106577e-07 -1.4262048e-07 
-3.0866634e-08 7.6416242e-08 4.4326317e-08 
2.1990344e-07 -1.2785858e-06 7.3033948e-07 
-8.6594945e-09 3.1562948e-08 -1.4787104e-08 
4.0723744e-08 -5.8279767e-08 2.7189759e-07 
-3.7076351e-08 -4.9739338e-06 1.1523260e-06 
1.4168607e-08 7.5442763e-08 3.6034496e-08 
-3.9897805e-09 1.6840341e-08 -7.6094275e-10 
5.7162055e-07 -1.0249686e-06 4.6542144e-07 
-3.3622920e-09 -1.1744302e-08 -3.5653760e-10 
2.4341134e-07 -1.0834723e-06 1.5277747e-06 
2.4469648e-08 3.6198763e-08 1.2081426e-07 
9.8679857e-07 -1.9278373e-06 1.6719093e-06 
3.0090433e-07 -4.1027300e-07 7.0837223e-07 
4.7790515e-08 -1.9203235e-07 1.7158743e-07 
-5.1367772e-09 1.8593111e-08 -2.0937141e-09 
-1.3787259e-08 5.0659875e-08 3.5675471e-09 
-6.7509500e-09 9.2919088e-08 -1.1171697e-09 
-1.4427489e-08 8.7489134e-08 -1.6754308e-08 
-8.1225826e-09 -3.2630729e-09 -3.2239824e-09 
-1.1957782e-08 1.7194724e-08 -9.8776209e-10 
1.6769623e-06 -5.3818731e-06 2.3625203e-06 
9.4091519e-08 -7.6777013e-08 1.1839317e-07 
1.3382592e-06 -9.1386282e-06 4.0409627e-06 
-1.4435678e-08 3.3611911e-08 3.0699351e-08 
-1.5768190e-08 -1.3936167e-07 4.3213714e-07 
-3.2594445e-09 -2.8961626e-09 -3.8101780e-10 
-1.1400158e-08 2.5640404e-08 -2.9933123e-09 
-1.0635671e-07 -4.8545008e-08 -2.1049200e-07 
1.1755327e-06 -7.6366132e-06 2.0261061e-06 
-2.2828601e-08 1.1665671e-07 -2.2262771e-08 
2.1040130e-07 -2.1934594e-07 2.7671217e-07 
-1.3618260e-08 9.0871479e-09 -2.3457523e-09 
2.1002853e-07 -2.0892819e-06 3.2165670e-07 
1.1172485e-09 -1.4520320e-08 1.3758338e-07 
1.0002669e-07 -6.2005887e-07 5.1743672e-08 
-3.6695604e-09 3.0377802e-09 -1.9491666e-09 
-1.5859640e-09 9.5707069e-09 1.7858719e-09 
-5.9265317e-09 8.2892875e-08 -7.6983584e-09 
-9.1336263e-09 4.7296787e-08 3.2991004e-08 
-1.1280908e-08 3.2983980e-08 3.3448451e-08 
-5.7530345e-09 4.7909454e-09 -1.2289884e-09 
3.6422159e-07 -2.2056490e-06 1.6562983e-07 
-4.0704933e-09 1.1205602e-07 -3.2225447e-08 
5.8908316e-08 4.6807997e-09 1.0758605e-07 
-1.4426344e-08 7.2898224e-08 -5.5102891e-09 
4.4198534e-09 2.3548633e-08 5.0035367e-09 
-1.7673003e-07 -3.4471907e-06 3.5218005e-07 
2.9403429e-09 3.5663405e-08 1.4123428e-09 
1.3914351e-07 -7.9686131e-08 3.3617584e-07 