# vtk DataFile Version 4.0
vtk output
ASCII
DATASET UNSTRUCTURED_GRID
POINTS 460 float
0.0000000e+00 0.0000000e+00 0.0000000e+00 
5.0000000e+00 0.0000000e+00 0.0000000e+00 
5.0000000e+00 3.0000000e+00 0.0000000e+00 
0.0000000e+00 3.0000000e+00 0.0000000e+00 
0.0000000e+00 0.0000000e+00 1.0000000e+01 
5.0000000e+00 0.0000000e+00 1.0000000e+01 
5.0000000e+00 3.0000000e+00 1.0000000e+01 
0.0000000e+00 3.0000000e+00 1.0000000e+01 
1.0000000e+00 3.0000000e+00 -5.0000000e+00 
1.0000000e+00 3.0000000e+00 -4.5000000e+00 
1.0000000e+00 3.0000000e+00 -4.0000000e+00 
1.0000000e+00 3.0000000e+00 -3.5000000e+00 
1.0000000e+00 3.0000000e+00 -3.0000000e+00 
1.0000000e+00 3.0000000e+00 -2.5000000e+00 
1.0000000e+00 3.0000000e+00 -2.0000000e+00 
1.0000000e+00 3.0000000e+00 -1.5000000e+00 
1.0000000e+00 3.0000000e+00 -1.0000000e+00 
1.0000000e+00 3.0000000e+00 -5.0000000e-01 
1.0000000e+00 3.0000000e+00 0.0000000e+00 
1.0000000e+00 3.0000000e+00 5.0000000e-01 
1.0000000e+00 3.0000000e+00 1.0000000e+00 
1.0000000e+00 3.0000000e+00 1.5000000e+00 
1.0000000e+00 3.0000000e+00 2.0000000e+00 
1.0000000e+00 3.0000000e+00 2.5000000e+00 
1.0000000e+00 3.0000000e+00 3.0000000e+00 
1.0000000e+00 3.0000000e+00 3.5000000e+00 
1.0000000e+00 3.0000000e+00 4.0000000e+00 
1.0000000e+00 3.0000000e+00 4.5000000e+00 
1.0000000e+00 3.0000000e+00 5.0000000e+00 
1.0000000e+00 3.0000000e+00 5.5000000e+00 
1.0000000e+00 3.0000000e+00 6.0000000e+00 
1.0000000e+00 3.0000000e+00 6.5000000e+00 
1.0000000e+00 3.0000000e+00 7.0000000e+00 
1.0000000e+00 3.0000000e+00 7.5000000e+00 
1.0000000e+00 3.0000000e+00 8.0000000e+00 
1.0000000e+00 3.0000000e+00 8.5000000e+00 
1.0000000e+00 3.0000000e+00 9.0000000e+00 
1.0000000e+00 3.0000000e+00 9.5000000e+00 
1.0000000e+00 3.0000000e+00 1.0000000e+01 
1.0000000e+00 3.0000000e+00 1.0500000e+01 
1.0000000e+00 3.0000000e+00 1.1000000e+01 
1.0000000e+00 3.0000000e+00 1.1500000e+01 
1.0000000e+00 3.0000000e+00 1.2000000e+01 
1.0000000e+00 3.0000000e+00 1.2500000e+01 
1.0000000e+00 3.0000000e+00 1.3000000e+01 
1.0000000e+00 3.0000000e+00 1.3500000e+01 
1.0000000e+00 3.0000000e+00 1.4000000e+01 
1.0000000e+00 3.0000000e+00 1.4500000e+01 
1.0000000e+00 3.0250001e+00 -5.0000000e+00 
1.0000000e+00 3.0250001e+00 -4.5000000e+00 
1.0000000e+00 3.0250001e+00 -4.0000000e+00 
1.0000000e+00 3.0250001e+00 -3.5000000e+00 
1.0000000e+00 3.0250001e+00 -3.0000000e+00 
1.0000000e+00 3.0250001e+00 -2.5000000e+00 
1.0000000e+00 3.0250001e+00 -2.0000000e+00 
1.0000000e+00 3.0250001e+00 -1.5000000e+00 
1.0000000e+00 3.0250001e+00 -1.0000000e+00 
1.0000000e+00 3.0250001e+00 -5.0000000e-01 
1.0000000e+00 3.0250001e+00 0.0000000e+00 
1.0000000e+00 3.0250001e+00 5.0000000e-01 
1.0000000e+00 3.0250001e+00 1.0000000e+00 
1.0000000e+00 3.0250001e+00 1.5000000e+00 
1.0000000e+00 3.0250001e+00 2.0000000e+00 
1.0000000e+00 3.0250001e+00 2.5000000e+00 
1.0000000e+00 3.0250001e+00 3.0000000e+00 
1.0000000e+00 3.0250001e+00 3.5000000e+00 
1.0000000e+00 3.0250001e+00 4.0000000e+00 
1.0000000e+00 3.0250001e+00 4.5000000e+00 
1.0000000e+00 3.0250001e+00 5.0000000e+00 
1.0000000e+00 3.0250001e+00 5.5000000e+00 
1.0000000e+00 3.0250001e+00 6.0000000e+00 
1.0000000e+00 3.0250001e+00 6.5000000e+00 
1.0000000e+00 3.0250001e+00 7.0000000e+00 
1.0000000e+00 3.0250001e+00 7.5000000e+00 
1.0000000e+00 3.0250001e+00 8.0000000e+00 
1.0000000e+00 3.0250001e+00 8.5000000e+00 
1.0000000e+00 3.0250001e+00 9.0000000e+00 
1.0000000e+00 3.0250001e+00 9.5000000e+00 
1.0000000e+00 3.0250001e+00 1.0000000e+01 
1.0000000e+00 3.0250001e+00 1.0500000e+01 
1.0000000e+00 3.0250001e+00 1.1000000e+01 
1.0000000e+00 3.0250001e+00 1.1500000e+01 
1.0000000e+00 3.0250001e+00 1.2000000e+01 
1.0000000e+00 3.0250001e+00 1.2500000e+01 
1.0000000e+00 3.0250001e+00 1.3000000e+01 
1.0000000e+00 3.0250001e+00 1.3500000e+01 
1.0000000e+00 3.0250001e+00 1.4000000e+01 
1.0000000e+00 3.0250001e+00 1.4500000e+01 
1.0000000e+00 -2.0000000e+00 -5.0000000e+00 
1.0000000e+00 -2.0000000e+00 -4.5000000e+00 
1.0000000e+00 -2.0000000e+00 -4.0000000e+00 
1.0000000e+00 -2.0000000e+00 -3.5000000e+00 
1.0000000e+00 -2.0000000e+00 -3.0000000e+00 
1.0000000e+00 -2.0000000e+00 -2.5000000e+00 
1.0000000e+00 -2.0000000e+00 -2.0000000e+00 
1.0000000e+00 -2.0000000e+00 -1.5000000e+00 
1.0000000e+00 -2.0000000e+00 -1.0000000e+00 
1.0000000e+00 -2.0000000e+00 -5.0000000e-01 
1.0000000e+00 -2.0000000e+00 1.0500000e+01 
1.0000000e+00 -2.0000000e+00 1.1000000e+01 
1.0000000e+00 -2.0000000e+00 1.1500000e+01 
1.0000000e+00 -2.0000000e+00 1.2000000e+01 
1.0000000e+00 -2.0000000e+00 1.2500000e+01 
1.0000000e+00 -2.0000000e+00 1.3000000e+01 
1.0000000e+00 -2.0000000e+00 1.3500000e+01 
1.0000000e+00 -2.0000000e+00 1.4000000e+01 
1.0000000e+00 -2.0000000e+00 1.4500000e+01 
1.0000000e+00 0.0000000e+00 0.0000000e+00 
2.0000000e+00 0.0000000e+00 0.0000000e+00 
3.0000000e+00 0.0000000e+00 0.0000000e+00 
4.0000000e+00 0.0000000e+00 0.0000000e+00 
5.0000000e+00 1.0000000e+00 0.0000000e+00 
5.0000000e+00 2.0000000e+00 0.0000000e+00 
0.0000000e+00 2.0000000e+00 0.0000000e+00 
0.0000000e+00 1.0000000e+00 0.0000000e+00 
0.0000000e+00 0.0000000e+00 1.0000000e+00 
0.0000000e+00 0.0000000e+00 2.0000000e+00 
0.0000000e+00 0.0000000e+00 3.0000000e+00 
0.0000000e+00 0.0000000e+00 4.0000000e+00 
0.0000000e+00 0.0000000e+00 5.0000000e+00 
0.0000000e+00 0.0000000e+00 6.0000000e+00 
0.0000000e+00 0.0000000e+00 7.0000000e+00 
0.0000000e+00 0.0000000e+00 8.0000000e+00 
0.0000000e+00 0.0000000e+00 9.0000000e+00 
5.0000000e+00 0.0000000e+00 1.0000000e+00 
5.0000000e+00 0.0000000e+00 2.0000000e+00 
5.0000000e+00 0.0000000e+00 3.0000000e+00 
5.0000000e+00 0.0000000e+00 4.0000000e+00 
5.0000000e+00 0.0000000e+00 5.0000000e+00 
5.0000000e+00 0.0000000e+00 6.0000000e+00 
5.0000000e+00 0.0000000e+00 7.0000000e+00 
5.0000000e+00 0.0000000e+00 8.0000000e+00 
5.0000000e+00 0.0000000e+00 9.0000000e+00 
1.0000000e+00 0.0000000e+00 1.0000000e+01 
2.0000000e+00 0.0000000e+00 1.0000000e+01 
3.0000000e+00 0.0000000e+00 1.0000000e+01 
4.0000000e+00 0.0000000e+00 1.0000000e+01 
5.0000000e+00 3.0000000e+00 1.0000000e+00 
5.0000000e+00 3.0000000e+00 2.0000000e+00 
5.0000000e+00 3.0000000e+00 3.0000000e+00 
5.0000000e+00 3.0000000e+00 4.0000000e+00 
5.0000000e+00 3.0000000e+00 5.0000000e+00 
5.0000000e+00 3.0000000e+00 6.0000000e+00 
5.0000000e+00 3.0000000e+00 7.0000000e+00 
5.0000000e+00 3.0000000e+00 8.0000000e+00 
5.0000000e+00 3.0000000e+00 9.0000000e+00 
5.0000000e+00 1.0000000e+00 1.0000000e+01 
5.0000000e+00 2.0000000e+00 1.0000000e+01 
0.0000000e+00 3.0000000e+00 1.0000000e+00 
0.0000000e+00 3.0000000e+00 2.0000000e+00 
0.0000000e+00 3.0000000e+00 3.0000000e+00 
0.0000000e+00 3.0000000e+00 4.0000000e+00 
0.0000000e+00 3.0000000e+00 5.0000000e+00 
0.0000000e+00 3.0000000e+00 6.0000000e+00 
0.0000000e+00 3.0000000e+00 7.0000000e+00 
0.0000000e+00 3.0000000e+00 8.0000000e+00 
0.0000000e+00 3.0000000e+00 9.0000000e+00 
0.0000000e+00 2.0000000e+00 1.0000000e+01 
0.0000000e+00 1.0000000e+00 1.0000000e+01 
4.0000000e+00 3.0000000e+00 0.0000000e+00 
3.0000000e+00 3.0000000e+00 0.0000000e+00 
2.0000000e+00 3.0000000e+00 0.0000000e+00 
4.0000000e+00 3.0000000e+00 1.0000000e+01 
3.0000000e+00 3.0000000e+00 1.0000000e+01 
2.0000000e+00 3.0000000e+00 1.0000000e+01 
4.0618000e+00 1.5000000e+00 0.0000000e+00 
1.5046000e+00 7.6549745e-01 0.0000000e+00 
2.5000000e+00 2.1339746e+00 0.0000000e+00 
1.5046000e+00 2.2345026e+00 0.0000000e+00 
2.4957771e+00 8.1560516e-01 0.0000000e+00 
3.4707544e+00 2.2336540e+00 0.0000000e+00 
3.4700506e+00 7.5794268e-01 0.0000000e+00 
8.6322361e-01 1.5000000e+00 0.0000000e+00 
2.0000000e+00 1.5000000e+00 0.0000000e+00 
2.9960666e+00 1.4974480e+00 0.0000000e+00 
4.2679491e+00 7.3205084e-01 0.0000000e+00 
4.2679491e+00 2.2679491e+00 0.0000000e+00 
7.2695929e-01 2.2730408e+00 0.0000000e+00 
7.2695929e-01 7.2695929e-01 0.0000000e+00 
4.1822505e+00 0.0000000e+00 2.5515697e+00 
4.2017918e+00 0.0000000e+00 4.4725966e+00 
4.1114569e+00 0.0000000e+00 6.5092020e+00 
8.6602539e-01 0.0000000e+00 3.5000000e+00 
8.4778279e-01 0.0000000e+00 5.4684029e+00 
8.9629614e-01 0.0000000e+00 7.5867257e+00 
2.5566745e+00 0.0000000e+00 8.1853306e-01 
2.4918270e+00 0.0000000e+00 9.1386929e+00 
8.4677207e-01 0.0000000e+00 1.5042374e+00 
4.0943027e+00 0.0000000e+00 8.4081745e+00 
8.6281651e-01 0.0000000e+00 2.5007062e+00 
1.7315160e+00 0.0000000e+00 3.0001178e+00 
1.7319617e+00 0.0000000e+00 4.0000196e+00 
2.5980761e+00 0.0000000e+00 3.5000000e+00 
2.5536871e+00 0.0000000e+00 4.4963923e+00 
2.5928419e+00 0.0000000e+00 2.4239938e+00 
1.5037409e+00 0.0000000e+00 9.1535149e+00 
1.8433737e+00 0.0000000e+00 8.1858873e+00 
3.0000000e+00 0.0000000e+00 8.2679491e+00 
2.5000000e+00 0.0000000e+00 7.4019237e+00 
3.5042722e+00 0.0000000e+00 7.4271150e+00 
3.0310018e+00 0.0000000e+00 6.5282087e+00 
2.0373929e+00 0.0000000e+00 6.5307913e+00 
3.4767809e+00 0.0000000e+00 5.8031492e+00 
2.5452602e+00 0.0000000e+00 5.5720768e+00 
1.6456656e+00 0.0000000e+00 1.9697139e+00 
8.6297011e-01 0.0000000e+00 4.4947371e+00 
1.0111579e+00 0.0000000e+00 6.5282545e+00 
3.4994321e+00 0.0000000e+00 8.4691072e-01 
4.1860156e+00 0.0000000e+00 3.5040276e+00 
1.7320508e+00 0.0000000e+00 5.0000000e+00 
4.0544066e+00 0.0000000e+00 1.5781221e+00 
1.5817389e+00 0.0000000e+00 9.3943578e-01 
8.3166349e-01 0.0000000e+00 8.5090933e+00 
3.4686174e+00 0.0000000e+00 9.1752682e+00 
3.0709300e+00 0.0000000e+00 1.5799091e+00 
3.3927374e+00 0.0000000e+00 3.0399952e+00 
3.3826034e+00 0.0000000e+00 3.9747651e+00 
4.3420062e+00 0.0000000e+00 7.4688983e+00 
3.4023225e+00 0.0000000e+00 4.9314723e+00 
1.6740381e+00 0.0000000e+00 7.3014426e+00 
4.2715640e+00 0.0000000e+00 5.4758859e+00 
1.6225953e+00 0.0000000e+00 5.8104177e+00 
4.2679491e+00 0.0000000e+00 9.2679491e+00 
7.3205084e-01 0.0000000e+00 7.3205084e-01 
4.2679491e+00 0.0000000e+00 7.3205084e-01 
7.3205084e-01 0.0000000e+00 9.2679491e+00 
3.4586334e+00 0.0000000e+00 2.2347178e+00 
2.2895701e+00 0.0000000e+00 1.5463171e+00 
5.0000000e+00 2.2345026e+00 1.5046000e+00 
[...]
POINT_DATA 460
FIELD FieldData 5
DISPLACEMENT 3 460  float
0.0000000e+00 0.0000000e+00 0.0000000e+00 
0.0000000e+00 0.0000000e+00 0.0000000e+00 
0.0000000e+00 3.3161194e-07 0.0000000e+00 
0.0000000e+00 -1.5498734e-06 0.0000000e+00 
0.0000000e+00 0.0000000e+00 0.0000000e+00 
0.0000000e+00 0.0000000e+00 0.0000000e+00 
0.0000000e+00 -4.9229607e-07 0.0000000e+00 
0.0000000e+00 -1.5947344e-05 0.0000000e+00 
0.0000000e+00 4.3620639e-06 0.0000000e+00 
0.0000000e+00 4.4726480e-06 0.0000000e+00 
0.0000000e+00 3.6272527e-06 0.0000000e+00 
0.0000000e+00 2.8736131e-06 0.0000000e+00 
0.0000000e+00 6.6872667e-07 0.0000000e+00 
0.0000000e+00 -2.5971524e-06 0.0000000e+00 
0.0000000e+00 -5.1943593e-06 0.0000000e+00 
0.0000000e+00 -6.4155365e-06 0.0000000e+00 
0.0000000e+00 -6.4374462e-06 0.0000000e+00 
0.0000000e+00 -5.4631605e-06 0.0000000e+00 
0.0000000e+00 -5.8245341e-06 0.0000000e+00 
-3.7069213e-07 -4.1606818e-06 3.1122022e-07 
-7.0512129e-07 -9.2118302e-07 4.8377314e-07 
-8.5759899e-07 1.9500987e-06 1.0991616e-06 
-1.2801261e-06 4.3861469e-06 2.0393068e-06 
-8.5607763e-07 -3.1388920e-06 2.5520712e-06 
-7.9391697e-07 -1.2255301e-05 3.3766519e-06 
-1.3761888e-06 -1.4131321e-05 3.8517769e-06 
-2.7470001e-06 -1.5677053e-05 6.0365587e-06 
-3.1693053e-06 -2.3634400e-05 8.2893275e-06 
-4.5660058e-06 -4.3528667e-05 1.3355292e-05 
-4.4508965e-06 -8.3553983e-05 1.8679688e-05 
-2.5693685e-06 -1.4673721e-04 6.7505584e-06 
1.7081460e-06 -2.1556020e-04 1.3972577e-07 
8.4869389e-06 -2.2958436e-04 -8.4696703e-06 
1.6978908e-07 -1.6450364e-04 -7.2790344e-06 
-3.3807971e-06 -9.7944983e-05 -1.1756469e-05 
-2.4954254e-06 -5.6542143e-05 -1.2912020e-05 
-3.4836339e-06 -2.9002302e-05 -8.0953823e-06 
-2.0773346e-06 -1.5500382e-05 -3.4129357e-06 
0.0000000e+00 -9.3913577e-06 0.0000000e+00 
0.0000000e+00 -5.1787110e-06 0.0000000e+00 
0.0000000e+00 -1.3336071e-06 0.0000000e+00 
0.0000000e+00 1.2812084e-06 0.0000000e+00 
0.0000000e+00 3.0214062e-06 0.0000000e+00 
0.0000000e+00 4.4832664e-06 0.0000000e+00 
0.0000000e+00 6.0912494e-06 0.0000000e+00 
0.0000000e+00 7.0967017e-06 0.0000000e+00 
0.0000000e+00 8.2890410e-06 0.0000000e+00 
0.0000000e+00 8.9174064e-06 0.0000000e+00 
0.0000000e+00 4.3827154e-06 0.0000000e+00 
0.0000000e+00 4.4932722e-06 0.0000000e+00 
0.0000000e+00 3.6438626e-06 0.0000000e+00 
0.0000000e+00 2.8868703e-06 0.0000000e+00 
0.0000000e+00 6.7258514e-07 0.0000000e+00 
0.0000000e+00 -2.6063597e-06 0.0000000e+00 
0.0000000e+00 -5.2138394e-06 0.0000000e+00 
0.0000000e+00 -6.4394771e-06 0.0000000e+00 
0.0000000e+00 -6.4612777e-06 0.0000000e+00 
0.0000000e+00 -5.4838674e-06 0.0000000e+00 
0.0000000e+00 -5.8884270e-06 0.0000000e+00 
0.0000000e+00 -4.1774852e-06 0.0000000e+00 
0.0000000e+00 -9.3677085e-07 0.0000000e+00 
0.0000000e+00 2.0407306e-06 0.0000000e+00 
0.0000000e+00 4.5405122e-06 0.0000000e+00 
0.0000000e+00 -3.1147172e-06 0.0000000e+00 
0.0000000e+00 -1.2440204e-05 0.0000000e+00 
0.0000000e+00 -1.4220714e-05 0.0000000e+00 
0.0000000e+00 -1.5721911e-05 0.0000000e+00 
0.0000000e+00 -2.3618510e-05 0.0000000e+00 
0.0000000e+00 -4.3608739e-05 0.0000000e+00 
0.0000000e+00 -8.3791696e-05 0.0000000e+00 
0.0000000e+00 -1.4851629e-04 0.0000000e+00 
0.0000000e+00 -2.1890078e-04 0.0000000e+00 
0.0000000e+00 -2.3330499e-04 0.0000000e+00 
0.0000000e+00 -1.6724040e-04 0.0000000e+00 
0.0000000e+00 -9.9038800e-05 0.0000000e+00 
0.0000000e+00 -5.7003432e-05 0.0000000e+00 
0.0000000e+00 -2.9155826e-05 0.0000000e+00 
0.0000000e+00 -1.5471171e-05 0.0000000e+00 
0.0000000e+00 -9.2559776e-06 0.0000000e+00 
0.0000000e+00 -5.1970242e-06 0.0000000e+00 
0.0000000e+00 -1.3342449e-06 0.0000000e+00 
0.0000000e+00 1.2935619e-06 0.0000000e+00 
0.0000000e+00 3.0421652e-06 0.0000000e+00 
0.0000000e+00 4.5090410e-06 0.0000000e+00 
0.0000000e+00 6.1184146e-06 0.0000000e+00 
0.0000000e+00 7.1236350e-06 0.0000000e+00 
0.0000000e+00 8.3198493e-06 0.0000000e+00 
0.0000000e+00 8.9507475e-06 0.0000000e+00 
0.0000000e+00 0.0000000e+00 0.0000000e+00 
0.0000000e+00 0.0000000e+00 0.0000000e+00 
0.0000000e+00 0.0000000e+00 0.0000000e+00 
0.0000000e+00 0.0000000e+00 0.0000000e+00 
0.0000000e+00 0.0000000e+00 0.0000000e+00 
0.0000000e+00 0.0000000e+00 0.0000000e+00 
0.0000000e+00 0.0000000e+00 0.0000000e+00 
0.0000000e+00 0.0000000e+00 0.0000000e+00 
0.0000000e+00 0.0000000e+00 0.0000000e+00 
0.0000000e+00 0.0000000e+00 0.0000000e+00 
0.0000000e+00 0.0000000e+00 0.0000000e+00 
0.0000000e+00 0.0000000e+00 0.0000000e+00 
0.0000000e+00 0.0000000e+00 0.0000000e+00 
0.0000000e+00 0.0000000e+00 0.0000000e+00 
0.0000000e+00 0.0000000e+00 0.0000000e+00 
0.0000000e+00 0.0000000e+00 0.0000000e+00 
0.0000000e+00 0.0000000e+00 0.0000000e+00 
0.0000000e+00 0.0000000e+00 0.0000000e+00 
0.0000000e+00 0.0000000e+00 0.0000000e+00 
0.0000000e+00 0.0000000e+00 0.0000000e+00 
0.0000000e+00 0.0000000e+00 0.0000000e+00 
0.0000000e+00 0.0000000e+00 0.0000000e+00 
0.0000000e+00 0.0000000e+00 0.0000000e+00 
0.0000000e+00 2.2730862e-07 0.0000000e+00 
0.0000000e+00 3.0910570e-07 0.0000000e+00 
0.0000000e+00 -1.1988860e-06 0.0000000e+00 
0.0000000e+00 -4.1163744e-07 0.0000000e+00 
0.0000000e+00 0.0000000e+00 0.0000000e+00 
0.0000000e+00 0.0000000e+00 0.0000000e+00 
0.0000000e+00 0.0000000e+00 0.0000000e+00 
0.0000000e+00 0.0000000e+00 0.0000000e+00 
0.0000000e+00 0.0000000e+00 0.0000000e+00 
0.0000000e+00 0.0000000e+00 0.0000000e+00 
0.0000000e+00 0.0000000e+00 0.0000000e+00 
0.0000000e+00 0.0000000e+00 0.0000000e+00 
0.0000000e+00 0.0000000e+00 0.0000000e+00 
0.0000000e+00 0.0000000e+00 0.0000000e+00 
0.0000000e+00 0.0000000e+00 0.0000000e+00 
0.0000000e+00 0.0000000e+00 0.0000000e+00 
0.0000000e+00 0.0000000e+00 0.0000000e+00 
0.0000000e+00 0.0000000e+00 0.0000000e+00 
0.0000000e+00 0.0000000e+00 0.0000000e+00 
0.0000000e+00 0.0000000e+00 0.0000000e+00 
0.0000000e+00 0.0000000e+00 0.0000000e+00 
0.0000000e+00 0.0000000e+00 0.0000000e+00 
0.0000000e+00 0.0000000e+00 0.0000000e+00 
0.0000000e+00 0.0000000e+00 0.0000000e+00 
0.0000000e+00 0.0000000e+00 0.0000000e+00 
0.0000000e+00 0.0000000e+00 0.0000000e+00 
0.0000000e+00 3.6031312e-07 0.0000000e+00 
0.0000000e+00 5.4144510e-07 0.0000000e+00 
0.0000000e+00 3.1768542e-07 0.0000000e+00 
0.0000000e+00 2.7560117e-07 0.0000000e+00 
0.0000000e+00 -5.4878461e-07 0.0000000e+00 
0.0000000e+00 -2.0214462e-07 0.0000000e+00 
0.0000000e+00 -1.4810167e-06 0.0000000e+00 
0.0000000e+00 -3.8794391e-07 0.0000000e+00 
0.0000000e+00 -7.2792261e-07 0.0000000e+00 
0.0000000e+00 -5.2224181e-07 0.0000000e+00 
0.0000000e+00 -5.5848011e-07 0.0000000e+00 
0.0000000e+00 -8.9802285e-07 0.0000000e+00 
0.0000000e+00 -1.3135549e-06 0.0000000e+00 
0.0000000e+00 -7.3294332e-06 0.0000000e+00 
0.0000000e+00 -1.6863518e-05 0.0000000e+00 
0.0000000e+00 -3.8786762e-05 0.0000000e+00 
0.0000000e+00 -7.5639080e-05 0.0000000e+00 
0.0000000e+00 -9.8352757e-05 0.0000000e+00 
0.0000000e+00 -5.7853315e-05 0.0000000e+00 
0.0000000e+00 -2.6484529e-05 0.0000000e+00 
0.0000000e+00 -1.4078876e-05 0.0000000e+00 
0.0000000e+00 -8.0126720e-06 0.0000000e+00 
0.0000000e+00 2.8330624e-07 0.0000000e+00 
0.0000000e+00 8.6520799e-08 0.0000000e+00 
0.0000000e+00 -4.0419286e-07 0.0000000e+00 
0.0000000e+00 -1.6603211e-06 0.0000000e+00 
0.0000000e+00 -5.0963640e-06 0.0000000e+00 
0.0000000e+00 -9.9921554e-06 0.0000000e+00 
0.0000000e+00 2.9241787e-07 0.0000000e+00 
0.0000000e+00 -2.9520871e-07 0.0000000e+00 
0.0000000e+00 -8.1309850e-08 0.0000000e+00 
0.0000000e+00 -1.4739327e-06 0.0000000e+00 
0.0000000e+00 -7.5490362e-08 0.0000000e+00 
0.0000000e+00 2.4805681e-07 0.0000000e+00 
0.0000000e+00 1.3699497e-07 0.0000000e+00 
0.0000000e+00 -1.0546198e-06 0.0000000e+00 
0.0000000e+00 -3.5459567e-07 0.0000000e+00 
0.0000000e+00 1.3198067e-07 0.0000000e+00 
0.0000000e+00 2.2845394e-07 0.0000000e+00 
0.0000000e+00 3.1376672e-07 0.0000000e+00 
0.0000000e+00 -2.5328368e-06 0.0000000e+00 
0.0000000e+00 -4.0567238e-07 0.0000000e+00 
0.0000000e+00 0.0000000e+00 0.0000000e+00 
0.0000000e+00 0.0000000e+00 0.0000000e+00 
0.0000000e+00 0.0000000e+00 0.0000000e+00 
0.0000000e+00 0.0000000e+00 0.0000000e+00 
0.0000000e+00 0.0000000e+00 0.0000000e+00 
0.0000000e+00 0.0000000e+00 0.0000000e+00 
0.0000000e+00 0.0000000e+00 0.0000000e+00 
0.0000000e+00 0.0000000e+00 0.0000000e+00 
0.0000000e+00 0.0000000e+00 0.0000000e+00 
0.0000000e+00 0.0000000e+00 0.0000000e+00 
0.0000000e+00 0.0000000e+00 0.0000000e+00 
0.0000000e+00 0.0000000e+00 0.0000000e+00 
0.0000000e+00 0.0000000e+00 0.0000000e+00 
0.0000000e+00 0.0000000e+00 0.0000000e+00 
0.0000000e+00 0.0000000e+00 0.0000000e+00 
0.0000000e+00 0.0000000e+00 0.0000000e+00 
0.0000000e+00 0.0000000e+00 0.0000000e+00 
0.0000000e+00 0.0000000e+00 0.0000000e+00 
0.0000000e+00 0.0000000e+00 0.0000000e+00 
0.0000000e+00 0.0000000e+00 0.0000000e+00 
0.0000000e+00 0.0000000e+00 0.0000000e+00 
0.0000000e+00 0.0000000e+00 0.0000000e+00 
0.0000000e+00 0.0000000e+00 0.0000000e+00 
0.0000000e+00 0.0000000e+00 0.0000000e+00 
0.0000000e+00 0.0000000e+00 0.0000000e+00 
0.0000000e+00 0.0000000e+00 0.0000000e+00 
0.0000000e+00 0.0000000e+00 0.0000000e+00 
0.0000000e+00 0.0000000e+00 0.0000000e+00 
0.0000000e+00 0.0000000e+00 0.0000000e+00 
0.0000000e+00 0.0000000e+00 0.0000000e+00 
0.0000000e+00 0.0000000e+00 0.0000000e+00 
0.0000000e+00 0.0000000e+00 0.0000000e+00 
0.0000000e+00 0.0000000e+00 0.0000000e+00 
0.0000000e+00 0.0000000e+00 0.0000000e+00 
0.0000000e+00 0.0000000e+00 0.0000000e+00 
0.0000000e+00 0.0000000e+00 0.0000000e+00 
0.0000000e+00 0.0000000e+00 0.0000000e+00 
0.0000000e+00 0.0000000e+00 0.0000000e+00 
0.0000000e+00 0.0000000e+00 0.0000000e+00 
0.0000000e+00 0.0000000e+00 0.0000000e+00 
0.0000000e+00 0.0000000e+00 0.0000000e+00 
0.0000000e+00 0.0000000e+00 0.0000000e+00 
0.0000000e+00 0.0000000e+00 0.0000000e+00 
0.0000000e+00 0.0000000e+00 0.0000000e+00 
0.0000000e+00 0.0000000e+00 0.0000000e+00 
0.0000000e+00 0.0000000e+00 0.0000000e+00 
0.0000000e+00 0.0000000e+00 0.0000000e+00 
0.0000000e+00 0.0000000e+00 0.0000000e+00 
0.0000000e+00 0.0000000e+00 0.0000000e+00 
0.0000000e+00 4.7892058e-07 0.0000000e+00 
0.0000000e+00 -6.4407288e-07 0.0000000e+00 
0.0000000e+00 3.9049931e-07 0.0000000e+00 
0.0000000e+00 -1.8963145e-07 0.0000000e+00 
0.0000000e+00 -3.4502372e-07 0.0000000e+00 
0.0000000e+00 1.6680029e-07 0.0000000e+00 
0.0000000e+00 -2.5764979e-07 0.0000000e+00 
0.0000000e+00 -9.9259967e-07 0.0000000e+00 
0.0000000e+00 1.8905226e-08 0.0000000e+00 
0.0000000e+00 -3.5511982e-07 0.0000000e+00 
0.0000000e+00 5.1343210e-07 0.0000000e+00 
0.0000000e+00 1.4731349e-07 0.0000000e+00 
0.0000000e+00 -2.2051415e-07 0.0000000e+00 
0.0000000e+00 -9.3109509e-07 0.0000000e+00 
0.0000000e+00 1.5271429e-07 0.0000000e+00 
0.0000000e+00 -5.7105109e-07 0.0000000e+00 
0.0000000e+00 -1.7969585e-07 0.0000000e+00 
0.0000000e+00 3.3158338e-07 0.0000000e+00 
0.0000000e+00 -3.0031049e-07 0.0000000e+00 
0.0000000e+00 -7.1769193e-07 0.0000000e+00 
0.0000000e+00 3.7310815e-07 0.0000000e+00 
0.0000000e+00 -5.1451332e-07 0.0000000e+00 
0.0000000e+00 1.1718503e-07 0.0000000e+00 
0.0000000e+00 2.6044523e-07 0.0000000e+00 
0.0000000e+00 -3.6677341e-07 0.0000000e+00 
0.0000000e+00 -2.2981463e-07 0.0000000e+00 
0.0000000e+00 -4.2715496e-07 0.0000000e+00 
0.0000000e+00 4.0133989e-07 0.0000000e+00 
0.0000000e+00 2.1999840e-07 0.0000000e+00 
0.0000000e+00 -1.7645139e-05 0.0000000e+00 
0.0000000e+00 -6.4269261e-07 0.0000000e+00 
0.0000000e+00 -1.4529502e-06 0.0000000e+00 
0.0000000e+00 -9.4260895e-06 0.0000000e+00 
0.0000000e+00 -2.1040996e-05 0.0000000e+00 
0.0000000e+00 -9.8125247e-06 0.0000000e+00 
0.0000000e+00 -4.9468446e-05 0.0000000e+00 
0.0000000e+00 -6.6501336e-05 0.0000000e+00 
0.0000000e+00 -4.1483859e-06 0.0000000e+00 
0.0000000e+00 -3.5910243e-06 0.0000000e+00 
0.0000000e+00 -2.3333982e-05 0.0000000e+00 
0.0000000e+00 -7.7617879e-05 0.0000000e+00 
0.0000000e+00 -4.1181404e-05 0.0000000e+00 
0.0000000e+00 -3.5591180e-05 0.0000000e+00 
0.0000000e+00 -7.7112168e-07 0.0000000e+00 
0.0000000e+00 -4.4442328e-07 0.0000000e+00 
0.0000000e+00 -1.3825205e-05 0.0000000e+00 
0.0000000e+00 -2.4496809e-05 0.0000000e+00 
0.0000000e+00 -2.3054496e-05 0.0000000e+00 
0.0000000e+00 -1.1716380e-05 0.0000000e+00 
0.0000000e+00 -4.9149412e-06 0.0000000e+00 
0.0000000e+00 -4.8823098e-05 0.0000000e+00 
0.0000000e+00 -1.6559014e-05 0.0000000e+00 
0.0000000e+00 -3.4822973e-05 0.0000000e+00 
0.0000000e+00 -1.3250625e-06 0.0000000e+00 
0.0000000e+00 -8.7407216e-06 0.0000000e+00 
0.0000000e+00 -1.0785528e-06 0.0000000e+00 
0.0000000e+00 -1.0585295e-07 0.0000000e+00 
0.0000000e+00 -2.0077083e-05 0.0000000e+00 
0.0000000e+00 -5.0977310e-06 0.0000000e+00 
0.0000000e+00 -9.7477755e-07 0.0000000e+00 
0.0000000e+00 -6.2560525e-06 0.0000000e+00 
0.0000000e+00 -9.3705185e-06 0.0000000e+00 
0.0000000e+00 -3.2674106e-06 0.0000000e+00 
0.0000000e+00 -1.9195620e-06 0.0000000e+00 
0.0000000e+00 -1.2594660e-06 0.0000000e+00 
0.0000000e+00 -9.4267025e-06 0.0000000e+00 
0.0000000e+00 -6.4840365e-06 0.0000000e+00 
0.0000000e+00 -3.2832331e-06 0.0000000e+00 
0.0000000e+00 -6.8298118e-07 0.0000000e+00 
0.0000000e+00 -6.6178785e-07 0.0000000e+00 
0.0000000e+00 -1.1599931e-05 0.0000000e+00 
0.0000000e+00 -5.0620993e-06 0.0000000e+00 
-5.0393255e-06 -2.3007284e-05 8.5216234e-06 
-1.2409704e-05 -7.7802091e-05 6.1772776e-06 
-7.6065298e-06 -7.3291936e-05 -8.1241124e-06 
-9.2546242e-07 -1.5029613e-06 2.1960047e-06 
-1.3105840e-06 -8.0176442e-06 3.7920074e-06 
-2.8464458e-06 -1.4265937e-06 1.2852407e-06 
-4.4994610e-07 4.2414860e-07 3.2825378e-07 
-3.2827313e-06 -2.3616747e-06 -2.9494223e-07 
-7.3127563e-07 -1.5815370e-07 5.5297176e-07 
-4.3958726e-06 -3.1333260e-05 -8.2969764e-06 
-4.1133458e-07 2.4992428e-07 1.4685243e-07 
-2.8035925e-06 -3.5087596e-06 -1.4441333e-06 
-3.6476115e-06 -2.6948471e-06 -1.5730735e-07 
-7.2892399e-06 -1.0161207e-05 -6.0561092e-08 
-7.6157858e-06 -8.3819414e-06 -2.6544988e-06 
-7.8879611e-06 -2.0736450e-05 -1.7113429e-06 
-9.4981915e-06 -2.1832426e-05 1.0768348e-06 
-7.3386018e-06 -1.6587930e-05 -3.1611755e-06 
-1.4456807e-05 -5.4302011e-05 -6.5711924e-07 
-8.0812806e-06 -9.3887511e-06 1.8786449e-06 
-4.5733977e-06 -5.9323129e-06 1.9108431e-06 
-8.4077828e-06 -1.5317433e-05 3.4442999e-06 
-6.0442053e-06 -1.1004380e-05 4.5289507e-06 
-2.9978048e-06 -3.3993954e-06 2.3562225e-06 
-3.4676427e-06 -5.3714698e-06 3.4394745e-06 
-1.7733660e-06 -1.2886356e-06 1.6062886e-06 
-1.8632535e-06 -2.7521601e-06 2.6717321e-06 
-1.2180491e-06 -7.7551789e-07 1.4527304e-06 
-1.4287890e-06 -1.1531829e-06 1.8758639e-06 
-9.3160043e-07 -5.4599283e-08 8.5692875e-07 
-9.1471765e-07 -3.1502857e-08 8.8258980e-07 
-9.7839202e-06 -2.9966121e-05 7.3090678e-06 
-1.1631537e-05 -3.5526293e-05 5.7922625e-06 
-3.2580372e-06 -6.9300036e-06 4.0198270e-06 
-8.7878533e-07 9.6182129e-09 6.5830403e-07 
-3.7778805e-06 -8.4501271e-06 -1.9263600e-06 
-4.7256021e-06 -1.1759855e-05 5.0056224e-06 
-1.7978978e-06 -5.1179126e-07 9.9588556e-07 
-5.6465672e-07 4.3078273e-08 1.4667584e-07 
-3.0233061e-06 -1.8559247e-06 -1.1296838e-06 
-1.2616875e-05 -4.2619115e-05 -7.0098795e-06 
-1.0629105e-05 -3.0645780e-05 -6.4052242e-06 
-6.4902833e-06 -5.9573966e-05 7.8164430e-06 
-3.4401265e-07 4.8719812e-07 1.3015004e-07 
-1.1001039e-06 -3.9733086e-06 2.7047747e-06 
-1.4812503e-06 -3.8610820e-06 2.7670594e-06 
-2.5155698e-06 -1.1041727e-05 5.1401507e-06 
-4.4297881e-06 -1.5100855e-05 7.6380293e-06 
-8.2868246e-06 -9.9103781e-05 3.5686608e-07 
-1.4419719e-05 -8.0376296e-05 -6.7740561e-06 
-4.8994053e-07 -1.7522108e-06 2.5169635e-07 
-8.4089032e-07 5.8143726e-08 1.1229362e-06 
-3.9212573e-06 -1.5889853e-05 -4.7109447e-06 
-8.8143997e-07 3.7781632e-07 2.8873421e-07 
-1.2851049e-06 -1.6577892e-06 2.2198665e-06 
-8.3177456e-06 -5.0795541e-05 -1.1161367e-05 
-1.4787673e-05 -4.4047036e-05 1.5560736e-06 
-6.9358902e-07 -9.0343313e-08 5.8527928e-07 
-6.7552583e-06 -3.8982722e-05 1.0035436e-05 
-5.4935890e-06 -7.1094946e-06 -2.4441442e-06 
-1.5722485e-06 -1.1760176e-06 -7.1542348e-07 
-2.5026949e-07 3.7337142e-07 1.0060095e-07 
-1.9195179e-06 -1.2075634e-06 1.4537375e-06 
-9.9956833e-07 -3.4292682e-07 1.2294867e-06 
-6.0867978e-06 -1.7013395e-05 -4.9167061e-06 
-1.0501803e-05 -2.3520552e-05 1.8623633e-06 
-6.0665963e-07 4.1675480e-07 4.1667960e-07 
-8.5811342e-07 6.1527999e-08 9.1620115e-07 
-6.3204340e-07 -4.3496379e-07 1.1796520e-07 
-6.9034190e-06 -2.0665260e-05 7.6539827e-06 
-3.2787464e-06 -1.1668980e-05 -2.7712263e-06 
-5.2389532e-07 -1.5769459e-06 1.5216073e-06 
-4.3314839e-07 -8.7475534e-08 1.2351979e-06 
-6.4342117e-07 -5.8533556e-06 2.3764348e-06 
-8.5927275e-07 -1.0018925e-05 2.3487466e-06 
-6.8265098e-07 -7.1001693e-07 7.3873457e-07 
-5.8138244e-07 -1.3967525e-05 2.4488600e-06 
-1.4279716e-06 -2.0897358e-05 4.3863583e-06 
-7.1921096e-07 -3.2680851e-05 4.8670336e-06 
-3.2431058e-06 -5.3885306e-05 7.8609328e-06 
-8.1793278e-06 -9.3663395e-05 4.7926433e-06 
-7.3050414e-06 -1.1227743e-04 3.1934262e-06 
-1.2113411e-05 -1.3618216e-04 -1.1766047e-06 
-9.5221121e-06 -1.2122736e-04 -2.5699178e-06 
-5.4332331e-06 -8.4501786e-05 -4.6818345e-06 
-2.3238888e-06 -5.9276899e-05 -8.2924944e-06 
-1.9481624e-06 -3.6001966e-05 -8.0660138e-06 
-1.4541536e-06 -2.0168620e-05 -4.9575169e-06 
-2.3250315e-07 -2.1655269e-06 1.5822948e-07 
3.2729181e-07 -7.5491795e-07 -7.5519080e-07 
1.3449206e-06 -4.7850713e-06 -2.3869861e-06 
6.3829848e-06 -2.3581766e-05 -5.9825297e-06 
9.1949723e-06 -3.6571186e-05 7.3162522e-07 
5.1874404e-06 -1.9289682e-05 4.5532156e-06 
5.3499605e-07 -1.4213396e-07 -7.3675676e-07 
1.7925980e-06 -1.6683128e-06 -1.6002867e-06 
6.4067990e-06 -1.1979784e-05 -1.8728576e-06 
1.8069647e-06 -1.7507977e-05 -3.6853880e-06 
1.2132317e-07 -4.2329161e-06 -5.9323565e-07 
-4.1618350e-08 -4.0861042e-07 3.8161573e-07 
6.0349121e-06 -8.7375292e-06 2.2596523e-06 
1.1540592e-07 1.5849102e-07 -1.2309384e-07 
6.6060970e-06 -7.4925571e-05 -6.5707854e-06 
2.6077732e-06 -5.9812104e-05 6.5281920e-06 
1.4821062e-07 -1.0719549e-05 -4.4543069e-07 
1.7526578e-06 -7.2979287e-06 -1.9276922e-06 
5.7661754e-07 -1.1754630e-06 -6.7480852e-07 
2.1314333e-06 -4.0512150e-05 -5.3804338e-06 
3.0195954e-06 -7.5816952e-06 -3.8918602e-06 
-6.8216018e-08 -3.5354697e-07 2.9865657e-07 
2.5104291e-06 -2.1474862e-06 -1.1197548e-06 
2.3820311e-07 -2.8929817e-05 4.8627248e-06 
1.7843638e-07 2.0399162e-07 -2.0674773e-07 
1.8723947e-06 -2.2693293e-06 6.9462072e-07 
7.0054182e-07 -2.1506046e-06 -1.5817737e-06 
4.7058320e-06 -6.9891057e-06 -2.9674868e-06 
4.9244784e-07 -2.8350712e-07 -7.2878959e-07 
1.1114959e-06 -1.3415421e-06 -1.3830536e-06 
3.4549436e-07 -1.1655005e-06 -1.8700696e-07 
1.6815453e-06 -2.4084143e-06 -8.5215575e-08 
5.4357820e-06 -2.8682905e-05 -5.0587784e-07 
6.4048495e-06 -9.0878151e-05 1.1773262e-06 
2.8583233e-06 -2.2595015e-05 -1.7560026e-06 
3.6092727e-06 -5.5270566e-06 2.0202970e-06 
6.7228189e-06 -2.6549769e-05 2.4358760e-06 
1.5611955e-07 -1.4789697e-07 -3.1156054e-07 
4.2491146e-07 1.6969457e-07 -3.9166696e-07 
5.5551819e-08 -2.3624406e-07 -1.9509341e-07 
5.2561863e-06 -2.6220492e-05 -2.3802525e-06 
9.9307044e-07 -7.1455179e-06 -2.9153978e-06 
1.5725453e-06 -1.1416950e-05 1.3232276e-06 
5.2505961e-06 -2.6713331e-05 4.3802725e-06 
-2.1605242e-08 -7.9290876e-06 1.1793365e-07 
4.0784935e-09 8.4460117e-10 1.0414993e-07 
1.6341132e-06 -5.9522517e-06 -1.0575239e-06 
4.6142577e-07 -6.5323427e-09 -4.0591885e-07 
6.4305641e-06 -1.5302894e-05 2.0914288e-06 
-4.0756632e-08 2.4837021e-07 -9.2052026e-08 
2.7325511e-06 -1.3844936e-05 -4.5853462e-06 
4.0047770e-08 4.4409077e-07 -9.3608534e-08 
2.8887996e-06 -2.6761811e-06 4.7527615e-07 
1.2506256e-06 -3.0155896e-05 7.7526812e-07 
2.9000200e-06 -4.7513804e-05 -1.6636603e-06 
3.1935406e-06 -3.8667920e-05 -5.9934173e-06 
6.4278715e-06 -1.2217125e-05 -1.9895065e-06 
2.3391904e-06 -1.2070906e-05 3.1285638e-06 
-5.0792991e-08 3.5146837e-07 -4.6323936e-09 
7.4980072e-08 -3.2157408e-07 -9.4993453e-08 
8.2782782e-07 -3.9722258e-07 -5.0347825e-07 
7.5428665e-07 -3.2188882e-06 -4.2579597e-07 
2.8901929e-06 -2.9017481e-06 -3.9603697e-07 
-1.6065745e-07 -5.6392889e-07 1.9025364e-07 