# vtk DataFile Version 4.0
vtk output
ASCII
DATASET UNSTRUCTURED_GRID
POINTS 460 float
0.0000000e+00 0.0000000e+00 0.0000000e+00 
5.0000000e+00 0.0000000e+00 0.0000000e+00 
5.0000000e+00 3.0000000e+00 0.0000000e+00 
0.0000000e+00 3.0000000e+00 0.0000000e+00 
0.0000000e+00 0.0000000e+00 1.0000000e+01 
5.0000000e+00 0.0000000e+00 1.0000000e+01 
5.0000000e+00 3.0000000e+00 1.0000000e+01 
0.0000000e+00 3.0000000e+00 1.0000000e+01 
1.0000000e+00 3.0000000e+00 -5.0000000e+00 
1.0000000e+00 3.0000000e+00 -4.5000000e+00 
1.0000000e+00 3.0000000e+00 -4.0000000e+00 
1.0000000e+00 3.0000000e+00 -3.5000000e+00 
1.0000000e+00 3.0000000e+00 -3.0000000e+00 
1.0000000e+00 3.0000000e+00 -2.5000000e+00 
1.0000000e+00 3.0000000e+00 -2.0000000e+00 
1.0000000e+00 3.0000000e+00 -1.5000000e+00 
1.0000000e+00 3.0000000e+00 -1.0000000e+00 
1.0000000e+00 3.0000000e+00 -5.0000000e-01 
1.0000000e+00 3.0000000e+00 0.0000000e+00 
1.0000000e+00 3.0000000e+00 5.0000000e-01 
1.0000000e+00 3.0000000e+00 1.0000000e+00 
1.0000000e+00 3.0000000e+00 1.5000000e+00 
1.0000000e+00 3.0000000e+00 2.0000000e+00 
1.0000000e+00 3.0000000e+00 2.5000000e+00 
1.0000000e+00 3.0000000e+00 3.0000000e+00 
1.0000000e+00 3.0000000e+00 3.5000000e+00 
1.0000000e+00 3.0000000e+00 4.0000000e+00 
1.0000000e+00 3.0000000e+00 4.5000000e+00 
1.0000000e+00 3.0000000e+00 5.0000000e+00 
1.0000000e+00 3.0000000e+00 5.5000000e+00 
1.0000000e+00 3.0000000e+00 6.0000000e+00 
1.0000000e+00 3.0000000e+00 6.5000000e+00 
1.0000000e+00 3.0000000e+00 7.0000000e+00 
1.0000000e+00 3.0000000e+00 7.5000000e+00 
1.0000000e+00 3.0000000e+00 8.0000000e+00 
1.0000000e+00 3.0000000e+00 8.5000000e+00 
1.0000000e+00 3.0000000e+00 9.0000000e+00 
1.0000000e+00 3.0000000e+00 9.5000000e+00 
1.0000000e+00 3.0000000e+00 1.0000000e+01 
1.0000000e+00 3.0000000e+00 1.0500000e+01 
1.0000000e+00 3.0000000e+00 1.1000000e+01 
1.0000000e+00 3.0000000e+00 1.1500000e+01 
1.0000000e+00 3.0000000e+00 1.2000000e+01 
1.0000000e+00 3.0000000e+00 1.2500000e+01 
1.0000000e+00 3.0000000e+00 1.3000000e+01 
1.0000000e+00 3.0000000e+00 1.3500000e+01 
1.0000000e+00 3.0000000e+00 1.4000000e+01 
1.0000000e+00 3.0000000e+00 1.4500000e+01 
1.0000000e+00 3.0250001e+00 -5.0000000e+00 
1.0000000e+00 3.0250001e+00 -4.5000000e+00 
1.0000000e+00 3.0250001e+00 -4.0000000e+00 
1.0000000e+00 3.0250001e+00 -3.5000000e+00 
1.0000000e+00 3.0250001e+00 -3.0000000e+00 
1.0000000e+00 3.0250001e+00 -2.5000000e+00 
1.0000000e+00 3.0250001e+00 -2.0000000e+00 
1.0000000e+00 3.0250001e+00 -1.5000000e+00 
1.0000000e+00 3.0250001e+00 -1.0000000e+00 
1.0000000e+00 3.0250001e+00 -5.0000000e-01 
1.0000000e+00 3.0250001e+00 0.0000000e+00 
1.0000000e+00 3.0250001e+00 5.0000000e-01 
1.0000000e+00 3.0250001e+00 1.0000000e+00 
1.0000000e+00 3.0250001e+00 1.5000000e+00 
1.0000000e+00 3.0250001e+00 2.0000000e+00 
1.0000000e+00 3.0250001e+00 2.5000000e+00 
1.0000000e+00 3.0250001e+00 3.0000000e+00 
1.0000000e+00 3.0250001e+00 3.5000000e+00 
1.0000000e+00 3.0250001e+00 4.0000000e+00 
1.0000000e+00 3.0250001e+00 4.5000000e+00 
1.0000000e+00 3.0250001e+00 5.0000000e+00 
1.0000000e+00 3.0250001e+00 5.5000000e+00 
1.0000000e+00 3.0250001e+00 6.0000000e+00 
1.0000000e+00 3.0250001e+00 6.5000000e+00 
1.0000000e+00 3.0250001e+00 7.0000000e+00 
1.0000000e+00 3.0250001e+00 7.5000000e+00 
1.0000000e+00 3.0250001e+00 8.0000000e+00 
1.0000000e+00 3.0250001e+00 8.5000000e+00 
1.0000000e+00 3.0250001e+00 9.0000000e+00 
1.0000000e+00 3.0250001e+00 9.5000000e+00 
1.0000000e+00 3.0250001e+00 1.0000000e+01 
1.0000000e+00 3.0250001e+00 1.0500000e+01 
1.0000000e+00 3.0250001e+00 1.1000000e+01 
1.0000000e+00 3.0250001e+00 1.1500000e+01 
1.0000000e+00 3.0250001e+00 1.2000000e+01 
1.0000000e+00 3.0250001e+00 1.2500000e+01 
1.0000000e+00 3.0250001e+00 1.3000000e+01 
1.0000000e+00 3.0250001e+00 1.3500000e+01 
1.0000000e+00 3.0250001e+00 1.4000000e+01 
1.0000000e+00 3.0250001e+00 1.4500000e+01 
1.0000000e+00 -2.0000000e+00 -5.0000000e+00 
1.0000000e+00 -2.0000000e+00 -4.5000000e+00 
1.0000000e+00 -2.0000000e+00 -4.0000000e+00 
1.0000000e+00 -2.0000000e+00 -3.5000000e+00 
1.0000000e+00 -2.0000000e+00 -3.0000000e+00 
1.0000000e+00 -2.0000000e+00 -2.5000000e+00 
1.0000000e+00 -2.0000000e+00 -2.0000000e+00 
1.0000000e+00 -2.0000000e+00 -1.5000000e+00 
1.0000000e+00 -2.0000000e+00 -1.0000000e+00 
1.0000000e+00 -2.0000000e+00 -5.0000000e-01 
1.0000000e+00 -2.0000000e+00 1.0500000e+01 
1.0000000e+00 -2.0000000e+00 1.1000000e+01 
1.0000000e+00 -2.0000000e+00 1.1500000e+01 
1.0000000e+00 -2.0000000e+00 1.2000000e+01 
1.0000000e+00 -2.0000000e+00 1.2500000e+01 
1.0000000e+00 -2.0000000e+00 1.3000000e+01 
1.0000000e+00 -2.0000000e+00 1.3500000e+01 
1.0000000e+00 -2.0000000e+00 1.4000000e+01 
1.0000000e+00 -2.0000000e+00 1.4500000e+01 
1.0000000e+00 0.0000000e+00 0.0000000e+00 
2.0000000e+00 0.0000000e+00 0.0000000e+00 
3.0000000e+00 0.0000000e+00 0.0000000e+00 
4.0000000e+00 0.0000000e+00 0.0000000e+00 
5.0000000e+00 1.0000000e+00 0.0000000e+00 
5.0000000e+00 2.0000000e+00 0.0000000e+00 
0.0000000e+00 2.0000000e+00 0.0000000e+00 
0.0000000e+00 1.0000000e+00 0.0000000e+00 
0.0000000e+00 0.0000000e+00 1.0000000e+00 
0.0000000e+00 0.0000000e+00 2.0000000e+00 
0.0000000e+00 0.0000000e+00 3.0000000e+00 
0.0000000e+00 0.0000000e+00 4.0000000e+00 
0.0000000e+00 0.0000000e+00 5.0000000e+00 
0.0000000e+00 0.0000000e+00 6.0000000e+00 
0.0000000e+00 0.0000000e+00 7.0000000e+00 
0.0000000e+00 0.0000000e+00 8.0000000e+00 
0.0000000e+00 0.0000000e+00 9.0000000e+00 
5.0000000e+00 0.0000000e+00 1.0000000e+00 
5.0000000e+00 0.0000000e+00 2.0000000e+00 
5.0000000e+00 0.0000000e+00 3.0000000e+00 
5.0000000e+00 0.0000000e+00 4.0000000e+00 
5.0000000e+00 0.0000000e+00 5.0000000e+00 
5.0000000e+00 0.0000000e+00 6.0000000e+00 
5.0000000e+00 0.0000000e+00 7.0000000e+00 
5.0000000e+00 0.0000000e+00 8.0000000e+00 
5.0000000e+00 0.0000000e+00 9.0000000e+00 
1.0000000e+00 0.0000000e+00 1.0000000e+01 
2.0000000e+00 0.0000000e+00 1.0000000e+01 
3.0000000e+00 0.0000000e+00 1.0000000e+01 
4.0000000e+00 0.0000000e+00 1.0000000e+01 
5.0000000e+00 3.0000000e+00 1.0000000e+00 
5.0000000e+00 3.0000000e+00 2.0000000e+00 
5.0000000e+00 3.0000000e+00 3.0000000e+00 
5.0000000e+00 3.0000000e+00 4.0000000e+00 
5.0000000e+00 3.0000000e+00 5.0000000e+00 
5.0000000e+00 3.0000000e+00 6.0000000e+00 
5.0000000e+00 3.0000000e+00 7.0000000e+00 
5.0000000e+00 3.0000000e+00 8.0000000e+00 
5.0000000e+00 3.0000000e+00 9.0000000e+00 
5.0000000e+00 1.0000000e+00 1.0000000e+01 
5.0000000e+00 2.0000000e+00 1.0000000e+01 
0.0000000e+00 3.0000000e+00 1.0000000e+00 
0.0000000e+00 3.0000000e+00 2.0000000e+00 
0.0000000e+00 3.0000000e+00 3.0000000e+00 
0.0000000e+00 3.0000000e+00 4.0000000e+00 
0.0000000e+00 3.0000000e+00 5.0000000e+00 
0.0000000e+00 3.0000000e+00 6.0000000e+00 
0.0000000e+00 3.0000000e+00 7.0000000e+00 
0.0000000e+00 3.0000000e+00 8.0000000e+00 
0.0000000e+00 3.0000000e+00 9.0000000e+00 
0.0000000e+00 2.0000000e+00 1.0000000e+01 
0.0000000e+00 1.0000000e+00 1.0000000e+01 
4.0000000e+00 3.0000000e+00 0.0000000e+00 
3.0000000e+00 3.0000000e+00 0.0000000e+00 
2.0000000e+00 3.0000000e+00 0.0000000e+00 
4.0000000e+00 3.0000000e+00 1.0000000e+01 
3.0000000e+00 3.0000000e+00 1.0000000e+01 
2.0000000e+00 3.0000000e+00 1.0000000e+01 
4.0618000e+00 1.5000000e+00 0.0000000e+00 
1.5046000e+00 7.6549745e-01 0.0000000e+00 
2.5000000e+00 2.1339746e+00 0.0000000e+00 
1.5046000e+00 2.2345026e+00 0.0000000e+00 
2.4957771e+00 8.1560516e-01 0.0000000e+00 
3.4707544e+00 2.2336540e+00 0.0000000e+00 
3.4700506e+00 7.5794268e-01 0.0000000e+00 
8.6322361e-01 1.5000000e+00 0.0000000e+00 
2.0000000e+00 1.5000000e+00 0.0000000e+00 
2.9960666e+00 1.4974480e+00 0.0000000e+00 
4.2679491e+00 7.3205084e-01 0.0000000e+00 
4.2679491e+00 2.2679491e+00 0.0000000e+00 
7.2695929e-01 2.2730408e+00 0.0000000e+00 
7.2695929e-01 7.2695929e-01 0.0000000e+00 
4.1822505e+00 0.0000000e+00 2.5515697e+00 
4.2017918e+00 0.0000000e+00 4.4725966e+00 
4.1114569e+00 0.0000000e+00 6.5092020e+00 
8.6602539e-01 0.0000000e+00 3.5000000e+00 
8.4778279e-01 0.0000000e+00 5.4684029e+00 
8.9629614e-01 0.0000000e+00 7.5867257e+00 
2.5566745e+00 0.0000000e+00 8.1853306e-01 
2.4918270e+00 0.0000000e+00 9.1386929e+00 
8.4677207e-01 0.0000000e+00 1.5042374e+00 
4.0943027e+00 0.0000000e+00 8.4081745e+00 
8.6281651e-01 0.0000000e+00 2.5007062e+00 
1.7315160e+00 0.0000000e+00 3.0001178e+00 
1.7319617e+00 0.0000000e+00 4.0000196e+00 
2.5980761e+00 0.0000000e+00 3.5000000e+00 
2.5536871e+00 0.0000000e+00 4.4963923e+00 
2.5928419e+00 0.0000000e+00 2.4239938e+00 
1.5037409e+00 0.0000000e+00 9.1535149e+00 
1.8433737e+00 0.0000000e+00 8.1858873e+00 
3.0000000e+00 0.0000000e+00 8.2679491e+00 
2.5000000e+00 0.0000000e+00 7.4019237e+00 
3.5042722e+00 0.0000000e+00 7.4271150e+00 
3.0310018e+00 0.0000000e+00 6.5282087e+00 
2.0373929e+00 0.0000000e+00 6.5307913e+00 
3.4767809e+00 0.0000000e+00 5.8031492e+00 
2.5452602e+00 0.0000000e+00 5.5720768e+00 
1.6456656e+00 0.0000000e+00 1.9697139e+00 
8.6297011e-01 0.0000000e+00 4.4947371e+00 
1.0111579e+00 0.0000000e+00 6.5282545e+00 
3.4994321e+00 0.0000000e+00 8.4691072e-01 
4.1860156e+00 0.0000000e+00 3.5040276e+00 
1.7320508e+00 0.0000000e+00 5.0000000e+00 
4.0544066e+00 0.0000000e+00 1.5781221e+00 
1.5817389e+00 0.0000000e+00 9.3943578e-01 
8.3166349e-01 0.0000000e+00 8.5090933e+00 
3.4686174e+00 0.0000000e+00 9.1752682e+00 
3.0709300e+00 0.0000000e+00 1.5799091e+00 
3.3927374e+00 0.0000000e+00 3.0399952e+00 
3.3826034e+00 0.0000000e+00 3.9747651e+00 
4.3420062e+00 0.0000000e+00 7.4688983e+00 
3.4023225e+00 0.0000000e+00 4.9314723e+00 
1.6740381e+00 0.0000000e+00 7.3014426e+00 
4.2715640e+00 0.0000000e+00 5.4758859e+00 
1.6225953e+00 0.0000000e+00 5.8104177e+00 
4.2679491e+00 0.0000000e+00 9.2679491e+00 
7.3205084e-01 0.0000000e+00 7.3205084e-01 
4.2679491e+00 0.0000000e+00 7.3205084e-01 
7.3205084e-01 0.0000000e+00 9.2679491e+00 
3.4586334e+00 0.0000000e+00 2.2347178e+00 
2.2895701e+00 0.0000000e+00 1.5463171e+00 
5.0000000e+00 2.2345026e+00 1.5046000e+00 
[...]
POINT_DATA 460
FIELD FieldData 2
DISPLACEMENT 3 460  float
0.0000000e+00 0.0000000e+00 0.0000000e+00 
0.0000000e+00 0.0000000e+00 0.0000000e+00 
0.0000000e+00 3.0021548e-07 0.0000000e+00 
0.0000000e+00 -1.0635202e-07 0.0000000e+00 
0.0000000e+00 0.0000000e+00 0.0000000e+00 
0.0000000e+00 0.0000000e+00 0.0000000e+00 
0.0000000e+00 4.4426258e-07 0.0000000e+00 
0.0000000e+00 -3.1760669e-06 0.0000000e+00 
0.0000000e+00 -2.2096695e-07 0.0000000e+00 
0.0000000e+00 -2.1721669e-07 0.0000000e+00 
0.0000000e+00 -2.0586116e-07 0.0000000e+00 
0.0000000e+00 -1.8686538e-07 0.0000000e+00 
0.0000000e+00 -1.6037814e-07 0.0000000e+00 
0.0000000e+00 -1.2690916e-07 0.0000000e+00 
0.0000000e+00 -8.7748404e-08 0.0000000e+00 
0.0000000e+00 -4.5671293e-08 0.0000000e+00 
0.0000000e+00 -5.9174265e-09 0.0000000e+00 
0.0000000e+00 2.2697737e-08 0.0000000e+00 
0.0000000e+00 2.6938796e-08 0.0000000e+00 
-1.0630362e-07 -1.0796799e-08 3.7201389e-07 
-2.6663312e-07 -1.1921061e-07 1.0281085e-06 
-3.4507926e-07 -2.9829488e-07 1.5642122e-06 
-6.5483209e-07 -6.6321496e-07 2.6056523e-06 
-1.3089181e-06 -1.8478947e-06 4.3859936e-06 
-1.7318678e-06 -5.6297908e-06 6.6317198e-06 
-1.7085817e-06 -1.6124455e-05 8.7929557e-06 
-5.7757297e-06 -4.0826471e-05 1.0900379e-05 
-8.0576956e-06 -8.8266723e-05 1.8809855e-05 
-7.9816919e-06 -1.6215314e-04 1.5839232e-05 
5.0439223e-07 -2.4098539e-04 8.0992186e-06 
-6.6158515e-07 -2.4589594e-04 -2.3096843e-06 
-2.7178478e-07 -1.6955906e-04 -1.3984309e-05 
-2.4062078e-06 -9.3982591e-05 -2.3361979e-05 
-3.8582684e-06 -4.4351294e-05 -1.3518697e-05 
-3.5623907e-06 -1.8553397e-05 -1.0256885e-05 
-1.6390106e-06 -7.1488626e-06 -6.5220270e-06 
-9.8140288e-07 -2.8082241e-06 -4.2949996e-06 
-6.3347585e-07 -1.3655582e-06 -2.2120894e-06 
0.0000000e+00 -8.2222954e-07 0.0000000e+00 
0.0000000e+00 -4.4001405e-07 0.0000000e+00 
0.0000000e+00 -1.8411765e-07 0.0000000e+00 
0.0000000e+00 -2.9457361e-08 0.0000000e+00 
0.0000000e+00 4.4968832e-08 0.0000000e+00 
0.0000000e+00 6.6713362e-08 0.0000000e+00 
0.0000000e+00 6.0376649e-08 0.0000000e+00 
0.0000000e+00 4.4165962e-08 0.0000000e+00 
0.0000000e+00 2.9878887e-08 0.0000000e+00 
0.0000000e+00 2.4263146e-08 0.0000000e+00 
0.0000000e+00 -2.2085031e-07 0.0000000e+00 
0.0000000e+00 -2.1715046e-07 0.0000000e+00 
0.0000000e+00 -2.0593686e-07 0.0000000e+00 
0.0000000e+00 -1.8701738e-07 0.0000000e+00 
0.0000000e+00 -1.6050193e-07 0.0000000e+00 
0.0000000e+00 -1.2696644e-07 0.0000000e+00 
0.0000000e+00 -8.7739977e-08 0.0000000e+00 
0.0000000e+00 -4.5597186e-08 0.0000000e+00 
0.0000000e+00 -5.7809340e-09 0.0000000e+00 
0.0000000e+00 2.2869521e-08 0.0000000e+00 
0.0000000e+00 2.7102617e-08 0.0000000e+00 
0.0000000e+00 -1.2665391e-08 0.0000000e+00 
0.0000000e+00 -1.1764288e-07 0.0000000e+00 
0.0000000e+00 -2.8627312e-07 0.0000000e+00 
0.0000000e+00 -6.3450580e-07 0.0000000e+00 
0.0000000e+00 -1.7793317e-06 0.0000000e+00 
0.0000000e+00 -5.5157843e-06 0.0000000e+00 
0.0000000e+00 -1.6048702e-05 0.0000000e+00 
0.0000000e+00 -4.0834406e-05 0.0000000e+00 
0.0000000e+00 -8.8822228e-05 0.0000000e+00 
0.0000000e+00 -1.6394291e-04 0.0000000e+00 
0.0000000e+00 -2.4394701e-04 0.0000000e+00 
0.0000000e+00 -2.5062109e-04 0.0000000e+00 
0.0000000e+00 -1.7235300e-04 0.0000000e+00 
0.0000000e+00 -9.4898503e-05 0.0000000e+00 
0.0000000e+00 -4.4586064e-05 0.0000000e+00 
0.0000000e+00 -1.8465416e-05 0.0000000e+00 
0.0000000e+00 -7.0304291e-06 0.0000000e+00 
0.0000000e+00 -2.7323988e-06 0.0000000e+00 
0.0000000e+00 -1.3204221e-06 0.0000000e+00 
0.0000000e+00 -7.9648515e-07 0.0000000e+00 
0.0000000e+00 -4.4176372e-07 0.0000000e+00 
0.0000000e+00 -1.8483445e-07 0.0000000e+00 
0.0000000e+00 -2.9555277e-08 0.0000000e+00 
0.0000000e+00 4.5164679e-08 0.0000000e+00 
0.0000000e+00 6.6991092e-08 0.0000000e+00 
0.0000000e+00 6.0624444e-08 0.0000000e+00 
0.0000000e+00 4.4345512e-08 0.0000000e+00 
0.0000000e+00 2.9999278e-08 0.0000000e+00 
0.0000000e+00 2.4360418e-08 0.0000000e+00 
0.0000000e+00 0.0000000e+00 0.0000000e+00 
0.0000000e+00 0.0000000e+00 0.0000000e+00 
0.0000000e+00 0.0000000e+00 0.0000000e+00 
0.0000000e+00 0.0000000e+00 0.0000000e+00 
0.0000000e+00 0.0000000e+00 0.0000000e+00 
0.0000000e+00 0.0000000e+00 0.0000000e+00 
0.0000000e+00 0.0000000e+00 0.0000000e+00 
0.0000000e+00 0.0000000e+00 0.0000000e+00 
0.0000000e+00 0.0000000e+00 0.0000000e+00 
0.0000000e+00 0.0000000e+00 0.0000000e+00 
0.0000000e+00 0.0000000e+00 0.0000000e+00 
0.0000000e+00 0.0000000e+00 0.0000000e+00 
0.0000000e+00 0.0000000e+00 0.0000000e+00 
0.0000000e+00 0.0000000e+00 0.0000000e+00 
0.0000000e+00 0.0000000e+00 0.0000000e+00 
0.0000000e+00 0.0000000e+00 0.0000000e+00 
0.0000000e+00 0.0000000e+00 0.0000000e+00 
0.0000000e+00 0.0000000e+00 0.0000000e+00 
0.0000000e+00 0.0000000e+00 0.0000000e+00 
0.0000000e+00 0.0000000e+00 0.0000000e+00 
0.0000000e+00 0.0000000e+00 0.0000000e+00 
0.0000000e+00 0.0000000e+00 0.0000000e+00 
0.0000000e+00 0.0000000e+00 0.0000000e+00 
0.0000000e+00 1.2275541e-07 0.0000000e+00 
0.0000000e+00 2.6158733e-07 0.0000000e+00 
0.0000000e+00 -1.1176004e-07 0.0000000e+00 
0.0000000e+00 -1.1203826e-07 0.0000000e+00 
0.0000000e+00 0.0000000e+00 0.0000000e+00 
0.0000000e+00 0.0000000e+00 0.0000000e+00 
0.0000000e+00 0.0000000e+00 0.0000000e+00 
0.0000000e+00 0.0000000e+00 0.0000000e+00 
0.0000000e+00 0.0000000e+00 0.0000000e+00 
0.0000000e+00 0.0000000e+00 0.0000000e+00 
0.0000000e+00 0.0000000e+00 0.0000000e+00 
0.0000000e+00 0.0000000e+00 0.0000000e+00 
0.0000000e+00 0.0000000e+00 0.0000000e+00 
0.0000000e+00 0.0000000e+00 0.0000000e+00 
0.0000000e+00 0.0000000e+00 0.0000000e+00 
0.0000000e+00 0.0000000e+00 0.0000000e+00 
0.0000000e+00 0.0000000e+00 0.0000000e+00 
0.0000000e+00 0.0000000e+00 0.0000000e+00 
0.0000000e+00 0.0000000e+00 0.0000000e+00 
0.0000000e+00 0.0000000e+00 0.0000000e+00 
0.0000000e+00 0.0000000e+00 0.0000000e+00 
0.0000000e+00 0.0000000e+00 0.0000000e+00 
0.0000000e+00 0.0000000e+00 0.0000000e+00 
0.0000000e+00 0.0000000e+00 0.0000000e+00 
0.0000000e+00 0.0000000e+00 0.0000000e+00 
0.0000000e+00 0.0000000e+00 0.0000000e+00 
0.0000000e+00 2.6115038e-07 0.0000000e+00 
0.0000000e+00 2.8329038e-07 0.0000000e+00 
0.0000000e+00 -2.3816364e-07 0.0000000e+00 
0.0000000e+00 -4.0350884e-07 0.0000000e+00 
0.0000000e+00 -1.2562965e-06 0.0000000e+00 
0.0000000e+00 -3.3819751e-09 0.0000000e+00 
0.0000000e+00 -8.8842160e-07 0.0000000e+00 
0.0000000e+00 2.8450060e-07 0.0000000e+00 
0.0000000e+00 2.5849894e-07 0.0000000e+00 
0.0000000e+00 3.2314986e-08 0.0000000e+00 
0.0000000e+00 3.3162689e-07 0.0000000e+00 
0.0000000e+00 -4.8600339e-07 0.0000000e+00 
0.0000000e+00 -2.3277228e-06 0.0000000e+00 
0.0000000e+00 -1.0609585e-05 0.0000000e+00 
0.0000000e+00 -3.7217065e-05 0.0000000e+00 
0.0000000e+00 -8.1158942e-05 0.0000000e+00 
0.0000000e+00 -1.0589189e-04 0.0000000e+00 
0.0000000e+00 -6.0906979e-05 0.0000000e+00 
0.0000000e+00 -2.1831413e-05 0.0000000e+00 
0.0000000e+00 -6.7029141e-06 0.0000000e+00 
0.0000000e+00 -3.0244553e-06 0.0000000e+00 
0.0000000e+00 -1.9289182e-06 0.0000000e+00 
0.0000000e+00 3.3154538e-07 0.0000000e+00 
0.0000000e+00 2.5072919e-07 0.0000000e+00 
0.0000000e+00 1.4754475e-07 0.0000000e+00 
0.0000000e+00 1.0841599e-08 0.0000000e+00 
0.0000000e+00 -1.0104691e-06 0.0000000e+00 
0.0000000e+00 -1.7870619e-06 0.0000000e+00 
0.0000000e+00 2.6302558e-07 0.0000000e+00 
0.0000000e+00 -2.2959050e-08 0.0000000e+00 
0.0000000e+00 3.7852629e-07 0.0000000e+00 
0.0000000e+00 2.7022304e-07 0.0000000e+00 
0.0000000e+00 8.7611831e-08 0.0000000e+00 
0.0000000e+00 3.9191045e-07 0.0000000e+00 
0.0000000e+00 4.7188301e-08 0.0000000e+00 
0.0000000e+00 9.3515013e-08 0.0000000e+00 
0.0000000e+00 2.3524694e-07 0.0000000e+00 
0.0000000e+00 2.4550059e-07 0.0000000e+00 
0.0000000e+00 9.8035237e-08 0.0000000e+00 
0.0000000e+00 3.3771806e-07 0.0000000e+00 
0.0000000e+00 7.8525943e-08 0.0000000e+00 
0.0000000e+00 -2.8983898e-08 0.0000000e+00 
0.0000000e+00 0.0000000e+00 0.0000000e+00 
0.0000000e+00 0.0000000e+00 0.0000000e+00 
0.0000000e+00 0.0000000e+00 0.0000000e+00 
0.0000000e+00 0.0000000e+00 0.0000000e+00 
0.0000000e+00 0.0000000e+00 0.0000000e+00 
0.0000000e+00 0.0000000e+00 0.0000000e+00 
0.0000000e+00 0.0000000e+00 0.0000000e+00 
0.0000000e+00 0.0000000e+00 0.0000000e+00 
0.0000000e+00 0.0000000e+00 0.0000000e+00 
0.0000000e+00 0.0000000e+00 0.0000000e+00 
0.0000000e+00 0.0000000e+00 0.0000000e+00 
0.0000000e+00 0.0000000e+00 0.0000000e+00 
0.0000000e+00 0.0000000e+00 0.0000000e+00 
0.0000000e+00 0.0000000e+00 0.0000000e+00 
0.0000000e+00 0.0000000e+00 0.0000000e+00 
0.0000000e+00 0.0000000e+00 0.0000000e+00 
0.0000000e+00 0.0000000e+00 0.0000000e+00 
0.0000000e+00 0.0000000e+00 0.0000000e+00 
0.0000000e+00 0.0000000e+00 0.0000000e+00 
0.0000000e+00 0.0000000e+00 0.0000000e+00 
0.0000000e+00 0.0000000e+00 0.0000000e+00 
0.0000000e+00 0.0000000e+00 0.0000000e+00 
0.0000000e+00 0.0000000e+00 0.0000000e+00 
0.0000000e+00 0.0000000e+00 0.0000000e+00 
0.0000000e+00 0.0000000e+00 0.0000000e+00 
0.0000000e+00 0.0000000e+00 0.0000000e+00 
0.0000000e+00 0.0000000e+00 0.0000000e+00 
0.0000000e+00 0.0000000e+00 0.0000000e+00 
0.0000000e+00 0.0000000e+00 0.0000000e+00 
0.0000000e+00 0.0000000e+00 0.0000000e+00 
0.0000000e+00 0.0000000e+00 0.0000000e+00 
0.0000000e+00 0.0000000e+00 0.0000000e+00 
0.0000000e+00 0.0000000e+00 0.0000000e+00 
0.0000000e+00 0.0000000e+00 0.0000000e+00 
0.0000000e+00 0.0000000e+00 0.0000000e+00 
0.0000000e+00 0.0000000e+00 0.0000000e+00 
0.0000000e+00 0.0000000e+00 0.0000000e+00 
0.0000000e+00 0.0000000e+00 0.0000000e+00 
0.0000000e+00 0.0000000e+00 0.0000000e+00 
0.0000000e+00 0.0000000e+00 0.0000000e+00 
0.0000000e+00 0.0000000e+00 0.0000000e+00 
0.0000000e+00 0.0000000e+00 0.0000000e+00 
0.0000000e+00 0.0000000e+00 0.0000000e+00 
0.0000000e+00 0.0000000e+00 0.0000000e+00 
0.0000000e+00 0.0000000e+00 0.0000000e+00 
0.0000000e+00 0.0000000e+00 0.0000000e+00 
0.0000000e+00 0.0000000e+00 0.0000000e+00 
0.0000000e+00 0.0000000e+00 0.0000000e+00 
0.0000000e+00 0.0000000e+00 0.0000000e+00 
0.0000000e+00 2.6917900e-07 0.0000000e+00 
0.0000000e+00 7.6532764e-08 0.0000000e+00 
0.0000000e+00 -1.0436846e-07 0.0000000e+00 
0.0000000e+00 -3.0591207e-07 0.0000000e+00 
0.0000000e+00 2.0101692e-07 0.0000000e+00 
0.0000000e+00 -6.0614589e-08 0.0000000e+00 
0.0000000e+00 -5.9735407e-07 0.0000000e+00 
0.0000000e+00 -9.6895587e-07 0.0000000e+00 
0.0000000e+00 -3.4888848e-07 0.0000000e+00 
0.0000000e+00 -6.4867123e-07 0.0000000e+00 
0.0000000e+00 2.0432962e-07 0.0000000e+00 
0.0000000e+00 -4.4831933e-07 0.0000000e+00 
0.0000000e+00 -5.9020866e-08 0.0000000e+00 
0.0000000e+00 -5.2136971e-07 0.0000000e+00 
0.0000000e+00 -5.0831606e-09 0.0000000e+00 
0.0000000e+00 -1.5088965e-07 0.0000000e+00 
0.0000000e+00 3.5673384e-07 0.0000000e+00 
0.0000000e+00 1.9631648e-07 0.0000000e+00 
0.0000000e+00 -6.8007677e-07 0.0000000e+00 
0.0000000e+00 -4.2175185e-07 0.0000000e+00 
0.0000000e+00 9.5623356e-08 0.0000000e+00 
0.0000000e+00 -6.3497271e-07 0.0000000e+00 
0.0000000e+00 -3.6377426e-07 0.0000000e+00 
0.0000000e+00 -1.7136469e-07 0.0000000e+00 
0.0000000e+00 7.1330355e-08 0.0000000e+00 
0.0000000e+00 4.9902553e-07 0.0000000e+00 
0.0000000e+00 -5.5956562e-08 0.0000000e+00 
0.0000000e+00 2.8853057e-07 0.0000000e+00 
0.0000000e+00 5.1048239e-08 0.0000000e+00 
0.0000000e+00 -5.1110733e-06 0.0000000e+00 
0.0000000e+00 -4.4245215e-07 0.0000000e+00 
0.0000000e+00 -2.5523173e-06 0.0000000e+00 
0.0000000e+00 -1.7828261e-05 0.0000000e+00 
0.0000000e+00 -1.3232771e-05 0.0000000e+00 
0.0000000e+00 -1.8499779e-05 0.0000000e+00 
0.0000000e+00 -8.1357488e-05 0.0000000e+00 
0.0000000e+00 -3.5107263e-05 0.0000000e+00 
0.0000000e+00 -8.2566621e-06 0.0000000e+00 
0.0000000e+00 -5.2184009e-06 0.0000000e+00 
0.0000000e+00 -5.1933752e-05 0.0000000e+00 
0.0000000e+00 -7.2172166e-05 0.0000000e+00 
0.0000000e+00 -4.6750676e-05 0.0000000e+00 
0.0000000e+00 -1.1950367e-05 0.0000000e+00 
0.0000000e+00 -1.2380699e-06 0.0000000e+00 
0.0000000e+00 -8.6040950e-07 0.0000000e+00 
0.0000000e+00 -5.8113919e-06 0.0000000e+00 
0.0000000e+00 -4.3729597e-05 0.0000000e+00 
0.0000000e+00 -2.0503585e-05 0.0000000e+00 
0.0000000e+00 -2.3463568e-05 0.0000000e+00 
0.0000000e+00 -8.5583561e-06 0.0000000e+00 
0.0000000e+00 -3.5920759e-05 0.0000000e+00 
0.0000000e+00 -2.4014229e-05 0.0000000e+00 
0.0000000e+00 -1.5475744e-05 0.0000000e+00 
0.0000000e+00 -2.2943661e-06 0.0000000e+00 
0.0000000e+00 -2.6839655e-06 0.0000000e+00 
0.0000000e+00 -3.1315156e-07 0.0000000e+00 
0.0000000e+00 -3.0448274e-07 0.0000000e+00 
0.0000000e+00 -4.8945267e-06 0.0000000e+00 
0.0000000e+00 -1.3179761e-06 0.0000000e+00 
0.0000000e+00 6.0283000e-08 0.0000000e+00 
0.0000000e+00 -8.9649149e-07 0.0000000e+00 
0.0000000e+00 -9.5953146e-07 0.0000000e+00 
0.0000000e+00 -9.4057833e-07 0.0000000e+00 
0.0000000e+00 1.5090616e-07 0.0000000e+00 
0.0000000e+00 -2.0385714e-07 0.0000000e+00 
0.0000000e+00 -1.6752261e-06 0.0000000e+00 
0.0000000e+00 -1.1622501e-06 0.0000000e+00 
0.0000000e+00 -3.7885644e-07 0.0000000e+00 
0.0000000e+00 -9.5359525e-08 0.0000000e+00 
0.0000000e+00 4.5924665e-07 0.0000000e+00 
0.0000000e+00 -1.5704118e-06 0.0000000e+00 
0.0000000e+00 -1.1635016e-06 0.0000000e+00 
-9.5092173e-06 -6.1833482e-05 9.5245268e-06 
-1.3583127e-05 -9.0641908e-05 -6.1664473e-06 
-5.7346319e-06 -2.4107869e-05 -1.0955318e-05 
-1.0862655e-06 -2.7376022e-06 3.6856086e-06 
-2.8248974e-06 -1.1571976e-05 7.5378925e-06 
-3.6357744e-06 -1.8294085e-06 7.5882531e-07 
-6.9948231e-07 -1.8271761e-07 5.7991673e-07 
-2.6007156e-06 -1.4146954e-06 -1.0192858e-06 
-3.1905552e-07 -2.0168385e-07 1.2033531e-06 
-1.6743827e-06 -7.1421578e-06 -5.2247647e-06 
-2.3910562e-07 2.1181219e-07 4.1944318e-07 
-1.2038151e-06 -5.9508767e-07 -1.1279866e-06 
-3.2043088e-06 -2.1815558e-06 -1.0740777e-06 
-6.1868104e-06 -7.5591643e-06 -2.3971759e-06 
-4.5161892e-06 -5.3556355e-06 -3.5099770e-06 
-5.7900420e-06 -1.3808282e-05 -3.0906929e-06 
-8.6676009e-06 -2.0489610e-05 -1.8282867e-06 
-3.5769763e-06 -7.1549198e-06 -3.2048090e-06 
-1.0179245e-05 -3.5611800e-05 -8.3517280e-06 
-8.5985530e-06 -1.0034579e-05 -7.1982475e-07 
-5.8841033e-06 -8.5538077e-06 5.1245735e-07 
-1.0844707e-05 -2.0859774e-05 1.2593497e-06 
-9.5542619e-06 -2.0833559e-05 3.3111826e-06 
-4.8508423e-06 -7.4438071e-06 2.5218696e-06 
-6.3105326e-06 -1.2869988e-05 4.7028070e-06 
-3.0905917e-06 -3.8698499e-06 2.1865735e-06 
-3.4735106e-06 -6.8028262e-06 4.6196474e-06 
-2.0536074e-06 -2.8710292e-06 2.5739855e-06 
-2.4058425e-06 -3.0794467e-06 3.5999481e-06 
-1.4229195e-06 -1.1693163e-06 1.8431109e-06 
-8.6169314e-07 -7.7282010e-07 1.9235920e-06 
-1.4831679e-05 -5.5202912e-05 1.6454234e-06 
-1.5096537e-05 -4.7150894e-05 -7.8881030e-08 
-5.8284359e-06 -1.6156077e-05 7.2634566e-06 
-1.5708916e-06 -1.1227975e-06 9.9649378e-07 
-1.6373803e-06 -2.0026548e-06 -1.7039422e-06 
-8.9252790e-06 -2.7569182e-05 6.7864803e-06 
-2.5122599e-06 -1.8644090e-06 6.6268819e-07 
-3.0180925e-07 2.3222844e-07 6.2136456e-07 
-1.5238297e-06 -3.1706176e-07 -1.0672658e-06 
-6.2581212e-06 -1.9698906e-05 -8.9801742e-06 
-4.8524994e-06 -1.1049372e-05 -7.1517784e-06 
-5.5425589e-06 -1.0540061e-04 1.3515898e-06 
-3.1135815e-07 2.4398170e-07 3.1382655e-07 
-1.8943688e-06 -5.0451422e-06 5.2545706e-06 
-2.9331807e-06 -6.9173630e-06 5.5284718e-06 
-5.0239560e-06 -2.4284920e-05 1.0280888e-05 
-8.1516573e-06 -4.1083753e-05 1.1135663e-05 
-7.8104122e-06 -7.3032403e-05 -1.0344438e-05 
-8.4510166e-06 -3.9481540e-05 -1.1476407e-05 
-2.1511094e-07 1.2426182e-07 6.1269213e-07 
-5.9976242e-07 -1.0241497e-06 1.9666520e-06 
-1.3239440e-06 -2.3025250e-06 -2.8836521e-06 
-5.8463149e-07 2.1878897e-08 9.4066871e-07 
-1.7488425e-06 -3.3244612e-06 3.9672886e-06 
-3.4100428e-06 -1.4422169e-05 -8.5702832e-06 
-1.2609911e-05 -4.1704327e-05 -6.3354237e-06 
-5.4694510e-07 -5.3623972e-07 1.5209013e-06 
-1.0713370e-05 -9.2778202e-05 8.8239212e-06 
-2.6096361e-06 -2.6967721e-06 -2.3589610e-06 
-7.0515375e-07 2.2541380e-07 -6.0991619e-07 
-1.1899473e-07 3.1593061e-07 1.6670683e-07 
-3.2127307e-06 -3.4764978e-06 1.9012493e-06 
-9.4791244e-07 -1.2416814e-06 2.5021773e-06 
-2.3206521e-06 -4.4994663e-06 -3.6510860e-06 
-1.0888087e-05 -2.6768794e-05 -1.8839838e-06 
-6.1973225e-07 -8.1890661e-08 8.8449735e-07 
-1.3888557e-06 -1.2056174e-06 1.4709864e-06 
-2.8751725e-07 9.7875919e-08 7.6319259e-07 
-1.4025435e-05 -4.5264278e-05 7.8310186e-06 
-1.2438304e-06 -2.1396231e-06 -1.8132500e-06 
-3.1147272e-07 -2.6646987e-06 2.9427931e-06 
-1.8351048e-07 -1.4183944e-06 1.9493261e-06 
-3.7660479e-07 -7.6235474e-06 4.5077463e-06 
-7.0353150e-07 -1.3835646e-05 5.1190632e-06 
-1.8278962e-07 -5.2555043e-07 1.1690778e-06 
-8.4014641e-07 -2.8622606e-05 5.2990076e-06 
-2.5107915e-06 -5.1090065e-05 9.2057189e-06 
-1.5256192e-07 -8.1082944e-05 6.8686454e-06 
-9.3602166e-06 -1.1698765e-04 4.8743295e-06 
-1.5764224e-05 -1.5302608e-04 -1.4395006e-07 
-1.0213295e-05 -1.3126404e-04 -6.4996748e-06 
-8.0486079e-06 -9.7454482e-05 -1.1717651e-05 
-3.6232304e-06 -5.7758552e-05 -8.5983756e-06 
-1.8834264e-06 -2.9848890e-05 -7.4931431e-06 
-8.9814438e-07 -1.7927568e-05 -6.6677153e-06 
-4.0810474e-07 -8.9001142e-06 -4.8646198e-06 
-3.8619126e-07 -3.7495877e-06 -2.6401742e-06 
-7.1808074e-08 -1.7319564e-07 4.7934401e-07 
3.7579343e-07 -1.4677466e-06 -1.6663695e-06 
2.7556766e-06 -1.0973261e-05 -5.1268116e-06 
1.0495337e-05 -3.7767812e-05 -2.7863648e-06 
7.0307001e-06 -2.6439851e-05 6.2489703e-06 
1.9961524e-06 -6.9612443e-06 3.6583208e-06 
1.1026419e-06 -1.1668531e-06 -1.5525032e-06 
3.1955065e-06 -3.9167862e-06 -1.9405741e-06 
6.8224908e-06 -1.2347494e-05 8.1998820e-07 
5.1103243e-06 -4.3971213e-05 -8.7098597e-06 
3.5099227e-08 -5.5460755e-06 -1.2503771e-06 
-1.0811706e-07 -2.4592060e-07 -1.3828929e-07 
3.7356358e-06 -4.9033574e-06 3.1160396e-06 
8.6809088e-08 -1.7733321e-08 -4.5429778e-07 
8.1319795e-06 -8.3110768e-05 4.1229846e-06 
1.2954773e-06 -2.3595094e-05 4.5246647e-06 
6.5057878e-07 -2.2489470e-05 -3.0974595e-06 
3.8915136e-06 -1.5912696e-05 -2.9912637e-06 
8.7222747e-07 -2.7843903e-06 -1.7825110e-06 
4.5984930e-06 -8.8090339e-05 -5.8138453e-06 
6.2224940e-06 -1.5413018e-05 -4.6461832e-06 
-1.5330870e-07 -1.4372076e-06 1.5342991e-07 
3.3077931e-06 -3.1772465e-06 -5.3232344e-07 
-7.9271051e-10 -6.9913440e-06 1.4911184e-06 
3.3264359e-07 -1.2090640e-08 -5.2168906e-07 
1.0042755e-06 -4.8592273e-07 7.9645054e-07 
1.1106129e-06 -4.0058640e-06 -3.4193997e-06 
7.0688084e-06 -1.0128718e-05 -1.6456413e-06 
8.3149814e-07 -9.0374090e-07 -1.5725583e-06 
2.2473505e-06 -3.2668027e-06 -2.7215447e-06 
8.3329019e-07 -3.9649653e-06 -7.4728257e-07 
1.5761860e-06 -1.8408643e-06 1.5235808e-07 
4.7621052e-06 -2.4835967e-05 2.2042175e-06 
2.9449866e-06 -5.2756823e-05 3.7189309e-06 
5.4091838e-06 -2.9911906e-05 -3.9565882e-07 
1.6104890e-06 -1.7901689e-06 1.9546408e-06 
3.1052532e-06 -1.3114571e-05 2.9283394e-06 
1.3225021e-07 -2.5582622e-07 -7.3516298e-07 
8.2658551e-07 -6.9654732e-07 -6.5867727e-07 
-6.3550566e-08 -3.9748696e-07 -8.3188490e-07 
6.4390215e-06 -2.8131333e-05 3.3924150e-06 
1.9231491e-06 -1.6541311e-05 -5.3746876e-06 
1.5376065e-07 -2.8306849e-06 6.5177034e-07 
2.8940494e-06 -1.4031214e-05 6.0064144e-06 
5.0090989e-07 -1.9061490e-05 -1.3815270e-06 
-8.0137795e-08 -2.3791036e-07 -1.1763954e-07 
2.6269320e-06 -9.3255494e-06 -8.1498183e-07 
8.6465116e-07 -4.5336046e-07 -7.1389985e-07 
4.0711075e-06 -9.1966212e-06 3.8767230e-06 
1.1214606e-07 -4.5952652e-07 -3.4541279e-07 
4.9550117e-06 -2.3424878e-05 -3.4401621e-06 
1.8153638e-07 3.1031529e-08 -2.7348801e-07 
1.9725599e-06 -1.5760639e-06 1.1103263e-06 
3.3597402e-08 -8.4797566e-06 -7.3350623e-07 
4.4472849e-06 -5.4831693e-05 8.4237502e-07 
5.1915649e-06 -5.8726648e-05 -3.3916322e-07 
7.6735505e-06 -1.3866759e-05 1.2422205e-06 
7.4083903e-07 -3.4045663e-06 2.3375278e-06 
3.9155680e-08 2.6228301e-07 -1.1787660e-07 
2.5270069e-07 -1.7043751e-06 -1.4590496e-07 
1.4741286e-06 -1.1069685e-06 -4.7818600e-07 
1.0875316e-06 -3.9734432e-06 -3.0340328e-07 
2.9258420e-06 -2.7270780e-06 5.4423742e-07 
-2.6516767e-07 -1.5129593e-06 1.3149734e-07 