# vtk DataFile Version 4.0
vtk output
ASCII
DATASET UNSTRUCTURED_GRID
POINTS 460 float
0.0000000e+00 0.0000000e+00 0.0000000e+00 
5.0000000e+00 0.0000000e+00 0.0000000e+00 
5.0000000e+00 3.0000000e+00 0.0000000e+00 
0.0000000e+00 3.0000000e+00 0.0000000e+00 
0.0000000e+00 0.0000000e+00 1.0000000e+01 
5.0000000e+00 0.0000000e+00 1.0000000e+01 
5.0000000e+00 3.0000000e+00 1.0000000e+01 
0.0000000e+00 3.0000000e+00 1.0000000e+01 
1.0000000e+00 3.0000000e+00 -5.0000000e+00 
1.0000000e+00 3.0000000e+00 -4.5000000e+00 
1.0000000e+00 3.0000000e+00 -4.0000000e+00 
1.0000000e+00 3.0000000e+00 -3.5000000e+00 
1.0000000e+00 3.0000000e+00 -3.0000000e+00 
1.0000000e+00 3.0000000e+00 -2.5000000e+00 
1.0000000e+00 3.0000000e+00 -2.0000000e+00 
1.0000000e+00 3.0000000e+00 -1.5000000e+00 
1.0000000e+00 3.0000000e+00 -1.0000000e+00 
1.0000000e+00 3.0000000e+00 -5.0000000e-01 
1.0000000e+00 3.0000000e+00 0.0000000e+00 
1.0000000e+00 3.0000000e+00 5.0000000e-01 
1.0000000e+00 3.0000000e+00 1.0000000e+00 
1.0000000e+00 3.0000000e+00 1.5000000e+00 
1.0000000e+00 3.0000000e+00 2.0000000e+00 
1.0000000e+00 3.0000000e+00 2.5000000e+00 
1.0000000e+00 3.0000000e+00 3.0000000e+00 
1.0000000e+00 3.0000000e+00 3.5000000e+00 
1.0000000e+00 3.0000000e+00 4.0000000e+00 
1.0000000e+00 3.0000000e+00 4.5000000e+00 
1.0000000e+00 3.0000000e+00 5.0000000e+00 
1.0000000e+00 3.0000000e+00 5.5000000e+00 
1.0000000e+00 3.0000000e+00 6.0000000e+00 
1.0000000e+00 3.0000000e+00 6.5000000e+00 
1.0000000e+00 3.0000000e+00 7.0000000e+00 
1.0000000e+00 3.0000000e+00 7.5000000e+00 
1.0000000e+00 3.0000000e+00 8.0000000e+00 
1.0000000e+00 3.0000000e+00 8.5000000e+00 
1.0000000e+00 3.0000000e+00 9.0000000e+00 
1.0000000e+00 3.0000000e+00 9.5000000e+00 
1.0000000e+00 3.0000000e+00 1.0000000e+01 
1.0000000e+00 3.0000000e+00 1.0500000e+01 
1.0000000e+00 3.0000000e+00 1.1000000e+01 
1.0000000e+00 3.0000000e+00 1.1500000e+01 
1.0000000e+00 3.0000000e+00 1.2000000e+01 
1.0000000e+00 3.0000000e+00 1.2500000e+01 
1.0000000e+00 3.0000000e+00 1.3000000e+01 
1.0000000e+00 3.0000000e+00 1.3500000e+01 
1.0000000e+00 3.0000000e+00 1.4000000e+01 
1.0000000e+00 3.0000000e+00 1.4500000e+01 
1.0000000e+00 3.0250001e+00 -5.0000000e+00 
1.0000000e+00 3.0250001e+00 -4.5000000e+00 
1.0000000e+00 3.0250001e+00 -4.0000000e+00 
1.0000000e+00 3.0250001e+00 -3.5000000e+00 
1.0000000e+00 3.0250001e+00 -3.0000000e+00 
1.0000000e+00 3.0250001e+00 -2.5000000e+00 
1.0000000e+00 3.0250001e+00 -2.0000000e+00 
1.0000000e+00 3.0250001e+00 -1.5000000e+00 
1.0000000e+00 3.0250001e+00 -1.0000000e+00 
1.0000000e+00 3.0250001e+00 -5.0000000e-01 
1.0000000e+00 3.0250001e+00 0.0000000e+00 
1.0000000e+00 3.0250001e+00 5.0000000e-01 
1.0000000e+00 3.0250001e+00 1.0000000e+00 
1.0000000e+00 3.0250001e+00 1.5000000e+00 
1.0000000e+00 3.0250001e+00 2.0000000e+00 
1.0000000e+00 3.0250001e+00 2.5000000e+00 
1.0000000e+00 3.0250001e+00 3.0000000e+00 
1.0000000e+00 3.0250001e+00 3.5000000e+00 
1.0000000e+00 3.0250001e+00 4.0000000e+00 
1.0000000e+00 3.0250001e+00 4.5000000e+00 
1.0000000e+00 3.0250001e+00 5.0000000e+00 
1.0000000e+00 3.0250001e+00 5.5000000e+00 
1.0000000e+00 3.0250001e+00 6.0000000e+00 
1.0000000e+00 3.0250001e+00 6.5000000e+00 
1.0000000e+00 3.0250001e+00 7.0000000e+00 
1.0000000e+00 3.0250001e+00 7.5000000e+00 
1.0000000e+00 3.0250001e+00 8.0000000e+00 
1.0000000e+00 3.0250001e+00 8.5000000e+00 
1.0000000e+00 3.0250001e+00 9.0000000e+00 
1.0000000e+00 3.0250001e+00 9.5000000e+00 
1.0000000e+00 3.0250001e+00 1.0000000e+01 
1.0000000e+00 3.0250001e+00 1.0500000e+01 
1.0000000e+00 3.0250001e+00 1.1000000e+01 
1.0000000e+00 3.0250001e+00 1.1500000e+01 
1.0000000e+00 3.0250001e+00 1.2000000e+01 
1.0000000e+00 3.0250001e+00 1.2500000e+01 
1.0000000e+00 3.0250001e+00 1.3000000e+01 
1.0000000e+00 3.0250001e+00 1.3500000e+01 
1.0000000e+00 3.0250001e+00 1.4000000e+01 
1.0000000e+00 3.0250001e+00 1.4500000e+01 
1.0000000e+00 -2.0000000e+00 -5.0000000e+00 
1.0000000e+00 -2.0000000e+00 -4.5000000e+00 
1.0000000e+00 -2.0000000e+00 -4.0000000e+00 
1.0000000e+00 -2.0000000e+00 -3.5000000e+00 
1.0000000e+00 -2.0000000e+00 -3.0000000e+00 
1.0000000e+00 -2.0000000e+00 -2.5000000e+00 
1.0000000e+00 -2.0000000e+00 -2.0000000e+00 
1.0000000e+00 -2.0000000e+00 -1.5000000e+00 
1.0000000e+00 -2.0000000e+00 -1.0000000e+00 
1.0000000e+00 -2.0000000e+00 -5.0000000e-01 
1.0000000e+00 -2.0000000e+00 1.0500000e+01 
1.0000000e+00 -2.0000000e+00 1.1000000e+01 
1.0000000e+00 -2.0000000e+00 1.1500000e+01 
1.0000000e+00 -2.0000000e+00 1.2000000e+01 
1.0000000e+00 -2.0000000e+00 1.2500000e+01 
1.0000000e+00 -2.0000000e+00 1.3000000e+01 
1.0000000e+00 -2.0000000e+00 1.3500000e+01 
1.0000000e+00 -2.0000000e+00 1.4000000e+01 
1.0000000e+00 -2.0000000e+00 1.4500000e+01 
1.0000000e+00 0.0000000e+00 0.0000000e+00 
2.0000000e+00 0.0000000e+00 0.0000000e+00 
3.0000000e+00 0.0000000e+00 0.0000000e+00 
4.0000000e+00 0.0000000e+00 0.0000000e+00 
5.0000000e+00 1.0000000e+00 0.0000000e+00 
5.0000000e+00 2.0000000e+00 0.0000000e+00 
0.0000000e+00 2.0000000e+00 0.0000000e+00 
0.0000000e+00 1.0000000e+00 0.0000000e+00 
0.0000000e+00 0.0000000e+00 1.0000000e+00 
0.0000000e+00 0.0000000e+00 2.0000000e+00 
0.0000000e+00 0.0000000e+00 3.0000000e+00 
0.0000000e+00 0.0000000e+00 4.0000000e+00 
0.0000000e+00 0.0000000e+00 5.0000000e+00 
0.0000000e+00 0.0000000e+00 6.0000000e+00 
0.0000000e+00 0.0000000e+00 7.0000000e+00 
0.0000000e+00 0.0000000e+00 8.0000000e+00 
0.0000000e+00 0.0000000e+00 9.0000000e+00 
5.0000000e+00 0.0000000e+00 1.0000000e+00 
5.0000000e+00 0.0000000e+00 2.0000000e+00 
5.0000000e+00 0.0000000e+00 3.0000000e+00 
5.0000000e+00 0.0000000e+00 4.0000000e+00 
5.0000000e+00 0.0000000e+00 5.0000000e+00 
5.0000000e+00 0.0000000e+00 6.0000000e+00 
5.0000000e+00 0.0000000e+00 7.0000000e+00 
5.0000000e+00 0.0000000e+00 8.0000000e+00 
5.0000000e+00 0.0000000e+00 9.0000000e+00 
1.0000000e+00 0.0000000e+00 1.0000000e+01 
2.0000000e+00 0.0000000e+00 1.0000000e+01 
3.0000000e+00 0.0000000e+00 1.0000000e+01 
4.0000000e+00 0.0000000e+00 1.0000000e+01 
5.0000000e+00 3.0000000e+00 1.0000000e+00 
5.0000000e+00 3.0000000e+00 2.0000000e+00 
5.0000000e+00 3.0000000e+00 3.0000000e+00 
5.0000000e+00 3.0000000e+00 4.0000000e+00 
5.0000000e+00 3.0000000e+00 5.0000000e+00 
5.0000000e+00 3.0000000e+00 6.0000000e+00 
5.0000000e+00 3.0000000e+00 7.0000000e+00 
5.0000000e+00 3.0000000e+00 8.0000000e+00 
5.0000000e+00 3.0000000e+00 9.0000000e+00 
5.0000000e+00 1.0000000e+00 1.0000000e+01 
5.0000000e+00 2.0000000e+00 1.0000000e+01 
0.0000000e+00 3.0000000e+00 1.0000000e+00 
0.0000000e+00 3.0000000e+00 2.0000000e+00 
0.0000000e+00 3.0000000e+00 3.0000000e+00 
0.0000000e+00 3.0000000e+00 4.0000000e+00 
0.0000000e+00 3.0000000e+00 5.0000000e+00 
0.0000000e+00 3.0000000e+00 6.0000000e+00 
0.0000000e+00 3.0000000e+00 7.0000000e+00 
0.0000000e+00 3.0000000e+00 8.0000000e+00 
0.0000000e+00 3.0000000e+00 9.0000000e+00 
0.0000000e+00 2.0000000e+00 1.0000000e+01 
0.0000000e+00 1.0000000e+00 1.0000000e+01 
4.0000000e+00 3.0000000e+00 0.0000000e+00 
3.0000000e+00 3.0000000e+00 0.0000000e+00 
2.0000000e+00 3.0000000e+00 0.0000000e+00 
4.0000000e+00 3.0000000e+00 1.0000000e+01 
3.0000000e+00 3.0000000e+00 1.0000000e+01 
2.0000000e+00 3.0000000e+00 1.0000000e+01 
4.0618000e+00 1.5000000e+00 0.0000000e+00 
1.5046000e+00 7.6549745e-01 0.0000000e+00 
2.5000000e+00 2.1339746e+00 0.0000000e+00 
1.5046000e+00 2.2345026e+00 0.0000000e+00 
2.4957771e+00 8.1560516e-01 0.0000000e+00 
3.4707544e+00 2.2336540e+00 0.0000000e+00 
3.4700506e+00 7.5794268e-01 0.0000000e+00 
8.6322361e-01 1.5000000e+00 0.0000000e+00 
2.0000000e+00 1.5000000e+00 0.0000000e+00 
2.9960666e+00 1.4974480e+00 0.0000000e+00 
4.2679491e+00 7.3205084e-01 0.0000000e+00 
4.2679491e+00 2.2679491e+00 0.0000000e+00 
7.2695929e-01 2.2730408e+00 0.0000000e+00 
7.2695929e-01 7.2695929e-01 0.0000000e+00 
4.1822505e+00 0.0000000e+00 2.5515697e+00 
4.2017918e+00 0.0000000e+00 4.4725966e+00 
4.1114569e+00 0.0000000e+00 6.5092020e+00 
8.6602539e-01 0.0000000e+00 3.5000000e+00 
8.4778279e-01 0.0000000e+00 5.4684029e+00 
8.9629614e-01 0.0000000e+00 7.5867257e+00 
2.5566745e+00 0.0000000e+00 8.1853306e-01 
2.4918270e+00 0.0000000e+00 9.1386929e+00 
8.4677207e-01 0.0000000e+00 1.5042374e+00 
4.0943027e+00 0.0000000e+00 8.4081745e+00 
8.6281651e-01 0.0000000e+00 2.5007062e+00 
1.7315160e+00 0.0000000e+00 3.0001178e+00 
1.7319617e+00 0.0000000e+00 4.0000196e+00 
2.5980761e+00 0.0000000e+00 3.5000000e+00 
2.5536871e+00 0.0000000e+00 4.4963923e+00 
2.5928419e+00 0.0000000e+00 2.4239938e+00 
1.5037409e+00 0.0000000e+00 9.1535149e+00 
1.8433737e+00 0.0000000e+00 8.1858873e+00 
3.0000000e+00 0.0000000e+00 8.2679491e+00 
2.5000000e+00 0.0000000e+00 7.4019237e+00 
3.5042722e+00 0.0000000e+00 7.4271150e+00 
3.0310018e+00 0.0000000e+00 6.5282087e+00 
2.0373929e+00 0.0000000e+00 6.5307913e+00 
3.4767809e+00 0.0000000e+00 5.8031492e+00 
2.5452602e+00 0.0000000e+00 5.5720768e+00 
1.6456656e+00 0.0000000e+00 1.9697139e+00 
8.6297011e-01 0.0000000e+00 4.4947371e+00 
1.0111579e+00 0.0000000e+00 6.5282545e+00 
3.4994321e+00 0.0000000e+00 8.4691072e-01 
4.1860156e+00 0.0000000e+00 3.5040276e+00 
1.7320508e+00 0.0000000e+00 5.0000000e+00 
4.0544066e+00 0.0000000e+00 1.5781221e+00 
1.5817389e+00 0.0000000e+00 9.3943578e-01 
8.3166349e-01 0.0000000e+00 8.5090933e+00 
3.4686174e+00 0.0000000e+00 9.1752682e+00 
3.0709300e+00 0.0000000e+00 1.5799091e+00 
3.3927374e+00 0.0000000e+00 3.0399952e+00 
3.3826034e+00 0.0000000e+00 3.9747651e+00 
4.3420062e+00 0.0000000e+00 7.4688983e+00 
3.4023225e+00 0.0000000e+00 4.9314723e+00 
1.6740381e+00 0.0000000e+00 7.3014426e+00 
4.2715640e+00 0.0000000e+00 5.4758859e+00 
1.6225953e+00 0.0000000e+00 5.8104177e+00 
4.2679491e+00 0.0000000e+00 9.2679491e+00 
7.3205084e-01 0.0000000e+00 7.3205084e-01 
4.2679491e+00 0.0000000e+00 7.3205084e-01 
7.3205084e-01 0.0000000e+00 9.2679491e+00 
3.4586334e+00 0.0000000e+00 2.2347178e+00 
2.2895701e+00 0.0000000e+00 1.5463171e+00 
5.0000000e+00 2.2345026e+00 1.5046000e+00 
[...]
POINT_DATA 460
FIELD FieldData 2
DISPLACEMENT 3 460  float
0.0000000e+00 0.0000000e+00 0.0000000e+00 
0.0000000e+00 0.0000000e+00 0.0000000e+00 
0.0000000e+00 -4.4264721e-06 0.0000000e+00 
0.0000000e+00 -1.1027304e-04 0.0000000e+00 
0.0000000e+00 0.0000000e+00 0.0000000e+00 
0.0000000e+00 0.0000000e+00 0.0000000e+00 
0.0000000e+00 2.0695541e-08 0.0000000e+00 
0.0000000e+00 1.4437394e-08 0.0000000e+00 
0.0000000e+00 2.2006740e-05 0.0000000e+00 
0.0000000e+00 2.3324481e-05 0.0000000e+00 
0.0000000e+00 2.4961842e-05 0.0000000e+00 
0.0000000e+00 2.1357009e-05 0.0000000e+00 
0.0000000e+00 4.2853062e-06 0.0000000e+00 
0.0000000e+00 -3.6133319e-05 0.0000000e+00 
0.0000000e+00 -1.0844120e-04 0.0000000e+00 
0.0000000e+00 -2.1367577e-04 0.0000000e+00 
0.0000000e+00 -3.3521542e-04 0.0000000e+00 
0.0000000e+00 -4.2515903e-04 0.0000000e+00 
0.0000000e+00 -3.9549498e-04 0.0000000e+00 
-1.0481691e-05 -2.6723769e-04 -2.5994852e-06 
-1.1453902e-05 -1.4311657e-04 -1.5426389e-05 
-5.4001662e-06 -6.6164459e-05 -1.7857163e-05 
-4.7698618e-06 -2.6532829e-05 -1.6773132e-05 
-2.9640873e-06 -9.5754422e-06 -1.0614402e-05 
-1.3923393e-06 -3.3339779e-06 -6.4705841e-06 
-1.1216332e-06 -1.3303078e-06 -4.1825060e-06 
-5.7496663e-07 -7.2557987e-07 -2.4865215e-06 
-2.8951183e-07 -4.0376489e-07 -1.3648023e-06 
-1.1361210e-07 -1.7816981e-07 -6.7264892e-07 
-6.3605469e-08 -2.5432504e-08 -3.5778859e-07 
-6.0246485e-08 5.8623804e-08 -2.0598013e-07 
-3.4125183e-08 8.7526587e-08 -9.8207714e-08 
-2.2710996e-08 8.4897401e-08 -4.2813863e-08 
-1.3177166e-08 7.0460032e-08 -1.2619275e-08 
-9.1828198e-09 5.3311005e-08 -2.6226676e-09 
-6.0768799e-09 3.8020083e-08 5.6914522e-09 
-3.4819487e-09 2.6161210e-08 5.6159837e-09 
-1.9112121e-09 1.8094484e-08 2.6859415e-09 
0.0000000e+00 1.2354425e-08 0.0000000e+00 
0.0000000e+00 7.2497812e-09 0.0000000e+00 
0.0000000e+00 3.5678276e-09 0.0000000e+00 
0.0000000e+00 1.3497695e-09 0.0000000e+00 
0.0000000e+00 3.4379330e-10 0.0000000e+00 
0.0000000e+00 1.4929892e-10 0.0000000e+00 
0.0000000e+00 3.8258413e-10 0.0000000e+00 
0.0000000e+00 7.4599332e-10 0.0000000e+00 
0.0000000e+00 1.0402663e-09 0.0000000e+00 
0.0000000e+00 1.1516988e-09 0.0000000e+00 
0.0000000e+00 2.2085726e-05 0.0000000e+00 
0.0000000e+00 2.3408518e-05 0.0000000e+00 
0.0000000e+00 2.5051471e-05 0.0000000e+00 
0.0000000e+00 2.1431106e-05 0.0000000e+00 
0.0000000e+00 4.2901165e-06 0.0000000e+00 
0.0000000e+00 -3.6290898e-05 0.0000000e+00 
0.0000000e+00 -1.0888815e-04 0.0000000e+00 
0.0000000e+00 -2.1454197e-04 0.0000000e+00 
0.0000000e+00 -3.3656304e-04 0.0000000e+00 
0.0000000e+00 -4.2685648e-04 0.0000000e+00 
0.0000000e+00 -4.0027793e-04 0.0000000e+00 
0.0000000e+00 -2.7009117e-04 0.0000000e+00 
0.0000000e+00 -1.4503252e-04 0.0000000e+00 
0.0000000e+00 -6.6273707e-05 0.0000000e+00 
0.0000000e+00 -2.6403624e-05 0.0000000e+00 
0.0000000e+00 -9.3851640e-06 0.0000000e+00 
0.0000000e+00 -3.2106057e-06 0.0000000e+00 
0.0000000e+00 -1.2740948e-06 0.0000000e+00 
0.0000000e+00 -6.9358185e-07 0.0000000e+00 
0.0000000e+00 -3.9943941e-07 0.0000000e+00 
0.0000000e+00 -1.7821658e-07 0.0000000e+00 
0.0000000e+00 -2.5735170e-08 0.0000000e+00 
0.0000000e+00 5.8233006e-08 0.0000000e+00 
0.0000000e+00 8.7660077e-08 0.0000000e+00 
0.0000000e+00 8.5302347e-08 0.0000000e+00 
0.0000000e+00 7.0605090e-08 0.0000000e+00 
0.0000000e+00 5.3405870e-08 0.0000000e+00 
0.0000000e+00 3.8063192e-08 0.0000000e+00 
0.0000000e+00 2.6241164e-08 0.0000000e+00 
0.0000000e+00 1.8108000e-08 0.0000000e+00 
0.0000000e+00 1.2248789e-08 0.0000000e+00 
0.0000000e+00 7.2807831e-09 0.0000000e+00 
0.0000000e+00 3.5828041e-09 0.0000000e+00 
0.0000000e+00 1.3544954e-09 0.0000000e+00 
0.0000000e+00 3.4314659e-10 0.0000000e+00 
0.0000000e+00 1.4665220e-10 0.0000000e+00 
0.0000000e+00 3.7985481e-10 0.0000000e+00 
0.0000000e+00 7.4396700e-10 0.0000000e+00 
0.0000000e+00 1.0389654e-09 0.0000000e+00 
0.0000000e+00 1.1506969e-09 0.0000000e+00 
0.0000000e+00 0.0000000e+00 0.0000000e+00 
0.0000000e+00 0.0000000e+00 0.0000000e+00 
0.0000000e+00 0.0000000e+00 0.0000000e+00 
0.0000000e+00 0.0000000e+00 0.0000000e+00 
0.0000000e+00 0.0000000e+00 0.0000000e+00 
0.0000000e+00 0.0000000e+00 0.0000000e+00 
0.0000000e+00 0.0000000e+00 0.0000000e+00 
0.0000000e+00 0.0000000e+00 0.0000000e+00 
0.0000000e+00 0.0000000e+00 0.0000000e+00 
0.0000000e+00 0.0000000e+00 0.0000000e+00 
0.0000000e+00 0.0000000e+00 0.0000000e+00 
0.0000000e+00 0.0000000e+00 0.0000000e+00 
0.0000000e+00 0.0000000e+00 0.0000000e+00 
0.0000000e+00 0.0000000e+00 0.0000000e+00 
0.0000000e+00 0.0000000e+00 0.0000000e+00 
0.0000000e+00 0.0000000e+00 0.0000000e+00 
0.0000000e+00 0.0000000e+00 0.0000000e+00 
0.0000000e+00 0.0000000e+00 0.0000000e+00 
0.0000000e+00 0.0000000e+00 0.0000000e+00 
0.0000000e+00 0.0000000e+00 0.0000000e+00 
0.0000000e+00 0.0000000e+00 0.0000000e+00 
0.0000000e+00 0.0000000e+00 0.0000000e+00 
0.0000000e+00 0.0000000e+00 0.0000000e+00 
0.0000000e+00 -2.2553331e-06 0.0000000e+00 
0.0000000e+00 -4.0920245e-06 0.0000000e+00 
0.0000000e+00 -9.5917319e-05 0.0000000e+00 
0.0000000e+00 -4.7333629e-05 0.0000000e+00 
0.0000000e+00 0.0000000e+00 0.0000000e+00 
0.0000000e+00 0.0000000e+00 0.0000000e+00 
0.0000000e+00 0.0000000e+00 0.0000000e+00 
0.0000000e+00 0.0000000e+00 0.0000000e+00 
0.0000000e+00 0.0000000e+00 0.0000000e+00 
0.0000000e+00 0.0000000e+00 0.0000000e+00 
0.0000000e+00 0.0000000e+00 0.0000000e+00 
0.0000000e+00 0.0000000e+00 0.0000000e+00 
0.0000000e+00 0.0000000e+00 0.0000000e+00 
0.0000000e+00 0.0000000e+00 0.0000000e+00 
0.0000000e+00 0.0000000e+00 0.0000000e+00 
0.0000000e+00 0.0000000e+00 0.0000000e+00 
0.0000000e+00 0.0000000e+00 0.0000000e+00 
0.0000000e+00 0.0000000e+00 0.0000000e+00 
0.0000000e+00 0.0000000e+00 0.0000000e+00 
0.0000000e+00 0.0000000e+00 0.0000000e+00 
0.0000000e+00 0.0000000e+00 0.0000000e+00 
0.0000000e+00 0.0000000e+00 0.0000000e+00 
0.0000000e+00 0.0000000e+00 0.0000000e+00 
0.0000000e+00 0.0000000e+00 0.0000000e+00 
0.0000000e+00 0.0000000e+00 0.0000000e+00 
0.0000000e+00 0.0000000e+00 0.0000000e+00 
0.0000000e+00 -3.4006221e-06 0.0000000e+00 
0.0000000e+00 -1.1132684e-06 0.0000000e+00 
0.0000000e+00 -6.8883395e-07 0.0000000e+00 
0.0000000e+00 1.9727818e-07 0.0000000e+00 
0.0000000e+00 2.0933621e-07 0.0000000e+00 
0.0000000e+00 2.0454306e-07 0.0000000e+00 
0.0000000e+00 1.0169205e-07 0.0000000e+00 
0.0000000e+00 5.7030320e-08 0.0000000e+00 
0.0000000e+00 2.8411492e-08 0.0000000e+00 
0.0000000e+00 1.0904155e-08 0.0000000e+00 
0.0000000e+00 1.8427682e-08 0.0000000e+00 
0.0000000e+00 -8.8092362e-05 0.0000000e+00 
0.0000000e+00 -3.1332573e-05 0.0000000e+00 
0.0000000e+00 -8.9449459e-06 0.0000000e+00 
0.0000000e+00 -2.1421070e-06 0.0000000e+00 
0.0000000e+00 -4.4391430e-07 0.0000000e+00 
0.0000000e+00 -1.1112681e-08 0.0000000e+00 
0.0000000e+00 4.8490211e-08 0.0000000e+00 
0.0000000e+00 3.6399015e-08 0.0000000e+00 
0.0000000e+00 2.0374554e-08 0.0000000e+00 
0.0000000e+00 1.2681518e-08 0.0000000e+00 
0.0000000e+00 7.2749775e-09 0.0000000e+00 
0.0000000e+00 -8.3988643e-06 0.0000000e+00 
0.0000000e+00 -2.2134242e-05 0.0000000e+00 
0.0000000e+00 -5.4944252e-05 0.0000000e+00 
0.0000000e+00 2.1404938e-08 0.0000000e+00 
0.0000000e+00 2.1338721e-08 0.0000000e+00 
0.0000000e+00 1.9557266e-08 0.0000000e+00 
0.0000000e+00 -5.4966927e-06 0.0000000e+00 
0.0000000e+00 -2.7999113e-05 0.0000000e+00 
0.0000000e+00 -3.5326757e-05 0.0000000e+00 
0.0000000e+00 -1.0705514e-04 0.0000000e+00 
0.0000000e+00 -1.7172410e-05 0.0000000e+00 
0.0000000e+00 -1.3939701e-05 0.0000000e+00 
0.0000000e+00 -4.6798900e-06 0.0000000e+00 
0.0000000e+00 -8.2062863e-05 0.0000000e+00 
0.0000000e+00 -4.6362926e-05 0.0000000e+00 
0.0000000e+00 -1.7559696e-05 0.0000000e+00 
0.0000000e+00 -2.7571675e-06 0.0000000e+00 
0.0000000e+00 -6.3774660e-06 0.0000000e+00 
0.0000000e+00 -1.6025257e-04 0.0000000e+00 
0.0000000e+00 -3.7457739e-05 0.0000000e+00 
0.0000000e+00 0.0000000e+00 0.0000000e+00 
0.0000000e+00 0.0000000e+00 0.0000000e+00 
0.0000000e+00 0.0000000e+00 0.0000000e+00 
0.0000000e+00 0.0000000e+00 0.0000000e+00 
0.0000000e+00 0.0000000e+00 0.0000000e+00 
0.0000000e+00 0.0000000e+00 0.0000000e+00 
0.0000000e+00 0.0000000e+00 0.0000000e+00 
0.0000000e+00 0.0000000e+00 0.0000000e+00 
0.0000000e+00 0.0000000e+00 0.0000000e+00 
0.0000000e+00 0.0000000e+00 0.0000000e+00 
0.0000000e+00 0.0000000e+00 0.0000000e+00 
0.0000000e+00 0.0000000e+00 0.0000000e+00 
0.0000000e+00 0.0000000e+00 0.0000000e+00 
0.0000000e+00 0.0000000e+00 0.0000000e+00 
0.0000000e+00 0.0000000e+00 0.0000000e+00 
0.0000000e+00 0.0000000e+00 0.0000000e+00 
0.0000000e+00 0.0000000e+00 0.0000000e+00 
0.0000000e+00 0.0000000e+00 0.0000000e+00 
0.0000000e+00 0.0000000e+00 0.0000000e+00 
0.0000000e+00 0.0000000e+00 0.0000000e+00 
0.0000000e+00 0.0000000e+00 0.0000000e+00 
0.0000000e+00 0.0000000e+00 0.0000000e+00 
0.0000000e+00 0.0000000e+00 0.0000000e+00 
0.0000000e+00 0.0000000e+00 0.0000000e+00 
0.0000000e+00 0.0000000e+00 0.0000000e+00 
0.0000000e+00 0.0000000e+00 0.0000000e+00 
0.0000000e+00 0.0000000e+00 0.0000000e+00 
0.0000000e+00 0.0000000e+00 0.0000000e+00 
0.0000000e+00 0.0000000e+00 0.0000000e+00 
0.0000000e+00 0.0000000e+00 0.0000000e+00 
0.0000000e+00 0.0000000e+00 0.0000000e+00 
0.0000000e+00 0.0000000e+00 0.0000000e+00 
0.0000000e+00 0.0000000e+00 0.0000000e+00 
0.0000000e+00 0.0000000e+00 0.0000000e+00 
0.0000000e+00 0.0000000e+00 0.0000000e+00 
0.0000000e+00 0.0000000e+00 0.0000000e+00 
0.0000000e+00 0.0000000e+00 0.0000000e+00 
0.0000000e+00 0.0000000e+00 0.0000000e+00 
0.0000000e+00 0.0000000e+00 0.0000000e+00 
0.0000000e+00 0.0000000e+00 0.0000000e+00 
0.0000000e+00 0.0000000e+00 0.0000000e+00 
0.0000000e+00 0.0000000e+00 0.0000000e+00 
0.0000000e+00 0.0000000e+00 0.0000000e+00 
0.0000000e+00 0.0000000e+00 0.0000000e+00 
0.0000000e+00 0.0000000e+00 0.0000000e+00 
0.0000000e+00 0.0000000e+00 0.0000000e+00 
0.0000000e+00 0.0000000e+00 0.0000000e+00 
0.0000000e+00 0.0000000e+00 0.0000000e+00 
0.0000000e+00 0.0000000e+00 0.0000000e+00 
0.0000000e+00 -1.4047428e-06 0.0000000e+00 
0.0000000e+00 1.9556918e-08 0.0000000e+00 
0.0000000e+00 1.4398650e-07 0.0000000e+00 
0.0000000e+00 2.4993085e-07 0.0000000e+00 
0.0000000e+00 7.1278336e-08 0.0000000e+00 
0.0000000e+00 -7.1063278e-07 0.0000000e+00 
0.0000000e+00 4.8169859e-08 0.0000000e+00 
0.0000000e+00 6.0924698e-08 0.0000000e+00 
0.0000000e+00 -1.1132222e-07 0.0000000e+00 
0.0000000e+00 8.7710454e-08 0.0000000e+00 
0.0000000e+00 -7.9593195e-07 0.0000000e+00 
0.0000000e+00 2.4181108e-07 0.0000000e+00 
0.0000000e+00 1.3407012e-07 0.0000000e+00 
0.0000000e+00 3.5472180e-08 0.0000000e+00 
0.0000000e+00 -1.3700380e-06 0.0000000e+00 
0.0000000e+00 1.6341069e-08 0.0000000e+00 
0.0000000e+00 3.8204174e-08 0.0000000e+00 
0.0000000e+00 -2.1803717e-06 0.0000000e+00 
0.0000000e+00 2.1903054e-07 0.0000000e+00 
0.0000000e+00 8.1453479e-08 0.0000000e+00 
0.0000000e+00 -1.1790640e-06 0.0000000e+00 
0.0000000e+00 1.4350704e-07 0.0000000e+00 
0.0000000e+00 1.2406466e-07 0.0000000e+00 
0.0000000e+00 -3.1719424e-07 0.0000000e+00 
0.0000000e+00 4.2609766e-08 0.0000000e+00 
0.0000000e+00 2.3304260e-08 0.0000000e+00 
0.0000000e+00 9.6776382e-09 0.0000000e+00 
0.0000000e+00 -2.8290067e-06 0.0000000e+00 
0.0000000e+00 -1.2311154e-06 0.0000000e+00 
0.0000000e+00 1.3368250e-08 0.0000000e+00 
0.0000000e+00 -5.4994507e-05 0.0000000e+00 
0.0000000e+00 -8.9064952e-06 0.0000000e+00 
0.0000000e+00 -4.5399707e-07 0.0000000e+00 
0.0000000e+00 1.2061235e-08 0.0000000e+00 
0.0000000e+00 -4.1556482e-06 0.0000000e+00 
0.0000000e+00 -1.3472133e-07 0.0000000e+00 
0.0000000e+00 3.8886423e-08 0.0000000e+00 
0.0000000e+00 -2.5401764e-06 0.0000000e+00 
0.0000000e+00 -1.6395255e-05 0.0000000e+00 
0.0000000e+00 -9.6599251e-07 0.0000000e+00 
0.0000000e+00 2.6163230e-08 0.0000000e+00 
0.0000000e+00 -1.6464828e-08 0.0000000e+00 
0.0000000e+00 2.2361956e-08 0.0000000e+00 
0.0000000e+00 -4.9095608e-05 0.0000000e+00 
0.0000000e+00 -1.7254357e-05 0.0000000e+00 
0.0000000e+00 9.0325152e-09 0.0000000e+00 
0.0000000e+00 -3.0539925e-07 0.0000000e+00 
0.0000000e+00 1.0175431e-08 0.0000000e+00 
0.0000000e+00 -1.9491597e-06 0.0000000e+00 
0.0000000e+00 -7.2589846e-06 0.0000000e+00 
0.0000000e+00 3.1607119e-08 0.0000000e+00 
0.0000000e+00 -6.1232875e-08 0.0000000e+00 
0.0000000e+00 2.1737630e-08 0.0000000e+00 
0.0000000e+00 -2.3043511e-05 0.0000000e+00 
0.0000000e+00 6.6322356e-09 0.0000000e+00 
0.0000000e+00 -9.3419498e-05 0.0000000e+00 
0.0000000e+00 -2.6270827e-05 0.0000000e+00 
0.0000000e+00 1.5857932e-08 0.0000000e+00 
0.0000000e+00 6.5740609e-09 0.0000000e+00 
0.0000000e+00 1.5127769e-08 0.0000000e+00 
0.0000000e+00 1.7883842e-08 0.0000000e+00 
0.0000000e+00 1.5079301e-08 0.0000000e+00 
0.0000000e+00 8.9211936e-09 0.0000000e+00 
0.0000000e+00 1.8666810e-08 0.0000000e+00 
0.0000000e+00 7.5509083e-09 0.0000000e+00 
0.0000000e+00 1.0662911e-08 0.0000000e+00 
0.0000000e+00 1.3040783e-08 0.0000000e+00 
0.0000000e+00 1.4074396e-08 0.0000000e+00 
0.0000000e+00 7.6859310e-09 0.0000000e+00 
0.0000000e+00 1.8846375e-08 0.0000000e+00 
0.0000000e+00 1.2627557e-08 0.0000000e+00 
0.0000000e+00 5.2300662e-09 0.0000000e+00 
-2.9955825e-07 -1.4244040e-07 -1.3240742e-06 
-7.3991018e-08 1.0068911e-07 -2.1505673e-07 
-1.3315739e-08 6.4949376e-08 -7.6694340e-09 
-4.9240921e-06 -2.0072588e-05 -1.1862125e-05 
-1.9442127e-06 -3.2043049e-06 -5.4823263e-06 
-1.2499578e-07 2.1545151e-07 -1.8684520e-07 
-1.2399638e-06 -1.1162352e-06 -1.2710537e-06 
-1.6770606e-08 9.1919368e-08 -5.4353819e-09 
-8.3588102e-06 -7.1120667e-05 -1.6229855e-05 
-5.0068594e-09 3.4034628e-08 6.0357350e-09 
-6.8767076e-06 -1.1338872e-05 -3.3023007e-06 
-1.9290360e-09 2.6693129e-08 2.8091194e-09 
-2.8590803e-08 1.7158051e-07 -2.0874868e-08 
-4.3724729e-08 1.4377781e-07 -6.3324421e-08 
-1.4906929e-08 7.5877196e-08 -1.3207909e-08 
-2.5487884e-08 1.1290125e-07 -2.7792547e-08 
-6.1741275e-08 1.5193481e-07 -1.0100067e-07 
-5.8730296e-09 5.5350661e-08 4.2669934e-10 
-3.9557918e-08 1.2351403e-07 -5.2507549e-08 
-1.0968746e-07 2.0739407e-07 -1.7214913e-07 
-2.5326210e-07 2.3470588e-07 -3.6989351e-07 
-2.2222903e-07 1.6730642e-07 -4.2634102e-07 
-4.3458058e-07 1.9231916e-07 -9.4583976e-07 
-6.2081261e-07 2.5823854e-07 -1.0260892e-06 
-9.5002025e-07 -3.8013806e-07 -2.1691160e-06 
-1.0863347e-06 -6.5970585e-07 -1.5971654e-06 
-2.0863747e-06 -2.2812037e-06 -3.9342676e-06 
-2.4777969e-06 -3.0568931e-06 -3.5840678e-06 
-3.0509095e-06 -6.4706460e-06 -5.3507583e-06 
-4.0783807e-06 -6.5593895e-06 -4.6480118e-06 
-7.6993074e-06 -1.6324451e-05 -7.7949135e-06 
-2.0306575e-07 1.7719904e-07 -5.3776660e-07 
-1.2936309e-07 1.5670784e-07 -2.7856186e-07 
-1.3596778e-06 -1.6739036e-06 -3.3449603e-06 
-7.3433449e-07 -2.2427140e-07 -9.6863482e-07 
-2.2332476e-09 2.7211572e-08 2.6090037e-09 
-5.5084911e-07 -1.9275727e-07 -1.6183201e-06 
-2.6745894e-07 3.0054508e-07 -3.9475253e-07 
-9.0915273e-06 -3.0960957e-05 -5.9214080e-06 
-2.5993279e-09 4.3197065e-08 6.0111884e-09 
-1.4674583e-08 7.2353359e-08 -6.2839827e-09 
-1.0069802e-08 4.8600892e-08 1.4496859e-09 
-1.2863779e-07 1.2665765e-07 -4.2089590e-07 
-2.3843570e-06 -2.9520165e-06 -1.3645647e-06 
-2.9881373e-06 -8.1037733e-06 -8.6991922e-06 
-2.6755586e-06 -4.4588674e-06 -5.8021783e-06 
-1.1243237e-06 -1.6464467e-06 -3.6647043e-06 
-5.8526950e-07 -5.0412638e-07 -1.9559623e-06 
-4.3662222e-08 1.1908962e-07 -9.1548010e-08 
-2.2065610e-08 8.7993655e-08 -2.3502766e-08 
-1.3454253e-05 -1.3000147e-04 -8.6361697e-06 
-8.5092115e-06 -4.1612413e-05 -1.6231290e-05 
-2.1281594e-09 2.1712333e-08 4.2336348e-09 
-6.9874759e-06 -1.2867784e-05 -5.6654617e-06 
-4.0186860e-06 -1.2415429e-05 -8.7845765e-06 
-8.3234779e-09 4.5627878e-08 2.8396117e-09 
-6.3718289e-08 1.6067504e-07 -1.1434513e-07 
-1.1348779e-05 -3.5978377e-05 -1.4340194e-05 
-1.9893784e-07 -2.7580189e-08 -8.1513713e-07 
-4.7006394e-09 4.6087091e-08 -5.1394466e-10 
-7.5970646e-10 2.6117561e-08 3.6014283e-09 
-2.5352583e-06 -4.8612419e-06 -9.4930311e-07 
-6.5601972e-07 -1.2490689e-07 -1.0348856e-06 
-7.7202412e-06 -2.4493685e-05 -1.3037326e-05 
-3.8888683e-09 3.2903241e-08 5.5144374e-09 
-9.4497963e-08 2.0146014e-07 -1.7944345e-07 
-3.8454459e-06 -4.2336328e-06 -3.1016184e-06 
-1.8670333e-06 -1.3942531e-06 -2.2911979e-06 
-9.2862592e-06 -6.4728192e-05 -1.3081118e-05 
-3.3693615e-07 -6.2217659e-08 -1.0339045e-06 
-1.7990998e-09 2.3332882e-08 3.0648237e-09 
-1.3531780e-06 -2.4578909e-05 -1.0021398e-05 
-3.2875926e-06 -4.8250313e-05 -1.4290298e-05 
-5.6736616e-07 -1.2662397e-05 -7.5473381e-06 
-4.7896634e-07 -5.1691813e-06 -4.8828242e-06 
-6.3539064e-06 -9.2055780e-05 -1.2027864e-05 
-5.6847779e-07 -2.7193362e-06 -2.3318657e-06 
-6.1392747e-08 -1.1084265e-06 -1.0923225e-06 
-8.7883471e-08 -4.1698522e-07 -5.7940605e-07 
-9.4544310e-09 -1.7494580e-07 -2.8341341e-07 
-3.8899749e-08 -1.4380354e-08 -1.6908236e-07 
-2.7510319e-08 2.1702515e-08 -1.2018468e-07 
-1.8219012e-08 5.2931139e-08 -6.6180021e-08 
-7.6648972e-09 6.4871365e-08 -2.6082251e-08 
-6.5438299e-09 5.0489277e-08 -8.8479482e-09 
-5.1853095e-09 3.9287684e-08 -4.2231253e-11 
-3.3566736e-09 2.5667884e-08 2.8287779e-09 
-2.1935587e-09 1.8392953e-08 2.8927818e-09 
-2.2957161e-06 -1.4540480e-04 -9.4572961e-06 
4.0022010e-06 -1.8976942e-05 9.2567007e-06 
7.9317806e-07 -2.5867253e-06 2.8061645e-06 
2.9366007e-08 4.0051439e-08 3.4061910e-07 
4.2250976e-09 8.1139483e-08 4.4987978e-08 
1.2204751e-09 2.9164367e-08 1.3840260e-09 
1.8800380e-06 -2.5132856e-06 2.4811868e-06 
2.9129569e-07 -1.1691079e-08 7.0473862e-07 
8.4248404e-09 1.5253481e-07 7.0875963e-08 
-6.1432779e-08 -3.7062856e-07 4.4066422e-07 
1.2575462e-07 -8.9847426e-06 2.5830468e-06 
4.7948420e-06 -6.3226355e-05 1.3363785e-05 
3.6918590e-09 5.4817242e-08 1.5961784e-09 
4.2214083e-06 -1.2576312e-05 3.3708759e-06 
-6.0910671e-10 9.8131700e-08 4.3732555e-08 
-3.3524901e-09 5.3791108e-08 5.8077907e-09 
-2.2476374e-07 -2.3226498e-06 1.9551719e-07 
-5.4972872e-08 -9.9683839e-10 2.9834368e-07 
1.2681278e-06 -6.1555784e-06 2.4674625e-06 
-3.4379582e-08 2.6716830e-08 -3.4705891e-08 
2.4504561e-07 -4.1626390e-07 1.0869986e-06 
1.0053853e-06 -2.6558429e-05 3.8072553e-06 
8.1328281e-08 1.9166175e-07 1.6732335e-07 
-2.8482780e-10 2.5829346e-08 -2.4830107e-10 
1.9461331e-06 -2.9567943e-06 1.2182381e-06 
1.1471289e-10 2.8763029e-08 -2.8378788e-09 
1.0887197e-06 -5.4566085e-06 4.6698865e-06 
1.6740277e-07 1.7966862e-08 4.8868645e-07 
3.5608505e-06 -6.7179590e-06 4.6470846e-06 
1.2604582e-06 -1.8204902e-06 2.3779687e-06 
2.8685150e-07 -1.1660535e-06 6.5014819e-07 
-1.0326209e-09 1.1783541e-07 -2.1707252e-09 
-1.4739125e-08 1.4540979e-07 -4.0703068e-09 
-7.4029378e-09 8.9564104e-08 1.4259542e-09 
-5.2559649e-08 2.2573845e-07 -4.5905306e-08 
1.4536093e-09 1.8270434e-08 -1.5666261e-09 
-3.7035797e-10 6.8092511e-08 4.0540318e-09 
5.1924449e-06 -1.5446676e-05 5.3343738e-06 
4.0908867e-07 -3.2745919e-07 4.3177161e-07 
3.9401043e-06 -2.7641829e-05 8.9116347e-06 
-3.8287205e-09 2.9103617e-08 1.2648540e-07 
1.1450065e-07 -9.2654466e-07 1.5401633e-06 
-4.5085297e-10 2.3224715e-08 2.2342880e-10 
-1.4126919e-09 2.6146122e-08 1.2447686e-08 
-3.4747097e-07 -9.4622175e-07 -3.9992165e-07 
3.9779552e-06 -2.7238813e-05 5.0056524e-06 
-6.3551475e-08 3.0164719e-07 -2.3425830e-08 
8.0670503e-07 -7.6586559e-07 8.4914416e-07 
5.5495444e-09 3.3768917e-08 1.2817269e-08 
9.8550629e-07 -7.3749743e-06 9.9522288e-07 
3.5390173e-08 -1.7542997e-07 5.2900288e-07 
4.5335722e-07 -1.8141642e-06 2.1563135e-07 
7.3423259e-09 4.4174119e-08 3.5161976e-09 
-2.7307385e-09 3.9417099e-08 2.1225082e-09 
-2.2150591e-08 1.7924161e-07 -4.3889436e-08 
-5.1462967e-09 2.0465285e-08 1.2188129e-07 
1.9504849e-08 6.5695829e-08 1.5759667e-07 
6.1304434e-10 1.2822282e-08 1.5227256e-09 
1.1664796e-06 -6.1806049e-06 4.3296137e-07 
5.9945595e-09 2.8546248e-07 -2.9501887e-08 
2.5323487e-07 -4.9984763e-08 3.6456143e-07 
-2.5156234e-08 2.3659101e-07 -4.8163904e-09 
2.7834044e-08 9.0278093e-08 3.5147384e-08 
1.7177784e-07 -1.5263737e-05 1.1567818e-06 
-3.9753596e-09 4.3933277e-08 1.5704377e-09 
6.2965654e-07 -3.9174401e-07 1.2121218e-06 