# vtk DataFile Version 4.0
vtk output
ASCII
DATASET UNSTRUCTURED_GRID
POINTS 460 float
0.0000000e+00 0.0000000e+00 0.0000000e+00 
5.0000000e+00 0.0000000e+00 0.0000000e+00 
5.0000000e+00 3.0000000e+00 0.0000000e+00 
0.0000000e+00 3.0000000e+00 0.0000000e+00 
0.0000000e+00 0.0000000e+00 1.0000000e+01 
5.0000000e+00 0.0000000e+00 1.0000000e+01 
5.0000000e+00 3.0000000e+00 1.0000000e+01 
0.0000000e+00 3.0000000e+00 1.0000000e+01 
1.0000000e+00 3.0000000e+00 -5.0000000e+00 
1.0000000e+00 3.0000000e+00 -4.5000000e+00 
1.0000000e+00 3.0000000e+00 -4.0000000e+00 
1.0000000e+00 3.0000000e+00 -3.5000000e+00 
1.0000000e+00 3.0000000e+00 -3.0000000e+00 
1.0000000e+00 3.0000000e+00 -2.5000000e+00 
1.0000000e+00 3.0000000e+00 -2.0000000e+00 
1.0000000e+00 3.0000000e+00 -1.5000000e+00 
1.0000000e+00 3.0000000e+00 -1.0000000e+00 
1.0000000e+00 3.0000000e+00 -5.0000000e-01 
1.0000000e+00 3.0000000e+00 0.0000000e+00 
1.0000000e+00 3.0000000e+00 5.0000000e-01 
1.0000000e+00 3.0000000e+00 1.0000000e+00 
1.0000000e+00 3.0000000e+00 1.5000000e+00 
1.0000000e+00 3.0000000e+00 2.0000000e+00 
1.0000000e+00 3.0000000e+00 2.5000000e+00 
1.0000000e+00 3.0000000e+00 3.0000000e+00 
1.0000000e+00 3.0000000e+00 3.5000000e+00 
1.0000000e+00 3.0000000e+00 4.0000000e+00 
1.0000000e+00 3.0000000e+00 4.5000000e+00 
1.0000000e+00 3.0000000e+00 5.0000000e+00 
1.0000000e+00 3.0000000e+00 5.5000000e+00 
1.0000000e+00 3.0000000e+00 6.0000000e+00 
1.0000000e+00 3.0000000e+00 6.5000000e+00 
1.0000000e+00 3.0000000e+00 7.0000000e+00 
1.0000000e+00 3.0000000e+00 7.5000000e+00 
1.0000000e+00 3.0000000e+00 8.0000000e+00 
1.0000000e+00 3.0000000e+00 8.5000000e+00 
1.0000000e+00 3.0000000e+00 9.0000000e+00 
1.0000000e+00 3.0000000e+00 9.5000000e+00 
1.0000000e+00 3.0000000e+00 1.0000000e+01 
1.0000000e+00 3.0000000e+00 1.0500000e+01 
1.0000000e+00 3.0000000e+00 1.1000000e+01 
1.0000000e+00 3.0000000e+00 1.1500000e+01 
1.0000000e+00 3.0000000e+00 1.2000000e+01 
1.0000000e+00 3.0000000e+00 1.2500000e+01 
1.0000000e+00 3.0000000e+00 1.3000000e+01 
1.0000000e+00 3.0000000e+00 1.3500000e+01 
1.0000000e+00 3.0000000e+00 1.4000000e+01 
1.0000000e+00 3.0000000e+00 1.4500000e+01 
1.0000000e+00 3.0250001e+00 -5.0000000e+00 
1.0000000e+00 3.0250001e+00 -4.5000000e+00 
1.0000000e+00 3.0250001e+00 -4.0000000e+00 
1.0000000e+00 3.0250001e+00 -3.5000000e+00 
1.0000000e+00 3.0250001e+00 -3.0000000e+00 
1.0000000e+00 3.0250001e+00 -2.5000000e+00 
1.0000000e+00 3.0250001e+00 -2.0000000e+00 
1.0000000e+00 3.0250001e+00 -1.5000000e+00 
1.0000000e+00 3.0250001e+00 -1.0000000e+00 
1.0000000e+00 3.0250001e+00 -5.0000000e-01 
1.0000000e+00 3.0250001e+00 0.0000000e+00 
1.0000000e+00 3.0250001e+00 5.0000000e-01 
1.0000000e+00 3.0250001e+00 1.0000000e+00 
1.0000000e+00 3.0250001e+00 1.5000000e+00 
1.0000000e+00 3.0250001e+00 2.0000000e+00 
1.0000000e+00 3.0250001e+00 2.5000000e+00 
1.0000000e+00 3.0250001e+00 3.0000000e+00 
1.0000000e+00 3.0250001e+00 3.5000000e+00 
1.0000000e+00 3.0250001e+00 4.0000000e+00 
1.0000000e+00 3.0250001e+00 4.5000000e+00 
1.0000000e+00 3.0250001e+00 5.0000000e+00 
1.0000000e+00 3.0250001e+00 5.5000000e+00 
1.0000000e+00 3.0250001e+00 6.0000000e+00 
1.0000000e+00 3.0250001e+00 6.5000000e+00 
1.0000000e+00 3.0250001e+00 7.0000000e+00 
1.0000000e+00 3.0250001e+00 7.5000000e+00 
1.0000000e+00 3.0250001e+00 8.0000000e+00 
1.0000000e+00 3.0250001e+00 8.5000000e+00 
1.0000000e+00 3.0250001e+00 9.0000000e+00 
1.0000000e+00 3.0250001e+00 9.5000000e+00 
1.0000000e+00 3.0250001e+00 1.0000000e+01 
1.0000000e+00 3.0250001e+00 1.0500000e+01 
1.0000000e+00 3.0250001e+00 1.1000000e+01 
1.0000000e+00 3.0250001e+00 1.1500000e+01 
1.0000000e+00 3.0250001e+00 1.2000000e+01 
1.0000000e+00 3.0250001e+00 1.2500000e+01 
1.0000000e+00 3.0250001e+00 1.3000000e+01 
1.0000000e+00 3.0250001e+00 1.3500000e+01 
1.0000000e+00 3.0250001e+00 1.4000000e+01 
1.0000000e+00 3.0250001e+00 1.4500000e+01 
1.0000000e+00 -2.0000000e+00 -5.0000000e+00 
1.0000000e+00 -2.0000000e+00 -4.5000000e+00 
1.0000000e+00 -2.0000000e+00 -4.0000000e+00 
1.0000000e+00 -2.0000000e+00 -3.5000000e+00 
1.0000000e+00 -2.0000000e+00 -3.0000000e+00 
1.0000000e+00 -2.0000000e+00 -2.5000000e+00 
1.0000000e+00 -2.0000000e+00 -2.0000000e+00 
1.0000000e+00 -2.0000000e+00 -1.5000000e+00 
1.0000000e+00 -2.0000000e+00 -1.0000000e+00 
1.0000000e+00 -2.0000000e+00 -5.0000000e-01 
1.0000000e+00 -2.0000000e+00 1.0500000e+01 
1.0000000e+00 -2.0000000e+00 1.1000000e+01 
1.0000000e+00 -2.0000000e+00 1.1500000e+01 
1.0000000e+00 -2.0000000e+00 1.2000000e+01 
1.0000000e+00 -2.0000000e+00 1.2500000e+01 
1.0000000e+00 -2.0000000e+00 1.3000000e+01 
1.0000000e+00 -2.0000000e+00 1.3500000e+01 
1.0000000e+00 -2.0000000e+00 1.4000000e+01 
1.0000000e+00 -2.0000000e+00 1.4500000e+01 
1.0000000e+00 0.0000000e+00 0.0000000e+00 
2.0000000e+00 0.0000000e+00 0.0000000e+00 
3.0000000e+00 0.0000000e+00 0.0000000e+00 
4.0000000e+00 0.0000000e+00 0.0000000e+00 
5.0000000e+00 1.0000000e+00 0.0000000e+00 
5.0000000e+00 2.0000000e+00 0.0000000e+00 
0.0000000e+00 2.0000000e+00 0.0000000e+00 
0.0000000e+00 1.0000000e+00 0.0000000e+00 
0.0000000e+00 0.0000000e+00 1.0000000e+00 
0.0000000e+00 0.0000000e+00 2.0000000e+00 
0.0000000e+00 0.0000000e+00 3.0000000e+00 
0.0000000e+00 0.0000000e+00 4.0000000e+00 
0.0000000e+00 0.0000000e+00 5.0000000e+00 
0.0000000e+00 0.0000000e+00 6.0000000e+00 
0.0000000e+00 0.0000000e+00 7.0000000e+00 
0.0000000e+00 0.0000000e+00 8.0000000e+00 
0.0000000e+00 0.0000000e+00 9.0000000e+00 
5.0000000e+00 0.0000000e+00 1.0000000e+00 
5.0000000e+00 0.0000000e+00 2.0000000e+00 
5.0000000e+00 0.0000000e+00 3.0000000e+00 
5.0000000e+00 0.0000000e+00 4.0000000e+00 
5.0000000e+00 0.0000000e+00 5.0000000e+00 
5.0000000e+00 0.0000000e+00 6.0000000e+00 
5.0000000e+00 0.0000000e+00 7.0000000e+00 
5.0000000e+00 0.0000000e+00 8.0000000e+00 
5.0000000e+00 0.0000000e+00 9.0000000e+00 
1.0000000e+00 0.0000000e+00 1.0000000e+01 
2.0000000e+00 0.0000000e+00 1.0000000e+01 
3.0000000e+00 0.0000000e+00 1.0000000e+01 
4.0000000e+00 0.0000000e+00 1.0000000e+01 
5.0000000e+00 3.0000000e+00 1.0000000e+00 
5.0000000e+00 3.0000000e+00 2.0000000e+00 
5.0000000e+00 3.0000000e+00 3.0000000e+00 
5.0000000e+00 3.0000000e+00 4.0000000e+00 
5.0000000e+00 3.0000000e+00 5.0000000e+00 
5.0000000e+00 3.0000000e+00 6.0000000e+00 
5.0000000e+00 3.0000000e+00 7.0000000e+00 
5.0000000e+00 3.0000000e+00 8.0000000e+00 
5.0000000e+00 3.0000000e+00 9.0000000e+00 
5.0000000e+00 1.0000000e+00 1.0000000e+01 
5.0000000e+00 2.0000000e+00 1.0000000e+01 
0.0000000e+00 3.0000000e+00 1.0000000e+00 
0.0000000e+00 3.0000000e+00 2.0000000e+00 
0.0000000e+00 3.0000000e+00 3.0000000e+00 
0.0000000e+00 3.0000000e+00 4.0000000e+00 
0.0000000e+00 3.0000000e+00 5.0000000e+00 
0.0000000e+00 3.0000000e+00 6.0000000e+00 
0.0000000e+00 3.0000000e+00 7.0000000e+00 
0.0000000e+00 3.0000000e+00 8.0000000e+00 
0.0000000e+00 3.0000000e+00 9.0000000e+00 
0.0000000e+00 2.0000000e+00 1.0000000e+01 
0.0000000e+00 1.0000000e+00 1.0000000e+01 
4.0000000e+00 3.0000000e+00 0.0000000e+00 
3.0000000e+00 3.0000000e+00 0.0000000e+00 
2.0000000e+00 3.0000000e+00 0.0000000e+00 
4.0000000e+00 3.0000000e+00 1.0000000e+01 
3.0000000e+00 3.0000000e+00 1.0000000e+01 
2.0000000e+00 3.0000000e+00 1.0000000e+01 
4.0618000e+00 1.5000000e+00 0.0000000e+00 
1.5046000e+00 7.6549745e-01 0.0000000e+00 
2.5000000e+00 2.1339746e+00 0.0000000e+00 
1.5046000e+00 2.2345026e+00 0.0000000e+00 
2.4957771e+00 8.1560516e-01 0.0000000e+00 
3.4707544e+00 2.2336540e+00 0.0000000e+00 
3.4700506e+00 7.5794268e-01 0.0000000e+00 
8.6322361e-01 1.5000000e+00 0.0000000e+00 
2.0000000e+00 1.5000000e+00 0.0000000e+00 
2.9960666e+00 1.4974480e+00 0.0000000e+00 
4.2679491e+00 7.3205084e-01 0.0000000e+00 
4.2679491e+00 2.2679491e+00 0.0000000e+00 
7.2695929e-01 2.2730408e+00 0.0000000e+00 
7.2695929e-01 7.2695929e-01 0.0000000e+00 
4.1822505e+00 0.0000000e+00 2.5515697e+00 
4.2017918e+00 0.0000000e+00 4.4725966e+00 
4.1114569e+00 0.0000000e+00 6.5092020e+00 
8.6602539e-01 0.0000000e+00 3.5000000e+00 
8.4778279e-01 0.0000000e+00 5.4684029e+00 
8.9629614e-01 0.0000000e+00 7.5867257e+00 
2.5566745e+00 0.0000000e+00 8.1853306e-01 
2.4918270e+00 0.0000000e+00 9.1386929e+00 
8.4677207e-01 0.0000000e+00 1.5042374e+00 
4.0943027e+00 0.0000000e+00 8.4081745e+00 
8.6281651e-01 0.0000000e+00 2.5007062e+00 
1.7315160e+00 0.0000000e+00 3.0001178e+00 
1.7319617e+00 0.0000000e+00 4.0000196e+00 
2.5980761e+00 0.0000000e+00 3.5000000e+00 
2.5536871e+00 0.0000000e+00 4.4963923e+00 
2.5928419e+00 0.0000000e+00 2.4239938e+00 
1.5037409e+00 0.0000000e+00 9.1535149e+00 
1.8433737e+00 0.0000000e+00 8.1858873e+00 
3.0000000e+00 0.0000000e+00 8.2679491e+00 
2.5000000e+00 0.0000000e+00 7.4019237e+00 
3.5042722e+00 0.0000000e+00 7.4271150e+00 
3.0310018e+00 0.0000000e+00 6.5282087e+00 
2.0373929e+00 0.0000000e+00 6.5307913e+00 
3.4767809e+00 0.0000000e+00 5.8031492e+00 
2.5452602e+00 0.0000000e+00 5.5720768e+00 
1.6456656e+00 0.0000000e+00 1.9697139e+00 
8.6297011e-01 0.0000000e+00 4.4947371e+00 
1.0111579e+00 0.0000000e+00 6.5282545e+00 
3.4994321e+00 0.0000000e+00 8.4691072e-01 
4.1860156e+00 0.0000000e+00 3.5040276e+00 
1.7320508e+00 0.0000000e+00 5.0000000e+00 
4.0544066e+00 0.0000000e+00 1.5781221e+00 
1.5817389e+00 0.0000000e+00 9.3943578e-01 
8.3166349e-01 0.0000000e+00 8.5090933e+00 
3.4686174e+00 0.0000000e+00 9.1752682e+00 
3.0709300e+00 0.0000000e+00 1.5799091e+00 
3.3927374e+00 0.0000000e+00 3.0399952e+00 
3.3826034e+00 0.0000000e+00 3.9747651e+00 
4.3420062e+00 0.0000000e+00 7.4688983e+00 
3.4023225e+00 0.0000000e+00 4.9314723e+00 
1.6740381e+00 0.0000000e+00 7.3014426e+00 
4.2715640e+00 0.0000000e+00 5.4758859e+00 
1.6225953e+00 0.0000000e+00 5.8104177e+00 
4.2679491e+00 0.0000000e+00 9.2679491e+00 
7.3205084e-01 0.0000000e+00 7.3205084e-01 
4.2679491e+00 0.0000000e+00 7.3205084e-01 
7.3205084e-01 0.0000000e+00 9.2679491e+00 
3.4586334e+00 0.0000000e+00 2.2347178e+00 
2.2895701e+00 0.0000000e+00 1.5463171e+00 
5.0000000e+00 2.2345026e+00 1.5046000e+00 
[...]
POINT_DATA 460
FIELD FieldData 2
DISPLACEMENT 3 460  float
0.0000000e+00 0.0000000e+00 0.0000000e+00 
0.0000000e+00 0.0000000e+00 0.0000000e+00 
0.0000000e+00 4.3231771e-07 0.0000000e+00 
0.0000000e+00 -9.7082318e-07 0.0000000e+00 
0.0000000e+00 0.0000000e+00 0.0000000e+00 
0.0000000e+00 0.0000000e+00 0.0000000e+00 
0.0000000e+00 4.3825176e-07 0.0000000e+00 
0.0000000e+00 -6.7855814e-07 0.0000000e+00 
0.0000000e+00 1.5945068e-06 0.0000000e+00 
0.0000000e+00 1.5845737e-06 0.0000000e+00 
0.0000000e+00 1.5520966e-06 0.0000000e+00 
0.0000000e+00 1.4937954e-06 0.0000000e+00 
0.0000000e+00 1.4068632e-06 0.0000000e+00 
0.0000000e+00 1.2881379e-06 0.0000000e+00 
0.0000000e+00 1.1333832e-06 0.0000000e+00 
0.0000000e+00 9.3726135e-07 0.0000000e+00 
0.0000000e+00 6.9483082e-07 0.0000000e+00 
0.0000000e+00 4.0557688e-07 0.0000000e+00 
0.0000000e+00 7.2494615e-08 0.0000000e+00 
-3.1773783e-07 -2.9981177e-07 1.2134748e-06 
-8.7299782e-07 -9.8318446e-07 3.1658685e-06 
-1.1662613e-06 -2.5686259e-06 4.6670425e-06 
-2.1333813e-06 -6.6849561e-06 7.3498627e-06 
-3.4530842e-06 -1.7270238e-05 9.6576759e-06 
-3.9450811e-06 -4.1103140e-05 1.1354198e-05 
-5.7043903e-06 -8.6903332e-05 1.6095084e-05 
-6.4397291e-06 -1.5850218e-04 9.0431531e-06 
-1.7717424e-05 -2.3413773e-04 1.4838895e-05 
-1.1891158e-05 -2.4847710e-04 -2.9577852e-06 
-1.2351446e-06 -1.8317784e-04 -1.8423525e-05 
-4.6904520e-06 -1.0453392e-04 -9.7373822e-06 
-3.4280736e-06 -4.9564722e-05 -1.2633731e-05 
-3.5361472e-06 -2.0067078e-05 -1.2671942e-05 
-2.2701836e-06 -6.9514876e-06 -7.7555960e-06 
-1.6198818e-06 -2.1119909e-06 -5.2181058e-06 
-6.9842213e-07 -6.8465528e-07 -2.7166557e-06 
-3.6067058e-07 -3.5555323e-07 -1.6732980e-06 
-2.2657753e-07 -2.7601396e-07 -8.4027442e-07 
0.0000000e+00 -2.4863354e-07 0.0000000e+00 
0.0000000e+00 -2.0201763e-07 0.0000000e+00 
0.0000000e+00 -1.4806837e-07 0.0000000e+00 
0.0000000e+00 -9.5797638e-08 0.0000000e+00 
0.0000000e+00 -5.0865967e-08 0.0000000e+00 
0.0000000e+00 -1.5247601e-08 0.0000000e+00 
0.0000000e+00 1.0979002e-08 0.0000000e+00 
0.0000000e+00 2.8569755e-08 0.0000000e+00 
0.0000000e+00 3.8508578e-08 0.0000000e+00 
0.0000000e+00 4.1670621e-08 0.0000000e+00 
0.0000000e+00 1.5959446e-06 0.0000000e+00 
0.0000000e+00 1.5859574e-06 0.0000000e+00 
0.0000000e+00 1.5533126e-06 0.0000000e+00 
0.0000000e+00 1.4948863e-06 0.0000000e+00 
0.0000000e+00 1.4079047e-06 0.0000000e+00 
0.0000000e+00 1.2891196e-06 0.0000000e+00 
0.0000000e+00 1.1342323e-06 0.0000000e+00 
0.0000000e+00 9.3788873e-07 0.0000000e+00 
0.0000000e+00 6.9513220e-07 0.0000000e+00 
0.0000000e+00 4.0543168e-07 0.0000000e+00 
0.0000000e+00 8.0367506e-08 0.0000000e+00 
0.0000000e+00 -2.9689332e-07 0.0000000e+00 
0.0000000e+00 -9.6045630e-07 0.0000000e+00 
0.0000000e+00 -2.5018769e-06 0.0000000e+00 
0.0000000e+00 -6.5891804e-06 0.0000000e+00 
0.0000000e+00 -1.7149279e-05 0.0000000e+00 
0.0000000e+00 -4.1086609e-05 0.0000000e+00 
0.0000000e+00 -8.7411041e-05 0.0000000e+00 
0.0000000e+00 -1.6030231e-04 0.0000000e+00 
0.0000000e+00 -2.3712128e-04 0.0000000e+00 
0.0000000e+00 -2.5278173e-04 0.0000000e+00 
0.0000000e+00 -1.8593899e-04 0.0000000e+00 
0.0000000e+00 -1.0582404e-04 0.0000000e+00 
0.0000000e+00 -4.9947546e-05 0.0000000e+00 
0.0000000e+00 -2.0006695e-05 0.0000000e+00 
0.0000000e+00 -6.8221939e-06 0.0000000e+00 
0.0000000e+00 -2.0182290e-06 0.0000000e+00 
0.0000000e+00 -6.3223570e-07 0.0000000e+00 
0.0000000e+00 -3.3272096e-07 0.0000000e+00 
0.0000000e+00 -2.7203038e-07 0.0000000e+00 
0.0000000e+00 -2.4607891e-07 0.0000000e+00 
0.0000000e+00 -2.0240370e-07 0.0000000e+00 
0.0000000e+00 -1.4828269e-07 0.0000000e+00 
0.0000000e+00 -9.5901527e-08 0.0000000e+00 
0.0000000e+00 -5.0910032e-08 0.0000000e+00 
0.0000000e+00 -1.5265048e-08 0.0000000e+00 
0.0000000e+00 1.0970238e-08 0.0000000e+00 
0.0000000e+00 2.8561953e-08 0.0000000e+00 
0.0000000e+00 3.8499600e-08 0.0000000e+00 
0.0000000e+00 4.1660950e-08 0.0000000e+00 
0.0000000e+00 0.0000000e+00 0.0000000e+00 
0.0000000e+00 0.0000000e+00 0.0000000e+00 
0.0000000e+00 0.0000000e+00 0.0000000e+00 
0.0000000e+00 0.0000000e+00 0.0000000e+00 
0.0000000e+00 0.0000000e+00 0.0000000e+00 
0.0000000e+00 0.0000000e+00 0.0000000e+00 
0.0000000e+00 0.0000000e+00 0.0000000e+00 
0.0000000e+00 0.0000000e+00 0.0000000e+00 
0.0000000e+00 0.0000000e+00 0.0000000e+00 
0.0000000e+00 0.0000000e+00 0.0000000e+00 
0.0000000e+00 0.0000000e+00 0.0000000e+00 
0.0000000e+00 0.0000000e+00 0.0000000e+00 
0.0000000e+00 0.0000000e+00 0.0000000e+00 
0.0000000e+00 0.0000000e+00 0.0000000e+00 
0.0000000e+00 0.0000000e+00 0.0000000e+00 
0.0000000e+00 0.0000000e+00 0.0000000e+00 
0.0000000e+00 0.0000000e+00 0.0000000e+00 
0.0000000e+00 0.0000000e+00 0.0000000e+00 
0.0000000e+00 0.0000000e+00 0.0000000e+00 
0.0000000e+00 0.0000000e+00 0.0000000e+00 
0.0000000e+00 0.0000000e+00 0.0000000e+00 
0.0000000e+00 0.0000000e+00 0.0000000e+00 
0.0000000e+00 0.0000000e+00 0.0000000e+00 
0.0000000e+00 1.5561004e-07 0.0000000e+00 
0.0000000e+00 3.7132412e-07 0.0000000e+00 
0.0000000e+00 -9.4872973e-07 0.0000000e+00 
0.0000000e+00 -6.7267376e-07 0.0000000e+00 
0.0000000e+00 0.0000000e+00 0.0000000e+00 
0.0000000e+00 0.0000000e+00 0.0000000e+00 
0.0000000e+00 0.0000000e+00 0.0000000e+00 
0.0000000e+00 0.0000000e+00 0.0000000e+00 
0.0000000e+00 0.0000000e+00 0.0000000e+00 
0.0000000e+00 0.0000000e+00 0.0000000e+00 
0.0000000e+00 0.0000000e+00 0.0000000e+00 
0.0000000e+00 0.0000000e+00 0.0000000e+00 
0.0000000e+00 0.0000000e+00 0.0000000e+00 
0.0000000e+00 0.0000000e+00 0.0000000e+00 
0.0000000e+00 0.0000000e+00 0.0000000e+00 
0.0000000e+00 0.0000000e+00 0.0000000e+00 
0.0000000e+00 0.0000000e+00 0.0000000e+00 
0.0000000e+00 0.0000000e+00 0.0000000e+00 
0.0000000e+00 0.0000000e+00 0.0000000e+00 
0.0000000e+00 0.0000000e+00 0.0000000e+00 
0.0000000e+00 0.0000000e+00 0.0000000e+00 
0.0000000e+00 0.0000000e+00 0.0000000e+00 
0.0000000e+00 0.0000000e+00 0.0000000e+00 
0.0000000e+00 0.0000000e+00 0.0000000e+00 
0.0000000e+00 0.0000000e+00 0.0000000e+00 
0.0000000e+00 0.0000000e+00 0.0000000e+00 
0.0000000e+00 2.6107551e-07 0.0000000e+00 
0.0000000e+00 1.5550499e-07 0.0000000e+00 
0.0000000e+00 -8.4408936e-07 0.0000000e+00 
0.0000000e+00 -9.1225576e-07 0.0000000e+00 
0.0000000e+00 -1.5857244e-06 0.0000000e+00 
0.0000000e+00 2.5747715e-07 0.0000000e+00 
0.0000000e+00 -3.1588658e-07 0.0000000e+00 
0.0000000e+00 4.0355366e-07 0.0000000e+00 
0.0000000e+00 3.6018011e-07 0.0000000e+00 
0.0000000e+00 1.2666504e-07 0.0000000e+00 
0.0000000e+00 3.5999309e-07 0.0000000e+00 
0.0000000e+00 -2.7065871e-06 0.0000000e+00 
0.0000000e+00 -1.1071548e-05 0.0000000e+00 
0.0000000e+00 -3.7014401e-05 0.0000000e+00 
0.0000000e+00 -8.0957790e-05 0.0000000e+00 
0.0000000e+00 -9.6881304e-05 0.0000000e+00 
0.0000000e+00 -6.2936066e-05 0.0000000e+00 
0.0000000e+00 -2.2864242e-05 0.0000000e+00 
0.0000000e+00 -6.2105341e-06 0.0000000e+00 
0.0000000e+00 -1.6152918e-06 0.0000000e+00 
0.0000000e+00 -6.6026047e-07 0.0000000e+00 
0.0000000e+00 -4.6066447e-07 0.0000000e+00 
0.0000000e+00 4.6934508e-07 0.0000000e+00 
0.0000000e+00 6.7515103e-08 0.0000000e+00 
0.0000000e+00 -3.1796117e-07 0.0000000e+00 
0.0000000e+00 3.0420031e-07 0.0000000e+00 
0.0000000e+00 2.5301066e-08 0.0000000e+00 
0.0000000e+00 -1.1480594e-07 0.0000000e+00 
0.0000000e+00 3.6724245e-07 0.0000000e+00 
0.0000000e+00 -3.3292324e-07 0.0000000e+00 
0.0000000e+00 4.6352503e-07 0.0000000e+00 
0.0000000e+00 2.6153774e-07 0.0000000e+00 
0.0000000e+00 1.2099671e-08 0.0000000e+00 
0.0000000e+00 5.9793422e-07 0.0000000e+00 
0.0000000e+00 -6.0371541e-08 0.0000000e+00 
0.0000000e+00 -2.1405548e-07 0.0000000e+00 
0.0000000e+00 1.5793351e-07 0.0000000e+00 
0.0000000e+00 2.8721803e-07 0.0000000e+00 
0.0000000e+00 1.3268692e-07 0.0000000e+00 
0.0000000e+00 5.0845711e-07 0.0000000e+00 
0.0000000e+00 -2.3704902e-07 0.0000000e+00 
0.0000000e+00 -2.5615986e-07 0.0000000e+00 
0.0000000e+00 0.0000000e+00 0.0000000e+00 
0.0000000e+00 0.0000000e+00 0.0000000e+00 
0.0000000e+00 0.0000000e+00 0.0000000e+00 
0.0000000e+00 0.0000000e+00 0.0000000e+00 
0.0000000e+00 0.0000000e+00 0.0000000e+00 
0.0000000e+00 0.0000000e+00 0.0000000e+00 
0.0000000e+00 0.0000000e+00 0.0000000e+00 
0.0000000e+00 0.0000000e+00 0.0000000e+00 
0.0000000e+00 0.0000000e+00 0.0000000e+00 
0.0000000e+00 0.0000000e+00 0.0000000e+00 
0.0000000e+00 0.0000000e+00 0.0000000e+00 
0.0000000e+00 0.0000000e+00 0.0000000e+00 
0.0000000e+00 0.0000000e+00 0.0000000e+00 
0.0000000e+00 0.0000000e+00 0.0000000e+00 
0.0000000e+00 0.0000000e+00 0.0000000e+00 
0.0000000e+00 0.0000000e+00 0.0000000e+00 
0.0000000e+00 0.0000000e+00 0.0000000e+00 
0.0000000e+00 0.0000000e+00 0.0000000e+00 
0.0000000e+00 0.0000000e+00 0.0000000e+00 
0.0000000e+00 0.0000000e+00 0.0000000e+00 
0.0000000e+00 0.0000000e+00 0.0000000e+00 
0.0000000e+00 0.0000000e+00 0.0000000e+00 
0.0000000e+00 0.0000000e+00 0.0000000e+00 
0.0000000e+00 0.0000000e+00 0.0000000e+00 
0.0000000e+00 0.0000000e+00 0.0000000e+00 
0.0000000e+00 0.0000000e+00 0.0000000e+00 
0.0000000e+00 0.0000000e+00 0.0000000e+00 
0.0000000e+00 0.0000000e+00 0.0000000e+00 
0.0000000e+00 0.0000000e+00 0.0000000e+00 
0.0000000e+00 0.0000000e+00 0.0000000e+00 
0.0000000e+00 0.0000000e+00 0.0000000e+00 
0.0000000e+00 0.0000000e+00 0.0000000e+00 
0.0000000e+00 0.0000000e+00 0.0000000e+00 
0.0000000e+00 0.0000000e+00 0.0000000e+00 
0.0000000e+00 0.0000000e+00 0.0000000e+00 
0.0000000e+00 0.0000000e+00 0.0000000e+00 
0.0000000e+00 0.0000000e+00 0.0000000e+00 
0.0000000e+00 0.0000000e+00 0.0000000e+00 
0.0000000e+00 0.0000000e+00 0.0000000e+00 
0.0000000e+00 0.0000000e+00 0.0000000e+00 
0.0000000e+00 0.0000000e+00 0.0000000e+00 
0.0000000e+00 0.0000000e+00 0.0000000e+00 
0.0000000e+00 0.0000000e+00 0.0000000e+00 
0.0000000e+00 0.0000000e+00 0.0000000e+00 
0.0000000e+00 0.0000000e+00 0.0000000e+00 
0.0000000e+00 0.0000000e+00 0.0000000e+00 
0.0000000e+00 0.0000000e+00 0.0000000e+00 
0.0000000e+00 0.0000000e+00 0.0000000e+00 
0.0000000e+00 0.0000000e+00 0.0000000e+00 
0.0000000e+00 2.4642705e-07 0.0000000e+00 
0.0000000e+00 2.0621691e-07 0.0000000e+00 
0.0000000e+00 -4.4201056e-07 0.0000000e+00 
0.0000000e+00 -1.0874098e-07 0.0000000e+00 
0.0000000e+00 3.6375468e-07 0.0000000e+00 
0.0000000e+00 -3.2608483e-07 0.0000000e+00 
0.0000000e+00 -8.0223606e-07 0.0000000e+00 
0.0000000e+00 -6.1392518e-07 0.0000000e+00 
0.0000000e+00 -7.0712707e-07 0.0000000e+00 
0.0000000e+00 -7.1824121e-07 0.0000000e+00 
0.0000000e+00 -3.7053372e-08 0.0000000e+00 
0.0000000e+00 -8.2840489e-07 0.0000000e+00 
0.0000000e+00 9.1333114e-08 0.0000000e+00 
0.0000000e+00 -1.9171893e-07 0.0000000e+00 
0.0000000e+00 -1.9021221e-07 0.0000000e+00 
0.0000000e+00 1.7028560e-08 0.0000000e+00 
0.0000000e+00 3.7978316e-07 0.0000000e+00 
0.0000000e+00 2.2681168e-07 0.0000000e+00 
0.0000000e+00 -7.4279251e-07 0.0000000e+00 
0.0000000e+00 -1.2730587e-07 0.0000000e+00 
0.0000000e+00 -1.2632152e-07 0.0000000e+00 
0.0000000e+00 -4.1534781e-07 0.0000000e+00 
0.0000000e+00 -6.8087803e-07 0.0000000e+00 
0.0000000e+00 -5.7763953e-07 0.0000000e+00 
0.0000000e+00 2.1318615e-07 0.0000000e+00 
0.0000000e+00 4.4346413e-07 0.0000000e+00 
0.0000000e+00 4.6355265e-08 0.0000000e+00 
0.0000000e+00 4.0089290e-07 0.0000000e+00 
0.0000000e+00 1.9008707e-08 0.0000000e+00 
0.0000000e+00 -1.3017000e-06 0.0000000e+00 
0.0000000e+00 -2.2928386e-06 0.0000000e+00 
0.0000000e+00 -8.4655949e-06 0.0000000e+00 
0.0000000e+00 -2.5016036e-05 0.0000000e+00 
0.0000000e+00 -5.7707339e-06 0.0000000e+00 
0.0000000e+00 -4.9571936e-05 0.0000000e+00 
0.0000000e+00 -6.7940840e-05 0.0000000e+00 
0.0000000e+00 -1.2083310e-05 0.0000000e+00 
0.0000000e+00 -1.8651663e-05 0.0000000e+00 
0.0000000e+00 -1.9774654e-05 0.0000000e+00 
0.0000000e+00 -8.3010877e-05 0.0000000e+00 
0.0000000e+00 -3.5275378e-05 0.0000000e+00 
0.0000000e+00 -3.2395896e-05 0.0000000e+00 
0.0000000e+00 -3.3434353e-06 0.0000000e+00 
0.0000000e+00 -5.9625531e-06 0.0000000e+00 
0.0000000e+00 -3.3170868e-06 0.0000000e+00 
0.0000000e+00 -1.9002520e-06 0.0000000e+00 
0.0000000e+00 -5.1044510e-05 0.0000000e+00 
0.0000000e+00 -1.1199691e-05 0.0000000e+00 
0.0000000e+00 -4.4253371e-05 0.0000000e+00 
0.0000000e+00 -2.5017560e-05 0.0000000e+00 
0.0000000e+00 -1.5679672e-05 0.0000000e+00 
0.0000000e+00 -2.1698173e-05 0.0000000e+00 
0.0000000e+00 -4.9653827e-06 0.0000000e+00 
0.0000000e+00 -9.1621750e-06 0.0000000e+00 
0.0000000e+00 -7.4351703e-07 0.0000000e+00 
0.0000000e+00 -1.9061431e-06 0.0000000e+00 
0.0000000e+00 -1.3188951e-06 0.0000000e+00 
0.0000000e+00 -1.1504067e-06 0.0000000e+00 
0.0000000e+00 -2.9630948e-07 0.0000000e+00 
0.0000000e+00 2.2895908e-07 0.0000000e+00 
0.0000000e+00 1.8262180e-07 0.0000000e+00 
0.0000000e+00 1.1513457e-07 0.0000000e+00 
0.0000000e+00 -2.1294032e-07 0.0000000e+00 
0.0000000e+00 4.1453174e-07 0.0000000e+00 
0.0000000e+00 3.8870908e-08 0.0000000e+00 
0.0000000e+00 -2.3970063e-07 0.0000000e+00 
0.0000000e+00 -4.0739014e-08 0.0000000e+00 
0.0000000e+00 1.9500195e-07 0.0000000e+00 
0.0000000e+00 4.9800931e-08 0.0000000e+00 
0.0000000e+00 4.6907090e-07 0.0000000e+00 
0.0000000e+00 -2.3319402e-07 0.0000000e+00 
0.0000000e+00 -2.7127481e-07 0.0000000e+00 
-1.3647474e-05 -1.0724237e-04 -1.0718163e-06 
-8.3816412e-06 -4.7514834e-05 -1.1018597e-05 
-2.4232900e-06 -5.4876837e-06 -6.1321589e-06 
-3.6024915e-06 -1.3163183e-05 8.4865851e-06 
-6.1358587e-06 -4.6427420e-05 1.0576064e-05 
-3.4909815e-06 -1.5059819e-06 -2.7124915e-07 
-1.3716573e-06 -1.0058719e-06 6.9913324e-07 
-1.5065401e-06 -4.8135746e-07 -9.7866143e-07 
-1.1688113e-06 -2.1789569e-06 3.4612258e-06 
-6.1868479e-07 -1.3268411e-06 -2.2923223e-06 
-7.7925267e-07 -1.2379903e-07 1.0361366e-06 
-4.7865444e-07 1.7882134e-07 -5.9396132e-07 
-1.9918505e-06 -1.1356701e-06 -1.2131002e-06 
-3.6853476e-06 -3.3266904e-06 -2.8972645e-06 
-2.0565685e-06 -2.0991413e-06 -2.4027067e-06 
-3.0440924e-06 -5.5380060e-06 -2.5571721e-06 
-5.3306517e-06 -1.1218850e-05 -3.2774385e-06 
-1.4153578e-06 -2.0565581e-06 -1.8922406e-06 
-4.8081765e-06 -1.2769813e-05 -7.4349241e-06 
-6.2163499e-06 -6.6953439e-06 -2.7618876e-06 
-5.8346695e-06 -8.3045425e-06 -1.5411141e-06 
-9.4431189e-06 -1.7827202e-05 -2.7142466e-06 
-1.1737843e-05 -2.5427114e-05 -1.6685012e-06 
-6.7301526e-06 -1.0687456e-05 8.2293928e-07 
-1.0222336e-05 -2.3477305e-05 2.9394621e-06 
-4.8319207e-06 -7.2193220e-06 1.7040384e-06 
-7.3016945e-06 -1.6803409e-05 5.7720067e-06 
-4.3938071e-06 -7.7384839e-06 3.6136678e-06 
-5.4974962e-06 -1.0304729e-05 5.4877946e-06 
-3.4134785e-06 -4.1272742e-06 3.1822494e-06 
-2.6269558e-06 -4.2281272e-06 3.9495985e-06 
-1.4395302e-05 -4.8501071e-05 -7.1268278e-06 
-1.1756908e-05 -3.2603057e-05 -6.6387975e-06 
-1.2076051e-05 -3.9169387e-05 7.3273559e-06 
-2.5197614e-06 -2.3080904e-06 9.8709734e-07 
-6.4651942e-07 -1.7195676e-07 -9.3160656e-07 
-1.3762618e-05 -4.9921655e-05 2.1808946e-06 
-2.9756307e-06 -2.7903873e-06 -2.5327779e-07 
-9.7463408e-07 -4.5223359e-07 1.5621698e-06 
-6.4597748e-07 2.0752545e-07 -6.0995364e-07 
-2.2989655e-06 -6.1567926e-06 -5.1691768e-06 
-1.8007869e-06 -2.8810080e-06 -3.8434951e-06 
-7.6255942e-06 -7.7280660e-05 -6.7224805e-06 
-7.5952244e-07 -1.0033058e-08 6.2485907e-07 
-5.2883424e-06 -2.2684679e-05 9.9352419e-06 
-6.3235166e-06 -2.4095294e-05 8.0125537e-06 
-1.0195111e-05 -8.1424332e-05 1.2836176e-05 
-1.1605951e-05 -1.0405231e-04 3.4357961e-06 
-5.1263100e-06 -2.6758184e-05 -9.7023722e-06 
-3.4042432e-06 -1.2200761e-05 -7.1575446e-06 
-6.7062751e-07 -4.0664196e-07 1.9255633e-06 
-2.0569535e-06 -6.1784449e-06 5.2024220e-06 
-4.5427092e-07 -2.0919383e-07 -1.1777114e-06 
-1.6513621e-06 -1.2971808e-06 2.1650339e-06 
-5.2534142e-06 -1.3012921e-05 8.0969567e-06 
-1.2663112e-06 -3.1052668e-06 -4.0851560e-06 
-6.8026397e-06 -2.1403794e-05 -7.3592269e-06 
-1.8726198e-06 -3.4632221e-06 4.0115779e-06 
-1.1567616e-05 -1.0946107e-04 -5.5251767e-06 
-1.0591807e-06 -5.5344742e-07 -1.4093703e-06 
-2.8098361e-07 4.1384848e-07 -3.3257899e-07 
-3.5306269e-07 3.3852976e-07 3.8364192e-07 
-4.5895144e-06 -5.5405221e-06 1.2583993e-06 
-3.0146041e-06 -6.9302746e-06 6.0527459e-06 
-8.4546815e-07 -8.2140849e-07 -1.7091880e-06 
-7.3381289e-06 -1.6926810e-05 -4.2561628e-06 
-1.5202493e-06 -1.0938497e-06 1.4724950e-06 
-2.7190670e-06 -3.2736450e-06 1.7054856e-06 
-9.3987910e-07 -9.8547446e-07 2.1931282e-06 
-1.9217465e-05 -6.0348470e-05 -1.9719350e-06 
-4.7015769e-07 -1.5233960e-07 -8.0023347e-07 
-1.2433449e-06 -1.4275143e-05 6.7925898e-06 
-5.5835829e-07 -7.6805081e-06 5.3300996e-06 
-1.7568648e-06 -3.0246860e-05 9.3664603e-06 
-2.7782150e-06 -4.9048263e-05 8.7466015e-06 
-5.4409179e-07 -3.3355798e-06 3.4342404e-06 
-1.2412767e-06 -7.8235709e-05 5.9330146e-06 
-6.0651787e-06 -1.0985875e-04 7.1087602e-06 
-1.2213285e-06 -1.2316581e-04 2.0675834e-06 
-1.1646610e-05 -1.2270214e-04 -5.8384758e-06 
-8.6948421e-06 -9.3752264e-05 -6.6673920e-06 
-5.3380058e-06 -6.5642344e-05 -1.0467478e-05 
-2.8677041e-06 -3.5422698e-05 -1.0806264e-05 
-1.0193402e-06 -1.6828901e-05 -7.0007145e-06 
-7.2048914e-07 -7.5511985e-06 -4.8129718e-06 
-4.2417025e-07 -4.2758816e-06 -3.3868030e-06 
-1.6956541e-07 -2.0766631e-06 -2.0777816e-06 
-1.5245554e-07 -8.0472961e-07 -1.0035251e-06 
-2.2649263e-07 -1.3309686e-06 1.5495492e-06 
1.6035495e-06 -6.7833894e-06 -4.0080399e-06 
6.7768938e-06 -2.6229593e-05 -5.9335030e-06 
9.8197861e-06 -3.5042594e-05 4.2733159e-06 
3.2098362e-06 -1.1155606e-05 5.1185748e-06 
5.2718690e-07 -1.7909463e-06 1.7521166e-06 
2.6847429e-06 -3.6471477e-06 -2.2779632e-06 
4.7195917e-06 -6.0612265e-06 -9.6381302e-07 
4.4301746e-06 -7.9316405e-06 2.4594538e-06 
8.7682320e-06 -7.1219176e-05 -4.3289679e-06 
5.2281280e-07 -2.3519540e-05 -3.9433635e-06 
-1.3962256e-07 -2.4962383e-06 -7.0950205e-07 
1.6620082e-06 -1.8511354e-06 2.0362675e-06 
5.1639699e-07 -1.2021319e-06 -1.1108187e-06 
4.5133852e-06 -4.2089963e-05 7.5496996e-06 
2.4608983e-07 -6.3380962e-06 1.5582550e-06 
1.0063206e-07 -6.5839042e-05 -7.7765362e-06 
6.7228193e-06 -2.4599605e-05 -1.0742706e-06 
2.8581694e-06 -9.9405206e-06 -3.2738844e-06 
4.5842944e-06 -9.1215450e-05 5.2269324e-06 
8.7500002e-06 -2.1545577e-05 -1.2994991e-06 
-1.6972423e-07 -8.6687342e-06 -2.6161760e-07 
3.1579827e-06 -3.1069123e-06 5.4592778e-07 
-5.5554484e-08 -1.3232300e-06 1.8956510e-07 
8.8391965e-07 -3.9149634e-07 -9.7133886e-07 
4.1302974e-07 1.1766202e-07 4.6590492e-07 
3.3203460e-06 -1.2078617e-05 -5.5437736e-06 
7.4745267e-06 -1.0618188e-05 1.4137781e-06 
2.4172180e-06 -3.2532112e-06 -2.9254852e-06 
4.9075193e-06 -7.8898729e-06 -3.1423501e-06 
2.4597523e-06 -8.8927272e-06 -1.1961389e-06 
9.2460260e-07 -9.2729834e-07 3.4643912e-07 
2.1881651e-06 -1.2409922e-05 2.1043400e-06 
5.5707380e-07 -1.7768840e-05 1.4935952e-06 
4.5523625e-06 -2.3277464e-05 1.1049900e-06 
5.5313819e-07 -3.9861578e-07 1.0670663e-06 
9.4359513e-07 -4.2330125e-06 1.5852299e-06 
6.6779660e-07 -1.4512797e-06 -1.7868142e-06 
1.5773242e-06 -1.8386042e-06 -6.6626848e-07 
1.1215000e-07 -2.1722819e-06 -2.0620248e-06 
4.1834819e-06 -1.7737639e-05 5.6648432e-06 
4.0701043e-06 -3.1977022e-05 -3.6389467e-06 
-8.4557762e-08 -3.6264640e-07 2.1746979e-07 
8.5533122e-07 -4.6566765e-06 3.4749185e-06 
5.0497965e-06 -4.6020727e-05 -3.7262680e-06 
2.2250040e-08 -2.5914258e-06 -6.6157503e-07 
2.5202103e-06 -9.5270389e-06 2.0652507e-07 
1.7048446e-06 -1.1756819e-06 -8.1561370e-07 
1.5645140e-06 -3.3492665e-06 2.6788521e-06 
5.2701876e-07 -2.9120761e-06 -7.0117204e-07 
5.2691366e-06 -2.5539492e-05 1.8247031e-06 
5.1088381e-07 -6.2784460e-07 -4.4807436e-07 
1.0090316e-06 -6.4163572e-07 9.1929365e-07 
-1.9644655e-07 -1.6349964e-06 -6.2731334e-07 
2.5316867e-06 -3.0804473e-05 1.4969929e-06 
3.5976443e-06 -4.6142944e-05 5.8004198e-06 
5.7840366e-06 -9.9955641e-06 3.6831975e-06 
1.6851527e-07 -7.7418957e-07 1.0813930e-06 
1.6213224e-07 1.0481042e-07 -2.5921454e-07 
3.8891727e-07 -2.7264796e-06 -2.2452417e-08 
2.2056577e-06 -1.7483308e-06 -1.6153223e-07 
9.3877168e-07 -3.0709423e-06 6.2807089e-08 
1.9798108e-06 -1.5481691e-06 9.7392524e-07 
-3.0111428e-07 -7.6917877e-06 -2.3072974e-07 