# vtk DataFile Version 4.0
vtk output
ASCII
DATASET UNSTRUCTURED_GRID
POINTS 460 float
0.0000000e+00 0.0000000e+00 0.0000000e+00 
5.0000000e+00 0.0000000e+00 0.0000000e+00 
5.0000000e+00 3.0000000e+00 0.0000000e+00 
0.0000000e+00 3.0000000e+00 0.0000000e+00 
0.0000000e+00 0.0000000e+00 1.0000000e+01 
5.0000000e+00 0.0000000e+00 1.0000000e+01 
5.0000000e+00 3.0000000e+00 1.0000000e+01 
0.0000000e+00 3.0000000e+00 1.0000000e+01 
1.0000000e+00 3.0000000e+00 -5.0000000e+00 
1.0000000e+00 3.0000000e+00 -4.5000000e+00 
1.0000000e+00 3.0000000e+00 -4.0000000e+00 
1.0000000e+00 3.0000000e+00 -3.5000000e+00 
1.0000000e+00 3.0000000e+00 -3.0000000e+00 
1.0000000e+00 3.0000000e+00 -2.5000000e+00 
1.0000000e+00 3.0000000e+00 -2.0000000e+00 
1.0000000e+00 3.0000000e+00 -1.5000000e+00 
1.0000000e+00 3.0000000e+00 -1.0000000e+00 
1.0000000e+00 3.0000000e+00 -5.0000000e-01 
1.0000000e+00 3.0000000e+00 0.0000000e+00 
1.0000000e+00 3.0000000e+00 5.0000000e-01 
1.0000000e+00 3.0000000e+00 1.0000000e+00 
1.0000000e+00 3.0000000e+00 1.5000000e+00 
1.0000000e+00 3.0000000e+00 2.0000000e+00 
1.0000000e+00 3.0000000e+00 2.5000000e+00 
1.0000000e+00 3.0000000e+00 3.0000000e+00 
1.0000000e+00 3.0000000e+00 3.5000000e+00 
1.0000000e+00 3.0000000e+00 4.0000000e+00 
1.0000000e+00 3.0000000e+00 4.5000000e+00 
1.0000000e+00 3.0000000e+00 5.0000000e+00 
1.0000000e+00 3.0000000e+00 5.5000000e+00 
1.0000000e+00 3.0000000e+00 6.0000000e+00 
1.0000000e+00 3.0000000e+00 6.5000000e+00 
1.0000000e+00 3.0000000e+00 7.0000000e+00 
1.0000000e+00 3.0000000e+00 7.5000000e+00 
1.0000000e+00 3.0000000e+00 8.0000000e+00 
1.0000000e+00 3.0000000e+00 8.5000000e+00 
1.0000000e+00 3.0000000e+00 9.0000000e+00 
1.0000000e+00 3.0000000e+00 9.5000000e+00 
1.0000000e+00 3.0000000e+00 1.0000000e+01 
1.0000000e+00 3.0000000e+00 1.0500000e+01 
1.0000000e+00 3.0000000e+00 1.1000000e+01 
1.0000000e+00 3.0000000e+00 1.1500000e+01 
1.0000000e+00 3.0000000e+00 1.2000000e+01 
1.0000000e+00 3.0000000e+00 1.2500000e+01 
1.0000000e+00 3.0000000e+00 1.3000000e+01 
1.0000000e+00 3.0000000e+00 1.3500000e+01 
1.0000000e+00 3.0000000e+00 1.4000000e+01 
1.0000000e+00 3.0000000e+00 1.4500000e+01 
1.0000000e+00 3.0250001e+00 -5.0000000e+00 
1.0000000e+00 3.0250001e+00 -4.5000000e+00 
1.0000000e+00 3.0250001e+00 -4.0000000e+00 
1.0000000e+00 3.0250001e+00 -3.5000000e+00 
1.0000000e+00 3.0250001e+00 -3.0000000e+00 
1.0000000e+00 3.0250001e+00 -2.5000000e+00 
1.0000000e+00 3.0250001e+00 -2.0000000e+00 
1.0000000e+00 3.0250001e+00 -1.5000000e+00 
1.0000000e+00 3.0250001e+00 -1.0000000e+00 
1.0000000e+00 3.0250001e+00 -5.0000000e-01 
1.0000000e+00 3.0250001e+00 0.0000000e+00 
1.0000000e+00 3.0250001e+00 5.0000000e-01 
1.0000000e+00 3.0250001e+00 1.0000000e+00 
1.0000000e+00 3.0250001e+00 1.5000000e+00 
1.0000000e+00 3.0250001e+00 2.0000000e+00 
1.0000000e+00 3.0250001e+00 2.5000000e+00 
1.0000000e+00 3.0250001e+00 3.0000000e+00 
1.0000000e+00 3.0250001e+00 3.5000000e+00 
1.0000000e+00 3.0250001e+00 4.0000000e+00 
1.0000000e+00 3.0250001e+00 4.5000000e+00 
1.0000000e+00 3.0250001e+00 5.0000000e+00 
1.0000000e+00 3.0250001e+00 5.5000000e+00 
1.0000000e+00 3.0250001e+00 6.0000000e+00 
1.0000000e+00 3.0250001e+00 6.5000000e+00 
1.0000000e+00 3.0250001e+00 7.0000000e+00 
1.0000000e+00 3.0250001e+00 7.5000000e+00 
1.0000000e+00 3.0250001e+00 8.0000000e+00 
1.0000000e+00 3.0250001e+00 8.5000000e+00 
1.0000000e+00 3.0250001e+00 9.0000000e+00 
1.0000000e+00 3.0250001e+00 9.5000000e+00 
1.0000000e+00 3.0250001e+00 1.0000000e+01 
1.0000000e+00 3.0250001e+00 1.0500000e+01 
1.0000000e+00 3.0250001e+00 1.1000000e+01 
1.0000000e+00 3.0250001e+00 1.1500000e+01 
1.0000000e+00 3.0250001e+00 1.2000000e+01 
1.0000000e+00 3.0250001e+00 1.2500000e+01 
1.0000000e+00 3.0250001e+00 1.3000000e+01 
1.0000000e+00 3.0250001e+00 1.3500000e+01 
1.0000000e+00 3.0250001e+00 1.4000000e+01 
1.0000000e+00 3.0250001e+00 1.4500000e+01 
1.0000000e+00 -2.0000000e+00 -5.0000000e+00 
1.0000000e+00 -2.0000000e+00 -4.5000000e+00 
1.0000000e+00 -2.0000000e+00 -4.0000000e+00 
1.0000000e+00 -2.0000000e+00 -3.5000000e+00 
1.0000000e+00 -2.0000000e+00 -3.0000000e+00 
1.0000000e+00 -2.0000000e+00 -2.5000000e+00 
1.0000000e+00 -2.0000000e+00 -2.0000000e+00 
1.0000000e+00 -2.0000000e+00 -1.5000000e+00 
1.0000000e+00 -2.0000000e+00 -1.0000000e+00 
1.0000000e+00 -2.0000000e+00 -5.0000000e-01 
1.0000000e+00 -2.0000000e+00 1.0500000e+01 
1.0000000e+00 -2.0000000e+00 1.1000000e+01 
1.0000000e+00 -2.0000000e+00 1.1500000e+01 
1.0000000e+00 -2.0000000e+00 1.2000000e+01 
1.0000000e+00 -2.0000000e+00 1.2500000e+01 
1.0000000e+00 -2.0000000e+00 1.3000000e+01 
1.0000000e+00 -2.0000000e+00 1.3500000e+01 
1.0000000e+00 -2.0000000e+00 1.4000000e+01 
1.0000000e+00 -2.0000000e+00 1.4500000e+01 
1.0000000e+00 0.0000000e+00 0.0000000e+00 
2.0000000e+00 0.0000000e+00 0.0000000e+00 
3.0000000e+00 0.0000000e+00 0.0000000e+00 
4.0000000e+00 0.0000000e+00 0.0000000e+00 
5.0000000e+00 1.0000000e+00 0.0000000e+00 
5.0000000e+00 2.0000000e+00 0.0000000e+00 
0.0000000e+00 2.0000000e+00 0.0000000e+00 
0.0000000e+00 1.0000000e+00 0.0000000e+00 
0.0000000e+00 0.0000000e+00 1.0000000e+00 
0.0000000e+00 0.0000000e+00 2.0000000e+00 
0.0000000e+00 0.0000000e+00 3.0000000e+00 
0.0000000e+00 0.0000000e+00 4.0000000e+00 
0.0000000e+00 0.0000000e+00 5.0000000e+00 
0.0000000e+00 0.0000000e+00 6.0000000e+00 
0.0000000e+00 0.0000000e+00 7.0000000e+00 
0.0000000e+00 0.0000000e+00 8.0000000e+00 
0.0000000e+00 0.0000000e+00 9.0000000e+00 
5.0000000e+00 0.0000000e+00 1.0000000e+00 
5.0000000e+00 0.0000000e+00 2.0000000e+00 
5.0000000e+00 0.0000000e+00 3.0000000e+00 
5.0000000e+00 0.0000000e+00 4.0000000e+00 
5.0000000e+00 0.0000000e+00 5.0000000e+00 
5.0000000e+00 0.0000000e+00 6.0000000e+00 
5.0000000e+00 0.0000000e+00 7.0000000e+00 
5.0000000e+00 0.0000000e+00 8.0000000e+00 
5.0000000e+00 0.0000000e+00 9.0000000e+00 
1.0000000e+00 0.0000000e+00 1.0000000e+01 
2.0000000e+00 0.0000000e+00 1.0000000e+01 
3.0000000e+00 0.0000000e+00 1.0000000e+01 
4.0000000e+00 0.0000000e+00 1.0000000e+01 
5.0000000e+00 3.0000000e+00 1.0000000e+00 
5.0000000e+00 3.0000000e+00 2.0000000e+00 
5.0000000e+00 3.0000000e+00 3.0000000e+00 
5.0000000e+00 3.0000000e+00 4.0000000e+00 
5.0000000e+00 3.0000000e+00 5.0000000e+00 
5.0000000e+00 3.0000000e+00 6.0000000e+00 
5.0000000e+00 3.0000000e+00 7.0000000e+00 
5.0000000e+00 3.0000000e+00 8.0000000e+00 
5.0000000e+00 3.0000000e+00 9.0000000e+00 
5.0000000e+00 1.0000000e+00 1.0000000e+01 
5.0000000e+00 2.0000000e+00 1.0000000e+01 
0.0000000e+00 3.0000000e+00 1.0000000e+00 
0.0000000e+00 3.0000000e+00 2.0000000e+00 
0.0000000e+00 3.0000000e+00 3.0000000e+00 
0.0000000e+00 3.0000000e+00 4.0000000e+00 
0.0000000e+00 3.0000000e+00 5.0000000e+00 
0.0000000e+00 3.0000000e+00 6.0000000e+00 
0.0000000e+00 3.0000000e+00 7.0000000e+00 
0.0000000e+00 3.0000000e+00 8.0000000e+00 
0.0000000e+00 3.0000000e+00 9.0000000e+00 
0.0000000e+00 2.0000000e+00 1.0000000e+01 
0.0000000e+00 1.0000000e+00 1.0000000e+01 
4.0000000e+00 3.0000000e+00 0.0000000e+00 
3.0000000e+00 3.0000000e+00 0.0000000e+00 
2.0000000e+00 3.0000000e+00 0.0000000e+00 
4.0000000e+00 3.0000000e+00 1.0000000e+01 
3.0000000e+00 3.0000000e+00 1.0000000e+01 
2.0000000e+00 3.0000000e+00 1.0000000e+01 
4.0618000e+00 1.5000000e+00 0.0000000e+00 
1.5046000e+00 7.6549745e-01 0.0000000e+00 
2.5000000e+00 2.1339746e+00 0.0000000e+00 
1.5046000e+00 2.2345026e+00 0.0000000e+00 
2.4957771e+00 8.1560516e-01 0.0000000e+00 
3.4707544e+00 2.2336540e+00 0.0000000e+00 
3.4700506e+00 7.5794268e-01 0.0000000e+00 
8.6322361e-01 1.5000000e+00 0.0000000e+00 
2.0000000e+00 1.5000000e+00 0.0000000e+00 
2.9960666e+00 1.4974480e+00 0.0000000e+00 
4.2679491e+00 7.3205084e-01 0.0000000e+00 
4.2679491e+00 2.2679491e+00 0.0000000e+00 
7.2695929e-01 2.2730408e+00 0.0000000e+00 
7.2695929e-01 7.2695929e-01 0.0000000e+00 
4.1822505e+00 0.0000000e+00 2.5515697e+00 
4.2017918e+00 0.0000000e+00 4.4725966e+00 
4.1114569e+00 0.0000000e+00 6.5092020e+00 
8.6602539e-01 0.0000000e+00 3.5000000e+00 
8.4778279e-01 0.0000000e+00 5.4684029e+00 
8.9629614e-01 0.0000000e+00 7.5867257e+00 
2.5566745e+00 0.0000000e+00 8.1853306e-01 
2.4918270e+00 0.0000000e+00 9.1386929e+00 
8.4677207e-01 0.0000000e+00 1.5042374e+00 
4.0943027e+00 0.0000000e+00 8.4081745e+00 
8.6281651e-01 0.0000000e+00 2.5007062e+00 
1.7315160e+00 0.0000000e+00 3.0001178e+00 
1.7319617e+00 0.0000000e+00 4.0000196e+00 
2.5980761e+00 0.0000000e+00 3.5000000e+00 
2.5536871e+00 0.0000000e+00 4.4963923e+00 
2.5928419e+00 0.0000000e+00 2.4239938e+00 
1.5037409e+00 0.0000000e+00 9.1535149e+00 
1.8433737e+00 0.0000000e+00 8.1858873e+00 
3.0000000e+00 0.0000000e+00 8.2679491e+00 
2.5000000e+00 0.0000000e+00 7.4019237e+00 
3.5042722e+00 0.0000000e+00 7.4271150e+00 
3.0310018e+00 0.0000000e+00 6.5282087e+00 
2.0373929e+00 0.0000000e+00 6.5307913e+00 
3.4767809e+00 0.0000000e+00 5.8031492e+00 
2.5452602e+00 0.0000000e+00 5.5720768e+00 
1.6456656e+00 0.0000000e+00 1.9697139e+00 
8.6297011e-01 0.0000000e+00 4.4947371e+00 
1.0111579e+00 0.0000000e+00 6.5282545e+00 
3.4994321e+00 0.0000000e+00 8.4691072e-01 
4.1860156e+00 0.0000000e+00 3.5040276e+00 
1.7320508e+00 0.0000000e+00 5.0000000e+00 
4.0544066e+00 0.0000000e+00 1.5781221e+00 
1.5817389e+00 0.0000000e+00 9.3943578e-01 
8.3166349e-01 0.0000000e+00 8.5090933e+00 
3.4686174e+00 0.0000000e+00 9.1752682e+00 
3.0709300e+00 0.0000000e+00 1.5799091e+00 
3.3927374e+00 0.0000000e+00 3.0399952e+00 
3.3826034e+00 0.0000000e+00 3.9747651e+00 
4.3420062e+00 0.0000000e+00 7.4688983e+00 
3.4023225e+00 0.0000000e+00 4.9314723e+00 
1.6740381e+00 0.0000000e+00 7.3014426e+00 
4.2715640e+00 0.0000000e+00 5.4758859e+00 
1.6225953e+00 0.0000000e+00 5.8104177e+00 
4.2679491e+00 0.0000000e+00 9.2679491e+00 
7.3205084e-01 0.0000000e+00 7.3205084e-01 
4.2679491e+00 0.0000000e+00 7.3205084e-01 
7.3205084e-01 0.0000000e+00 9.2679491e+00 
3.4586334e+00 0.0000000e+00 2.2347178e+00 
2.2895701e+00 0.0000000e+00 1.5463171e+00 
5.0000000e+00 2.2345026e+00 1.5046000e+00 
[...]
POINT_DATA 460
FIELD FieldData 2
DISPLACEMENT 3 460  float
0.0000000e+00 0.0000000e+00 0.0000000e+00 
0.0000000e+00 0.0000000e+00 0.0000000e+00 
0.0000000e+00 -1.0042169e-07 0.0000000e+00 
0.0000000e+00 2.2808795e-06 0.0000000e+00 
0.0000000e+00 0.0000000e+00 0.0000000e+00 
0.0000000e+00 0.0000000e+00 0.0000000e+00 
0.0000000e+00 -5.5359246e-09 0.0000000e+00 
0.0000000e+00 -5.6997412e-10 0.0000000e+00 
0.0000000e+00 -7.6517276e-04 0.0000000e+00 
0.0000000e+00 -7.6934777e-04 0.0000000e+00 
0.0000000e+00 -7.0010836e-04 0.0000000e+00 
0.0000000e+00 -5.2252773e-04 0.0000000e+00 
0.0000000e+00 -3.3266502e-04 0.0000000e+00 
0.0000000e+00 -1.8166551e-04 0.0000000e+00 
0.0000000e+00 -8.1661739e-05 0.0000000e+00 
0.0000000e+00 -2.5549274e-05 0.0000000e+00 
0.0000000e+00 6.2967061e-08 0.0000000e+00 
0.0000000e+00 7.9398342e-06 0.0000000e+00 
0.0000000e+00 7.3374949e-06 0.0000000e+00 
2.2995495e-07 5.2954920e-06 1.0874138e-07 
3.2573877e-07 3.2695566e-06 3.3478537e-07 
2.2848103e-07 2.0926880e-06 4.2519383e-07 
2.1604843e-07 1.3553093e-06 5.2580964e-07 
1.2499213e-07 8.2505272e-07 4.5080219e-07 
4.7939562e-08 3.8815040e-07 3.3814797e-07 
4.2234316e-08 5.9831265e-08 2.5317203e-07 
-8.6556078e-09 -1.4514629e-07 9.8147751e-08 
-2.2306837e-08 -2.2454778e-07 1.7600778e-08 
-2.4694405e-08 -2.1517855e-07 -5.4521916e-08 
-1.6069997e-08 -1.5494254e-07 -7.4114261e-08 
-1.0586180e-08 -8.2524714e-08 -6.2055655e-08 
-4.2462149e-09 -2.2552333e-08 -4.5188230e-08 
-5.5866239e-10 1.4014351e-08 -2.7566895e-08 
8.5093166e-10 2.9045168e-08 -8.4908294e-09 
8.0901058e-10 2.8611643e-08 5.6950306e-10 
7.1464740e-10 2.0383247e-08 7.1906774e-09 
8.4586438e-10 1.0423480e-08 6.7673271e-09 
3.0498656e-10 2.5000668e-09 3.5764458e-09 
0.0000000e+00 -2.0464752e-09 0.0000000e+00 
0.0000000e+00 -4.4582893e-09 0.0000000e+00 
0.0000000e+00 -5.1180149e-09 0.0000000e+00 
0.0000000e+00 -4.6413691e-09 0.0000000e+00 
0.0000000e+00 -3.5435839e-09 0.0000000e+00 
0.0000000e+00 -2.2390709e-09 0.0000000e+00 
0.0000000e+00 -1.0204776e-09 0.0000000e+00 
0.0000000e+00 -6.6916347e-11 0.0000000e+00 
0.0000000e+00 5.2937932e-10 0.0000000e+00 
0.0000000e+00 7.3099915e-10 0.0000000e+00 
0.0000000e+00 -7.6846522e-04 0.0000000e+00 
0.0000000e+00 -7.7260286e-04 0.0000000e+00 
0.0000000e+00 -7.0300401e-04 0.0000000e+00 
0.0000000e+00 -5.2465947e-04 0.0000000e+00 
0.0000000e+00 -3.3399742e-04 0.0000000e+00 
0.0000000e+00 -1.8235690e-04 0.0000000e+00 
0.0000000e+00 -8.1918253e-05 0.0000000e+00 
0.0000000e+00 -2.5558862e-05 0.0000000e+00 
0.0000000e+00 1.5653751e-07 0.0000000e+00 
0.0000000e+00 8.0444188e-06 0.0000000e+00 
0.0000000e+00 7.7259265e-06 0.0000000e+00 
0.0000000e+00 5.2934924e-06 0.0000000e+00 
0.0000000e+00 3.2488181e-06 0.0000000e+00 
0.0000000e+00 2.0429509e-06 0.0000000e+00 
0.0000000e+00 1.3281453e-06 0.0000000e+00 
0.0000000e+00 8.0976110e-07 0.0000000e+00 
0.0000000e+00 3.8433828e-07 0.0000000e+00 
0.0000000e+00 6.1694266e-08 0.0000000e+00 
0.0000000e+00 -1.4125347e-07 0.0000000e+00 
0.0000000e+00 -2.2271125e-07 0.0000000e+00 
0.0000000e+00 -2.1377913e-07 0.0000000e+00 
0.0000000e+00 -1.5484801e-07 0.0000000e+00 
0.0000000e+00 -8.2862030e-08 0.0000000e+00 
0.0000000e+00 -2.3252595e-08 0.0000000e+00 
0.0000000e+00 1.3541037e-08 0.0000000e+00 
0.0000000e+00 2.8720482e-08 0.0000000e+00 
0.0000000e+00 2.8530987e-08 0.0000000e+00 
0.0000000e+00 2.0442615e-08 0.0000000e+00 
0.0000000e+00 1.0544798e-08 0.0000000e+00 
0.0000000e+00 2.6484757e-09 0.0000000e+00 
0.0000000e+00 -2.0839601e-09 0.0000000e+00 
0.0000000e+00 -4.4453343e-09 0.0000000e+00 
0.0000000e+00 -5.1104929e-09 0.0000000e+00 
0.0000000e+00 -4.6388626e-09 0.0000000e+00 
0.0000000e+00 -3.5448158e-09 0.0000000e+00 
0.0000000e+00 -2.2424513e-09 0.0000000e+00 
0.0000000e+00 -1.0246001e-09 0.0000000e+00 
0.0000000e+00 -7.0881752e-11 0.0000000e+00 
0.0000000e+00 5.2585941e-10 0.0000000e+00 
0.0000000e+00 7.2770340e-10 0.0000000e+00 
0.0000000e+00 0.0000000e+00 0.0000000e+00 
0.0000000e+00 0.0000000e+00 0.0000000e+00 
0.0000000e+00 0.0000000e+00 0.0000000e+00 
0.0000000e+00 0.0000000e+00 0.0000000e+00 
0.0000000e+00 0.0000000e+00 0.0000000e+00 
0.0000000e+00 0.0000000e+00 0.0000000e+00 
0.0000000e+00 0.0000000e+00 0.0000000e+00 
0.0000000e+00 0.0000000e+00 0.0000000e+00 
0.0000000e+00 0.0000000e+00 0.0000000e+00 
0.0000000e+00 0.0000000e+00 0.0000000e+00 
0.0000000e+00 0.0000000e+00 0.0000000e+00 
0.0000000e+00 0.0000000e+00 0.0000000e+00 
0.0000000e+00 0.0000000e+00 0.0000000e+00 
0.0000000e+00 0.0000000e+00 0.0000000e+00 
0.0000000e+00 0.0000000e+00 0.0000000e+00 
0.0000000e+00 0.0000000e+00 0.0000000e+00 
0.0000000e+00 0.0000000e+00 0.0000000e+00 
0.0000000e+00 0.0000000e+00 0.0000000e+00 
0.0000000e+00 0.0000000e+00 0.0000000e+00 
0.0000000e+00 0.0000000e+00 0.0000000e+00 
0.0000000e+00 0.0000000e+00 0.0000000e+00 
0.0000000e+00 0.0000000e+00 0.0000000e+00 
0.0000000e+00 0.0000000e+00 0.0000000e+00 
0.0000000e+00 -4.6653106e-08 0.0000000e+00 
0.0000000e+00 -7.3551846e-08 0.0000000e+00 
0.0000000e+00 2.1320679e-06 0.0000000e+00 
0.0000000e+00 1.1340737e-06 0.0000000e+00 
0.0000000e+00 0.0000000e+00 0.0000000e+00 
0.0000000e+00 0.0000000e+00 0.0000000e+00 
0.0000000e+00 0.0000000e+00 0.0000000e+00 
0.0000000e+00 0.0000000e+00 0.0000000e+00 
0.0000000e+00 0.0000000e+00 0.0000000e+00 
0.0000000e+00 0.0000000e+00 0.0000000e+00 
0.0000000e+00 0.0000000e+00 0.0000000e+00 
0.0000000e+00 0.0000000e+00 0.0000000e+00 
0.0000000e+00 0.0000000e+00 0.0000000e+00 
0.0000000e+00 0.0000000e+00 0.0000000e+00 
0.0000000e+00 0.0000000e+00 0.0000000e+00 
0.0000000e+00 0.0000000e+00 0.0000000e+00 
0.0000000e+00 0.0000000e+00 0.0000000e+00 
0.0000000e+00 0.0000000e+00 0.0000000e+00 
0.0000000e+00 0.0000000e+00 0.0000000e+00 
0.0000000e+00 0.0000000e+00 0.0000000e+00 
0.0000000e+00 0.0000000e+00 0.0000000e+00 
0.0000000e+00 0.0000000e+00 0.0000000e+00 
0.0000000e+00 0.0000000e+00 0.0000000e+00 
0.0000000e+00 0.0000000e+00 0.0000000e+00 
0.0000000e+00 0.0000000e+00 0.0000000e+00 
0.0000000e+00 0.0000000e+00 0.0000000e+00 
0.0000000e+00 -1.1725453e-07 0.0000000e+00 
0.0000000e+00 -1.9059942e-07 0.0000000e+00 
0.0000000e+00 -1.1274454e-07 0.0000000e+00 
0.0000000e+00 -5.8504938e-08 0.0000000e+00 
0.0000000e+00 2.9047718e-09 0.0000000e+00 
0.0000000e+00 3.8398696e-08 0.0000000e+00 
0.0000000e+00 2.4988275e-08 0.0000000e+00 
0.0000000e+00 8.8019814e-09 0.0000000e+00 
0.0000000e+00 -1.9429141e-09 0.0000000e+00 
0.0000000e+00 -2.4730391e-09 0.0000000e+00 
0.0000000e+00 -4.5763660e-09 0.0000000e+00 
0.0000000e+00 2.4215083e-06 0.0000000e+00 
0.0000000e+00 1.4973704e-06 0.0000000e+00 
0.0000000e+00 4.6564386e-07 0.0000000e+00 
0.0000000e+00 -1.2848058e-07 0.0000000e+00 
0.0000000e+00 -1.9761750e-07 0.0000000e+00 
0.0000000e+00 -6.8056913e-08 0.0000000e+00 
0.0000000e+00 1.4645327e-08 0.0000000e+00 
0.0000000e+00 2.3568578e-08 0.0000000e+00 
0.0000000e+00 7.5313640e-09 0.0000000e+00 
0.0000000e+00 -1.1100054e-10 0.0000000e+00 
0.0000000e+00 -2.4155941e-10 0.0000000e+00 
0.0000000e+00 8.1598557e-08 0.0000000e+00 
0.0000000e+00 5.8281768e-07 0.0000000e+00 
0.0000000e+00 1.2636312e-06 0.0000000e+00 
0.0000000e+00 -4.5119579e-09 0.0000000e+00 
0.0000000e+00 -3.2229084e-09 0.0000000e+00 
0.0000000e+00 -1.8856292e-09 0.0000000e+00 
0.0000000e+00 4.7249610e-08 0.0000000e+00 
0.0000000e+00 6.6568299e-07 0.0000000e+00 
0.0000000e+00 8.7759577e-07 0.0000000e+00 
0.0000000e+00 2.1630401e-06 0.0000000e+00 
0.0000000e+00 4.1027280e-07 0.0000000e+00 
0.0000000e+00 2.9304096e-07 0.0000000e+00 
0.0000000e+00 9.5018557e-08 0.0000000e+00 
0.0000000e+00 1.7630731e-06 0.0000000e+00 
0.0000000e+00 1.0531274e-06 0.0000000e+00 
0.0000000e+00 4.2804871e-07 0.0000000e+00 
0.0000000e+00 1.4357135e-08 0.0000000e+00 
0.0000000e+00 9.8360342e-09 0.0000000e+00 
0.0000000e+00 3.0701740e-06 0.0000000e+00 
0.0000000e+00 8.3054266e-07 0.0000000e+00 
0.0000000e+00 0.0000000e+00 0.0000000e+00 
0.0000000e+00 0.0000000e+00 0.0000000e+00 
0.0000000e+00 0.0000000e+00 0.0000000e+00 
0.0000000e+00 0.0000000e+00 0.0000000e+00 
0.0000000e+00 0.0000000e+00 0.0000000e+00 
0.0000000e+00 0.0000000e+00 0.0000000e+00 
0.0000000e+00 0.0000000e+00 0.0000000e+00 
0.0000000e+00 0.0000000e+00 0.0000000e+00 
0.0000000e+00 0.0000000e+00 0.0000000e+00 
0.0000000e+00 0.0000000e+00 0.0000000e+00 
0.0000000e+00 0.0000000e+00 0.0000000e+00 
0.0000000e+00 0.0000000e+00 0.0000000e+00 
0.0000000e+00 0.0000000e+00 0.0000000e+00 
0.0000000e+00 0.0000000e+00 0.0000000e+00 
0.0000000e+00 0.0000000e+00 0.0000000e+00 
0.0000000e+00 0.0000000e+00 0.0000000e+00 
0.0000000e+00 0.0000000e+00 0.0000000e+00 
0.0000000e+00 0.0000000e+00 0.0000000e+00 
0.0000000e+00 0.0000000e+00 0.0000000e+00 
0.0000000e+00 0.0000000e+00 0.0000000e+00 
0.0000000e+00 0.0000000e+00 0.0000000e+00 
0.0000000e+00 0.0000000e+00 0.0000000e+00 
0.0000000e+00 0.0000000e+00 0.0000000e+00 
0.0000000e+00 0.0000000e+00 0.0000000e+00 
0.0000000e+00 0.0000000e+00 0.0000000e+00 
0.0000000e+00 0.0000000e+00 0.0000000e+00 
0.0000000e+00 0.0000000e+00 0.0000000e+00 
0.0000000e+00 0.0000000e+00 0.0000000e+00 
0.0000000e+00 0.0000000e+00 0.0000000e+00 
0.0000000e+00 0.0000000e+00 0.0000000e+00 
0.0000000e+00 0.0000000e+00 0.0000000e+00 
0.0000000e+00 0.0000000e+00 0.0000000e+00 
0.0000000e+00 0.0000000e+00 0.0000000e+00 
0.0000000e+00 0.0000000e+00 0.0000000e+00 
0.0000000e+00 0.0000000e+00 0.0000000e+00 
0.0000000e+00 0.0000000e+00 0.0000000e+00 
0.0000000e+00 0.0000000e+00 0.0000000e+00 
0.0000000e+00 0.0000000e+00 0.0000000e+00 
0.0000000e+00 0.0000000e+00 0.0000000e+00 
0.0000000e+00 0.0000000e+00 0.0000000e+00 
0.0000000e+00 0.0000000e+00 0.0000000e+00 
0.0000000e+00 0.0000000e+00 0.0000000e+00 
0.0000000e+00 0.0000000e+00 0.0000000e+00 
0.0000000e+00 0.0000000e+00 0.0000000e+00 
0.0000000e+00 0.0000000e+00 0.0000000e+00 
0.0000000e+00 0.0000000e+00 0.0000000e+00 
0.0000000e+00 0.0000000e+00 0.0000000e+00 
0.0000000e+00 0.0000000e+00 0.0000000e+00 
0.0000000e+00 0.0000000e+00 0.0000000e+00 
0.0000000e+00 -1.8275983e-07 0.0000000e+00 
0.0000000e+00 -1.7721857e-09 0.0000000e+00 
0.0000000e+00 -8.9705679e-08 0.0000000e+00 
0.0000000e+00 3.2800568e-08 0.0000000e+00 
0.0000000e+00 1.5790533e-08 0.0000000e+00 
0.0000000e+00 -5.5093786e-08 0.0000000e+00 
0.0000000e+00 -1.0976011e-09 0.0000000e+00 
0.0000000e+00 1.4339105e-08 0.0000000e+00 
0.0000000e+00 -3.6112496e-08 0.0000000e+00 
0.0000000e+00 1.2587635e-08 0.0000000e+00 
0.0000000e+00 -1.3917614e-07 0.0000000e+00 
0.0000000e+00 -1.9021302e-08 0.0000000e+00 
0.0000000e+00 3.2773922e-08 0.0000000e+00 
0.0000000e+00 8.0509226e-09 0.0000000e+00 
0.0000000e+00 -3.6071494e-08 0.0000000e+00 
0.0000000e+00 1.3991026e-09 0.0000000e+00 
0.0000000e+00 2.3985762e-09 0.0000000e+00 
0.0000000e+00 -1.0477589e-07 0.0000000e+00 
0.0000000e+00 1.0651074e-08 0.0000000e+00 
0.0000000e+00 1.9868859e-08 0.0000000e+00 
0.0000000e+00 -1.1119891e-07 0.0000000e+00 
0.0000000e+00 2.8666163e-08 0.0000000e+00 
0.0000000e+00 -3.5931464e-08 0.0000000e+00 
0.0000000e+00 -9.1281592e-08 0.0000000e+00 
0.0000000e+00 6.8154704e-09 0.0000000e+00 
0.0000000e+00 -3.4839416e-09 0.0000000e+00 
0.0000000e+00 -1.1893764e-09 0.0000000e+00 
0.0000000e+00 -1.3711268e-07 0.0000000e+00 
0.0000000e+00 -5.1274359e-08 0.0000000e+00 
0.0000000e+00 4.7875797e-09 0.0000000e+00 
0.0000000e+00 1.6063966e-06 0.0000000e+00 
0.0000000e+00 4.3876526e-07 0.0000000e+00 
0.0000000e+00 -7.5320145e-08 0.0000000e+00 
0.0000000e+00 8.1227043e-09 0.0000000e+00 
0.0000000e+00 7.2011623e-08 0.0000000e+00 
0.0000000e+00 -1.1868146e-07 0.0000000e+00 
0.0000000e+00 2.3432134e-08 0.0000000e+00 
0.0000000e+00 5.2620937e-08 0.0000000e+00 
0.0000000e+00 8.7576012e-07 0.0000000e+00 
0.0000000e+00 -1.9362400e-07 0.0000000e+00 
0.0000000e+00 -1.2528252e-08 0.0000000e+00 
0.0000000e+00 -3.7345409e-08 0.0000000e+00 
0.0000000e+00 1.5148029e-08 0.0000000e+00 
0.0000000e+00 1.8431266e-06 0.0000000e+00 
0.0000000e+00 6.4110907e-07 0.0000000e+00 
0.0000000e+00 6.3618750e-09 0.0000000e+00 
0.0000000e+00 -1.3254592e-07 0.0000000e+00 
0.0000000e+00 -1.4304952e-09 0.0000000e+00 
0.0000000e+00 -7.6285900e-08 0.0000000e+00 
0.0000000e+00 3.0567841e-07 0.0000000e+00 
0.0000000e+00 1.0627543e-08 0.0000000e+00 
0.0000000e+00 -4.4533675e-08 0.0000000e+00 
0.0000000e+00 1.6616067e-08 0.0000000e+00 
0.0000000e+00 1.0516511e-06 0.0000000e+00 
0.0000000e+00 2.0488202e-09 0.0000000e+00 
0.0000000e+00 2.3252985e-06 0.0000000e+00 
0.0000000e+00 7.9229079e-07 0.0000000e+00 
0.0000000e+00 3.8132200e-09 0.0000000e+00 
0.0000000e+00 -7.5861878e-10 0.0000000e+00 
0.0000000e+00 -3.6217664e-09 0.0000000e+00 
0.0000000e+00 -3.5630614e-09 0.0000000e+00 
0.0000000e+00 -3.1808816e-09 0.0000000e+00 
0.0000000e+00 -1.1202893e-09 0.0000000e+00 
0.0000000e+00 -5.4131712e-09 0.0000000e+00 
0.0000000e+00 -2.3404410e-09 0.0000000e+00 
0.0000000e+00 -1.4838941e-09 0.0000000e+00 
0.0000000e+00 -2.4419098e-09 0.0000000e+00 
0.0000000e+00 -3.6604195e-09 0.0000000e+00 
0.0000000e+00 -2.1236464e-09 0.0000000e+00 
0.0000000e+00 -5.5907137e-09 0.0000000e+00 
0.0000000e+00 -2.0209412e-09 0.0000000e+00 
0.0000000e+00 -7.6537260e-10 0.0000000e+00 
-2.6550714e-08 -2.0447834e-07 -9.3354524e-09 
-1.5960024e-08 -3.6055219e-08 -5.6571295e-08 
3.7406800e-10 2.6686694e-08 -4.2354347e-09 
2.4031920e-07 9.5314061e-07 4.3308100e-07 
7.3276730e-08 1.3261511e-07 2.6427333e-07 
-2.2596701e-08 1.6749597e-08 -2.9809311e-08 
4.9821850e-08 -1.4798636e-07 1.6261554e-08 
-4.7171129e-09 1.9107235e-08 -9.1324764e-10 
3.0665311e-07 2.0028242e-06 3.5210195e-07 
1.1449437e-09 1.2078529e-08 6.3155494e-09 
2.7657896e-07 2.4763591e-07 7.4070975e-08 
1.3005759e-09 -2.1620468e-09 3.8615857e-09 
-9.6216537e-09 3.1239079e-08 -9.2105150e-09 
-1.0763545e-08 2.8908756e-08 -1.4571521e-08 
-2.0250481e-09 1.5171816e-08 -7.5594497e-10 
-5.6430802e-09 2.4910149e-08 -7.1886777e-09 
-1.5020948e-08 1.5458804e-08 -2.7911062e-08 
1.2097072e-09 1.3744374e-08 4.1536663e-09 
-6.7433614e-09 2.5255618e-08 -2.3900606e-08 
-2.4044885e-08 1.3760998e-08 -3.7190510e-08 
-3.3721477e-08 -3.1645321e-08 -4.9915343e-08 
-3.2015961e-08 -4.2034184e-08 -5.3147378e-08 
-3.5663305e-08 -1.2120634e-07 -4.7786489e-08 
-2.2288276e-08 -1.1028724e-07 -3.1736278e-08 
-7.0820714e-09 -1.5731699e-07 2.3101681e-08 
8.8901277e-09 -1.1684413e-07 -7.5946743e-10 
7.3478880e-08 -5.7990647e-08 1.3080481e-07 
1.0529283e-07 -1.6903824e-08 1.0940764e-07 
1.4191276e-07 1.8298718e-07 2.0002119e-07 
1.8937219e-07 1.4395663e-07 1.4444977e-07 
3.2611598e-07 6.2247432e-07 2.4298743e-07 
-3.4064048e-08 -1.0325432e-07 -6.8708616e-08 
-2.6566024e-08 -3.9826570e-08 -6.0265727e-08 
3.9766643e-08 -1.0664305e-07 1.2418266e-07 
1.0219815e-08 -9.9734265e-08 -1.0106595e-08 
1.5442627e-09 1.0360962e-10 4.5670259e-09 
-2.4492390e-08 -1.8103377e-07 -3.6670467e-09 
-2.2689681e-08 -3.8513093e-08 -3.5283872e-08 
3.1962827e-07 8.9863943e-07 1.2252977e-07 
9.5877328e-10 3.9269317e-09 4.6482831e-09 
-1.0274805e-10 2.2493596e-08 -4.0651904e-09 
8.2616219e-10 1.5407759e-08 2.8038825e-09 
-2.2957712e-08 -9.8107741e-08 -6.4528884e-08 
1.1851926e-07 -1.0715493e-07 3.0731581e-08 
1.4144317e-07 4.9296710e-07 3.7978083e-07 
1.1018322e-07 1.4112119e-07 2.5020861e-07 
2.8538739e-08 -7.5517882e-08 1.6597943e-07 
-1.0878827e-08 -1.9546684e-07 3.8895557e-08 
-7.8688451e-09 6.2773795e-09 -3.6299095e-08 
-1.5669375e-09 2.4824397e-08 -1.3929285e-08 
3.3870970e-07 2.7587794e-06 1.6973910e-07 
3.1727899e-07 1.4775479e-06 4.1445307e-07 
1.1414858e-09 1.9547104e-09 5.0379803e-09 
2.8900939e-07 3.7059385e-07 1.3324275e-07 
2.0584461e-07 5.2723681e-07 3.4214062e-07 
1.5574567e-09 1.9259797e-08 3.1313365e-09 
-1.5668641e-08 3.8410308e-10 -4.1156245e-08 
3.9451336e-07 1.1778242e-06 3.2859907e-07 
-2.7694883e-08 -1.5740321e-07 -4.8766513e-08 
1.1693462e-09 6.1772130e-09 4.4390105e-09 
9.6937658e-10 -3.3515444e-09 2.9624616e-09 
1.1744135e-07 -4.1496033e-08 1.5186162e-08 
-1.3216540e-08 -8.3387661e-08 -2.2656666e-08 
3.1485391e-07 9.8365990e-07 3.7822224e-07 
1.7398857e-09 6.7058430e-09 6.2563208e-09 
-2.2368029e-08 -5.2910538e-09 -4.3476753e-08 
1.7307553e-07 -8.7511287e-09 7.8031732e-08 
7.2791231e-08 -1.1549379e-07 4.6015842e-08 
2.9567170e-07 1.6442078e-06 2.5272698e-07 
-3.4149540e-08 -1.5617239e-07 -4.2385512e-08 
1.1207655e-09 2.1812804e-10 4.0249706e-09 
9.0775195e-08 1.3143871e-06 3.5276682e-07 
1.5791268e-07 1.8818324e-06 3.7792969e-07 
4.8606857e-08 7.2157513e-07 3.3570024e-07 
2.1521084e-08 2.6380178e-07 2.4779894e-07 
1.9804658e-07 2.5520455e-06 2.7815051e-07 
5.8283560e-09 -3.4624538e-08 1.1809527e-07 
-2.2241816e-08 -1.8732599e-07 3.8228997e-08 
-1.5278227e-08 -2.1389461e-07 -7.5322104e-09 
-1.0976355e-08 -1.7602416e-07 -4.1048828e-08 
-7.9090201e-09 -1.0292943e-07 -4.5375188e-08 
-4.0466448e-09 -5.3807547e-08 -4.3038433e-08 
-6.6137229e-10 -3.3328722e-09 -3.0176313e-08 
1.8326962e-09 2.5272563e-08 -1.3920891e-08 
1.2283821e-09 2.7465347e-08 -3.6920957e-09 
8.8494884e-10 2.1499691e-08 1.6608949e-09 
7.0528205e-10 1.2138559e-08 3.9833408e-09 
-1.4191627e-10 3.5446124e-09 3.6549359e-09 
8.3193335e-08 3.0976576e-06 1.4438393e-07 
-1.5510638e-07 7.5468222e-07 -2.2248466e-07 
-4.9313645e-08 -1.8970086e-08 -1.5406572e-07 
7.4269799e-09 -6.7936440e-08 -9.2636592e-09 
2.6136258e-09 1.6963048e-08 3.4175056e-09 
-7.2926393e-10 9.9220117e-09 -1.4551053e-09 
-9.4450627e-08 -1.4504340e-08 -1.1719397e-07 
-1.1033485e-08 -6.9812295e-08 -3.6476770e-08 
1.8275781e-09 1.1907559e-08 -1.8869808e-09 
-2.9903011e-09 -1.8234678e-07 -5.4700767e-08 
-3.9537163e-08 4.7863017e-07 -7.5025497e-08 
-1.1988639e-07 1.8283403e-06 -1.5116915e-07 
-7.1241835e-10 1.4517491e-08 -2.1534456e-09 
-1.6041227e-07 4.2180392e-07 -9.3844818e-08 
4.2754058e-09 -2.7700310e-08 -4.3083150e-09 
-1.1300670e-10 2.4784606e-08 -4.1869266e-10 
-5.7147140e-09 -6.2565526e-08 -3.6040053e-08 
-6.2224483e-09 -1.3781545e-07 -4.5917471e-08 
-7.2526433e-08 1.9090751e-07 -1.1014147e-07 
-5.1889177e-09 -1.5258026e-07 -2.7337675e-08 
-9.9286079e-10 -6.9541386e-08 -4.9300855e-08 
-2.9603727e-08 1.1980991e-06 -5.8470193e-09 
1.9398598e-09 -3.5374998e-09 -2.2511335e-09 
1.3828765e-10 1.0901205e-08 -5.0018811e-10 
-9.7591816e-08 1.6831411e-09 -5.4221672e-08 
-4.2191253e-10 3.9086942e-10 -8.6506385e-10 
-6.6205907e-08 2.3358805e-07 -1.8953203e-07 
5.5712026e-09 -3.2277125e-08 -1.1726025e-08 
-1.6137356e-07 2.1667169e-07 -1.7071312e-07 
-6.1772631e-08 -1.8070088e-08 -1.1998763e-07 
-3.2627948e-08 -1.0324398e-07 -6.3590015e-08 
-2.2576419e-09 2.4468161e-08 -4.5135051e-09 
-2.1253799e-09 1.8104959e-08 -7.5720434e-09 
1.1621827e-09 2.0084700e-08 -7.0263870e-09 
-5.9545533e-09 -4.7135870e-08 -2.5092261e-08 
-9.3871810e-10 1.9030950e-09 -1.7512786e-09 
-4.8645338e-10 2.1624437e-08 -7.7302631e-10 
-1.8962079e-07 5.1158014e-07 -1.2419625e-07 
-2.4743221e-08 -9.1077439e-08 -2.8329644e-08 
-1.4437153e-07 9.2455349e-07 -1.6903209e-07 
5.6137783e-09 -1.2725325e-08 8.4461327e-09 
-7.6228055e-09 -8.9822045e-08 -7.7881580e-08 
-1.5119449e-10 1.8128419e-09 7.2459450e-10 
-4.7037407e-10 1.4127731e-08 3.2678754e-10 
-9.4789323e-09 -1.5184403e-07 -2.5354401e-08 
-9.1167955e-08 9.8731789e-07 -7.1033959e-08 
-8.7692484e-09 -4.2393573e-08 -2.4186845e-08 
-3.8998127e-08 -3.0478425e-08 -3.3421880e-08 
-1.4256647e-10 1.2119422e-08 4.1917655e-10 
-3.9151022e-08 2.0553796e-07 -4.6417480e-08 
8.4177243e-09 -6.3401551e-08 -1.1799237e-08 
-2.7209722e-08 -1.0483895e-07 -2.1979995e-08 
-5.9347076e-11 1.0716350e-08 -2.2134876e-09 
1.5705109e-10 1.4526011e-08 1.8378644e-09 
-4.4240851e-09 -1.8125846e-08 -2.1892401e-08 
4.9989999e-09 -7.2132586e-08 8.7099927e-10 
7.3265811e-09 -5.0470139e-09 5.4610823e-09 
-5.3092603e-10 4.0856056e-09 -1.1478388e-09 
-4.0852736e-08 9.3313730e-08 -2.3749179e-08 
-1.4700585e-08 -5.9094358e-08 -2.2346672e-08 
-6.1574412e-09 -2.7577988e-08 -9.1743360e-09 
-6.7758958e-09 2.3677844e-08 -1.2921609e-08 
1.5603588e-09 1.5987579e-08 -6.0991079e-10 
-5.7760827e-09 6.4606746e-07 -2.0559152e-09 
5.1264698e-10 2.1431793e-08 6.6842193e-10 
-2.1824949e-08 -4.5017575e-08 -5.6194690e-08 
-1.2596975e-09 1.3057423e-08 -7.1617579e-10 