# vtk DataFile Version 4.0
vtk output
ASCII
DATASET UNSTRUCTURED_GRID
POINTS 460 float
0.0000000e+00 0.0000000e+00 0.0000000e+00 
5.0000000e+00 0.0000000e+00 0.0000000e+00 
5.0000000e+00 3.0000000e+00 0.0000000e+00 
0.0000000e+00 3.0000000e+00 0.0000000e+00 
0.0000000e+00 0.0000000e+00 1.0000000e+01 
5.0000000e+00 0.0000000e+00 1.0000000e+01 
5.0000000e+00 3.0000000e+00 1.0000000e+01 
0.0000000e+00 3.0000000e+00 1.0000000e+01 
1.0000000e+00 3.0000000e+00 -5.0000000e+00 
1.0000000e+00 3.0000000e+00 -4.5000000e+00 
1.0000000e+00 3.0000000e+00 -4.0000000e+00 
1.0000000e+00 3.0000000e+00 -3.5000000e+00 
1.0000000e+00 3.0000000e+00 -3.0000000e+00 
1.0000000e+00 3.0000000e+00 -2.5000000e+00 
1.0000000e+00 3.0000000e+00 -2.0000000e+00 
1.0000000e+00 3.0000000e+00 -1.5000000e+00 
1.0000000e+00 3.0000000e+00 -1.0000000e+00 
1.0000000e+00 3.0000000e+00 -5.0000000e-01 
1.0000000e+00 3.0000000e+00 0.0000000e+00 
1.0000000e+00 3.0000000e+00 5.0000000e-01 
1.0000000e+00 3.0000000e+00 1.0000000e+00 
1.0000000e+00 3.0000000e+00 1.5000000e+00 
1.0000000e+00 3.0000000e+00 2.0000000e+00 
1.0000000e+00 3.0000000e+00 2.5000000e+00 
1.0000000e+00 3.0000000e+00 3.0000000e+00 
1.0000000e+00 3.0000000e+00 3.5000000e+00 
1.0000000e+00 3.0000000e+00 4.0000000e+00 
1.0000000e+00 3.0000000e+00 4.5000000e+00 
1.0000000e+00 3.0000000e+00 5.0000000e+00 
1.0000000e+00 3.0000000e+00 5.5000000e+00 
1.0000000e+00 3.0000000e+00 6.0000000e+00 
1.0000000e+00 3.0000000e+00 6.5000000e+00 
1.0000000e+00 3.0000000e+00 7.0000000e+00 
1.0000000e+00 3.0000000e+00 7.5000000e+00 
1.0000000e+00 3.0000000e+00 8.0000000e+00 
1.0000000e+00 3.0000000e+00 8.5000000e+00 
1.0000000e+00 3.0000000e+00 9.0000000e+00 
1.0000000e+00 3.0000000e+00 9.5000000e+00 
1.0000000e+00 3.0000000e+00 1.0000000e+01 
1.0000000e+00 3.0000000e+00 1.0500000e+01 
1.0000000e+00 3.0000000e+00 1.1000000e+01 
1.0000000e+00 3.0000000e+00 1.1500000e+01 
1.0000000e+00 3.0000000e+00 1.2000000e+01 
1.0000000e+00 3.0000000e+00 1.2500000e+01 
1.0000000e+00 3.0000000e+00 1.3000000e+01 
1.0000000e+00 3.0000000e+00 1.3500000e+01 
1.0000000e+00 3.0000000e+00 1.4000000e+01 
1.0000000e+00 3.0000000e+00 1.4500000e+01 
1.0000000e+00 3.0250001e+00 -5.0000000e+00 
1.0000000e+00 3.0250001e+00 -4.5000000e+00 
1.0000000e+00 3.0250001e+00 -4.0000000e+00 
1.0000000e+00 3.0250001e+00 -3.5000000e+00 
1.0000000e+00 3.0250001e+00 -3.0000000e+00 
1.0000000e+00 3.0250001e+00 -2.5000000e+00 
1.0000000e+00 3.0250001e+00 -2.0000000e+00 
1.0000000e+00 3.0250001e+00 -1.5000000e+00 
1.0000000e+00 3.0250001e+00 -1.0000000e+00 
1.0000000e+00 3.0250001e+00 -5.0000000e-01 
1.0000000e+00 3.0250001e+00 0.0000000e+00 
1.0000000e+00 3.0250001e+00 5.0000000e-01 
1.0000000e+00 3.0250001e+00 1.0000000e+00 
1.0000000e+00 3.0250001e+00 1.5000000e+00 
1.0000000e+00 3.0250001e+00 2.0000000e+00 
1.0000000e+00 3.0250001e+00 2.5000000e+00 
1.0000000e+00 3.0250001e+00 3.0000000e+00 
1.0000000e+00 3.0250001e+00 3.5000000e+00 
1.0000000e+00 3.0250001e+00 4.0000000e+00 
1.0000000e+00 3.0250001e+00 4.5000000e+00 
1.0000000e+00 3.0250001e+00 5.0000000e+00 
1.0000000e+00 3.0250001e+00 5.5000000e+00 
1.0000000e+00 3.0250001e+00 6.0000000e+00 
1.0000000e+00 3.0250001e+00 6.5000000e+00 
1.0000000e+00 3.0250001e+00 7.0000000e+00 
1.0000000e+00 3.0250001e+00 7.5000000e+00 
1.0000000e+00 3.0250001e+00 8.0000000e+00 
1.0000000e+00 3.0250001e+00 8.5000000e+00 
1.0000000e+00 3.0250001e+00 9.0000000e+00 
1.0000000e+00 3.0250001e+00 9.5000000e+00 
1.0000000e+00 3.0250001e+00 1.0000000e+01 
1.0000000e+00 3.0250001e+00 1.0500000e+01 
1.0000000e+00 3.0250001e+00 1.1000000e+01 
1.0000000e+00 3.0250001e+00 1.1500000e+01 
1.0000000e+00 3.0250001e+00 1.2000000e+01 
1.0000000e+00 3.0250001e+00 1.2500000e+01 
1.0000000e+00 3.0250001e+00 1.3000000e+01 
1.0000000e+00 3.0250001e+00 1.3500000e+01 
1.0000000e+00 3.0250001e+00 1.4000000e+01 
1.0000000e+00 3.0250001e+00 1.4500000e+01 
1.0000000e+00 -2.0000000e+00 -5.0000000e+00 
1.0000000e+00 -2.0000000e+00 -4.5000000e+00 
1.0000000e+00 -2.0000000e+00 -4.0000000e+00 
1.0000000e+00 -2.0000000e+00 -3.5000000e+00 
1.0000000e+00 -2.0000000e+00 -3.0000000e+00 
1.0000000e+00 -2.0000000e+00 -2.5000000e+00 
1.0000000e+00 -2.0000000e+00 -2.0000000e+00 
1.0000000e+00 -2.0000000e+00 -1.5000000e+00 
1.0000000e+00 -2.0000000e+00 -1.0000000e+00 
1.0000000e+00 -2.0000000e+00 -5.0000000e-01 
1.0000000e+00 -2.0000000e+00 1.0500000e+01 
1.0000000e+00 -2.0000000e+00 1.1000000e+01 
1.0000000e+00 -2.0000000e+00 1.1500000e+01 
1.0000000e+00 -2.0000000e+00 1.2000000e+01 
1.0000000e+00 -2.0000000e+00 1.2500000e+01 
1.0000000e+00 -2.0000000e+00 1.3000000e+01 
1.0000000e+00 -2.0000000e+00 1.3500000e+01 
1.0000000e+00 -2.0000000e+00 1.4000000e+01 
1.0000000e+00 -2.0000000e+00 1.4500000e+01 
1.0000000e+00 0.0000000e+00 0.0000000e+00 
2.0000000e+00 0.0000000e+00 0.0000000e+00 
3.0000000e+00 0.0000000e+00 0.0000000e+00 
4.0000000e+00 0.0000000e+00 0.0000000e+00 
5.0000000e+00 1.0000000e+00 0.0000000e+00 
5.0000000e+00 2.0000000e+00 0.0000000e+00 
0.0000000e+00 2.0000000e+00 0.0000000e+00 
0.0000000e+00 1.0000000e+00 0.0000000e+00 
0.0000000e+00 0.0000000e+00 1.0000000e+00 
0.0000000e+00 0.0000000e+00 2.0000000e+00 
0.0000000e+00 0.0000000e+00 3.0000000e+00 
0.0000000e+00 0.0000000e+00 4.0000000e+00 
0.0000000e+00 0.0000000e+00 5.0000000e+00 
0.0000000e+00 0.0000000e+00 6.0000000e+00 
0.0000000e+00 0.0000000e+00 7.0000000e+00 
0.0000000e+00 0.0000000e+00 8.0000000e+00 
0.0000000e+00 0.0000000e+00 9.0000000e+00 
5.0000000e+00 0.0000000e+00 1.0000000e+00 
5.0000000e+00 0.0000000e+00 2.0000000e+00 
5.0000000e+00 0.0000000e+00 3.0000000e+00 
5.0000000e+00 0.0000000e+00 4.0000000e+00 
5.0000000e+00 0.0000000e+00 5.0000000e+00 
5.0000000e+00 0.0000000e+00 6.0000000e+00 
5.0000000e+00 0.0000000e+00 7.0000000e+00 
5.0000000e+00 0.0000000e+00 8.0000000e+00 
5.0000000e+00 0.0000000e+00 9.0000000e+00 
1.0000000e+00 0.0000000e+00 1.0000000e+01 
2.0000000e+00 0.0000000e+00 1.0000000e+01 
3.0000000e+00 0.0000000e+00 1.0000000e+01 
4.0000000e+00 0.0000000e+00 1.0000000e+01 
5.0000000e+00 3.0000000e+00 1.0000000e+00 
5.0000000e+00 3.0000000e+00 2.0000000e+00 
5.0000000e+00 3.0000000e+00 3.0000000e+00 
5.0000000e+00 3.0000000e+00 4.0000000e+00 
5.0000000e+00 3.0000000e+00 5.0000000e+00 
5.0000000e+00 3.0000000e+00 6.0000000e+00 
5.0000000e+00 3.0000000e+00 7.0000000e+00 
5.0000000e+00 3.0000000e+00 8.0000000e+00 
5.0000000e+00 3.0000000e+00 9.0000000e+00 
5.0000000e+00 1.0000000e+00 1.0000000e+01 
5.0000000e+00 2.0000000e+00 1.0000000e+01 
0.0000000e+00 3.0000000e+00 1.0000000e+00 
0.0000000e+00 3.0000000e+00 2.0000000e+00 
0.0000000e+00 3.0000000e+00 3.0000000e+00 
0.0000000e+00 3.0000000e+00 4.0000000e+00 
0.0000000e+00 3.0000000e+00 5.0000000e+00 
0.0000000e+00 3.0000000e+00 6.0000000e+00 
0.0000000e+00 3.0000000e+00 7.0000000e+00 
0.0000000e+00 3.0000000e+00 8.0000000e+00 
0.0000000e+00 3.0000000e+00 9.0000000e+00 
0.0000000e+00 2.0000000e+00 1.0000000e+01 
0.0000000e+00 1.0000000e+00 1.0000000e+01 
4.0000000e+00 3.0000000e+00 0.0000000e+00 
3.0000000e+00 3.0000000e+00 0.0000000e+00 
2.0000000e+00 3.0000000e+00 0.0000000e+00 
4.0000000e+00 3.0000000e+00 1.0000000e+01 
3.0000000e+00 3.0000000e+00 1.0000000e+01 
2.0000000e+00 3.0000000e+00 1.0000000e+01 
4.0618000e+00 1.5000000e+00 0.0000000e+00 
1.5046000e+00 7.6549745e-01 0.0000000e+00 
2.5000000e+00 2.1339746e+00 0.0000000e+00 
1.5046000e+00 2.2345026e+00 0.0000000e+00 
2.4957771e+00 8.1560516e-01 0.0000000e+00 
3.4707544e+00 2.2336540e+00 0.0000000e+00 
3.4700506e+00 7.5794268e-01 0.0000000e+00 
8.6322361e-01 1.5000000e+00 0.0000000e+00 
2.0000000e+00 1.5000000e+00 0.0000000e+00 
2.9960666e+00 1.4974480e+00 0.0000000e+00 
4.2679491e+00 7.3205084e-01 0.0000000e+00 
4.2679491e+00 2.2679491e+00 0.0000000e+00 
7.2695929e-01 2.2730408e+00 0.0000000e+00 
7.2695929e-01 7.2695929e-01 0.0000000e+00 
4.1822505e+00 0.0000000e+00 2.5515697e+00 
4.2017918e+00 0.0000000e+00 4.4725966e+00 
4.1114569e+00 0.0000000e+00 6.5092020e+00 
8.6602539e-01 0.0000000e+00 3.5000000e+00 
8.4778279e-01 0.0000000e+00 5.4684029e+00 
8.9629614e-01 0.0000000e+00 7.5867257e+00 
2.5566745e+00 0.0000000e+00 8.1853306e-01 
2.4918270e+00 0.0000000e+00 9.1386929e+00 
8.4677207e-01 0.0000000e+00 1.5042374e+00 
4.0943027e+00 0.0000000e+00 8.4081745e+00 
8.6281651e-01 0.0000000e+00 2.5007062e+00 
1.7315160e+00 0.0000000e+00 3.0001178e+00 
1.7319617e+00 0.0000000e+00 4.0000196e+00 
2.5980761e+00 0.0000000e+00 3.5000000e+00 
2.5536871e+00 0.0000000e+00 4.4963923e+00 
2.5928419e+00 0.0000000e+00 2.4239938e+00 
1.5037409e+00 0.0000000e+00 9.1535149e+00 
1.8433737e+00 0.0000000e+00 8.1858873e+00 
3.0000000e+00 0.0000000e+00 8.2679491e+00 
2.5000000e+00 0.0000000e+00 7.4019237e+00 
3.5042722e+00 0.0000000e+00 7.4271150e+00 
3.0310018e+00 0.0000000e+00 6.5282087e+00 
2.0373929e+00 0.0000000e+00 6.5307913e+00 
3.4767809e+00 0.0000000e+00 5.8031492e+00 
2.5452602e+00 0.0000000e+00 5.5720768e+00 
1.6456656e+00 0.0000000e+00 1.9697139e+00 
8.6297011e-01 0.0000000e+00 4.4947371e+00 
1.0111579e+00 0.0000000e+00 6.5282545e+00 
3.4994321e+00 0.0000000e+00 8.4691072e-01 
4.1860156e+00 0.0000000e+00 3.5040276e+00 
1.7320508e+00 0.0000000e+00 5.0000000e+00 
4.0544066e+00 0.0000000e+00 1.5781221e+00 
1.5817389e+00 0.0000000e+00 9.3943578e-01 
8.3166349e-01 0.0000000e+00 8.5090933e+00 
3.4686174e+00 0.0000000e+00 9.1752682e+00 
3.0709300e+00 0.0000000e+00 1.5799091e+00 
3.3927374e+00 0.0000000e+00 3.0399952e+00 
3.3826034e+00 0.0000000e+00 3.9747651e+00 
4.3420062e+00 0.0000000e+00 7.4688983e+00 
3.4023225e+00 0.0000000e+00 4.9314723e+00 
1.6740381e+00 0.0000000e+00 7.3014426e+00 
4.2715640e+00 0.0000000e+00 5.4758859e+00 
1.6225953e+00 0.0000000e+00 5.8104177e+00 
4.2679491e+00 0.0000000e+00 9.2679491e+00 
7.3205084e-01 0.0000000e+00 7.3205084e-01 
4.2679491e+00 0.0000000e+00 7.3205084e-01 
7.3205084e-01 0.0000000e+00 9.2679491e+00 
3.4586334e+00 0.0000000e+00 2.2347178e+00 
2.2895701e+00 0.0000000e+00 1.5463171e+00 
5.0000000e+00 2.2345026e+00 1.5046000e+00 
[...]
POINT_DATA 460
FIELD FieldData 5
DISPLACEMENT 3 460  float
0.0000000e+00 0.0000000e+00 0.0000000e+00 
0.0000000e+00 0.0000000e+00 0.0000000e+00 
0.0000000e+00 2.9448259e-07 0.0000000e+00 
0.0000000e+00 -6.9518651e-06 0.0000000e+00 
0.0000000e+00 0.0000000e+00 0.0000000e+00 
0.0000000e+00 0.0000000e+00 0.0000000e+00 
0.0000000e+00 5.1123669e-07 0.0000000e+00 
0.0000000e+00 1.1056857e-06 0.0000000e+00 
0.0000000e+00 7.2527414e-06 0.0000000e+00 
0.0000000e+00 7.4796785e-06 0.0000000e+00 
0.0000000e+00 7.4501695e-06 0.0000000e+00 
0.0000000e+00 7.4986519e-06 0.0000000e+00 
0.0000000e+00 6.3227321e-06 0.0000000e+00 
0.0000000e+00 4.1433245e-06 0.0000000e+00 
0.0000000e+00 1.5820818e-06 0.0000000e+00 
0.0000000e+00 -7.8989291e-07 0.0000000e+00 
0.0000000e+00 -2.3930513e-06 0.0000000e+00 
0.0000000e+00 -3.3755448e-06 0.0000000e+00 
0.0000000e+00 -5.0825461e-06 0.0000000e+00 
-9.2805891e-07 -6.1642190e-06 2.9450671e-06 
-2.5560701e-06 -8.4819631e-06 7.2221205e-06 
-3.0086401e-06 -1.7083235e-05 9.9392810e-06 
-4.1947087e-06 -3.9446280e-05 1.6030428e-05 
-4.3644677e-06 -8.6071712e-05 1.3830570e-05 
-4.6093924e-06 -1.5810211e-04 9.0479143e-06 
-1.3436113e-05 -2.3047297e-04 1.3308627e-05 
-2.1087380e-06 -2.4200535e-04 1.1219430e-06 
-1.4818258e-05 -1.8251111e-04 -1.8418943e-05 
-8.6753980e-06 -1.0582347e-04 -1.5668662e-05 
-3.1569402e-06 -5.0783379e-05 -1.5608035e-05 
-3.6477663e-06 -1.9663110e-05 -1.0059733e-05 
-2.0952461e-06 -4.5852689e-06 -7.7124741e-06 
-1.8074112e-06 2.7663832e-06 -5.9295753e-06 
-1.0992381e-06 7.5761163e-06 -3.7045359e-06 
-7.5417699e-07 9.6116237e-06 -2.1322392e-06 
-2.7472706e-07 6.9059975e-06 -4.6452320e-07 
1.3030088e-07 3.7580446e-06 -3.1803995e-07 
2.8033126e-08 1.5111893e-06 -3.3052854e-07 
0.0000000e+00 -5.6648599e-07 0.0000000e+00 
0.0000000e+00 -2.5564832e-06 0.0000000e+00 
0.0000000e+00 -2.7690839e-06 0.0000000e+00 
0.0000000e+00 -1.4030792e-06 0.0000000e+00 
0.0000000e+00 6.5391362e-07 0.0000000e+00 
0.0000000e+00 2.8769318e-06 0.0000000e+00 
0.0000000e+00 4.6183513e-06 0.0000000e+00 
0.0000000e+00 6.1240348e-06 0.0000000e+00 
0.0000000e+00 7.7665018e-06 0.0000000e+00 
0.0000000e+00 8.5542970e-06 0.0000000e+00 
0.0000000e+00 7.2706789e-06 0.0000000e+00 
0.0000000e+00 7.4985196e-06 0.0000000e+00 
0.0000000e+00 7.4689974e-06 0.0000000e+00 
0.0000000e+00 7.5182220e-06 0.0000000e+00 
0.0000000e+00 6.3372399e-06 0.0000000e+00 
0.0000000e+00 4.1506974e-06 0.0000000e+00 
0.0000000e+00 1.5811360e-06 0.0000000e+00 
0.0000000e+00 -7.9741591e-07 0.0000000e+00 
0.0000000e+00 -2.4047774e-06 0.0000000e+00 
0.0000000e+00 -3.3903552e-06 0.0000000e+00 
0.0000000e+00 -5.0908789e-06 0.0000000e+00 
0.0000000e+00 -6.1374412e-06 0.0000000e+00 
0.0000000e+00 -8.3957448e-06 0.0000000e+00 
0.0000000e+00 -1.6948848e-05 0.0000000e+00 
0.0000000e+00 -3.9391158e-05 0.0000000e+00 
0.0000000e+00 -8.6597676e-05 0.0000000e+00 
0.0000000e+00 -1.5984465e-04 0.0000000e+00 
0.0000000e+00 -2.3333007e-04 0.0000000e+00 
0.0000000e+00 -2.4715348e-04 0.0000000e+00 
0.0000000e+00 -1.8476875e-04 0.0000000e+00 
0.0000000e+00 -1.0722037e-04 0.0000000e+00 
0.0000000e+00 -5.1147257e-05 0.0000000e+00 
0.0000000e+00 -1.9576160e-05 0.0000000e+00 
0.0000000e+00 -4.4220883e-06 0.0000000e+00 
0.0000000e+00 2.9191692e-06 0.0000000e+00 
0.0000000e+00 7.7878267e-06 0.0000000e+00 
0.0000000e+00 9.8284318e-06 0.0000000e+00 
0.0000000e+00 7.0230135e-06 0.0000000e+00 
0.0000000e+00 3.8195103e-06 0.0000000e+00 
0.0000000e+00 1.5435055e-06 0.0000000e+00 
0.0000000e+00 -5.8438218e-07 0.0000000e+00 
0.0000000e+00 -2.5571926e-06 0.0000000e+00 
0.0000000e+00 -2.7690294e-06 0.0000000e+00 
0.0000000e+00 -1.3997253e-06 0.0000000e+00 
0.0000000e+00 6.6093025e-07 0.0000000e+00 
0.0000000e+00 2.8860045e-06 0.0000000e+00 
0.0000000e+00 4.6255491e-06 0.0000000e+00 
0.0000000e+00 6.1315482e-06 0.0000000e+00 
0.0000000e+00 7.7780005e-06 0.0000000e+00 
0.0000000e+00 8.5681177e-06 0.0000000e+00 
0.0000000e+00 0.0000000e+00 0.0000000e+00 
0.0000000e+00 0.0000000e+00 0.0000000e+00 
0.0000000e+00 0.0000000e+00 0.0000000e+00 
0.0000000e+00 0.0000000e+00 0.0000000e+00 
0.0000000e+00 0.0000000e+00 0.0000000e+00 
0.0000000e+00 0.0000000e+00 0.0000000e+00 
0.0000000e+00 0.0000000e+00 0.0000000e+00 
0.0000000e+00 0.0000000e+00 0.0000000e+00 
0.0000000e+00 0.0000000e+00 0.0000000e+00 
0.0000000e+00 0.0000000e+00 0.0000000e+00 
0.0000000e+00 0.0000000e+00 0.0000000e+00 
0.0000000e+00 0.0000000e+00 0.0000000e+00 
0.0000000e+00 0.0000000e+00 0.0000000e+00 
0.0000000e+00 0.0000000e+00 0.0000000e+00 
0.0000000e+00 0.0000000e+00 0.0000000e+00 
0.0000000e+00 0.0000000e+00 0.0000000e+00 
0.0000000e+00 0.0000000e+00 0.0000000e+00 
0.0000000e+00 0.0000000e+00 0.0000000e+00 
0.0000000e+00 0.0000000e+00 0.0000000e+00 
0.0000000e+00 0.0000000e+00 0.0000000e+00 
0.0000000e+00 0.0000000e+00 0.0000000e+00 
0.0000000e+00 0.0000000e+00 0.0000000e+00 
0.0000000e+00 0.0000000e+00 0.0000000e+00 
0.0000000e+00 8.9438402e-08 0.0000000e+00 
0.0000000e+00 2.3199341e-07 0.0000000e+00 
0.0000000e+00 -6.1406881e-06 0.0000000e+00 
0.0000000e+00 -3.4741654e-06 0.0000000e+00 
0.0000000e+00 0.0000000e+00 0.0000000e+00 
0.0000000e+00 0.0000000e+00 0.0000000e+00 
0.0000000e+00 0.0000000e+00 0.0000000e+00 
0.0000000e+00 0.0000000e+00 0.0000000e+00 
0.0000000e+00 0.0000000e+00 0.0000000e+00 
0.0000000e+00 0.0000000e+00 0.0000000e+00 
0.0000000e+00 0.0000000e+00 0.0000000e+00 
0.0000000e+00 0.0000000e+00 0.0000000e+00 
0.0000000e+00 0.0000000e+00 0.0000000e+00 
0.0000000e+00 0.0000000e+00 0.0000000e+00 
0.0000000e+00 0.0000000e+00 0.0000000e+00 
0.0000000e+00 0.0000000e+00 0.0000000e+00 
0.0000000e+00 0.0000000e+00 0.0000000e+00 
0.0000000e+00 0.0000000e+00 0.0000000e+00 
0.0000000e+00 0.0000000e+00 0.0000000e+00 
0.0000000e+00 0.0000000e+00 0.0000000e+00 
0.0000000e+00 0.0000000e+00 0.0000000e+00 
0.0000000e+00 0.0000000e+00 0.0000000e+00 
0.0000000e+00 0.0000000e+00 0.0000000e+00 
0.0000000e+00 0.0000000e+00 0.0000000e+00 
0.0000000e+00 0.0000000e+00 0.0000000e+00 
0.0000000e+00 0.0000000e+00 0.0000000e+00 
0.0000000e+00 -4.0900147e-08 0.0000000e+00 
0.0000000e+00 -1.2996534e-07 0.0000000e+00 
0.0000000e+00 -1.4473520e-06 0.0000000e+00 
0.0000000e+00 -9.6749386e-07 0.0000000e+00 
0.0000000e+00 -1.2885192e-06 0.0000000e+00 
0.0000000e+00 4.7492554e-07 0.0000000e+00 
0.0000000e+00 1.5221069e-07 0.0000000e+00 
0.0000000e+00 4.8978194e-07 0.0000000e+00 
0.0000000e+00 4.7054718e-07 0.0000000e+00 
0.0000000e+00 2.3668628e-07 0.0000000e+00 
0.0000000e+00 4.5020099e-07 0.0000000e+00 
0.0000000e+00 -1.1941709e-05 0.0000000e+00 
0.0000000e+00 -3.7070688e-05 0.0000000e+00 
0.0000000e+00 -8.4688196e-05 0.0000000e+00 
0.0000000e+00 -1.0062091e-04 0.0000000e+00 
0.0000000e+00 -6.0049111e-05 0.0000000e+00 
0.0000000e+00 -2.1222077e-05 0.0000000e+00 
0.0000000e+00 -3.3660424e-06 0.0000000e+00 
0.0000000e+00 2.0946914e-06 0.0000000e+00 
0.0000000e+00 1.8186095e-06 0.0000000e+00 
0.0000000e+00 9.2455684e-07 0.0000000e+00 
0.0000000e+00 4.9222228e-07 0.0000000e+00 
0.0000000e+00 9.1258094e-08 0.0000000e+00 
0.0000000e+00 -1.7078041e-06 0.0000000e+00 
0.0000000e+00 -4.0662862e-06 0.0000000e+00 
0.0000000e+00 5.2258736e-07 0.0000000e+00 
0.0000000e+00 6.5510500e-07 0.0000000e+00 
0.0000000e+00 9.6981739e-07 0.0000000e+00 
0.0000000e+00 9.8642545e-08 0.0000000e+00 
0.0000000e+00 -2.1691092e-06 0.0000000e+00 
0.0000000e+00 -1.3235962e-06 0.0000000e+00 
0.0000000e+00 -3.5362361e-06 0.0000000e+00 
0.0000000e+00 -9.8323085e-07 0.0000000e+00 
0.0000000e+00 1.9591557e-08 0.0000000e+00 
0.0000000e+00 -5.4502306e-07 0.0000000e+00 
0.0000000e+00 -3.8417256e-06 0.0000000e+00 
0.0000000e+00 -2.0785074e-06 0.0000000e+00 
0.0000000e+00 -6.4184553e-07 0.0000000e+00 
0.0000000e+00 7.1417219e-08 0.0000000e+00 
0.0000000e+00 2.7659937e-07 0.0000000e+00 
0.0000000e+00 -5.2340615e-06 0.0000000e+00 
0.0000000e+00 -1.9532285e-06 0.0000000e+00 
0.0000000e+00 0.0000000e+00 0.0000000e+00 
0.0000000e+00 0.0000000e+00 0.0000000e+00 
0.0000000e+00 0.0000000e+00 0.0000000e+00 
0.0000000e+00 0.0000000e+00 0.0000000e+00 
0.0000000e+00 0.0000000e+00 0.0000000e+00 
0.0000000e+00 0.0000000e+00 0.0000000e+00 
0.0000000e+00 0.0000000e+00 0.0000000e+00 
0.0000000e+00 0.0000000e+00 0.0000000e+00 
0.0000000e+00 0.0000000e+00 0.0000000e+00 
0.0000000e+00 0.0000000e+00 0.0000000e+00 
0.0000000e+00 0.0000000e+00 0.0000000e+00 
0.0000000e+00 0.0000000e+00 0.0000000e+00 
0.0000000e+00 0.0000000e+00 0.0000000e+00 
0.0000000e+00 0.0000000e+00 0.0000000e+00 
0.0000000e+00 0.0000000e+00 0.0000000e+00 
0.0000000e+00 0.0000000e+00 0.0000000e+00 
0.0000000e+00 0.0000000e+00 0.0000000e+00 
0.0000000e+00 0.0000000e+00 0.0000000e+00 
0.0000000e+00 0.0000000e+00 0.0000000e+00 
0.0000000e+00 0.0000000e+00 0.0000000e+00 
0.0000000e+00 0.0000000e+00 0.0000000e+00 
0.0000000e+00 0.0000000e+00 0.0000000e+00 
0.0000000e+00 0.0000000e+00 0.0000000e+00 
0.0000000e+00 0.0000000e+00 0.0000000e+00 
0.0000000e+00 0.0000000e+00 0.0000000e+00 
0.0000000e+00 0.0000000e+00 0.0000000e+00 
0.0000000e+00 0.0000000e+00 0.0000000e+00 
0.0000000e+00 0.0000000e+00 0.0000000e+00 
0.0000000e+00 0.0000000e+00 0.0000000e+00 
0.0000000e+00 0.0000000e+00 0.0000000e+00 
0.0000000e+00 0.0000000e+00 0.0000000e+00 
0.0000000e+00 0.0000000e+00 0.0000000e+00 
0.0000000e+00 0.0000000e+00 0.0000000e+00 
0.0000000e+00 0.0000000e+00 0.0000000e+00 
0.0000000e+00 0.0000000e+00 0.0000000e+00 
0.0000000e+00 0.0000000e+00 0.0000000e+00 
0.0000000e+00 0.0000000e+00 0.0000000e+00 
0.0000000e+00 0.0000000e+00 0.0000000e+00 
0.0000000e+00 0.0000000e+00 0.0000000e+00 
0.0000000e+00 0.0000000e+00 0.0000000e+00 
0.0000000e+00 0.0000000e+00 0.0000000e+00 
0.0000000e+00 0.0000000e+00 0.0000000e+00 
0.0000000e+00 0.0000000e+00 0.0000000e+00 
0.0000000e+00 0.0000000e+00 0.0000000e+00 
0.0000000e+00 0.0000000e+00 0.0000000e+00 
0.0000000e+00 0.0000000e+00 0.0000000e+00 
0.0000000e+00 0.0000000e+00 0.0000000e+00 
0.0000000e+00 0.0000000e+00 0.0000000e+00 
0.0000000e+00 0.0000000e+00 0.0000000e+00 
0.0000000e+00 9.1049777e-08 0.0000000e+00 
0.0000000e+00 3.3635428e-07 0.0000000e+00 
0.0000000e+00 -5.6705602e-07 0.0000000e+00 
0.0000000e+00 1.8960824e-07 0.0000000e+00 
0.0000000e+00 4.6070861e-07 0.0000000e+00 
0.0000000e+00 -6.9196994e-07 0.0000000e+00 
0.0000000e+00 -7.3937167e-07 0.0000000e+00 
0.0000000e+00 -2.1826179e-07 0.0000000e+00 
0.0000000e+00 -9.0670528e-07 0.0000000e+00 
0.0000000e+00 -5.1609669e-07 0.0000000e+00 
0.0000000e+00 -4.2661932e-07 0.0000000e+00 
0.0000000e+00 -7.3302004e-07 0.0000000e+00 
0.0000000e+00 2.6970963e-07 0.0000000e+00 
0.0000000e+00 7.0046966e-08 0.0000000e+00 
0.0000000e+00 -5.5270203e-07 0.0000000e+00 
0.0000000e+00 1.5648959e-07 0.0000000e+00 
0.0000000e+00 4.4257970e-07 0.0000000e+00 
0.0000000e+00 1.1829606e-07 0.0000000e+00 
0.0000000e+00 -4.7285053e-07 0.0000000e+00 
0.0000000e+00 1.3490404e-07 0.0000000e+00 
0.0000000e+00 -5.0280664e-07 0.0000000e+00 
0.0000000e+00 -8.7398881e-08 0.0000000e+00 
0.0000000e+00 -6.8651144e-07 0.0000000e+00 
0.0000000e+00 -8.9459786e-07 0.0000000e+00 
0.0000000e+00 3.3259772e-07 0.0000000e+00 
0.0000000e+00 4.8411465e-07 0.0000000e+00 
0.0000000e+00 1.6125529e-07 0.0000000e+00 
0.0000000e+00 3.4651538e-07 0.0000000e+00 
0.0000000e+00 -4.4421032e-08 0.0000000e+00 
0.0000000e+00 1.0197607e-06 0.0000000e+00 
0.0000000e+00 -8.8688475e-06 0.0000000e+00 
0.0000000e+00 -1.8922034e-05 0.0000000e+00 
0.0000000e+00 -2.2630726e-05 0.0000000e+00 
0.0000000e+00 -1.1380181e-06 0.0000000e+00 
0.0000000e+00 -8.2539271e-05 0.0000000e+00 
0.0000000e+00 -3.2349766e-05 0.0000000e+00 
0.0000000e+00 -5.8994635e-07 0.0000000e+00 
0.0000000e+00 -2.7714330e-05 0.0000000e+00 
0.0000000e+00 -5.0576549e-05 0.0000000e+00 
0.0000000e+00 -7.1595525e-05 0.0000000e+00 
0.0000000e+00 -1.0169074e-05 0.0000000e+00 
0.0000000e+00 -1.3706694e-05 0.0000000e+00 
0.0000000e+00 1.7155826e-06 0.0000000e+00 
0.0000000e+00 -2.0689820e-05 0.0000000e+00 
0.0000000e+00 -8.9803116e-06 0.0000000e+00 
0.0000000e+00 2.4104062e-07 0.0000000e+00 
0.0000000e+00 -3.6001325e-05 0.0000000e+00 
0.0000000e+00 -3.7742996e-06 0.0000000e+00 
0.0000000e+00 -5.4021952e-05 0.0000000e+00 
0.0000000e+00 -4.7482750e-05 0.0000000e+00 
0.0000000e+00 -3.5145845e-06 0.0000000e+00 
0.0000000e+00 -1.2300615e-05 0.0000000e+00 
0.0000000e+00 4.6311519e-07 0.0000000e+00 
0.0000000e+00 -2.4658520e-05 0.0000000e+00 
0.0000000e+00 4.5146399e-07 0.0000000e+00 
0.0000000e+00 -8.9921132e-06 0.0000000e+00 
0.0000000e+00 -4.3904352e-06 0.0000000e+00 
0.0000000e+00 1.3284325e-06 0.0000000e+00 
0.0000000e+00 3.5554805e-07 0.0000000e+00 
0.0000000e+00 3.7959413e-07 0.0000000e+00 
0.0000000e+00 8.4830322e-07 0.0000000e+00 
0.0000000e+00 8.3212524e-07 0.0000000e+00 
0.0000000e+00 2.6561645e-07 0.0000000e+00 
0.0000000e+00 6.1602771e-07 0.0000000e+00 
0.0000000e+00 2.3138635e-07 0.0000000e+00 
0.0000000e+00 6.6204871e-07 0.0000000e+00 
0.0000000e+00 6.5347353e-07 0.0000000e+00 
0.0000000e+00 5.7620383e-07 0.0000000e+00 
0.0000000e+00 1.9042236e-07 0.0000000e+00 
0.0000000e+00 5.4060683e-07 0.0000000e+00 
0.0000000e+00 6.6259247e-07 0.0000000e+00 
0.0000000e+00 3.1873529e-07 0.0000000e+00 
-1.3084182e-05 -8.3374769e-05 -1.0434388e-05 
-3.6251117e-06 -1.4388077e-05 -8.9254436e-06 
-7.6291866e-07 3.3816266e-06 -3.0830215e-06 
-9.8529472e-06 -4.2493637e-05 1.3556665e-05 
-7.0820774e-06 -1.0690965e-04 6.8761183e-06 
-2.5594013e-06 -8.3461384e-07 -1.0295357e-06 
-2.1001208e-06 -2.0078357e-06 3.6471855e-07 
-6.5815425e-07 2.0466373e-07 -7.3420733e-07 
-3.5390353e-06 -1.1527441e-05 7.2237590e-06 
-5.6409327e-08 2.5889885e-06 -7.2851310e-07 
-2.2139807e-06 -1.6518508e-06 1.7186733e-06 
-1.1375769e-07 6.3649196e-07 -3.1427226e-07 
-9.3301884e-07 -1.7118933e-07 -9.8531859e-07 
-1.6254706e-06 -4.9455792e-07 -2.4370950e-06 
-5.8616740e-07 -8.3961751e-08 -1.5032416e-06 
-1.1236549e-06 -6.8235744e-07 -1.9068769e-06 
-2.4092024e-06 -3.6983590e-06 -3.1546947e-06 
-2.7385806e-07 6.5565098e-07 -1.1772801e-06 
-1.4405588e-06 -1.4889387e-06 -4.7494714e-06 
-3.3524827e-06 -3.0419594e-06 -3.2060047e-06 
-4.4206267e-06 -5.7458510e-06 -2.6728062e-06 
-5.9568852e-06 -1.0807494e-05 -4.6477026e-06 
-9.8898226e-06 -2.0240423e-05 -5.5530309e-06 
-6.8022041e-06 -9.9912531e-06 -1.6723836e-06 
-1.1352245e-05 -2.5910113e-05 -1.2557675e-06 
-5.5392770e-06 -9.0399644e-06 -8.9222524e-08 
-1.0433470e-05 -2.6779964e-05 3.3804645e-06 
-7.0533019e-06 -1.3481834e-05 2.6580212e-06 
-9.0980475e-06 -2.1584747e-05 4.4768908e-06 
-6.1690025e-06 -8.9225232e-06 3.2586479e-06 
-6.5494592e-06 -1.2520344e-05 5.4235770e-06 
-8.7283333e-06 -2.4579444e-05 -9.3784993e-06 
-6.0150383e-06 -1.3995963e-05 -7.3443716e-06 
-1.7166865e-05 -5.4983426e-05 8.8608056e-07 
-2.9891828e-06 -2.8623488e-06 2.8686239e-07 
-1.2747113e-07 8.8994710e-07 -5.2102376e-07 
-1.4402953e-05 -5.0092200e-05 -5.4325960e-06 
-2.7543485e-06 -2.4848246e-06 -1.1457671e-06 
-2.7949254e-06 -3.8922058e-06 2.6765124e-06 
-1.9264056e-07 5.2702785e-07 -3.2522075e-07 
-3.4839925e-07 5.9441379e-07 -2.7473911e-06 
-2.6024188e-07 1.4475396e-06 -1.9860461e-06 
-6.0971443e-06 -2.9761286e-05 -9.6564254e-06 
-1.5822825e-06 -7.0217089e-07 8.0732912e-07 
-9.9075633e-06 -6.6094952e-05 1.1244009e-05 
-8.6483606e-06 -5.2207241e-05 5.0719514e-06 
-1.2816278e-05 -1.3205216e-04 6.3266125e-06 
-1.3238483e-05 -1.1860430e-04 -7.4920922e-06 
-2.1023843e-06 -4.2546162e-06 -6.2391491e-06 
-7.3253739e-07 3.9413715e-07 -3.8942580e-06 
-1.8778774e-06 -5.7713701e-06 4.3465566e-06 
-5.8706887e-06 -2.3215627e-05 1.0088940e-05 
4.8977235e-08 1.5212973e-06 -3.6077071e-07 
-4.1242997e-06 -4.7169769e-06 3.3573497e-06 
-1.2289535e-05 -3.3039447e-05 1.0776648e-05 
-2.0483441e-08 3.2233622e-06 -1.7427409e-06 
-2.6533394e-06 -6.4279393e-06 -5.4101274e-06 
-5.4404231e-06 -1.2466900e-05 7.6058122e-06 
-8.8012648e-06 -5.5965571e-05 -1.3483654e-05 
-2.6627745e-07 6.2621433e-07 -8.5495634e-07 
-8.5323968e-08 5.6191448e-07 -1.8464632e-07 
-9.5215029e-07 -8.8088463e-08 5.9595305e-07 
-4.8425372e-06 -5.7663583e-06 -4.1870123e-07 
-8.0233949e-06 -2.2624714e-05 1.0382343e-05 
-3.5475519e-08 1.3417645e-06 -7.3025512e-07 
-3.6077488e-06 -6.8849959e-06 -4.1527692e-06 
-3.0740689e-06 -3.0073131e-06 1.5181517e-06 
-4.1467028e-06 -5.4403054e-06 8.8250596e-07 
-2.7238159e-06 -6.6514585e-06 4.4032258e-06 
-1.4424672e-05 -4.3522854e-05 -1.0018054e-05 
-5.9801870e-08 1.1618491e-06 -3.1190444e-07 
-4.5393103e-06 -5.2555893e-05 9.3725921e-06 
-1.9575280e-06 -3.0520161e-05 1.0127397e-05 
-5.4640527e-06 -8.2126324e-05 1.0581130e-05 
-8.1752432e-06 -1.1373970e-04 6.2190334e-06 
-1.7005580e-06 -1.6199179e-05 7.2198841e-06 
-1.2579848e-06 -1.2280305e-04 5.6797012e-07 
-5.2609698e-06 -1.2070269e-04 -4.4964372e-06 
-2.0520499e-06 -8.6543158e-05 -4.9238033e-06 
-3.7386039e-06 -5.8888309e-05 -8.8141060e-06 
-2.2099282e-06 -3.0404006e-05 -7.5138964e-06 
-1.5391583e-06 -1.8004457e-05 -7.7650357e-06 
-7.3910951e-07 -5.7073444e-06 -6.4262758e-06 
-6.3419030e-08 7.9768273e-07 -3.8267267e-06 
3.3273640e-08 3.7049342e-06 -2.3810780e-06 
-2.0320567e-08 3.5733356e-06 -1.2471937e-06 
1.3312707e-07 2.6756243e-06 -4.7861420e-07 
4.6067655e-08 1.4638116e-06 -1.4080979e-07 
-6.3159382e-07 -8.6106884e-06 3.6554259e-06 
4.7741632e-06 -1.9829977e-05 -6.8952877e-06 
1.0576110e-05 -3.8047314e-05 -1.5191788e-06 
5.4569500e-06 -1.9432700e-05 6.4033243e-06 
6.5016263e-07 -2.0782823e-06 2.6967543e-06 
-2.4065366e-07 9.8917781e-07 4.6059736e-07 
4.7451817e-06 -6.8022491e-06 -1.9458339e-06 
4.9346859e-06 -6.1630012e-06 6.7509740e-07 
1.9105255e-06 -3.3279832e-06 2.3429905e-06 
7.9072097e-06 -5.9977749e-05 6.7134761e-06 
2.6858465e-06 -6.2471408e-05 -6.4477963e-06 
6.6513218e-07 -1.1966009e-05 -2.4666440e-06 
3.1104562e-07 -1.3901165e-08 9.4655741e-07 
2.0051561e-06 -4.7763224e-06 -1.9386432e-06 
1.2967408e-06 -1.2405197e-05 4.6771502e-06 
-1.8806949e-07 2.0555103e-06 2.8447184e-07 
-1.0841463e-06 -1.0605556e-04 -5.0608264e-06 
6.9083908e-06 -2.3697787e-05 1.9672821e-06 
6.5903660e-06 -2.1995233e-05 -3.2729529e-06 
2.0102464e-06 -4.6086589e-05 6.6056123e-06 
7.8836620e-06 -1.8875280e-05 3.3905271e-06 
1.5443652e-06 -3.1575470e-05 -2.0557054e-06 
2.3002710e-06 -2.1236442e-06 1.1877703e-06 
-7.1522678e-08 2.2803351e-06 -4.6240442e-07 
1.8783804e-06 -1.2105756e-06 -1.2502973e-06 
6.6203762e-09 4.7823318e-07 1.5287821e-07 
6.4616970e-06 -2.4885368e-05 -4.8160023e-06 
5.6936556e-06 -8.0515238e-06 3.4699565e-06 
5.2165492e-06 -7.5781945e-06 -3.6393583e-06 
7.4086120e-06 -1.2218993e-05 -1.2421937e-06 
4.0633854e-06 -1.2707808e-05 -1.0735079e-06 
3.5680210e-07 -1.1509277e-07 3.0279395e-07 
4.2276298e-07 -3.4555574e-06 8.9365830e-07 
-3.5769688e-07 -1.4555524e-06 2.6901478e-07 
2.1570977e-06 -1.2347329e-05 1.4470538e-06 
-6.4122503e-08 4.2151902e-07 3.6830255e-07 
-1.7103123e-07 4.2049487e-07 4.4748873e-07 
2.2882662e-06 -4.9821037e-06 -3.1215843e-06 
2.2292504e-06 -2.7155731e-06 -3.3576430e-07 
1.0346270e-06 -7.9088968e-06 -3.5463645e-06 
1.4269945e-06 -6.9205635e-06 4.2573424e-06 
5.9259278e-06 -3.7216432e-05 2.5551253e-06 
-2.4623500e-07 1.0371510e-06 -1.0160342e-07 
-1.2352920e-07 7.9408494e-08 1.4125650e-06 
9.0287922e-06 -6.2073297e-05 -2.0990060e-06 
1.1434998e-06 -1.0098512e-05 -1.9528563e-06 
1.7280970e-06 -6.7390738e-06 8.1473564e-07 
2.6033276e-06 -2.0098889e-06 -5.1604610e-07 
1.1032154e-07 -1.4284268e-07 1.2545573e-06 
1.5531771e-06 -7.7884624e-06 -1.0205353e-06 
3.5048195e-06 -1.7925371e-05 5.1035290e-06 
1.0616124e-06 -1.7070419e-06 -5.2584790e-07 
3.0487064e-07 1.9036348e-09 5.3651189e-07 
-3.1153905e-07 2.1916860e-06 -5.9957728e-07 
4.8364291e-07 -1.0185295e-05 4.6109838e-07 
1.1173131e-06 -2.0801046e-05 5.3610725e-06 
2.7377703e-06 -4.5817237e-06 3.6326960e-06 
-1.3631164e-07 8.2053646e-07 2.2470449e-07 
5.0888957e-07 -8.0756422e-07 -4.3318781e-07 
4.4892104e-07 -2.5394822e-06 7.2533688e-08 
2.3709156e-06 -1.8432041e-06 2.5974438e-07 
6.0508125e-07 -1.5631018e-06 2.2503649e-07 
9.7775887e-07 -4.8616101e-07 8.7683242e-07 
9.5723192e-07 -2.2208331e-05 -1.0909821e-06 
-2.9132255e-07 4.1418557e-06 -1.0326974e-06 