# vtk DataFile Version 4.0
vtk output
ASCII
DATASET UNSTRUCTURED_GRID
POINTS 460 float
0.0000000e+00 0.0000000e+00 0.0000000e+00 
5.0000000e+00 0.0000000e+00 0.0000000e+00 
5.0000000e+00 3.0000000e+00 0.0000000e+00 
0.0000000e+00 3.0000000e+00 0.0000000e+00 
0.0000000e+00 0.0000000e+00 1.0000000e+01 
5.0000000e+00 0.0000000e+00 1.0000000e+01 
5.0000000e+00 3.0000000e+00 1.0000000e+01 
0.0000000e+00 3.0000000e+00 1.0000000e+01 
1.0000000e+00 3.0000000e+00 -5.0000000e+00 
1.0000000e+00 3.0000000e+00 -4.5000000e+00 
1.0000000e+00 3.0000000e+00 -4.0000000e+00 
1.0000000e+00 3.0000000e+00 -3.5000000e+00 
1.0000000e+00 3.0000000e+00 -3.0000000e+00 
1.0000000e+00 3.0000000e+00 -2.5000000e+00 
1.0000000e+00 3.0000000e+00 -2.0000000e+00 
1.0000000e+00 3.0000000e+00 -1.5000000e+00 
1.0000000e+00 3.0000000e+00 -1.0000000e+00 
1.0000000e+00 3.0000000e+00 -5.0000000e-01 
1.0000000e+00 3.0000000e+00 0.0000000e+00 
1.0000000e+00 3.0000000e+00 5.0000000e-01 
1.0000000e+00 3.0000000e+00 1.0000000e+00 
1.0000000e+00 3.0000000e+00 1.5000000e+00 
1.0000000e+00 3.0000000e+00 2.0000000e+00 
1.0000000e+00 3.0000000e+00 2.5000000e+00 
1.0000000e+00 3.0000000e+00 3.0000000e+00 
1.0000000e+00 3.0000000e+00 3.5000000e+00 
1.0000000e+00 3.0000000e+00 4.0000000e+00 
1.0000000e+00 3.0000000e+00 4.5000000e+00 
1.0000000e+00 3.0000000e+00 5.0000000e+00 
1.0000000e+00 3.0000000e+00 5.5000000e+00 
1.0000000e+00 3.0000000e+00 6.0000000e+00 
1.0000000e+00 3.0000000e+00 6.5000000e+00 
1.0000000e+00 3.0000000e+00 7.0000000e+00 
1.0000000e+00 3.0000000e+00 7.5000000e+00 
1.0000000e+00 3.0000000e+00 8.0000000e+00 
1.0000000e+00 3.0000000e+00 8.5000000e+00 
1.0000000e+00 3.0000000e+00 9.0000000e+00 
1.0000000e+00 3.0000000e+00 9.5000000e+00 
1.0000000e+00 3.0000000e+00 1.0000000e+01 
1.0000000e+00 3.0000000e+00 1.0500000e+01 
1.0000000e+00 3.0000000e+00 1.1000000e+01 
1.0000000e+00 3.0000000e+00 1.1500000e+01 
1.0000000e+00 3.0000000e+00 1.2000000e+01 
1.0000000e+00 3.0000000e+00 1.2500000e+01 
1.0000000e+00 3.0000000e+00 1.3000000e+01 
1.0000000e+00 3.0000000e+00 1.3500000e+01 
1.0000000e+00 3.0000000e+00 1.4000000e+01 
1.0000000e+00 3.0000000e+00 1.4500000e+01 
1.0000000e+00 3.0250001e+00 -5.0000000e+00 
1.0000000e+00 3.0250001e+00 -4.5000000e+00 
1.0000000e+00 3.0250001e+00 -4.0000000e+00 
1.0000000e+00 3.0250001e+00 -3.5000000e+00 
1.0000000e+00 3.0250001e+00 -3.0000000e+00 
1.0000000e+00 3.0250001e+00 -2.5000000e+00 
1.0000000e+00 3.0250001e+00 -2.0000000e+00 
1.0000000e+00 3.0250001e+00 -1.5000000e+00 
1.0000000e+00 3.0250001e+00 -1.0000000e+00 
1.0000000e+00 3.0250001e+00 -5.0000000e-01 
1.0000000e+00 3.0250001e+00 0.0000000e+00 
1.0000000e+00 3.0250001e+00 5.0000000e-01 
1.0000000e+00 3.0250001e+00 1.0000000e+00 
1.0000000e+00 3.0250001e+00 1.5000000e+00 
1.0000000e+00 3.0250001e+00 2.0000000e+00 
1.0000000e+00 3.0250001e+00 2.5000000e+00 
1.0000000e+00 3.0250001e+00 3.0000000e+00 
1.0000000e+00 3.0250001e+00 3.5000000e+00 
1.0000000e+00 3.0250001e+00 4.0000000e+00 
1.0000000e+00 3.0250001e+00 4.5000000e+00 
1.0000000e+00 3.0250001e+00 5.0000000e+00 
1.0000000e+00 3.0250001e+00 5.5000000e+00 
1.0000000e+00 3.0250001e+00 6.0000000e+00 
1.0000000e+00 3.0250001e+00 6.5000000e+00 
1.0000000e+00 3.0250001e+00 7.0000000e+00 
1.0000000e+00 3.0250001e+00 7.5000000e+00 
1.0000000e+00 3.0250001e+00 8.0000000e+00 
1.0000000e+00 3.0250001e+00 8.5000000e+00 
1.0000000e+00 3.0250001e+00 9.0000000e+00 
1.0000000e+00 3.0250001e+00 9.5000000e+00 
1.0000000e+00 3.0250001e+00 1.0000000e+01 
1.0000000e+00 3.0250001e+00 1.0500000e+01 
1.0000000e+00 3.0250001e+00 1.1000000e+01 
1.0000000e+00 3.0250001e+00 1.1500000e+01 
1.0000000e+00 3.0250001e+00 1.2000000e+01 
1.0000000e+00 3.0250001e+00 1.2500000e+01 
1.0000000e+00 3.0250001e+00 1.3000000e+01 
1.0000000e+00 3.0250001e+00 1.3500000e+01 
1.0000000e+00 3.0250001e+00 1.4000000e+01 
1.0000000e+00 3.0250001e+00 1.4500000e+01 
1.0000000e+00 -2.0000000e+00 -5.0000000e+00 
1.0000000e+00 -2.0000000e+00 -4.5000000e+00 
1.0000000e+00 -2.0000000e+00 -4.0000000e+00 
1.0000000e+00 -2.0000000e+00 -3.5000000e+00 
1.0000000e+00 -2.0000000e+00 -3.0000000e+00 
1.0000000e+00 -2.0000000e+00 -2.5000000e+00 
1.0000000e+00 -2.0000000e+00 -2.0000000e+00 
1.0000000e+00 -2.0000000e+00 -1.5000000e+00 
1.0000000e+00 -2.0000000e+00 -1.0000000e+00 
1.0000000e+00 -2.0000000e+00 -5.0000000e-01 
1.0000000e+00 -2.0000000e+00 1.0500000e+01 
1.0000000e+00 -2.0000000e+00 1.1000000e+01 
1.0000000e+00 -2.0000000e+00 1.1500000e+01 
1.0000000e+00 -2.0000000e+00 1.2000000e+01 
1.0000000e+00 -2.0000000e+00 1.2500000e+01 
1.0000000e+00 -2.0000000e+00 1.3000000e+01 
1.0000000e+00 -2.0000000e+00 1.3500000e+01 
1.0000000e+00 -2.0000000e+00 1.4000000e+01 
1.0000000e+00 -2.0000000e+00 1.4500000e+01 
1.0000000e+00 0.0000000e+00 0.0000000e+00 
2.0000000e+00 0.0000000e+00 0.0000000e+00 
3.0000000e+00 0.0000000e+00 0.0000000e+00 
4.0000000e+00 0.0000000e+00 0.0000000e+00 
5.0000000e+00 1.0000000e+00 0.0000000e+00 
5.0000000e+00 2.0000000e+00 0.0000000e+00 
0.0000000e+00 2.0000000e+00 0.0000000e+00 
0.0000000e+00 1.0000000e+00 0.0000000e+00 
0.0000000e+00 0.0000000e+00 1.0000000e+00 
0.0000000e+00 0.0000000e+00 2.0000000e+00 
0.0000000e+00 0.0000000e+00 3.0000000e+00 
0.0000000e+00 0.0000000e+00 4.0000000e+00 
0.0000000e+00 0.0000000e+00 5.0000000e+00 
0.0000000e+00 0.0000000e+00 6.0000000e+00 
0.0000000e+00 0.0000000e+00 7.0000000e+00 
0.0000000e+00 0.0000000e+00 8.0000000e+00 
0.0000000e+00 0.0000000e+00 9.0000000e+00 
5.0000000e+00 0.0000000e+00 1.0000000e+00 
5.0000000e+00 0.0000000e+00 2.0000000e+00 
5.0000000e+00 0.0000000e+00 3.0000000e+00 
5.0000000e+00 0.0000000e+00 4.0000000e+00 
5.0000000e+00 0.0000000e+00 5.0000000e+00 
5.0000000e+00 0.0000000e+00 6.0000000e+00 
5.0000000e+00 0.0000000e+00 7.0000000e+00 
5.0000000e+00 0.0000000e+00 8.0000000e+00 
5.0000000e+00 0.0000000e+00 9.0000000e+00 
1.0000000e+00 0.0000000e+00 1.0000000e+01 
2.0000000e+00 0.0000000e+00 1.0000000e+01 
3.0000000e+00 0.0000000e+00 1.0000000e+01 
4.0000000e+00 0.0000000e+00 1.0000000e+01 
5.0000000e+00 3.0000000e+00 1.0000000e+00 
5.0000000e+00 3.0000000e+00 2.0000000e+00 
5.0000000e+00 3.0000000e+00 3.0000000e+00 
5.0000000e+00 3.0000000e+00 4.0000000e+00 
5.0000000e+00 3.0000000e+00 5.0000000e+00 
5.0000000e+00 3.0000000e+00 6.0000000e+00 
5.0000000e+00 3.0000000e+00 7.0000000e+00 
5.0000000e+00 3.0000000e+00 8.0000000e+00 
5.0000000e+00 3.0000000e+00 9.0000000e+00 
5.0000000e+00 1.0000000e+00 1.0000000e+01 
5.0000000e+00 2.0000000e+00 1.0000000e+01 
0.0000000e+00 3.0000000e+00 1.0000000e+00 
0.0000000e+00 3.0000000e+00 2.0000000e+00 
0.0000000e+00 3.0000000e+00 3.0000000e+00 
0.0000000e+00 3.0000000e+00 4.0000000e+00 
0.0000000e+00 3.0000000e+00 5.0000000e+00 
0.0000000e+00 3.0000000e+00 6.0000000e+00 
0.0000000e+00 3.0000000e+00 7.0000000e+00 
0.0000000e+00 3.0000000e+00 8.0000000e+00 
0.0000000e+00 3.0000000e+00 9.0000000e+00 
0.0000000e+00 2.0000000e+00 1.0000000e+01 
0.0000000e+00 1.0000000e+00 1.0000000e+01 
4.0000000e+00 3.0000000e+00 0.0000000e+00 
3.0000000e+00 3.0000000e+00 0.0000000e+00 
2.0000000e+00 3.0000000e+00 0.0000000e+00 
4.0000000e+00 3.0000000e+00 1.0000000e+01 
3.0000000e+00 3.0000000e+00 1.0000000e+01 
2.0000000e+00 3.0000000e+00 1.0000000e+01 
4.0618000e+00 1.5000000e+00 0.0000000e+00 
1.5046000e+00 7.6549745e-01 0.0000000e+00 
2.5000000e+00 2.1339746e+00 0.0000000e+00 
1.5046000e+00 2.2345026e+00 0.0000000e+00 
2.4957771e+00 8.1560516e-01 0.0000000e+00 
3.4707544e+00 2.2336540e+00 0.0000000e+00 
3.4700506e+00 7.5794268e-01 0.0000000e+00 
8.6322361e-01 1.5000000e+00 0.0000000e+00 
2.0000000e+00 1.5000000e+00 0.0000000e+00 
2.9960666e+00 1.4974480e+00 0.0000000e+00 
4.2679491e+00 7.3205084e-01 0.0000000e+00 
4.2679491e+00 2.2679491e+00 0.0000000e+00 
7.2695929e-01 2.2730408e+00 0.0000000e+00 
7.2695929e-01 7.2695929e-01 0.0000000e+00 
4.1822505e+00 0.0000000e+00 2.5515697e+00 
4.2017918e+00 0.0000000e+00 4.4725966e+00 
4.1114569e+00 0.0000000e+00 6.5092020e+00 
8.6602539e-01 0.0000000e+00 3.5000000e+00 
8.4778279e-01 0.0000000e+00 5.4684029e+00 
8.9629614e-01 0.0000000e+00 7.5867257e+00 
2.5566745e+00 0.0000000e+00 8.1853306e-01 
2.4918270e+00 0.0000000e+00 9.1386929e+00 
8.4677207e-01 0.0000000e+00 1.5042374e+00 
4.0943027e+00 0.0000000e+00 8.4081745e+00 
8.6281651e-01 0.0000000e+00 2.5007062e+00 
1.7315160e+00 0.0000000e+00 3.0001178e+00 
1.7319617e+00 0.0000000e+00 4.0000196e+00 
2.5980761e+00 0.0000000e+00 3.5000000e+00 
2.5536871e+00 0.0000000e+00 4.4963923e+00 
2.5928419e+00 0.0000000e+00 2.4239938e+00 
1.5037409e+00 0.0000000e+00 9.1535149e+00 
1.8433737e+00 0.0000000e+00 8.1858873e+00 
3.0000000e+00 0.0000000e+00 8.2679491e+00 
2.5000000e+00 0.0000000e+00 7.4019237e+00 
3.5042722e+00 0.0000000e+00 7.4271150e+00 
3.0310018e+00 0.0000000e+00 6.5282087e+00 
2.0373929e+00 0.0000000e+00 6.5307913e+00 
3.4767809e+00 0.0000000e+00 5.8031492e+00 
2.5452602e+00 0.0000000e+00 5.5720768e+00 
1.6456656e+00 0.0000000e+00 1.9697139e+00 
8.6297011e-01 0.0000000e+00 4.4947371e+00 
1.0111579e+00 0.0000000e+00 6.5282545e+00 
3.4994321e+00 0.0000000e+00 8.4691072e-01 
4.1860156e+00 0.0000000e+00 3.5040276e+00 
1.7320508e+00 0.0000000e+00 5.0000000e+00 
4.0544066e+00 0.0000000e+00 1.5781221e+00 
1.5817389e+00 0.0000000e+00 9.3943578e-01 
8.3166349e-01 0.0000000e+00 8.5090933e+00 
3.4686174e+00 0.0000000e+00 9.1752682e+00 
3.0709300e+00 0.0000000e+00 1.5799091e+00 
3.3927374e+00 0.0000000e+00 3.0399952e+00 
3.3826034e+00 0.0000000e+00 3.9747651e+00 
4.3420062e+00 0.0000000e+00 7.4688983e+00 
3.4023225e+00 0.0000000e+00 4.9314723e+00 
1.6740381e+00 0.0000000e+00 7.3014426e+00 
4.2715640e+00 0.0000000e+00 5.4758859e+00 
1.6225953e+00 0.0000000e+00 5.8104177e+00 
4.2679491e+00 0.0000000e+00 9.2679491e+00 
7.3205084e-01 0.0000000e+00 7.3205084e-01 
4.2679491e+00 0.0000000e+00 7.3205084e-01 
7.3205084e-01 0.0000000e+00 9.2679491e+00 
3.4586334e+00 0.0000000e+00 2.2347178e+00 
2.2895701e+00 0.0000000e+00 1.5463171e+00 
5.0000000e+00 2.2345026e+00 1.5046000e+00 
[...]
POINT_DATA 460
FIELD FieldData 2
DISPLACEMENT 3 460  float
0.0000000e+00 0.0000000e+00 0.0000000e+00 
0.0000000e+00 0.0000000e+00 0.0000000e+00 
0.0000000e+00 5.4258411e-08 0.0000000e+00 
0.0000000e+00 4.3116923e-08 0.0000000e+00 
0.0000000e+00 0.0000000e+00 0.0000000e+00 
0.0000000e+00 0.0000000e+00 0.0000000e+00 
0.0000000e+00 -4.4265626e-06 0.0000000e+00 
0.0000000e+00 -1.0424619e-04 0.0000000e+00 
0.0000000e+00 3.2851599e-08 0.0000000e+00 
0.0000000e+00 3.2205453e-08 0.0000000e+00 
0.0000000e+00 3.0288991e-08 0.0000000e+00 
0.0000000e+00 2.7261519e-08 0.0000000e+00 
0.0000000e+00 2.3526837e-08 0.0000000e+00 
0.0000000e+00 1.9805421e-08 0.0000000e+00 
0.0000000e+00 1.7153278e-08 0.0000000e+00 
0.0000000e+00 1.6881360e-08 0.0000000e+00 
0.0000000e+00 2.0274269e-08 0.0000000e+00 
0.0000000e+00 2.7975277e-08 0.0000000e+00 
0.0000000e+00 3.9215291e-08 0.0000000e+00 
-3.9788195e-09 5.0675951e-08 8.5466558e-09 
-8.8347658e-09 6.2648958e-08 2.4509681e-08 
-9.7790798e-09 7.5548968e-08 4.3300897e-08 
-1.4359336e-08 8.8858023e-08 8.8523038e-08 
-2.7490149e-08 9.7509023e-08 1.7602216e-07 
-3.8302662e-08 8.9256226e-08 3.1435013e-07 
-4.6133138e-08 4.5727152e-08 5.4753752e-07 
-1.8775913e-07 -5.1713076e-08 1.1139819e-06 
-2.3749577e-07 -2.6707031e-07 1.6854642e-06 
-6.8251671e-07 -7.6816497e-07 3.3487070e-06 
-1.3717400e-06 -2.1498413e-06 5.3164813e-06 
-1.7403452e-06 -6.1409082e-06 7.6442129e-06 
-3.8252128e-06 -1.6657037e-05 1.2147002e-05 
-3.1545728e-06 -4.1141186e-05 1.8466222e-05 
-3.2444402e-06 -8.9880079e-05 1.6931224e-05 
-3.0643712e-06 -1.6877735e-04 1.2499234e-05 
-1.5028788e-06 -2.5682335e-04 1.2590863e-05 
-1.6287868e-05 -2.7215274e-04 2.4204955e-06 
-6.1415667e-06 -2.0465130e-04 1.2848637e-05 
0.0000000e+00 -1.3628660e-04 0.0000000e+00 
0.0000000e+00 -7.5980235e-05 0.0000000e+00 
0.0000000e+00 -3.3222273e-05 0.0000000e+00 
0.0000000e+00 -7.3249566e-06 0.0000000e+00 
0.0000000e+00 5.4308985e-06 0.0000000e+00 
0.0000000e+00 9.6137610e-06 0.0000000e+00 
0.0000000e+00 9.1928805e-06 0.0000000e+00 
0.0000000e+00 7.0589545e-06 0.0000000e+00 
0.0000000e+00 5.0662256e-06 0.0000000e+00 
0.0000000e+00 4.2690344e-06 0.0000000e+00 
0.0000000e+00 3.3073260e-08 0.0000000e+00 
0.0000000e+00 3.2379937e-08 0.0000000e+00 
0.0000000e+00 3.0345124e-08 0.0000000e+00 
0.0000000e+00 2.7252685e-08 0.0000000e+00 
0.0000000e+00 2.3520908e-08 0.0000000e+00 
0.0000000e+00 1.9814504e-08 0.0000000e+00 
0.0000000e+00 1.7169119e-08 0.0000000e+00 
0.0000000e+00 1.6908031e-08 0.0000000e+00 
0.0000000e+00 2.0327594e-08 0.0000000e+00 
0.0000000e+00 2.8072305e-08 0.0000000e+00 
0.0000000e+00 3.9081360e-08 0.0000000e+00 
0.0000000e+00 5.0668138e-08 0.0000000e+00 
0.0000000e+00 6.2668249e-08 0.0000000e+00 
0.0000000e+00 7.5707725e-08 0.0000000e+00 
0.0000000e+00 8.9125216e-08 0.0000000e+00 
0.0000000e+00 9.7728822e-08 0.0000000e+00 
0.0000000e+00 8.9160118e-08 0.0000000e+00 
0.0000000e+00 4.6653483e-08 0.0000000e+00 
0.0000000e+00 -5.0602825e-08 0.0000000e+00 
0.0000000e+00 -2.5797081e-07 0.0000000e+00 
0.0000000e+00 -7.3981317e-07 0.0000000e+00 
0.0000000e+00 -2.0890886e-06 0.0000000e+00 
0.0000000e+00 -6.0226726e-06 0.0000000e+00 
0.0000000e+00 -1.6514576e-05 0.0000000e+00 
0.0000000e+00 -4.1130461e-05 0.0000000e+00 
0.0000000e+00 -9.0482950e-05 0.0000000e+00 
0.0000000e+00 -1.7071202e-04 0.0000000e+00 
0.0000000e+00 -2.5975792e-04 0.0000000e+00 
0.0000000e+00 -2.7677172e-04 0.0000000e+00 
0.0000000e+00 -2.0815419e-04 0.0000000e+00 
0.0000000e+00 -1.3608311e-04 0.0000000e+00 
0.0000000e+00 -7.6287615e-05 0.0000000e+00 
0.0000000e+00 -3.3357992e-05 0.0000000e+00 
0.0000000e+00 -7.3561928e-06 0.0000000e+00 
0.0000000e+00 5.4514949e-06 0.0000000e+00 
0.0000000e+00 9.6516887e-06 0.0000000e+00 
0.0000000e+00 9.2295095e-06 0.0000000e+00 
0.0000000e+00 7.0872602e-06 0.0000000e+00 
0.0000000e+00 5.0866579e-06 0.0000000e+00 
0.0000000e+00 4.2863039e-06 0.0000000e+00 
0.0000000e+00 0.0000000e+00 0.0000000e+00 
0.0000000e+00 0.0000000e+00 0.0000000e+00 
0.0000000e+00 0.0000000e+00 0.0000000e+00 
0.0000000e+00 0.0000000e+00 0.0000000e+00 
0.0000000e+00 0.0000000e+00 0.0000000e+00 
0.0000000e+00 0.0000000e+00 0.0000000e+00 
0.0000000e+00 0.0000000e+00 0.0000000e+00 
0.0000000e+00 0.0000000e+00 0.0000000e+00 
0.0000000e+00 0.0000000e+00 0.0000000e+00 
0.0000000e+00 0.0000000e+00 0.0000000e+00 
0.0000000e+00 0.0000000e+00 0.0000000e+00 
0.0000000e+00 0.0000000e+00 0.0000000e+00 
0.0000000e+00 0.0000000e+00 0.0000000e+00 
0.0000000e+00 0.0000000e+00 0.0000000e+00 
0.0000000e+00 0.0000000e+00 0.0000000e+00 
0.0000000e+00 0.0000000e+00 0.0000000e+00 
0.0000000e+00 0.0000000e+00 0.0000000e+00 
0.0000000e+00 0.0000000e+00 0.0000000e+00 
0.0000000e+00 0.0000000e+00 0.0000000e+00 
0.0000000e+00 0.0000000e+00 0.0000000e+00 
0.0000000e+00 0.0000000e+00 0.0000000e+00 
0.0000000e+00 0.0000000e+00 0.0000000e+00 
0.0000000e+00 0.0000000e+00 0.0000000e+00 
0.0000000e+00 2.7398759e-08 0.0000000e+00 
0.0000000e+00 4.8546045e-08 0.0000000e+00 
0.0000000e+00 3.8032674e-08 0.0000000e+00 
0.0000000e+00 2.1278577e-08 0.0000000e+00 
0.0000000e+00 0.0000000e+00 0.0000000e+00 
0.0000000e+00 0.0000000e+00 0.0000000e+00 
0.0000000e+00 0.0000000e+00 0.0000000e+00 
0.0000000e+00 0.0000000e+00 0.0000000e+00 
0.0000000e+00 0.0000000e+00 0.0000000e+00 
0.0000000e+00 0.0000000e+00 0.0000000e+00 
0.0000000e+00 0.0000000e+00 0.0000000e+00 
0.0000000e+00 0.0000000e+00 0.0000000e+00 
0.0000000e+00 0.0000000e+00 0.0000000e+00 
0.0000000e+00 0.0000000e+00 0.0000000e+00 
0.0000000e+00 0.0000000e+00 0.0000000e+00 
0.0000000e+00 0.0000000e+00 0.0000000e+00 
0.0000000e+00 0.0000000e+00 0.0000000e+00 
0.0000000e+00 0.0000000e+00 0.0000000e+00 
0.0000000e+00 0.0000000e+00 0.0000000e+00 
0.0000000e+00 0.0000000e+00 0.0000000e+00 
0.0000000e+00 0.0000000e+00 0.0000000e+00 
0.0000000e+00 0.0000000e+00 0.0000000e+00 
0.0000000e+00 0.0000000e+00 0.0000000e+00 
0.0000000e+00 0.0000000e+00 0.0000000e+00 
0.0000000e+00 0.0000000e+00 0.0000000e+00 
0.0000000e+00 0.0000000e+00 0.0000000e+00 
0.0000000e+00 7.0500889e-08 0.0000000e+00 
0.0000000e+00 1.3599157e-07 0.0000000e+00 
0.0000000e+00 2.0010029e-07 0.0000000e+00 
0.0000000e+00 3.3850409e-07 0.0000000e+00 
0.0000000e+00 1.9831992e-07 0.0000000e+00 
0.0000000e+00 7.9675154e-08 0.0000000e+00 
0.0000000e+00 -1.4667199e-06 0.0000000e+00 
0.0000000e+00 -1.8970873e-06 0.0000000e+00 
0.0000000e+00 -4.2642346e-06 0.0000000e+00 
0.0000000e+00 -2.5495306e-06 0.0000000e+00 
0.0000000e+00 -4.1264661e-06 0.0000000e+00 
0.0000000e+00 4.9114586e-08 0.0000000e+00 
0.0000000e+00 6.1274861e-08 0.0000000e+00 
0.0000000e+00 2.8404836e-09 0.0000000e+00 
0.0000000e+00 -5.1641717e-07 0.0000000e+00 
0.0000000e+00 -2.8198051e-06 0.0000000e+00 
0.0000000e+00 -1.0222331e-05 0.0000000e+00 
0.0000000e+00 -3.9302286e-05 0.0000000e+00 
0.0000000e+00 -8.4206513e-05 0.0000000e+00 
0.0000000e+00 -1.1604949e-04 0.0000000e+00 
0.0000000e+00 -8.3880084e-05 0.0000000e+00 
0.0000000e+00 -4.1592568e-05 0.0000000e+00 
0.0000000e+00 5.5249053e-08 0.0000000e+00 
0.0000000e+00 5.6350839e-08 0.0000000e+00 
0.0000000e+00 5.2717446e-08 0.0000000e+00 
0.0000000e+00 -8.4017183e-06 0.0000000e+00 
0.0000000e+00 -2.3460398e-05 0.0000000e+00 
0.0000000e+00 -5.8832265e-05 0.0000000e+00 
0.0000000e+00 3.9799282e-08 0.0000000e+00 
0.0000000e+00 1.9906528e-08 0.0000000e+00 
0.0000000e+00 5.3810027e-08 0.0000000e+00 
0.0000000e+00 4.6410605e-08 0.0000000e+00 
0.0000000e+00 2.4528992e-08 0.0000000e+00 
0.0000000e+00 5.2893313e-08 0.0000000e+00 
0.0000000e+00 2.3473522e-08 0.0000000e+00 
0.0000000e+00 3.5540342e-08 0.0000000e+00 
0.0000000e+00 4.3447073e-08 0.0000000e+00 
0.0000000e+00 4.1546009e-08 0.0000000e+00 
0.0000000e+00 1.7504563e-08 0.0000000e+00 
0.0000000e+00 5.0930055e-08 0.0000000e+00 
0.0000000e+00 4.2398216e-08 0.0000000e+00 
0.0000000e+00 1.5865156e-08 0.0000000e+00 
0.0000000e+00 0.0000000e+00 0.0000000e+00 
0.0000000e+00 0.0000000e+00 0.0000000e+00 
0.0000000e+00 0.0000000e+00 0.0000000e+00 
0.0000000e+00 0.0000000e+00 0.0000000e+00 
0.0000000e+00 0.0000000e+00 0.0000000e+00 
0.0000000e+00 0.0000000e+00 0.0000000e+00 
0.0000000e+00 0.0000000e+00 0.0000000e+00 
0.0000000e+00 0.0000000e+00 0.0000000e+00 
0.0000000e+00 0.0000000e+00 0.0000000e+00 
0.0000000e+00 0.0000000e+00 0.0000000e+00 
0.0000000e+00 0.0000000e+00 0.0000000e+00 
0.0000000e+00 0.0000000e+00 0.0000000e+00 
0.0000000e+00 0.0000000e+00 0.0000000e+00 
0.0000000e+00 0.0000000e+00 0.0000000e+00 
0.0000000e+00 0.0000000e+00 0.0000000e+00 
0.0000000e+00 0.0000000e+00 0.0000000e+00 
0.0000000e+00 0.0000000e+00 0.0000000e+00 
0.0000000e+00 0.0000000e+00 0.0000000e+00 
0.0000000e+00 0.0000000e+00 0.0000000e+00 
0.0000000e+00 0.0000000e+00 0.0000000e+00 
0.0000000e+00 0.0000000e+00 0.0000000e+00 
0.0000000e+00 0.0000000e+00 0.0000000e+00 
0.0000000e+00 0.0000000e+00 0.0000000e+00 
0.0000000e+00 0.0000000e+00 0.0000000e+00 
0.0000000e+00 0.0000000e+00 0.0000000e+00 
0.0000000e+00 0.0000000e+00 0.0000000e+00 
0.0000000e+00 0.0000000e+00 0.0000000e+00 
0.0000000e+00 0.0000000e+00 0.0000000e+00 
0.0000000e+00 0.0000000e+00 0.0000000e+00 
0.0000000e+00 0.0000000e+00 0.0000000e+00 
0.0000000e+00 0.0000000e+00 0.0000000e+00 
0.0000000e+00 0.0000000e+00 0.0000000e+00 
0.0000000e+00 0.0000000e+00 0.0000000e+00 
0.0000000e+00 0.0000000e+00 0.0000000e+00 
0.0000000e+00 0.0000000e+00 0.0000000e+00 
0.0000000e+00 0.0000000e+00 0.0000000e+00 
0.0000000e+00 0.0000000e+00 0.0000000e+00 
0.0000000e+00 0.0000000e+00 0.0000000e+00 
0.0000000e+00 0.0000000e+00 0.0000000e+00 
0.0000000e+00 0.0000000e+00 0.0000000e+00 
0.0000000e+00 0.0000000e+00 0.0000000e+00 
0.0000000e+00 0.0000000e+00 0.0000000e+00 
0.0000000e+00 0.0000000e+00 0.0000000e+00 
0.0000000e+00 0.0000000e+00 0.0000000e+00 
0.0000000e+00 0.0000000e+00 0.0000000e+00 
0.0000000e+00 0.0000000e+00 0.0000000e+00 
0.0000000e+00 0.0000000e+00 0.0000000e+00 
0.0000000e+00 0.0000000e+00 0.0000000e+00 
0.0000000e+00 0.0000000e+00 0.0000000e+00 
0.0000000e+00 9.2604353e-08 0.0000000e+00 
0.0000000e+00 -2.9734883e-06 0.0000000e+00 
0.0000000e+00 2.5588977e-07 0.0000000e+00 
0.0000000e+00 2.2567754e-07 0.0000000e+00 
0.0000000e+00 -1.2859931e-06 0.0000000e+00 
0.0000000e+00 6.7612859e-08 0.0000000e+00 
0.0000000e+00 4.7699242e-08 0.0000000e+00 
0.0000000e+00 -4.3241570e-07 0.0000000e+00 
0.0000000e+00 1.0077600e-07 0.0000000e+00 
0.0000000e+00 8.0239964e-08 0.0000000e+00 
0.0000000e+00 1.5546594e-07 0.0000000e+00 
0.0000000e+00 3.4103732e-07 0.0000000e+00 
0.0000000e+00 5.6509194e-08 0.0000000e+00 
0.0000000e+00 -1.1596596e-06 0.0000000e+00 
0.0000000e+00 3.7268556e-08 0.0000000e+00 
0.0000000e+00 -1.6362876e-06 0.0000000e+00 
0.0000000e+00 -1.8202547e-06 0.0000000e+00 
0.0000000e+00 5.0373224e-08 0.0000000e+00 
0.0000000e+00 1.6219096e-07 0.0000000e+00 
0.0000000e+00 -5.6772024e-07 0.0000000e+00 
0.0000000e+00 8.7908333e-08 0.0000000e+00 
0.0000000e+00 1.0559506e-07 0.0000000e+00 
0.0000000e+00 2.2290891e-07 0.0000000e+00 
0.0000000e+00 1.5035336e-07 0.0000000e+00 
0.0000000e+00 -1.2923501e-06 0.0000000e+00 
0.0000000e+00 -3.1565985e-06 0.0000000e+00 
0.0000000e+00 -1.5425567e-06 0.0000000e+00 
0.0000000e+00 6.0717667e-08 0.0000000e+00 
0.0000000e+00 2.3165612e-08 0.0000000e+00 
0.0000000e+00 -6.5389540e-05 0.0000000e+00 
0.0000000e+00 3.4579593e-08 0.0000000e+00 
0.0000000e+00 1.7483952e-08 0.0000000e+00 
0.0000000e+00 -6.8012457e-07 0.0000000e+00 
0.0000000e+00 -1.9364415e-05 0.0000000e+00 
0.0000000e+00 -1.3799020e-07 0.0000000e+00 
0.0000000e+00 -5.5253226e-06 0.0000000e+00 
0.0000000e+00 -4.8191057e-05 0.0000000e+00 
0.0000000e+00 -9.7154867e-08 0.0000000e+00 
0.0000000e+00 4.5274970e-08 0.0000000e+00 
0.0000000e+00 -1.2134196e-06 0.0000000e+00 
0.0000000e+00 -1.8921153e-05 0.0000000e+00 
0.0000000e+00 -9.7017073e-06 0.0000000e+00 
0.0000000e+00 -9.3353519e-05 0.0000000e+00 
0.0000000e+00 5.1228437e-08 0.0000000e+00 
0.0000000e+00 2.0720993e-08 0.0000000e+00 
0.0000000e+00 -2.6782529e-05 0.0000000e+00 
0.0000000e+00 -2.1842231e-06 0.0000000e+00 
0.0000000e+00 -8.2057059e-06 0.0000000e+00 
0.0000000e+00 -5.5762717e-07 0.0000000e+00 
0.0000000e+00 -2.7225893e-08 0.0000000e+00 
0.0000000e+00 -2.3492019e-05 0.0000000e+00 
0.0000000e+00 -2.4209389e-06 0.0000000e+00 
0.0000000e+00 -4.9746668e-05 0.0000000e+00 
0.0000000e+00 4.2896268e-08 0.0000000e+00 
0.0000000e+00 -3.0446472e-05 0.0000000e+00 
0.0000000e+00 4.3903132e-08 0.0000000e+00 
0.0000000e+00 1.6232301e-08 0.0000000e+00 
0.0000000e+00 -9.8721161e-05 0.0000000e+00 
0.0000000e+00 -2.3999643e-05 0.0000000e+00 
0.0000000e+00 -5.3110043e-06 0.0000000e+00 
0.0000000e+00 -3.4604152e-05 0.0000000e+00 
0.0000000e+00 -8.0040001e-05 0.0000000e+00 
0.0000000e+00 -1.3818753e-05 0.0000000e+00 
0.0000000e+00 -1.2950530e-05 0.0000000e+00 
0.0000000e+00 -6.1595006e-06 0.0000000e+00 
0.0000000e+00 -6.3176514e-05 0.0000000e+00 
0.0000000e+00 -3.7568236e-05 0.0000000e+00 
0.0000000e+00 -1.7090071e-05 0.0000000e+00 
0.0000000e+00 -2.9497294e-06 0.0000000e+00 
0.0000000e+00 -5.8104774e-06 0.0000000e+00 
0.0000000e+00 -1.0366558e-04 0.0000000e+00 
0.0000000e+00 -2.9079774e-05 0.0000000e+00 
-4.9121167e-07 -6.3910949e-07 2.4660874e-06 
-3.4517775e-06 -1.2006773e-05 8.7016060e-06 
-8.1602666e-06 -7.5015007e-05 1.4158165e-05 
-3.9733525e-08 9.4574688e-08 1.5658614e-07 
-1.0079804e-07 1.5578398e-07 5.1969863e-07 
-8.2611922e-07 -7.4845381e-08 9.3224207e-07 
-4.7677624e-08 1.9051355e-07 5.6193493e-08 
-2.6924513e-06 -2.3923355e-06 1.9094582e-06 
-1.2219997e-08 7.5505312e-08 3.6801907e-08 
-1.0688827e-05 -1.2822346e-04 5.6708100e-06 
-9.9130970e-09 7.0020235e-08 7.8766647e-09 
-7.0616770e-06 -1.4661730e-05 7.3306154e-07 
-2.2126937e-06 -1.3496269e-06 1.5293360e-06 
-4.5504685e-06 -5.9252025e-06 4.1956860e-06 
-8.7511062e-06 -9.0508411e-06 5.0562358e-06 
-6.7085311e-06 -1.4123239e-05 4.4884459e-06 
-4.4194853e-06 -8.0527789e-06 4.2626821e-06 
-1.1827907e-05 -2.8157403e-05 5.1205543e-06 
-7.7299710e-06 -2.1726721e-05 1.0611263e-05 
-2.7592837e-06 -2.7141366e-06 3.3125934e-06 
-1.2616689e-06 -8.4403484e-07 1.7429253e-06 
-1.9370918e-06 -2.4852293e-06 2.8999684e-06 
-9.9366207e-07 -6.1328689e-07 2.1251665e-06 
-5.3634466e-07 1.6511115e-07 9.3010925e-07 
-4.3307301e-07 1.3161750e-07 9.9774422e-07 
-2.7121840e-07 1.9798429e-07 4.3844688e-07 
-1.4320381e-07 1.8479955e-07 4.9097173e-07 
-1.0945627e-07 2.0693108e-07 2.3276549e-07 
-1.0882212e-07 1.7613908e-07 2.6517981e-07 
-6.8290007e-08 1.4100266e-07 1.0596127e-07 
-3.6308411e-08 1.2059601e-07 9.6655477e-08 
-1.5896950e-06 -2.1405942e-06 4.3222044e-06 
-2.6674027e-06 -5.5109858e-06 5.0482649e-06 
-2.7545570e-07 7.0199334e-08 7.7414410e-07 
-1.3018735e-07 2.7935869e-07 1.5274144e-07 
-9.0738367e-06 -3.4841647e-05 2.1126568e-06 
-4.8006416e-07 -1.9119861e-07 1.5434314e-06 
-4.5627326e-07 3.8553119e-07 5.8619167e-07 
-1.2116304e-08 8.0481428e-08 2.1556065e-08 
-5.0869671e-06 -5.8277619e-06 1.2878517e-06 
-1.3223188e-05 -3.7486287e-05 1.1678547e-05 
-1.4589997e-05 -5.5539247e-05 1.0093087e-05 
-2.0771818e-06 -4.6223195e-06 5.5769060e-06 
-1.5632283e-08 1.0535504e-07 8.7654177e-09 
-5.6807362e-08 1.2330514e-07 2.7634235e-07 
-1.0697168e-07 1.8119998e-07 3.8325271e-07 
-1.8773234e-07 3.7677907e-08 9.2409465e-07 
-4.4659637e-07 -9.8343662e-08 1.7485879e-06 
-5.5562773e-06 -2.3697859e-05 1.0849226e-05 
-9.6464064e-06 -4.6349967e-05 1.4230233e-05 
-8.2257916e-09 6.0182273e-08 1.3857210e-08 
-1.9943863e-08 9.2910753e-08 7.3548982e-08 
-1.0501657e-05 -1.2163384e-04 6.0694879e-06 
-2.8127682e-08 1.1739105e-07 3.8544989e-08 
-6.8637782e-08 1.3099465e-07 1.9359243e-07 
-1.7817822e-05 -1.0270353e-04 1.1511257e-05 
-5.4212956e-06 -1.2304267e-05 8.1792914e-06 
-2.1283725e-08 8.8668635e-08 5.4924779e-08 
-8.8040292e-07 -2.2201450e-06 3.6632284e-06 
-9.4680927e-06 -1.6324868e-05 3.2257810e-06 
-3.6450349e-06 -6.5033823e-06 6.1264171e-07 
-5.8734813e-09 6.6561249e-08 2.2833020e-09 
-3.3523204e-07 2.2397002e-07 4.7214155e-07 
-3.7401815e-08 1.1786753e-07 1.0346380e-07 
-1.6235588e-05 -6.1866638e-05 6.0848720e-06 
-3.4585134e-06 -5.1118623e-06 4.2597221e-06 
-3.4634674e-08 1.4094331e-07 5.8456465e-08 
-9.5741420e-08 2.1614787e-07 1.7820447e-07 
-1.1650002e-08 7.7471370e-08 2.5139014e-08 
-6.9825563e-07 -1.1278286e-06 2.7152760e-06 
-9.1649772e-06 -6.7199268e-05 3.4042021e-06 
-7.0351311e-09 7.4590233e-08 9.1588134e-08 
-5.1064220e-09 6.4830346e-08 5.0972119e-08 
-3.8034291e-09 3.2226001e-08 1.5646741e-07 
-1.1987950e-08 -1.1787304e-08 2.2728094e-07 
-5.1179105e-09 5.9832821e-08 2.7724770e-08 
-1.3808329e-08 -1.8566271e-07 3.7161698e-07 
-1.1745386e-07 -6.5451007e-07 7.6172961e-07 
-1.4023078e-07 -1.5815992e-06 1.2945945e-06 
-2.9037125e-07 -3.7534535e-06 3.5085257e-06 
-6.4406049e-07 -7.4614309e-06 5.9889144e-06 
-1.0144003e-06 -1.5517860e-05 8.5481670e-06 
-1.5159129e-06 -3.0514462e-05 1.1627624e-05 
-3.1111558e-06 -5.5937380e-05 1.0775131e-05 
-7.2830117e-06 -9.9336517e-05 9.5695250e-06 
-6.8311861e-06 -1.1986821e-04 6.7349638e-06 
-9.4151856e-06 -1.4406528e-04 5.5012883e-06 
-4.3686805e-06 -1.4498070e-04 4.1218032e-06 
-2.5125637e-09 4.8487561e-08 9.0065342e-09 
2.8643792e-09 8.6848573e-08 -2.3359334e-08 
2.6310300e-08 1.0680888e-07 -2.4811376e-07 
7.9350070e-07 -2.4759545e-06 -2.4025828e-06 
4.7688914e-06 -1.7050366e-05 -7.0143360e-06 
1.0185382e-05 -4.5559187e-05 -5.4152483e-06 
1.8131303e-08 1.4592958e-07 -6.9697265e-08 
2.5779033e-07 1.2296528e-07 -4.5883613e-07 
2.1608071e-06 -3.7129751e-06 -2.5613842e-06 
-5.1867172e-08 -3.1697672e-07 -1.9833556e-07 
-5.1249169e-09 1.1041563e-07 6.2798897e-08 
-1.9532251e-09 6.9425148e-08 1.8204810e-08 
6.4887490e-06 -9.5978958e-06 -3.6209190e-06 
-5.5184093e-09 7.9879719e-08 7.4473876e-09 
1.0221663e-06 -1.2353655e-05 -3.3278188e-06 
2.0429218e-06 -6.6278772e-05 -7.9379870e-06 
-2.6494957e-08 1.5721030e-08 1.3561666e-07 
1.0465633e-07 -5.7528101e-08 -1.8111548e-07 
3.5607721e-09 1.8119746e-07 -3.2111815e-09 
4.2917293e-08 -2.3343887e-06 -1.8215286e-07 
9.7095615e-08 -2.5461847e-07 -9.8201804e-07 
-1.4233593e-09 1.0060825e-07 5.1872739e-08 
7.1883528e-07 -2.1209466e-07 -7.4759430e-07 
2.1920987e-06 -1.0905357e-04 -5.2589553e-06 
3.5702661e-09 6.5684503e-08 -6.4606280e-09 
3.8335065e-06 -7.6289839e-06 -9.2777384e-07 
2.0004006e-08 3.9064513e-08 -1.3281358e-07 
9.4537995e-07 -1.0943422e-06 -1.8072784e-06 
1.0322760e-08 7.5327421e-08 -5.6588643e-08 
3.7050022e-08 7.6126192e-08 -2.3757684e-07 
-1.8359362e-08 2.3442203e-07 6.4196371e-08 
9.8052431e-07 -1.4838316e-06 -3.7432065e-07 
1.1049677e-06 -1.1411625e-05 -1.5752586e-06 
1.2271167e-06 -3.2962173e-05 -2.0192988e-06 
3.4415773e-08 -3.3331628e-06 -2.5681609e-07 
8.0309374e-06 -1.7369657e-05 -2.0109308e-06 
5.6023227e-06 -2.9580549e-05 -3.5766870e-06 
-1.7850589e-09 3.9665224e-08 -1.1980228e-08 
4.7202747e-08 2.5893732e-07 -4.9246363e-08 
-2.3711761e-09 3.4834599e-08 -1.0762267e-08 
1.1315254e-06 -6.9790294e-06 -4.6857240e-06 
-2.0037056e-08 -9.4292957e-08 -5.0935415e-07 
7.5246453e-06 -4.3407868e-05 -1.1727212e-06 
5.1060879e-06 -2.5853165e-05 -8.0443242e-06 
-9.0647887e-08 1.5418827e-07 2.5506276e-07 
-7.5186337e-09 9.4635084e-08 3.0286177e-08 
2.2407140e-07 -4.7164292e-07 -2.2912212e-07 
4.7498720e-08 8.5023181e-08 -6.4065794e-08 
5.8768769e-06 -1.3110113e-05 -5.0267854e-06 
-1.4068148e-08 1.5138367e-07 2.2672648e-08 
1.6507710e-07 -1.2494847e-06 -1.5835112e-06 
-6.2196484e-09 1.4760094e-07 6.7965709e-09 
2.8545155e-06 -2.9013131e-06 -1.7247497e-06 
3.4774066e-06 -7.3234398e-05 -1.2480783e-06 
-1.0649014e-07 -8.1663738e-06 7.8222115e-08 
3.0954922e-07 -4.0447667e-06 -2.3001444e-06 
1.9313727e-06 -3.4005261e-06 -3.1564084e-06 
6.5601562e-06 -4.2202002e-05 -2.9937901e-06 
-4.4116089e-09 6.8220238e-08 7.9889890e-09 
-3.5439470e-08 3.7016912e-07 4.5145544e-08 
1.2306847e-07 7.3576444e-08 -1.8078505e-07 
1.4055065e-07 -4.2570488e-07 -2.3701988e-08 
1.4519965e-06 -1.1463956e-06 -1.1445798e-06 
-1.7101867e-08 1.5039191e-07 6.9023699e-08 
-4.7756657e-07 -1.1523164e-04 -2.1293040e-06 
2.2955696e-07 -1.0659042e-07 -6.1027242e-07 
1.8786142e-07 -2.8996722e-06 2.6335334e-07 