# vtk DataFile Version 4.0
vtk output
ASCII
DATASET UNSTRUCTURED_GRID
POINTS 460 float
0.0000000e+00 0.0000000e+00 0.0000000e+00 
5.0000000e+00 0.0000000e+00 0.0000000e+00 
5.0000000e+00 3.0000000e+00 0.0000000e+00 
0.0000000e+00 3.0000000e+00 0.0000000e+00 
0.0000000e+00 0.0000000e+00 1.0000000e+01 
5.0000000e+00 0.0000000e+00 1.0000000e+01 
5.0000000e+00 3.0000000e+00 1.0000000e+01 
0.0000000e+00 3.0000000e+00 1.0000000e+01 
1.0000000e+00 3.0000000e+00 -5.0000000e+00 
1.0000000e+00 3.0000000e+00 -4.5000000e+00 
1.0000000e+00 3.0000000e+00 -4.0000000e+00 
1.0000000e+00 3.0000000e+00 -3.5000000e+00 
1.0000000e+00 3.0000000e+00 -3.0000000e+00 
1.0000000e+00 3.0000000e+00 -2.5000000e+00 
1.0000000e+00 3.0000000e+00 -2.0000000e+00 
1.0000000e+00 3.0000000e+00 -1.5000000e+00 
1.0000000e+00 3.0000000e+00 -1.0000000e+00 
1.0000000e+00 3.0000000e+00 -5.0000000e-01 
1.0000000e+00 3.0000000e+00 0.0000000e+00 
1.0000000e+00 3.0000000e+00 5.0000000e-01 
1.0000000e+00 3.0000000e+00 1.0000000e+00 
1.0000000e+00 3.0000000e+00 1.5000000e+00 
1.0000000e+00 3.0000000e+00 2.0000000e+00 
1.0000000e+00 3.0000000e+00 2.5000000e+00 
1.0000000e+00 3.0000000e+00 3.0000000e+00 
1.0000000e+00 3.0000000e+00 3.5000000e+00 
1.0000000e+00 3.0000000e+00 4.0000000e+00 
1.0000000e+00 3.0000000e+00 4.5000000e+00 
1.0000000e+00 3.0000000e+00 5.0000000e+00 
1.0000000e+00 3.0000000e+00 5.5000000e+00 
1.0000000e+00 3.0000000e+00 6.0000000e+00 
1.0000000e+00 3.0000000e+00 6.5000000e+00 
1.0000000e+00 3.0000000e+00 7.0000000e+00 
1.0000000e+00 3.0000000e+00 7.5000000e+00 
1.0000000e+00 3.0000000e+00 8.0000000e+00 
1.0000000e+00 3.0000000e+00 8.5000000e+00 
1.0000000e+00 3.0000000e+00 9.0000000e+00 
1.0000000e+00 3.0000000e+00 9.5000000e+00 
1.0000000e+00 3.0000000e+00 1.0000000e+01 
1.0000000e+00 3.0000000e+00 1.0500000e+01 
1.0000000e+00 3.0000000e+00 1.1000000e+01 
1.0000000e+00 3.0000000e+00 1.1500000e+01 
1.0000000e+00 3.0000000e+00 1.2000000e+01 
1.0000000e+00 3.0000000e+00 1.2500000e+01 
1.0000000e+00 3.0000000e+00 1.3000000e+01 
1.0000000e+00 3.0000000e+00 1.3500000e+01 
1.0000000e+00 3.0000000e+00 1.4000000e+01 
1.0000000e+00 3.0000000e+00 1.4500000e+01 
1.0000000e+00 3.0250001e+00 -5.0000000e+00 
1.0000000e+00 3.0250001e+00 -4.5000000e+00 
1.0000000e+00 3.0250001e+00 -4.0000000e+00 
1.0000000e+00 3.0250001e+00 -3.5000000e+00 
1.0000000e+00 3.0250001e+00 -3.0000000e+00 
1.0000000e+00 3.0250001e+00 -2.5000000e+00 
1.0000000e+00 3.0250001e+00 -2.0000000e+00 
1.0000000e+00 3.0250001e+00 -1.5000000e+00 
1.0000000e+00 3.0250001e+00 -1.0000000e+00 
1.0000000e+00 3.0250001e+00 -5.0000000e-01 
1.0000000e+00 3.0250001e+00 0.0000000e+00 
1.0000000e+00 3.0250001e+00 5.0000000e-01 
1.0000000e+00 3.0250001e+00 1.0000000e+00 
1.0000000e+00 3.0250001e+00 1.5000000e+00 
1.0000000e+00 3.0250001e+00 2.0000000e+00 
1.0000000e+00 3.0250001e+00 2.5000000e+00 
1.0000000e+00 3.0250001e+00 3.0000000e+00 
1.0000000e+00 3.0250001e+00 3.5000000e+00 
1.0000000e+00 3.0250001e+00 4.0000000e+00 
1.0000000e+00 3.0250001e+00 4.5000000e+00 
1.0000000e+00 3.0250001e+00 5.0000000e+00 
1.0000000e+00 3.0250001e+00 5.5000000e+00 
1.0000000e+00 3.0250001e+00 6.0000000e+00 
1.0000000e+00 3.0250001e+00 6.5000000e+00 
1.0000000e+00 3.0250001e+00 7.0000000e+00 
1.0000000e+00 3.0250001e+00 7.5000000e+00 
1.0000000e+00 3.0250001e+00 8.0000000e+00 
1.0000000e+00 3.0250001e+00 8.5000000e+00 
1.0000000e+00 3.0250001e+00 9.0000000e+00 
1.0000000e+00 3.0250001e+00 9.5000000e+00 
1.0000000e+00 3.0250001e+00 1.0000000e+01 
1.0000000e+00 3.0250001e+00 1.0500000e+01 
1.0000000e+00 3.0250001e+00 1.1000000e+01 
1.0000000e+00 3.0250001e+00 1.1500000e+01 
1.0000000e+00 3.0250001e+00 1.2000000e+01 
1.0000000e+00 3.0250001e+00 1.2500000e+01 
1.0000000e+00 3.0250001e+00 1.3000000e+01 
1.0000000e+00 3.0250001e+00 1.3500000e+01 
1.0000000e+00 3.0250001e+00 1.4000000e+01 
1.0000000e+00 3.0250001e+00 1.4500000e+01 
1.0000000e+00 -2.0000000e+00 -5.0000000e+00 
1.0000000e+00 -2.0000000e+00 -4.5000000e+00 
1.0000000e+00 -2.0000000e+00 -4.0000000e+00 
1.0000000e+00 -2.0000000e+00 -3.5000000e+00 
1.0000000e+00 -2.0000000e+00 -3.0000000e+00 
1.0000000e+00 -2.0000000e+00 -2.5000000e+00 
1.0000000e+00 -2.0000000e+00 -2.0000000e+00 
1.0000000e+00 -2.0000000e+00 -1.5000000e+00 
1.0000000e+00 -2.0000000e+00 -1.0000000e+00 
1.0000000e+00 -2.0000000e+00 -5.0000000e-01 
1.0000000e+00 -2.0000000e+00 1.0500000e+01 
1.0000000e+00 -2.0000000e+00 1.1000000e+01 
1.0000000e+00 -2.0000000e+00 1.1500000e+01 
1.0000000e+00 -2.0000000e+00 1.2000000e+01 
1.0000000e+00 -2.0000000e+00 1.2500000e+01 
1.0000000e+00 -2.0000000e+00 1.3000000e+01 
1.0000000e+00 -2.0000000e+00 1.3500000e+01 
1.0000000e+00 -2.0000000e+00 1.4000000e+01 
1.0000000e+00 -2.0000000e+00 1.4500000e+01 
1.0000000e+00 0.0000000e+00 0.0000000e+00 
2.0000000e+00 0.0000000e+00 0.0000000e+00 
3.0000000e+00 0.0000000e+00 0.0000000e+00 
4.0000000e+00 0.0000000e+00 0.0000000e+00 
5.0000000e+00 1.0000000e+00 0.0000000e+00 
5.0000000e+00 2.0000000e+00 0.0000000e+00 
0.0000000e+00 2.0000000e+00 0.0000000e+00 
0.0000000e+00 1.0000000e+00 0.0000000e+00 
0.0000000e+00 0.0000000e+00 1.0000000e+00 
0.0000000e+00 0.0000000e+00 2.0000000e+00 
0.0000000e+00 0.0000000e+00 3.0000000e+00 
0.0000000e+00 0.0000000e+00 4.0000000e+00 
0.0000000e+00 0.0000000e+00 5.0000000e+00 
0.0000000e+00 0.0000000e+00 6.0000000e+00 
0.0000000e+00 0.0000000e+00 7.0000000e+00 
0.0000000e+00 0.0000000e+00 8.0000000e+00 
0.0000000e+00 0.0000000e+00 9.0000000e+00 
5.0000000e+00 0.0000000e+00 1.0000000e+00 
5.0000000e+00 0.0000000e+00 2.0000000e+00 
5.0000000e+00 0.0000000e+00 3.0000000e+00 
5.0000000e+00 0.0000000e+00 4.0000000e+00 
5.0000000e+00 0.0000000e+00 5.0000000e+00 
5.0000000e+00 0.0000000e+00 6.0000000e+00 
5.0000000e+00 0.0000000e+00 7.0000000e+00 
5.0000000e+00 0.0000000e+00 8.0000000e+00 
5.0000000e+00 0.0000000e+00 9.0000000e+00 
1.0000000e+00 0.0000000e+00 1.0000000e+01 
2.0000000e+00 0.0000000e+00 1.0000000e+01 
3.0000000e+00 0.0000000e+00 1.0000000e+01 
4.0000000e+00 0.0000000e+00 1.0000000e+01 
5.0000000e+00 3.0000000e+00 1.0000000e+00 
5.0000000e+00 3.0000000e+00 2.0000000e+00 
5.0000000e+00 3.0000000e+00 3.0000000e+00 
5.0000000e+00 3.0000000e+00 4.0000000e+00 
5.0000000e+00 3.0000000e+00 5.0000000e+00 
5.0000000e+00 3.0000000e+00 6.0000000e+00 
5.0000000e+00 3.0000000e+00 7.0000000e+00 
5.0000000e+00 3.0000000e+00 8.0000000e+00 
5.0000000e+00 3.0000000e+00 9.0000000e+00 
5.0000000e+00 1.0000000e+00 1.0000000e+01 
5.0000000e+00 2.0000000e+00 1.0000000e+01 
0.0000000e+00 3.0000000e+00 1.0000000e+00 
0.0000000e+00 3.0000000e+00 2.0000000e+00 
0.0000000e+00 3.0000000e+00 3.0000000e+00 
0.0000000e+00 3.0000000e+00 4.0000000e+00 
0.0000000e+00 3.0000000e+00 5.0000000e+00 
0.0000000e+00 3.0000000e+00 6.0000000e+00 
0.0000000e+00 3.0000000e+00 7.0000000e+00 
0.0000000e+00 3.0000000e+00 8.0000000e+00 
0.0000000e+00 3.0000000e+00 9.0000000e+00 
0.0000000e+00 2.0000000e+00 1.0000000e+01 
0.0000000e+00 1.0000000e+00 1.0000000e+01 
4.0000000e+00 3.0000000e+00 0.0000000e+00 
3.0000000e+00 3.0000000e+00 0.0000000e+00 
2.0000000e+00 3.0000000e+00 0.0000000e+00 
4.0000000e+00 3.0000000e+00 1.0000000e+01 
3.0000000e+00 3.0000000e+00 1.0000000e+01 
2.0000000e+00 3.0000000e+00 1.0000000e+01 
4.0618000e+00 1.5000000e+00 0.0000000e+00 
1.5046000e+00 7.6549745e-01 0.0000000e+00 
2.5000000e+00 2.1339746e+00 0.0000000e+00 
1.5046000e+00 2.2345026e+00 0.0000000e+00 
2.4957771e+00 8.1560516e-01 0.0000000e+00 
3.4707544e+00 2.2336540e+00 0.0000000e+00 
3.4700506e+00 7.5794268e-01 0.0000000e+00 
8.6322361e-01 1.5000000e+00 0.0000000e+00 
2.0000000e+00 1.5000000e+00 0.0000000e+00 
2.9960666e+00 1.4974480e+00 0.0000000e+00 
4.2679491e+00 7.3205084e-01 0.0000000e+00 
4.2679491e+00 2.2679491e+00 0.0000000e+00 
7.2695929e-01 2.2730408e+00 0.0000000e+00 
7.2695929e-01 7.2695929e-01 0.0000000e+00 
4.1822505e+00 0.0000000e+00 2.5515697e+00 
4.2017918e+00 0.0000000e+00 4.4725966e+00 
4.1114569e+00 0.0000000e+00 6.5092020e+00 
8.6602539e-01 0.0000000e+00 3.5000000e+00 
8.4778279e-01 0.0000000e+00 5.4684029e+00 
8.9629614e-01 0.0000000e+00 7.5867257e+00 
2.5566745e+00 0.0000000e+00 8.1853306e-01 
2.4918270e+00 0.0000000e+00 9.1386929e+00 
8.4677207e-01 0.0000000e+00 1.5042374e+00 
4.0943027e+00 0.0000000e+00 8.4081745e+00 
8.6281651e-01 0.0000000e+00 2.5007062e+00 
1.7315160e+00 0.0000000e+00 3.0001178e+00 
1.7319617e+00 0.0000000e+00 4.0000196e+00 
2.5980761e+00 0.0000000e+00 3.5000000e+00 
2.5536871e+00 0.0000000e+00 4.4963923e+00 
2.5928419e+00 0.0000000e+00 2.4239938e+00 
1.5037409e+00 0.0000000e+00 9.1535149e+00 
1.8433737e+00 0.0000000e+00 8.1858873e+00 
3.0000000e+00 0.0000000e+00 8.2679491e+00 
2.5000000e+00 0.0000000e+00 7.4019237e+00 
3.5042722e+00 0.0000000e+00 7.4271150e+00 
3.0310018e+00 0.0000000e+00 6.5282087e+00 
2.0373929e+00 0.0000000e+00 6.5307913e+00 
3.4767809e+00 0.0000000e+00 5.8031492e+00 
2.5452602e+00 0.0000000e+00 5.5720768e+00 
1.6456656e+00 0.0000000e+00 1.9697139e+00 
8.6297011e-01 0.0000000e+00 4.4947371e+00 
1.0111579e+00 0.0000000e+00 6.5282545e+00 
3.4994321e+00 0.0000000e+00 8.4691072e-01 
4.1860156e+00 0.0000000e+00 3.5040276e+00 
1.7320508e+00 0.0000000e+00 5.0000000e+00 
4.0544066e+00 0.0000000e+00 1.5781221e+00 
1.5817389e+00 0.0000000e+00 9.3943578e-01 
8.3166349e-01 0.0000000e+00 8.5090933e+00 
3.4686174e+00 0.0000000e+00 9.1752682e+00 
3.0709300e+00 0.0000000e+00 1.5799091e+00 
3.3927374e+00 0.0000000e+00 3.0399952e+00 
3.3826034e+00 0.0000000e+00 3.9747651e+00 
4.3420062e+00 0.0000000e+00 7.4688983e+00 
3.4023225e+00 0.0000000e+00 4.9314723e+00 
1.6740381e+00 0.0000000e+00 7.3014426e+00 
4.2715640e+00 0.0000000e+00 5.4758859e+00 
1.6225953e+00 0.0000000e+00 5.8104177e+00 
4.2679491e+00 0.0000000e+00 9.2679491e+00 
7.3205084e-01 0.0000000e+00 7.3205084e-01 
4.2679491e+00 0.0000000e+00 7.3205084e-01 
7.3205084e-01 0.0000000e+00 9.2679491e+00 
3.4586334e+00 0.0000000e+00 2.2347178e+00 
2.2895701e+00 0.0000000e+00 1.5463171e+00 
5.0000000e+00 2.2345026e+00 1.5046000e+00 
[...]
POINT_DATA 460
FIELD FieldData 2
DISPLACEMENT 3 460  float
0.0000000e+00 0.0000000e+00 0.0000000e+00 
0.0000000e+00 0.0000000e+00 0.0000000e+00 
0.0000000e+00 1.6570704e-08 0.0000000e+00 
0.0000000e+00 6.7456307e-09 0.0000000e+00 
0.0000000e+00 0.0000000e+00 0.0000000e+00 
0.0000000e+00 0.0000000e+00 0.0000000e+00 
0.0000000e+00 -2.8691409e-06 0.0000000e+00 
0.0000000e+00 -7.1945309e-05 0.0000000e+00 
0.0000000e+00 3.4249585e-08 0.0000000e+00 
0.0000000e+00 3.4052057e-08 0.0000000e+00 
0.0000000e+00 3.3293787e-08 0.0000000e+00 
0.0000000e+00 3.1778136e-08 0.0000000e+00 
0.0000000e+00 2.9413409e-08 0.0000000e+00 
0.0000000e+00 2.6236465e-08 0.0000000e+00 
0.0000000e+00 2.2419071e-08 0.0000000e+00 
0.0000000e+00 1.8266977e-08 0.0000000e+00 
0.0000000e+00 1.4192634e-08 0.0000000e+00 
0.0000000e+00 1.0627066e-08 0.0000000e+00 
0.0000000e+00 7.9377065e-09 0.0000000e+00 
-1.1984029e-09 5.9210148e-09 -7.0101214e-10 
-2.2322777e-09 5.2768057e-09 -2.1879250e-09 
-2.6605609e-09 8.2062872e-09 -4.2178101e-09 
-3.9352903e-09 1.9325620e-08 -9.3104706e-09 
-4.0699071e-09 4.1966537e-08 -1.0872599e-08 
-4.1685522e-09 7.6432457e-08 -6.7287678e-09 
-4.0067381e-09 1.1385166e-07 1.3874175e-08 
-1.3827693e-08 1.3193836e-07 8.4273779e-08 
-3.1733840e-08 9.7048357e-08 1.8315194e-07 
-9.7024305e-08 -1.4220677e-08 4.6076460e-07 
-1.7211296e-07 -1.8309321e-07 8.0319302e-07 
-2.7745409e-07 -3.1109144e-07 1.3539923e-06 
-7.7008656e-07 -2.8113115e-07 2.3241637e-06 
-1.3138315e-06 -1.4895677e-07 3.3505319e-06 
-2.1477704e-06 -9.6525093e-07 5.4853535e-06 
-2.7535650e-06 -6.1370929e-06 7.9654928e-06 
-4.2630231e-06 -2.3912326e-05 1.7863267e-05 
-6.7553187e-06 -6.8708418e-05 1.5697451e-05 
-5.6126137e-06 -1.6119824e-04 -7.2778325e-06 
0.0000000e+00 -3.1038685e-04 0.0000000e+00 
0.0000000e+00 -4.9158162e-04 0.0000000e+00 
0.0000000e+00 -5.7244900e-04 0.0000000e+00 
0.0000000e+00 -4.9997290e-04 0.0000000e+00 
0.0000000e+00 -3.5581851e-04 0.0000000e+00 
0.0000000e+00 -2.1062170e-04 0.0000000e+00 
0.0000000e+00 -9.5575910e-05 0.0000000e+00 
0.0000000e+00 -1.8458872e-05 0.0000000e+00 
0.0000000e+00 2.3819266e-05 0.0000000e+00 
0.0000000e+00 3.6905290e-05 0.0000000e+00 
0.0000000e+00 3.4437452e-08 0.0000000e+00 
0.0000000e+00 3.4198020e-08 0.0000000e+00 
0.0000000e+00 3.3342385e-08 0.0000000e+00 
0.0000000e+00 3.1780470e-08 0.0000000e+00 
0.0000000e+00 2.9423319e-08 0.0000000e+00 
0.0000000e+00 2.6257041e-08 0.0000000e+00 
0.0000000e+00 2.2437940e-08 0.0000000e+00 
0.0000000e+00 1.8281529e-08 0.0000000e+00 
0.0000000e+00 1.4207189e-08 0.0000000e+00 
0.0000000e+00 1.0645892e-08 0.0000000e+00 
0.0000000e+00 7.8655642e-09 0.0000000e+00 
0.0000000e+00 5.8727676e-09 0.0000000e+00 
0.0000000e+00 5.1936757e-09 0.0000000e+00 
0.0000000e+00 8.3157463e-09 0.0000000e+00 
0.0000000e+00 1.9493454e-08 0.0000000e+00 
0.0000000e+00 4.2379639e-08 0.0000000e+00 
0.0000000e+00 7.6985359e-08 0.0000000e+00 
0.0000000e+00 1.1429473e-07 0.0000000e+00 
0.0000000e+00 1.3152898e-07 0.0000000e+00 
0.0000000e+00 9.5390931e-08 0.0000000e+00 
0.0000000e+00 -1.7837801e-08 0.0000000e+00 
0.0000000e+00 -1.8615349e-07 0.0000000e+00 
0.0000000e+00 -3.1160823e-07 0.0000000e+00 
0.0000000e+00 -2.5900681e-07 0.0000000e+00 
0.0000000e+00 -8.4995818e-08 0.0000000e+00 
0.0000000e+00 -8.1013900e-07 0.0000000e+00 
0.0000000e+00 -5.9054737e-06 0.0000000e+00 
0.0000000e+00 -2.3606532e-05 0.0000000e+00 
0.0000000e+00 -6.8783549e-05 0.0000000e+00 
0.0000000e+00 -1.6189311e-04 0.0000000e+00 
0.0000000e+00 -3.1498310e-04 0.0000000e+00 
0.0000000e+00 -4.9354078e-04 0.0000000e+00 
0.0000000e+00 -5.7471637e-04 0.0000000e+00 
0.0000000e+00 -5.0194451e-04 0.0000000e+00 
0.0000000e+00 -3.5721887e-04 0.0000000e+00 
0.0000000e+00 -2.1145427e-04 0.0000000e+00 
0.0000000e+00 -9.5964540e-05 0.0000000e+00 
0.0000000e+00 -1.8554259e-05 0.0000000e+00 
0.0000000e+00 2.3882307e-05 0.0000000e+00 
0.0000000e+00 3.7016838e-05 0.0000000e+00 
0.0000000e+00 0.0000000e+00 0.0000000e+00 
0.0000000e+00 0.0000000e+00 0.0000000e+00 
0.0000000e+00 0.0000000e+00 0.0000000e+00 
0.0000000e+00 0.0000000e+00 0.0000000e+00 
0.0000000e+00 0.0000000e+00 0.0000000e+00 
0.0000000e+00 0.0000000e+00 0.0000000e+00 
0.0000000e+00 0.0000000e+00 0.0000000e+00 
0.0000000e+00 0.0000000e+00 0.0000000e+00 
0.0000000e+00 0.0000000e+00 0.0000000e+00 
0.0000000e+00 0.0000000e+00 0.0000000e+00 
0.0000000e+00 0.0000000e+00 0.0000000e+00 
0.0000000e+00 0.0000000e+00 0.0000000e+00 
0.0000000e+00 0.0000000e+00 0.0000000e+00 
0.0000000e+00 0.0000000e+00 0.0000000e+00 
0.0000000e+00 0.0000000e+00 0.0000000e+00 
0.0000000e+00 0.0000000e+00 0.0000000e+00 
0.0000000e+00 0.0000000e+00 0.0000000e+00 
0.0000000e+00 0.0000000e+00 0.0000000e+00 
0.0000000e+00 0.0000000e+00 0.0000000e+00 
0.0000000e+00 0.0000000e+00 0.0000000e+00 
0.0000000e+00 0.0000000e+00 0.0000000e+00 
0.0000000e+00 0.0000000e+00 0.0000000e+00 
0.0000000e+00 0.0000000e+00 0.0000000e+00 
0.0000000e+00 8.2164719e-09 0.0000000e+00 
0.0000000e+00 1.4273511e-08 0.0000000e+00 
0.0000000e+00 5.6605782e-09 0.0000000e+00 
0.0000000e+00 3.5194490e-09 0.0000000e+00 
0.0000000e+00 0.0000000e+00 0.0000000e+00 
0.0000000e+00 0.0000000e+00 0.0000000e+00 
0.0000000e+00 0.0000000e+00 0.0000000e+00 
0.0000000e+00 0.0000000e+00 0.0000000e+00 
0.0000000e+00 0.0000000e+00 0.0000000e+00 
0.0000000e+00 0.0000000e+00 0.0000000e+00 
0.0000000e+00 0.0000000e+00 0.0000000e+00 
0.0000000e+00 0.0000000e+00 0.0000000e+00 
0.0000000e+00 0.0000000e+00 0.0000000e+00 
0.0000000e+00 0.0000000e+00 0.0000000e+00 
0.0000000e+00 0.0000000e+00 0.0000000e+00 
0.0000000e+00 0.0000000e+00 0.0000000e+00 
0.0000000e+00 0.0000000e+00 0.0000000e+00 
0.0000000e+00 0.0000000e+00 0.0000000e+00 
0.0000000e+00 0.0000000e+00 0.0000000e+00 
0.0000000e+00 0.0000000e+00 0.0000000e+00 
0.0000000e+00 0.0000000e+00 0.0000000e+00 
0.0000000e+00 0.0000000e+00 0.0000000e+00 
0.0000000e+00 0.0000000e+00 0.0000000e+00 
0.0000000e+00 0.0000000e+00 0.0000000e+00 
0.0000000e+00 0.0000000e+00 0.0000000e+00 
0.0000000e+00 0.0000000e+00 0.0000000e+00 
0.0000000e+00 1.6666503e-08 0.0000000e+00 
0.0000000e+00 2.3841482e-08 0.0000000e+00 
0.0000000e+00 4.7402569e-08 0.0000000e+00 
0.0000000e+00 1.1407557e-07 0.0000000e+00 
0.0000000e+00 1.6478805e-07 0.0000000e+00 
0.0000000e+00 2.0249433e-07 0.0000000e+00 
0.0000000e+00 -3.6716057e-07 0.0000000e+00 
0.0000000e+00 -9.1654761e-07 0.0000000e+00 
0.0000000e+00 -2.5404504e-06 0.0000000e+00 
0.0000000e+00 -1.5416897e-06 0.0000000e+00 
0.0000000e+00 -2.6407417e-06 0.0000000e+00 
0.0000000e+00 4.5273523e-09 0.0000000e+00 
0.0000000e+00 1.1814788e-08 0.0000000e+00 
0.0000000e+00 5.2815409e-08 0.0000000e+00 
0.0000000e+00 8.8668862e-08 0.0000000e+00 
0.0000000e+00 -6.0425144e-08 0.0000000e+00 
0.0000000e+00 -8.8193769e-07 0.0000000e+00 
0.0000000e+00 -3.7951511e-06 0.0000000e+00 
0.0000000e+00 -1.5748365e-05 0.0000000e+00 
0.0000000e+00 -5.2267827e-05 0.0000000e+00 
0.0000000e+00 -6.4650856e-05 0.0000000e+00 
0.0000000e+00 -3.2428346e-05 0.0000000e+00 
0.0000000e+00 1.5647428e-08 0.0000000e+00 
0.0000000e+00 1.3897136e-08 0.0000000e+00 
0.0000000e+00 1.1046843e-08 0.0000000e+00 
0.0000000e+00 -5.1355319e-06 0.0000000e+00 
0.0000000e+00 -1.4002921e-05 0.0000000e+00 
0.0000000e+00 -3.6608657e-05 0.0000000e+00 
0.0000000e+00 1.0862722e-08 0.0000000e+00 
0.0000000e+00 3.6896435e-09 0.0000000e+00 
0.0000000e+00 1.1240285e-08 0.0000000e+00 
0.0000000e+00 8.1738278e-09 0.0000000e+00 
0.0000000e+00 5.2657589e-09 0.0000000e+00 
0.0000000e+00 1.3636155e-08 0.0000000e+00 
0.0000000e+00 5.7795946e-09 0.0000000e+00 
0.0000000e+00 5.3684559e-09 0.0000000e+00 
0.0000000e+00 7.9152391e-09 0.0000000e+00 
0.0000000e+00 9.7838564e-09 0.0000000e+00 
0.0000000e+00 5.6982765e-09 0.0000000e+00 
0.0000000e+00 1.4779900e-08 0.0000000e+00 
0.0000000e+00 6.7055561e-09 0.0000000e+00 
0.0000000e+00 2.9268237e-09 0.0000000e+00 
0.0000000e+00 0.0000000e+00 0.0000000e+00 
0.0000000e+00 0.0000000e+00 0.0000000e+00 
0.0000000e+00 0.0000000e+00 0.0000000e+00 
0.0000000e+00 0.0000000e+00 0.0000000e+00 
0.0000000e+00 0.0000000e+00 0.0000000e+00 
0.0000000e+00 0.0000000e+00 0.0000000e+00 
0.0000000e+00 0.0000000e+00 0.0000000e+00 
0.0000000e+00 0.0000000e+00 0.0000000e+00 
0.0000000e+00 0.0000000e+00 0.0000000e+00 
0.0000000e+00 0.0000000e+00 0.0000000e+00 
0.0000000e+00 0.0000000e+00 0.0000000e+00 
0.0000000e+00 0.0000000e+00 0.0000000e+00 
0.0000000e+00 0.0000000e+00 0.0000000e+00 
0.0000000e+00 0.0000000e+00 0.0000000e+00 
0.0000000e+00 0.0000000e+00 0.0000000e+00 
0.0000000e+00 0.0000000e+00 0.0000000e+00 
0.0000000e+00 0.0000000e+00 0.0000000e+00 
0.0000000e+00 0.0000000e+00 0.0000000e+00 
0.0000000e+00 0.0000000e+00 0.0000000e+00 
0.0000000e+00 0.0000000e+00 0.0000000e+00 
0.0000000e+00 0.0000000e+00 0.0000000e+00 
0.0000000e+00 0.0000000e+00 0.0000000e+00 
0.0000000e+00 0.0000000e+00 0.0000000e+00 
0.0000000e+00 0.0000000e+00 0.0000000e+00 
0.0000000e+00 0.0000000e+00 0.0000000e+00 
0.0000000e+00 0.0000000e+00 0.0000000e+00 
0.0000000e+00 0.0000000e+00 0.0000000e+00 
0.0000000e+00 0.0000000e+00 0.0000000e+00 
0.0000000e+00 0.0000000e+00 0.0000000e+00 
0.0000000e+00 0.0000000e+00 0.0000000e+00 
0.0000000e+00 0.0000000e+00 0.0000000e+00 
0.0000000e+00 0.0000000e+00 0.0000000e+00 
0.0000000e+00 0.0000000e+00 0.0000000e+00 
0.0000000e+00 0.0000000e+00 0.0000000e+00 
0.0000000e+00 0.0000000e+00 0.0000000e+00 
0.0000000e+00 0.0000000e+00 0.0000000e+00 
0.0000000e+00 0.0000000e+00 0.0000000e+00 
0.0000000e+00 0.0000000e+00 0.0000000e+00 
0.0000000e+00 0.0000000e+00 0.0000000e+00 
0.0000000e+00 0.0000000e+00 0.0000000e+00 
0.0000000e+00 0.0000000e+00 0.0000000e+00 
0.0000000e+00 0.0000000e+00 0.0000000e+00 
0.0000000e+00 0.0000000e+00 0.0000000e+00 
0.0000000e+00 0.0000000e+00 0.0000000e+00 
0.0000000e+00 0.0000000e+00 0.0000000e+00 
0.0000000e+00 0.0000000e+00 0.0000000e+00 
0.0000000e+00 0.0000000e+00 0.0000000e+00 
0.0000000e+00 0.0000000e+00 0.0000000e+00 
0.0000000e+00 0.0000000e+00 0.0000000e+00 
0.0000000e+00 1.7668352e-08 0.0000000e+00 
0.0000000e+00 -1.6414981e-06 0.0000000e+00 
0.0000000e+00 6.6932742e-08 0.0000000e+00 
0.0000000e+00 1.9775086e-07 0.0000000e+00 
0.0000000e+00 -5.0935284e-07 0.0000000e+00 
0.0000000e+00 1.3306725e-08 0.0000000e+00 
0.0000000e+00 4.4756199e-08 0.0000000e+00 
0.0000000e+00 -1.9412447e-08 0.0000000e+00 
0.0000000e+00 3.0189057e-08 0.0000000e+00 
0.0000000e+00 8.2592919e-08 0.0000000e+00 
0.0000000e+00 2.7206660e-08 0.0000000e+00 
0.0000000e+00 1.3840338e-07 0.0000000e+00 
0.0000000e+00 2.0574335e-07 0.0000000e+00 
0.0000000e+00 -3.2939448e-07 0.0000000e+00 
0.0000000e+00 7.4426922e-09 0.0000000e+00 
0.0000000e+00 -7.5886328e-07 0.0000000e+00 
0.0000000e+00 -1.0264432e-06 0.0000000e+00 
0.0000000e+00 1.2186069e-08 0.0000000e+00 
0.0000000e+00 1.2144270e-07 0.0000000e+00 
0.0000000e+00 -1.8779236e-08 0.0000000e+00 
0.0000000e+00 1.5497216e-08 0.0000000e+00 
0.0000000e+00 1.7284715e-07 0.0000000e+00 
0.0000000e+00 7.5546893e-08 0.0000000e+00 
0.0000000e+00 3.4332015e-08 0.0000000e+00 
0.0000000e+00 -5.6486084e-07 0.0000000e+00 
0.0000000e+00 -2.0412369e-06 0.0000000e+00 
0.0000000e+00 -8.3341666e-07 0.0000000e+00 
0.0000000e+00 1.5633855e-08 0.0000000e+00 
0.0000000e+00 6.1641803e-09 0.0000000e+00 
0.0000000e+00 -3.2695174e-05 0.0000000e+00 
0.0000000e+00 3.2375338e-09 0.0000000e+00 
0.0000000e+00 9.6154338e-09 0.0000000e+00 
0.0000000e+00 1.0421746e-08 0.0000000e+00 
0.0000000e+00 -4.6782707e-06 0.0000000e+00 
0.0000000e+00 6.9890383e-08 0.0000000e+00 
0.0000000e+00 -3.6278973e-07 0.0000000e+00 
0.0000000e+00 -9.0551048e-06 0.0000000e+00 
0.0000000e+00 2.6015879e-08 0.0000000e+00 
0.0000000e+00 2.2737714e-08 0.0000000e+00 
0.0000000e+00 6.0491978e-08 0.0000000e+00 
0.0000000e+00 -1.9816755e-06 0.0000000e+00 
0.0000000e+00 -1.0503859e-06 0.0000000e+00 
0.0000000e+00 -2.8937669e-05 0.0000000e+00 
0.0000000e+00 4.0966195e-09 0.0000000e+00 
0.0000000e+00 3.3452163e-09 0.0000000e+00 
0.0000000e+00 -9.8938099e-06 0.0000000e+00 
0.0000000e+00 -4.1393875e-08 0.0000000e+00 
0.0000000e+00 -1.2175137e-06 0.0000000e+00 
0.0000000e+00 4.0450431e-08 0.0000000e+00 
0.0000000e+00 3.1392332e-08 0.0000000e+00 
0.0000000e+00 -3.7991554e-06 0.0000000e+00 
0.0000000e+00 -1.5572847e-07 0.0000000e+00 
0.0000000e+00 -1.3245849e-05 0.0000000e+00 
0.0000000e+00 7.3589663e-09 0.0000000e+00 
0.0000000e+00 -1.5751802e-05 0.0000000e+00 
0.0000000e+00 4.5818846e-09 0.0000000e+00 
0.0000000e+00 2.0603441e-09 0.0000000e+00 
0.0000000e+00 -5.7994846e-05 0.0000000e+00 
0.0000000e+00 -1.7845785e-05 0.0000000e+00 
0.0000000e+00 -3.3444535e-06 0.0000000e+00 
0.0000000e+00 -2.2755346e-05 0.0000000e+00 
0.0000000e+00 -8.1259415e-05 0.0000000e+00 
0.0000000e+00 -9.6676613e-06 0.0000000e+00 
0.0000000e+00 -8.7824583e-06 0.0000000e+00 
0.0000000e+00 -4.1644412e-06 0.0000000e+00 
0.0000000e+00 -6.0626880e-05 0.0000000e+00 
0.0000000e+00 -3.0885425e-05 0.0000000e+00 
0.0000000e+00 -1.1037187e-05 0.0000000e+00 
0.0000000e+00 -1.8274582e-06 0.0000000e+00 
0.0000000e+00 -3.8568332e-06 0.0000000e+00 
0.0000000e+00 -1.1449270e-04 0.0000000e+00 
0.0000000e+00 -2.6180238e-05 0.0000000e+00 
-4.8760512e-08 1.9697384e-07 2.9797928e-07 
-5.0484840e-07 -6.5313878e-07 1.7216162e-06 
-2.6302941e-06 -7.1123859e-06 6.2571166e-06 
-3.4291174e-09 2.7949396e-08 -1.1123680e-08 
-8.6002734e-09 9.6240953e-08 1.0273703e-08 
-1.4711449e-07 2.0645936e-07 2.3814748e-07 
-4.5509241e-10 3.8259046e-08 -4.5755870e-09 
-8.4110189e-07 -6.6668792e-07 1.0818482e-06 
-2.7526519e-09 8.6470395e-09 -3.4968128e-09 
-6.4507153e-06 -3.7728041e-05 1.2921258e-05 
-1.4215257e-09 1.5017410e-08 -1.6542122e-09 
-3.7899574e-06 -8.1967446e-06 1.4079375e-06 
-5.4575202e-07 -1.0071446e-07 7.1095303e-07 
-1.1461668e-06 -9.0141248e-07 1.9015773e-06 
-2.7545223e-06 -3.1971638e-06 3.4234458e-06 
-1.9527131e-06 -2.6843418e-06 2.5403949e-06 
-8.9398924e-07 -9.1825194e-07 1.5276048e-06 
-4.2474826e-06 -9.5821388e-06 4.3015220e-06 
-1.3929621e-06 -1.9076595e-06 3.3582326e-06 
-4.5171501e-07 -1.1443770e-07 1.0714166e-06 
-1.9639359e-07 1.2585095e-07 4.2837422e-07 
-2.4237869e-07 2.3755918e-08 7.0060810e-07 
-8.7349619e-08 2.2277919e-07 3.4543743e-07 
-5.0220290e-08 2.1721925e-07 1.2790611e-07 
-3.3469284e-08 1.8682312e-07 1.0050926e-07 
-1.7673200e-08 1.0966345e-07 3.0370582e-08 
-4.2053192e-09 9.8692333e-08 1.9736742e-08 
-3.0813210e-09 6.7017048e-08 -2.3547746e-09 
-5.2848308e-09 4.8928136e-08 -2.0149182e-09 
-2.2253581e-09 3.1589632e-08 -9.0257837e-09 
-2.4496298e-09 1.9690567e-08 -5.8749676e-09 
-1.6961610e-07 1.7354543e-07 7.2776072e-07 
-3.6347888e-07 -1.5710445e-07 1.0845644e-06 
-2.1636334e-08 1.2889761e-07 3.7428563e-08 
-3.9813819e-09 8.7925436e-08 2.3588185e-09 
-5.3541335e-06 -1.8474700e-05 2.9612240e-06 
-2.5708662e-08 2.2213808e-07 1.7313101e-07 
-6.0477973e-08 1.9618405e-07 1.0639701e-07 
-1.8551246e-09 1.3192975e-08 -1.3950140e-09 
-2.1894919e-06 -2.8249140e-06 1.3701201e-06 
-2.7983074e-06 -5.5375035e-06 5.4780508e-06 
-3.9531069e-06 -1.3567258e-05 6.1817859e-06 
-2.7587183e-07 -5.0136446e-09 9.8103817e-07 
-1.8533781e-10 1.9574268e-08 -2.3188851e-09 
-4.2628803e-09 5.1170822e-08 -8.1625604e-09 
-5.2259890e-09 7.5321758e-08 -5.0292792e-10 
-1.5247476e-08 1.2579572e-07 5.8468608e-08 
-4.0806682e-08 1.7594158e-07 1.7408149e-07 
-9.8677629e-07 -1.3362944e-06 2.7374344e-06 
-1.7117263e-06 -3.9100141e-06 4.8898851e-06 
-1.8961468e-09 8.0864488e-09 -1.1677009e-09 
-2.7876288e-09 1.4989604e-08 -6.7572099e-09 
-5.0644967e-06 -6.7726643e-05 7.9276406e-06 
-1.9103568e-09 1.8132985e-08 -3.6643684e-09 
-3.8382404e-09 3.8618722e-08 -1.1942464e-08 
-4.4172584e-06 -1.8884779e-05 1.0378768e-05 
-8.5547509e-07 -9.7385634e-07 2.1547414e-06 
-2.6144404e-09 1.3670995e-08 -5.1360343e-09 
-9.4317969e-08 7.6536786e-08 5.3470814e-07 
-4.0640498e-06 -7.1374884e-06 3.3207652e-06 
-1.8626820e-06 -3.8371281e-06 7.8098725e-07 
-6.0994143e-10 1.6462694e-08 -6.9823480e-10 
-2.4522654e-08 1.3707297e-07 4.4485173e-08 
-2.7594487e-09 2.0295195e-08 -8.5601046e-09 
-7.2321382e-06 -2.6574171e-05 8.1168509e-06 
-5.4526060e-07 -2.0812116e-07 1.2541618e-06 
-1.0995634e-09 2.5229015e-08 -3.8248440e-09 
-2.3675013e-09 5.6846233e-08 1.5001539e-09 
-2.0332152e-09 1.0781378e-08 -1.7839759e-09 
-6.3763501e-08 1.7641479e-07 3.7339768e-07 
-6.9646876e-06 -3.7017926e-05 6.5824916e-06 
-2.3235496e-09 2.0952307e-08 -7.4197350e-09 
-2.6703559e-09 1.0524725e-08 -5.6337979e-09 
-2.5558153e-09 4.3983377e-08 -9.6730384e-09 
-1.9918940e-09 7.3870631e-08 -5.3315663e-09 
-1.9138529e-09 6.1439649e-09 -2.7915532e-09 
-1.8879098e-09 1.0445069e-07 1.3519369e-08 
-1.2043183e-08 1.0279593e-07 6.4587361e-08 
-1.7202511e-08 6.0752242e-08 1.5698410e-07 
-7.0360699e-08 -1.4468634e-07 5.5741714e-07 
-1.6748601e-07 -3.2264015e-07 1.1349555e-06 
-3.1931884e-07 -1.0074059e-06 1.7458067e-06 
-4.1670918e-07 -2.1038038e-06 2.7387653e-06 
-5.9567299e-07 -4.2639258e-06 4.1360513e-06 
-1.2315102e-06 -1.0375821e-05 5.7627699e-06 
-1.7204583e-06 -2.2036935e-05 8.8931647e-06 
-1.7653872e-06 -4.5834637e-05 9.7682569e-06 
-3.0649717e-06 -9.3651528e-05 6.6404227e-06 
-9.7805897e-10 6.1705308e-09 -8.5377089e-10 
9.6208186e-10 1.5022032e-08 -3.4848463e-10 
1.1766471e-09 8.7892303e-08 -2.5791532e-08 
6.9446280e-08 1.0467500e-07 -4.5567427e-07 
6.5749276e-07 -2.4129449e-06 -2.1522717e-06 
2.6610305e-06 -1.6155438e-05 -6.0621364e-06 
9.5581132e-10 3.1319654e-08 -3.4012257e-09 
3.2112730e-08 1.1183396e-07 -7.2135030e-08 
2.8885026e-07 -1.8388452e-07 -7.4799453e-07 
-1.9426848e-08 1.8602896e-07 -3.9770310e-08 
-2.6993308e-10 4.3514213e-08 2.2953649e-10 
1.9820569e-10 6.7591599e-09 -1.3405843e-10 
1.6528006e-06 -2.2082097e-06 -2.2082024e-06 
4.8093024e-10 1.1250270e-08 3.5309092e-11 
6.2998154e-08 -6.5386786e-07 -4.2543135e-07 
1.5110469e-07 -8.0955388e-06 -2.9206228e-06 
-5.1553775e-09 1.1783941e-07 5.7683630e-10 
1.6454489e-08 2.0112756e-07 -2.4235705e-08 
2.1173321e-09 4.4914128e-08 -4.2667084e-10 
-1.9365800e-09 1.3437675e-07 -1.5365799e-08 
-1.4596901e-08 1.1411802e-07 -1.4369348e-07 
-6.7790673e-10 1.6931255e-08 -1.2776796e-09 
1.1053651e-07 1.1611798e-07 -1.8025480e-07 
1.7060132e-06 -3.6689256e-05 -9.4178040e-06 
4.3921994e-10 1.1774661e-08 6.7484507e-10 
1.3815265e-06 -3.8751864e-06 -7.3521409e-07 
1.8802195e-09 2.3895474e-08 -7.2527779e-09 
1.1878727e-07 3.7632109e-08 -4.0099016e-07 
6.2429095e-10 1.4565768e-08 -3.0856120e-09 
-1.0754814e-09 3.5120401e-08 -2.7086783e-08 
1.8408834e-09 9.4690542e-08 4.1141721e-09 
1.9681897e-07 -1.1148744e-07 -1.5879476e-07 
-1.4600430e-07 -1.2799550e-06 -3.0697529e-07 
-2.9864844e-07 -2.0457112e-06 1.7395326e-08 
-5.8127654e-08 7.2720958e-08 1.5826364e-09 
2.8377842e-06 -8.5362872e-06 -2.1222520e-06 
2.3467034e-07 -6.3100383e-06 -1.8217314e-06 
5.6573513e-10 5.6976228e-09 -4.4533285e-10 
8.0673788e-09 6.9935084e-08 -2.6541540e-09 
6.6334843e-10 3.0646261e-09 2.6141594e-10 
1.6432728e-07 -6.7186977e-07 -1.1180923e-06 
-1.1921864e-08 8.0761829e-08 -6.7013069e-08 
2.5577579e-06 -2.2290422e-05 -1.8104192e-06 
8.2639525e-07 -5.4165830e-06 -4.5683319e-06 
-4.7260071e-09 1.4949659e-07 1.3216339e-08 
-3.3441368e-11 1.1586837e-08 9.2042408e-11 
2.1108566e-08 2.3270496e-07 -3.9962540e-08 
4.6787556e-09 2.2782132e-08 -3.2305127e-09 
1.4689257e-06 -3.0498777e-06 -2.6580990e-06 
2.1678725e-11 2.2911031e-08 -2.2673569e-10 
4.3562847e-09 2.6742113e-08 -2.5872018e-07 
8.4253576e-11 2.5277652e-08 9.1877661e-10 
7.3062034e-07 -6.9421145e-07 -9.4265675e-07 
2.8719012e-07 -1.8108880e-05 -1.3276029e-06 
-1.3708760e-07 -3.2847453e-07 1.6740761e-07 
2.3698137e-08 -3.6745995e-08 -3.3938466e-07 
2.4734442e-07 -2.9518563e-07 -8.7337474e-07 
2.3474347e-06 -1.8395371e-05 -6.1325827e-06 
4.8674446e-11 1.3449322e-08 4.7012910e-10 
-3.5259884e-09 1.4649912e-07 1.1676996e-08 
1.3740155e-08 4.3276618e-08 -3.0273910e-08 
-9.6802895e-09 2.3358197e-07 3.6955385e-08 
2.9981285e-07 -7.0676023e-08 -4.3238191e-07 
-2.8892855e-10 2.6238174e-08 -5.3951316e-10 
-7.5887732e-07 -1.7549486e-05 -1.5565432e-06 
2.1629390e-08 5.3400424e-08 -9.5754785e-08 
-9.4057576e-08 -1.0945503e-06 2.5911282e-07 