# vtk DataFile Version 4.0
vtk output
ASCII
DATASET UNSTRUCTURED_GRID
POINTS 189 float
0.0000000e+00 0.0000000e+00 0.0000000e+00 
5.0000000e+00 0.0000000e+00 0.0000000e+00 
5.0000000e+00 1.0000000e+00 0.0000000e+00 
0.0000000e+00 1.0000000e+00 0.0000000e+00 
0.0000000e+00 0.0000000e+00 1.0000000e+01 
5.0000000e+00 0.0000000e+00 1.0000000e+01 
5.0000000e+00 1.0000000e+00 1.0000000e+01 
0.0000000e+00 1.0000000e+00 1.0000000e+01 
1.0000000e+00 0.0000000e+00 0.0000000e+00 
2.0000000e+00 0.0000000e+00 0.0000000e+00 
3.0000000e+00 0.0000000e+00 0.0000000e+00 
4.0000000e+00 0.0000000e+00 0.0000000e+00 
4.0000000e+00 1.0000000e+00 0.0000000e+00 
3.0000000e+00 1.0000000e+00 0.0000000e+00 
2.0000000e+00 1.0000000e+00 0.0000000e+00 
1.0000000e+00 1.0000000e+00 0.0000000e+00 
0.0000000e+00 0.0000000e+00 1.0000000e+00 
0.0000000e+00 0.0000000e+00 2.0000000e+00 
0.0000000e+00 0.0000000e+00 3.0000000e+00 
0.0000000e+00 0.0000000e+00 4.0000000e+00 
0.0000000e+00 0.0000000e+00 5.0000000e+00 
0.0000000e+00 0.0000000e+00 6.0000000e+00 
0.0000000e+00 0.0000000e+00 7.0000000e+00 
0.0000000e+00 0.0000000e+00 8.0000000e+00 
0.0000000e+00 0.0000000e+00 9.0000000e+00 
5.0000000e+00 0.0000000e+00 1.0000000e+00 
5.0000000e+00 0.0000000e+00 2.0000000e+00 
5.0000000e+00 0.0000000e+00 3.0000000e+00 
5.0000000e+00 0.0000000e+00 4.0000000e+00 
5.0000000e+00 0.0000000e+00 5.0000000e+00 
5.0000000e+00 0.0000000e+00 6.0000000e+00 
5.0000000e+00 0.0000000e+00 7.0000000e+00 
5.0000000e+00 0.0000000e+00 8.0000000e+00 
5.0000000e+00 0.0000000e+00 9.0000000e+00 
1.0000000e+00 0.0000000e+00 1.0000000e+01 
2.0000000e+00 0.0000000e+00 1.0000000e+01 
3.0000000e+00 0.0000000e+00 1.0000000e+01 
4.0000000e+00 0.0000000e+00 1.0000000e+01 
5.0000000e+00 1.0000000e+00 1.0000000e+00 
5.0000000e+00 1.0000000e+00 2.0000000e+00 
5.0000000e+00 1.0000000e+00 3.0000000e+00 
5.0000000e+00 1.0000000e+00 4.0000000e+00 
5.0000000e+00 1.0000000e+00 5.0000000e+00 
5.0000000e+00 1.0000000e+00 6.0000000e+00 
5.0000000e+00 1.0000000e+00 7.0000000e+00 
5.0000000e+00 1.0000000e+00 8.0000000e+00 
5.0000000e+00 1.0000000e+00 9.0000000e+00 
0.0000000e+00 1.0000000e+00 1.0000000e+00 
0.0000000e+00 1.0000000e+00 2.0000000e+00 
0.0000000e+00 1.0000000e+00 3.0000000e+00 
0.0000000e+00 1.0000000e+00 4.0000000e+00 
0.0000000e+00 1.0000000e+00 5.0000000e+00 
0.0000000e+00 1.0000000e+00 6.0000000e+00 
0.0000000e+00 1.0000000e+00 7.0000000e+00 
0.0000000e+00 1.0000000e+00 8.0000000e+00 
0.0000000e+00 1.0000000e+00 9.0000000e+00 
4.0000000e+00 1.0000000e+00 1.0000000e+01 
3.0000000e+00 1.0000000e+00 1.0000000e+01 
2.0000000e+00 1.0000000e+00 1.0000000e+01 
1.0000000e+00 1.0000000e+00 1.0000000e+01 
4.5000000e+00 5.0000000e-01 0.0000000e+00 
5.0000000e-01 5.0000000e-01 0.0000000e+00 
2.5000000e+00 5.0000000e-01 0.0000000e+00 
3.5000000e+00 5.0000000e-01 0.0000000e+00 
1.5000000e+00 5.0000000e-01 0.0000000e+00 
4.1822505e+00 0.0000000e+00 2.5515697e+00 
4.2017918e+00 0.0000000e+00 4.4725966e+00 
4.1114569e+00 0.0000000e+00 6.5092020e+00 
8.6602539e-01 0.0000000e+00 3.5000000e+00 
8.4778279e-01 0.0000000e+00 5.4684029e+00 
8.9629614e-01 0.0000000e+00 7.5867257e+00 
2.5566745e+00 0.0000000e+00 8.1853306e-01 
2.4918270e+00 0.0000000e+00 9.1386929e+00 
8.4677207e-01 0.0000000e+00 1.5042374e+00 
4.0943027e+00 0.0000000e+00 8.4081745e+00 
8.6281651e-01 0.0000000e+00 2.5007062e+00 
1.7315160e+00 0.0000000e+00 3.0001178e+00 
1.7319617e+00 0.0000000e+00 4.0000196e+00 
2.5980761e+00 0.0000000e+00 3.5000000e+00 
2.5536871e+00 0.0000000e+00 4.4963923e+00 
2.5928419e+00 0.0000000e+00 2.4239938e+00 
1.5037409e+00 0.0000000e+00 9.1535149e+00 
1.8433737e+00 0.0000000e+00 8.1858873e+00 
3.0000000e+00 0.0000000e+00 8.2679491e+00 
2.5000000e+00 0.0000000e+00 7.4019237e+00 
3.5042722e+00 0.0000000e+00 7.4271150e+00 
3.0310018e+00 0.0000000e+00 6.5282087e+00 
2.0373929e+00 0.0000000e+00 6.5307913e+00 
3.4767809e+00 0.0000000e+00 5.8031492e+00 
2.5452602e+00 0.0000000e+00 5.5720768e+00 
1.6456656e+00 0.0000000e+00 1.9697139e+00 
8.6297011e-01 0.0000000e+00 4.4947371e+00 
1.0111579e+00 0.0000000e+00 6.5282545e+00 
3.4994321e+00 0.0000000e+00 8.4691072e-01 
4.1860156e+00 0.0000000e+00 3.5040276e+00 
1.7320508e+00 0.0000000e+00 5.0000000e+00 
4.0544066e+00 0.0000000e+00 1.5781221e+00 
1.5817389e+00 0.0000000e+00 9.3943578e-01 
8.3166349e-01 0.0000000e+00 8.5090933e+00 
3.4686174e+00 0.0000000e+00 9.1752682e+00 
3.0709300e+00 0.0000000e+00 1.5799091e+00 
3.3927374e+00 0.0000000e+00 3.0399952e+00 
3.3826034e+00 0.0000000e+00 3.9747651e+00 
4.3420062e+00 0.0000000e+00 7.4688983e+00 
3.4023225e+00 0.0000000e+00 4.9314723e+00 
1.6740381e+00 0.0000000e+00 7.3014426e+00 
4.2715640e+00 0.0000000e+00 5.4758859e+00 
1.6225953e+00 0.0000000e+00 5.8104177e+00 
4.2679491e+00 0.0000000e+00 9.2679491e+00 
7.3205084e-01 0.0000000e+00 7.3205084e-01 
4.2679491e+00 0.0000000e+00 7.3205084e-01 
7.3205084e-01 0.0000000e+00 9.2679491e+00 
3.4586334e+00 0.0000000e+00 2.2347178e+00 
2.2895701e+00 0.0000000e+00 1.5463171e+00 
5.0000000e+00 5.0000000e-01 5.0000000e-01 
5.0000000e+00 5.0000000e-01 1.5000000e+00 
5.0000000e+00 5.0000000e-01 2.5000000e+00 
5.0000000e+00 5.0000000e-01 3.5000000e+00 
5.0000000e+00 5.0000000e-01 4.5000000e+00 
5.0000000e+00 5.0000000e-01 5.5000000e+00 
5.0000000e+00 5.0000000e-01 6.5000000e+00 
5.0000000e+00 5.0000000e-01 7.5000000e+00 
5.0000000e+00 5.0000000e-01 8.5000000e+00 
5.0000000e+00 5.0000000e-01 9.5000000e+00 
8.1774962e-01 1.0000000e+00 2.5515697e+00 
8.6602539e-01 1.0000000e+00 4.5000000e+00 
8.6602539e-01 1.0000000e+00 6.5000000e+00 
4.1339746e+00 1.0000000e+00 3.5000000e+00 
4.1339746e+00 1.0000000e+00 5.5000000e+00 
4.1386933e+00 1.0000000e+00 7.4918270e+00 
2.4433255e+00 1.0000000e+00 8.1853306e-01 
2.4598334e+00 1.0000000e+00 9.1815052e+00 
9.5951027e-01 1.0000000e+00 8.4305744e+00 
4.1532278e+00 1.0000000e+00 1.5042374e+00 
4.1339746e+00 1.0000000e+00 4.5000000e+00 
3.2679491e+00 1.0000000e+00 4.0000000e+00 
3.2679491e+00 1.0000000e+00 3.0000000e+00 
2.4019239e+00 1.0000000e+00 3.5000000e+00 
2.4019239e+00 1.0000000e+00 4.5000000e+00 
2.4070816e+00 1.0000000e+00 2.4239771e+00 
4.1347609e+00 1.0000000e+00 6.4986377e+00 
3.2688668e+00 1.0000000e+00 6.9984107e+00 
3.3635256e+00 1.0000000e+00 8.0039873e+00 
2.4210188e+00 1.0000000e+00 7.5764194e+00 
2.4379513e+00 1.0000000e+00 6.5124717e+00 
8.6602539e-01 1.0000000e+00 3.5000000e+00 
3.4452019e+00 1.0000000e+00 9.0743151e+00 
3.3536978e+00 1.0000000e+00 1.9695739e+00 
3.2679491e+00 1.0000000e+00 5.0000000e+00 
3.2742379e+00 1.0000000e+00 6.0015869e+00 
1.5005679e+00 1.0000000e+00 8.4691072e-01 
4.1514750e+00 1.0000000e+00 2.4956353e+00 
8.6602539e-01 1.0000000e+00 5.5000000e+00 
8.3806479e-01 1.0000000e+00 7.4450564e+00 
2.4222016e+00 1.0000000e+00 5.5011954e+00 
4.2025619e+00 1.0000000e+00 8.4730129e+00 
9.4559324e-01 1.0000000e+00 1.5781221e+00 
1.5253289e+00 1.0000000e+00 9.2040081e+00 
3.4181702e+00 1.0000000e+00 9.3941575e-01 
1.9290572e+00 1.0000000e+00 1.5799062e+00 
1.9406590e+00 1.0000000e+00 8.4301710e+00 
1.6339746e+00 1.0000000e+00 4.0000000e+00 
1.6339746e+00 1.0000000e+00 5.0000000e+00 
1.6276523e+00 1.0000000e+00 6.9622855e+00 
1.6339746e+00 1.0000000e+00 6.0000000e+00 
1.6159233e+00 1.0000000e+00 3.0393209e+00 
4.2679491e+00 1.0000000e+00 7.3205084e-01 
7.3205084e-01 1.0000000e+00 9.2679491e+00 
7.3205084e-01 1.0000000e+00 7.3205084e-01 
4.2679491e+00 1.0000000e+00 9.2679491e+00 
1.5688787e+00 1.0000000e+00 7.7397652e+00 
1.5430810e+00 1.0000000e+00 2.2345793e+00 
2.7102664e+00 1.0000000e+00 1.5462812e+00 
2.7093840e+00 1.0000000e+00 8.4487514e+00 
0.0000000e+00 5.0000000e-01 9.5000000e+00 
0.0000000e+00 5.0000000e-01 1.5000000e+00 
0.0000000e+00 5.0000000e-01 2.5000000e+00 
0.0000000e+00 5.0000000e-01 3.5000000e+00 
0.0000000e+00 5.0000000e-01 4.5000000e+00 
0.0000000e+00 5.0000000e-01 5.5000000e+00 
0.0000000e+00 5.0000000e-01 6.5000000e+00 
0.0000000e+00 5.0000000e-01 7.5000000e+00 
0.0000000e+00 5.0000000e-01 8.5000000e+00 
0.0000000e+00 5.0000000e-01 5.0000000e-01 
5.0000000e-01 5.0000000e-01 1.0000000e+01 
1.5000000e+00 5.0000000e-01 1.0000000e+01 
3.5000000e+00 5.0000000e-01 1.0000000e+01 
4.5000000e+00 5.0000000e-01 1.0000000e+01 
2.5000000e+00 5.0000000e-01 1.0000000e+01 

CELLS 491 2455
4 126 52 152 179
4 145 177 91 50
4 177 91 68 145
4 19 50 91 177
4 50 19 91 178
4 125 50 91 178
4 19 91 68 177
4 75 73 17 176
4 127 117 41 94
4 94 117 41 66
4 94 127 117 65
4 68 18 177 124
4 185 157 131 35
4 40 117 127 65
4 131 58 157 185
4 32 121 103 155
4 124 177 68 145
4 121 32 45 155
4 32 122 45 155
4 178 125 51 69
4 121 103 155 129
4 66 94 117 28
4 185 131 58 35
4 35 131 58 188
4 73 75 156 176
4 156 17 73 176
4 115 39 133 96
4 21 52 126 179
4 52 21 126 180
4 126 152 21 179
4 140 103 120 44
4 185 157 35 81
4 175 17 73 156
4 178 91 125 69
4 28 41 66 118
4 41 28 66 117
4 126 180 22 153
4 124 156 75 176
4 128 43 106 119
4 49 18 176 124
4 49 18 124 177
4 65 40 117 27
4 65 116 40 27
4 65 117 94 27
4 155 45 121 129
4 30 106 120 43
4 30 106 43 119
4 39 116 151 96
4 20 51 69 178
4 51 20 69 179
4 134 42 106 118
4 57 36 99 186
4 36 57 99 188
4 134 41 118 66
4 151 116 65 96
4 152 51 69 179
4 39 115 26 96
4 48 17 156 176
4 26 116 39 96
4 17 48 156 175
4 124 75 18 176
4 106 134 118 66
4 20 91 178 69
4 151 116 40 65
4 93 63 10 71
4 14 64 130 150
4 10 13 62 71
4 13 10 63 71
4 9 14 64 130
4 130 9 14 62
4 126 53 180 153
4 145 124 177 49
4 48 156 124 176
4 26 65 116 96
4 62 13 130 71
4 62 130 9 71
4 69 21 152 179
4 130 64 97 150
4 158 63 93 71
4 64 97 9 130
4 63 158 13 71
4 29 42 106 119
4 42 29 106 118
4 120 67 103 140
4 57 186 99 146
4 181 22 53 153
4 53 22 180 153
4 120 106 30 67
4 122 32 74 155
4 22 180 126 92
4 128 106 42 119
4 23 181 54 70
4 54 182 23 70
4 118 29 106 66
4 91 145 50 125
4 121 103 129 44
4 44 31 103 120
4 31 44 103 121
4 131 35 72 188
4 126 180 21 92
4 36 99 72 188
4 54 181 153 70
4 98 23 182 70
4 41 127 94 66
4 91 77 161 162
4 182 54 132 70
4 91 77 162 95
4 35 157 131 81
4 127 102 94 66
4 98 182 132 70
4 18 68 75 124
4 127 41 134 66
4 161 125 91 162
4 102 127 134 66
4 145 91 68 161
4 127 151 40 65
4 125 91 145 161
4 153 181 22 70
4 77 68 161 165
4 152 51 125 69
4 124 68 75 165
4 135 127 102 101
4 151 133 39 96
4 67 31 120 103
4 140 129 103 44
4 68 124 145 165
4 157 160 131 81
4 94 101 127 65
4 151 127 101 65
4 68 145 161 165
4 77 162 138 161
4 127 134 135 102
4 77 68 91 161
4 128 42 106 134
4 162 77 138 95
4 21 152 126 69
4 68 77 76 165
4 86 140 149 141
4 154 138 148 79
4 127 135 136 101
4 102 134 135 104
4 162 125 91 69
4 85 129 140 141
4 101 127 102 94
4 88 140 128 149
4 134 106 128 104
4 149 88 89 148
4 125 162 152 69
4 138 154 95 79
4 76 75 68 165
4 134 106 104 66
4 148 89 154 79
4 136 147 112 80
4 139 90 76 171
4 140 67 88 128
4 154 144 164 87
4 103 74 32 155
4 136 151 127 101
4 124 75 171 165
4 80 137 136 139
4 101 112 151 65
4 137 80 136 78
4 69 91 162 95
4 140 67 86 149
4 150 64 109 168
4 93 63 166 110
4 137 76 139 80
4 80 137 76 78
4 75 76 171 165
4 102 78 135 101
4 133 166 115 110
4 148 135 134 104
4 151 136 112 101
4 169 122 108 155
4 22 126 153 92
4 175 73 109 168
4 72 35 131 81
4 130 97 9 71
4 158 130 13 71
4 128 148 134 104
4 95 154 162 107
4 104 102 134 66
4 99 186 108 169
4 86 67 140 141
4 138 154 162 95
4 165 161 77 137
4 77 137 138 79
4 160 157 132 81
4 171 90 75 156
4 135 148 79 104
4 140 67 85 141
4 164 162 154 107
4 165 77 76 137
4 89 154 149 148
4 89 95 154 79
4 78 136 135 101
4 67 106 88 128
4 112 147 151 96
4 135 148 138 79
4 102 135 79 104
4 143 163 144 84
4 156 75 171 124
4 148 128 88 104
4 97 113 130 159
4 71 158 172 100
4 154 144 87 89
4 72 131 160 81
4 87 144 163 84
4 92 21 126 69
4 69 162 152 107
4 109 97 64 150
4 166 158 63 93
4 65 112 151 96
4 92 163 153 105
4 149 128 88 148
4 186 99 146 169
4 162 164 152 107
4 85 84 143 141
4 96 133 115 110
4 168 175 73 156
4 72 99 173 146
4 155 103 74 129
4 76 139 171 165
4 137 161 77 138
4 111 182 167 98
4 67 88 86 149
4 95 162 69 107
4 154 144 89 149
4 59 167 185 34
4 167 59 184 34
4 80 112 136 101
4 79 148 89 104
4 88 89 148 104
4 89 144 86 149
4 159 90 113 139
4 147 172 100 80
4 76 139 165 137
4 137 77 78 79
4 84 163 87 105
4 147 151 136 112
4 77 138 95 79
4 75 76 90 171
4 85 143 84 142
4 173 99 83 146
4 78 80 136 101
4 142 85 143 141
4 88 67 140 149
4 113 97 130 71
4 172 130 158 71
4 153 132 54 70
4 74 108 122 155
4 86 144 84 141
4 79 78 135 102
4 100 172 113 80
4 139 113 159 172
4 82 160 132 81
4 166 133 93 110
4 167 184 111 34
4 111 167 182 24
4 109 15 61 168
4 64 15 109 168
4 166 38 115 110
4 111 185 167 34
4 38 166 114 110
4 11 166 110 60
4 111 174 167 24
4 186 37 108 169
4 187 108 37 169
4 11 166 63 110
4 150 109 73 168
4 70 22 153 92
4 143 160 82 173
4 144 143 84 141
4 147 136 139 80
4 139 76 90 80
4 73 75 90 156
4 83 143 82 173
4 72 99 83 173
4 84 143 163 105
4 170 132 70 82
4 107 95 154 89
4 128 106 88 104
4 147 133 151 96
4 139 113 172 80
4 173 131 72 146
4 100 112 147 80
4 139 159 90 171
4 153 126 163 92
4 72 82 160 173
4 182 132 167 98
4 169 37 187 56
4 186 37 169 56
4 33 46 169 123
4 46 33 169 122
4 153 70 92 105
4 159 130 97 150
4 71 93 158 100
4 74 142 155 129
4 157 167 132 81
4 109 8 15 64
4 109 15 8 61
4 12 11 166 63
4 11 12 166 60
4 139 90 113 80
4 172 147 139 80
4 74 103 85 129
4 38 25 110 114
4 25 38 110 115
4 183 16 109 47
4 175 109 16 47
4 158 166 133 93
4 96 93 133 110
4 135 137 136 78
4 77 76 137 78
4 55 24 167 174
4 24 55 167 182
4 109 73 97 150
4 33 169 122 108
4 33 169 108 123
4 168 73 150 156
4 142 74 85 129
4 83 84 143 142
4 132 98 82 81
4 82 84 143 83
4 170 153 163 105
4 98 167 111 81
4 109 175 168 47
4 168 183 109 47
4 88 89 86 149
4 72 160 131 173
4 72 160 82 81
4 113 130 159 172
4 71 172 113 100
4 143 170 105 82
4 84 83 85 142
4 113 130 172 71
4 67 86 85 141
4 86 87 144 89
4 70 132 98 82
4 98 132 167 81
4 147 112 100 96
4 171 159 90 156
4 143 170 163 105
4 82 72 83 173
4 160 132 170 82
4 84 87 144 86
4 170 132 153 70
4 59 167 157 185
4 142 173 83 146
4 46 122 169 155
4 15 64 150 168
4 11 63 93 110
4 166 38 133 115
4 84 85 86 141
4 73 109 16 175
4 153 170 70 105
4 105 84 143 82
4 158 147 172 100
4 113 97 90 159
4 173 83 143 142
4 143 160 170 82
4 37 99 186 108
4 34 111 185 81
4 184 174 167 111
4 61 183 109 168
4 166 60 114 110
4 108 187 123 169
4 182 111 24 98
4 105 170 70 82
4 144 86 149 141
4 163 92 87 105
4 144 163 164 87
4 169 146 186 56
4 74 85 83 142
4 85 142 129 141
4 42 43 128 119
4 41 42 134 118
4 18 19 68 177
4 177 145 49 50
4 125 51 50 178
4 51 152 52 179
4 180 52 53 126
4 44 120 140 43
4 40 117 41 127
4 8 109 97 64
4 12 166 158 63
4 17 18 75 176
4 129 45 121 44
4 47 175 168 156
4 110 115 96 25
4 19 20 91 178
4 167 55 132 182
4 63 10 11 93
4 64 14 15 150
4 38 39 133 115
4 73 16 17 175
4 108 33 74 122
4 146 57 186 56
4 151 40 116 39
4 5 108 187 123
4 123 187 6 169
4 183 109 0 61
4 174 167 7 184
4 114 60 1 110
4 3 183 61 168
4 60 2 166 114
4 184 4 174 111
4 180 22 21 92
4 9 8 97 64
4 13 12 158 63
4 175 47 48 156
4 115 26 96 25
4 55 54 132 182
4 35 34 185 81
4 28 94 117 27
4 120 30 31 67
4 59 157 58 185
4 36 99 186 37
4 153 53 181 54
4 14 13 130 62
4 62 9 10 71
4 188 131 58 57
4 48 124 49 176
4 27 65 116 26
4 33 32 74 122
4 122 46 45 155
4 23 182 24 98
4 66 118 29 28
4 23 22 181 70
4 36 72 35 188
4 111 184 4 34
4 169 6 123 46
4 111 4 174 24
4 0 16 109 183
4 61 15 3 168
4 108 37 5 187
4 60 11 1 110
4 2 38 166 114
4 167 59 7 184
4 69 20 21 179
4 0 3 183 61
4 7 4 174 184
4 6 5 187 123
4 60 1 2 114
4 169 187 6 56
4 108 5 33 123
4 109 8 0 61
4 12 2 166 60
4 106 30 29 119
4 168 3 183 47
4 110 1 114 25
4 167 7 55 174
4 103 31 121 32
4 154 107 87 164
4 154 87 107 89
4 67 128 43 106
4 43 128 67 140
4 43 120 67 106
4 67 120 43 140
4 103 140 85 129
4 85 140 103 67
4 126 69 107 92
4 107 69 126 152
4 126 164 107 152
4 79 137 135 78
4 79 135 137 138
4 146 57 188 99
4 188 57 146 131
4 188 72 146 99
4 146 72 188 131
4 147 133 100 158
4 147 100 133 96
4 93 100 133 158
4 93 133 100 96
4 90 73 159 97
4 90 159 73 156
4 150 159 73 97
4 150 73 159 156
4 99 169 155 146
4 155 169 99 108
4 99 74 155 108
4 81 167 185 157
4 81 185 167 111
4 126 163 87 164
4 87 163 126 92
4 87 107 126 164
4 126 107 87 92
4 99 83 142 74
4 142 83 99 146
4 142 155 99 74
4 99 155 142 146

CELL_TYPES 491
10
10
10
10
10
10
10
10
10
10
10
10
10
10
10
10
10
10
10
10
10
10
10
10
10
10
10
10
10
10
10
10
10
10
10
10
10
10
10
10
10
10
10
10
10
10
10
10
10
10
10
10
10
10
10
10
10
10
10
10
10
10
10
10
10
10
10
10
10
10
10
10
10
10
10
10
10
10
10
10
10
10
10
10
10
10
10
10
10
10
10
10
10
10
10
10
10
10
10
10
10
10
10
10
10
10
10
10
10
10
10
10
10
10
10
10
10
10
10
10
10
10
10
10
10
10
10
10
10
10
10
10
10
10
10
10
10
10
10
10
10
10
10
10
10
10
10
10
10
10
10
10
10
10
10
10
10
10
10
10
10
10
10
10
10
10
10
10
10
10
10
10
10
10
10
10
10
10
10
10
10
10
10
10
10
10
10
10
10
10
10
10
10
10
10
10
10
10
10
10
10
10
10
10
10
10
10
10
10
10
10
10
10
10
10
10
10
10
10
10
10
10
10
10
10
10
10
10
10
10
10
10
10
10
10
10
10
10
10
10
10
10
10
10
10
10
10
10
10
10
10
10
10
10
10
10
10
10
10
10
10
10
10
10
10
10
10
10
10
10
10
10
10
10
10
10
10
10
10
10
10
10
10
10
10
10
10
10
10
10
10
10
10
10
10
10
10
10
10
10
10
10
10
10
10
10
10
10
10
10
10
10
10
10
10
10
10
10
10
10
10
10
10
10
10
10
10
10
10
10
10
10
10
10
10
10
10
10
10
10
10
10
10
10
10
10
10
10
10
10
10
10
10
10
10
10
10
10
10
10
10
10
10
10
10
10
10
10
10
10
10
10
10
10
10
10
10
10
10
10
10
10
10
10
10
10
10
10
10
10
10
10
10
10
10
10
10
10
10
10
10
10
10
10
10
10
10
10
10
10
10
10
10
10
10
10
10
10
10
10
10
10
10
10
10
10
10
10
10
10
10
10
10
10
10
10
10
10
10
10
10
10
10
10
10
10
10
10
10
10
10
10
10
10
10
10
10
10
10
10
10
10
10
10
10
10
10
10
10
10
10
10
10
10
10
10
10
10
10
10
10
10
10
10
10
10
10
10
10
10
10
POINT_DATA 189
FIELD FieldData 2
DISPLACEMENT 3 189  float
0.0000000e+00 0.0000000e+00 0.0000000e+00 
0.0000000e+00 0.0000000e+00 0.0000000e+00 
0.0000000e+00 -1.1296523e-10 -2.6760039e-10 
0.0000000e+00 1.7800310e-10 2.0427211e-09 
0.0000000e+00 0.0000000e+00 0.0000000e+00 
0.0000000e+00 0.0000000e+00 0.0000000e+00 
0.0000000e+00 3.1864997e-11 -8.8248985e-11 
0.0000000e+00 6.6484922e-11 -1.7728219e-10 
0.0000000e+00 0.0000000e+00 0.0000000e+00 
0.0000000e+00 0.0000000e+00 0.0000000e+00 
0.0000000e+00 0.0000000e+00 0.0000000e+00 
0.0000000e+00 0.0000000e+00 0.0000000e+00 
0.0000000e+00 -1.4328189e-10 -3.5650291e-10 
0.0000000e+00 -4.4640358e-10 -8.5146384e-10 
0.0000000e+00 -2.9916306e-10 -8.4252555e-10 
0.0000000e+00 -1.0295377e-09 -6.6086386e-10 
0.0000000e+00 0.0000000e+00 0.0000000e+00 
0.0000000e+00 0.0000000e+00 0.0000000e+00 
0.0000000e+00 0.0000000e+00 0.0000000e+00 
0.0000000e+00 0.0000000e+00 0.0000000e+00 
0.0000000e+00 0.0000000e+00 0.0000000e+00 
0.0000000e+00 0.0000000e+00 0.0000000e+00 
0.0000000e+00 0.0000000e+00 0.0000000e+00 
0.0000000e+00 0.0000000e+00 0.0000000e+00 
0.0000000e+00 0.0000000e+00 0.0000000e+00 
0.0000000e+00 0.0000000e+00 0.0000000e+00 
0.0000000e+00 0.0000000e+00 0.0000000e+00 
0.0000000e+00 0.0000000e+00 0.0000000e+00 
0.0000000e+00 0.0000000e+00 0.0000000e+00 
0.0000000e+00 0.0000000e+00 0.0000000e+00 
0.0000000e+00 0.0000000e+00 0.0000000e+00 
0.0000000e+00 0.0000000e+00 0.0000000e+00 
0.0000000e+00 0.0000000e+00 0.0000000e+00 
0.0000000e+00 0.0000000e+00 0.0000000e+00 
0.0000000e+00 0.0000000e+00 0.0000000e+00 
0.0000000e+00 0.0000000e+00 0.0000000e+00 
0.0000000e+00 0.0000000e+00 0.0000000e+00 
0.0000000e+00 0.0000000e+00 0.0000000e+00 
0.0000000e+00 -9.4978261e-11 -2.3544156e-10 
0.0000000e+00 -9.8155074e-11 -8.1442131e-11 
0.0000000e+00 -9.2586383e-11 1.5057956e-10 
0.0000000e+00 -5.9297220e-11 2.3257228e-10 
0.0000000e+00 3.5278159e-11 1.1329553e-10 
0.0000000e+00 1.0351957e-10 -9.6730512e-11 
0.0000000e+00 2.0270698e-11 -1.7044689e-10 
0.0000000e+00 3.9617918e-12 -1.0492487e-10 
0.0000000e+00 5.0542704e-12 -9.2144632e-11 
0.0000000e+00 2.0674618e-09 5.7200009e-09 
0.0000000e+00 2.8686939e-08 3.9049713e-08 
0.0000000e+00 -1.5337655e-06 6.5375140e-08 
0.0000000e+00 -5.4880911e-07 1.0944546e-08 
0.0000000e+00 -1.8031947e-08 -1.2915785e-08 
0.0000000e+00 -1.2214494e-09 -5.4331486e-09 
0.0000000e+00 6.6357107e-11 -1.5412041e-09 
0.0000000e+00 7.4643590e-11 -6.2447580e-10 
0.0000000e+00 1.9239280e-11 -2.3103115e-10 
0.0000000e+00 4.2116626e-11 -1.0956636e-10 
0.0000000e+00 4.8378024e-11 -1.6042903e-10 
0.0000000e+00 4.5942635e-11 -1.7000869e-10 
0.0000000e+00 7.0598909e-11 -2.1589461e-10 
0.0000000e+00 -1.0515661e-10 -1.8617402e-10 
0.0000000e+00 -3.3890943e-10 2.8105482e-10 
0.0000000e+00 -3.3814027e-10 -6.6056244e-10 
0.0000000e+00 -1.6837172e-10 -3.0254454e-10 
0.0000000e+00 -4.1593315e-10 -5.4347388e-10 
0.0000000e+00 0.0000000e+00 0.0000000e+00 
0.0000000e+00 0.0000000e+00 0.0000000e+00 
0.0000000e+00 0.0000000e+00 0.0000000e+00 
0.0000000e+00 0.0000000e+00 0.0000000e+00 
0.0000000e+00 0.0000000e+00 0.0000000e+00 
0.0000000e+00 0.0000000e+00 0.0000000e+00 
0.0000000e+00 0.0000000e+00 0.0000000e+00 
0.0000000e+00 0.0000000e+00 0.0000000e+00 
0.0000000e+00 0.0000000e+00 0.0000000e+00 
0.0000000e+00 0.0000000e+00 0.0000000e+00 
0.0000000e+00 0.0000000e+00 0.0000000e+00 
0.0000000e+00 0.0000000e+00 0.0000000e+00 
0.0000000e+00 0.0000000e+00 0.0000000e+00 
0.0000000e+00 0.0000000e+00 0.0000000e+00 
0.0000000e+00 0.0000000e+00 0.0000000e+00 
0.0000000e+00 0.0000000e+00 0.0000000e+00 
0.0000000e+00 0.0000000e+00 0.0000000e+00 
0.0000000e+00 0.0000000e+00 0.0000000e+00 
0.0000000e+00 0.0000000e+00 0.0000000e+00 
0.0000000e+00 0.0000000e+00 0.0000000e+00 
0.0000000e+00 0.0000000e+00 0.0000000e+00 
0.0000000e+00 0.0000000e+00 0.0000000e+00 
0.0000000e+00 0.0000000e+00 0.0000000e+00 
0.0000000e+00 0.0000000e+00 0.0000000e+00 
0.0000000e+00 0.0000000e+00 0.0000000e+00 
0.0000000e+00 0.0000000e+00 0.0000000e+00 
0.0000000e+00 0.0000000e+00 0.0000000e+00 
0.0000000e+00 0.0000000e+00 0.0000000e+00 
0.0000000e+00 0.0000000e+00 0.0000000e+00 
0.0000000e+00 0.0000000e+00 0.0000000e+00 
0.0000000e+00 0.0000000e+00 0.0000000e+00 
0.0000000e+00 0.0000000e+00 0.0000000e+00 
0.0000000e+00 0.0000000e+00 0.0000000e+00 
0.0000000e+00 0.0000000e+00 0.0000000e+00 
0.0000000e+00 0.0000000e+00 0.0000000e+00 
0.0000000e+00 0.0000000e+00 0.0000000e+00 
0.0000000e+00 0.0000000e+00 0.0000000e+00 
0.0000000e+00 0.0000000e+00 0.0000000e+00 
0.0000000e+00 0.0000000e+00 0.0000000e+00 
0.0000000e+00 0.0000000e+00 0.0000000e+00 
0.0000000e+00 0.0000000e+00 0.0000000e+00 
0.0000000e+00 0.0000000e+00 0.0000000e+00 
0.0000000e+00 0.0000000e+00 0.0000000e+00 
0.0000000e+00 0.0000000e+00 0.0000000e+00 
0.0000000e+00 0.0000000e+00 0.0000000e+00 
0.0000000e+00 0.0000000e+00 0.0000000e+00 
0.0000000e+00 0.0000000e+00 0.0000000e+00 
0.0000000e+00 0.0000000e+00 0.0000000e+00 
0.0000000e+00 0.0000000e+00 0.0000000e+00 
0.0000000e+00 -8.0338194e-11 -1.3182197e-10 
0.0000000e+00 -9.1452762e-11 -5.2133277e-11 
0.0000000e+00 -9.8602196e-11 1.8547587e-11 
0.0000000e+00 -4.9033749e-11 9.7175254e-11 
0.0000000e+00 -1.6910286e-11 9.2262933e-11 
0.0000000e+00 6.0834525e-11 2.4258564e-11 
0.0000000e+00 7.2166530e-11 -4.7467634e-11 
0.0000000e+00 2.3621638e-11 -6.8478681e-11 
0.0000000e+00 1.1648674e-11 -6.4086472e-11 
0.0000000e+00 1.4229053e-11 -5.0200538e-11 
5.3343246e-08 -2.4864565e-07 -3.0823684e-09 
-3.7411343e-08 -5.3451899e-08 -1.8390789e-08 
-1.1368856e-09 -1.7382585e-11 -3.2137790e-09 
2.6227989e-10 -9.8366558e-11 3.5383510e-10 
-4.8641530e-10 8.5911729e-11 -1.1084419e-10 
-1.1901861e-10 1.6171857e-11 -2.0341583e-10 
1.0672231e-09 -5.3792432e-10 -1.1992226e-09 
-3.6644993e-11 1.5116647e-12 -1.9897045e-10 
-6.4320035e-11 8.7262281e-11 -4.5424120e-10 
5.2462440e-10 -1.3532510e-10 -2.8511507e-10 
-1.1919069e-11 -2.4526742e-11 2.9952266e-10 
3.5542944e-10 -2.3570440e-10 1.0247140e-09 
1.4869743e-09 -5.6257293e-10 7.5191314e-10 
2.5748050e-09 -3.1930985e-09 3.2909671e-09 
-5.5789213e-09 -4.5626156e-10 -1.5596987e-09 
7.0452710e-09 -3.7819028e-09 -3.9376061e-10 
-4.6442472e-10 7.8312370e-11 -2.9915942e-10 
-5.4148047e-10 2.9358089e-11 -4.4699938e-10 
-1.3635003e-10 2.8324775e-11 -3.1000424e-10 
-3.1498582e-10 7.4388646e-12 -5.6081612e-10 
-1.3441130e-09 8.9593194e-11 -1.2793433e-09 
-5.6425520e-08 -3.9976506e-08 5.8135292e-09 
-5.1500894e-11 6.4326699e-12 -1.9258134e-10 
1.6265869e-09 -4.7327964e-10 -3.6031111e-10 
-1.5527776e-09 2.4268285e-10 -4.1860662e-10 
-9.2333963e-10 1.7782878e-10 -5.1954452e-10 
6.3736677e-10 -1.4037030e-09 -1.2863686e-09 
6.2056676e-10 -1.3666496e-10 1.1377967e-10 
-3.2420617e-09 -4.7137982e-09 -8.9518712e-09 
-4.0853282e-10 1.1493251e-10 -1.3056046e-09 
-3.2385215e-09 -2.0447860e-10 -2.0544202e-09 
-6.7761907e-11 9.7754626e-12 -1.4977453e-10 
-1.3986045e-09 -1.0782735e-08 -3.7613619e-09 
-2.1440807e-11 1.0617415e-11 -2.0438749e-10 
6.7855793e-10 -1.3254629e-10 -6.5409289e-10 
2.8724396e-09 -3.5244265e-09 -2.5249887e-09 
-1.0425914e-10 1.7720736e-11 -3.2058273e-10 
-1.8133061e-08 -8.5490157e-09 -3.7697916e-09 
-1.0983163e-08 -5.8334870e-09 -6.2516596e-09 
-7.9870083e-10 1.1091457e-10 -1.5987226e-09 
-2.2699309e-09 -3.4384648e-10 -3.3127880e-09 
1.1914016e-08 -2.8183958e-08 1.0427003e-08 
2.2883860e-10 -1.1112673e-10 -3.3033343e-10 
-5.5103396e-12 4.2382549e-11 -2.6196881e-10 
-3.1070968e-10 -1.9547888e-09 -8.0790452e-10 
-2.4591619e-11 1.5472099e-11 -1.1710349e-10 
-3.0492192e-10 8.6223681e-11 -8.1210949e-10 
1.9629194e-08 -2.6262413e-08 -3.7348200e-09 
2.2043609e-09 -7.9278661e-10 -1.0765575e-09 
-9.8877816e-11 1.1380349e-11 -2.8841801e-10 
0.0000000e+00 2.9083493e-11 -1.0706327e-10 
0.0000000e+00 5.1837201e-09 7.6442079e-09 
0.0000000e+00 -1.6782654e-07 -6.8830971e-08 
0.0000000e+00 -5.1065638e-07 9.1198643e-08 
0.0000000e+00 -1.2884456e-07 3.9326249e-08 
0.0000000e+00 -4.2175934e-09 -4.6270885e-09 
0.0000000e+00 3.0553379e-11 -1.5863449e-09 
0.0000000e+00 7.9064984e-11 -4.3439916e-10 
0.0000000e+00 5.3297720e-11 -2.1650275e-10 
0.0000000e+00 6.4217792e-10 2.5196165e-09 
0.0000000e+00 6.1753408e-11 -1.1750029e-10 
0.0000000e+00 3.7518384e-11 -9.6684445e-11 
0.0000000e+00 3.8293566e-11 -6.9015134e-11 
0.0000000e+00 2.9754664e-11 -5.6417027e-11 
0.0000000e+00 3.5801157e-11 -8.2222354e-11 
TOTAL_DISPLACEMENT 3 189  float
0.0000000e+00 0.0000000e+00 0.0000000e+00 
0.0000000e+00 0.0000000e+00 0.0000000e+00 
0.0000000e+00 0.0000000e+00 0.0000000e+00 
0.0000000e+00 0.0000000e+00 0.0000000e+00 
0.0000000e+00 0.0000000e+00 0.0000000e+00 
0.0000000e+00 0.0000000e+00 0.0000000e+00 
0.0000000e+00 0.0000000e+00 0.0000000e+00 
0.0000000e+00 0.0000000e+00 0.0000000e+00 
0.0000000e+00 0.0000000e+00 0.0000000e+00 
0.0000000e+00 0.0000000e+00 0.0000000e+00 
0.0000000e+00 0.0000000e+00 0.0000000e+00 
0.0000000e+00 0.0000000e+00 0.0000000e+00 
0.0000000e+00 0.0000000e+00 0.0000000e+00 
0.0000000e+00 0.0000000e+00 0.0000000e+00 
0.0000000e+00 0.0000000e+00 0.0000000e+00 
0.0000000e+00 0.0000000e+00 0.0000000e+00 
0.0000000e+00 0.0000000e+00 0.0000000e+00 
0.0000000e+00 0.0000000e+00 0.0000000e+00 
0.0000000e+00 0.0000000e+00 0.0000000e+00 
0.0000000e+00 0.0000000e+00 0.0000000e+00 
0.0000000e+00 0.0000000e+00 0.0000000e+00 
0.0000000e+00 0.0000000e+00 0.0000000e+00 
0.0000000e+00 0.0000000e+00 0.0000000e+00 
0.0000000e+00 0.0000000e+00 0.0000000e+00 
0.0000000e+00 0.0000000e+00 0.0000000e+00 
0.0000000e+00 0.0000000e+00 0.0000000e+00 
0.0000000e+00 0.0000000e+00 0.0000000e+00 
0.0000000e+00 0.0000000e+00 0.0000000e+00 
0.0000000e+00 0.0000000e+00 0.0000000e+00 
0.0000000e+00 0.0000000e+00 0.0000000e+00 
0.0000000e+00 0.0000000e+00 0.0000000e+00 
0.0000000e+00 0.0000000e+00 0.0000000e+00 
0.0000000e+00 0.0000000e+00 0.0000000e+00 
0.0000000e+00 0.0000000e+00 0.0000000e+00 
0.0000000e+00 0.0000000e+00 0.0000000e+00 
0.0000000e+00 0.0000000e+00 0.0000000e+00 
0.0000000e+00 0.0000000e+00 0.0000000e+00 
0.0000000e+00 0.0000000e+00 0.0000000e+00 
0.0000000e+00 0.0000000e+00 0.0000000e+00 
0.0000000e+00 0.0000000e+00 0.0000000e+00 
0.0000000e+00 0.0000000e+00 0.0000000e+00 
0.0000000e+00 0.0000000e+00 0.0000000e+00 
0.0000000e+00 0.0000000e+00 0.0000000e+00 
0.0000000e+00 0.0000000e+00 0.0000000e+00 
0.0000000e+00 0.0000000e+00 0.0000000e+00 
0.0000000e+00 0.0000000e+00 0.0000000e+00 
0.0000000e+00 0.0000000e+00 0.0000000e+00 
0.0000000e+00 0.0000000e+00 0.0000000e+00 
0.0000000e+00 0.0000000e+00 0.0000000e+00 
0.0000000e+00 0.0000000e+00 0.0000000e+00 
0.0000000e+00 0.0000000e+00 0.0000000e+00 
0.0000000e+00 0.0000000e+00 0.0000000e+00 
0.0000000e+00 0.0000000e+00 0.0000000e+00 
0.0000000e+00 0.0000000e+00 0.0000000e+00 
0.0000000e+00 0.0000000e+00 0.0000000e+00 
0.0000000e+00 0.0000000e+00 0.0000000e+00 
0.0000000e+00 0.0000000e+00 0.0000000e+00 
0.0000000e+00 0.0000000e+00 0.0000000e+00 
0.0000000e+00 0.0000000e+00 0.0000000e+00 
0.0000000e+00 0.0000000e+00 0.0000000e+00 
0.0000000e+00 0.0000000e+00 0.0000000e+00 
0.0000000e+00 0.0000000e+00 0.0000000e+00 
0.0000000e+00 0.0000000e+00 0.0000000e+00 
0.0000000e+00 0.0000000e+00 0.0000000e+00 
0.0000000e+00 0.0000000e+00 0.0000000e+00 
0.0000000e+00 0.0000000e+00 0.0000000e+00 
0.0000000e+00 0.0000000e+00 0.0000000e+00 
0.0000000e+00 0.0000000e+00 0.0000000e+00 
0.0000000e+00 0.0000000e+00 0.0000000e+00 
0.0000000e+00 0.0000000e+00 0.0000000e+00 
0.0000000e+00 0.0000000e+00 0.0000000e+00 
0.0000000e+00 0.0000000e+00 0.0000000e+00 
0.0000000e+00 0.0000000e+00 0.0000000e+00 
0.0000000e+00 0.0000000e+00 0.0000000e+00 
0.0000000e+00 0.0000000e+00 0.0000000e+00 
0.0000000e+00 0.0000000e+00 0.0000000e+00 
0.0000000e+00 0.0000000e+00 0.0000000e+00 
0.0000000e+00 0.0000000e+00 0.0000000e+00 
0.0000000e+00 0.0000000e+00 0.0000000e+00 
0.0000000e+00 0.0000000e+00 0.0000000e+00 
0.0000000e+00 0.0000000e+00 0.0000000e+00 
0.0000000e+00 0.0000000e+00 0.0000000e+00 
0.0000000e+00 0.0000000e+00 0.0000000e+00 
0.0000000e+00 0.0000000e+00 0.0000000e+00 
0.0000000e+00 0.0000000e+00 0.0000000e+00 
0.0000000e+00 0.0000000e+00 0.0000000e+00 
0.0000000e+00 0.0000000e+00 0.0000000e+00 
0.0000000e+00 0.0000000e+00 0.0000000e+00 
0.0000000e+00 0.0000000e+00 0.0000000e+00 
0.0000000e+00 0.0000000e+00 0.0000000e+00 
0.0000000e+00 0.0000000e+00 0.0000000e+00 
0.0000000e+00 0.0000000e+00 0.0000000e+00 