# vtk DataFile Version 4.0
vtk output
ASCII
DATASET UNSTRUCTURED_GRID
POINTS 38 float
0.0000000e+00 0.0000000e+00 0.0000000e+00 
0.0000000e+00 0.0000000e+00 1.0000000e+01 
5.0000000e+00 0.0000000e+00 0.0000000e+00 
5.0000000e+00 0.0000000e+00 1.0000000e+01 
5.0000000e+00 1.0000000e+00 0.0000000e+00 
5.0000000e+00 1.0000000e+00 1.0000000e+01 
0.0000000e+00 1.0000000e+00 0.0000000e+00 
0.0000000e+00 1.0000000e+00 1.0000000e+01 
5.0000000e+00 2.0000000e+00 0.0000000e+00 
5.0000000e+00 2.0000000e+00 1.0000000e+01 
3.0000000e+00 2.0000000e+00 0.0000000e+00 
3.0000000e+00 2.0000000e+00 1.0000000e+01 
0.0000000e+00 2.0000000e+00 0.0000000e+00 
0.0000000e+00 2.0000000e+00 1.0000000e+01 
1.5000000e+00 3.0000000e+00 0.0000000e+00 
1.5000000e+00 3.0000000e+00 1.0000000e+01 
7.5000000e-01 3.0000000e+00 0.0000000e+00 
7.5000000e-01 3.0000000e+00 1.0000000e+01 
0.0000000e+00 3.0000000e+00 0.0000000e+00 
0.0000000e+00 3.0000000e+00 1.0000000e+01 
0.0000000e+00 0.0000000e+00 5.0000000e+00 
5.0000000e+00 0.0000000e+00 5.0000000e+00 
5.0000000e+00 1.0000000e+00 5.0000000e+00 
0.0000000e+00 1.0000000e+00 5.0000000e+00 
5.0000000e+00 2.0000000e+00 5.0000000e+00 
3.0000000e+00 2.0000000e+00 5.0000000e+00 
0.0000000e+00 2.0000000e+00 5.0000000e+00 
1.5000000e+00 3.0000000e+00 5.0000000e+00 
7.5000000e-01 3.0000000e+00 5.0000000e+00 
0.0000000e+00 3.0000000e+00 5.0000000e+00 
2.5000000e+00 0.0000000e+00 2.5000000e+00 
2.5000000e+00 0.0000000e+00 7.5000000e+00 
2.5000000e+00 1.0000000e+00 2.5000000e+00 
2.5000000e+00 1.0000000e+00 7.5000000e+00 
4.0000000e+00 2.0000000e+00 2.5000000e+00 
4.0000000e+00 2.0000000e+00 7.5000000e+00 
1.5000000e+00 2.0000000e+00 7.5000000e+00 
1.5000000e+00 2.0000000e+00 2.5000000e+00 

CELLS 84 420
4 7 23 33 31
4 23 6 32 30
4 5 7 33 31
4 21 33 23 31
4 21 32 4 30
4 6 4 32 30
4 21 33 31 5
4 32 21 23 30
4 0 30 23 20
4 1 23 31 20
4 21 23 20 31
4 21 23 30 20
4 21 33 5 22
4 32 21 4 22
4 21 5 31 3
4 3 7 31 1
4 32 21 22 23
4 7 23 31 1
4 5 7 31 3
4 23 6 30 0
4 33 21 23 22
4 2 6 30 4
4 30 4 21 2
4 2 6 0 30
4 22 8 34 24
4 9 22 35 24
4 22 9 35 5
4 22 8 4 34
4 10 25 37 32
4 25 11 36 33
4 5 22 33 35
4 22 4 32 34
4 7 5 33 11
4 4 6 32 10
4 22 23 33 25
4 23 22 32 25
4 23 7 33 36
4 6 23 32 37
4 37 12 6 26
4 26 36 7 23
4 26 36 13 7
4 6 37 26 23
4 33 36 7 11
4 10 37 6 32
4 25 23 37 32
4 33 23 36 25
4 5 33 11 35
4 34 10 4 32
4 22 25 34 32
4 33 25 35 22
4 11 13 36 7
4 12 10 37 6
4 25 26 37 23
4 26 25 36 23
4 11 9 5 35
4 34 10 8 4
4 34 24 25 22
4 25 24 35 22
4 25 11 33 35
4 10 25 32 34
4 25 14 10 37
4 15 25 11 36
4 25 14 37 27
4 15 25 36 27
4 28 15 36 27
4 13 11 36 15
4 10 12 37 14
4 26 25 27 36
4 26 25 37 27
4 36 26 28 27
4 18 12 28 29
4 26 28 12 29
4 19 28 13 29
4 26 13 28 29
4 26 28 13 36
4 28 13 17 19
4 28 16 12 18
4 12 26 27 28
4 27 26 12 37
4 27 16 12 28
4 15 28 13 17
4 15 13 28 36
4 27 14 12 16
4 12 14 27 37

CELL_TYPES 84
10
10
10
10
10
10
10
10
10
10
10
10
10
10
10
10
10
10
10
10
10
10
10
10
10
10
10
10
10
10
10
10
10
10
10
10
10
10
10
10
10
10
10
10
10
10
10
10
10
10
10
10
10
10
10
10
10
10
10
10
10
10
10
10
10
10
10
10
10
10
10
10
10
10
10
10
10
10
10
10
10
10
10
10
POINT_DATA 38
FIELD FieldData 2
DISPLACEMENT 3 38  float
0.0000000e+00 0.0000000e+00 0.0000000e+00 
0.0000000e+00 0.0000000e+00 0.0000000e+00 
0.0000000e+00 0.0000000e+00 0.0000000e+00 
0.0000000e+00 0.0000000e+00 0.0000000e+00 
0.0000000e+00 5.6779631e-10 0.0000000e+00 
0.0000000e+00 6.2321653e-10 0.0000000e+00 
0.0000000e+00 1.6357136e-11 0.0000000e+00 
0.0000000e+00 -4.6353058e-10 0.0000000e+00 
0.0000000e+00 3.0765515e-10 0.0000000e+00 
0.0000000e+00 3.2398703e-10 0.0000000e+00 
0.0000000e+00 4.0127697e-09 0.0000000e+00 
0.0000000e+00 4.1300647e-09 0.0000000e+00 
0.0000000e+00 1.4299654e-09 0.0000000e+00 
0.0000000e+00 4.2983095e-10 0.0000000e+00 
0.0000000e+00 4.9176592e-09 0.0000000e+00 
-3.0521539e-09 3.5687580e-09 -2.8317575e-09 
0.0000000e+00 7.2763524e-09 0.0000000e+00 
0.0000000e+00 -2.2592239e-11 0.0000000e+00 
0.0000000e+00 2.4541935e-09 0.0000000e+00 
0.0000000e+00 -1.0624106e-10 0.0000000e+00 
0.0000000e+00 0.0000000e+00 0.0000000e+00 
0.0000000e+00 0.0000000e+00 0.0000000e+00 
0.0000000e+00 -4.0488084e-09 0.0000000e+00 
0.0000000e+00 -2.0183897e-08 0.0000000e+00 
0.0000000e+00 -4.3635109e-09 0.0000000e+00 
4.2381259e-09 -1.8985308e-08 -1.2038898e-10 
0.0000000e+00 -5.1914483e-08 0.0000000e+00 
4.2509587e-09 -6.2483544e-08 -1.5641141e-09 
0.0000000e+00 -9.3699882e-08 0.0000000e+00 
0.0000000e+00 -7.5300235e-08 0.0000000e+00 
0.0000000e+00 0.0000000e+00 0.0000000e+00 
0.0000000e+00 0.0000000e+00 0.0000000e+00 
2.3311328e-09 -5.6487242e-09 -1.4199651e-09 
3.0655987e-09 -6.4904890e-09 1.3123979e-09 
7.5070966e-10 -3.4692120e-09 -4.5886427e-11 
6.9194406e-10 -3.5832326e-09 -1.2911553e-11 
6.7055335e-09 -1.9972617e-08 3.4472543e-09 
4.7883293e-09 -1.6786224e-08 -3.6768457e-09 
TOTAL_DISPLACEMENT 3 38  float
0.0000000e+00 0.0000000e+00 0.0000000e+00 
0.0000000e+00 0.0000000e+00 0.0000000e+00 
0.0000000e+00 0.0000000e+00 0.0000000e+00 
0.0000000e+00 0.0000000e+00 0.0000000e+00 
0.0000000e+00 0.0000000e+00 0.0000000e+00 
0.0000000e+00 0.0000000e+00 0.0000000e+00 
0.0000000e+00 0.0000000e+00 0.0000000e+00 
0.0000000e+00 0.0000000e+00 0.0000000e+00 
0.0000000e+00 0.0000000e+00 0.0000000e+00 
0.0000000e+00 0.0000000e+00 0.0000000e+00 
0.0000000e+00 0.0000000e+00 0.0000000e+00 
0.0000000e+00 0.0000000e+00 0.0000000e+00 
0.0000000e+00 0.0000000e+00 0.0000000e+00 
0.0000000e+00 0.0000000e+00 0.0000000e+00 
0.0000000e+00 0.0000000e+00 0.0000000e+00 
0.0000000e+00 0.0000000e+00 0.0000000e+00 
0.0000000e+00 0.0000000e+00 0.0000000e+00 
0.0000000e+00 0.0000000e+00 0.0000000e+00 
0.0000000e+00 0.0000000e+00 0.0000000e+00 
0.0000000e+00 0.0000000e+00 0.0000000e+00 
0.0000000e+00 0.0000000e+00 0.0000000e+00 
0.0000000e+00 0.0000000e+00 0.0000000e+00 
0.0000000e+00 0.0000000e+00 0.0000000e+00 
0.0000000e+00 0.0000000e+00 0.0000000e+00 
0.0000000e+00 0.0000000e+00 0.0000000e+00 
0.0000000e+00 0.0000000e+00 0.0000000e+00 
0.0000000e+00 0.0000000e+00 0.0000000e+00 
0.0000000e+00 0.0000000e+00 0.0000000e+00 
0.0000000e+00 0.0000000e+00 0.0000000e+00 
0.0000000e+00 0.0000000e+00 0.0000000e+00 
0.0000000e+00 0.0000000e+00 0.0000000e+00 
0.0000000e+00 0.0000000e+00 0.0000000e+00 
0.0000000e+00 0.0000000e+00 0.0000000e+00 
0.0000000e+00 0.0000000e+00 0.0000000e+00 
0.0000000e+00 0.0000000e+00 0.0000000e+00 
0.0000000e+00 0.0000000e+00 0.0000000e+00 
0.0000000e+00 0.0000000e+00 0.0000000e+00 
0.0000000e+00 0.0000000e+00 0.0000000e+00 
CELL_DATA 84
FIELD FieldData 0
