# vtk DataFile Version 4.0
vtk output
ASCII
DATASET UNSTRUCTURED_GRID
POINTS 53 float
0.0000000e+00 0.0000000e+00 0.0000000e+00 
1.0000000e+00 0.0000000e+00 0.0000000e+00 
1.0000000e+00 1.0000000e+01 0.0000000e+00 
0.0000000e+00 1.0000000e+01 0.0000000e+00 
5.0000000e-01 0.0000000e+00 0.0000000e+00 
1.0000000e+00 2.0000000e+00 0.0000000e+00 
1.0000000e+00 4.0000000e+00 0.0000000e+00 
1.0000000e+00 6.0000000e+00 0.0000000e+00 
1.0000000e+00 8.0000000e+00 0.0000000e+00 
1.0000000e+00 1.0000000e+00 0.0000000e+00 
1.0000000e+00 3.0000000e+00 0.0000000e+00 
1.0000000e+00 5.0000000e+00 0.0000000e+00 
1.0000000e+00 7.0000000e+00 0.0000000e+00 
1.0000000e+00 9.0000000e+00 0.0000000e+00 
5.0000000e-01 1.0000000e+01 0.0000000e+00 
0.0000000e+00 8.0000000e+00 0.0000000e+00 
0.0000000e+00 6.0000000e+00 0.0000000e+00 
0.0000000e+00 4.0000000e+00 0.0000000e+00 
0.0000000e+00 2.0000000e+00 0.0000000e+00 
0.0000000e+00 9.0000000e+00 0.0000000e+00 
0.0000000e+00 7.0000000e+00 0.0000000e+00 
0.0000000e+00 5.0000000e+00 0.0000000e+00 
0.0000000e+00 3.0000000e+00 0.0000000e+00 
0.0000000e+00 1.0000000e+00 0.0000000e+00 
5.0000000e-01 9.0000000e+00 0.0000000e+00 
5.0000000e-01 1.0000000e+00 0.0000000e+00 
5.0000000e-01 3.0000000e+00 0.0000000e+00 
5.0000000e-01 5.0000000e+00 0.0000000e+00 
5.0000000e-01 7.0000000e+00 0.0000000e+00 
2.5000000e-01 3.5000000e+00 0.0000000e+00 
7.5000000e-01 3.5000000e+00 0.0000000e+00 
5.0000000e-01 4.0000000e+00 0.0000000e+00 
2.5000000e-01 5.5000000e+00 0.0000000e+00 
7.5000000e-01 5.5000000e+00 0.0000000e+00 
5.0000000e-01 6.0000000e+00 0.0000000e+00 
2.5000000e-01 7.5000000e+00 0.0000000e+00 
7.5000000e-01 7.5000000e+00 0.0000000e+00 
5.0000000e-01 8.0000000e+00 0.0000000e+00 
7.5000000e-01 5.0000000e-01 0.0000000e+00 
2.5000000e-01 5.0000000e-01 0.0000000e+00 
2.5000000e-01 9.5000000e+00 0.0000000e+00 
7.5000000e-01 9.5000000e+00 0.0000000e+00 
2.5000000e-01 1.5000000e+00 0.0000000e+00 
7.5000000e-01 1.5000000e+00 0.0000000e+00 
5.0000000e-01 2.0000000e+00 0.0000000e+00 
7.5000000e-01 8.5000000e+00 0.0000000e+00 
2.5000000e-01 8.5000000e+00 0.0000000e+00 
7.5000000e-01 4.5000000e+00 0.0000000e+00 
2.5000000e-01 4.5000000e+00 0.0000000e+00 
7.5000000e-01 6.5000000e+00 0.0000000e+00 
2.5000000e-01 6.5000000e+00 0.0000000e+00 
7.5000000e-01 2.5000000e+00 0.0000000e+00 
2.5000000e-01 2.5000000e+00 0.0000000e+00 

CELLS 20 140
6 17 26 6 29 30 31
6 16 27 7 32 33 34
6 15 28 8 35 36 37
6 1 25 0 38 39 4
6 3 24 2 40 41 14
6 18 25 5 42 43 44
6 8 24 15 45 46 37
6 6 27 17 47 48 31
6 7 28 16 49 50 34
6 5 26 18 51 52 44
6 0 25 18 39 42 23
6 5 25 1 43 38 9
6 2 24 8 41 45 13
6 15 24 3 46 40 19
6 6 26 5 30 51 10
6 7 27 6 33 47 11
6 8 28 7 36 49 12
6 16 28 15 50 35 20
6 17 27 16 48 32 21
6 18 26 17 52 29 22

CELL_TYPES 20
22
22
22
22
22
22
22
22
22
22
22
22
22
22
22
22
22
22
22
22
POINT_DATA 53
FIELD FieldData 2
DISPLACEMENT 3 53  float
0.0000000e+00 -1.1868236e-07 0.0000000e+00 
0.0000000e+00 -1.1868236e-07 0.0000000e+00 
0.0000000e+00 -9.8028158e-07 0.0000000e+00 
0.0000000e+00 -9.8028158e-07 0.0000000e+00 
-8.7305926e-24 -1.1862685e-07 0.0000000e+00 
0.0000000e+00 -2.4000735e-07 0.0000000e+00 
0.0000000e+00 -4.2375885e-07 0.0000000e+00 
0.0000000e+00 -6.2624611e-07 0.0000000e+00 
0.0000000e+00 -7.9701010e-07 0.0000000e+00 
0.0000000e+00 -1.7111729e-07 0.0000000e+00 
0.0000000e+00 -3.2562781e-07 0.0000000e+00 
0.0000000e+00 -5.2708373e-07 0.0000000e+00 
0.0000000e+00 -7.1410034e-07 0.0000000e+00 
0.0000000e+00 -8.8824783e-07 0.0000000e+00 
2.5642599e-22 -9.7937891e-07 0.0000000e+00 
0.0000000e+00 -7.9701010e-07 0.0000000e+00 
0.0000000e+00 -6.2624611e-07 0.0000000e+00 
0.0000000e+00 -4.2375885e-07 0.0000000e+00 
0.0000000e+00 -2.4000735e-07 0.0000000e+00 
0.0000000e+00 -8.8824783e-07 0.0000000e+00 
0.0000000e+00 -7.1410034e-07 0.0000000e+00 
0.0000000e+00 -5.2708373e-07 0.0000000e+00 
0.0000000e+00 -3.2562781e-07 0.0000000e+00 
0.0000000e+00 -1.7111729e-07 0.0000000e+00 
-2.2525160e-22 -8.8803938e-07 0.0000000e+00 
-1.4115235e-23 -1.7109215e-07 0.0000000e+00 
1.9096096e-23 -3.2558191e-07 0.0000000e+00 
5.5907178e-23 -5.2711493e-07 0.0000000e+00 
6.2187256e-23 -7.1430094e-07 0.0000000e+00 
-9.4597767e-12 -3.7337426e-07 0.0000000e+00 
9.4597767e-12 -3.7337426e-07 0.0000000e+00 
1.8337809e-24 -4.2383027e-07 0.0000000e+00 
3.1958929e-11 -5.7748582e-07 0.0000000e+00 
-3.1958929e-11 -5.7748582e-07 0.0000000e+00 
7.0142175e-24 -6.2574861e-07 0.0000000e+00 
-2.2888883e-11 -7.5582165e-07 0.0000000e+00 
2.2888883e-11 -7.5582165e-07 0.0000000e+00 
-7.3212685e-23 -7.9766863e-07 0.0000000e+00 
-6.1845596e-14 -1.4287033e-07 0.0000000e+00 
6.1845596e-14 -1.4287033e-07 0.0000000e+00 
3.6733179e-11 -9.3460540e-07 0.0000000e+00 
-3.6733179e-11 -9.3460540e-07 0.0000000e+00 
-1.1176277e-11 -2.0348570e-07 0.0000000e+00 
1.1176277e-11 -2.0348570e-07 0.0000000e+00 
1.1417611e-23 -2.4017010e-07 0.0000000e+00 
-5.2335823e-11 -8.4190532e-07 0.0000000e+00 
5.2335823e-11 -8.4190532e-07 0.0000000e+00 
2.8893713e-12 -4.7560599e-07 0.0000000e+00 
-2.8893713e-12 -4.7560599e-07 0.0000000e+00 
3.8593698e-11 -6.7119214e-07 0.0000000e+00 
-3.8593698e-11 -6.7119214e-07 0.0000000e+00 
-1.3952199e-11 -2.8102764e-07 0.0000000e+00 
1.3952199e-11 -2.8102764e-07 0.0000000e+00 
VELOCITY 3 53  float
0.0000000e+00 -1.1743174e-05 0.0000000e+00 
0.0000000e+00 -1.1743174e-05 0.0000000e+00 
0.0000000e+00 -2.0759328e-05 0.0000000e+00 
0.0000000e+00 -2.0759328e-05 0.0000000e+00 
-1.8295062e-21 -1.1770097e-05 0.0000000e+00 
0.0000000e+00 -1.9690222e-05 0.0000000e+00 
0.0000000e+00 -2.5333800e-05 0.0000000e+00 
0.0000000e+00 -2.2675458e-05 0.0000000e+00 
0.0000000e+00 -2.1305048e-05 0.0000000e+00 
0.0000000e+00 -1.5628821e-05 0.0000000e+00 
0.0000000e+00 -2.3248671e-05 0.0000000e+00 
0.0000000e+00 -2.4989988e-05 0.0000000e+00 
0.0000000e+00 -2.0336603e-05 0.0000000e+00 
0.0000000e+00 -2.2849075e-05 0.0000000e+00 
7.6100616e-21 -2.1231985e-05 0.0000000e+00 
0.0000000e+00 -2.1305048e-05 0.0000000e+00 
0.0000000e+00 -2.2675458e-05 0.0000000e+00 
0.0000000e+00 -2.5333800e-05 0.0000000e+00 
0.0000000e+00 -1.9690222e-05 0.0000000e+00 
0.0000000e+00 -2.2849075e-05 0.0000000e+00 
0.0000000e+00 -2.0336603e-05 0.0000000e+00 
0.0000000e+00 -2.4989988e-05 0.0000000e+00 
0.0000000e+00 -2.3248671e-05 0.0000000e+00 
0.0000000e+00 -1.5628821e-05 0.0000000e+00 
-2.7813932e-21 -2.3481360e-05 0.0000000e+00 
-1.1706093e-21 -1.5625385e-05 0.0000000e+00 
2.1598788e-21 -2.3249106e-05 0.0000000e+00 
2.6976923e-21 -2.5013836e-05 0.0000000e+00 
2.5526335e-21 -2.0332276e-05 0.0000000e+00 
3.0592133e-09 -2.4509727e-05 0.0000000e+00 
-3.0592133e-09 -2.4509727e-05 0.0000000e+00 
1.3216692e-21 -2.5282303e-05 0.0000000e+00 
5.5916853e-09 -2.4026049e-05 0.0000000e+00 
-5.5916853e-09 -2.4026049e-05 0.0000000e+00 
1.5046702e-21 -2.2620876e-05 0.0000000e+00 
2.3975670e-09 -2.0305621e-05 0.0000000e+00 
-2.3975670e-09 -2.0305621e-05 0.0000000e+00 
-4.9282031e-21 -2.1228025e-05 0.0000000e+00 
-1.9914712e-09 -1.3643744e-05 0.0000000e+00 
1.9914712e-09 -1.3643744e-05 0.0000000e+00 
2.1914760e-08 -2.1953194e-05 0.0000000e+00 
-2.1914760e-08 -2.1953194e-05 0.0000000e+00 
-1.1667312e-09 -1.7660839e-05 0.0000000e+00 
1.1667312e-09 -1.7660839e-05 0.0000000e+00 
5.5688233e-22 -1.9700527e-05 0.0000000e+00 
3.8666183e-08 -2.2773713e-05 0.0000000e+00 
-3.8666183e-08 -2.2773713e-05 0.0000000e+00 
5.4054272e-09 -2.5453450e-05 0.0000000e+00 
-5.4054272e-09 -2.5453450e-05 0.0000000e+00 
4.5631516e-09 -2.1212449e-05 0.0000000e+00 
-4.5631516e-09 -2.1212449e-05 0.0000000e+00 
-7.0304353e-11 -2.1615973e-05 0.0000000e+00 
7.0304353e-11 -2.1615973e-05 0.0000000e+00 
CELL_DATA 20
FIELD FieldData 0
