# vtk DataFile Version 4.0
vtk output
ASCII
DATASET UNSTRUCTURED_GRID
POINTS 1439 float
0.0000000e+00 0.0000000e+00 0.0000000e+00 
0.0000000e+00 0.0000000e+00 2.0000000e+01 
3.4700000e+00 0.0000000e+00 0.0000000e+00 
3.4700000e+00 0.0000000e+00 2.0000000e+01 
3.4700000e+00 1.0000000e+00 0.0000000e+00 
3.4700000e+00 1.0000000e+00 2.0000000e+01 
0.0000000e+00 1.0000000e+00 0.0000000e+00 
0.0000000e+00 1.0000000e+00 2.0000000e+01 
1.2500000e+00 2.5000000e+00 0.0000000e+00 
1.2500000e+00 2.5000000e+00 1.1700000e-01 
7.5000000e-01 2.5000000e+00 1.1700000e-01 
7.5000000e-01 2.5000000e+00 0.0000000e+00 
0.0000000e+00 2.5000000e+00 0.0000000e+00 
0.0000000e+00 2.5000000e+00 1.1700000e-01 
1.2500000e+00 2.8000000e+00 1.1700000e-01 
1.2500000e+00 2.8000000e+00 0.0000000e+00 
0.0000000e+00 2.8000000e+00 0.0000000e+00 
0.0000000e+00 2.8000000e+00 1.1700000e-01 
7.5000000e-01 2.5000000e+00 8.8300002e-01 
1.2500000e+00 2.5000000e+00 8.8300002e-01 
1.2500000e+00 2.5000000e+00 1.1170000e+00 
7.5000000e-01 2.5000000e+00 1.1170000e+00 
7.5000000e-01 2.5000000e+00 1.0000000e+00 
0.0000000e+00 2.5000000e+00 8.8300002e-01 
0.0000000e+00 2.5000000e+00 1.1170000e+00 
1.2500000e+00 2.8000000e+00 1.1170000e+00 
1.2500000e+00 2.8000000e+00 8.8300002e-01 
0.0000000e+00 2.8000000e+00 8.8300002e-01 
0.0000000e+00 2.8000000e+00 1.1170000e+00 
7.5000000e-01 2.5000000e+00 1.8830000e+00 
1.2500000e+00 2.5000000e+00 1.8830000e+00 
1.2500000e+00 2.5000000e+00 2.1170001e+00 
7.5000000e-01 2.5000000e+00 2.1170001e+00 
7.5000000e-01 2.5000000e+00 2.0000000e+00 
0.0000000e+00 2.5000000e+00 1.8830000e+00 
0.0000000e+00 2.5000000e+00 2.1170001e+00 
1.2500000e+00 2.8000000e+00 2.1170001e+00 
1.2500000e+00 2.8000000e+00 1.8830000e+00 
0.0000000e+00 2.8000000e+00 1.8830000e+00 
0.0000000e+00 2.8000000e+00 2.1170001e+00 
7.5000000e-01 2.5000000e+00 2.8829999e+00 
1.2500000e+00 2.5000000e+00 2.8829999e+00 
1.2500000e+00 2.5000000e+00 3.1170001e+00 
7.5000000e-01 2.5000000e+00 3.1170001e+00 
7.5000000e-01 2.5000000e+00 3.0000000e+00 
0.0000000e+00 2.5000000e+00 2.8829999e+00 
0.0000000e+00 2.5000000e+00 3.1170001e+00 
1.2500000e+00 2.8000000e+00 3.1170001e+00 
1.2500000e+00 2.8000000e+00 2.8829999e+00 
0.0000000e+00 2.8000000e+00 2.8829999e+00 
0.0000000e+00 2.8000000e+00 3.1170001e+00 
7.5000000e-01 2.5000000e+00 3.8829999e+00 
1.2500000e+00 2.5000000e+00 3.8829999e+00 
1.2500000e+00 2.5000000e+00 4.1170001e+00 
7.5000000e-01 2.5000000e+00 4.1170001e+00 
7.5000000e-01 2.5000000e+00 4.0000000e+00 
0.0000000e+00 2.5000000e+00 3.8829999e+00 
0.0000000e+00 2.5000000e+00 4.1170001e+00 
1.2500000e+00 2.8000000e+00 4.1170001e+00 
1.2500000e+00 2.8000000e+00 3.8829999e+00 
0.0000000e+00 2.8000000e+00 3.8829999e+00 
0.0000000e+00 2.8000000e+00 4.1170001e+00 
7.5000000e-01 2.5000000e+00 4.8829999e+00 
1.2500000e+00 2.5000000e+00 4.8829999e+00 
1.2500000e+00 2.5000000e+00 5.1170001e+00 
7.5000000e-01 2.5000000e+00 5.1170001e+00 
7.5000000e-01 2.5000000e+00 5.0000000e+00 
0.0000000e+00 2.5000000e+00 4.8829999e+00 
0.0000000e+00 2.5000000e+00 5.1170001e+00 
1.2500000e+00 2.8000000e+00 5.1170001e+00 
1.2500000e+00 2.8000000e+00 4.8829999e+00 
0.0000000e+00 2.8000000e+00 4.8829999e+00 
0.0000000e+00 2.8000000e+00 5.1170001e+00 
7.5000000e-01 2.5000000e+00 5.8829999e+00 
1.2500000e+00 2.5000000e+00 5.8829999e+00 
1.2500000e+00 2.5000000e+00 6.1170001e+00 
7.5000000e-01 2.5000000e+00 6.1170001e+00 
7.5000000e-01 2.5000000e+00 6.0000000e+00 
0.0000000e+00 2.5000000e+00 5.8829999e+00 
0.0000000e+00 2.5000000e+00 6.1170001e+00 
1.2500000e+00 2.8000000e+00 6.1170001e+00 
1.2500000e+00 2.8000000e+00 5.8829999e+00 
0.0000000e+00 2.8000000e+00 5.8829999e+00 
0.0000000e+00 2.8000000e+00 6.1170001e+00 
7.5000000e-01 2.5000000e+00 6.8829999e+00 
1.2500000e+00 2.5000000e+00 6.8829999e+00 
1.2500000e+00 2.5000000e+00 7.1170001e+00 
7.5000000e-01 2.5000000e+00 7.1170001e+00 
7.5000000e-01 2.5000000e+00 7.0000000e+00 
0.0000000e+00 2.5000000e+00 6.8829999e+00 
0.0000000e+00 2.5000000e+00 7.1170001e+00 
1.2500000e+00 2.8000000e+00 7.1170001e+00 
1.2500000e+00 2.8000000e+00 6.8829999e+00 
0.0000000e+00 2.8000000e+00 6.8829999e+00 
0.0000000e+00 2.8000000e+00 7.1170001e+00 
7.5000000e-01 2.5000000e+00 7.8829999e+00 
1.2500000e+00 2.5000000e+00 7.8829999e+00 
1.2500000e+00 2.5000000e+00 8.1169996e+00 
7.5000000e-01 2.5000000e+00 8.1169996e+00 
7.5000000e-01 2.5000000e+00 8.0000000e+00 
0.0000000e+00 2.5000000e+00 7.8829999e+00 
0.0000000e+00 2.5000000e+00 8.1169996e+00 
1.2500000e+00 2.8000000e+00 8.1169996e+00 
1.2500000e+00 2.8000000e+00 7.8829999e+00 
0.0000000e+00 2.8000000e+00 7.8829999e+00 
0.0000000e+00 2.8000000e+00 8.1169996e+00 
7.5000000e-01 2.5000000e+00 8.8830004e+00 
1.2500000e+00 2.5000000e+00 8.8830004e+00 
1.2500000e+00 2.5000000e+00 9.1169996e+00 
7.5000000e-01 2.5000000e+00 9.1169996e+00 
7.5000000e-01 2.5000000e+00 9.0000000e+00 
0.0000000e+00 2.5000000e+00 8.8830004e+00 
0.0000000e+00 2.5000000e+00 9.1169996e+00 
1.2500000e+00 2.8000000e+00 9.1169996e+00 
1.2500000e+00 2.8000000e+00 8.8830004e+00 
0.0000000e+00 2.8000000e+00 8.8830004e+00 
0.0000000e+00 2.8000000e+00 9.1169996e+00 
7.5000000e-01 2.5000000e+00 9.8830004e+00 
1.2500000e+00 2.5000000e+00 9.8830004e+00 
1.2500000e+00 2.5000000e+00 1.0117000e+01 
7.5000000e-01 2.5000000e+00 1.0117000e+01 
7.5000000e-01 2.5000000e+00 1.0000000e+01 
0.0000000e+00 2.5000000e+00 9.8830004e+00 
0.0000000e+00 2.5000000e+00 1.0117000e+01 
1.2500000e+00 2.8000000e+00 1.0117000e+01 
1.2500000e+00 2.8000000e+00 9.8830004e+00 
0.0000000e+00 2.8000000e+00 9.8830004e+00 
0.0000000e+00 2.8000000e+00 1.0117000e+01 
7.5000000e-01 2.5000000e+00 1.0883000e+01 
1.2500000e+00 2.5000000e+00 1.0883000e+01 
1.2500000e+00 2.5000000e+00 1.1117000e+01 
7.5000000e-01 2.5000000e+00 1.1117000e+01 
7.5000000e-01 2.5000000e+00 1.1000000e+01 
0.0000000e+00 2.5000000e+00 1.0883000e+01 
0.0000000e+00 2.5000000e+00 1.1117000e+01 
1.2500000e+00 2.8000000e+00 1.1117000e+01 
1.2500000e+00 2.8000000e+00 1.0883000e+01 
0.0000000e+00 2.8000000e+00 1.0883000e+01 
0.0000000e+00 2.8000000e+00 1.1117000e+01 
7.5000000e-01 2.5000000e+00 1.1883000e+01 
1.2500000e+00 2.5000000e+00 1.1883000e+01 
1.2500000e+00 2.5000000e+00 1.2117000e+01 
7.5000000e-01 2.5000000e+00 1.2117000e+01 
7.5000000e-01 2.5000000e+00 1.2000000e+01 
0.0000000e+00 2.5000000e+00 1.1883000e+01 
0.0000000e+00 2.5000000e+00 1.2117000e+01 
1.2500000e+00 2.8000000e+00 1.2117000e+01 
1.2500000e+00 2.8000000e+00 1.1883000e+01 
0.0000000e+00 2.8000000e+00 1.1883000e+01 
0.0000000e+00 2.8000000e+00 1.2117000e+01 
7.5000000e-01 2.5000000e+00 1.2883000e+01 
1.2500000e+00 2.5000000e+00 1.2883000e+01 
1.2500000e+00 2.5000000e+00 1.3117000e+01 
7.5000000e-01 2.5000000e+00 1.3117000e+01 
7.5000000e-01 2.5000000e+00 1.3000000e+01 
0.0000000e+00 2.5000000e+00 1.2883000e+01 
0.0000000e+00 2.5000000e+00 1.3117000e+01 
1.2500000e+00 2.8000000e+00 1.3117000e+01 
1.2500000e+00 2.8000000e+00 1.2883000e+01 
0.0000000e+00 2.8000000e+00 1.2883000e+01 
0.0000000e+00 2.8000000e+00 1.3117000e+01 
7.5000000e-01 2.5000000e+00 1.3883000e+01 
1.2500000e+00 2.5000000e+00 1.3883000e+01 
1.2500000e+00 2.5000000e+00 1.4117000e+01 
7.5000000e-01 2.5000000e+00 1.4117000e+01 
7.5000000e-01 2.5000000e+00 1.4000000e+01 
0.0000000e+00 2.5000000e+00 1.3883000e+01 
0.0000000e+00 2.5000000e+00 1.4117000e+01 
1.2500000e+00 2.8000000e+00 1.4117000e+01 
1.2500000e+00 2.8000000e+00 1.3883000e+01 
0.0000000e+00 2.8000000e+00 1.3883000e+01 
0.0000000e+00 2.8000000e+00 1.4117000e+01 
7.5000000e-01 2.5000000e+00 1.4883000e+01 
1.2500000e+00 2.5000000e+00 1.4883000e+01 
1.2500000e+00 2.5000000e+00 1.5117000e+01 
7.5000000e-01 2.5000000e+00 1.5117000e+01 
7.5000000e-01 2.5000000e+00 1.5000000e+01 
0.0000000e+00 2.5000000e+00 1.4883000e+01 
0.0000000e+00 2.5000000e+00 1.5117000e+01 
1.2500000e+00 2.8000000e+00 1.5117000e+01 
1.2500000e+00 2.8000000e+00 1.4883000e+01 
0.0000000e+00 2.8000000e+00 1.4883000e+01 
0.0000000e+00 2.8000000e+00 1.5117000e+01 
7.5000000e-01 2.5000000e+00 1.5883000e+01 
1.2500000e+00 2.5000000e+00 1.5883000e+01 
1.2500000e+00 2.5000000e+00 1.6117001e+01 
7.5000000e-01 2.5000000e+00 1.6117001e+01 
7.5000000e-01 2.5000000e+00 1.6000000e+01 
0.0000000e+00 2.5000000e+00 1.5883000e+01 
0.0000000e+00 2.5000000e+00 1.6117001e+01 
1.2500000e+00 2.8000000e+00 1.6117001e+01 
1.2500000e+00 2.8000000e+00 1.5883000e+01 
0.0000000e+00 2.8000000e+00 1.5883000e+01 
0.0000000e+00 2.8000000e+00 1.6117001e+01 
7.5000000e-01 2.5000000e+00 1.6882999e+01 
1.2500000e+00 2.5000000e+00 1.6882999e+01 
1.2500000e+00 2.5000000e+00 1.7117001e+01 
7.5000000e-01 2.5000000e+00 1.7117001e+01 
7.5000000e-01 2.5000000e+00 1.7000000e+01 
0.0000000e+00 2.5000000e+00 1.6882999e+01 
0.0000000e+00 2.5000000e+00 1.7117001e+01 
1.2500000e+00 2.8000000e+00 1.7117001e+01 
1.2500000e+00 2.8000000e+00 1.6882999e+01 
0.0000000e+00 2.8000000e+00 1.6882999e+01 
0.0000000e+00 2.8000000e+00 1.7117001e+01 
7.5000000e-01 2.5000000e+00 1.7882999e+01 
1.2500000e+00 2.5000000e+00 1.7882999e+01 
1.2500000e+00 2.5000000e+00 1.8117001e+01 
7.5000000e-01 2.5000000e+00 1.8117001e+01 
7.5000000e-01 2.5000000e+00 1.8000000e+01 
0.0000000e+00 2.5000000e+00 1.7882999e+01 
0.0000000e+00 2.5000000e+00 1.8117001e+01 
1.2500000e+00 2.8000000e+00 1.8117001e+01 
1.2500000e+00 2.8000000e+00 1.7882999e+01 
0.0000000e+00 2.8000000e+00 1.7882999e+01 
0.0000000e+00 2.8000000e+00 1.8117001e+01 
7.5000000e-01 2.5000000e+00 1.8882999e+01 
1.2500000e+00 2.5000000e+00 1.8882999e+01 
1.2500000e+00 2.5000000e+00 1.9117001e+01 
7.5000000e-01 2.5000000e+00 1.9117001e+01 
7.5000000e-01 2.5000000e+00 1.9000000e+01 
0.0000000e+00 2.5000000e+00 1.8882999e+01 
0.0000000e+00 2.5000000e+00 1.9117001e+01 
1.2500000e+00 2.8000000e+00 1.9117001e+01 
1.2500000e+00 2.8000000e+00 1.8882999e+01 
0.0000000e+00 2.8000000e+00 1.8882999e+01 
0.0000000e+00 2.8000000e+00 1.9117001e+01 
3.4700000e+00 2.5000000e+00 0.0000000e+00 
3.4700000e+00 2.5000000e+00 2.0000000e+01 
7.5000000e-01 2.5000000e+00 1.9882999e+01 
[...]
POINT_DATA 1439
FIELD FieldData 1
DISPLACEMENT 3 1439  float
0.0000000e+00 0.0000000e+00 0.0000000e+00 
0.0000000e+00 0.0000000e+00 0.0000000e+00 
0.0000000e+00 0.0000000e+00 0.0000000e+00 
0.0000000e+00 0.0000000e+00 0.0000000e+00 
0.0000000e+00 8.1256808e-08 0.0000000e+00 
0.0000000e+00 1.0485618e-07 0.0000000e+00 
0.0000000e+00 -1.5138563e-07 0.0000000e+00 
0.0000000e+00 -1.6466595e-07 0.0000000e+00 
0.0000000e+00 -6.2772806e-06 0.0000000e+00 
9.8739177e-11 -6.2772256e-06 8.0013468e-11 
-3.1653267e-11 -6.2776944e-06 9.1236664e-11 
0.0000000e+00 -6.2777976e-06 0.0000000e+00 
0.0000000e+00 -6.2764411e-06 0.0000000e+00 
0.0000000e+00 -6.2764807e-06 0.0000000e+00 
-5.5055353e-11 -6.2777140e-06 -9.9798841e-12 
0.0000000e+00 -6.2776762e-06 0.0000000e+00 
0.0000000e+00 -6.2769386e-06 0.0000000e+00 
0.0000000e+00 -6.2768736e-06 0.0000000e+00 
1.6319918e-10 -5.1027723e-06 3.7096787e-10 
5.4561489e-10 -5.1029178e-06 7.8596463e-10 
3.6072967e-10 -5.1028624e-06 9.0836105e-10 
-7.3791242e-12 -5.1027259e-06 5.2513105e-10 
5.1566713e-11 -5.1028178e-06 4.4566989e-10 
0.0000000e+00 -5.1009933e-06 0.0000000e+00 
0.0000000e+00 -5.1009579e-06 0.0000000e+00 
3.7611364e-10 -5.1032916e-06 7.5090612e-10 
5.5393218e-10 -5.1033608e-06 7.9208562e-10 
0.0000000e+00 -5.1013744e-06 0.0000000e+00 
0.0000000e+00 -5.1013249e-06 0.0000000e+00 
1.2400761e-10 -1.8919649e-06 2.5164587e-10 
3.3126218e-10 -1.8919627e-06 5.5610377e-10 
1.9215286e-10 -1.8919611e-06 6.2152594e-10 
7.4547634e-12 -1.8919663e-06 3.3383590e-10 
5.3393037e-11 -1.8920056e-06 2.9076802e-10 
0.0000000e+00 -1.8911569e-06 0.0000000e+00 
0.0000000e+00 -1.8911542e-06 0.0000000e+00 
1.5503529e-10 -1.8921874e-06 5.7036403e-10 
2.9107236e-10 -1.8921933e-06 5.9273608e-10 
0.0000000e+00 -1.8913543e-06 0.0000000e+00 
0.0000000e+00 -1.8913395e-06 0.0000000e+00 
9.8980477e-11 2.5618933e-06 3.7901871e-10 
5.5592791e-11 2.5621664e-06 6.8159028e-10 
-8.8221076e-11 2.5622121e-06 6.6173028e-10 
-1.8608335e-11 2.5619329e-06 3.5316963e-10 
4.3451447e-11 2.5619233e-06 3.6292033e-10 
0.0000000e+00 2.5614177e-06 0.0000000e+00 
0.0000000e+00 2.5614290e-06 0.0000000e+00 
-2.3374586e-10 2.5622824e-06 6.0671618e-10 
-8.7621271e-11 2.5622332e-06 5.9901267e-10 
0.0000000e+00 2.5614966e-06 0.0000000e+00 
0.0000000e+00 2.5615109e-06 0.0000000e+00 
3.5987417e-12 7.2534131e-06 2.0958096e-10 
-3.5187148e-10 7.2539365e-06 2.0996201e-10 
-3.5918926e-10 7.2540242e-06 8.9305917e-11 
5.5362815e-12 7.2534826e-06 5.1353689e-11 
2.6890386e-11 7.2535213e-06 1.2849477e-10 
0.0000000e+00 7.2514454e-06 0.0000000e+00 
0.0000000e+00 7.2514481e-06 0.0000000e+00 
-5.9803290e-10 7.2544444e-06 4.9033513e-11 
-5.8225985e-10 7.2543585e-06 7.3356954e-12 
0.0000000e+00 7.2518355e-06 0.0000000e+00 
0.0000000e+00 7.2518387e-06 0.0000000e+00 
-1.0243389e-13 1.1285403e-05 3.6457187e-10 
-6.7318395e-10 1.1286123e-05 4.4212539e-10 
-7.2580142e-10 1.1286294e-05 2.2694077e-10 
-3.5243055e-11 1.1285549e-05 6.7027377e-11 
2.9015580e-11 1.1285612e-05 2.1105738e-10 
0.0000000e+00 1.1281793e-05 0.0000000e+00 
0.0000000e+00 1.1281838e-05 0.0000000e+00 
-1.0128334e-09 1.1287056e-05 1.5445879e-10 
-9.5596175e-10 1.1286901e-05 7.0955311e-11 
0.0000000e+00 1.1282510e-05 0.0000000e+00 
0.0000000e+00 1.1282488e-05 0.0000000e+00 
8.7127465e-11 1.4088736e-05 6.8388240e-10 
-8.6084384e-10 1.4089687e-05 1.2125010e-09 
-1.1343492e-09 1.4089586e-05 9.0608088e-10 
-1.4293068e-10 1.4088635e-05 2.6483019e-10 
3.7445696e-11 1.4088881e-05 4.7448923e-10 
0.0000000e+00 1.4083482e-05 0.0000000e+00 
0.0000000e+00 1.4083459e-05 0.0000000e+00 
-1.4904614e-09 1.4090680e-05 1.2455683e-09 
-1.2223059e-09 1.4090768e-05 1.1260765e-09 
0.0000000e+00 1.4084377e-05 0.0000000e+00 
0.0000000e+00 1.4084458e-05 0.0000000e+00 
-1.7117031e-10 1.5533264e-05 -3.3995573e-10 
-1.4112816e-09 1.5534531e-05 -1.2124564e-09 
-1.0270522e-09 1.5534722e-05 -1.5864159e-09 
1.7682757e-10 1.5533396e-05 -8.5585494e-10 
9.1182874e-11 1.5533578e-05 -5.9746330e-10 
0.0000000e+00 1.5526575e-05 0.0000000e+00 
0.0000000e+00 1.5526573e-05 0.0000000e+00 
-1.5615234e-09 1.5536049e-05 -1.5622768e-09 
-1.9107258e-09 1.5535892e-05 -1.6983491e-09 
0.0000000e+00 1.5527790e-05 0.0000000e+00 
0.0000000e+00 1.5527734e-05 0.0000000e+00 
-2.3689894e-10 1.5930384e-05 1.1288238e-10 
-1.7218151e-09 1.5931142e-05 -3.5677630e-10 
-1.5464149e-09 1.5931366e-05 -7.7887768e-10 
-7.9632446e-11 1.5930587e-05 -5.0980709e-10 
-4.7194089e-11 1.5930793e-05 -2.0159577e-10 
0.0000000e+00 1.5922922e-05 0.0000000e+00 
0.0000000e+00 1.5922960e-05 0.0000000e+00 
-1.7089320e-09 1.5932892e-05 -7.6504547e-10 
-1.8743045e-09 1.5932701e-05 -9.3879715e-10 
0.0000000e+00 1.5924263e-05 0.0000000e+00 
0.0000000e+00 1.5924163e-05 0.0000000e+00 
-1.9964047e-10 1.5866386e-05 6.5790867e-10 
-1.6079137e-09 1.5866721e-05 1.2320460e-09 
-1.9124144e-09 1.5866495e-05 7.7490703e-10 
-4.6267498e-10 1.5866210e-05 6.5986841e-11 
-2.3139371e-10 1.5866581e-05 3.6092876e-10 
0.0000000e+00 1.5859750e-05 0.0000000e+00 
0.0000000e+00 1.5859734e-05 0.0000000e+00 
-1.8156899e-09 1.5868143e-05 1.3514649e-09 
-1.5375838e-09 1.5868338e-05 1.2015796e-09 
0.0000000e+00 1.5861118e-05 0.0000000e+00 
0.0000000e+00 1.5861146e-05 0.0000000e+00 
-1.1973070e-09 1.5801792e-05 -1.9251840e-10 
-2.4055853e-09 1.5799722e-05 -7.2814166e-10 
-2.1444446e-09 1.5799786e-05 -1.2286883e-09 
-9.7931896e-10 1.5801845e-05 -6.4246264e-10 
-1.0285931e-09 1.5801990e-05 -4.1573744e-10 
0.0000000e+00 1.5799762e-05 0.0000000e+00 
0.0000000e+00 1.5799742e-05 0.0000000e+00 
-7.3245926e-10 1.5801439e-05 -9.9669673e-10 
-9.8313324e-10 1.5801390e-05 -1.1129656e-09 
0.0000000e+00 1.5801153e-05 0.0000000e+00 
0.0000000e+00 1.5801170e-05 0.0000000e+00 
-5.5037153e-10 1.5879179e-05 -6.9568168e-10 
-2.0665054e-09 1.5879636e-05 -2.0253921e-09 
-1.4688820e-09 1.5879839e-05 -2.4884403e-09 
-3.3182707e-11 1.5879325e-05 -1.2967007e-09 
-1.8620762e-10 1.5879536e-05 -9.9264008e-10 
0.0000000e+00 1.5872274e-05 0.0000000e+00 
0.0000000e+00 1.5872276e-05 0.0000000e+00 
-1.4954057e-09 1.5881486e-05 -2.4270974e-09 
-2.0618165e-09 1.5881307e-05 -2.5819418e-09 
0.0000000e+00 1.5873718e-05 0.0000000e+00 
0.0000000e+00 1.5873662e-05 0.0000000e+00 
-3.7481629e-10 1.6007787e-05 -3.6690059e-10 
-1.9020667e-09 1.6008384e-05 -1.4267193e-09 
-1.4525978e-09 1.6008526e-05 -1.8460556e-09 
6.5801743e-12 1.6007925e-05 -9.8800190e-10 
-7.0690974e-11 1.6008169e-05 -6.7391520e-10 
0.0000000e+00 1.6000342e-05 0.0000000e+00 
0.0000000e+00 1.6000346e-05 0.0000000e+00 
-1.5400194e-09 1.6010084e-05 -1.7479942e-09 
-1.9542150e-09 1.6009952e-05 -1.9042272e-09 
0.0000000e+00 1.6001672e-05 0.0000000e+00 
0.0000000e+00 1.6001604e-05 0.0000000e+00 
-2.5014329e-10 1.5711907e-05 -2.4066818e-10 
-1.5127437e-09 1.5712803e-05 -1.0007105e-09 
-1.1872661e-09 1.5712982e-05 -1.3793274e-09 
1.5706087e-11 1.5712076e-05 -7.7305140e-10 
-3.0716232e-11 1.5712245e-05 -5.0731863e-10 
0.0000000e+00 1.5705609e-05 0.0000000e+00 
0.0000000e+00 1.5705647e-05 0.0000000e+00 
-1.4709675e-09 1.5714331e-05 -1.3372605e-09 
-1.7845118e-09 1.5714169e-05 -1.4883499e-09 
0.0000000e+00 1.5706830e-05 0.0000000e+00 
0.0000000e+00 1.5706744e-05 0.0000000e+00 
-1.8869668e-10 1.4393464e-05 -4.3365722e-10 
-1.2079282e-09 1.4394527e-05 -1.3123602e-09 
-8.2111706e-10 1.4394659e-05 -1.6231859e-09 
1.4113731e-10 1.4393571e-05 -8.5873164e-10 
4.5767459e-11 1.4393719e-05 -6.4234446e-10 
0.0000000e+00 1.4388032e-05 0.0000000e+00 
0.0000000e+00 1.4388050e-05 0.0000000e+00 
-1.2605463e-09 1.4395758e-05 -1.5679732e-09 
-1.6252046e-09 1.4395647e-05 -1.6779832e-09 
0.0000000e+00 1.4389057e-05 0.0000000e+00 
0.0000000e+00 1.4389009e-05 0.0000000e+00 
-1.8711009e-10 1.1685258e-05 -4.3847398e-10 
-9.2660712e-10 1.1685902e-05 -1.1989920e-09 
-5.8019567e-10 1.1686053e-05 -1.4263657e-09 
9.1668971e-11 1.1685371e-05 -7.4398998e-10 
-5.7700042e-13 1.1685454e-05 -5.8864735e-10 
0.0000000e+00 1.1681546e-05 0.0000000e+00 
0.0000000e+00 1.1681584e-05 0.0000000e+00 
-8.2381763e-10 1.1686840e-05 -1.4388192e-09 
-1.1639343e-09 1.1686711e-05 -1.5281770e-09 
0.0000000e+00 1.1682291e-05 0.0000000e+00 
0.0000000e+00 1.1682244e-05 0.0000000e+00 
-7.7740488e-11 7.6616379e-06 -5.3228516e-10 
-4.6747239e-10 7.6622991e-06 -1.1278165e-09 
-1.9843037e-10 7.6622919e-06 -1.2515021e-09 
1.5876488e-10 7.6616307e-06 -6.9680905e-10 
6.5786973e-11 7.6617052e-06 -6.1167338e-10 
0.0000000e+00 7.6593851e-06 0.0000000e+00 
0.0000000e+00 7.6593733e-06 0.0000000e+00 
-5.0765842e-10 7.6627211e-06 -1.1473934e-09 
-7.7489920e-10 7.6627402e-06 -1.1955194e-09 
0.0000000e+00 7.6598099e-06 0.0000000e+00 
0.0000000e+00 7.6597535e-06 0.0000000e+00 
-2.9445337e-12 2.8790632e-06 -4.5071188e-10 
-7.4158686e-11 2.8794871e-06 -8.5092705e-10 
1.1061663e-10 2.8794398e-06 -8.7509183e-10 
1.5631783e-10 2.8790223e-06 -4.8103449e-10 
7.8272069e-11 2.8790546e-06 -4.6318613e-10 
0.0000000e+00 2.8783761e-06 0.0000000e+00 
0.0000000e+00 2.8783679e-06 0.0000000e+00 
-1.2046372e-10 2.8795153e-06 -7.8827678e-10 
-3.0590391e-10 2.8795691e-06 -7.9872614e-10 
0.0000000e+00 2.8784798e-06 0.0000000e+00 
0.0000000e+00 2.8784477e-06 0.0000000e+00 
7.4727176e-11 -1.7131890e-06 -1.6709827e-10 
2.7046737e-10 -1.7130893e-06 -2.2485559e-10 
2.9888017e-10 -1.7131423e-06 -1.6161518e-10 
9.5657239e-11 -1.7132280e-06 -8.7444711e-11 
7.1539538e-11 -1.7132467e-06 -1.2590687e-10 
0.0000000e+00 -1.7124435e-06 0.0000000e+00 
0.0000000e+00 -1.7124494e-06 0.0000000e+00 
2.1150487e-10 -1.7133709e-06 -1.3115690e-10 
1.7684346e-10 -1.7133185e-06 -1.1140486e-10 
0.0000000e+00 -1.7126310e-06 0.0000000e+00 
0.0000000e+00 -1.7126397e-06 0.0000000e+00 
1.7939247e-11 -5.0378821e-06 -4.7835969e-10 
3.7900291e-10 -5.0379654e-06 -8.6183027e-10 
5.6691135e-10 -5.0379558e-06 -7.3847356e-10 
1.8098451e-10 -5.0378740e-06 -3.2565142e-10 
7.3229006e-11 -5.0379454e-06 -4.0057332e-10 
0.0000000e+00 -5.0361905e-06 0.0000000e+00 
0.0000000e+00 -5.0361978e-06 0.0000000e+00 
5.4423366e-10 -5.0383960e-06 -8.2959323e-10 
3.6016232e-10 -5.0383983e-06 -7.8673446e-10 
0.0000000e+00 -5.0365479e-06 0.0000000e+00 
0.0000000e+00 -5.0365829e-06 0.0000000e+00 
0.0000000e+00 2.0877233e-07 0.0000000e+00 
0.0000000e+00 2.5175549e-07 0.0000000e+00 
-2.3738270e-11 -6.2542481e-06 -9.3067644e-11 
7.3561296e-11 -6.2538575e-06 -6.6401142e-11 
0.0000000e+00 -6.2538534e-06 0.0000000e+00 
0.0000000e+00 -6.2543463e-06 0.0000000e+00 
0.0000000e+00 -6.2530275e-06 0.0000000e+00 
0.0000000e+00 -6.2530366e-06 0.0000000e+00 
0.0000000e+00 -6.2543131e-06 0.0000000e+00 
-7.2707076e-11 -6.2542872e-06 8.6194064e-12 
0.0000000e+00 -6.2535019e-06 0.0000000e+00 
0.0000000e+00 -6.2535114e-06 0.0000000e+00 
0.0000000e+00 -6.2817567e-06 0.0000000e+00 
0.0000000e+00 -5.1091379e-06 0.0000000e+00 
0.0000000e+00 -1.8946905e-06 0.0000000e+00 
0.0000000e+00 2.5646279e-06 0.0000000e+00 
0.0000000e+00 7.2625608e-06 0.0000000e+00 
0.0000000e+00 1.1300272e-05 0.0000000e+00 
0.0000000e+00 1.4106355e-05 0.0000000e+00 
0.0000000e+00 1.5552419e-05 0.0000000e+00 
0.0000000e+00 1.5971611e-05 0.0000000e+00 
0.0000000e+00 1.5837992e-05 0.0000000e+00 
0.0000000e+00 1.5624670e-05 0.0000000e+00 
0.0000000e+00 1.5851645e-05 0.0000000e+00 
0.0000000e+00 1.6048743e-05 0.0000000e+00 
0.0000000e+00 1.5731943e-05 0.0000000e+00 
0.0000000e+00 1.4411991e-05 0.0000000e+00 
0.0000000e+00 1.1700552e-05 0.0000000e+00 
0.0000000e+00 7.6707120e-06 0.0000000e+00 
0.0000000e+00 2.8818358e-06 0.0000000e+00 
0.0000000e+00 -1.7155475e-06 0.0000000e+00 
0.0000000e+00 -5.0438921e-06 0.0000000e+00 
0.0000000e+00 -6.2582799e-06 0.0000000e+00 
0.0000000e+00 -6.2784725e-06 0.0000000e+00 
5.6338245e-10 -5.1036945e-06 3.8951228e-10 
2.6905439e-10 -1.8924804e-06 2.9858449e-10 
-1.6165826e-10 2.5620873e-06 3.1374756e-10 
-6.5543060e-10 7.2544663e-06 2.3429444e-11 
-1.1541554e-09 1.1287349e-05 1.4322211e-11 
-1.6132716e-09 1.4091305e-05 6.2734712e-10 
-2.0771935e-09 1.5536578e-05 -8.1892343e-10 
-2.2865034e-09 1.5934391e-05 -4.8876947e-10 
-2.0737625e-09 1.5869968e-05 6.3233968e-10 
-1.0067175e-09 1.5804433e-05 -5.2050414e-10 
-2.1969981e-09 1.5882968e-05 -1.2529809e-09 
-2.2535378e-09 1.6011763e-05 -9.0330482e-10 
-1.9777000e-09 1.5715330e-05 -7.5764400e-10 
-1.7019853e-09 1.4396195e-05 -8.1715401e-10 
-1.1718817e-09 1.1687225e-05 -7.7363332e-10 
-7.1618572e-10 7.6626684e-06 -6.1667060e-10 
-2.0558888e-10 2.8792417e-06 -4.1282380e-10 
2.5119409e-10 -1.7136963e-06 -6.6619113e-11 
5.4742100e-10 -5.0388112e-06 -4.2338186e-10 
0.0000000e+00 -6.2550175e-06 0.0000000e+00 
0.0000000e+00 0.0000000e+00 0.0000000e+00 
0.0000000e+00 0.0000000e+00 0.0000000e+00 
0.0000000e+00 0.0000000e+00 0.0000000e+00 
0.0000000e+00 0.0000000e+00 0.0000000e+00 
0.0000000e+00 0.0000000e+00 0.0000000e+00 
0.0000000e+00 0.0000000e+00 0.0000000e+00 
0.0000000e+00 0.0000000e+00 0.0000000e+00 
0.0000000e+00 0.0000000e+00 0.0000000e+00 
0.0000000e+00 0.0000000e+00 0.0000000e+00 
0.0000000e+00 0.0000000e+00 0.0000000e+00 
0.0000000e+00 0.0000000e+00 0.0000000e+00 
0.0000000e+00 0.0000000e+00 0.0000000e+00 
0.0000000e+00 0.0000000e+00 0.0000000e+00 
0.0000000e+00 0.0000000e+00 0.0000000e+00 
0.0000000e+00 0.0000000e+00 0.0000000e+00 
0.0000000e+00 0.0000000e+00 0.0000000e+00 
0.0000000e+00 0.0000000e+00 0.0000000e+00 
0.0000000e+00 0.0000000e+00 0.0000000e+00 
0.0000000e+00 0.0000000e+00 0.0000000e+00 
0.0000000e+00 0.0000000e+00 0.0000000e+00 
0.0000000e+00 0.0000000e+00 0.0000000e+00 
0.0000000e+00 0.0000000e+00 0.0000000e+00 
0.0000000e+00 0.0000000e+00 0.0000000e+00 
0.0000000e+00 0.0000000e+00 0.0000000e+00 
0.0000000e+00 0.0000000e+00 0.0000000e+00 
0.0000000e+00 0.0000000e+00 0.0000000e+00 
0.0000000e+00 0.0000000e+00 0.0000000e+00 
0.0000000e+00 0.0000000e+00 0.0000000e+00 
0.0000000e+00 0.0000000e+00 0.0000000e+00 
0.0000000e+00 0.0000000e+00 0.0000000e+00 
0.0000000e+00 0.0000000e+00 0.0000000e+00 
0.0000000e+00 0.0000000e+00 0.0000000e+00 
0.0000000e+00 0.0000000e+00 0.0000000e+00 
0.0000000e+00 0.0000000e+00 0.0000000e+00 
0.0000000e+00 0.0000000e+00 0.0000000e+00 
0.0000000e+00 0.0000000e+00 0.0000000e+00 
0.0000000e+00 0.0000000e+00 0.0000000e+00 
0.0000000e+00 0.0000000e+00 0.0000000e+00 
0.0000000e+00 0.0000000e+00 0.0000000e+00 
0.0000000e+00 0.0000000e+00 0.0000000e+00 
0.0000000e+00 0.0000000e+00 0.0000000e+00 
0.0000000e+00 0.0000000e+00 0.0000000e+00 
0.0000000e+00 0.0000000e+00 0.0000000e+00 
0.0000000e+00 0.0000000e+00 0.0000000e+00 
0.0000000e+00 6.6684692e-08 0.0000000e+00 
0.0000000e+00 4.5188230e-08 0.0000000e+00 
0.0000000e+00 2.9780926e-08 0.0000000e+00 
0.0000000e+00 1.1776887e-08 0.0000000e+00 
0.0000000e+00 -6.1015797e-08 0.0000000e+00 
0.0000000e+00 -7.0927484e-08 0.0000000e+00 
0.0000000e+00 -1.1141471e-07 0.0000000e+00 
0.0000000e+00 -1.4455331e-07 0.0000000e+00 
0.0000000e+00 -1.9751421e-07 0.0000000e+00 
0.0000000e+00 -1.9892896e-07 0.0000000e+00 
0.0000000e+00 -1.5467286e-07 0.0000000e+00 
0.0000000e+00 -1.3578428e-07 0.0000000e+00 
0.0000000e+00 -9.6935352e-08 0.0000000e+00 
0.0000000e+00 -8.9079734e-08 0.0000000e+00 
0.0000000e+00 -6.6307862e-08 0.0000000e+00 
0.0000000e+00 -8.7043963e-09 0.0000000e+00 
0.0000000e+00 2.8132996e-08 0.0000000e+00 
0.0000000e+00 3.8038589e-08 0.0000000e+00 
0.0000000e+00 8.1353313e-08 0.0000000e+00 
0.0000000e+00 -1.3062710e-07 0.0000000e+00 
0.0000000e+00 -1.3975507e-07 0.0000000e+00 
0.0000000e+00 -1.4761748e-07 0.0000000e+00 
0.0000000e+00 -1.3605853e-07 0.0000000e+00 
0.0000000e+00 -1.4076917e-08 0.0000000e+00 
0.0000000e+00 1.0129645e-07 0.0000000e+00 
0.0000000e+00 2.5539049e-07 0.0000000e+00 
0.0000000e+00 4.0725524e-07 0.0000000e+00 
0.0000000e+00 4.8527102e-07 0.0000000e+00 
0.0000000e+00 6.7056305e-07 0.0000000e+00 
0.0000000e+00 5.2200221e-07 0.0000000e+00 
0.0000000e+00 4.0641643e-07 0.0000000e+00 
0.0000000e+00 2.8271657e-07 0.0000000e+00 
0.0000000e+00 1.4938391e-07 0.0000000e+00 
0.0000000e+00 -2.6342377e-09 0.0000000e+00 
0.0000000e+00 -1.3659489e-07 0.0000000e+00 
0.0000000e+00 -1.3854611e-07 0.0000000e+00 
0.0000000e+00 -1.5976141e-07 0.0000000e+00 
0.0000000e+00 -1.7695041e-07 0.0000000e+00 
0.0000000e+00 1.0992099e-07 0.0000000e+00 
0.0000000e+00 7.1491520e-08 0.0000000e+00 
0.0000000e+00 -6.5800982e-08 0.0000000e+00 
0.0000000e+00 1.1231590e-07 0.0000000e+00 
0.0000000e+00 7.9118898e-08 0.0000000e+00 
0.0000000e+00 -7.6899724e-08 0.0000000e+00 
5.8540658e-11 -6.2781523e-06 1.9463920e-11 
6.5234745e-10 -5.1030684e-06 2.8771344e-10 
4.5001891e-10 -5.1030647e-06 3.0533928e-10 
3.2005787e-10 -1.8921518e-06 2.2608633e-10 
1.9888079e-10 -1.8921697e-06 2.3319463e-10 
-1.1211323e-10 2.5619090e-06 2.4178626e-10 
-1.9416138e-10 2.5619436e-06 2.4541752e-10 
-6.5852562e-10 7.2536754e-06 2.6462346e-11 
-5.8960464e-10 7.2537673e-06 2.0774143e-11 
-1.1209210e-09 1.1285912e-05 1.3210038e-11 
-1.1117488e-09 1.1286108e-05 -3.2843506e-11 
-1.4408512e-09 1.4089514e-05 5.2788335e-10 
-1.6910351e-09 1.4089329e-05 4.5845064e-10 
-2.2801301e-09 1.5534057e-05 -6.0804800e-10 
-1.7645774e-09 1.5534279e-05 -6.2716987e-10 
-2.3573430e-09 1.5931437e-05 -3.6094433e-10 
-2.1342306e-09 1.5931771e-05 -4.4536944e-10 
-1.8104869e-09 1.5867670e-05 4.8574544e-10 
-2.2338198e-09 1.5867417e-05 4.5935872e-10 
-1.0960169e-09 1.5803476e-05 -3.4648173e-10 
-8.2373697e-10 1.5803605e-05 -4.3685006e-10 
-2.4829470e-09 1.5880327e-05 -9.2715630e-10 
-1.8160758e-09 1.5880576e-05 -9.6254038e-10 
-2.4844760e-09 1.6008862e-05 -6.7223910e-10 
-1.9432407e-09 1.6009099e-05 -6.8055273e-10 
-2.0731634e-09 1.5712845e-05 -5.5522104e-10 
-1.7742386e-09 1.5713114e-05 -6.4247052e-10 
-1.8646813e-09 1.4394145e-05 -6.1124467e-10 
-1.4324710e-09 1.4394318e-05 -6.2663486e-10 
-1.2746318e-09 1.1685787e-05 -5.7138499e-10 
-9.9554098e-10 1.1685954e-05 -6.3064087e-10 
-8.0667578e-10 7.6618662e-06 -4.6471807e-10 
-5.7373545e-10 7.6619035e-06 -4.9782539e-10 
-2.6360464e-10 2.8790487e-06 -3.1596800e-10 
-1.2137606e-10 2.8790205e-06 -3.2499464e-10 
2.5200950e-10 -1.7133799e-06 -5.5352549e-11 
2.4096669e-10 -1.7134282e-06 -5.2131702e-11 
4.5065834e-10 -5.0382318e-06 -3.4543207e-10 
6.1858207e-10 -5.0381900e-06 -3.1419703e-10 
0.0000000e+00 1.8784667e-07 0.0000000e+00 
0.0000000e+00 1.4957725e-07 0.0000000e+00 
0.0000000e+00 7.8767549e-08 0.0000000e+00 
0.0000000e+00 3.6140264e-08 0.0000000e+00 
0.0000000e+00 -1.0476565e-07 0.0000000e+00 
0.0000000e+00 -1.7577254e-07 0.0000000e+00 
0.0000000e+00 -2.5980529e-07 0.0000000e+00 
0.0000000e+00 -4.0711450e-07 0.0000000e+00 
0.0000000e+00 -5.6472925e-07 0.0000000e+00 
0.0000000e+00 -5.1672760e-07 0.0000000e+00 
0.0000000e+00 -4.0097635e-07 0.0000000e+00 
0.0000000e+00 -3.4205834e-07 0.0000000e+00 
0.0000000e+00 -2.8300838e-07 0.0000000e+00 
0.0000000e+00 -2.3996395e-07 0.0000000e+00 
0.0000000e+00 -1.3910361e-07 0.0000000e+00 
0.0000000e+00 -2.8773536e-08 0.0000000e+00 
0.0000000e+00 5.2926993e-08 0.0000000e+00 
0.0000000e+00 1.3170127e-07 0.0000000e+00 
0.0000000e+00 2.3596391e-07 0.0000000e+00 
0.0000000e+00 1.6840926e-07 0.0000000e+00 
0.0000000e+00 2.0587962e-07 0.0000000e+00 
0.0000000e+00 2.8260567e-07 0.0000000e+00 
0.0000000e+00 2.8402602e-07 0.0000000e+00 
0.0000000e+00 3.0331924e-07 0.0000000e+00 
0.0000000e+00 2.9266775e-07 0.0000000e+00 
0.0000000e+00 -6.3564994e-07 0.0000000e+00 
0.0000000e+00 -6.7970922e-07 0.0000000e+00 
5.9034014e-11 -6.2547033e-06 -2.0520545e-11 
0.0000000e+00 0.0000000e+00 0.0000000e+00 
0.0000000e+00 0.0000000e+00 0.0000000e+00 
0.0000000e+00 0.0000000e+00 0.0000000e+00 
0.0000000e+00 0.0000000e+00 0.0000000e+00 
0.0000000e+00 0.0000000e+00 0.0000000e+00 
0.0000000e+00 0.0000000e+00 0.0000000e+00 
0.0000000e+00 0.0000000e+00 0.0000000e+00 
0.0000000e+00 0.0000000e+00 0.0000000e+00 
0.0000000e+00 0.0000000e+00 0.0000000e+00 
0.0000000e+00 0.0000000e+00 0.0000000e+00 
0.0000000e+00 0.0000000e+00 0.0000000e+00 
0.0000000e+00 0.0000000e+00 0.0000000e+00 
0.0000000e+00 0.0000000e+00 0.0000000e+00 
0.0000000e+00 0.0000000e+00 0.0000000e+00 
0.0000000e+00 0.0000000e+00 0.0000000e+00 
0.0000000e+00 0.0000000e+00 0.0000000e+00 
0.0000000e+00 0.0000000e+00 0.0000000e+00 
0.0000000e+00 0.0000000e+00 0.0000000e+00 