# vtk DataFile Version 4.0
vtk output
ASCII
DATASET UNSTRUCTURED_GRID
POINTS 1439 float
0.0000000e+00 0.0000000e+00 0.0000000e+00 
0.0000000e+00 0.0000000e+00 2.0000000e+01 
3.4700000e+00 0.0000000e+00 0.0000000e+00 
3.4700000e+00 0.0000000e+00 2.0000000e+01 
3.4700000e+00 1.0000000e+00 0.0000000e+00 
3.4700000e+00 1.0000000e+00 2.0000000e+01 
0.0000000e+00 1.0000000e+00 0.0000000e+00 
0.0000000e+00 1.0000000e+00 2.0000000e+01 
1.2500000e+00 2.5000000e+00 0.0000000e+00 
1.2500000e+00 2.5000000e+00 1.1700000e-01 
7.5000000e-01 2.5000000e+00 1.1700000e-01 
7.5000000e-01 2.5000000e+00 0.0000000e+00 
0.0000000e+00 2.5000000e+00 0.0000000e+00 
0.0000000e+00 2.5000000e+00 1.1700000e-01 
1.2500000e+00 2.8000000e+00 1.1700000e-01 
1.2500000e+00 2.8000000e+00 0.0000000e+00 
0.0000000e+00 2.8000000e+00 0.0000000e+00 
0.0000000e+00 2.8000000e+00 1.1700000e-01 
7.5000000e-01 2.5000000e+00 8.8300002e-01 
1.2500000e+00 2.5000000e+00 8.8300002e-01 
1.2500000e+00 2.5000000e+00 1.1170000e+00 
7.5000000e-01 2.5000000e+00 1.1170000e+00 
7.5000000e-01 2.5000000e+00 1.0000000e+00 
0.0000000e+00 2.5000000e+00 8.8300002e-01 
0.0000000e+00 2.5000000e+00 1.1170000e+00 
1.2500000e+00 2.8000000e+00 1.1170000e+00 
1.2500000e+00 2.8000000e+00 8.8300002e-01 
0.0000000e+00 2.8000000e+00 8.8300002e-01 
0.0000000e+00 2.8000000e+00 1.1170000e+00 
7.5000000e-01 2.5000000e+00 1.8830000e+00 
1.2500000e+00 2.5000000e+00 1.8830000e+00 
1.2500000e+00 2.5000000e+00 2.1170001e+00 
7.5000000e-01 2.5000000e+00 2.1170001e+00 
7.5000000e-01 2.5000000e+00 2.0000000e+00 
0.0000000e+00 2.5000000e+00 1.8830000e+00 
0.0000000e+00 2.5000000e+00 2.1170001e+00 
1.2500000e+00 2.8000000e+00 2.1170001e+00 
1.2500000e+00 2.8000000e+00 1.8830000e+00 
0.0000000e+00 2.8000000e+00 1.8830000e+00 
0.0000000e+00 2.8000000e+00 2.1170001e+00 
7.5000000e-01 2.5000000e+00 2.8829999e+00 
1.2500000e+00 2.5000000e+00 2.8829999e+00 
1.2500000e+00 2.5000000e+00 3.1170001e+00 
7.5000000e-01 2.5000000e+00 3.1170001e+00 
7.5000000e-01 2.5000000e+00 3.0000000e+00 
0.0000000e+00 2.5000000e+00 2.8829999e+00 
0.0000000e+00 2.5000000e+00 3.1170001e+00 
1.2500000e+00 2.8000000e+00 3.1170001e+00 
1.2500000e+00 2.8000000e+00 2.8829999e+00 
0.0000000e+00 2.8000000e+00 2.8829999e+00 
0.0000000e+00 2.8000000e+00 3.1170001e+00 
7.5000000e-01 2.5000000e+00 3.8829999e+00 
1.2500000e+00 2.5000000e+00 3.8829999e+00 
1.2500000e+00 2.5000000e+00 4.1170001e+00 
7.5000000e-01 2.5000000e+00 4.1170001e+00 
7.5000000e-01 2.5000000e+00 4.0000000e+00 
0.0000000e+00 2.5000000e+00 3.8829999e+00 
0.0000000e+00 2.5000000e+00 4.1170001e+00 
1.2500000e+00 2.8000000e+00 4.1170001e+00 
1.2500000e+00 2.8000000e+00 3.8829999e+00 
0.0000000e+00 2.8000000e+00 3.8829999e+00 
0.0000000e+00 2.8000000e+00 4.1170001e+00 
7.5000000e-01 2.5000000e+00 4.8829999e+00 
1.2500000e+00 2.5000000e+00 4.8829999e+00 
1.2500000e+00 2.5000000e+00 5.1170001e+00 
7.5000000e-01 2.5000000e+00 5.1170001e+00 
7.5000000e-01 2.5000000e+00 5.0000000e+00 
0.0000000e+00 2.5000000e+00 4.8829999e+00 
0.0000000e+00 2.5000000e+00 5.1170001e+00 
1.2500000e+00 2.8000000e+00 5.1170001e+00 
1.2500000e+00 2.8000000e+00 4.8829999e+00 
0.0000000e+00 2.8000000e+00 4.8829999e+00 
0.0000000e+00 2.8000000e+00 5.1170001e+00 
7.5000000e-01 2.5000000e+00 5.8829999e+00 
1.2500000e+00 2.5000000e+00 5.8829999e+00 
1.2500000e+00 2.5000000e+00 6.1170001e+00 
7.5000000e-01 2.5000000e+00 6.1170001e+00 
7.5000000e-01 2.5000000e+00 6.0000000e+00 
0.0000000e+00 2.5000000e+00 5.8829999e+00 
0.0000000e+00 2.5000000e+00 6.1170001e+00 
1.2500000e+00 2.8000000e+00 6.1170001e+00 
1.2500000e+00 2.8000000e+00 5.8829999e+00 
0.0000000e+00 2.8000000e+00 5.8829999e+00 
0.0000000e+00 2.8000000e+00 6.1170001e+00 
7.5000000e-01 2.5000000e+00 6.8829999e+00 
1.2500000e+00 2.5000000e+00 6.8829999e+00 
1.2500000e+00 2.5000000e+00 7.1170001e+00 
7.5000000e-01 2.5000000e+00 7.1170001e+00 
7.5000000e-01 2.5000000e+00 7.0000000e+00 
0.0000000e+00 2.5000000e+00 6.8829999e+00 
0.0000000e+00 2.5000000e+00 7.1170001e+00 
1.2500000e+00 2.8000000e+00 7.1170001e+00 
1.2500000e+00 2.8000000e+00 6.8829999e+00 
0.0000000e+00 2.8000000e+00 6.8829999e+00 
0.0000000e+00 2.8000000e+00 7.1170001e+00 
7.5000000e-01 2.5000000e+00 7.8829999e+00 
1.2500000e+00 2.5000000e+00 7.8829999e+00 
1.2500000e+00 2.5000000e+00 8.1169996e+00 
7.5000000e-01 2.5000000e+00 8.1169996e+00 
7.5000000e-01 2.5000000e+00 8.0000000e+00 
0.0000000e+00 2.5000000e+00 7.8829999e+00 
0.0000000e+00 2.5000000e+00 8.1169996e+00 
1.2500000e+00 2.8000000e+00 8.1169996e+00 
1.2500000e+00 2.8000000e+00 7.8829999e+00 
0.0000000e+00 2.8000000e+00 7.8829999e+00 
0.0000000e+00 2.8000000e+00 8.1169996e+00 
7.5000000e-01 2.5000000e+00 8.8830004e+00 
1.2500000e+00 2.5000000e+00 8.8830004e+00 
1.2500000e+00 2.5000000e+00 9.1169996e+00 
7.5000000e-01 2.5000000e+00 9.1169996e+00 
7.5000000e-01 2.5000000e+00 9.0000000e+00 
0.0000000e+00 2.5000000e+00 8.8830004e+00 
0.0000000e+00 2.5000000e+00 9.1169996e+00 
1.2500000e+00 2.8000000e+00 9.1169996e+00 
1.2500000e+00 2.8000000e+00 8.8830004e+00 
0.0000000e+00 2.8000000e+00 8.8830004e+00 
0.0000000e+00 2.8000000e+00 9.1169996e+00 
7.5000000e-01 2.5000000e+00 9.8830004e+00 
1.2500000e+00 2.5000000e+00 9.8830004e+00 
1.2500000e+00 2.5000000e+00 1.0117000e+01 
7.5000000e-01 2.5000000e+00 1.0117000e+01 
7.5000000e-01 2.5000000e+00 1.0000000e+01 
0.0000000e+00 2.5000000e+00 9.8830004e+00 
0.0000000e+00 2.5000000e+00 1.0117000e+01 
1.2500000e+00 2.8000000e+00 1.0117000e+01 
1.2500000e+00 2.8000000e+00 9.8830004e+00 
0.0000000e+00 2.8000000e+00 9.8830004e+00 
0.0000000e+00 2.8000000e+00 1.0117000e+01 
7.5000000e-01 2.5000000e+00 1.0883000e+01 
1.2500000e+00 2.5000000e+00 1.0883000e+01 
1.2500000e+00 2.5000000e+00 1.1117000e+01 
7.5000000e-01 2.5000000e+00 1.1117000e+01 
7.5000000e-01 2.5000000e+00 1.1000000e+01 
0.0000000e+00 2.5000000e+00 1.0883000e+01 
0.0000000e+00 2.5000000e+00 1.1117000e+01 
1.2500000e+00 2.8000000e+00 1.1117000e+01 
1.2500000e+00 2.8000000e+00 1.0883000e+01 
0.0000000e+00 2.8000000e+00 1.0883000e+01 
0.0000000e+00 2.8000000e+00 1.1117000e+01 
7.5000000e-01 2.5000000e+00 1.1883000e+01 
1.2500000e+00 2.5000000e+00 1.1883000e+01 
1.2500000e+00 2.5000000e+00 1.2117000e+01 
7.5000000e-01 2.5000000e+00 1.2117000e+01 
7.5000000e-01 2.5000000e+00 1.2000000e+01 
0.0000000e+00 2.5000000e+00 1.1883000e+01 
0.0000000e+00 2.5000000e+00 1.2117000e+01 
1.2500000e+00 2.8000000e+00 1.2117000e+01 
1.2500000e+00 2.8000000e+00 1.1883000e+01 
0.0000000e+00 2.8000000e+00 1.1883000e+01 
0.0000000e+00 2.8000000e+00 1.2117000e+01 
7.5000000e-01 2.5000000e+00 1.2883000e+01 
1.2500000e+00 2.5000000e+00 1.2883000e+01 
1.2500000e+00 2.5000000e+00 1.3117000e+01 
7.5000000e-01 2.5000000e+00 1.3117000e+01 
7.5000000e-01 2.5000000e+00 1.3000000e+01 
0.0000000e+00 2.5000000e+00 1.2883000e+01 
0.0000000e+00 2.5000000e+00 1.3117000e+01 
1.2500000e+00 2.8000000e+00 1.3117000e+01 
1.2500000e+00 2.8000000e+00 1.2883000e+01 
0.0000000e+00 2.8000000e+00 1.2883000e+01 
0.0000000e+00 2.8000000e+00 1.3117000e+01 
7.5000000e-01 2.5000000e+00 1.3883000e+01 
1.2500000e+00 2.5000000e+00 1.3883000e+01 
1.2500000e+00 2.5000000e+00 1.4117000e+01 
7.5000000e-01 2.5000000e+00 1.4117000e+01 
7.5000000e-01 2.5000000e+00 1.4000000e+01 
0.0000000e+00 2.5000000e+00 1.3883000e+01 
0.0000000e+00 2.5000000e+00 1.4117000e+01 
1.2500000e+00 2.8000000e+00 1.4117000e+01 
1.2500000e+00 2.8000000e+00 1.3883000e+01 
0.0000000e+00 2.8000000e+00 1.3883000e+01 
0.0000000e+00 2.8000000e+00 1.4117000e+01 
7.5000000e-01 2.5000000e+00 1.4883000e+01 
1.2500000e+00 2.5000000e+00 1.4883000e+01 
1.2500000e+00 2.5000000e+00 1.5117000e+01 
7.5000000e-01 2.5000000e+00 1.5117000e+01 
7.5000000e-01 2.5000000e+00 1.5000000e+01 
0.0000000e+00 2.5000000e+00 1.4883000e+01 
0.0000000e+00 2.5000000e+00 1.5117000e+01 
1.2500000e+00 2.8000000e+00 1.5117000e+01 
1.2500000e+00 2.8000000e+00 1.4883000e+01 
0.0000000e+00 2.8000000e+00 1.4883000e+01 
0.0000000e+00 2.8000000e+00 1.5117000e+01 
7.5000000e-01 2.5000000e+00 1.5883000e+01 
1.2500000e+00 2.5000000e+00 1.5883000e+01 
1.2500000e+00 2.5000000e+00 1.6117001e+01 
7.5000000e-01 2.5000000e+00 1.6117001e+01 
7.5000000e-01 2.5000000e+00 1.6000000e+01 
0.0000000e+00 2.5000000e+00 1.5883000e+01 
0.0000000e+00 2.5000000e+00 1.6117001e+01 
1.2500000e+00 2.8000000e+00 1.6117001e+01 
1.2500000e+00 2.8000000e+00 1.5883000e+01 
0.0000000e+00 2.8000000e+00 1.5883000e+01 
0.0000000e+00 2.8000000e+00 1.6117001e+01 
7.5000000e-01 2.5000000e+00 1.6882999e+01 
1.2500000e+00 2.5000000e+00 1.6882999e+01 
1.2500000e+00 2.5000000e+00 1.7117001e+01 
7.5000000e-01 2.5000000e+00 1.7117001e+01 
7.5000000e-01 2.5000000e+00 1.7000000e+01 
0.0000000e+00 2.5000000e+00 1.6882999e+01 
0.0000000e+00 2.5000000e+00 1.7117001e+01 
1.2500000e+00 2.8000000e+00 1.7117001e+01 
1.2500000e+00 2.8000000e+00 1.6882999e+01 
0.0000000e+00 2.8000000e+00 1.6882999e+01 
0.0000000e+00 2.8000000e+00 1.7117001e+01 
7.5000000e-01 2.5000000e+00 1.7882999e+01 
1.2500000e+00 2.5000000e+00 1.7882999e+01 
1.2500000e+00 2.5000000e+00 1.8117001e+01 
7.5000000e-01 2.5000000e+00 1.8117001e+01 
7.5000000e-01 2.5000000e+00 1.8000000e+01 
0.0000000e+00 2.5000000e+00 1.7882999e+01 
0.0000000e+00 2.5000000e+00 1.8117001e+01 
1.2500000e+00 2.8000000e+00 1.8117001e+01 
1.2500000e+00 2.8000000e+00 1.7882999e+01 
0.0000000e+00 2.8000000e+00 1.7882999e+01 
0.0000000e+00 2.8000000e+00 1.8117001e+01 
7.5000000e-01 2.5000000e+00 1.8882999e+01 
1.2500000e+00 2.5000000e+00 1.8882999e+01 
1.2500000e+00 2.5000000e+00 1.9117001e+01 
7.5000000e-01 2.5000000e+00 1.9117001e+01 
7.5000000e-01 2.5000000e+00 1.9000000e+01 
0.0000000e+00 2.5000000e+00 1.8882999e+01 
0.0000000e+00 2.5000000e+00 1.9117001e+01 
1.2500000e+00 2.8000000e+00 1.9117001e+01 
1.2500000e+00 2.8000000e+00 1.8882999e+01 
0.0000000e+00 2.8000000e+00 1.8882999e+01 
0.0000000e+00 2.8000000e+00 1.9117001e+01 
3.4700000e+00 2.5000000e+00 0.0000000e+00 
3.4700000e+00 2.5000000e+00 2.0000000e+01 
7.5000000e-01 2.5000000e+00 1.9882999e+01 
[...]
POINT_DATA 1439
FIELD FieldData 1
DISPLACEMENT 3 1439  float
0.0000000e+00 0.0000000e+00 0.0000000e+00 
0.0000000e+00 0.0000000e+00 0.0000000e+00 
0.0000000e+00 0.0000000e+00 0.0000000e+00 
0.0000000e+00 0.0000000e+00 0.0000000e+00 
0.0000000e+00 8.7161576e-09 0.0000000e+00 
0.0000000e+00 9.0479633e-09 0.0000000e+00 
0.0000000e+00 1.3004095e-07 0.0000000e+00 
0.0000000e+00 1.3359251e-07 0.0000000e+00 
0.0000000e+00 3.6271533e-06 0.0000000e+00 
-9.9836417e-11 3.6271013e-06 -4.7431881e-11 
4.7068342e-11 3.6277943e-06 -7.6981498e-11 
0.0000000e+00 3.6279107e-06 0.0000000e+00 
0.0000000e+00 3.6259173e-06 0.0000000e+00 
0.0000000e+00 3.6259546e-06 0.0000000e+00 
9.8258561e-11 3.6272768e-06 4.2032128e-11 
0.0000000e+00 3.6272418e-06 0.0000000e+00 
0.0000000e+00 3.6260371e-06 0.0000000e+00 
0.0000000e+00 3.6260051e-06 0.0000000e+00 
2.3737617e-10 2.8669172e-06 4.1935882e-11 
-5.5602137e-11 2.8676686e-06 -1.3756912e-10 
2.8207079e-12 2.8677498e-06 -1.6201060e-10 
2.9694944e-10 2.8669813e-06 -1.0086510e-10 
3.0210617e-10 2.8670445e-06 -3.0376170e-11 
0.0000000e+00 2.8643267e-06 0.0000000e+00 
0.0000000e+00 2.8643524e-06 0.0000000e+00 
-3.8830655e-10 2.8679069e-06 -2.4190747e-10 
-4.3307671e-10 2.8678280e-06 -2.7575781e-10 
0.0000000e+00 2.8644540e-06 0.0000000e+00 
0.0000000e+00 2.8644254e-06 0.0000000e+00 
1.1117689e-10 -8.8035267e-07 5.6175509e-10 
1.8493287e-10 -8.8021568e-07 1.1001687e-09 
-6.2271445e-11 -8.8017379e-07 1.1056703e-09 
-9.2588215e-11 -8.8032021e-07 5.8578181e-10 
2.9821482e-12 -8.8035227e-07 5.6943789e-10 
0.0000000e+00 -8.8014610e-07 0.0000000e+00 
0.0000000e+00 -8.8013621e-07 0.0000000e+00 
-1.5259806e-10 -8.8020226e-07 1.0301114e-09 
9.6104374e-11 -8.8025143e-07 1.0360400e-09 
0.0000000e+00 -8.8015571e-07 0.0000000e+00 
0.0000000e+00 -8.8012825e-07 0.0000000e+00 
-3.5291925e-10 -1.1294203e-05 1.4545846e-09 
7.7639550e-10 -1.1295935e-05 3.4723528e-09 
-8.0873641e-11 -1.1296057e-05 3.5690413e-09 
-1.0804635e-09 -1.1294291e-05 1.9595039e-09 
-8.4282314e-10 -1.1294585e-05 1.6950512e-09 
0.0000000e+00 -1.1285761e-05 0.0000000e+00 
0.0000000e+00 -1.1285762e-05 0.0000000e+00 
7.5161039e-10 -1.1296623e-05 3.5680370e-09 
1.5784452e-09 -1.1296545e-05 3.6889218e-09 
0.0000000e+00 -1.1286146e-05 0.0000000e+00 
0.0000000e+00 -1.1285988e-05 0.0000000e+00 
-1.3638584e-09 -3.0690480e-05 3.3344481e-09 
1.7968339e-09 -3.0696712e-05 8.4507441e-09 
-3.3652123e-10 -3.0697101e-05 8.7146663e-09 
-3.2323284e-09 -3.0690760e-05 4.7846913e-09 
-2.6681861e-09 -3.0691579e-05 4.0403534e-09 
0.0000000e+00 -3.0665338e-05 0.0000000e+00 
0.0000000e+00 -3.0665538e-05 0.0000000e+00 
2.7825993e-09 -3.0698702e-05 8.8420533e-09 
4.7987023e-09 -3.0698389e-05 9.1933616e-09 
0.0000000e+00 -3.0666593e-05 0.0000000e+00 
0.0000000e+00 -3.0666106e-05 0.0000000e+00 
-3.5494285e-09 -5.0886731e-05 4.6701781e-10 
1.6451615e-09 -5.0898288e-05 4.4506439e-09 
2.6234281e-10 -5.0899740e-05 4.8948205e-09 
-4.7167092e-09 -5.0888149e-05 2.9584721e-09 
-4.7298401e-09 -5.0889059e-05 1.7209996e-09 
0.0000000e+00 -5.0843944e-05 0.0000000e+00 
0.0000000e+00 -5.0844123e-05 0.0000000e+00 
5.9549023e-09 -5.0902367e-05 6.1836252e-09 
7.3157373e-09 -5.0901115e-05 6.8560366e-09 
0.0000000e+00 -5.0846029e-05 0.0000000e+00 
0.0000000e+00 -5.0845199e-05 0.0000000e+00 
-4.8164104e-09 -3.7263202e-05 -5.6753304e-09 
-8.1634066e-10 -3.7274691e-05 -1.0115601e-08 
1.6791794e-09 -3.7273410e-05 -9.7534896e-09 
-2.7080844e-09 -3.7262074e-05 -3.6408760e-09 
-4.2371875e-09 -3.7263966e-05 -4.6449680e-09 
0.0000000e+00 -3.7225047e-05 0.0000000e+00 
0.0000000e+00 -3.7224723e-05 0.0000000e+00 
7.4189241e-09 -3.7275779e-05 -1.1656850e-08 
4.9435211e-09 -3.7276757e-05 -1.1087986e-08 
0.0000000e+00 -3.7225946e-05 0.0000000e+00 
0.0000000e+00 -3.7226710e-05 0.0000000e+00 
6.9599276e-10 8.5116822e-05 -1.5304007e-08 
-7.2844193e-09 8.5123225e-05 -3.3280870e-08 
5.8002614e-10 8.5123909e-05 -3.3995139e-08 
7.5152942e-09 8.5116983e-05 -1.8858172e-08 
5.0593849e-09 8.5119224e-05 -1.6987698e-08 
0.0000000e+00 8.5063388e-05 0.0000000e+00 
0.0000000e+00 8.5064130e-05 0.0000000e+00 
-2.0731903e-09 8.5127853e-05 -3.3503472e-08 
-9.7071604e-09 8.5127685e-05 -3.4341017e-08 
0.0000000e+00 8.5066065e-05 0.0000000e+00 
0.0000000e+00 8.5064705e-05 0.0000000e+00 
1.8712770e-08 4.1253041e-04 -2.2063590e-08 
-2.2325020e-08 4.1259362e-04 -6.7904367e-08 
-4.3894701e-09 4.1260390e-04 -7.1558610e-08 
3.3915686e-08 4.1254016e-04 -4.1085432e-08 
3.0960017e-08 4.1254773e-04 -3.1509977e-08 
0.0000000e+00 4.1222287e-04 0.0000000e+00 
0.0000000e+00 4.1222433e-04 0.0000000e+00 
-3.3570004e-08 4.1262459e-04 -7.9511857e-08 
-5.1328719e-08 4.1261630e-04 -8.4611713e-08 
0.0000000e+00 4.1223783e-04 0.0000000e+00 
0.0000000e+00 4.1223137e-04 0.0000000e+00 
8.2130455e-08 9.4849587e-04 5.0079574e-08 
-8.4076639e-09 9.4868842e-04 8.8496925e-08 
-3.5463426e-08 9.4866799e-04 8.0547203e-08 
5.8916463e-08 9.4847934e-04 5.8446354e-09 
8.1492502e-08 9.4851712e-04 2.7784441e-08 
0.0000000e+00 9.4771769e-04 0.0000000e+00 
0.0000000e+00 9.4771560e-04 0.0000000e+00 
-1.2653054e-07 9.4871898e-04 1.1563051e-07 
-1.0299613e-07 9.4873790e-04 1.0519564e-07 
0.0000000e+00 9.4774092e-04 0.0000000e+00 
0.0000000e+00 9.4774959e-04 0.0000000e+00 
7.6785014e-08 1.3251171e-03 -4.0234063e-08 
-5.7058561e-08 1.3253818e-03 -1.7441067e-07 
-5.5858340e-09 1.3254085e-03 -1.8588943e-07 
1.2061953e-07 1.3251388e-03 -1.0289361e-07 
1.1412801e-07 1.3251697e-03 -7.1056739e-08 
0.0000000e+00 1.3240423e-03 0.0000000e+00 
0.0000000e+00 1.3240461e-03 0.0000000e+00 
-1.3772433e-07 1.3254782e-03 -2.0545413e-07 
-1.8450132e-07 1.3254541e-03 -2.2034581e-07 
0.0000000e+00 1.3240908e-03 0.0000000e+00 
0.0000000e+00 1.3240775e-03 0.0000000e+00 
5.3893920e-08 9.4782218e-04 -4.8983157e-08 
-4.1405695e-08 9.4801409e-04 -1.5873462e-07 
1.9482431e-09 9.4803079e-04 -1.6690481e-07 
9.3011323e-08 9.4783463e-04 -9.3538596e-08 
8.4712156e-08 9.4785803e-04 -7.1055730e-08 
0.0000000e+00 9.4704697e-04 0.0000000e+00 
0.0000000e+00 9.4705314e-04 0.0000000e+00 
-9.4976734e-08 9.4808085e-04 -1.7854504e-07 
-1.3454719e-07 9.4806572e-04 -1.8915027e-07 
0.0000000e+00 9.4708498e-04 0.0000000e+00 
0.0000000e+00 9.4707246e-04 0.0000000e+00 
2.3857543e-08 4.1210483e-04 9.2699164e-09 
-1.6137358e-08 4.1216987e-04 -1.2691356e-08 
-9.3013206e-09 4.1217802e-04 -1.6112377e-08 
2.9680329e-08 4.1211225e-04 -9.4646770e-09 
3.1491432e-08 4.1212104e-04 -9.0588849e-11 
0.0000000e+00 4.1179702e-04 0.0000000e+00 
0.0000000e+00 4.1179764e-04 0.0000000e+00 
-4.0532271e-08 4.1219968e-04 -2.3494637e-08 
-4.5794327e-08 4.1219132e-04 -2.7851181e-08 
0.0000000e+00 4.1181000e-04 0.0000000e+00 
0.0000000e+00 4.1180698e-04 0.0000000e+00 
4.3919917e-09 8.5030420e-05 6.6827379e-09 
-2.9277227e-09 8.5038519e-05 7.7705691e-09 
-4.1222767e-09 8.5040228e-05 7.0942607e-09 
3.3768510e-09 8.5032261e-05 3.2009950e-09 
4.7866848e-09 8.5033615e-05 4.8842566e-09 
0.0000000e+00 8.4977313e-05 0.0000000e+00 
0.0000000e+00 8.4977051e-05 0.0000000e+00 
-7.4341706e-09 8.5044303e-05 5.3168043e-09 
-6.1778151e-09 8.5042622e-05 4.4322608e-09 
0.0000000e+00 8.4979532e-05 0.0000000e+00 
0.0000000e+00 8.4978536e-05 0.0000000e+00 
-3.0465559e-09 -3.7256843e-05 4.5175343e-09 
1.2056077e-09 -3.7270940e-05 1.1585287e-08 
-1.7567239e-09 -3.7271933e-05 1.1922463e-08 
-5.5976792e-09 -3.7257600e-05 6.5214008e-09 
-4.7885655e-09 -3.7258553e-05 5.4853251e-09 
0.0000000e+00 -3.7217083e-05 0.0000000e+00 
0.0000000e+00 -3.7217393e-05 0.0000000e+00 
5.7167449e-09 -3.7273963e-05 1.2589888e-08 
8.5388896e-09 -3.7273163e-05 1.3092149e-08 
0.0000000e+00 -3.7219113e-05 0.0000000e+00 
0.0000000e+00 -3.7218553e-05 0.0000000e+00 
-3.4289802e-09 -5.0911312e-05 2.8903441e-10 
1.8151862e-09 -5.0922547e-05 3.9893289e-09 
5.4007587e-10 -5.0924202e-05 4.4458548e-09 
-4.5199959e-09 -5.0912833e-05 2.7703888e-09 
-4.5744555e-09 -5.0913692e-05 1.5423206e-09 
0.0000000e+00 -5.0868483e-05 0.0000000e+00 
0.0000000e+00 -5.0868755e-05 0.0000000e+00 
6.0645395e-09 -5.0926828e-05 5.9347016e-09 
7.3130266e-09 -5.0925431e-05 6.6071428e-09 
0.0000000e+00 -5.0870625e-05 0.0000000e+00 
0.0000000e+00 -5.0869836e-05 0.0000000e+00 
-2.0501916e-09 -3.0742896e-05 -3.8221294e-11 
9.5201602e-10 -3.0749605e-05 1.9055872e-09 
3.1918121e-10 -3.0750685e-05 2.1698769e-09 
-2.6615774e-09 -3.0743886e-05 1.4132772e-09 
-2.7168563e-09 -3.0744333e-05 7.0428641e-10 
0.0000000e+00 -3.0718067e-05 0.0000000e+00 
0.0000000e+00 -3.0718333e-05 0.0000000e+00 
3.6341088e-09 -3.0752213e-05 3.2354166e-09 
4.2430042e-09 -3.0751256e-05 3.6256047e-09 
0.0000000e+00 -3.0719373e-05 0.0000000e+00 
0.0000000e+00 -3.0718875e-05 0.0000000e+00 
-8.3823992e-10 -1.1332565e-05 -1.1532573e-09 
1.9771675e-10 -1.1334446e-05 -1.4581121e-09 
4.3080220e-10 -1.1334899e-05 -1.3648636e-09 
-6.4378969e-10 -1.1332981e-05 -6.4676636e-10 
-8.6734514e-10 -1.1333102e-05 -8.8829372e-10 
0.0000000e+00 -1.1324329e-05 0.0000000e+00 
0.0000000e+00 -1.1324396e-05 0.0000000e+00 
1.3285135e-09 -1.1335449e-05 -8.7687718e-10 
1.0852629e-09 -1.1335032e-05 -7.4477974e-10 
0.0000000e+00 -1.1324717e-05 0.0000000e+00 
0.0000000e+00 -1.1324613e-05 0.0000000e+00 
-4.2899767e-11 -8.8687193e-07 -4.8054571e-10 
-7.8392050e-12 -8.8669179e-07 -8.9947050e-10 
1.9288071e-10 -8.8673966e-07 -8.9351126e-10 
1.1818736e-10 -8.8691320e-07 -4.5635157e-10 
3.1886025e-11 -8.8691110e-07 -4.6472023e-10 
0.0000000e+00 -8.8676018e-07 0.0000000e+00 
0.0000000e+00 -8.8676683e-07 0.0000000e+00 
7.9120294e-11 -8.8677496e-07 -8.2063367e-10 
-1.2252653e-10 -8.8672033e-07 -8.1621016e-10 
0.0000000e+00 -8.8675660e-07 0.0000000e+00 
0.0000000e+00 -8.8677746e-07 0.0000000e+00 
2.7290431e-10 2.8790614e-06 2.5479870e-11 
-2.6648073e-11 2.8797999e-06 5.4245866e-12 
-4.4738536e-11 2.8796810e-06 -2.0062264e-11 
2.5010755e-10 2.8789477e-06 -1.1829050e-10 
2.9724725e-10 2.8790980e-06 -4.3792824e-11 
0.0000000e+00 2.8764312e-06 0.0000000e+00 
0.0000000e+00 2.8764030e-06 0.0000000e+00 
-4.1164069e-10 2.8798436e-06 1.7113819e-10 
-3.9645606e-10 2.8799543e-06 1.3298834e-10 
0.0000000e+00 2.8764921e-06 0.0000000e+00 
0.0000000e+00 2.8765371e-06 0.0000000e+00 
0.0000000e+00 2.1159003e-08 0.0000000e+00 
0.0000000e+00 1.7020668e-08 0.0000000e+00 
3.1318732e-11 3.6442270e-06 7.8874060e-11 
-5.5988408e-11 3.6435865e-06 2.9038445e-11 
0.0000000e+00 3.6436163e-06 0.0000000e+00 
0.0000000e+00 3.6443321e-06 0.0000000e+00 
0.0000000e+00 3.6423517e-06 0.0000000e+00 
0.0000000e+00 3.6423501e-06 0.0000000e+00 
0.0000000e+00 3.6437370e-06 0.0000000e+00 
1.1179210e-10 3.6437282e-06 -4.2318728e-11 
0.0000000e+00 3.6424622e-06 0.0000000e+00 
0.0000000e+00 3.6424542e-06 0.0000000e+00 
0.0000000e+00 3.6348149e-06 0.0000000e+00 
0.0000000e+00 2.8783240e-06 0.0000000e+00 
0.0000000e+00 -8.8210271e-07 0.0000000e+00 
0.0000000e+00 -1.1334125e-05 0.0000000e+00 
0.0000000e+00 -3.0805390e-05 0.0000000e+00 
0.0000000e+00 -5.1083814e-05 0.0000000e+00 
0.0000000e+00 -3.7423379e-05 0.0000000e+00 
0.0000000e+00 8.5393505e-05 0.0000000e+00 
0.0000000e+00 4.1402862e-04 0.0000000e+00 
0.0000000e+00 9.5200230e-04 0.0000000e+00 
0.0000000e+00 1.3300976e-03 0.0000000e+00 
0.0000000e+00 9.5135457e-04 0.0000000e+00 
0.0000000e+00 4.1359686e-04 0.0000000e+00 
0.0000000e+00 8.5305772e-05 0.0000000e+00 
0.0000000e+00 -3.7417540e-05 0.0000000e+00 
0.0000000e+00 -5.1108058e-05 0.0000000e+00 
0.0000000e+00 -3.0857911e-05 0.0000000e+00 
0.0000000e+00 -1.1372680e-05 0.0000000e+00 
0.0000000e+00 -8.8885326e-07 0.0000000e+00 
0.0000000e+00 2.8903648e-06 0.0000000e+00 
0.0000000e+00 3.6512724e-06 0.0000000e+00 
0.0000000e+00 3.6284732e-06 0.0000000e+00 
-6.2556066e-10 2.8679081e-06 -1.3010178e-10 
1.9829322e-11 -8.8047631e-07 5.3267168e-10 
1.9678803e-09 -1.1297574e-05 1.8575104e-09 
6.0239200e-09 -3.0700263e-05 4.5944932e-09 
1.0369495e-08 -5.0904047e-05 3.6817644e-09 
9.1392556e-09 -3.7276252e-05 -6.2252932e-09 
-1.1833242e-08 8.5139902e-05 -1.7620241e-08 
-7.2373560e-08 4.1266053e-04 -4.5106848e-08 
-1.8299713e-07 9.4878254e-04 5.3595702e-08 
-2.5728440e-07 1.3255455e-03 -1.0563423e-07 
-1.8413994e-07 9.4812416e-04 -9.2856020e-08 
-7.2793249e-08 4.1223306e-04 -1.1482973e-08 
-1.2562235e-08 8.5054227e-05 2.3379811e-09 
9.9011901e-09 -3.7270860e-05 6.6442452e-09 
1.0439760e-08 -5.0928615e-05 3.6210765e-09 
6.1249876e-09 -3.0753094e-05 2.0870403e-09 
1.9968536e-09 -1.1336135e-05 -3.3804459e-10 
2.4000180e-11 -8.8705269e-07 -4.1741166e-10 
-6.2291017e-10 2.8799655e-06 1.1157247e-10 
0.0000000e+00 3.6448935e-06 0.0000000e+00 
0.0000000e+00 0.0000000e+00 0.0000000e+00 
0.0000000e+00 0.0000000e+00 0.0000000e+00 
0.0000000e+00 0.0000000e+00 0.0000000e+00 
0.0000000e+00 0.0000000e+00 0.0000000e+00 
0.0000000e+00 0.0000000e+00 0.0000000e+00 
0.0000000e+00 0.0000000e+00 0.0000000e+00 
0.0000000e+00 0.0000000e+00 0.0000000e+00 
0.0000000e+00 0.0000000e+00 0.0000000e+00 
0.0000000e+00 0.0000000e+00 0.0000000e+00 
0.0000000e+00 0.0000000e+00 0.0000000e+00 
0.0000000e+00 0.0000000e+00 0.0000000e+00 
0.0000000e+00 0.0000000e+00 0.0000000e+00 
0.0000000e+00 0.0000000e+00 0.0000000e+00 
0.0000000e+00 0.0000000e+00 0.0000000e+00 
0.0000000e+00 0.0000000e+00 0.0000000e+00 
0.0000000e+00 0.0000000e+00 0.0000000e+00 
0.0000000e+00 0.0000000e+00 0.0000000e+00 
0.0000000e+00 0.0000000e+00 0.0000000e+00 
0.0000000e+00 0.0000000e+00 0.0000000e+00 
0.0000000e+00 0.0000000e+00 0.0000000e+00 
0.0000000e+00 0.0000000e+00 0.0000000e+00 
0.0000000e+00 0.0000000e+00 0.0000000e+00 
0.0000000e+00 0.0000000e+00 0.0000000e+00 
0.0000000e+00 0.0000000e+00 0.0000000e+00 
0.0000000e+00 0.0000000e+00 0.0000000e+00 
0.0000000e+00 0.0000000e+00 0.0000000e+00 
0.0000000e+00 0.0000000e+00 0.0000000e+00 
0.0000000e+00 0.0000000e+00 0.0000000e+00 
0.0000000e+00 0.0000000e+00 0.0000000e+00 
0.0000000e+00 0.0000000e+00 0.0000000e+00 
0.0000000e+00 0.0000000e+00 0.0000000e+00 
0.0000000e+00 0.0000000e+00 0.0000000e+00 
0.0000000e+00 0.0000000e+00 0.0000000e+00 
0.0000000e+00 0.0000000e+00 0.0000000e+00 
0.0000000e+00 0.0000000e+00 0.0000000e+00 
0.0000000e+00 0.0000000e+00 0.0000000e+00 
0.0000000e+00 0.0000000e+00 0.0000000e+00 
0.0000000e+00 0.0000000e+00 0.0000000e+00 
0.0000000e+00 0.0000000e+00 0.0000000e+00 
0.0000000e+00 0.0000000e+00 0.0000000e+00 
0.0000000e+00 0.0000000e+00 0.0000000e+00 
0.0000000e+00 0.0000000e+00 0.0000000e+00 
0.0000000e+00 0.0000000e+00 0.0000000e+00 
0.0000000e+00 0.0000000e+00 0.0000000e+00 
0.0000000e+00 4.6256177e-10 0.0000000e+00 
0.0000000e+00 -1.9290910e-08 0.0000000e+00 
0.0000000e+00 -5.5994448e-08 0.0000000e+00 
0.0000000e+00 -9.4140496e-08 0.0000000e+00 
0.0000000e+00 2.6885742e-08 0.0000000e+00 
0.0000000e+00 -2.8886314e-08 0.0000000e+00 
0.0000000e+00 1.4166089e-07 0.0000000e+00 
0.0000000e+00 1.3075097e-06 0.0000000e+00 
0.0000000e+00 3.6028775e-06 0.0000000e+00 
0.0000000e+00 2.6814721e-06 0.0000000e+00 
0.0000000e+00 2.3740292e-06 0.0000000e+00 
0.0000000e+00 1.0231272e-06 0.0000000e+00 
0.0000000e+00 1.6132017e-08 0.0000000e+00 
0.0000000e+00 -2.9955185e-09 0.0000000e+00 
0.0000000e+00 -4.6959610e-08 0.0000000e+00 
0.0000000e+00 -7.9885332e-08 0.0000000e+00 
0.0000000e+00 -4.8183782e-08 0.0000000e+00 
0.0000000e+00 -4.2329983e-08 0.0000000e+00 
0.0000000e+00 3.4468324e-09 0.0000000e+00 
0.0000000e+00 6.7764418e-08 0.0000000e+00 
0.0000000e+00 -2.0963887e-07 0.0000000e+00 
0.0000000e+00 -7.0420163e-07 0.0000000e+00 
0.0000000e+00 -1.3660226e-06 0.0000000e+00 
0.0000000e+00 -1.4238233e-06 0.0000000e+00 
0.0000000e+00 8.6497312e-07 0.0000000e+00 
0.0000000e+00 9.7523316e-06 0.0000000e+00 
0.0000000e+00 2.3153189e-05 0.0000000e+00 
0.0000000e+00 4.0674087e-05 0.0000000e+00 
0.0000000e+00 5.3471595e-05 0.0000000e+00 
0.0000000e+00 4.1843741e-05 0.0000000e+00 
0.0000000e+00 2.4072202e-05 0.0000000e+00 
0.0000000e+00 7.6088913e-06 0.0000000e+00 
0.0000000e+00 1.4016970e-06 0.0000000e+00 
0.0000000e+00 -1.4158629e-06 0.0000000e+00 
0.0000000e+00 -1.2314486e-06 0.0000000e+00 
0.0000000e+00 -6.6902732e-07 0.0000000e+00 
0.0000000e+00 -2.0704647e-07 0.0000000e+00 
0.0000000e+00 6.1753013e-08 0.0000000e+00 
0.0000000e+00 1.2577407e-08 0.0000000e+00 
0.0000000e+00 4.2042473e-08 0.0000000e+00 
0.0000000e+00 9.8302309e-08 0.0000000e+00 
0.0000000e+00 1.0652567e-08 0.0000000e+00 
0.0000000e+00 4.3059647e-08 0.0000000e+00 
0.0000000e+00 1.0154666e-07 0.0000000e+00 
-8.7367946e-11 3.6280112e-06 7.2547268e-12 
-6.9577377e-10 2.8668928e-06 -1.1129658e-10 
-5.6462424e-10 2.8669738e-06 -8.2818044e-11 
1.1206815e-10 -8.8039275e-07 4.0949530e-10 
-5.8799611e-11 -8.8037257e-07 4.1275863e-10 
2.4192572e-09 -1.1294269e-05 1.4632709e-09 
1.5889183e-09 -1.1294440e-05 1.3820043e-09 
7.2698163e-09 -3.0690488e-05 3.6185284e-09 
4.9366835e-09 -3.0691004e-05 3.3885641e-09 
1.1186055e-08 -5.0886534e-05 3.0428386e-09 
9.7753929e-09 -5.0888859e-05 2.9899150e-09 
8.1005744e-09 -3.7263337e-05 -4.9782836e-09 
1.0282030e-08 -3.7261467e-05 -4.9978977e-09 
-1.5951185e-08 8.5118489e-05 -1.3812159e-08 
-8.5592680e-09 8.5119260e-05 -1.3416787e-08 
-8.2078699e-08 4.1253312e-04 -3.6342801e-08 
-6.5560414e-08 4.1254974e-04 -3.6190624e-08 
-1.6497484e-07 9.4850204e-04 3.5108553e-08 
-2.0532235e-07 9.4848021e-04 4.3747562e-08 
-2.9309771e-07 1.3251194e-03 -8.4988528e-08 
-2.2726996e-07 1.3251492e-03 -7.3159391e-08 
-2.1514595e-07 9.4782142e-04 -7.4130760e-08 
-1.5839376e-07 9.4784045e-04 -6.6388949e-08 
-8.0727894e-08 4.1210849e-04 -9.7238759e-09 
-6.7273440e-08 4.1211792e-04 -6.0727512e-09 
-1.2759529e-08 8.5031555e-05 1.5925836e-09 
-1.3100104e-08 8.5034713e-05 1.7477961e-09 
1.1444526e-08 -3.7255842e-05 5.3088289e-09 
8.2856255e-09 -3.7256861e-05 4.9152167e-09 
1.1242925e-08 -5.0911123e-05 3.0301188e-09 
9.8773683e-09 -5.0913532e-05 2.9688765e-09 
6.6247359e-09 -3.0742794e-05 1.7912168e-09 
5.7696581e-09 -3.0744344e-05 1.7535299e-09 
1.9882411e-09 -1.1332622e-05 -2.0710128e-10 
2.0753292e-09 -1.1333203e-05 -2.2805378e-10 
-3.5002556e-11 -8.8693895e-07 -3.1556655e-10 
9.0203796e-11 -8.8697271e-07 -3.2536379e-10 
-6.0475841e-10 2.8790864e-06 1.0045743e-10 
-6.5665040e-10 2.8789191e-06 1.0542298e-10 
0.0000000e+00 2.3726980e-09 0.0000000e+00 
0.0000000e+00 -1.3247757e-08 0.0000000e+00 
0.0000000e+00 -1.4076313e-07 0.0000000e+00 
0.0000000e+00 -2.8344769e-07 0.0000000e+00 
0.0000000e+00 -2.9805102e-07 0.0000000e+00 
0.0000000e+00 -1.7920962e-07 0.0000000e+00 
0.0000000e+00 -3.3846638e-07 0.0000000e+00 
0.0000000e+00 1.2441305e-06 0.0000000e+00 
0.0000000e+00 1.8985496e-06 0.0000000e+00 
0.0000000e+00 2.7935525e-06 0.0000000e+00 
0.0000000e+00 -1.7414410e-06 0.0000000e+00 
0.0000000e+00 9.4230080e-07 0.0000000e+00 
0.0000000e+00 -1.7380277e-07 0.0000000e+00 
0.0000000e+00 -2.6644167e-07 0.0000000e+00 
0.0000000e+00 -3.3698302e-07 0.0000000e+00 
0.0000000e+00 -2.0908338e-07 0.0000000e+00 
0.0000000e+00 -1.1893943e-07 0.0000000e+00 
0.0000000e+00 -5.8908867e-08 0.0000000e+00 
0.0000000e+00 1.0670287e-08 0.0000000e+00 
0.0000000e+00 1.9033235e-08 0.0000000e+00 
0.0000000e+00 2.1053383e-08 0.0000000e+00 
0.0000000e+00 2.1684668e-08 0.0000000e+00 
0.0000000e+00 6.4647253e-08 0.0000000e+00 
0.0000000e+00 2.6524328e-08 0.0000000e+00 
0.0000000e+00 8.0366149e-08 0.0000000e+00 
0.0000000e+00 3.5562380e-07 0.0000000e+00 
0.0000000e+00 3.5634145e-07 0.0000000e+00 
-9.1418706e-11 3.6444324e-06 -5.4246724e-12 
0.0000000e+00 0.0000000e+00 0.0000000e+00 
0.0000000e+00 0.0000000e+00 0.0000000e+00 
0.0000000e+00 0.0000000e+00 0.0000000e+00 
0.0000000e+00 0.0000000e+00 0.0000000e+00 
0.0000000e+00 0.0000000e+00 0.0000000e+00 
0.0000000e+00 0.0000000e+00 0.0000000e+00 
0.0000000e+00 0.0000000e+00 0.0000000e+00 
0.0000000e+00 0.0000000e+00 0.0000000e+00 
0.0000000e+00 0.0000000e+00 0.0000000e+00 
0.0000000e+00 0.0000000e+00 0.0000000e+00 
0.0000000e+00 0.0000000e+00 0.0000000e+00 
0.0000000e+00 0.0000000e+00 0.0000000e+00 
0.0000000e+00 0.0000000e+00 0.0000000e+00 
0.0000000e+00 0.0000000e+00 0.0000000e+00 
0.0000000e+00 0.0000000e+00 0.0000000e+00 
0.0000000e+00 0.0000000e+00 0.0000000e+00 
0.0000000e+00 0.0000000e+00 0.0000000e+00 
0.0000000e+00 0.0000000e+00 0.0000000e+00 