# vtk DataFile Version 4.0
vtk output
ASCII
DATASET UNSTRUCTURED_GRID
POINTS 1439 float
0.0000000e+00 0.0000000e+00 0.0000000e+00 
0.0000000e+00 0.0000000e+00 2.0000000e+01 
3.4700000e+00 0.0000000e+00 0.0000000e+00 
3.4700000e+00 0.0000000e+00 2.0000000e+01 
3.4700000e+00 1.0000000e+00 0.0000000e+00 
3.4700000e+00 1.0000000e+00 2.0000000e+01 
0.0000000e+00 1.0000000e+00 0.0000000e+00 
0.0000000e+00 1.0000000e+00 2.0000000e+01 
1.2500000e+00 2.5000000e+00 0.0000000e+00 
1.2500000e+00 2.5000000e+00 1.1700000e-01 
7.5000000e-01 2.5000000e+00 1.1700000e-01 
7.5000000e-01 2.5000000e+00 0.0000000e+00 
0.0000000e+00 2.5000000e+00 0.0000000e+00 
0.0000000e+00 2.5000000e+00 1.1700000e-01 
1.2500000e+00 2.8000000e+00 1.1700000e-01 
1.2500000e+00 2.8000000e+00 0.0000000e+00 
0.0000000e+00 2.8000000e+00 0.0000000e+00 
0.0000000e+00 2.8000000e+00 1.1700000e-01 
7.5000000e-01 2.5000000e+00 8.8300002e-01 
1.2500000e+00 2.5000000e+00 8.8300002e-01 
1.2500000e+00 2.5000000e+00 1.1170000e+00 
7.5000000e-01 2.5000000e+00 1.1170000e+00 
7.5000000e-01 2.5000000e+00 1.0000000e+00 
0.0000000e+00 2.5000000e+00 8.8300002e-01 
0.0000000e+00 2.5000000e+00 1.1170000e+00 
1.2500000e+00 2.8000000e+00 1.1170000e+00 
1.2500000e+00 2.8000000e+00 8.8300002e-01 
0.0000000e+00 2.8000000e+00 8.8300002e-01 
0.0000000e+00 2.8000000e+00 1.1170000e+00 
7.5000000e-01 2.5000000e+00 1.8830000e+00 
1.2500000e+00 2.5000000e+00 1.8830000e+00 
1.2500000e+00 2.5000000e+00 2.1170001e+00 
7.5000000e-01 2.5000000e+00 2.1170001e+00 
7.5000000e-01 2.5000000e+00 2.0000000e+00 
0.0000000e+00 2.5000000e+00 1.8830000e+00 
0.0000000e+00 2.5000000e+00 2.1170001e+00 
1.2500000e+00 2.8000000e+00 2.1170001e+00 
1.2500000e+00 2.8000000e+00 1.8830000e+00 
0.0000000e+00 2.8000000e+00 1.8830000e+00 
0.0000000e+00 2.8000000e+00 2.1170001e+00 
7.5000000e-01 2.5000000e+00 2.8829999e+00 
1.2500000e+00 2.5000000e+00 2.8829999e+00 
1.2500000e+00 2.5000000e+00 3.1170001e+00 
7.5000000e-01 2.5000000e+00 3.1170001e+00 
7.5000000e-01 2.5000000e+00 3.0000000e+00 
0.0000000e+00 2.5000000e+00 2.8829999e+00 
0.0000000e+00 2.5000000e+00 3.1170001e+00 
1.2500000e+00 2.8000000e+00 3.1170001e+00 
1.2500000e+00 2.8000000e+00 2.8829999e+00 
0.0000000e+00 2.8000000e+00 2.8829999e+00 
0.0000000e+00 2.8000000e+00 3.1170001e+00 
7.5000000e-01 2.5000000e+00 3.8829999e+00 
1.2500000e+00 2.5000000e+00 3.8829999e+00 
1.2500000e+00 2.5000000e+00 4.1170001e+00 
7.5000000e-01 2.5000000e+00 4.1170001e+00 
7.5000000e-01 2.5000000e+00 4.0000000e+00 
0.0000000e+00 2.5000000e+00 3.8829999e+00 
0.0000000e+00 2.5000000e+00 4.1170001e+00 
1.2500000e+00 2.8000000e+00 4.1170001e+00 
1.2500000e+00 2.8000000e+00 3.8829999e+00 
0.0000000e+00 2.8000000e+00 3.8829999e+00 
0.0000000e+00 2.8000000e+00 4.1170001e+00 
7.5000000e-01 2.5000000e+00 4.8829999e+00 
1.2500000e+00 2.5000000e+00 4.8829999e+00 
1.2500000e+00 2.5000000e+00 5.1170001e+00 
7.5000000e-01 2.5000000e+00 5.1170001e+00 
7.5000000e-01 2.5000000e+00 5.0000000e+00 
0.0000000e+00 2.5000000e+00 4.8829999e+00 
0.0000000e+00 2.5000000e+00 5.1170001e+00 
1.2500000e+00 2.8000000e+00 5.1170001e+00 
1.2500000e+00 2.8000000e+00 4.8829999e+00 
0.0000000e+00 2.8000000e+00 4.8829999e+00 
0.0000000e+00 2.8000000e+00 5.1170001e+00 
7.5000000e-01 2.5000000e+00 5.8829999e+00 
1.2500000e+00 2.5000000e+00 5.8829999e+00 
1.2500000e+00 2.5000000e+00 6.1170001e+00 
7.5000000e-01 2.5000000e+00 6.1170001e+00 
7.5000000e-01 2.5000000e+00 6.0000000e+00 
0.0000000e+00 2.5000000e+00 5.8829999e+00 
0.0000000e+00 2.5000000e+00 6.1170001e+00 
1.2500000e+00 2.8000000e+00 6.1170001e+00 
1.2500000e+00 2.8000000e+00 5.8829999e+00 
0.0000000e+00 2.8000000e+00 5.8829999e+00 
0.0000000e+00 2.8000000e+00 6.1170001e+00 
7.5000000e-01 2.5000000e+00 6.8829999e+00 
1.2500000e+00 2.5000000e+00 6.8829999e+00 
1.2500000e+00 2.5000000e+00 7.1170001e+00 
7.5000000e-01 2.5000000e+00 7.1170001e+00 
7.5000000e-01 2.5000000e+00 7.0000000e+00 
0.0000000e+00 2.5000000e+00 6.8829999e+00 
0.0000000e+00 2.5000000e+00 7.1170001e+00 
1.2500000e+00 2.8000000e+00 7.1170001e+00 
1.2500000e+00 2.8000000e+00 6.8829999e+00 
0.0000000e+00 2.8000000e+00 6.8829999e+00 
0.0000000e+00 2.8000000e+00 7.1170001e+00 
7.5000000e-01 2.5000000e+00 7.8829999e+00 
1.2500000e+00 2.5000000e+00 7.8829999e+00 
1.2500000e+00 2.5000000e+00 8.1169996e+00 
7.5000000e-01 2.5000000e+00 8.1169996e+00 
7.5000000e-01 2.5000000e+00 8.0000000e+00 
0.0000000e+00 2.5000000e+00 7.8829999e+00 
0.0000000e+00 2.5000000e+00 8.1169996e+00 
1.2500000e+00 2.8000000e+00 8.1169996e+00 
1.2500000e+00 2.8000000e+00 7.8829999e+00 
0.0000000e+00 2.8000000e+00 7.8829999e+00 
0.0000000e+00 2.8000000e+00 8.1169996e+00 
7.5000000e-01 2.5000000e+00 8.8830004e+00 
1.2500000e+00 2.5000000e+00 8.8830004e+00 
1.2500000e+00 2.5000000e+00 9.1169996e+00 
7.5000000e-01 2.5000000e+00 9.1169996e+00 
7.5000000e-01 2.5000000e+00 9.0000000e+00 
0.0000000e+00 2.5000000e+00 8.8830004e+00 
0.0000000e+00 2.5000000e+00 9.1169996e+00 
1.2500000e+00 2.8000000e+00 9.1169996e+00 
1.2500000e+00 2.8000000e+00 8.8830004e+00 
0.0000000e+00 2.8000000e+00 8.8830004e+00 
0.0000000e+00 2.8000000e+00 9.1169996e+00 
7.5000000e-01 2.5000000e+00 9.8830004e+00 
1.2500000e+00 2.5000000e+00 9.8830004e+00 
1.2500000e+00 2.5000000e+00 1.0117000e+01 
7.5000000e-01 2.5000000e+00 1.0117000e+01 
7.5000000e-01 2.5000000e+00 1.0000000e+01 
0.0000000e+00 2.5000000e+00 9.8830004e+00 
0.0000000e+00 2.5000000e+00 1.0117000e+01 
1.2500000e+00 2.8000000e+00 1.0117000e+01 
1.2500000e+00 2.8000000e+00 9.8830004e+00 
0.0000000e+00 2.8000000e+00 9.8830004e+00 
0.0000000e+00 2.8000000e+00 1.0117000e+01 
7.5000000e-01 2.5000000e+00 1.0883000e+01 
1.2500000e+00 2.5000000e+00 1.0883000e+01 
1.2500000e+00 2.5000000e+00 1.1117000e+01 
7.5000000e-01 2.5000000e+00 1.1117000e+01 
7.5000000e-01 2.5000000e+00 1.1000000e+01 
0.0000000e+00 2.5000000e+00 1.0883000e+01 
0.0000000e+00 2.5000000e+00 1.1117000e+01 
1.2500000e+00 2.8000000e+00 1.1117000e+01 
1.2500000e+00 2.8000000e+00 1.0883000e+01 
0.0000000e+00 2.8000000e+00 1.0883000e+01 
0.0000000e+00 2.8000000e+00 1.1117000e+01 
7.5000000e-01 2.5000000e+00 1.1883000e+01 
1.2500000e+00 2.5000000e+00 1.1883000e+01 
1.2500000e+00 2.5000000e+00 1.2117000e+01 
7.5000000e-01 2.5000000e+00 1.2117000e+01 
7.5000000e-01 2.5000000e+00 1.2000000e+01 
0.0000000e+00 2.5000000e+00 1.1883000e+01 
0.0000000e+00 2.5000000e+00 1.2117000e+01 
1.2500000e+00 2.8000000e+00 1.2117000e+01 
1.2500000e+00 2.8000000e+00 1.1883000e+01 
0.0000000e+00 2.8000000e+00 1.1883000e+01 
0.0000000e+00 2.8000000e+00 1.2117000e+01 
7.5000000e-01 2.5000000e+00 1.2883000e+01 
1.2500000e+00 2.5000000e+00 1.2883000e+01 
1.2500000e+00 2.5000000e+00 1.3117000e+01 
7.5000000e-01 2.5000000e+00 1.3117000e+01 
7.5000000e-01 2.5000000e+00 1.3000000e+01 
0.0000000e+00 2.5000000e+00 1.2883000e+01 
0.0000000e+00 2.5000000e+00 1.3117000e+01 
1.2500000e+00 2.8000000e+00 1.3117000e+01 
1.2500000e+00 2.8000000e+00 1.2883000e+01 
0.0000000e+00 2.8000000e+00 1.2883000e+01 
0.0000000e+00 2.8000000e+00 1.3117000e+01 
7.5000000e-01 2.5000000e+00 1.3883000e+01 
1.2500000e+00 2.5000000e+00 1.3883000e+01 
1.2500000e+00 2.5000000e+00 1.4117000e+01 
7.5000000e-01 2.5000000e+00 1.4117000e+01 
7.5000000e-01 2.5000000e+00 1.4000000e+01 
0.0000000e+00 2.5000000e+00 1.3883000e+01 
0.0000000e+00 2.5000000e+00 1.4117000e+01 
1.2500000e+00 2.8000000e+00 1.4117000e+01 
1.2500000e+00 2.8000000e+00 1.3883000e+01 
0.0000000e+00 2.8000000e+00 1.3883000e+01 
0.0000000e+00 2.8000000e+00 1.4117000e+01 
7.5000000e-01 2.5000000e+00 1.4883000e+01 
1.2500000e+00 2.5000000e+00 1.4883000e+01 
1.2500000e+00 2.5000000e+00 1.5117000e+01 
7.5000000e-01 2.5000000e+00 1.5117000e+01 
7.5000000e-01 2.5000000e+00 1.5000000e+01 
0.0000000e+00 2.5000000e+00 1.4883000e+01 
0.0000000e+00 2.5000000e+00 1.5117000e+01 
1.2500000e+00 2.8000000e+00 1.5117000e+01 
1.2500000e+00 2.8000000e+00 1.4883000e+01 
0.0000000e+00 2.8000000e+00 1.4883000e+01 
0.0000000e+00 2.8000000e+00 1.5117000e+01 
7.5000000e-01 2.5000000e+00 1.5883000e+01 
1.2500000e+00 2.5000000e+00 1.5883000e+01 
1.2500000e+00 2.5000000e+00 1.6117001e+01 
7.5000000e-01 2.5000000e+00 1.6117001e+01 
7.5000000e-01 2.5000000e+00 1.6000000e+01 
0.0000000e+00 2.5000000e+00 1.5883000e+01 
0.0000000e+00 2.5000000e+00 1.6117001e+01 
1.2500000e+00 2.8000000e+00 1.6117001e+01 
1.2500000e+00 2.8000000e+00 1.5883000e+01 
0.0000000e+00 2.8000000e+00 1.5883000e+01 
0.0000000e+00 2.8000000e+00 1.6117001e+01 
7.5000000e-01 2.5000000e+00 1.6882999e+01 
1.2500000e+00 2.5000000e+00 1.6882999e+01 
1.2500000e+00 2.5000000e+00 1.7117001e+01 
7.5000000e-01 2.5000000e+00 1.7117001e+01 
7.5000000e-01 2.5000000e+00 1.7000000e+01 
0.0000000e+00 2.5000000e+00 1.6882999e+01 
0.0000000e+00 2.5000000e+00 1.7117001e+01 
1.2500000e+00 2.8000000e+00 1.7117001e+01 
1.2500000e+00 2.8000000e+00 1.6882999e+01 
0.0000000e+00 2.8000000e+00 1.6882999e+01 
0.0000000e+00 2.8000000e+00 1.7117001e+01 
7.5000000e-01 2.5000000e+00 1.7882999e+01 
1.2500000e+00 2.5000000e+00 1.7882999e+01 
1.2500000e+00 2.5000000e+00 1.8117001e+01 
7.5000000e-01 2.5000000e+00 1.8117001e+01 
7.5000000e-01 2.5000000e+00 1.8000000e+01 
0.0000000e+00 2.5000000e+00 1.7882999e+01 
0.0000000e+00 2.5000000e+00 1.8117001e+01 
1.2500000e+00 2.8000000e+00 1.8117001e+01 
1.2500000e+00 2.8000000e+00 1.7882999e+01 
0.0000000e+00 2.8000000e+00 1.7882999e+01 
0.0000000e+00 2.8000000e+00 1.8117001e+01 
7.5000000e-01 2.5000000e+00 1.8882999e+01 
1.2500000e+00 2.5000000e+00 1.8882999e+01 
1.2500000e+00 2.5000000e+00 1.9117001e+01 
7.5000000e-01 2.5000000e+00 1.9117001e+01 
7.5000000e-01 2.5000000e+00 1.9000000e+01 
0.0000000e+00 2.5000000e+00 1.8882999e+01 
0.0000000e+00 2.5000000e+00 1.9117001e+01 
1.2500000e+00 2.8000000e+00 1.9117001e+01 
1.2500000e+00 2.8000000e+00 1.8882999e+01 
0.0000000e+00 2.8000000e+00 1.8882999e+01 
0.0000000e+00 2.8000000e+00 1.9117001e+01 
3.4700000e+00 2.5000000e+00 0.0000000e+00 
3.4700000e+00 2.5000000e+00 2.0000000e+01 
7.5000000e-01 2.5000000e+00 1.9882999e+01 
[...]
POINT_DATA 1439
FIELD FieldData 1
DISPLACEMENT 3 1439  float
0.0000000e+00 0.0000000e+00 0.0000000e+00 
0.0000000e+00 0.0000000e+00 0.0000000e+00 
0.0000000e+00 0.0000000e+00 0.0000000e+00 
0.0000000e+00 0.0000000e+00 0.0000000e+00 
0.0000000e+00 -1.8873123e-09 0.0000000e+00 
0.0000000e+00 -2.3440745e-07 0.0000000e+00 
0.0000000e+00 -3.5460048e-09 0.0000000e+00 
0.0000000e+00 -3.2707958e-06 0.0000000e+00 
0.0000000e+00 -6.9191621e-08 0.0000000e+00 
2.9828418e-12 -6.9190101e-08 8.9296533e-13 
-1.7411491e-12 -6.9214337e-08 2.1232124e-12 
0.0000000e+00 -6.9218153e-08 0.0000000e+00 
0.0000000e+00 -6.9145678e-08 0.0000000e+00 
0.0000000e+00 -6.9146793e-08 0.0000000e+00 
-3.6769082e-12 -6.9190001e-08 -1.8478329e-12 
0.0000000e+00 -6.9188964e-08 0.0000000e+00 
0.0000000e+00 -6.9142835e-08 0.0000000e+00 
0.0000000e+00 -6.9142416e-08 0.0000000e+00 
-1.4661024e-11 -8.5447603e-08 1.3531557e-12 
-5.5882928e-12 -8.5487990e-08 1.1626615e-11 
-9.0760680e-12 -8.5490448e-08 1.0766858e-11 
-1.7956718e-11 -8.5449642e-08 6.2718992e-12 
-1.7723767e-11 -8.5452449e-08 3.8191403e-12 
0.0000000e+00 -8.5337341e-08 0.0000000e+00 
0.0000000e+00 -8.5338399e-08 0.0000000e+00 
1.2960339e-11 -8.5491159e-08 1.4051199e-11 
1.5883940e-11 -8.5488622e-08 1.5183483e-11 
0.0000000e+00 -8.5337433e-08 0.0000000e+00 
0.0000000e+00 -8.5335678e-08 0.0000000e+00 
-1.0611769e-11 -5.5774088e-08 -1.2974232e-11 
-1.2059881e-11 -5.5804048e-08 -2.2970367e-11 
-7.0870488e-12 -5.5804129e-08 -2.4066835e-11 
-6.3779659e-12 -5.5774226e-08 -1.2986798e-11 
-8.5397280e-12 -5.5774418e-08 -1.2904024e-11 
0.0000000e+00 -5.5742511e-08 0.0000000e+00 
0.0000000e+00 -5.5742163e-08 0.0000000e+00 
1.0343402e-11 -5.5800982e-08 -2.2802985e-11 
5.1681346e-12 -5.5800513e-08 -2.2767538e-11 
0.0000000e+00 -5.5740848e-08 0.0000000e+00 
0.0000000e+00 -5.5740475e-08 0.0000000e+00 
8.8071998e-12 2.3083037e-07 -3.9663797e-11 
-3.3982896e-11 2.3086078e-07 -9.9367799e-11 
-8.9643466e-12 2.3086994e-07 -1.0327901e-10 
3.0636906e-11 2.3083679e-07 -5.8608035e-11 
2.4651031e-11 2.3084638e-07 -4.8845365e-11 
0.0000000e+00 2.3054189e-07 0.0000000e+00 
0.0000000e+00 2.3054349e-07 0.0000000e+00 
-2.0762107e-11 2.3089220e-07 -1.0880830e-10 
-4.4687073e-11 2.3088526e-07 -1.1317003e-10 
0.0000000e+00 2.3055492e-07 0.0000000e+00 
0.0000000e+00 2.3055092e-07 0.0000000e+00 
5.7235806e-11 9.7665952e-07 -8.7632526e-11 
-7.6047633e-11 9.7686950e-07 -2.5435914e-10 
-8.7890389e-12 9.7689667e-07 -2.6494176e-10 
1.1760309e-10 9.7667942e-07 -1.4908097e-10 
1.0341452e-10 9.7671091e-07 -1.1801005e-10 
0.0000000e+00 9.7563543e-07 0.0000000e+00 
0.0000000e+00 9.7564839e-07 0.0000000e+00 
-1.1053386e-10 9.7696363e-07 -2.8484354e-10 
-1.7278258e-10 9.7693999e-07 -2.9936606e-10 
0.0000000e+00 9.7568363e-07 0.0000000e+00 
0.0000000e+00 9.7566760e-07 0.0000000e+00 
1.8043278e-10 1.9726972e-06 8.8419626e-11 
-5.4060551e-11 1.9731922e-06 6.5926258e-12 
-3.7498810e-11 1.9732818e-06 -1.2327695e-11 
1.9615393e-10 1.9727806e-06 -2.5935075e-11 
2.1636914e-10 1.9728138e-06 2.9862422e-11 
0.0000000e+00 1.9707609e-06 0.0000000e+00 
0.0000000e+00 1.9707763e-06 0.0000000e+00 
-2.8008593e-10 1.9733989e-06 -1.0309602e-10 
-2.9574063e-10 1.9733193e-06 -1.3345822e-10 
0.0000000e+00 1.9708502e-06 0.0000000e+00 
0.0000000e+00 1.9708193e-06 0.0000000e+00 
2.8574457e-10 1.8387184e-06 4.9760229e-10 
8.4097125e-11 1.8392702e-06 9.1798508e-10 
-1.3360077e-10 1.8392446e-06 9.0052760e-10 
1.0528675e-10 1.8386908e-06 3.8999418e-10 
2.2072545e-10 1.8387756e-06 4.4124682e-10 
0.0000000e+00 1.8367417e-06 0.0000000e+00 
0.0000000e+00 1.8367406e-06 0.0000000e+00 
-4.0894513e-10 1.8393650e-06 9.4532204e-10 
-1.9249949e-10 1.8393772e-06 9.1523961e-10 
0.0000000e+00 1.8367811e-06 0.0000000e+00 
0.0000000e+00 1.8368345e-06 0.0000000e+00 
7.6841575e-11 -2.7357555e-06 1.0524679e-09 
3.8964865e-10 -2.7359290e-06 2.1503901e-09 
-1.0291448e-10 -2.7358744e-06 2.1793907e-09 
-3.3926553e-10 -2.7356978e-06 1.1820370e-09 
-1.6738459e-10 -2.7358092e-06 1.1098047e-09 
0.0000000e+00 -2.7338408e-06 0.0000000e+00 
0.0000000e+00 -2.7338472e-06 0.0000000e+00 
-4.5623890e-11 -2.7360236e-06 2.0480833e-09 
4.4047274e-10 -2.7360986e-06 2.0797446e-09 
0.0000000e+00 -2.7339411e-06 0.0000000e+00 
0.0000000e+00 -2.7338588e-06 0.0000000e+00 
-6.6520395e-10 -1.6368385e-05 1.6242838e-09 
1.1384782e-09 -1.6371092e-05 4.2378434e-09 
6.9891898e-11 -1.6371408e-05 4.3990740e-09 
-1.5577780e-09 -1.6368707e-05 2.4436533e-09 
-1.3108764e-09 -1.6369084e-05 2.0250757e-09 
0.0000000e+00 -1.6355058e-05 0.0000000e+00 
0.0000000e+00 -1.6355079e-05 0.0000000e+00 
1.3099777e-09 -1.6372311e-05 4.5696633e-09 
2.3696103e-09 -1.6372074e-05 4.7912363e-09 
0.0000000e+00 -1.6355707e-05 0.0000000e+00 
0.0000000e+00 -1.6355387e-05 0.0000000e+00 
-3.6311016e-09 -4.0080584e-05 -1.5605449e-09 
4.3930631e-10 -4.0089675e-05 -2.6455986e-09 
1.3598298e-09 -4.0088576e-05 -2.2912707e-09 
-2.8199081e-09 -4.0079714e-05 4.1140596e-10 
-3.7132761e-09 -4.0081464e-05 -5.7318766e-10 
0.0000000e+00 -4.0045394e-05 0.0000000e+00 
0.0000000e+00 -4.0045223e-05 0.0000000e+00 
5.6895937e-09 -4.0090854e-05 -4.0898787e-09 
4.9295754e-09 -4.0091869e-05 -3.6247096e-09 
0.0000000e+00 -4.0046460e-05 0.0000000e+00 
0.0000000e+00 -4.0046791e-05 0.0000000e+00 
-3.9954746e-09 -5.8792710e-05 2.0312809e-09 
2.0835960e-09 -5.8806982e-05 8.2891622e-09 
-2.9986830e-10 -5.8807909e-05 8.8022922e-09 
-6.0449228e-09 -5.8793517e-05 4.9006563e-09 
-5.7166525e-09 -5.8795020e-05 3.4392298e-09 
0.0000000e+00 -5.8741494e-05 0.0000000e+00 
0.0000000e+00 -5.8741556e-05 0.0000000e+00 
6.9632575e-09 -5.8811103e-05 9.4092325e-09 
9.1399031e-09 -5.8810230e-05 1.0096980e-08 
0.0000000e+00 -5.8743830e-05 0.0000000e+00 
0.0000000e+00 -5.8743117e-05 0.0000000e+00 
-3.5637930e-09 -2.2534834e-05 -5.9552381e-09 
-1.7342269e-09 -2.2545593e-05 -9.2451140e-09 
2.0778010e-11 -2.2546541e-05 -9.0996970e-09 
-2.1595812e-09 -2.2535716e-05 -4.9749951e-09 
-3.0639178e-09 -2.2535944e-05 -5.4200391e-09 
0.0000000e+00 -2.2512080e-05 0.0000000e+00 
0.0000000e+00 -2.2512095e-05 0.0000000e+00 
5.8824847e-09 -2.2547627e-05 -7.7978095e-09 
3.9963091e-09 -2.2546525e-05 -7.5512556e-09 
0.0000000e+00 -2.2513215e-05 0.0000000e+00 
0.0000000e+00 -2.2513190e-05 0.0000000e+00 
4.4597490e-09 1.6207670e-04 -1.9074134e-08 
-1.3935956e-08 1.6209549e-04 -4.7578467e-08 
-2.0561459e-09 1.6209789e-04 -4.9136446e-08 
1.4613207e-08 1.6207864e-04 -2.7315631e-08 
1.1644190e-08 1.6208319e-04 -2.3034305e-08 
0.0000000e+00 1.6194844e-04 0.0000000e+00 
0.0000000e+00 1.6194880e-04 0.0000000e+00 
-1.0100641e-08 1.6210730e-04 -4.9921034e-08 
-2.1503201e-08 1.6210545e-04 -5.1855118e-08 
0.0000000e+00 1.6195406e-04 0.0000000e+00 
0.0000000e+00 1.6195195e-04 0.0000000e+00 
3.0547120e-08 5.8403000e-04 -1.6799905e-08 
-3.2226680e-08 5.8412808e-04 -7.5595032e-08 
-1.0163510e-08 5.8414636e-04 -8.1035274e-08 
4.8766907e-08 5.8404735e-04 -4.6178432e-08 
4.6850573e-08 5.8405788e-04 -3.1519544e-08 
0.0000000e+00 5.8355817e-04 0.0000000e+00 
0.0000000e+00 5.8356108e-04 0.0000000e+00 
-5.5551215e-08 5.8417802e-04 -9.6757987e-08 
-7.7151860e-08 5.8416254e-04 -1.0459178e-07 
0.0000000e+00 5.8358104e-04 0.0000000e+00 
0.0000000e+00 5.8357202e-04 0.0000000e+00 
6.9616220e-08 1.1477673e-03 -3.5267707e-08 
-4.9222450e-08 1.1480098e-03 -1.5434911e-07 
-3.4047891e-09 1.1480364e-03 -1.6463156e-07 
1.0891403e-07 1.1477891e-03 -9.1141537e-08 
1.0297485e-07 1.1478154e-03 -6.2798563e-08 
0.0000000e+00 1.1468054e-03 0.0000000e+00 
0.0000000e+00 1.1468095e-03 0.0000000e+00 
-1.2503938e-07 1.1480983e-03 -1.8550487e-07 
-1.6671481e-07 1.1480742e-03 -1.9880922e-07 
0.0000000e+00 1.1468491e-03 0.0000000e+00 
0.0000000e+00 1.1468380e-03 0.0000000e+00 
7.4323822e-08 1.2561717e-03 -9.4244665e-09 
-4.8423924e-08 1.2564041e-03 -9.8230124e-08 
-1.7881451e-08 1.2564389e-03 -1.0916438e-07 
1.0047975e-07 1.2562043e-03 -6.7643143e-08 
1.0155823e-07 1.2562260e-03 -3.8762291e-08 
0.0000000e+00 1.2552000e-03 0.0000000e+00 
0.0000000e+00 1.2552039e-03 0.0000000e+00 
-1.2947595e-07 1.2565014e-03 -1.3953607e-07 
-1.5961157e-07 1.2564721e-03 -1.5515296e-07 
0.0000000e+00 1.2552472e-03 0.0000000e+00 
0.0000000e+00 1.2552283e-03 0.0000000e+00 
4.3893831e-08 7.4825867e-04 -1.0788217e-08 
-2.4647901e-08 7.4840517e-04 -6.5466239e-08 
-5.5103531e-09 7.4842607e-04 -7.1472677e-08 
6.1637991e-08 7.4827834e-04 -4.3823132e-08 
6.1002012e-08 7.4828992e-04 -2.7571977e-08 
0.0000000e+00 7.4770022e-04 0.0000000e+00 
0.0000000e+00 7.4770505e-04 0.0000000e+00 
-7.7252210e-08 7.4846094e-04 -9.1144607e-08 
-9.5884467e-08 7.4844266e-04 -9.9997862e-08 
0.0000000e+00 7.4772915e-04 0.0000000e+00 
0.0000000e+00 7.4771687e-04 0.0000000e+00 
1.7523183e-08 2.7796029e-04 1.6529048e-08 
-5.7918399e-09 2.7800296e-04 1.4618269e-08 
-7.0105060e-09 2.7801111e-04 1.2585804e-08 
1.6391628e-08 2.7796809e-04 5.2208526e-09 
1.9749828e-08 2.7797153e-04 1.0699472e-08 
0.0000000e+00 2.7777610e-04 0.0000000e+00 
0.0000000e+00 2.7777691e-04 0.0000000e+00 
-2.7349760e-08 2.7802330e-04 4.2372994e-09 
-2.5909802e-08 2.7801585e-04 1.2756045e-09 
0.0000000e+00 2.7778454e-04 0.0000000e+00 
0.0000000e+00 2.7778160e-04 0.0000000e+00 
3.6396175e-10 2.4414585e-05 4.6448467e-09 
-2.7510713e-10 2.4411996e-05 8.5302014e-09 
-2.2244615e-09 2.4411929e-05 8.4622460e-09 
-1.1914543e-09 2.4414639e-05 4.2288737e-09 
-3.1154621e-10 2.4414911e-05 4.4051740e-09 
0.0000000e+00 2.4412624e-05 0.0000000e+00 
0.0000000e+00 2.4412424e-05 0.0000000e+00 
-4.9603377e-10 2.4412462e-05 8.3309333e-09 
1.4463007e-09 2.4412357e-05 8.2466736e-09 
0.0000000e+00 2.4412431e-05 0.0000000e+00 
0.0000000e+00 2.4412466e-05 0.0000000e+00 
-6.9376522e-09 -6.9153612e-05 -3.9186538e-09 
-1.6257410e-11 -6.9170921e-05 -6.4182335e-09 
1.7837964e-09 -6.9168716e-05 -5.8036833e-09 
-5.2683222e-09 -6.9151429e-05 -5.3794780e-10 
-6.9460588e-09 -6.9154710e-05 -2.2616304e-09 
0.0000000e+00 -6.9091875e-05 0.0000000e+00 
0.0000000e+00 -6.9091388e-05 0.0000000e+00 
1.0410827e-08 -6.9172558e-05 -9.5035277e-09 
8.6779623e-09 -6.9174574e-05 -8.5995602e-09 
0.0000000e+00 -6.9093301e-05 0.0000000e+00 
0.0000000e+00 -6.9094560e-05 0.0000000e+00 
0.0000000e+00 -5.4009321e-09 0.0000000e+00 
0.0000000e+00 -7.1493076e-07 0.0000000e+00 
-7.3672912e-10 -8.8938148e-05 -1.8401847e-09 
1.2999863e-09 -8.8923342e-05 -6.7723332e-10 
0.0000000e+00 -8.8924040e-05 0.0000000e+00 
0.0000000e+00 -8.8940593e-05 0.0000000e+00 
0.0000000e+00 -8.8894332e-05 0.0000000e+00 
0.0000000e+00 -8.8894289e-05 0.0000000e+00 
0.0000000e+00 -8.8926849e-05 0.0000000e+00 
-2.5920033e-09 -8.8926645e-05 9.8525743e-10 
0.0000000e+00 -8.8896937e-05 0.0000000e+00 
0.0000000e+00 -8.8896741e-05 0.0000000e+00 
0.0000000e+00 -6.9478602e-08 0.0000000e+00 
0.0000000e+00 -8.5969752e-08 0.0000000e+00 
0.0000000e+00 -5.6001056e-08 0.0000000e+00 
0.0000000e+00 2.3194329e-07 0.0000000e+00 
0.0000000e+00 9.8097087e-07 0.0000000e+00 
0.0000000e+00 1.9812444e-06 0.0000000e+00 
0.0000000e+00 1.8474869e-06 0.0000000e+00 
0.0000000e+00 -2.7431274e-06 0.0000000e+00 
0.0000000e+00 -1.6426715e-05 0.0000000e+00 
0.0000000e+00 -4.0228897e-05 0.0000000e+00 
0.0000000e+00 -5.9019880e-05 0.0000000e+00 
0.0000000e+00 -2.2646345e-05 0.0000000e+00 
0.0000000e+00 1.6263388e-04 0.0000000e+00 
0.0000000e+00 5.8617454e-04 0.0000000e+00 
0.0000000e+00 1.1520733e-03 0.0000000e+00 
0.0000000e+00 1.2608944e-03 0.0000000e+00 
0.0000000e+00 7.5103971e-04 0.0000000e+00 
0.0000000e+00 2.7895547e-04 0.0000000e+00 
0.0000000e+00 2.4483450e-05 0.0000000e+00 
0.0000000e+00 -6.9419904e-05 0.0000000e+00 
0.0000000e+00 -8.9108129e-05 0.0000000e+00 
0.0000000e+00 -6.9233607e-08 0.0000000e+00 
2.4123894e-11 -8.5483059e-08 7.2468889e-12 
8.0024520e-12 -5.5776212e-08 -1.2511066e-11 
-6.4965006e-11 2.3095672e-07 -5.8325962e-11 
-2.4096683e-10 9.7707721e-07 -1.5067185e-10 
-4.6518006e-10 1.9735007e-06 -8.1222057e-11 
-4.6275761e-10 1.8394202e-06 4.8790555e-10 
4.1632608e-10 -2.7365518e-06 1.0573897e-09 
3.1292091e-09 -1.6373933e-05 2.5001112e-09 
8.3270058e-09 -4.0093331e-05 -1.8799899e-09 
1.2353937e-08 -5.8812289e-05 4.7882240e-09 
6.0874323e-09 -2.2542246e-05 -4.1424149e-09 
-2.9347728e-08 1.6213184e-04 -2.6262274e-08 
-1.1224922e-07 5.8423256e-04 -5.5671695e-08 
-2.3105842e-07 1.1481512e-03 -9.6162410e-08 
-2.3393491e-07 1.2565742e-03 -8.3825164e-08 
-1.3661897e-07 7.4848876e-04 -5.5597042e-08 
-4.4213980e-08 2.7803914e-04 1.3056096e-10 
-2.9000666e-10 2.4417328e-05 4.3740824e-09 
1.4671128e-08 -6.9175061e-05 -5.3327405e-09 
0.0000000e+00 -8.8953682e-05 0.0000000e+00 
0.0000000e+00 0.0000000e+00 0.0000000e+00 
0.0000000e+00 0.0000000e+00 0.0000000e+00 
0.0000000e+00 0.0000000e+00 0.0000000e+00 
0.0000000e+00 0.0000000e+00 0.0000000e+00 
0.0000000e+00 0.0000000e+00 0.0000000e+00 
0.0000000e+00 0.0000000e+00 0.0000000e+00 
0.0000000e+00 0.0000000e+00 0.0000000e+00 
0.0000000e+00 0.0000000e+00 0.0000000e+00 
0.0000000e+00 0.0000000e+00 0.0000000e+00 
0.0000000e+00 0.0000000e+00 0.0000000e+00 
0.0000000e+00 0.0000000e+00 0.0000000e+00 
0.0000000e+00 0.0000000e+00 0.0000000e+00 
0.0000000e+00 0.0000000e+00 0.0000000e+00 
0.0000000e+00 0.0000000e+00 0.0000000e+00 
0.0000000e+00 0.0000000e+00 0.0000000e+00 
0.0000000e+00 0.0000000e+00 0.0000000e+00 
0.0000000e+00 0.0000000e+00 0.0000000e+00 
0.0000000e+00 0.0000000e+00 0.0000000e+00 
0.0000000e+00 0.0000000e+00 0.0000000e+00 
0.0000000e+00 0.0000000e+00 0.0000000e+00 
0.0000000e+00 0.0000000e+00 0.0000000e+00 
0.0000000e+00 0.0000000e+00 0.0000000e+00 
0.0000000e+00 0.0000000e+00 0.0000000e+00 
0.0000000e+00 0.0000000e+00 0.0000000e+00 
0.0000000e+00 0.0000000e+00 0.0000000e+00 
0.0000000e+00 0.0000000e+00 0.0000000e+00 
0.0000000e+00 0.0000000e+00 0.0000000e+00 
0.0000000e+00 0.0000000e+00 0.0000000e+00 
0.0000000e+00 0.0000000e+00 0.0000000e+00 
0.0000000e+00 0.0000000e+00 0.0000000e+00 
0.0000000e+00 0.0000000e+00 0.0000000e+00 
0.0000000e+00 0.0000000e+00 0.0000000e+00 
0.0000000e+00 0.0000000e+00 0.0000000e+00 
0.0000000e+00 0.0000000e+00 0.0000000e+00 
0.0000000e+00 0.0000000e+00 0.0000000e+00 
0.0000000e+00 0.0000000e+00 0.0000000e+00 
0.0000000e+00 0.0000000e+00 0.0000000e+00 
0.0000000e+00 0.0000000e+00 0.0000000e+00 
0.0000000e+00 0.0000000e+00 0.0000000e+00 
0.0000000e+00 0.0000000e+00 0.0000000e+00 
0.0000000e+00 0.0000000e+00 0.0000000e+00 
0.0000000e+00 0.0000000e+00 0.0000000e+00 
0.0000000e+00 0.0000000e+00 0.0000000e+00 
0.0000000e+00 0.0000000e+00 0.0000000e+00 
0.0000000e+00 -1.3632376e-09 0.0000000e+00 
0.0000000e+00 -5.8535304e-10 0.0000000e+00 
0.0000000e+00 8.5590257e-10 0.0000000e+00 
0.0000000e+00 2.3108695e-09 0.0000000e+00 
0.0000000e+00 3.9863543e-10 0.0000000e+00 
0.0000000e+00 -1.6630957e-09 0.0000000e+00 
0.0000000e+00 -2.6229868e-08 0.0000000e+00 
0.0000000e+00 -9.8588771e-08 0.0000000e+00 
0.0000000e+00 -1.4510769e-07 0.0000000e+00 
0.0000000e+00 9.1575878e-08 0.0000000e+00 
0.0000000e+00 3.4716049e-07 0.0000000e+00 
0.0000000e+00 2.2641477e-07 0.0000000e+00 
0.0000000e+00 1.9671679e-06 0.0000000e+00 
0.0000000e+00 3.8236594e-06 0.0000000e+00 
0.0000000e+00 3.1441477e-06 0.0000000e+00 
0.0000000e+00 1.2099168e-06 0.0000000e+00 
0.0000000e+00 8.4353343e-07 0.0000000e+00 
0.0000000e+00 1.0390875e-06 0.0000000e+00 
0.0000000e+00 -9.4976478e-08 0.0000000e+00 
0.0000000e+00 -6.0863381e-10 0.0000000e+00 
0.0000000e+00 1.4367238e-08 0.0000000e+00 
0.0000000e+00 4.1114610e-08 0.0000000e+00 
0.0000000e+00 7.9225075e-08 0.0000000e+00 
0.0000000e+00 9.7989783e-08 0.0000000e+00 
0.0000000e+00 1.1987282e-08 0.0000000e+00 
0.0000000e+00 -3.6966819e-07 0.0000000e+00 
0.0000000e+00 -9.3606059e-07 0.0000000e+00 
0.0000000e+00 -1.5251354e-06 0.0000000e+00 
0.0000000e+00 -1.0822404e-06 0.0000000e+00 
0.0000000e+00 3.2879802e-06 0.0000000e+00 
0.0000000e+00 1.4327200e-05 0.0000000e+00 
0.0000000e+00 3.4519751e-05 0.0000000e+00 
0.0000000e+00 4.9582868e-05 0.0000000e+00 
0.0000000e+00 5.3017789e-05 0.0000000e+00 
0.0000000e+00 3.3891432e-05 0.0000000e+00 
0.0000000e+00 1.5721122e-05 0.0000000e+00 
0.0000000e+00 4.4678395e-06 0.0000000e+00 
0.0000000e+00 -1.6554623e-06 0.0000000e+00 
0.0000000e+00 -2.5405325e-09 0.0000000e+00 
0.0000000e+00 -3.3438512e-09 0.0000000e+00 
0.0000000e+00 -3.4779970e-09 0.0000000e+00 
0.0000000e+00 -2.2703570e-07 0.0000000e+00 
0.0000000e+00 -1.0570695e-06 0.0000000e+00 
0.0000000e+00 -2.4771102e-06 0.0000000e+00 
3.1982696e-12 -6.9216810e-08 -6.8047006e-13 
2.7620477e-11 -8.5440277e-08 6.2057837e-12 
2.1596858e-11 -8.5442963e-08 4.5701628e-12 
6.2780497e-12 -5.5766247e-08 -9.6802072e-12 
9.1258077e-12 -5.5766492e-08 -1.0324758e-11 
-8.0429212e-11 2.3083922e-07 -4.6864936e-11 
-5.3937448e-11 2.3084776e-07 -4.3714282e-11 
-2.8716296e-10 9.7666862e-07 -1.2095348e-10 
-2.0428831e-10 9.7669613e-07 -1.1007900e-10 
-4.8836324e-10 1.9726922e-06 -7.5042021e-11 
-4.5574045e-10 1.9728145e-06 -7.1390116e-11 
-3.8010661e-10 1.8387321e-06 3.8152362e-10 
-5.5453997e-10 1.8386598e-06 3.8120629e-10 
6.3649447e-10 -2.7358221e-06 8.1468038e-10 
2.3288171e-10 -2.7358010e-06 8.0899537e-10 
3.6498853e-09 -1.6368489e-05 1.9777977e-09 
2.7341240e-09 -1.6369122e-05 1.9761690e-09 
7.5938180e-09 -4.0080755e-05 -1.1808363e-09 
9.2289403e-09 -4.0079682e-05 -1.5811322e-09 
1.3986333e-08 -5.8792375e-05 3.8305803e-09 
1.0909323e-08 -5.8793608e-05 3.2905059e-09 
5.7236496e-09 -2.2533663e-05 -3.1392835e-09 
6.2096106e-09 -2.2534614e-05 -3.4479992e-09 
-3.6116056e-08 1.6207983e-04 -2.0872882e-08 
-2.4092765e-08 1.6208299e-04 -1.9533736e-08 
-1.2473309e-07 5.8403483e-04 -4.5176463e-08 
-1.0399308e-07 5.8406248e-04 -4.4812762e-08 
-2.6290306e-07 1.1477690e-03 -7.7634972e-08 
-2.0391168e-07 1.1477971e-03 -6.6991802e-08 
-2.5362058e-07 1.2561735e-03 -6.9557203e-08 
-2.2120230e-07 1.2562273e-03 -6.8316908e-08 
-1.4974604e-07 7.4825750e-04 -4.6522260e-08 
-1.2708794e-07 7.4829021e-04 -4.5816652e-08 
-4.5366939e-08 2.7796131e-04 -8.3605328e-10 
-4.4584198e-08 2.7797304e-04 -4.5301904e-10 
2.4392174e-10 2.4415614e-05 3.3757273e-09 
-9.4931396e-10 2.4415687e-05 3.4709775e-09 
1.3756997e-08 -6.9154230e-05 -4.4164818e-09 
1.5955063e-08 -6.9150723e-05 -4.4995514e-09 
0.0000000e+00 -4.8353019e-09 0.0000000e+00 
0.0000000e+00 -4.7039017e-09 0.0000000e+00 
0.0000000e+00 -9.7253705e-10 0.0000000e+00 
0.0000000e+00 1.9179767e-09 0.0000000e+00 
0.0000000e+00 -9.8350339e-10 0.0000000e+00 
0.0000000e+00 -1.5358642e-08 0.0000000e+00 
0.0000000e+00 -4.6130214e-08 0.0000000e+00 
0.0000000e+00 -1.7304055e-07 0.0000000e+00 
0.0000000e+00 -3.2600420e-07 0.0000000e+00 
0.0000000e+00 -2.0758849e-07 0.0000000e+00 
0.0000000e+00 -9.2306038e-07 0.0000000e+00 
0.0000000e+00 4.2628091e-07 0.0000000e+00 
0.0000000e+00 2.2376191e-06 0.0000000e+00 
0.0000000e+00 2.6046023e-06 0.0000000e+00 
0.0000000e+00 2.7093745e-06 0.0000000e+00 
0.0000000e+00 1.3135339e-06 0.0000000e+00 
0.0000000e+00 1.1943110e-06 0.0000000e+00 
0.0000000e+00 4.5203657e-07 0.0000000e+00 
0.0000000e+00 -6.9545484e-07 0.0000000e+00 
0.0000000e+00 -4.3125401e-09 0.0000000e+00 
0.0000000e+00 -6.0277443e-07 0.0000000e+00 
0.0000000e+00 -7.5246618e-09 0.0000000e+00 
0.0000000e+00 -1.0034176e-08 0.0000000e+00 
0.0000000e+00 -1.1682559e-06 0.0000000e+00 
0.0000000e+00 -2.6069758e-06 0.0000000e+00 
0.0000000e+00 -6.2457173e-09 0.0000000e+00 
0.0000000e+00 -8.7310800e-06 0.0000000e+00 
2.1352435e-09 -8.8942921e-05 1.2506444e-10 
0.0000000e+00 0.0000000e+00 0.0000000e+00 
0.0000000e+00 0.0000000e+00 0.0000000e+00 
0.0000000e+00 0.0000000e+00 0.0000000e+00 
0.0000000e+00 0.0000000e+00 0.0000000e+00 
0.0000000e+00 0.0000000e+00 0.0000000e+00 
0.0000000e+00 0.0000000e+00 0.0000000e+00 
0.0000000e+00 0.0000000e+00 0.0000000e+00 
0.0000000e+00 0.0000000e+00 0.0000000e+00 
0.0000000e+00 0.0000000e+00 0.0000000e+00 
0.0000000e+00 0.0000000e+00 0.0000000e+00 
0.0000000e+00 0.0000000e+00 0.0000000e+00 
0.0000000e+00 0.0000000e+00 0.0000000e+00 
0.0000000e+00 0.0000000e+00 0.0000000e+00 
0.0000000e+00 0.0000000e+00 0.0000000e+00 
0.0000000e+00 0.0000000e+00 0.0000000e+00 
0.0000000e+00 0.0000000e+00 0.0000000e+00 
0.0000000e+00 0.0000000e+00 0.0000000e+00 