# vtk DataFile Version 4.0
vtk output
ASCII
DATASET UNSTRUCTURED_GRID
POINTS 1439 float
0.0000000e+00 0.0000000e+00 0.0000000e+00 
0.0000000e+00 0.0000000e+00 2.0000000e+01 
3.4700000e+00 0.0000000e+00 0.0000000e+00 
3.4700000e+00 0.0000000e+00 2.0000000e+01 
3.4700000e+00 1.0000000e+00 0.0000000e+00 
3.4700000e+00 1.0000000e+00 2.0000000e+01 
0.0000000e+00 1.0000000e+00 0.0000000e+00 
0.0000000e+00 1.0000000e+00 2.0000000e+01 
1.2500000e+00 2.5000000e+00 0.0000000e+00 
1.2500000e+00 2.5000000e+00 1.1700000e-01 
7.5000000e-01 2.5000000e+00 1.1700000e-01 
7.5000000e-01 2.5000000e+00 0.0000000e+00 
0.0000000e+00 2.5000000e+00 0.0000000e+00 
0.0000000e+00 2.5000000e+00 1.1700000e-01 
1.2500000e+00 2.8000000e+00 1.1700000e-01 
1.2500000e+00 2.8000000e+00 0.0000000e+00 
0.0000000e+00 2.8000000e+00 0.0000000e+00 
0.0000000e+00 2.8000000e+00 1.1700000e-01 
7.5000000e-01 2.5000000e+00 8.8300002e-01 
1.2500000e+00 2.5000000e+00 8.8300002e-01 
1.2500000e+00 2.5000000e+00 1.1170000e+00 
7.5000000e-01 2.5000000e+00 1.1170000e+00 
7.5000000e-01 2.5000000e+00 1.0000000e+00 
0.0000000e+00 2.5000000e+00 8.8300002e-01 
0.0000000e+00 2.5000000e+00 1.1170000e+00 
1.2500000e+00 2.8000000e+00 1.1170000e+00 
1.2500000e+00 2.8000000e+00 8.8300002e-01 
0.0000000e+00 2.8000000e+00 8.8300002e-01 
0.0000000e+00 2.8000000e+00 1.1170000e+00 
7.5000000e-01 2.5000000e+00 1.8830000e+00 
1.2500000e+00 2.5000000e+00 1.8830000e+00 
1.2500000e+00 2.5000000e+00 2.1170001e+00 
7.5000000e-01 2.5000000e+00 2.1170001e+00 
7.5000000e-01 2.5000000e+00 2.0000000e+00 
0.0000000e+00 2.5000000e+00 1.8830000e+00 
0.0000000e+00 2.5000000e+00 2.1170001e+00 
1.2500000e+00 2.8000000e+00 2.1170001e+00 
1.2500000e+00 2.8000000e+00 1.8830000e+00 
0.0000000e+00 2.8000000e+00 1.8830000e+00 
0.0000000e+00 2.8000000e+00 2.1170001e+00 
7.5000000e-01 2.5000000e+00 2.8829999e+00 
1.2500000e+00 2.5000000e+00 2.8829999e+00 
1.2500000e+00 2.5000000e+00 3.1170001e+00 
7.5000000e-01 2.5000000e+00 3.1170001e+00 
7.5000000e-01 2.5000000e+00 3.0000000e+00 
0.0000000e+00 2.5000000e+00 2.8829999e+00 
0.0000000e+00 2.5000000e+00 3.1170001e+00 
1.2500000e+00 2.8000000e+00 3.1170001e+00 
1.2500000e+00 2.8000000e+00 2.8829999e+00 
0.0000000e+00 2.8000000e+00 2.8829999e+00 
0.0000000e+00 2.8000000e+00 3.1170001e+00 
7.5000000e-01 2.5000000e+00 3.8829999e+00 
1.2500000e+00 2.5000000e+00 3.8829999e+00 
1.2500000e+00 2.5000000e+00 4.1170001e+00 
7.5000000e-01 2.5000000e+00 4.1170001e+00 
7.5000000e-01 2.5000000e+00 4.0000000e+00 
0.0000000e+00 2.5000000e+00 3.8829999e+00 
0.0000000e+00 2.5000000e+00 4.1170001e+00 
1.2500000e+00 2.8000000e+00 4.1170001e+00 
1.2500000e+00 2.8000000e+00 3.8829999e+00 
0.0000000e+00 2.8000000e+00 3.8829999e+00 
0.0000000e+00 2.8000000e+00 4.1170001e+00 
7.5000000e-01 2.5000000e+00 4.8829999e+00 
1.2500000e+00 2.5000000e+00 4.8829999e+00 
1.2500000e+00 2.5000000e+00 5.1170001e+00 
7.5000000e-01 2.5000000e+00 5.1170001e+00 
7.5000000e-01 2.5000000e+00 5.0000000e+00 
0.0000000e+00 2.5000000e+00 4.8829999e+00 
0.0000000e+00 2.5000000e+00 5.1170001e+00 
1.2500000e+00 2.8000000e+00 5.1170001e+00 
1.2500000e+00 2.8000000e+00 4.8829999e+00 
0.0000000e+00 2.8000000e+00 4.8829999e+00 
0.0000000e+00 2.8000000e+00 5.1170001e+00 
7.5000000e-01 2.5000000e+00 5.8829999e+00 
1.2500000e+00 2.5000000e+00 5.8829999e+00 
1.2500000e+00 2.5000000e+00 6.1170001e+00 
7.5000000e-01 2.5000000e+00 6.1170001e+00 
7.5000000e-01 2.5000000e+00 6.0000000e+00 
0.0000000e+00 2.5000000e+00 5.8829999e+00 
0.0000000e+00 2.5000000e+00 6.1170001e+00 
1.2500000e+00 2.8000000e+00 6.1170001e+00 
1.2500000e+00 2.8000000e+00 5.8829999e+00 
0.0000000e+00 2.8000000e+00 5.8829999e+00 
0.0000000e+00 2.8000000e+00 6.1170001e+00 
7.5000000e-01 2.5000000e+00 6.8829999e+00 
1.2500000e+00 2.5000000e+00 6.8829999e+00 
1.2500000e+00 2.5000000e+00 7.1170001e+00 
7.5000000e-01 2.5000000e+00 7.1170001e+00 
7.5000000e-01 2.5000000e+00 7.0000000e+00 
0.0000000e+00 2.5000000e+00 6.8829999e+00 
0.0000000e+00 2.5000000e+00 7.1170001e+00 
1.2500000e+00 2.8000000e+00 7.1170001e+00 
1.2500000e+00 2.8000000e+00 6.8829999e+00 
0.0000000e+00 2.8000000e+00 6.8829999e+00 
0.0000000e+00 2.8000000e+00 7.1170001e+00 
7.5000000e-01 2.5000000e+00 7.8829999e+00 
1.2500000e+00 2.5000000e+00 7.8829999e+00 
1.2500000e+00 2.5000000e+00 8.1169996e+00 
7.5000000e-01 2.5000000e+00 8.1169996e+00 
7.5000000e-01 2.5000000e+00 8.0000000e+00 
0.0000000e+00 2.5000000e+00 7.8829999e+00 
0.0000000e+00 2.5000000e+00 8.1169996e+00 
1.2500000e+00 2.8000000e+00 8.1169996e+00 
1.2500000e+00 2.8000000e+00 7.8829999e+00 
0.0000000e+00 2.8000000e+00 7.8829999e+00 
0.0000000e+00 2.8000000e+00 8.1169996e+00 
7.5000000e-01 2.5000000e+00 8.8830004e+00 
1.2500000e+00 2.5000000e+00 8.8830004e+00 
1.2500000e+00 2.5000000e+00 9.1169996e+00 
7.5000000e-01 2.5000000e+00 9.1169996e+00 
7.5000000e-01 2.5000000e+00 9.0000000e+00 
0.0000000e+00 2.5000000e+00 8.8830004e+00 
0.0000000e+00 2.5000000e+00 9.1169996e+00 
1.2500000e+00 2.8000000e+00 9.1169996e+00 
1.2500000e+00 2.8000000e+00 8.8830004e+00 
0.0000000e+00 2.8000000e+00 8.8830004e+00 
0.0000000e+00 2.8000000e+00 9.1169996e+00 
7.5000000e-01 2.5000000e+00 9.8830004e+00 
1.2500000e+00 2.5000000e+00 9.8830004e+00 
1.2500000e+00 2.5000000e+00 1.0117000e+01 
7.5000000e-01 2.5000000e+00 1.0117000e+01 
7.5000000e-01 2.5000000e+00 1.0000000e+01 
0.0000000e+00 2.5000000e+00 9.8830004e+00 
0.0000000e+00 2.5000000e+00 1.0117000e+01 
1.2500000e+00 2.8000000e+00 1.0117000e+01 
1.2500000e+00 2.8000000e+00 9.8830004e+00 
0.0000000e+00 2.8000000e+00 9.8830004e+00 
0.0000000e+00 2.8000000e+00 1.0117000e+01 
7.5000000e-01 2.5000000e+00 1.0883000e+01 
1.2500000e+00 2.5000000e+00 1.0883000e+01 
1.2500000e+00 2.5000000e+00 1.1117000e+01 
7.5000000e-01 2.5000000e+00 1.1117000e+01 
7.5000000e-01 2.5000000e+00 1.1000000e+01 
0.0000000e+00 2.5000000e+00 1.0883000e+01 
0.0000000e+00 2.5000000e+00 1.1117000e+01 
1.2500000e+00 2.8000000e+00 1.1117000e+01 
1.2500000e+00 2.8000000e+00 1.0883000e+01 
0.0000000e+00 2.8000000e+00 1.0883000e+01 
0.0000000e+00 2.8000000e+00 1.1117000e+01 
7.5000000e-01 2.5000000e+00 1.1883000e+01 
1.2500000e+00 2.5000000e+00 1.1883000e+01 
1.2500000e+00 2.5000000e+00 1.2117000e+01 
7.5000000e-01 2.5000000e+00 1.2117000e+01 
7.5000000e-01 2.5000000e+00 1.2000000e+01 
0.0000000e+00 2.5000000e+00 1.1883000e+01 
0.0000000e+00 2.5000000e+00 1.2117000e+01 
1.2500000e+00 2.8000000e+00 1.2117000e+01 
1.2500000e+00 2.8000000e+00 1.1883000e+01 
0.0000000e+00 2.8000000e+00 1.1883000e+01 
0.0000000e+00 2.8000000e+00 1.2117000e+01 
7.5000000e-01 2.5000000e+00 1.2883000e+01 
1.2500000e+00 2.5000000e+00 1.2883000e+01 
1.2500000e+00 2.5000000e+00 1.3117000e+01 
7.5000000e-01 2.5000000e+00 1.3117000e+01 
7.5000000e-01 2.5000000e+00 1.3000000e+01 
0.0000000e+00 2.5000000e+00 1.2883000e+01 
0.0000000e+00 2.5000000e+00 1.3117000e+01 
1.2500000e+00 2.8000000e+00 1.3117000e+01 
1.2500000e+00 2.8000000e+00 1.2883000e+01 
0.0000000e+00 2.8000000e+00 1.2883000e+01 
0.0000000e+00 2.8000000e+00 1.3117000e+01 
7.5000000e-01 2.5000000e+00 1.3883000e+01 
1.2500000e+00 2.5000000e+00 1.3883000e+01 
1.2500000e+00 2.5000000e+00 1.4117000e+01 
7.5000000e-01 2.5000000e+00 1.4117000e+01 
7.5000000e-01 2.5000000e+00 1.4000000e+01 
0.0000000e+00 2.5000000e+00 1.3883000e+01 
0.0000000e+00 2.5000000e+00 1.4117000e+01 
1.2500000e+00 2.8000000e+00 1.4117000e+01 
1.2500000e+00 2.8000000e+00 1.3883000e+01 
0.0000000e+00 2.8000000e+00 1.3883000e+01 
0.0000000e+00 2.8000000e+00 1.4117000e+01 
7.5000000e-01 2.5000000e+00 1.4883000e+01 
1.2500000e+00 2.5000000e+00 1.4883000e+01 
1.2500000e+00 2.5000000e+00 1.5117000e+01 
7.5000000e-01 2.5000000e+00 1.5117000e+01 
7.5000000e-01 2.5000000e+00 1.5000000e+01 
0.0000000e+00 2.5000000e+00 1.4883000e+01 
0.0000000e+00 2.5000000e+00 1.5117000e+01 
1.2500000e+00 2.8000000e+00 1.5117000e+01 
1.2500000e+00 2.8000000e+00 1.4883000e+01 
0.0000000e+00 2.8000000e+00 1.4883000e+01 
0.0000000e+00 2.8000000e+00 1.5117000e+01 
7.5000000e-01 2.5000000e+00 1.5883000e+01 
1.2500000e+00 2.5000000e+00 1.5883000e+01 
1.2500000e+00 2.5000000e+00 1.6117001e+01 
7.5000000e-01 2.5000000e+00 1.6117001e+01 
7.5000000e-01 2.5000000e+00 1.6000000e+01 
0.0000000e+00 2.5000000e+00 1.5883000e+01 
0.0000000e+00 2.5000000e+00 1.6117001e+01 
1.2500000e+00 2.8000000e+00 1.6117001e+01 
1.2500000e+00 2.8000000e+00 1.5883000e+01 
0.0000000e+00 2.8000000e+00 1.5883000e+01 
0.0000000e+00 2.8000000e+00 1.6117001e+01 
7.5000000e-01 2.5000000e+00 1.6882999e+01 
1.2500000e+00 2.5000000e+00 1.6882999e+01 
1.2500000e+00 2.5000000e+00 1.7117001e+01 
7.5000000e-01 2.5000000e+00 1.7117001e+01 
7.5000000e-01 2.5000000e+00 1.7000000e+01 
0.0000000e+00 2.5000000e+00 1.6882999e+01 
0.0000000e+00 2.5000000e+00 1.7117001e+01 
1.2500000e+00 2.8000000e+00 1.7117001e+01 
1.2500000e+00 2.8000000e+00 1.6882999e+01 
0.0000000e+00 2.8000000e+00 1.6882999e+01 
0.0000000e+00 2.8000000e+00 1.7117001e+01 
7.5000000e-01 2.5000000e+00 1.7882999e+01 
1.2500000e+00 2.5000000e+00 1.7882999e+01 
1.2500000e+00 2.5000000e+00 1.8117001e+01 
7.5000000e-01 2.5000000e+00 1.8117001e+01 
7.5000000e-01 2.5000000e+00 1.8000000e+01 
0.0000000e+00 2.5000000e+00 1.7882999e+01 
0.0000000e+00 2.5000000e+00 1.8117001e+01 
1.2500000e+00 2.8000000e+00 1.8117001e+01 
1.2500000e+00 2.8000000e+00 1.7882999e+01 
0.0000000e+00 2.8000000e+00 1.7882999e+01 
0.0000000e+00 2.8000000e+00 1.8117001e+01 
7.5000000e-01 2.5000000e+00 1.8882999e+01 
1.2500000e+00 2.5000000e+00 1.8882999e+01 
1.2500000e+00 2.5000000e+00 1.9117001e+01 
7.5000000e-01 2.5000000e+00 1.9117001e+01 
7.5000000e-01 2.5000000e+00 1.9000000e+01 
0.0000000e+00 2.5000000e+00 1.8882999e+01 
0.0000000e+00 2.5000000e+00 1.9117001e+01 
1.2500000e+00 2.8000000e+00 1.9117001e+01 
1.2500000e+00 2.8000000e+00 1.8882999e+01 
0.0000000e+00 2.8000000e+00 1.8882999e+01 
0.0000000e+00 2.8000000e+00 1.9117001e+01 
3.4700000e+00 2.5000000e+00 0.0000000e+00 
3.4700000e+00 2.5000000e+00 2.0000000e+01 
7.5000000e-01 2.5000000e+00 1.9882999e+01 
[...]
POINT_DATA 1439
FIELD FieldData 1
DISPLACEMENT 3 1439  float
0.0000000e+00 0.0000000e+00 0.0000000e+00 
0.0000000e+00 0.0000000e+00 0.0000000e+00 
0.0000000e+00 0.0000000e+00 0.0000000e+00 
0.0000000e+00 0.0000000e+00 0.0000000e+00 
0.0000000e+00 1.0539828e-08 0.0000000e+00 
0.0000000e+00 -3.2667682e-08 0.0000000e+00 
0.0000000e+00 1.7419592e-09 0.0000000e+00 
0.0000000e+00 -1.7904118e-07 0.0000000e+00 
0.0000000e+00 2.4449942e-06 0.0000000e+00 
-2.7688402e-11 2.4449794e-06 -1.7044118e-11 
1.2247623e-11 2.4451449e-06 -2.3692746e-11 
0.0000000e+00 2.4451763e-06 0.0000000e+00 
0.0000000e+00 2.4446640e-06 0.0000000e+00 
0.0000000e+00 2.4446756e-06 0.0000000e+00 
2.2677171e-11 2.4450633e-06 8.4700701e-12 
0.0000000e+00 2.4450528e-06 0.0000000e+00 
0.0000000e+00 2.4447422e-06 0.0000000e+00 
0.0000000e+00 2.4447295e-06 0.0000000e+00 
6.1835856e-11 2.5466397e-06 -9.2506607e-11 
-9.4222276e-11 2.5469442e-06 -2.7100655e-10 
-2.0695777e-11 2.5469753e-06 -2.9404210e-10 
1.2850555e-10 2.5466618e-06 -1.6440220e-10 
1.1151682e-10 2.5466943e-06 -1.2811334e-10 
0.0000000e+00 2.5454588e-06 0.0000000e+00 
0.0000000e+00 2.5454692e-06 0.0000000e+00 
-1.7372122e-10 2.5470817e-06 -3.1118327e-10 
-2.4153599e-10 2.5470551e-06 -3.2874836e-10 
0.0000000e+00 2.5455518e-06 0.0000000e+00 
0.0000000e+00 2.5455352e-06 0.0000000e+00 
1.5413641e-10 2.5445947e-06 5.7018956e-11 
-8.8332307e-11 2.5450940e-06 -7.2859517e-11 
-4.7404140e-11 2.5451661e-06 -9.7927590e-11 
1.9118424e-10 2.5446539e-06 -5.8064151e-11 
2.0014335e-10 2.5446993e-06 -7.5171347e-13 
0.0000000e+00 2.5426486e-06 0.0000000e+00 
0.0000000e+00 2.5426641e-06 0.0000000e+00 
-2.9767763e-10 2.5453066e-06 -1.6394210e-10 
-3.3002365e-10 2.5452387e-06 -1.9116740e-10 
0.0000000e+00 2.5427546e-06 0.0000000e+00 
0.0000000e+00 2.5427410e-06 0.0000000e+00 
2.2362458e-10 1.1109807e-06 3.5489894e-10 
2.6081338e-11 1.1115133e-06 5.0304572e-10 
-6.1002599e-11 1.1116078e-06 4.8882381e-10 
1.5338136e-10 1.1110577e-06 2.5539809e-10 
2.1334320e-10 1.1110868e-06 3.0270397e-10 
0.0000000e+00 1.1091784e-06 0.0000000e+00 
0.0000000e+00 1.1091993e-06 0.0000000e+00 
-3.3834358e-10 1.1117113e-06 3.7822118e-10 
-2.4078278e-10 1.1116163e-06 3.5527781e-10 
0.0000000e+00 1.1092501e-06 0.0000000e+00 
0.0000000e+00 1.1092511e-06 0.0000000e+00 
2.3803157e-11 -4.8242459e-06 8.9621977e-10 
3.7419648e-10 -4.8246948e-06 1.9277127e-09 
-8.4397482e-11 -4.8246816e-06 1.9672641e-09 
-3.6055597e-10 -4.8242300e-06 1.0432517e-09 
-2.0610123e-10 -4.8243287e-06 9.6355257e-10 
0.0000000e+00 -4.8219113e-06 0.0000000e+00 
0.0000000e+00 -4.8219249e-06 0.0000000e+00 
1.2292498e-10 -4.8248739e-06 1.8856743e-09 
5.7218480e-10 -4.8249026e-06 1.9222794e-09 
0.0000000e+00 -4.8220686e-06 0.0000000e+00 
0.0000000e+00 -4.8219968e-06 0.0000000e+00 
-8.4380747e-10 -1.9553179e-05 1.2811837e-09 
9.7113273e-10 -1.9556559e-05 3.6044872e-09 
3.8870705e-11 -1.9556959e-05 3.7808605e-09 
-1.6285969e-09 -1.9553567e-05 2.1249467e-09 
-1.4355596e-09 -1.9553918e-05 1.6971359e-09 
0.0000000e+00 -1.9539128e-05 0.0000000e+00 
0.0000000e+00 -1.9539180e-05 0.0000000e+00 
1.6626693e-09 -1.9557910e-05 4.0467767e-09 
2.5876878e-09 -1.9557598e-05 4.2760528e-09 
0.0000000e+00 -1.9539888e-05 0.0000000e+00 
0.0000000e+00 -1.9539579e-05 0.0000000e+00 
-3.5903132e-09 -4.3799610e-05 -1.8233900e-09 
5.6972665e-10 -4.3808519e-05 -2.8559812e-09 
1.4282101e-09 -4.3807289e-05 -2.4486748e-09 
-2.8547300e-09 -4.3798413e-05 2.1350087e-10 
-3.7113030e-09 -4.3800330e-05 -8.1731483e-10 
0.0000000e+00 -4.3764063e-05 0.0000000e+00 
0.0000000e+00 -4.3763896e-05 0.0000000e+00 
5.7349139e-09 -4.3809709e-05 -4.5118722e-09 
4.8915094e-09 -4.3810785e-05 -3.9633847e-09 
0.0000000e+00 -4.3765027e-05 0.0000000e+00 
0.0000000e+00 -4.3765667e-05 0.0000000e+00 
-4.2048365e-09 -6.2353669e-05 3.6151482e-09 
2.0327999e-09 -6.2370025e-05 1.1328267e-08 
-1.0543151e-09 -6.2371138e-05 1.1880845e-08 
-6.9755988e-09 -6.2354498e-05 6.5399770e-09 
-6.3106187e-09 -6.2356012e-05 5.0614961e-09 
0.0000000e+00 -6.2299281e-05 0.0000000e+00 
0.0000000e+00 -6.2299609e-05 0.0000000e+00 
7.4850890e-09 -6.2374442e-05 1.2652397e-08 
1.0309156e-08 -6.2373430e-05 1.3362233e-08 
0.0000000e+00 -6.2302097e-05 0.0000000e+00 
0.0000000e+00 -6.2301217e-05 0.0000000e+00 
-3.8824868e-09 -2.5220630e-05 -7.5471238e-09 
-2.0545610e-09 -2.5231931e-05 -1.2318023e-08 
4.1167703e-10 -2.5232883e-05 -1.2145190e-08 
-1.7293535e-09 -2.5221658e-05 -6.5474950e-09 
-3.0270300e-09 -2.5221765e-05 -6.9890462e-09 
0.0000000e+00 -2.5198126e-05 0.0000000e+00 
0.0000000e+00 -2.5198247e-05 0.0000000e+00 
6.4542593e-09 -2.5233952e-05 -1.0880311e-08 
3.9618615e-09 -2.5232890e-05 -1.0596201e-08 
0.0000000e+00 -2.5199384e-05 0.0000000e+00 
0.0000000e+00 -2.5199186e-05 0.0000000e+00 
1.1056073e-08 1.6093027e-04 7.2477280e-10 
-6.4401404e-09 1.6095361e-04 1.7750504e-10 
-7.7953084e-09 1.6095022e-04 -1.3599062e-09 
9.8414974e-09 1.6092735e-04 -7.4915052e-09 
1.2568134e-08 1.6093433e-04 -3.3643470e-09 
0.0000000e+00 1.6079572e-04 0.0000000e+00 
0.0000000e+00 1.6079590e-04 0.0000000e+00 
-1.7646984e-08 1.6095984e-04 5.1093858e-09 
-1.6960593e-08 1.6096329e-04 3.2261165e-09 
0.0000000e+00 1.6079974e-04 0.0000000e+00 
0.0000000e+00 1.6080108e-04 0.0000000e+00 
2.9988197e-08 5.8451935e-04 -2.2754655e-08 
-3.3116038e-08 5.8462220e-04 -8.9969362e-08 
-6.7072508e-09 5.8463670e-04 -9.5451512e-08 
5.2120257e-08 5.8453094e-04 -5.1732599e-08 
4.8309740e-08 5.8454461e-04 -3.6995967e-08 
0.0000000e+00 5.8403669e-04 0.0000000e+00 
0.0000000e+00 5.8403949e-04 0.0000000e+00 
-5.6754764e-08 5.8466947e-04 -1.0645664e-07 
-8.0941788e-08 5.8465655e-04 -1.1328110e-07 
0.0000000e+00 5.8405864e-04 0.0000000e+00 
0.0000000e+00 5.8405322e-04 0.0000000e+00 
6.2077845e-08 1.1493317e-03 -9.8165138e-08 
-5.9193987e-08 1.1495773e-03 -2.6617985e-07 
9.5148778e-09 1.1495966e-03 -2.7656463e-07 
1.2352407e-07 1.1493452e-03 -1.5435484e-07 
1.0707568e-07 1.1493756e-03 -1.2576558e-07 
0.0000000e+00 1.1483486e-03 0.0000000e+00 
0.0000000e+00 1.1483565e-03 0.0000000e+00 
-1.1479280e-07 1.1496594e-03 -2.8747607e-07 
-1.7893397e-07 1.1496431e-03 -3.0095165e-07 
0.0000000e+00 1.1483976e-03 0.0000000e+00 
0.0000000e+00 1.1483802e-03 0.0000000e+00 
7.2198766e-08 1.2586565e-03 -2.3612966e-08 
-5.1386760e-08 1.2588945e-03 -1.3521934e-07 
-9.7080566e-09 1.2589173e-03 -1.4561792e-07 
1.0779841e-07 1.2586765e-03 -8.1156259e-08 
1.0428133e-07 1.2587048e-03 -5.2009032e-08 
0.0000000e+00 1.2576720e-03 0.0000000e+00 
0.0000000e+00 1.2576745e-03 0.0000000e+00 
-1.2756662e-07 1.2589823e-03 -1.6339602e-07 
-1.6478131e-07 1.2589603e-03 -1.7701873e-07 
0.0000000e+00 1.2577159e-03 0.0000000e+00 
0.0000000e+00 1.2577040e-03 0.0000000e+00 
4.4970673e-08 7.5126940e-04 9.6247597e-09 
-2.3803350e-08 7.5140514e-04 -2.9188527e-08 
-1.1942676e-08 7.5142435e-04 -3.5164380e-08 
5.4793418e-08 7.5128837e-04 -2.3207972e-08 
5.7891125e-08 7.5130025e-04 -7.0177104e-09 
0.0000000e+00 7.5071864e-04 0.0000000e+00 
0.0000000e+00 7.5072056e-04 0.0000000e+00 
-7.7445300e-08 7.5145974e-04 -5.2848570e-08 
-8.8851586e-08 7.5144274e-04 -6.1609647e-08 
0.0000000e+00 7.5074512e-04 0.0000000e+00 
0.0000000e+00 7.5073470e-04 0.0000000e+00 
1.4955578e-08 2.8274255e-04 7.0829467e-09 
-8.8733971e-09 2.8278233e-04 -4.3507655e-09 
-5.5729950e-09 2.8278783e-04 -6.4639250e-09 
1.7896316e-08 2.8274718e-04 -4.2597663e-09 
1.9262844e-08 2.8275239e-04 1.4003630e-09 
0.0000000e+00 2.8255678e-04 0.0000000e+00 
0.0000000e+00 2.8255713e-04 0.0000000e+00 
-2.4876119e-08 2.8280079e-04 -1.1446180e-08 
-2.7279903e-08 2.8279540e-04 -1.4080360e-08 
0.0000000e+00 2.8256458e-04 0.0000000e+00 
0.0000000e+00 2.8256280e-04 0.0000000e+00 
7.2723105e-10 3.6236175e-05 3.4946994e-09 
-6.5829553e-10 3.6234549e-05 5.8430523e-09 
-1.9639075e-09 3.6234582e-05 5.6812799e-09 
-3.0693667e-10 3.6236361e-05 2.7320362e-09 
4.1384168e-10 3.6236750e-05 3.0898657e-09 
0.0000000e+00 3.6229030e-05 0.0000000e+00 
0.0000000e+00 3.6228652e-05 0.0000000e+00 
-6.8576905e-10 3.6235542e-05 5.5520171e-09 
5.8126060e-10 3.6235404e-05 5.3807652e-09 
0.0000000e+00 3.6229052e-05 0.0000000e+00 
0.0000000e+00 3.6228870e-05 0.0000000e+00 
-3.4980958e-09 -4.2228588e-05 3.3334331e-09 
1.3621527e-09 -4.2242638e-05 9.5079189e-09 
-1.0967579e-09 -4.2244345e-05 9.9105062e-09 
-5.6974789e-09 -4.2230109e-05 5.6554588e-09 
-5.1682352e-09 -4.2230844e-05 4.4993178e-09 
0.0000000e+00 -4.2185431e-05 0.0000000e+00 
0.0000000e+00 -4.2185933e-05 0.0000000e+00 
6.1488592e-09 -4.2246673e-05 1.1451499e-08 
8.5658831e-09 -4.2245250e-05 1.2092014e-08 
0.0000000e+00 -4.2187785e-05 0.0000000e+00 
0.0000000e+00 -4.2186850e-05 0.0000000e+00 
-2.9434755e-09 -4.2596592e-05 -2.6581559e-10 
1.2394968e-09 -4.2605869e-05 2.2580304e-09 
4.1979503e-10 -4.2607247e-05 2.6172802e-09 
-3.6476862e-09 -4.2597865e-05 1.7401340e-09 
-3.7794150e-09 -4.2598534e-05 7.5137674e-10 
0.0000000e+00 -4.2561991e-05 0.0000000e+00 
0.0000000e+00 -4.2562198e-05 0.0000000e+00 
5.0116253e-09 -4.2609354e-05 3.9014085e-09 
5.8020224e-09 -4.2608175e-05 4.4420183e-09 
0.0000000e+00 -4.2563701e-05 0.0000000e+00 
0.0000000e+00 -4.2563079e-05 0.0000000e+00 
-1.1855933e-09 -2.3024470e-05 5.0384236e-10 
8.7677504e-10 -2.3028550e-05 2.3093203e-09 
2.0367240e-10 -2.3028981e-05 2.4928124e-09 
-1.8277594e-09 -2.3024793e-05 1.4803208e-09 
-1.7511134e-09 -2.3025281e-05 9.9249919e-10 
0.0000000e+00 -2.3007700e-05 0.0000000e+00 
0.0000000e+00 -2.3007853e-05 0.0000000e+00 
2.2472673e-09 -2.3030088e-05 2.8472378e-09 
2.8384759e-09 -2.3029690e-05 3.0801932e-09 
0.0000000e+00 -2.3008541e-05 0.0000000e+00 
0.0000000e+00 -2.3008302e-05 0.0000000e+00 
-6.0442867e-10 -7.6895412e-06 -1.3083332e-09 
-1.4560757e-10 -7.6905617e-06 -2.3488844e-09 
3.8669157e-10 -7.6905144e-06 -2.2944993e-09 
-1.4203368e-10 -7.6895021e-06 -1.0672876e-09 
-4.3268505e-10 -7.6896704e-06 -1.1824193e-09 
0.0000000e+00 -7.6854967e-06 0.0000000e+00 
0.0000000e+00 -7.6854794e-06 0.0000000e+00 
8.7917679e-10 -7.6908254e-06 -2.3870315e-09 
3.4946646e-10 -7.6908364e-06 -2.3212179e-09 
0.0000000e+00 -7.6855940e-06 0.0000000e+00 
0.0000000e+00 -7.6857241e-06 0.0000000e+00 
0.0000000e+00 2.1846116e-08 0.0000000e+00 
0.0000000e+00 -8.9418563e-08 0.0000000e+00 
3.1337671e-12 -2.4344636e-06 3.4006710e-12 
-2.1366929e-12 -2.4345391e-06 -2.4233918e-12 
0.0000000e+00 -2.4345331e-06 0.0000000e+00 
0.0000000e+00 -2.4344556e-06 0.0000000e+00 
0.0000000e+00 -2.4346859e-06 0.0000000e+00 
0.0000000e+00 -2.4346859e-06 0.0000000e+00 
0.0000000e+00 -2.4345613e-06 0.0000000e+00 
1.2250363e-11 -2.4345600e-06 -6.7014918e-12 
0.0000000e+00 -2.4347169e-06 0.0000000e+00 
0.0000000e+00 -2.4347200e-06 0.0000000e+00 
0.0000000e+00 2.4469755e-06 0.0000000e+00 
0.0000000e+00 2.5518775e-06 0.0000000e+00 
0.0000000e+00 2.5533145e-06 0.0000000e+00 
0.0000000e+00 1.1191701e-06 0.0000000e+00 
0.0000000e+00 -4.8335955e-06 0.0000000e+00 
0.0000000e+00 -1.9614405e-05 0.0000000e+00 
0.0000000e+00 -4.3952186e-05 0.0000000e+00 
0.0000000e+00 -6.2586303e-05 0.0000000e+00 
0.0000000e+00 -2.5334713e-05 0.0000000e+00 
0.0000000e+00 1.6148385e-04 0.0000000e+00 
0.0000000e+00 5.8665132e-04 0.0000000e+00 
0.0000000e+00 1.1536424e-03 0.0000000e+00 
0.0000000e+00 1.2633643e-03 0.0000000e+00 
0.0000000e+00 7.5403927e-04 0.0000000e+00 
0.0000000e+00 2.8374812e-04 0.0000000e+00 
0.0000000e+00 3.6335263e-05 0.0000000e+00 
0.0000000e+00 -4.2406631e-05 0.0000000e+00 
0.0000000e+00 -4.2760774e-05 0.0000000e+00 
0.0000000e+00 -2.3107639e-05 0.0000000e+00 
0.0000000e+00 -7.7115728e-06 0.0000000e+00 
0.0000000e+00 -2.4351330e-06 0.0000000e+00 
0.0000000e+00 2.4453507e-06 0.0000000e+00 
-2.9961683e-10 2.5471231e-06 -1.6479255e-10 
-4.7959964e-10 2.5453928e-06 -8.6909833e-11 
-4.4168055e-10 1.1116964e-06 1.9523540e-10 
5.6259825e-10 -4.8251918e-06 9.6823849e-10 
3.3826468e-09 -1.9558944e-05 2.2504207e-09 
8.3712539e-09 -4.3812524e-05 -2.4598459e-09 
1.3229062e-08 -6.2373620e-05 6.5458789e-09 
6.2856533e-09 -2.5228279e-05 -5.5809743e-09 
-3.0777606e-08 1.6098305e-04 1.2235750e-09 
-1.1454370e-07 5.8471743e-04 -5.5050922e-08 
-2.3405323e-07 1.1497112e-03 -1.5034526e-07 
-2.3503235e-07 1.2590503e-03 -8.3637254e-08 
-1.3336431e-07 7.5149722e-04 -3.3232709e-08 
-4.3931941e-08 2.8282014e-04 -5.6225797e-09 
-1.4097907e-09 3.6241123e-05 2.8534293e-09 
1.0732806e-08 -4.2244945e-05 6.6550538e-09 
8.4276230e-09 -4.2610605e-05 2.4727191e-09 
4.0410599e-09 -2.3031136e-05 1.5172010e-09 
9.6526165e-10 -7.6910974e-06 -1.2569020e-09 
0.0000000e+00 -2.4344313e-06 0.0000000e+00 
0.0000000e+00 0.0000000e+00 0.0000000e+00 
0.0000000e+00 0.0000000e+00 0.0000000e+00 
0.0000000e+00 0.0000000e+00 0.0000000e+00 
0.0000000e+00 0.0000000e+00 0.0000000e+00 
0.0000000e+00 0.0000000e+00 0.0000000e+00 
0.0000000e+00 0.0000000e+00 0.0000000e+00 
0.0000000e+00 0.0000000e+00 0.0000000e+00 
0.0000000e+00 0.0000000e+00 0.0000000e+00 
0.0000000e+00 0.0000000e+00 0.0000000e+00 
0.0000000e+00 0.0000000e+00 0.0000000e+00 
0.0000000e+00 0.0000000e+00 0.0000000e+00 
0.0000000e+00 0.0000000e+00 0.0000000e+00 
0.0000000e+00 0.0000000e+00 0.0000000e+00 
0.0000000e+00 0.0000000e+00 0.0000000e+00 
0.0000000e+00 0.0000000e+00 0.0000000e+00 
0.0000000e+00 0.0000000e+00 0.0000000e+00 
0.0000000e+00 0.0000000e+00 0.0000000e+00 
0.0000000e+00 0.0000000e+00 0.0000000e+00 
0.0000000e+00 0.0000000e+00 0.0000000e+00 
0.0000000e+00 0.0000000e+00 0.0000000e+00 
0.0000000e+00 0.0000000e+00 0.0000000e+00 
0.0000000e+00 0.0000000e+00 0.0000000e+00 
0.0000000e+00 0.0000000e+00 0.0000000e+00 
0.0000000e+00 0.0000000e+00 0.0000000e+00 
0.0000000e+00 0.0000000e+00 0.0000000e+00 
0.0000000e+00 0.0000000e+00 0.0000000e+00 
0.0000000e+00 0.0000000e+00 0.0000000e+00 
0.0000000e+00 0.0000000e+00 0.0000000e+00 
0.0000000e+00 0.0000000e+00 0.0000000e+00 
0.0000000e+00 0.0000000e+00 0.0000000e+00 
0.0000000e+00 0.0000000e+00 0.0000000e+00 
0.0000000e+00 0.0000000e+00 0.0000000e+00 
0.0000000e+00 0.0000000e+00 0.0000000e+00 
0.0000000e+00 0.0000000e+00 0.0000000e+00 
0.0000000e+00 0.0000000e+00 0.0000000e+00 
0.0000000e+00 0.0000000e+00 0.0000000e+00 
0.0000000e+00 0.0000000e+00 0.0000000e+00 
0.0000000e+00 0.0000000e+00 0.0000000e+00 
0.0000000e+00 0.0000000e+00 0.0000000e+00 
0.0000000e+00 0.0000000e+00 0.0000000e+00 
0.0000000e+00 0.0000000e+00 0.0000000e+00 
0.0000000e+00 0.0000000e+00 0.0000000e+00 
0.0000000e+00 0.0000000e+00 0.0000000e+00 
0.0000000e+00 0.0000000e+00 0.0000000e+00 
0.0000000e+00 9.7212851e-09 0.0000000e+00 
0.0000000e+00 3.4717262e-09 0.0000000e+00 
0.0000000e+00 -1.3549673e-08 0.0000000e+00 
0.0000000e+00 -3.7840778e-08 0.0000000e+00 
0.0000000e+00 -9.1360725e-08 0.0000000e+00 
0.0000000e+00 -1.6869367e-07 0.0000000e+00 
0.0000000e+00 -2.5497746e-07 0.0000000e+00 
0.0000000e+00 7.8687066e-08 0.0000000e+00 
0.0000000e+00 1.4872484e-06 0.0000000e+00 
0.0000000e+00 2.1487278e-06 0.0000000e+00 
0.0000000e+00 3.2177052e-06 0.0000000e+00 
0.0000000e+00 2.1075718e-06 0.0000000e+00 
0.0000000e+00 1.4859203e-06 0.0000000e+00 
0.0000000e+00 1.1507955e-06 0.0000000e+00 
0.0000000e+00 5.3873998e-07 0.0000000e+00 
0.0000000e+00 -1.1546218e-07 0.0000000e+00 
0.0000000e+00 -1.1834873e-07 0.0000000e+00 
0.0000000e+00 -1.2060200e-07 0.0000000e+00 
0.0000000e+00 -6.8089570e-08 0.0000000e+00 
0.0000000e+00 2.6436171e-08 0.0000000e+00 
0.0000000e+00 6.7608021e-08 0.0000000e+00 
0.0000000e+00 3.5335301e-08 0.0000000e+00 
0.0000000e+00 -2.3544311e-07 0.0000000e+00 
0.0000000e+00 -9.7702616e-07 0.0000000e+00 
0.0000000e+00 -1.5212610e-06 0.0000000e+00 
0.0000000e+00 -6.6714665e-07 0.0000000e+00 
0.0000000e+00 3.2867711e-06 0.0000000e+00 
0.0000000e+00 1.4188185e-05 0.0000000e+00 
0.0000000e+00 3.2718232e-05 0.0000000e+00 
0.0000000e+00 4.8472401e-05 0.0000000e+00 
0.0000000e+00 5.0044724e-05 0.0000000e+00 
0.0000000e+00 3.3032204e-05 0.0000000e+00 
0.0000000e+00 1.7767392e-05 0.0000000e+00 
0.0000000e+00 5.2628293e-06 0.0000000e+00 
0.0000000e+00 1.2086558e-07 0.0000000e+00 
0.0000000e+00 -1.4324389e-06 0.0000000e+00 
0.0000000e+00 -1.1129894e-06 0.0000000e+00 
0.0000000e+00 -4.4762473e-07 0.0000000e+00 
0.0000000e+00 4.0545141e-09 0.0000000e+00 
0.0000000e+00 -3.9048365e-10 0.0000000e+00 
0.0000000e+00 1.8578872e-09 0.0000000e+00 
0.0000000e+00 -6.3242773e-08 0.0000000e+00 
0.0000000e+00 -1.0133714e-07 0.0000000e+00 
0.0000000e+00 -1.6432898e-07 0.0000000e+00 
-2.2366765e-11 2.4452324e-06 -9.6300658e-13 
-3.4634742e-10 2.5466652e-06 -1.3029289e-10 
-2.5307084e-10 2.5466977e-06 -1.2219570e-10 
-5.2506632e-10 2.5446132e-06 -7.4559636e-11 
-4.3932599e-10 2.5446816e-06 -5.2903435e-11 
-4.4146412e-10 1.1109647e-06 1.4186015e-10 
-4.4711715e-10 1.1110438e-06 1.6744378e-10 
7.6654183e-10 -4.8243041e-06 7.4462159e-10 
3.7765679e-10 -4.8243201e-06 7.3460116e-10 
3.8359782e-09 -1.9553239e-05 1.7922183e-09 
3.0150848e-09 -1.9553932e-05 1.7930814e-09 
7.9897156e-09 -4.3800312e-05 -2.0267483e-09 
8.9575733e-09 -4.3798387e-05 -2.0675384e-09 
1.5307242e-08 -6.2352912e-05 5.2001026e-09 
1.1332903e-08 -6.2354207e-05 4.6862598e-09 
5.2609659e-09 -2.5219486e-05 -4.2379193e-09 
7.0554615e-09 -2.5220903e-05 -4.3560702e-09 
-2.9110772e-08 1.6093353e-04 -3.5283704e-10 
-3.3868677e-08 1.6092966e-04 1.2680225e-09 
-1.3222906e-07 5.8452395e-04 -4.4228347e-08 
-1.0049341e-07 5.8453879e-04 -3.8754848e-08 
-2.7825769e-07 1.1493298e-03 -1.1937895e-07 
-1.9643387e-07 1.1493521e-03 -1.1006248e-07 
-2.6618073e-07 1.2586596e-03 -6.7607608e-08 
-2.0961114e-07 1.2586870e-03 -5.6666568e-08 
-1.4211817e-07 7.5126981e-04 -2.8206985e-08 
-1.2833121e-07 7.5130077e-04 -2.7318357e-08 
-4.8482992e-08 2.8274476e-04 -4.9005369e-09 
-4.0795570e-08 2.8275052e-04 -2.6963896e-09 
-1.1429154e-09 3.6237238e-05 2.1887254e-09 
-1.9396469e-09 3.6237725e-05 2.2221254e-09 
1.2027896e-08 -4.2227708e-05 5.4403815e-09 
9.5745776e-09 -4.2230142e-05 5.4106271e-09 
8.9935392e-09 -4.2596424e-05 2.1029527e-09 
8.0487830e-09 -4.2598404e-05 2.0517197e-09 
4.6238360e-09 -2.3024517e-05 1.2422232e-09 
3.5555077e-09 -2.3024972e-05 1.0655620e-09 
7.5059226e-10 -7.6896558e-06 -9.9607744e-10 
1.2073902e-09 -7.6895158e-06 -9.8583053e-10 
0.0000000e+00 1.5295280e-08 0.0000000e+00 
0.0000000e+00 1.6117736e-09 0.0000000e+00 
0.0000000e+00 -4.2503565e-08 0.0000000e+00 
0.0000000e+00 -9.6242111e-08 0.0000000e+00 
0.0000000e+00 -2.2316124e-07 0.0000000e+00 
0.0000000e+00 -3.2344306e-07 0.0000000e+00 
0.0000000e+00 -5.7554377e-07 0.0000000e+00 
0.0000000e+00 -4.2537991e-07 0.0000000e+00 
0.0000000e+00 1.2252099e-08 0.0000000e+00 
0.0000000e+00 2.2487091e-06 0.0000000e+00 
0.0000000e+00 -1.3841553e-06 0.0000000e+00 
0.0000000e+00 3.0338331e-06 0.0000000e+00 
0.0000000e+00 1.8678744e-06 0.0000000e+00 
0.0000000e+00 9.9510976e-07 0.0000000e+00 
0.0000000e+00 -1.6614196e-07 0.0000000e+00 
0.0000000e+00 -4.4450897e-07 0.0000000e+00 
0.0000000e+00 -2.8261857e-07 0.0000000e+00 
0.0000000e+00 -2.6784326e-07 0.0000000e+00 
0.0000000e+00 -1.1687218e-07 0.0000000e+00 
0.0000000e+00 1.8319140e-08 0.0000000e+00 
0.0000000e+00 -5.0235897e-08 0.0000000e+00 
0.0000000e+00 4.5297726e-09 0.0000000e+00 
0.0000000e+00 -1.4410877e-08 0.0000000e+00 
0.0000000e+00 -1.2796139e-07 0.0000000e+00 
0.0000000e+00 -1.9050401e-07 0.0000000e+00 
0.0000000e+00 4.1394916e-08 0.0000000e+00 
0.0000000e+00 -3.7972870e-07 0.0000000e+00 
-1.0642766e-11 -2.4344818e-06 -3.5627246e-12 
0.0000000e+00 0.0000000e+00 0.0000000e+00 
0.0000000e+00 0.0000000e+00 0.0000000e+00 
0.0000000e+00 0.0000000e+00 0.0000000e+00 
0.0000000e+00 0.0000000e+00 0.0000000e+00 
0.0000000e+00 0.0000000e+00 0.0000000e+00 
0.0000000e+00 0.0000000e+00 0.0000000e+00 
0.0000000e+00 0.0000000e+00 0.0000000e+00 
0.0000000e+00 0.0000000e+00 0.0000000e+00 
0.0000000e+00 0.0000000e+00 0.0000000e+00 
0.0000000e+00 0.0000000e+00 0.0000000e+00 
0.0000000e+00 0.0000000e+00 0.0000000e+00 
0.0000000e+00 0.0000000e+00 0.0000000e+00 
0.0000000e+00 0.0000000e+00 0.0000000e+00 
0.0000000e+00 0.0000000e+00 0.0000000e+00 
0.0000000e+00 0.0000000e+00 0.0000000e+00 
0.0000000e+00 0.0000000e+00 0.0000000e+00 
0.0000000e+00 0.0000000e+00 0.0000000e+00 
0.0000000e+00 0.0000000e+00 0.0000000e+00 