# vtk DataFile Version 4.0
vtk output
ASCII
DATASET UNSTRUCTURED_GRID
POINTS 92 float
0.0000000e+00 1.0000000e+00 2.0000000e+00 
0.0000000e+00 8.0000001e-01 2.0000000e+00 
1.0000000e+00 8.0000001e-01 2.0000000e+00 
1.0000000e+00 1.0000000e+00 2.0000000e+00 
0.0000000e+00 8.0000001e-01 3.0000000e+00 
1.0000000e+00 8.0000001e-01 3.0000000e+00 
1.0000000e+00 1.0000000e+00 3.0000000e+00 
0.0000000e+00 1.0000000e+00 3.0000000e+00 
0.0000000e+00 0.0000000e+00 0.0000000e+00 
0.0000000e+00 0.0000000e+00 2.0000000e+00 
3.0000000e+00 0.0000000e+00 0.0000000e+00 
3.0000000e+00 0.0000000e+00 2.0000000e+00 
1.5000000e+00 1.0000000e+00 0.0000000e+00 
1.5000000e+00 1.0000000e+00 2.0000000e+00 
0.0000000e+00 1.0000000e+00 0.0000000e+00 
0.0000000e+00 0.0000000e+00 3.0000000e+00 
0.0000000e+00 0.0000000e+00 5.0000000e+00 
3.0000000e+00 0.0000000e+00 3.0000000e+00 
3.0000000e+00 0.0000000e+00 5.0000000e+00 
1.5000000e+00 1.0000000e+00 3.0000000e+00 
1.5000000e+00 1.0000000e+00 5.0000000e+00 
0.0000000e+00 1.0000000e+00 5.0000000e+00 
5.0000000e-01 1.0000000e+00 2.0000000e+00 
5.0000000e-01 1.0000000e+00 3.0000000e+00 
5.0000000e-01 1.0000000e+00 0.0000000e+00 
5.0000000e-01 1.0000000e+00 5.0000000e+00 
0.0000000e+00 0.0000000e+00 1.0000000e+00 
3.0000000e+00 0.0000000e+00 1.0000000e+00 
1.0000000e+00 0.0000000e+00 0.0000000e+00 
2.0000000e+00 0.0000000e+00 0.0000000e+00 
1.0000000e+00 0.0000000e+00 2.0000000e+00 
2.0000000e+00 0.0000000e+00 2.0000000e+00 
1.5000000e+00 1.0000000e+00 1.0000000e+00 
2.2500000e+00 5.0000000e-01 0.0000000e+00 
2.2500000e+00 5.0000000e-01 2.0000000e+00 
0.0000000e+00 1.0000000e+00 1.0000000e+00 
0.0000000e+00 0.0000000e+00 4.0000000e+00 
3.0000000e+00 0.0000000e+00 4.0000000e+00 
1.0000000e+00 0.0000000e+00 3.0000000e+00 
2.0000000e+00 0.0000000e+00 3.0000000e+00 
1.0000000e+00 0.0000000e+00 5.0000000e+00 
2.0000000e+00 0.0000000e+00 5.0000000e+00 
1.5000000e+00 1.0000000e+00 4.0000000e+00 
2.2500000e+00 5.0000000e-01 3.0000000e+00 
2.2500000e+00 5.0000000e-01 5.0000000e+00 
0.0000000e+00 1.0000000e+00 4.0000000e+00 
5.0000000e-01 1.0000000e+00 1.0000000e+00 
5.0000000e-01 1.0000000e+00 4.0000000e+00 
5.0000000e-01 8.0000001e-01 2.5000000e+00 
1.5000000e+00 0.0000000e+00 1.0944226e+00 
2.3425484e+00 0.0000000e+00 7.2803199e-01 
6.5745169e-01 0.0000000e+00 7.2803199e-01 
2.4083350e+00 0.0000000e+00 1.4062847e+00 
5.9166491e-01 0.0000000e+00 1.4062847e+00 
2.5282347e+00 3.1451017e-01 5.7642096e-01 
2.2566874e+00 4.9554169e-01 1.3188519e+00 
2.0126626e+00 6.5822488e-01 6.1651802e-01 
0.0000000e+00 5.6000000e-01 1.6000000e+00 
0.0000000e+00 5.0000000e-01 5.0000000e-01 
1.5500000e+00 4.2500001e-01 0.0000000e+00 
9.9863636e-01 5.6568182e-01 0.0000000e+00 
4.9972728e-01 5.1313639e-01 0.0000000e+00 
1.7287185e+00 4.7321430e-01 2.0000000e+00 
5.0000000e-01 4.0000001e-01 2.0000000e+00 
1.2600565e+00 4.2323250e-01 2.0000000e+00 
1.5000000e+00 0.0000000e+00 3.9055774e+00 
6.5745169e-01 0.0000000e+00 4.2719679e+00 
2.3425484e+00 0.0000000e+00 4.2719679e+00 
5.9166491e-01 0.0000000e+00 3.5937154e+00 
2.4083350e+00 0.0000000e+00 3.5937154e+00 
2.5282347e+00 3.1451017e-01 3.5764210e+00 
2.2566874e+00 4.9554169e-01 4.3188519e+00 
2.0126626e+00 6.5822488e-01 3.6165180e+00 
0.0000000e+00 5.6000000e-01 3.4000001e+00 
0.0000000e+00 5.0000000e-01 4.5000000e+00 
1.7287185e+00 4.7321430e-01 3.0000000e+00 
5.0000000e-01 4.0000001e-01 3.0000000e+00 
1.2600565e+00 4.2323250e-01 3.0000000e+00 
1.5500000e+00 4.2500001e-01 5.0000000e+00 
9.9863636e-01 5.6568182e-01 5.0000000e+00 
4.9972728e-01 5.1313639e-01 5.0000000e+00 
7.5000000e-01 1.0000000e+00 2.5000000e+00 
2.5000000e-01 1.0000000e+00 2.5000000e+00 
1.0000000e+00 1.0000000e+00 5.0000000e-01 
1.0000000e+00 1.0000000e+00 1.4166666e+00 
2.5000000e-01 1.0000000e+00 5.0000000e-01 
2.5000000e-01 1.0000000e+00 1.5000000e+00 
1.0000000e+00 1.0000000e+00 4.5000000e+00 
1.0000000e+00 1.0000000e+00 3.5833333e+00 
2.5000000e-01 1.0000000e+00 4.5000000e+00 
2.5000000e-01 1.0000000e+00 3.5000000e+00 
1.0709333e+00 5.3967440e-01 6.7208827e-01 

CELLS 216 1080
4 58 85 14 35
4 61 58 51 85
4 0 35 86 57
4 64 32 84 62
4 62 64 32 49
4 85 58 51 46
4 1 2 63 57
4 13 64 84 62
4 13 84 32 62
4 46 84 53 91
4 84 57 46 53
4 11 52 55 27
4 59 49 56 91
4 64 53 84 49
4 84 49 53 91
4 32 55 62 49
4 34 13 55 62
4 46 53 51 91
4 84 32 64 49
4 49 62 64 31
4 55 13 32 62
4 58 26 51 46
4 64 2 53 63
4 24 83 46 91
4 56 59 29 49
4 46 26 53 57
4 29 59 28 49
4 60 61 51 91
4 59 28 49 91
4 53 49 51 91
4 64 53 2 84
4 51 8 58 61
4 60 28 59 91
4 26 58 35 46
4 53 51 26 46
4 46 35 26 57
4 8 58 61 14
4 32 49 84 91
4 52 55 34 11
4 27 54 10 50
4 53 30 64 63
4 35 46 86 57
4 8 26 51 58
4 49 29 56 50
4 64 30 49 31
4 64 30 53 49
4 51 49 28 91
4 12 59 56 91
4 55 62 49 31
4 24 83 60 12
4 8 51 28 61
4 51 28 61 60
4 30 53 9 63
4 85 61 58 14
4 33 56 12 59
4 29 10 54 50
4 56 49 32 91
4 60 51 28 91
4 53 26 9 57
4 58 85 35 46
4 32 12 56 91
4 32 56 55 49
4 33 10 54 29
4 63 53 9 57
4 12 60 59 91
4 32 83 12 91
4 52 34 31 11
4 27 52 54 50
4 31 49 55 52
4 62 55 34 31
4 49 56 55 50
4 59 33 56 29
4 54 55 52 27
4 33 54 56 29
4 54 56 29 50
4 55 54 52 50
4 32 84 83 91
4 46 83 84 91
4 2 64 84 13
4 85 24 61 14
4 52 49 55 50
4 56 54 55 50
4 9 1 63 57
4 12 83 60 91
4 31 55 34 52
4 22 3 2 84
4 84 3 2 13
4 46 24 61 85
4 61 24 46 91
4 61 51 46 85
4 46 51 61 91
4 46 57 22 86
4 1 57 22 2
4 57 2 53 84
4 57 53 2 63
4 57 0 22 86
4 57 22 0 1
4 84 57 22 46
4 84 22 57 2
4 91 24 60 61
4 91 60 24 83
4 23 22 48 82
4 22 23 48 81
4 2 1 48 22
4 4 5 48 23
4 82 4 1 48
4 5 2 48 81
4 5 3 2 81
4 1 7 82 0
4 7 1 82 4
4 6 3 5 81
4 23 4 82 48
4 81 22 2 48
4 22 82 1 48
4 23 81 5 48
4 1 0 82 22
4 5 6 81 23
4 2 3 22 81
4 7 4 82 23
4 47 80 25 89
4 78 79 87 65
4 47 80 89 66
4 45 89 21 74
4 80 74 89 66
4 73 23 5 4
4 78 66 79 65
4 7 73 90 45
4 40 66 79 78
4 66 87 79 65
4 66 88 87 42
4 65 87 78 42
4 74 47 89 66
4 87 47 88 66
4 75 19 77 72
4 73 5 76 4
4 80 87 79 66
4 80 47 87 66
4 88 66 65 42
4 77 65 75 72
4 66 47 88 68
4 65 66 87 42
4 88 73 23 5
4 68 88 66 65
4 65 77 88 72
4 78 71 65 42
4 78 40 66 65
4 88 47 73 68
4 88 68 77 65
4 19 88 77 72
4 77 65 39 75
4 47 74 36 66
4 88 65 72 42
4 5 68 76 77
4 36 73 47 68
4 40 78 41 65
4 87 20 78 42
4 71 78 20 42
4 47 80 87 25
4 68 5 88 77
4 43 19 75 72
4 74 80 16 66
4 74 45 47 36
4 65 39 75 72
4 66 36 47 68
4 73 47 45 36
4 23 47 73 88
4 78 71 41 65
4 20 78 71 44
4 21 74 80 16
4 37 71 67 18
4 68 76 77 38
4 19 88 72 42
4 47 90 73 45
4 36 74 16 66
4 65 38 77 39
4 38 77 68 65
4 87 20 79 78
4 80 16 66 40
4 66 79 80 40
4 76 68 15 38
4 74 89 21 80
4 71 41 65 67
4 25 87 20 79
4 39 65 69 72
4 71 44 67 18
4 15 73 36 68
4 72 65 71 42
4 17 70 43 69
4 89 45 47 74
4 69 17 70 37
4 67 69 65 72
4 43 75 39 72
4 43 39 17 69
4 25 87 79 80
4 68 15 73 76
4 44 41 67 18
4 69 70 43 72
4 71 69 67 72
4 67 65 71 72
4 71 70 69 72
4 78 71 44 41
4 67 70 71 37
4 19 88 5 77
4 69 43 39 72
4 25 21 89 80
4 69 70 71 67
4 15 4 73 76
4 67 69 70 37
4 71 44 41 67
4 6 5 88 23
4 88 5 6 19
4 47 23 73 90
4 73 5 68 76
4 73 68 5 88
4 73 7 23 4
4 23 7 73 90

CELL_TYPES 216
10
10
10
10
10
10
10
10
10
10
10
10
10
10
10
10
10
10
10
10
10
10
10
10
10
10
10
10
10
10
10
10
10
10
10
10
10
10
10
10
10
10
10
10
10
10
10
10
10
10
10
10
10
10
10
10
10
10
10
10
10
10
10
10
10
10
10
10
10
10
10
10
10
10
10
10
10
10
10
10
10
10
10
10
10
10
10
10
10
10
10
10
10
10
10
10
10
10
10
10
10
10
10
10
10
10
10
10
10
10
10
10
10
10
10
10
10
10
10
10
10
10
10
10
10
10
10
10
10
10
10
10
10
10
10
10
10
10
10
10
10
10
10
10
10
10
10
10
10
10
10
10
10
10
10
10
10
10
10
10
10
10
10
10
10
10
10
10
10
10
10
10
10
10
10
10
10
10
10
10
10
10
10
10
10
10
10
10
10
10
10
10
10
10
10
10
10
10
10
10
10
10
10
10
10
10
10
10
10
10
10
10
10
10
10
10
POINT_DATA 92
FIELD FieldData 2
DISPLACEMENT 3 92  float
0.0000000e+00 -3.1731207e-10 0.0000000e+00 
0.0000000e+00 -4.8236654e-10 0.0000000e+00 
-4.3209203e-10 1.9213882e-11 8.1523888e-10 
-1.0239939e-10 -7.0493049e-11 -2.0721144e-12 
0.0000000e+00 6.0613509e-10 0.0000000e+00 
-2.2693901e-10 5.4012650e-10 -2.7673028e-10 
-6.6099022e-11 5.1950816e-10 -3.0535630e-10 
0.0000000e+00 6.7166950e-10 0.0000000e+00 
0.0000000e+00 0.0000000e+00 0.0000000e+00 
0.0000000e+00 0.0000000e+00 0.0000000e+00 
0.0000000e+00 0.0000000e+00 0.0000000e+00 
0.0000000e+00 0.0000000e+00 0.0000000e+00 
0.0000000e+00 -6.4671326e-09 0.0000000e+00 
0.0000000e+00 -1.9564486e-09 0.0000000e+00 
0.0000000e+00 -2.2450375e-07 0.0000000e+00 
0.0000000e+00 0.0000000e+00 0.0000000e+00 
0.0000000e+00 0.0000000e+00 0.0000000e+00 
0.0000000e+00 0.0000000e+00 0.0000000e+00 
0.0000000e+00 0.0000000e+00 0.0000000e+00 
-4.9717973e-11 9.6711222e-11 -6.0974885e-11 
0.0000000e+00 5.0860449e-12 0.0000000e+00 
0.0000000e+00 3.4232239e-12 0.0000000e+00 
-8.2684010e-10 1.2259204e-09 -1.3580657e-09 
-1.5452780e-11 6.0672739e-10 -4.7382140e-11 
0.0000000e+00 -6.1299448e-07 0.0000000e+00 
0.0000000e+00 3.0177497e-12 0.0000000e+00 
0.0000000e+00 0.0000000e+00 0.0000000e+00 
0.0000000e+00 0.0000000e+00 0.0000000e+00 
0.0000000e+00 0.0000000e+00 0.0000000e+00 
0.0000000e+00 0.0000000e+00 0.0000000e+00 
0.0000000e+00 0.0000000e+00 0.0000000e+00 
0.0000000e+00 0.0000000e+00 0.0000000e+00 
0.0000000e+00 -3.8577697e-09 0.0000000e+00 
0.0000000e+00 7.0650062e-11 0.0000000e+00 
0.0000000e+00 4.0705411e-10 0.0000000e+00 
0.0000000e+00 -5.3190746e-08 0.0000000e+00 
0.0000000e+00 0.0000000e+00 0.0000000e+00 
0.0000000e+00 0.0000000e+00 0.0000000e+00 
0.0000000e+00 0.0000000e+00 0.0000000e+00 
0.0000000e+00 0.0000000e+00 0.0000000e+00 
0.0000000e+00 0.0000000e+00 0.0000000e+00 
0.0000000e+00 0.0000000e+00 0.0000000e+00 
-3.1527066e-11 3.5289913e-11 -4.5588176e-11 
-2.9799923e-11 -1.2367946e-12 -6.6667097e-12 
0.0000000e+00 1.5601057e-12 0.0000000e+00 
0.0000000e+00 7.0838653e-13 0.0000000e+00 
-6.0048047e-09 -7.6560418e-08 -3.0229905e-09 
-1.1113033e-11 6.4821620e-12 -1.6228545e-11 
-2.6141203e-10 1.1192937e-09 -6.5230027e-10 
0.0000000e+00 0.0000000e+00 0.0000000e+00 
0.0000000e+00 0.0000000e+00 0.0000000e+00 
0.0000000e+00 0.0000000e+00 0.0000000e+00 
0.0000000e+00 0.0000000e+00 0.0000000e+00 
0.0000000e+00 0.0000000e+00 0.0000000e+00 
0.0000000e+00 5.3668365e-11 0.0000000e+00 
0.0000000e+00 7.2654910e-11 0.0000000e+00 
0.0000000e+00 1.0183808e-09 0.0000000e+00 
0.0000000e+00 -1.7584380e-08 0.0000000e+00 
0.0000000e+00 -8.4699288e-08 0.0000000e+00 
0.0000000e+00 -9.5945953e-09 0.0000000e+00 
0.0000000e+00 -1.5014668e-07 0.0000000e+00 
0.0000000e+00 -2.7250536e-07 0.0000000e+00 
3.5000292e-10 4.1120479e-10 1.1337640e-09 
6.0908850e-10 -2.2927480e-09 2.0493933e-09 
3.5927361e-10 -2.4247193e-09 1.2320654e-09 
0.0000000e+00 0.0000000e+00 0.0000000e+00 
0.0000000e+00 0.0000000e+00 0.0000000e+00 
0.0000000e+00 0.0000000e+00 0.0000000e+00 
0.0000000e+00 0.0000000e+00 0.0000000e+00 
0.0000000e+00 0.0000000e+00 0.0000000e+00 
-1.0332958e-11 1.9585210e-12 -4.8681645e-12 
-1.3735869e-11 2.8670983e-12 -9.6363828e-12 
-3.6692864e-11 -7.8782874e-12 -2.4377975e-11 
0.0000000e+00 2.1344183e-10 0.0000000e+00 
0.0000000e+00 5.5389867e-13 0.0000000e+00 
-7.6124773e-11 6.1908201e-11 -4.5516247e-11 
-9.3393737e-11 2.1039216e-10 -5.4683272e-11 
-1.4327624e-10 1.5152077e-10 -1.1092668e-10 
0.0000000e+00 7.1871402e-12 0.0000000e+00 
0.0000000e+00 9.3286186e-12 0.0000000e+00 
0.0000000e+00 3.9594330e-12 0.0000000e+00 
-2.1701234e-10 8.1125462e-10 -4.4746495e-10 
-2.8113722e-10 6.1804245e-10 -3.7401943e-10 
-5.5014571e-08 -1.1254464e-07 -2.8589545e-08 
1.3632127e-09 -1.2968232e-08 1.0899718e-09 
-7.5180218e-09 -1.7774849e-07 -9.8319921e-09 
5.9709410e-10 -3.0529218e-08 -8.9109813e-09 
-1.0802730e-11 1.1245008e-11 -2.5649307e-11 
-6.6404084e-11 1.4291390e-10 -1.0240760e-10 
-4.6455539e-12 3.7420201e-12 -6.8674350e-12 
-2.1864269e-11 2.3736982e-10 4.7221314e-11 
1.3975257e-08 -2.5985127e-08 1.1208166e-08 
TOTAL_DISPLACEMENT 3 92  float
0.0000000e+00 0.0000000e+00 0.0000000e+00 
0.0000000e+00 0.0000000e+00 0.0000000e+00 
0.0000000e+00 0.0000000e+00 0.0000000e+00 
0.0000000e+00 0.0000000e+00 0.0000000e+00 
0.0000000e+00 0.0000000e+00 0.0000000e+00 
0.0000000e+00 0.0000000e+00 0.0000000e+00 
0.0000000e+00 0.0000000e+00 0.0000000e+00 
0.0000000e+00 0.0000000e+00 0.0000000e+00 
0.0000000e+00 0.0000000e+00 0.0000000e+00 
0.0000000e+00 0.0000000e+00 0.0000000e+00 
0.0000000e+00 0.0000000e+00 0.0000000e+00 
0.0000000e+00 0.0000000e+00 0.0000000e+00 
0.0000000e+00 0.0000000e+00 0.0000000e+00 
0.0000000e+00 0.0000000e+00 0.0000000e+00 
0.0000000e+00 0.0000000e+00 0.0000000e+00 
0.0000000e+00 0.0000000e+00 0.0000000e+00 
0.0000000e+00 0.0000000e+00 0.0000000e+00 
0.0000000e+00 0.0000000e+00 0.0000000e+00 
0.0000000e+00 0.0000000e+00 0.0000000e+00 
0.0000000e+00 0.0000000e+00 0.0000000e+00 
0.0000000e+00 0.0000000e+00 0.0000000e+00 
0.0000000e+00 0.0000000e+00 0.0000000e+00 
0.0000000e+00 0.0000000e+00 0.0000000e+00 
0.0000000e+00 0.0000000e+00 0.0000000e+00 
0.0000000e+00 0.0000000e+00 0.0000000e+00 
0.0000000e+00 0.0000000e+00 0.0000000e+00 
0.0000000e+00 0.0000000e+00 0.0000000e+00 
0.0000000e+00 0.0000000e+00 0.0000000e+00 
0.0000000e+00 0.0000000e+00 0.0000000e+00 
0.0000000e+00 0.0000000e+00 0.0000000e+00 
0.0000000e+00 0.0000000e+00 0.0000000e+00 
0.0000000e+00 0.0000000e+00 0.0000000e+00 
0.0000000e+00 0.0000000e+00 0.0000000e+00 
0.0000000e+00 0.0000000e+00 0.0000000e+00 
0.0000000e+00 0.0000000e+00 0.0000000e+00 
0.0000000e+00 0.0000000e+00 0.0000000e+00 
0.0000000e+00 0.0000000e+00 0.0000000e+00 
0.0000000e+00 0.0000000e+00 0.0000000e+00 
0.0000000e+00 0.0000000e+00 0.0000000e+00 
0.0000000e+00 0.0000000e+00 0.0000000e+00 
0.0000000e+00 0.0000000e+00 0.0000000e+00 
0.0000000e+00 0.0000000e+00 0.0000000e+00 
0.0000000e+00 0.0000000e+00 0.0000000e+00 
0.0000000e+00 0.0000000e+00 0.0000000e+00 
0.0000000e+00 0.0000000e+00 0.0000000e+00 
0.0000000e+00 0.0000000e+00 0.0000000e+00 
0.0000000e+00 0.0000000e+00 0.0000000e+00 
0.0000000e+00 0.0000000e+00 0.0000000e+00 
0.0000000e+00 0.0000000e+00 0.0000000e+00 
0.0000000e+00 0.0000000e+00 0.0000000e+00 
0.0000000e+00 0.0000000e+00 0.0000000e+00 
0.0000000e+00 0.0000000e+00 0.0000000e+00 
0.0000000e+00 0.0000000e+00 0.0000000e+00 
0.0000000e+00 0.0000000e+00 0.0000000e+00 
0.0000000e+00 0.0000000e+00 0.0000000e+00 
0.0000000e+00 0.0000000e+00 0.0000000e+00 
0.0000000e+00 0.0000000e+00 0.0000000e+00 
0.0000000e+00 0.0000000e+00 0.0000000e+00 
0.0000000e+00 0.0000000e+00 0.0000000e+00 
0.0000000e+00 0.0000000e+00 0.0000000e+00 
0.0000000e+00 0.0000000e+00 0.0000000e+00 
0.0000000e+00 0.0000000e+00 0.0000000e+00 
0.0000000e+00 0.0000000e+00 0.0000000e+00 
0.0000000e+00 0.0000000e+00 0.0000000e+00 
0.0000000e+00 0.0000000e+00 0.0000000e+00 
0.0000000e+00 0.0000000e+00 0.0000000e+00 
0.0000000e+00 0.0000000e+00 0.0000000e+00 
0.0000000e+00 0.0000000e+00 0.0000000e+00 
0.0000000e+00 0.0000000e+00 0.0000000e+00 
0.0000000e+00 0.0000000e+00 0.0000000e+00 
0.0000000e+00 0.0000000e+00 0.0000000e+00 
0.0000000e+00 0.0000000e+00 0.0000000e+00 
0.0000000e+00 0.0000000e+00 0.0000000e+00 
0.0000000e+00 0.0000000e+00 0.0000000e+00 
0.0000000e+00 0.0000000e+00 0.0000000e+00 
0.0000000e+00 0.0000000e+00 0.0000000e+00 
0.0000000e+00 0.0000000e+00 0.0000000e+00 
0.0000000e+00 0.0000000e+00 0.0000000e+00 
0.0000000e+00 0.0000000e+00 0.0000000e+00 
0.0000000e+00 0.0000000e+00 0.0000000e+00 
0.0000000e+00 0.0000000e+00 0.0000000e+00 
0.0000000e+00 0.0000000e+00 0.0000000e+00 
0.0000000e+00 0.0000000e+00 0.0000000e+00 
0.0000000e+00 0.0000000e+00 0.0000000e+00 
0.0000000e+00 0.0000000e+00 0.0000000e+00 
0.0000000e+00 0.0000000e+00 0.0000000e+00 
0.0000000e+00 0.0000000e+00 0.0000000e+00 
0.0000000e+00 0.0000000e+00 0.0000000e+00 
0.0000000e+00 0.0000000e+00 0.0000000e+00 
0.0000000e+00 0.0000000e+00 0.0000000e+00 
0.0000000e+00 0.0000000e+00 0.0000000e+00 
0.0000000e+00 0.0000000e+00 0.0000000e+00 
CELL_DATA 216
FIELD FieldData 0
