# vtk DataFile Version 4.0
vtk output
ASCII
DATASET UNSTRUCTURED_GRID
POINTS 92 float
0.0000000e+00 1.0000000e+00 2.0000000e+00 
0.0000000e+00 8.0000001e-01 2.0000000e+00 
1.0000000e+00 8.0000001e-01 2.0000000e+00 
1.0000000e+00 1.0000000e+00 2.0000000e+00 
0.0000000e+00 8.0000001e-01 3.0000000e+00 
1.0000000e+00 8.0000001e-01 3.0000000e+00 
1.0000000e+00 1.0000000e+00 3.0000000e+00 
0.0000000e+00 1.0000000e+00 3.0000000e+00 
0.0000000e+00 0.0000000e+00 0.0000000e+00 
0.0000000e+00 0.0000000e+00 2.0000000e+00 
3.0000000e+00 0.0000000e+00 0.0000000e+00 
3.0000000e+00 0.0000000e+00 2.0000000e+00 
1.5000000e+00 1.0000000e+00 0.0000000e+00 
1.5000000e+00 1.0000000e+00 2.0000000e+00 
0.0000000e+00 1.0000000e+00 0.0000000e+00 
0.0000000e+00 0.0000000e+00 3.0000000e+00 
0.0000000e+00 0.0000000e+00 5.0000000e+00 
3.0000000e+00 0.0000000e+00 3.0000000e+00 
3.0000000e+00 0.0000000e+00 5.0000000e+00 
1.5000000e+00 1.0000000e+00 3.0000000e+00 
1.5000000e+00 1.0000000e+00 5.0000000e+00 
0.0000000e+00 1.0000000e+00 5.0000000e+00 
5.0000000e-01 1.0000000e+00 2.0000000e+00 
5.0000000e-01 1.0000000e+00 3.0000000e+00 
5.0000000e-01 1.0000000e+00 0.0000000e+00 
5.0000000e-01 1.0000000e+00 5.0000000e+00 
0.0000000e+00 0.0000000e+00 1.0000000e+00 
3.0000000e+00 0.0000000e+00 1.0000000e+00 
1.0000000e+00 0.0000000e+00 0.0000000e+00 
2.0000000e+00 0.0000000e+00 0.0000000e+00 
1.0000000e+00 0.0000000e+00 2.0000000e+00 
2.0000000e+00 0.0000000e+00 2.0000000e+00 
1.5000000e+00 1.0000000e+00 1.0000000e+00 
2.2500000e+00 5.0000000e-01 0.0000000e+00 
2.2500000e+00 5.0000000e-01 2.0000000e+00 
0.0000000e+00 1.0000000e+00 1.0000000e+00 
0.0000000e+00 0.0000000e+00 4.0000000e+00 
3.0000000e+00 0.0000000e+00 4.0000000e+00 
1.0000000e+00 0.0000000e+00 3.0000000e+00 
2.0000000e+00 0.0000000e+00 3.0000000e+00 
1.0000000e+00 0.0000000e+00 5.0000000e+00 
2.0000000e+00 0.0000000e+00 5.0000000e+00 
1.5000000e+00 1.0000000e+00 4.0000000e+00 
2.2500000e+00 5.0000000e-01 3.0000000e+00 
2.2500000e+00 5.0000000e-01 5.0000000e+00 
0.0000000e+00 1.0000000e+00 4.0000000e+00 
5.0000000e-01 1.0000000e+00 1.0000000e+00 
5.0000000e-01 1.0000000e+00 4.0000000e+00 
5.0000000e-01 8.0000001e-01 2.5000000e+00 
1.5000000e+00 0.0000000e+00 1.0944226e+00 
2.3425484e+00 0.0000000e+00 7.2803199e-01 
6.5745169e-01 0.0000000e+00 7.2803199e-01 
2.4083350e+00 0.0000000e+00 1.4062847e+00 
5.9166491e-01 0.0000000e+00 1.4062847e+00 
2.5282347e+00 3.1451017e-01 5.7642096e-01 
2.2566874e+00 4.9554169e-01 1.3188519e+00 
2.0126626e+00 6.5822488e-01 6.1651802e-01 
0.0000000e+00 5.6000000e-01 1.6000000e+00 
0.0000000e+00 5.0000000e-01 5.0000000e-01 
1.5500000e+00 4.2500001e-01 0.0000000e+00 
9.9863636e-01 5.6568182e-01 0.0000000e+00 
4.9972728e-01 5.1313639e-01 0.0000000e+00 
1.7287185e+00 4.7321430e-01 2.0000000e+00 
5.0000000e-01 4.0000001e-01 2.0000000e+00 
1.2600565e+00 4.2323250e-01 2.0000000e+00 
1.5000000e+00 0.0000000e+00 3.9055774e+00 
6.5745169e-01 0.0000000e+00 4.2719679e+00 
2.3425484e+00 0.0000000e+00 4.2719679e+00 
5.9166491e-01 0.0000000e+00 3.5937154e+00 
2.4083350e+00 0.0000000e+00 3.5937154e+00 
2.5282347e+00 3.1451017e-01 3.5764210e+00 
2.2566874e+00 4.9554169e-01 4.3188519e+00 
2.0126626e+00 6.5822488e-01 3.6165180e+00 
0.0000000e+00 5.6000000e-01 3.4000001e+00 
0.0000000e+00 5.0000000e-01 4.5000000e+00 
1.7287185e+00 4.7321430e-01 3.0000000e+00 
5.0000000e-01 4.0000001e-01 3.0000000e+00 
1.2600565e+00 4.2323250e-01 3.0000000e+00 
1.5500000e+00 4.2500001e-01 5.0000000e+00 
9.9863636e-01 5.6568182e-01 5.0000000e+00 
4.9972728e-01 5.1313639e-01 5.0000000e+00 
7.5000000e-01 1.0000000e+00 2.5000000e+00 
2.5000000e-01 1.0000000e+00 2.5000000e+00 
1.0000000e+00 1.0000000e+00 5.0000000e-01 
1.0000000e+00 1.0000000e+00 1.4166666e+00 
2.5000000e-01 1.0000000e+00 5.0000000e-01 
2.5000000e-01 1.0000000e+00 1.5000000e+00 
1.0000000e+00 1.0000000e+00 4.5000000e+00 
1.0000000e+00 1.0000000e+00 3.5833333e+00 
2.5000000e-01 1.0000000e+00 4.5000000e+00 
2.5000000e-01 1.0000000e+00 3.5000000e+00 
1.0709333e+00 5.3967440e-01 6.7208827e-01 

CELLS 216 1080
4 58 85 14 35
4 61 58 51 85
4 0 35 86 57
4 64 32 84 62
4 62 64 32 49
4 85 58 51 46
4 1 2 63 57
4 13 64 84 62
4 13 84 32 62
4 46 84 53 91
4 84 57 46 53
4 11 52 55 27
4 59 49 56 91
4 64 53 84 49
4 84 49 53 91
4 32 55 62 49
4 34 13 55 62
4 46 53 51 91
4 84 32 64 49
4 49 62 64 31
4 55 13 32 62
4 58 26 51 46
4 64 2 53 63
4 24 83 46 91
4 56 59 29 49
4 46 26 53 57
4 29 59 28 49
4 60 61 51 91
4 59 28 49 91
4 53 49 51 91
4 64 53 2 84
4 51 8 58 61
4 60 28 59 91
4 26 58 35 46
4 53 51 26 46
4 46 35 26 57
4 8 58 61 14
4 32 49 84 91
4 52 55 34 11
4 27 54 10 50
4 53 30 64 63
4 35 46 86 57
4 8 26 51 58
4 49 29 56 50
4 64 30 49 31
4 64 30 53 49
4 51 49 28 91
4 12 59 56 91
4 55 62 49 31
4 24 83 60 12
4 8 51 28 61
4 51 28 61 60
4 30 53 9 63
4 85 61 58 14
4 33 56 12 59
4 29 10 54 50
4 56 49 32 91
4 60 51 28 91
4 53 26 9 57
4 58 85 35 46
4 32 12 56 91
4 32 56 55 49
4 33 10 54 29
4 63 53 9 57
4 12 60 59 91
4 32 83 12 91
4 52 34 31 11
4 27 52 54 50
4 31 49 55 52
4 62 55 34 31
4 49 56 55 50
4 59 33 56 29
4 54 55 52 27
4 33 54 56 29
4 54 56 29 50
4 55 54 52 50
4 32 84 83 91
4 46 83 84 91
4 2 64 84 13
4 85 24 61 14
4 52 49 55 50
4 56 54 55 50
4 9 1 63 57
4 12 83 60 91
4 31 55 34 52
4 22 3 2 84
4 84 3 2 13
4 46 24 61 85
4 61 24 46 91
4 61 51 46 85
4 46 51 61 91
4 46 57 22 86
4 1 57 22 2
4 57 2 53 84
4 57 53 2 63
4 57 0 22 86
4 57 22 0 1
4 84 57 22 46
4 84 22 57 2
4 91 24 60 61
4 91 60 24 83
4 23 22 48 82
4 22 23 48 81
4 2 1 48 22
4 4 5 48 23
4 82 4 1 48
4 5 2 48 81
4 5 3 2 81
4 1 7 82 0
4 7 1 82 4
4 6 3 5 81
4 23 4 82 48
4 81 22 2 48
4 22 82 1 48
4 23 81 5 48
4 1 0 82 22
4 5 6 81 23
4 2 3 22 81
4 7 4 82 23
4 47 80 25 89
4 78 79 87 65
4 47 80 89 66
4 45 89 21 74
4 80 74 89 66
4 73 23 5 4
4 78 66 79 65
4 7 73 90 45
4 40 66 79 78
4 66 87 79 65
4 66 88 87 42
4 65 87 78 42
4 74 47 89 66
4 87 47 88 66
4 75 19 77 72
4 73 5 76 4
4 80 87 79 66
4 80 47 87 66
4 88 66 65 42
4 77 65 75 72
4 66 47 88 68
4 65 66 87 42
4 88 73 23 5
4 68 88 66 65
4 65 77 88 72
4 78 71 65 42
4 78 40 66 65
4 88 47 73 68
4 88 68 77 65
4 19 88 77 72
4 77 65 39 75
4 47 74 36 66
4 88 65 72 42
4 5 68 76 77
4 36 73 47 68
4 40 78 41 65
4 87 20 78 42
4 71 78 20 42
4 47 80 87 25
4 68 5 88 77
4 43 19 75 72
4 74 80 16 66
4 74 45 47 36
4 65 39 75 72
4 66 36 47 68
4 73 47 45 36
4 23 47 73 88
4 78 71 41 65
4 20 78 71 44
4 21 74 80 16
4 37 71 67 18
4 68 76 77 38
4 19 88 72 42
4 47 90 73 45
4 36 74 16 66
4 65 38 77 39
4 38 77 68 65
4 87 20 79 78
4 80 16 66 40
4 66 79 80 40
4 76 68 15 38
4 74 89 21 80
4 71 41 65 67
4 25 87 20 79
4 39 65 69 72
4 71 44 67 18
4 15 73 36 68
4 72 65 71 42
4 17 70 43 69
4 89 45 47 74
4 69 17 70 37
4 67 69 65 72
4 43 75 39 72
4 43 39 17 69
4 25 87 79 80
4 68 15 73 76
4 44 41 67 18
4 69 70 43 72
4 71 69 67 72
4 67 65 71 72
4 71 70 69 72
4 78 71 44 41
4 67 70 71 37
4 19 88 5 77
4 69 43 39 72
4 25 21 89 80
4 69 70 71 67
4 15 4 73 76
4 67 69 70 37
4 71 44 41 67
4 6 5 88 23
4 88 5 6 19
4 47 23 73 90
4 73 5 68 76
4 73 68 5 88
4 73 7 23 4
4 23 7 73 90

CELL_TYPES 216
10
10
10
10
10
10
10
10
10
10
10
10
10
10
10
10
10
10
10
10
10
10
10
10
10
10
10
10
10
10
10
10
10
10
10
10
10
10
10
10
10
10
10
10
10
10
10
10
10
10
10
10
10
10
10
10
10
10
10
10
10
10
10
10
10
10
10
10
10
10
10
10
10
10
10
10
10
10
10
10
10
10
10
10
10
10
10
10
10
10
10
10
10
10
10
10
10
10
10
10
10
10
10
10
10
10
10
10
10
10
10
10
10
10
10
10
10
10
10
10
10
10
10
10
10
10
10
10
10
10
10
10
10
10
10
10
10
10
10
10
10
10
10
10
10
10
10
10
10
10
10
10
10
10
10
10
10
10
10
10
10
10
10
10
10
10
10
10
10
10
10
10
10
10
10
10
10
10
10
10
10
10
10
10
10
10
10
10
10
10
10
10
10
10
10
10
10
10
10
10
10
10
10
10
10
10
10
10
10
10
10
10
10
10
10
10
POINT_DATA 92
FIELD FieldData 2
DISPLACEMENT 3 92  float
0.0000000e+00 -3.5966656e-07 0.0000000e+00 
0.0000000e+00 -3.6911240e-07 0.0000000e+00 
2.7080141e-08 -2.2120692e-07 1.3725750e-08 
-1.7541296e-08 -2.1862012e-07 -7.9203941e-09 
0.0000000e+00 -1.6294129e-07 0.0000000e+00 
1.2946361e-08 -5.7126112e-08 1.6430477e-08 
-1.6335703e-08 -5.7246275e-08 -1.5618109e-08 
0.0000000e+00 -1.5947143e-07 0.0000000e+00 
0.0000000e+00 0.0000000e+00 0.0000000e+00 
0.0000000e+00 0.0000000e+00 0.0000000e+00 
0.0000000e+00 0.0000000e+00 0.0000000e+00 
0.0000000e+00 0.0000000e+00 0.0000000e+00 
0.0000000e+00 3.5602604e-10 0.0000000e+00 
0.0000000e+00 -3.5763787e-08 0.0000000e+00 
0.0000000e+00 1.4907470e-09 0.0000000e+00 
0.0000000e+00 0.0000000e+00 0.0000000e+00 
0.0000000e+00 0.0000000e+00 0.0000000e+00 
0.0000000e+00 0.0000000e+00 0.0000000e+00 
0.0000000e+00 0.0000000e+00 0.0000000e+00 
-2.6371774e-09 -9.5015658e-09 -2.3640960e-09 
0.0000000e+00 -3.2901806e-10 0.0000000e+00 
0.0000000e+00 1.3875980e-10 0.0000000e+00 
-1.4338356e-08 -3.4664814e-07 1.1735805e-09 
-1.2390917e-08 -1.1743412e-07 -2.7849261e-08 
0.0000000e+00 1.4435441e-09 0.0000000e+00 
0.0000000e+00 -1.4674696e-10 0.0000000e+00 
0.0000000e+00 0.0000000e+00 0.0000000e+00 
0.0000000e+00 0.0000000e+00 0.0000000e+00 
0.0000000e+00 0.0000000e+00 0.0000000e+00 
0.0000000e+00 0.0000000e+00 0.0000000e+00 
0.0000000e+00 0.0000000e+00 0.0000000e+00 
0.0000000e+00 0.0000000e+00 0.0000000e+00 
0.0000000e+00 -1.6773706e-08 0.0000000e+00 
0.0000000e+00 -3.6788408e-10 0.0000000e+00 
0.0000000e+00 -7.1707695e-10 0.0000000e+00 
0.0000000e+00 -3.9351407e-09 0.0000000e+00 
0.0000000e+00 0.0000000e+00 0.0000000e+00 
0.0000000e+00 0.0000000e+00 0.0000000e+00 
0.0000000e+00 0.0000000e+00 0.0000000e+00 
0.0000000e+00 0.0000000e+00 0.0000000e+00 
0.0000000e+00 0.0000000e+00 0.0000000e+00 
0.0000000e+00 0.0000000e+00 0.0000000e+00 
2.9788391e-10 -2.6006530e-09 3.3207692e-10 
1.8794593e-09 1.9228562e-10 1.6169087e-10 
0.0000000e+00 1.9876600e-11 0.0000000e+00 
0.0000000e+00 1.0721526e-09 0.0000000e+00 
-2.0507811e-09 -8.6142904e-10 1.1496619e-08 
-1.2459757e-09 1.4736294e-09 -1.3176158e-09 
1.2422436e-08 -2.3793068e-07 3.1251897e-08 
0.0000000e+00 0.0000000e+00 0.0000000e+00 
0.0000000e+00 0.0000000e+00 0.0000000e+00 
0.0000000e+00 0.0000000e+00 0.0000000e+00 
0.0000000e+00 0.0000000e+00 0.0000000e+00 
0.0000000e+00 0.0000000e+00 0.0000000e+00 
0.0000000e+00 -1.6038883e-10 0.0000000e+00 
0.0000000e+00 -2.4457841e-10 0.0000000e+00 
0.0000000e+00 -2.8384666e-09 0.0000000e+00 
0.0000000e+00 -1.3840314e-07 0.0000000e+00 
0.0000000e+00 -1.8835200e-10 0.0000000e+00 
0.0000000e+00 -5.8049171e-10 0.0000000e+00 
0.0000000e+00 -2.1747802e-10 0.0000000e+00 
0.0000000e+00 1.6131754e-09 0.0000000e+00 
1.2148108e-08 -2.3241642e-08 -4.5885601e-10 
1.8413170e-08 -1.2187942e-07 1.8556003e-08 
2.9617304e-08 -6.2260000e-08 4.1210002e-10 
0.0000000e+00 0.0000000e+00 0.0000000e+00 
0.0000000e+00 0.0000000e+00 0.0000000e+00 
0.0000000e+00 0.0000000e+00 0.0000000e+00 
0.0000000e+00 0.0000000e+00 0.0000000e+00 
0.0000000e+00 0.0000000e+00 0.0000000e+00 
4.4256371e-10 -5.0945619e-11 1.8961377e-10 
4.5119949e-10 3.1779489e-11 1.9233071e-10 
1.3801145e-09 1.3017289e-09 4.2941617e-10 
0.0000000e+00 -5.5432931e-08 0.0000000e+00 
0.0000000e+00 1.7397561e-10 0.0000000e+00 
5.0587436e-09 -6.3019741e-09 2.1080677e-09 
1.3006736e-08 -3.7937731e-08 2.2662798e-09 
1.0884291e-08 -1.5126350e-08 7.3760695e-09 
0.0000000e+00 -7.8296994e-11 0.0000000e+00 
0.0000000e+00 -1.6898970e-10 0.0000000e+00 
0.0000000e+00 -2.4265060e-11 0.0000000e+00 
-1.9076618e-08 -1.9037834e-07 -1.1535968e-08 
-6.7766157e-09 -2.5514612e-07 -1.6466926e-08 
-8.5850183e-10 -5.9889760e-10 6.3896670e-09 
1.1858569e-08 -7.4475061e-08 1.1506187e-08 
-7.2661854e-10 -1.9525875e-10 5.0963753e-09 
3.4746090e-09 -1.4084547e-07 3.8317477e-08 
-4.1285539e-10 -5.0507343e-10 -1.0664444e-10 
9.7043662e-10 -1.2426792e-08 1.6590906e-09 
-5.2147142e-10 6.3390049e-10 -5.0111770e-10 
-6.6561678e-10 -5.3243262e-08 -1.8348111e-08 
-1.9363242e-09 -4.9844910e-09 -1.1747432e-09 
TOTAL_DISPLACEMENT 3 92  float
0.0000000e+00 0.0000000e+00 0.0000000e+00 
0.0000000e+00 0.0000000e+00 0.0000000e+00 
0.0000000e+00 0.0000000e+00 0.0000000e+00 
0.0000000e+00 0.0000000e+00 0.0000000e+00 
0.0000000e+00 0.0000000e+00 0.0000000e+00 
0.0000000e+00 0.0000000e+00 0.0000000e+00 
0.0000000e+00 0.0000000e+00 0.0000000e+00 
0.0000000e+00 0.0000000e+00 0.0000000e+00 
0.0000000e+00 0.0000000e+00 0.0000000e+00 
0.0000000e+00 0.0000000e+00 0.0000000e+00 
0.0000000e+00 0.0000000e+00 0.0000000e+00 
0.0000000e+00 0.0000000e+00 0.0000000e+00 
0.0000000e+00 0.0000000e+00 0.0000000e+00 
0.0000000e+00 0.0000000e+00 0.0000000e+00 
0.0000000e+00 0.0000000e+00 0.0000000e+00 
0.0000000e+00 0.0000000e+00 0.0000000e+00 
0.0000000e+00 0.0000000e+00 0.0000000e+00 
0.0000000e+00 0.0000000e+00 0.0000000e+00 
0.0000000e+00 0.0000000e+00 0.0000000e+00 
0.0000000e+00 0.0000000e+00 0.0000000e+00 
0.0000000e+00 0.0000000e+00 0.0000000e+00 
0.0000000e+00 0.0000000e+00 0.0000000e+00 
0.0000000e+00 0.0000000e+00 0.0000000e+00 
0.0000000e+00 0.0000000e+00 0.0000000e+00 
0.0000000e+00 0.0000000e+00 0.0000000e+00 
0.0000000e+00 0.0000000e+00 0.0000000e+00 
0.0000000e+00 0.0000000e+00 0.0000000e+00 
0.0000000e+00 0.0000000e+00 0.0000000e+00 
0.0000000e+00 0.0000000e+00 0.0000000e+00 
0.0000000e+00 0.0000000e+00 0.0000000e+00 
0.0000000e+00 0.0000000e+00 0.0000000e+00 
0.0000000e+00 0.0000000e+00 0.0000000e+00 
0.0000000e+00 0.0000000e+00 0.0000000e+00 
0.0000000e+00 0.0000000e+00 0.0000000e+00 
0.0000000e+00 0.0000000e+00 0.0000000e+00 
0.0000000e+00 0.0000000e+00 0.0000000e+00 
0.0000000e+00 0.0000000e+00 0.0000000e+00 
0.0000000e+00 0.0000000e+00 0.0000000e+00 
0.0000000e+00 0.0000000e+00 0.0000000e+00 
0.0000000e+00 0.0000000e+00 0.0000000e+00 
0.0000000e+00 0.0000000e+00 0.0000000e+00 
0.0000000e+00 0.0000000e+00 0.0000000e+00 
0.0000000e+00 0.0000000e+00 0.0000000e+00 
0.0000000e+00 0.0000000e+00 0.0000000e+00 
0.0000000e+00 0.0000000e+00 0.0000000e+00 
0.0000000e+00 0.0000000e+00 0.0000000e+00 
0.0000000e+00 0.0000000e+00 0.0000000e+00 
0.0000000e+00 0.0000000e+00 0.0000000e+00 
0.0000000e+00 0.0000000e+00 0.0000000e+00 
0.0000000e+00 0.0000000e+00 0.0000000e+00 
0.0000000e+00 0.0000000e+00 0.0000000e+00 
0.0000000e+00 0.0000000e+00 0.0000000e+00 
0.0000000e+00 0.0000000e+00 0.0000000e+00 
0.0000000e+00 0.0000000e+00 0.0000000e+00 
0.0000000e+00 0.0000000e+00 0.0000000e+00 
0.0000000e+00 0.0000000e+00 0.0000000e+00 
0.0000000e+00 0.0000000e+00 0.0000000e+00 
0.0000000e+00 0.0000000e+00 0.0000000e+00 
0.0000000e+00 0.0000000e+00 0.0000000e+00 
0.0000000e+00 0.0000000e+00 0.0000000e+00 
0.0000000e+00 0.0000000e+00 0.0000000e+00 
0.0000000e+00 0.0000000e+00 0.0000000e+00 
0.0000000e+00 0.0000000e+00 0.0000000e+00 
0.0000000e+00 0.0000000e+00 0.0000000e+00 
0.0000000e+00 0.0000000e+00 0.0000000e+00 
0.0000000e+00 0.0000000e+00 0.0000000e+00 
0.0000000e+00 0.0000000e+00 0.0000000e+00 
0.0000000e+00 0.0000000e+00 0.0000000e+00 
0.0000000e+00 0.0000000e+00 0.0000000e+00 
0.0000000e+00 0.0000000e+00 0.0000000e+00 
0.0000000e+00 0.0000000e+00 0.0000000e+00 
0.0000000e+00 0.0000000e+00 0.0000000e+00 
0.0000000e+00 0.0000000e+00 0.0000000e+00 
0.0000000e+00 0.0000000e+00 0.0000000e+00 
0.0000000e+00 0.0000000e+00 0.0000000e+00 
0.0000000e+00 0.0000000e+00 0.0000000e+00 
0.0000000e+00 0.0000000e+00 0.0000000e+00 
0.0000000e+00 0.0000000e+00 0.0000000e+00 
0.0000000e+00 0.0000000e+00 0.0000000e+00 
0.0000000e+00 0.0000000e+00 0.0000000e+00 
0.0000000e+00 0.0000000e+00 0.0000000e+00 
0.0000000e+00 0.0000000e+00 0.0000000e+00 
0.0000000e+00 0.0000000e+00 0.0000000e+00 
0.0000000e+00 0.0000000e+00 0.0000000e+00 
0.0000000e+00 0.0000000e+00 0.0000000e+00 
0.0000000e+00 0.0000000e+00 0.0000000e+00 
0.0000000e+00 0.0000000e+00 0.0000000e+00 
0.0000000e+00 0.0000000e+00 0.0000000e+00 
0.0000000e+00 0.0000000e+00 0.0000000e+00 
0.0000000e+00 0.0000000e+00 0.0000000e+00 
0.0000000e+00 0.0000000e+00 0.0000000e+00 
0.0000000e+00 0.0000000e+00 0.0000000e+00 
CELL_DATA 216
FIELD FieldData 0
