# vtk DataFile Version 4.0
vtk output
ASCII
DATASET UNSTRUCTURED_GRID
POINTS 1919 float
0.0000000e+00 0.0000000e+00 0.0000000e+00 
0.0000000e+00 0.0000000e+00 5.0000000e+01 
5.0000000e+00 0.0000000e+00 0.0000000e+00 
5.0000000e+00 0.0000000e+00 5.0000000e+01 
5.0000000e+00 1.0000000e+00 0.0000000e+00 
5.0000000e+00 1.0000000e+00 5.0000000e+01 
0.0000000e+00 1.0000000e+00 0.0000000e+00 
0.0000000e+00 1.0000000e+00 5.0000000e+01 
5.0000000e+00 2.0000000e+00 0.0000000e+00 
5.0000000e+00 2.0000000e+00 5.0000000e+01 
3.0000000e+00 2.0000000e+00 0.0000000e+00 
3.0000000e+00 2.0000000e+00 5.0000000e+01 
0.0000000e+00 2.0000000e+00 0.0000000e+00 
0.0000000e+00 2.0000000e+00 5.0000000e+01 
1.5000000e+00 3.0000000e+00 0.0000000e+00 
1.5000000e+00 3.0000000e+00 5.0000000e+01 
7.5000000e-01 3.0000000e+00 0.0000000e+00 
7.5000000e-01 3.0000000e+00 5.0000000e+01 
0.0000000e+00 3.0000000e+00 0.0000000e+00 
0.0000000e+00 3.0000000e+00 5.0000000e+01 
7.5000000e-01 3.0000000e+00 5.0000000e-01 
7.5000000e-01 3.0000000e+00 1.0000000e+00 
7.5000000e-01 3.0000000e+00 1.5000000e+00 
7.5000000e-01 3.0000000e+00 2.0000000e+00 
7.5000000e-01 3.0000000e+00 2.5000000e+00 
7.5000000e-01 3.0000000e+00 3.0000000e+00 
7.5000000e-01 3.0000000e+00 3.5000000e+00 
7.5000000e-01 3.0000000e+00 4.0000000e+00 
7.5000000e-01 3.0000000e+00 4.5000000e+00 
7.5000000e-01 3.0000000e+00 5.0000000e+00 
7.5000000e-01 3.0000000e+00 5.5000000e+00 
7.5000000e-01 3.0000000e+00 6.0000000e+00 
7.5000000e-01 3.0000000e+00 6.5000000e+00 
7.5000000e-01 3.0000000e+00 7.0000000e+00 
7.5000000e-01 3.0000000e+00 7.5000000e+00 
7.5000000e-01 3.0000000e+00 8.0000000e+00 
7.5000000e-01 3.0000000e+00 8.5000000e+00 
7.5000000e-01 3.0000000e+00 9.0000000e+00 
7.5000000e-01 3.0000000e+00 9.5000000e+00 
7.5000000e-01 3.0000000e+00 1.0000000e+01 
7.5000000e-01 3.0000000e+00 1.0500000e+01 
7.5000000e-01 3.0000000e+00 1.1000000e+01 
7.5000000e-01 3.0000000e+00 1.1500000e+01 
7.5000000e-01 3.0000000e+00 1.2000000e+01 
7.5000000e-01 3.0000000e+00 1.2500000e+01 
7.5000000e-01 3.0000000e+00 1.3000000e+01 
7.5000000e-01 3.0000000e+00 1.3500000e+01 
7.5000000e-01 3.0000000e+00 1.4000000e+01 
7.5000000e-01 3.0000000e+00 1.4500000e+01 
7.5000000e-01 3.0000000e+00 1.5000000e+01 
7.5000000e-01 3.0000000e+00 1.5500000e+01 
7.5000000e-01 3.0000000e+00 1.6000000e+01 
7.5000000e-01 3.0000000e+00 1.6500000e+01 
7.5000000e-01 3.0000000e+00 1.7000000e+01 
7.5000000e-01 3.0000000e+00 1.7500000e+01 
7.5000000e-01 3.0000000e+00 1.8000000e+01 
7.5000000e-01 3.0000000e+00 1.8500000e+01 
7.5000000e-01 3.0000000e+00 1.9000000e+01 
7.5000000e-01 3.0000000e+00 1.9500000e+01 
7.5000000e-01 3.0000000e+00 2.0000000e+01 
7.5000000e-01 3.0000000e+00 2.0500000e+01 
7.5000000e-01 3.0000000e+00 2.1000000e+01 
7.5000000e-01 3.0000000e+00 2.1500000e+01 
7.5000000e-01 3.0000000e+00 2.2000000e+01 
7.5000000e-01 3.0000000e+00 2.2500000e+01 
7.5000000e-01 3.0000000e+00 2.3000000e+01 
7.5000000e-01 3.0000000e+00 2.3500000e+01 
7.5000000e-01 3.0000000e+00 2.4000000e+01 
7.5000000e-01 3.0000000e+00 2.4500000e+01 
7.5000000e-01 3.0000000e+00 2.5000000e+01 
7.5000000e-01 3.0000000e+00 2.5500000e+01 
7.5000000e-01 3.0000000e+00 2.6000000e+01 
7.5000000e-01 3.0000000e+00 2.6500000e+01 
7.5000000e-01 3.0000000e+00 2.7000000e+01 
7.5000000e-01 3.0000000e+00 2.7500000e+01 
7.5000000e-01 3.0000000e+00 2.8000000e+01 
7.5000000e-01 3.0000000e+00 2.8500000e+01 
7.5000000e-01 3.0000000e+00 2.9000000e+01 
7.5000000e-01 3.0000000e+00 2.9500000e+01 
7.5000000e-01 3.0000000e+00 3.0000000e+01 
7.5000000e-01 3.0000000e+00 3.0500000e+01 
7.5000000e-01 3.0000000e+00 3.1000000e+01 
7.5000000e-01 3.0000000e+00 3.1500000e+01 
7.5000000e-01 3.0000000e+00 3.2000000e+01 
7.5000000e-01 3.0000000e+00 3.2500000e+01 
7.5000000e-01 3.0000000e+00 3.3000000e+01 
7.5000000e-01 3.0000000e+00 3.3500000e+01 
7.5000000e-01 3.0000000e+00 3.4000000e+01 
7.5000000e-01 3.0000000e+00 3.4500000e+01 
7.5000000e-01 3.0000000e+00 3.5000000e+01 
7.5000000e-01 3.0000000e+00 3.5500000e+01 
7.5000000e-01 3.0000000e+00 3.6000000e+01 
7.5000000e-01 3.0000000e+00 3.6500000e+01 
7.5000000e-01 3.0000000e+00 3.7000000e+01 
7.5000000e-01 3.0000000e+00 3.7500000e+01 
7.5000000e-01 3.0000000e+00 3.8000000e+01 
7.5000000e-01 3.0000000e+00 3.8500000e+01 
7.5000000e-01 3.0000000e+00 3.9000000e+01 
7.5000000e-01 3.0000000e+00 3.9500000e+01 
7.5000000e-01 3.0000000e+00 4.0000000e+01 
7.5000000e-01 3.0000000e+00 4.0500000e+01 
7.5000000e-01 3.0000000e+00 4.1000000e+01 
7.5000000e-01 3.0000000e+00 4.1500000e+01 
7.5000000e-01 3.0000000e+00 4.2000000e+01 
7.5000000e-01 3.0000000e+00 4.2500000e+01 
7.5000000e-01 3.0000000e+00 4.3000000e+01 
7.5000000e-01 3.0000000e+00 4.3500000e+01 
7.5000000e-01 3.0000000e+00 4.4000000e+01 
7.5000000e-01 3.0000000e+00 4.4500000e+01 
7.5000000e-01 3.0000000e+00 4.5000000e+01 
7.5000000e-01 3.0000000e+00 4.5500000e+01 
7.5000000e-01 3.0000000e+00 4.6000000e+01 
7.5000000e-01 3.0000000e+00 4.6500000e+01 
7.5000000e-01 3.0000000e+00 4.7000000e+01 
7.5000000e-01 3.0000000e+00 4.7500000e+01 
7.5000000e-01 3.0000000e+00 4.8000000e+01 
7.5000000e-01 3.0000000e+00 4.8500000e+01 
7.5000000e-01 3.0000000e+00 4.9000000e+01 
7.5000000e-01 3.0000000e+00 4.9500000e+01 
7.5000000e-01 3.0250001e+00 0.0000000e+00 
7.5000000e-01 3.0250001e+00 5.0000000e-01 
7.5000000e-01 3.0250001e+00 1.0000000e+00 
7.5000000e-01 3.0250001e+00 1.5000000e+00 
7.5000000e-01 3.0250001e+00 2.0000000e+00 
7.5000000e-01 3.0250001e+00 2.5000000e+00 
7.5000000e-01 3.0250001e+00 3.0000000e+00 
7.5000000e-01 3.0250001e+00 3.5000000e+00 
7.5000000e-01 3.0250001e+00 4.0000000e+00 
7.5000000e-01 3.0250001e+00 4.5000000e+00 
7.5000000e-01 3.0250001e+00 5.0000000e+00 
7.5000000e-01 3.0250001e+00 5.5000000e+00 
7.5000000e-01 3.0250001e+00 6.0000000e+00 
7.5000000e-01 3.0250001e+00 6.5000000e+00 
7.5000000e-01 3.0250001e+00 7.0000000e+00 
7.5000000e-01 3.0250001e+00 7.5000000e+00 
7.5000000e-01 3.0250001e+00 8.0000000e+00 
7.5000000e-01 3.0250001e+00 8.5000000e+00 
7.5000000e-01 3.0250001e+00 9.0000000e+00 
7.5000000e-01 3.0250001e+00 9.5000000e+00 
7.5000000e-01 3.0250001e+00 1.0000000e+01 
7.5000000e-01 3.0250001e+00 1.0500000e+01 
7.5000000e-01 3.0250001e+00 1.1000000e+01 
7.5000000e-01 3.0250001e+00 1.1500000e+01 
7.5000000e-01 3.0250001e+00 1.2000000e+01 
7.5000000e-01 3.0250001e+00 1.2500000e+01 
7.5000000e-01 3.0250001e+00 1.3000000e+01 
7.5000000e-01 3.0250001e+00 1.3500000e+01 
7.5000000e-01 3.0250001e+00 1.4000000e+01 
7.5000000e-01 3.0250001e+00 1.4500000e+01 
7.5000000e-01 3.0250001e+00 1.5000000e+01 
7.5000000e-01 3.0250001e+00 1.5500000e+01 
7.5000000e-01 3.0250001e+00 1.6000000e+01 
7.5000000e-01 3.0250001e+00 1.6500000e+01 
7.5000000e-01 3.0250001e+00 1.7000000e+01 
7.5000000e-01 3.0250001e+00 1.7500000e+01 
7.5000000e-01 3.0250001e+00 1.8000000e+01 
7.5000000e-01 3.0250001e+00 1.8500000e+01 
7.5000000e-01 3.0250001e+00 1.9000000e+01 
7.5000000e-01 3.0250001e+00 1.9500000e+01 
7.5000000e-01 3.0250001e+00 2.0000000e+01 
7.5000000e-01 3.0250001e+00 2.0500000e+01 
7.5000000e-01 3.0250001e+00 2.1000000e+01 
7.5000000e-01 3.0250001e+00 2.1500000e+01 
7.5000000e-01 3.0250001e+00 2.2000000e+01 
7.5000000e-01 3.0250001e+00 2.2500000e+01 
7.5000000e-01 3.0250001e+00 2.3000000e+01 
7.5000000e-01 3.0250001e+00 2.3500000e+01 
7.5000000e-01 3.0250001e+00 2.4000000e+01 
7.5000000e-01 3.0250001e+00 2.4500000e+01 
7.5000000e-01 3.0250001e+00 2.5000000e+01 
7.5000000e-01 3.0250001e+00 2.5500000e+01 
7.5000000e-01 3.0250001e+00 2.6000000e+01 
7.5000000e-01 3.0250001e+00 2.6500000e+01 
7.5000000e-01 3.0250001e+00 2.7000000e+01 
7.5000000e-01 3.0250001e+00 2.7500000e+01 
7.5000000e-01 3.0250001e+00 2.8000000e+01 
7.5000000e-01 3.0250001e+00 2.8500000e+01 
7.5000000e-01 3.0250001e+00 2.9000000e+01 
7.5000000e-01 3.0250001e+00 2.9500000e+01 
7.5000000e-01 3.0250001e+00 3.0000000e+01 
7.5000000e-01 3.0250001e+00 3.0500000e+01 
7.5000000e-01 3.0250001e+00 3.1000000e+01 
7.5000000e-01 3.0250001e+00 3.1500000e+01 
7.5000000e-01 3.0250001e+00 3.2000000e+01 
7.5000000e-01 3.0250001e+00 3.2500000e+01 
7.5000000e-01 3.0250001e+00 3.3000000e+01 
7.5000000e-01 3.0250001e+00 3.3500000e+01 
7.5000000e-01 3.0250001e+00 3.4000000e+01 
7.5000000e-01 3.0250001e+00 3.4500000e+01 
7.5000000e-01 3.0250001e+00 3.5000000e+01 
7.5000000e-01 3.0250001e+00 3.5500000e+01 
7.5000000e-01 3.0250001e+00 3.6000000e+01 
7.5000000e-01 3.0250001e+00 3.6500000e+01 
7.5000000e-01 3.0250001e+00 3.7000000e+01 
7.5000000e-01 3.0250001e+00 3.7500000e+01 
7.5000000e-01 3.0250001e+00 3.8000000e+01 
7.5000000e-01 3.0250001e+00 3.8500000e+01 
7.5000000e-01 3.0250001e+00 3.9000000e+01 
7.5000000e-01 3.0250001e+00 3.9500000e+01 
7.5000000e-01 3.0250001e+00 4.0000000e+01 
7.5000000e-01 3.0250001e+00 4.0500000e+01 
7.5000000e-01 3.0250001e+00 4.1000000e+01 
7.5000000e-01 3.0250001e+00 4.1500000e+01 
7.5000000e-01 3.0250001e+00 4.2000000e+01 
7.5000000e-01 3.0250001e+00 4.2500000e+01 
7.5000000e-01 3.0250001e+00 4.3000000e+01 
7.5000000e-01 3.0250001e+00 4.3500000e+01 
7.5000000e-01 3.0250001e+00 4.4000000e+01 
7.5000000e-01 3.0250001e+00 4.4500000e+01 
7.5000000e-01 3.0250001e+00 4.5000000e+01 
7.5000000e-01 3.0250001e+00 4.5500000e+01 
7.5000000e-01 3.0250001e+00 4.6000000e+01 
7.5000000e-01 3.0250001e+00 4.6500000e+01 
7.5000000e-01 3.0250001e+00 4.7000000e+01 
7.5000000e-01 3.0250001e+00 4.7500000e+01 
7.5000000e-01 3.0250001e+00 4.8000000e+01 
7.5000000e-01 3.0250001e+00 4.8500000e+01 
7.5000000e-01 3.0250001e+00 4.9000000e+01 
7.5000000e-01 3.0250001e+00 4.9500000e+01 
7.5000000e-01 3.0250001e+00 5.0000000e+01 
3.0000000e+00 2.0000000e+00 3.6000000e+01 
8.0487806e-01 3.0000000e+00 3.6000000e+01 
0.0000000e+00 0.0000000e+00 1.0000000e+00 
0.0000000e+00 0.0000000e+00 2.0000000e+00 
0.0000000e+00 0.0000000e+00 3.0000000e+00 
0.0000000e+00 0.0000000e+00 4.0000000e+00 
0.0000000e+00 0.0000000e+00 5.0000000e+00 
0.0000000e+00 0.0000000e+00 6.0000000e+00 
0.0000000e+00 0.0000000e+00 7.0000000e+00 
0.0000000e+00 0.0000000e+00 8.0000000e+00 
[...]
POINT_DATA 1919
FIELD FieldData 3
DISPLACEMENT 3 1919  float
0.0000000e+00 0.0000000e+00 0.0000000e+00 
0.0000000e+00 0.0000000e+00 0.0000000e+00 
0.0000000e+00 0.0000000e+00 0.0000000e+00 
0.0000000e+00 0.0000000e+00 0.0000000e+00 
6.2327865e-07 1.4439290e-06 -4.0202565e-07 
3.0940246e-08 -8.3341433e-07 1.0448531e-06 
0.0000000e+00 -3.3433069e-05 0.0000000e+00 
0.0000000e+00 1.0598916e-06 0.0000000e+00 
1.0290635e-07 -2.5122645e-06 -1.7336071e-06 
7.5056857e-07 -1.5746156e-06 3.3629481e-06 
-4.1738203e-06 -5.6419490e-06 -3.1883212e-06 
2.7106469e-06 2.2318522e-07 2.6576138e-06 
0.0000000e+00 -3.7992613e-05 0.0000000e+00 
0.0000000e+00 1.9789993e-06 0.0000000e+00 
-1.6064538e-05 -1.5998065e-05 1.0104576e-05 
1.1850511e-06 -1.9142678e-06 2.4937799e-05 
-1.6936478e-05 -8.2293380e-05 8.3880586e-06 
-1.2582856e-05 3.9574181e-05 9.2448699e-06 
0.0000000e+00 -3.7889582e-05 0.0000000e+00 
0.0000000e+00 1.3982531e-06 0.0000000e+00 
-1.5848585e-05 -6.8884343e-05 -1.1683319e-05 
-8.9043442e-06 -3.8642153e-05 -1.8032073e-05 
7.3847360e-07 -1.1717863e-05 -1.9881350e-05 
2.0409170e-06 5.4036615e-08 -1.2412072e-05 
1.8755225e-06 -3.2994905e-07 -7.5118064e-06 
-5.7203891e-07 2.2805159e-06 1.9427100e-06 
1.1556075e-05 1.6552927e-05 4.4635403e-06 
1.0295617e-05 3.0685667e-05 8.2795477e-06 
5.2648415e-06 2.3173117e-05 1.8845061e-05 
6.7049618e-06 -1.4699085e-05 2.8079296e-05 
-3.5816090e-06 -7.1444825e-05 3.6979465e-05 
-2.3544795e-05 -1.1919730e-04 3.4250239e-05 
-3.4649693e-05 -1.3706092e-04 1.7630435e-05 
-3.4718552e-05 -1.2744263e-04 -2.3271216e-06 
-3.4174933e-05 -1.1063193e-04 -4.2989686e-06 
-2.3126453e-05 -1.0533236e-04 2.4199596e-06 
-2.3995706e-05 -1.0428330e-04 -3.1170002e-05 
-2.4459710e-05 -8.0338883e-05 -3.5451121e-05 
-1.2033714e-05 -1.3934691e-05 -4.6403726e-05 
2.9486737e-06 7.8736368e-05 -4.9894817e-05 
1.1609931e-05 1.2840453e-04 -2.0074911e-05 
1.9152227e-05 1.5892741e-05 8.7294557e-06 
-5.2216719e-06 -3.5155247e-04 7.6594610e-05 
-4.5715533e-05 -9.9813077e-04 3.9949922e-05 
-7.2859017e-05 -1.8999352e-03 1.4198854e-04 
-1.2158483e-04 -2.9362130e-03 4.0736035e-05 
-1.9685064e-04 -3.9093047e-03 1.7793232e-04 
-2.3318687e-04 -4.4223205e-03 7.7025397e-05 
-2.2443145e-04 -4.4591799e-03 7.6964010e-05 
-2.4493609e-04 -4.4651385e-03 6.3410836e-05 
-2.5735595e-04 -4.6941387e-03 8.7869084e-05 
-2.8853788e-04 -4.8861359e-03 -4.3069667e-05 
-2.7094179e-04 -4.5605046e-03 -1.3498185e-04 
-2.0870233e-04 -3.5348367e-03 -1.3322638e-04 
-1.5694353e-04 -2.3382220e-03 -2.6548954e-04 
-9.3962211e-05 -1.3138052e-03 -1.4988793e-04 
-3.1642798e-05 -5.8049068e-04 -1.6364353e-04 
-1.3825190e-05 -1.1885980e-04 -7.2486997e-05 
-2.7236586e-06 1.2495648e-04 -4.3662181e-05 
-9.3410345e-06 2.1796938e-04 -3.1610118e-06 
-9.1291777e-06 2.2620839e-04 9.8747378e-06 
6.7723226e-06 2.0357406e-04 5.0117346e-06 
2.9298857e-05 1.7986030e-04 2.1306872e-05 
2.6857311e-05 1.5904714e-04 3.7394708e-05 
3.9166414e-05 1.3803637e-04 5.1645537e-05 
2.2238870e-05 1.1966471e-04 5.7610261e-05 
1.8303095e-05 1.0658576e-04 5.3099931e-05 
2.4707422e-06 9.6036623e-05 4.3025892e-05 
-1.0173858e-05 7.2304996e-05 5.0772236e-05 
-2.2506700e-05 2.0060068e-05 5.5086763e-05 
-3.3385688e-05 -5.8612848e-05 6.4920721e-05 
-4.3297154e-05 -1.3983260e-04 5.5870711e-05 
-4.2132233e-05 -1.8919117e-04 3.5787190e-05 
-2.2407678e-05 -1.8299319e-04 1.6213291e-05 
2.0140626e-06 -1.3203300e-04 -7.7794454e-07 
1.6666575e-06 -7.4093747e-05 -1.7736709e-06 
-1.1344488e-05 -3.6045261e-05 -1.3940547e-06 
-1.4558303e-05 -1.9368683e-05 1.3785800e-05 
-2.7857252e-05 -9.0465488e-07 -1.8779211e-06 
-2.0894116e-05 2.4259256e-05 -1.1274429e-05 
-3.3940549e-05 1.1761223e-05 8.3351260e-06 
-4.0671759e-05 -1.3827688e-04 -8.4145868e-06 
-5.9915084e-05 -5.4734369e-04 6.1786581e-05 
-1.0385674e-04 -1.3019512e-03 2.4499972e-05 
-1.5444488e-04 -2.3861979e-03 1.2770892e-04 
-2.4826184e-04 -3.5862529e-03 -4.1024092e-07 
-2.9022869e-04 -4.5531220e-03 1.0013446e-04 
-3.2184340e-04 -4.8303115e-03 -4.9418472e-06 
-3.1869544e-04 -4.7632372e-03 -1.0149125e-04 
-5.7538608e-05 -4.8039779e-03 7.3844444e-06 
-1.9813198e-04 -4.9911458e-03 5.6312398e-05 
-2.0496463e-04 -5.0131162e-03 -7.7690122e-05 
-2.0977367e-04 -4.3736901e-03 -1.6996475e-04 
-8.7149587e-05 -3.2135551e-03 -1.1500429e-04 
-1.4614906e-04 -2.0688737e-03 -2.2816171e-04 
-7.7330631e-05 -1.1441570e-03 -9.4066294e-05 
-2.0704763e-05 -5.0813780e-04 -9.1590708e-05 
4.9482713e-07 -1.2947909e-04 -5.4845195e-06 
5.8763999e-06 5.4997283e-05 7.8913918e-06 
3.8245798e-06 1.2319691e-04 2.1655076e-05 
-7.2204871e-06 1.4145787e-04 1.2044930e-05 
-3.6580457e-06 1.4164396e-04 4.5840584e-06 
8.9164550e-06 1.3537778e-04 3.7749085e-06 
9.0102094e-06 1.2330177e-04 -3.0118301e-06 
3.8848957e-06 1.0476503e-04 -1.0424669e-05 
-1.9182769e-06 8.1974365e-05 -2.2718787e-05 
-1.1430372e-05 5.7526500e-05 -3.4892022e-05 
-1.3166960e-05 3.2117750e-05 -3.7696980e-05 
-2.1649166e-06 5.2474361e-06 -1.2812915e-05 
-3.6009910e-06 -2.2594091e-05 -1.3913888e-06 
-9.9924200e-06 -4.7036396e-05 5.3541439e-06 
-7.1660843e-06 -6.1240105e-05 -3.2819607e-06 
-5.2700811e-06 -6.0326689e-05 -1.5722882e-05 
1.8350615e-06 -4.6117166e-05 -1.9777059e-05 
1.2872913e-05 -2.3371662e-05 -1.6109478e-05 
1.1525599e-05 5.3609114e-07 2.3707118e-08 
9.8070886e-06 1.9421635e-05 1.5034604e-05 
6.9564835e-06 3.1654603e-05 2.4045712e-05 
3.6201831e-07 3.7754387e-05 2.1537098e-05 
0.0000000e+00 -8.1744518e-05 0.0000000e+00 
0.0000000e+00 -6.8497444e-05 0.0000000e+00 
0.0000000e+00 -3.9023111e-05 0.0000000e+00 
0.0000000e+00 -1.2460007e-05 0.0000000e+00 
0.0000000e+00 -5.7743443e-07 0.0000000e+00 
0.0000000e+00 -6.9918620e-08 0.0000000e+00 
0.0000000e+00 3.2751523e-06 0.0000000e+00 
0.0000000e+00 1.7103610e-05 0.0000000e+00 
0.0000000e+00 3.0177103e-05 0.0000000e+00 
0.0000000e+00 2.2242011e-05 0.0000000e+00 
0.0000000e+00 -1.5596914e-05 0.0000000e+00 
0.0000000e+00 -7.1432827e-05 0.0000000e+00 
0.0000000e+00 -1.1828161e-04 0.0000000e+00 
0.0000000e+00 -1.3599874e-04 0.0000000e+00 
0.0000000e+00 -1.2715552e-04 0.0000000e+00 
0.0000000e+00 -1.1171935e-04 0.0000000e+00 
0.0000000e+00 -1.0644380e-04 0.0000000e+00 
0.0000000e+00 -1.0435982e-04 0.0000000e+00 
0.0000000e+00 -7.9044257e-05 0.0000000e+00 
0.0000000e+00 -1.1362506e-05 0.0000000e+00 
0.0000000e+00 8.1769620e-05 0.0000000e+00 
0.0000000e+00 1.2827624e-04 0.0000000e+00 
0.0000000e+00 1.3254225e-05 0.0000000e+00 
0.0000000e+00 -3.5501772e-04 0.0000000e+00 
0.0000000e+00 -1.0044726e-03 0.0000000e+00 
0.0000000e+00 -1.9048583e-03 0.0000000e+00 
0.0000000e+00 -2.9534805e-03 0.0000000e+00 
0.0000000e+00 -3.9315424e-03 0.0000000e+00 
0.0000000e+00 -4.4545969e-03 0.0000000e+00 
0.0000000e+00 -4.4825245e-03 0.0000000e+00 
0.0000000e+00 -4.4916095e-03 0.0000000e+00 
0.0000000e+00 -4.7140070e-03 0.0000000e+00 
0.0000000e+00 -4.9143825e-03 0.0000000e+00 
0.0000000e+00 -4.5832777e-03 0.0000000e+00 
0.0000000e+00 -3.5566660e-03 0.0000000e+00 
0.0000000e+00 -2.3490074e-03 0.0000000e+00 
0.0000000e+00 -1.3197624e-03 0.0000000e+00 
0.0000000e+00 -5.8200129e-04 0.0000000e+00 
0.0000000e+00 -1.1960784e-04 0.0000000e+00 
0.0000000e+00 1.2495412e-04 0.0000000e+00 
0.0000000e+00 2.1880040e-04 0.0000000e+00 
0.0000000e+00 2.2768702e-04 0.0000000e+00 
0.0000000e+00 2.0497647e-04 0.0000000e+00 
0.0000000e+00 1.8013838e-04 0.0000000e+00 
0.0000000e+00 1.5859088e-04 0.0000000e+00 
0.0000000e+00 1.3785862e-04 0.0000000e+00 
0.0000000e+00 1.1983397e-04 0.0000000e+00 
0.0000000e+00 1.0718495e-04 0.0000000e+00 
0.0000000e+00 9.6023046e-05 0.0000000e+00 
0.0000000e+00 7.1615781e-05 0.0000000e+00 
0.0000000e+00 1.9214689e-05 0.0000000e+00 
0.0000000e+00 -5.9275833e-05 0.0000000e+00 
0.0000000e+00 -1.3974417e-04 0.0000000e+00 
0.0000000e+00 -1.8781495e-04 0.0000000e+00 
0.0000000e+00 -1.8149818e-04 0.0000000e+00 
0.0000000e+00 -1.3197980e-04 0.0000000e+00 
0.0000000e+00 -7.5008727e-05 0.0000000e+00 
0.0000000e+00 -3.7529917e-05 0.0000000e+00 
0.0000000e+00 -1.9087274e-05 0.0000000e+00 
0.0000000e+00 1.0744517e-06 0.0000000e+00 
0.0000000e+00 2.7179754e-05 0.0000000e+00 
0.0000000e+00 1.3707187e-05 0.0000000e+00 
0.0000000e+00 -1.3895056e-04 0.0000000e+00 
0.0000000e+00 -5.5230956e-04 0.0000000e+00 
0.0000000e+00 -1.3126893e-03 0.0000000e+00 
0.0000000e+00 -2.3954289e-03 0.0000000e+00 
0.0000000e+00 -3.6063860e-03 0.0000000e+00 
0.0000000e+00 -4.5722532e-03 0.0000000e+00 
0.0000000e+00 -4.8637162e-03 0.0000000e+00 
0.0000000e+00 -4.7911368e-03 0.0000000e+00 
0.0000000e+00 -4.8224335e-03 0.0000000e+00 
0.0000000e+00 -5.0165495e-03 0.0000000e+00 
0.0000000e+00 -5.0442717e-03 0.0000000e+00 
0.0000000e+00 -4.3950407e-03 0.0000000e+00 
0.0000000e+00 -3.2359418e-03 0.0000000e+00 
0.0000000e+00 -2.0753415e-03 0.0000000e+00 
0.0000000e+00 -1.1488718e-03 0.0000000e+00 
0.0000000e+00 -5.0990918e-04 0.0000000e+00 
0.0000000e+00 -1.2977209e-04 0.0000000e+00 
0.0000000e+00 5.6042289e-05 0.0000000e+00 
0.0000000e+00 1.2506524e-04 0.0000000e+00 
0.0000000e+00 1.4241955e-04 0.0000000e+00 
0.0000000e+00 1.4210280e-04 0.0000000e+00 
0.0000000e+00 1.3541755e-04 0.0000000e+00 
0.0000000e+00 1.2318810e-04 0.0000000e+00 
0.0000000e+00 1.0482519e-04 0.0000000e+00 
0.0000000e+00 8.2112165e-05 0.0000000e+00 
0.0000000e+00 5.7542751e-05 0.0000000e+00 
0.0000000e+00 3.2019005e-05 0.0000000e+00 
0.0000000e+00 5.0627173e-06 0.0000000e+00 
0.0000000e+00 -2.2680735e-05 0.0000000e+00 
0.0000000e+00 -4.6919813e-05 0.0000000e+00 
0.0000000e+00 -6.0921237e-05 0.0000000e+00 
0.0000000e+00 -6.0201277e-05 0.0000000e+00 
0.0000000e+00 -4.5998873e-05 0.0000000e+00 
0.0000000e+00 -2.3431250e-05 0.0000000e+00 
0.0000000e+00 2.7966320e-07 0.0000000e+00 
0.0000000e+00 1.9276404e-05 0.0000000e+00 
0.0000000e+00 3.1588763e-05 0.0000000e+00 
0.0000000e+00 3.7841230e-05 0.0000000e+00 
0.0000000e+00 3.9657629e-05 0.0000000e+00 
5.8253288e-05 -8.1071033e-05 -2.1447812e-08 
-2.2905630e-04 -4.5335684e-03 -7.7978359e-05 
0.0000000e+00 0.0000000e+00 0.0000000e+00 
0.0000000e+00 0.0000000e+00 0.0000000e+00 
0.0000000e+00 0.0000000e+00 0.0000000e+00 
0.0000000e+00 0.0000000e+00 0.0000000e+00 
0.0000000e+00 0.0000000e+00 0.0000000e+00 
0.0000000e+00 0.0000000e+00 0.0000000e+00 
0.0000000e+00 0.0000000e+00 0.0000000e+00 
0.0000000e+00 0.0000000e+00 0.0000000e+00 
0.0000000e+00 0.0000000e+00 0.0000000e+00 
0.0000000e+00 0.0000000e+00 0.0000000e+00 
0.0000000e+00 0.0000000e+00 0.0000000e+00 
0.0000000e+00 0.0000000e+00 0.0000000e+00 
0.0000000e+00 0.0000000e+00 0.0000000e+00 
0.0000000e+00 0.0000000e+00 0.0000000e+00 
0.0000000e+00 0.0000000e+00 0.0000000e+00 
0.0000000e+00 0.0000000e+00 0.0000000e+00 
0.0000000e+00 0.0000000e+00 0.0000000e+00 
0.0000000e+00 0.0000000e+00 0.0000000e+00 
0.0000000e+00 0.0000000e+00 0.0000000e+00 
0.0000000e+00 0.0000000e+00 0.0000000e+00 
0.0000000e+00 0.0000000e+00 0.0000000e+00 
0.0000000e+00 0.0000000e+00 0.0000000e+00 
0.0000000e+00 0.0000000e+00 0.0000000e+00 
0.0000000e+00 0.0000000e+00 0.0000000e+00 
0.0000000e+00 0.0000000e+00 0.0000000e+00 
0.0000000e+00 0.0000000e+00 0.0000000e+00 
0.0000000e+00 0.0000000e+00 0.0000000e+00 
0.0000000e+00 0.0000000e+00 0.0000000e+00 
0.0000000e+00 0.0000000e+00 0.0000000e+00 
0.0000000e+00 0.0000000e+00 0.0000000e+00 
0.0000000e+00 0.0000000e+00 0.0000000e+00 
0.0000000e+00 0.0000000e+00 0.0000000e+00 
0.0000000e+00 0.0000000e+00 0.0000000e+00 
0.0000000e+00 0.0000000e+00 0.0000000e+00 
0.0000000e+00 0.0000000e+00 0.0000000e+00 
0.0000000e+00 0.0000000e+00 0.0000000e+00 
0.0000000e+00 0.0000000e+00 0.0000000e+00 
0.0000000e+00 0.0000000e+00 0.0000000e+00 
0.0000000e+00 0.0000000e+00 0.0000000e+00 
0.0000000e+00 0.0000000e+00 0.0000000e+00 
0.0000000e+00 0.0000000e+00 0.0000000e+00 
0.0000000e+00 0.0000000e+00 0.0000000e+00 
0.0000000e+00 0.0000000e+00 0.0000000e+00 
0.0000000e+00 0.0000000e+00 0.0000000e+00 
0.0000000e+00 0.0000000e+00 0.0000000e+00 
0.0000000e+00 0.0000000e+00 0.0000000e+00 
0.0000000e+00 0.0000000e+00 0.0000000e+00 
0.0000000e+00 0.0000000e+00 0.0000000e+00 
0.0000000e+00 0.0000000e+00 0.0000000e+00 
0.0000000e+00 0.0000000e+00 0.0000000e+00 
0.0000000e+00 0.0000000e+00 0.0000000e+00 
0.0000000e+00 0.0000000e+00 0.0000000e+00 
0.0000000e+00 0.0000000e+00 0.0000000e+00 
0.0000000e+00 0.0000000e+00 0.0000000e+00 
0.0000000e+00 0.0000000e+00 0.0000000e+00 
0.0000000e+00 0.0000000e+00 0.0000000e+00 
0.0000000e+00 0.0000000e+00 0.0000000e+00 
0.0000000e+00 0.0000000e+00 0.0000000e+00 
0.0000000e+00 0.0000000e+00 0.0000000e+00 
0.0000000e+00 0.0000000e+00 0.0000000e+00 
0.0000000e+00 0.0000000e+00 0.0000000e+00 
0.0000000e+00 0.0000000e+00 0.0000000e+00 
0.0000000e+00 0.0000000e+00 0.0000000e+00 
0.0000000e+00 0.0000000e+00 0.0000000e+00 
0.0000000e+00 0.0000000e+00 0.0000000e+00 
0.0000000e+00 0.0000000e+00 0.0000000e+00 
0.0000000e+00 0.0000000e+00 0.0000000e+00 
0.0000000e+00 0.0000000e+00 0.0000000e+00 
0.0000000e+00 0.0000000e+00 0.0000000e+00 
0.0000000e+00 0.0000000e+00 0.0000000e+00 
0.0000000e+00 0.0000000e+00 0.0000000e+00 
0.0000000e+00 0.0000000e+00 0.0000000e+00 
0.0000000e+00 0.0000000e+00 0.0000000e+00 
0.0000000e+00 0.0000000e+00 0.0000000e+00 
0.0000000e+00 0.0000000e+00 0.0000000e+00 
0.0000000e+00 0.0000000e+00 0.0000000e+00 
0.0000000e+00 0.0000000e+00 0.0000000e+00 
0.0000000e+00 0.0000000e+00 0.0000000e+00 
0.0000000e+00 0.0000000e+00 0.0000000e+00 
0.0000000e+00 0.0000000e+00 0.0000000e+00 
0.0000000e+00 0.0000000e+00 0.0000000e+00 
0.0000000e+00 0.0000000e+00 0.0000000e+00 
0.0000000e+00 0.0000000e+00 0.0000000e+00 
0.0000000e+00 0.0000000e+00 0.0000000e+00 
0.0000000e+00 0.0000000e+00 0.0000000e+00 
0.0000000e+00 0.0000000e+00 0.0000000e+00 
0.0000000e+00 0.0000000e+00 0.0000000e+00 
0.0000000e+00 0.0000000e+00 0.0000000e+00 
0.0000000e+00 0.0000000e+00 0.0000000e+00 
0.0000000e+00 0.0000000e+00 0.0000000e+00 
0.0000000e+00 0.0000000e+00 0.0000000e+00 
0.0000000e+00 0.0000000e+00 0.0000000e+00 
0.0000000e+00 0.0000000e+00 0.0000000e+00 
0.0000000e+00 0.0000000e+00 0.0000000e+00 
0.0000000e+00 0.0000000e+00 0.0000000e+00 
0.0000000e+00 0.0000000e+00 0.0000000e+00 
0.0000000e+00 0.0000000e+00 0.0000000e+00 
0.0000000e+00 0.0000000e+00 0.0000000e+00 
0.0000000e+00 0.0000000e+00 0.0000000e+00 
0.0000000e+00 0.0000000e+00 0.0000000e+00 
0.0000000e+00 0.0000000e+00 0.0000000e+00 
0.0000000e+00 0.0000000e+00 0.0000000e+00 
0.0000000e+00 0.0000000e+00 0.0000000e+00 
0.0000000e+00 0.0000000e+00 0.0000000e+00 
0.0000000e+00 0.0000000e+00 0.0000000e+00 
0.0000000e+00 0.0000000e+00 0.0000000e+00 
1.3766810e-06 -2.0509274e-06 -4.7043432e-06 
3.1540997e-06 -1.1413006e-06 -3.5555295e-06 
8.9530033e-08 -9.2266401e-07 9.9758026e-08 
-2.7668575e-06 -6.4106132e-07 -3.5535825e-06 
3.1065019e-06 -6.0545949e-06 -2.2082997e-06 
4.2579627e-06 3.1878326e-06 -1.5616085e-06 
7.4758277e-06 -2.3107100e-06 -2.5787199e-06 
7.1634604e-06 -7.4736604e-06 -9.9917906e-07 
6.6499233e-06 -2.0286770e-06 -7.7103432e-06 
1.5253289e-05 -2.0187842e-06 -8.8654597e-06 
1.5705258e-05 -6.2877261e-06 -9.0202648e-06 
2.5367250e-05 -8.8162433e-06 -1.0410529e-05 
3.1830878e-05 -8.1567014e-06 -1.1047829e-05 
3.8954309e-05 -1.3469937e-05 -6.5164550e-06 
4.7073696e-05 -1.4502613e-05 1.7636029e-06 
4.5182314e-05 -1.4740625e-05 8.8038896e-06 
3.5630845e-05 -1.0261751e-05 1.7505130e-05 
2.5617283e-05 -8.2617380e-06 2.2327893e-05 
1.5537013e-05 -6.3262742e-06 1.9100020e-05 
3.7008288e-06 -2.1855209e-08 1.6797792e-05 
-6.5625403e-07 -2.9531905e-06 8.0704003e-06 
6.9750818e-08 -6.1634591e-06 -1.7669620e-06 
9.4231154e-07 -2.4790838e-06 -3.1920831e-06 
3.9678403e-06 -2.3098271e-06 -7.3630058e-06 
7.1124482e-06 -1.4379766e-06 -9.9456292e-06 
6.6920365e-06 1.8350732e-07 -3.1029417e-06 
1.0907653e-05 -3.7602963e-06 -5.2590390e-06 
8.2617271e-06 -3.1380691e-07 -5.9819768e-06 
6.0558427e-06 -3.4991613e-06 -1.0685731e-05 
1.2157522e-05 1.2311414e-06 -1.3507525e-05 
1.6051694e-05 -6.2715508e-06 -1.6176244e-05 
2.8119044e-05 -1.1815244e-05 -1.5290621e-05 
3.5861944e-05 -1.1898690e-05 -1.4275503e-05 
4.1099527e-05 -1.2870441e-05 -5.5715827e-06 
4.5642711e-05 -1.9075775e-05 8.0314186e-07 
4.5711789e-05 -1.4440363e-05 8.8591787e-06 
3.6810099e-05 -8.8795969e-06 1.7976834e-05 
2.9290955e-05 -8.1862472e-06 2.1876132e-05 
1.8043156e-05 -6.3204811e-06 2.0798212e-05 
6.0046050e-06 -3.9655433e-06 1.5810892e-05 
2.3051289e-06 -2.5512743e-06 8.4892072e-06 
-7.1972785e-08 -1.2082039e-06 2.6556470e-06 
-8.8344365e-07 -5.2038128e-08 -1.2854480e-06 
-9.8307817e-07 1.3632355e-06 -2.2301963e-06 
-8.6044270e-07 1.9698696e-06 -2.3881789e-06 
-4.7381846e-07 3.0440501e-07 -2.4179424e-06 
-4.5686133e-07 -7.4932080e-07 -1.7587362e-06 
-3.8595954e-07 3.7582002e-08 -1.0305170e-06 
-6.3304952e-08 9.0472798e-07 -3.6396870e-07 
0.0000000e+00 3.8073435e-06 0.0000000e+00 
0.0000000e+00 1.2828646e-05 0.0000000e+00 
0.0000000e+00 1.9996529e-05 0.0000000e+00 
0.0000000e+00 3.0730720e-05 0.0000000e+00 
0.0000000e+00 1.4224861e-05 0.0000000e+00 
0.0000000e+00 -1.1027299e-05 0.0000000e+00 
0.0000000e+00 -1.0687155e-05 0.0000000e+00 
0.0000000e+00 -3.3311167e-05 0.0000000e+00 
0.0000000e+00 -6.3275824e-05 0.0000000e+00 
0.0000000e+00 -3.0054165e-05 0.0000000e+00 
0.0000000e+00 -8.2606122e-05 0.0000000e+00 
0.0000000e+00 -1.9594829e-04 0.0000000e+00 
0.0000000e+00 -3.3757873e-04 0.0000000e+00 
0.0000000e+00 -4.4732000e-04 0.0000000e+00 
0.0000000e+00 -5.2437140e-04 0.0000000e+00 
0.0000000e+00 -5.1299756e-04 0.0000000e+00 
0.0000000e+00 -3.8090456e-04 0.0000000e+00 
0.0000000e+00 -1.9189683e-04 0.0000000e+00 
0.0000000e+00 -1.0763638e-05 0.0000000e+00 
0.0000000e+00 9.0725523e-05 0.0000000e+00 
0.0000000e+00 1.2105297e-04 0.0000000e+00 
0.0000000e+00 1.2281803e-04 0.0000000e+00 
0.0000000e+00 1.1921152e-04 0.0000000e+00 
0.0000000e+00 1.0675172e-04 0.0000000e+00 
0.0000000e+00 4.0107065e-05 0.0000000e+00 
0.0000000e+00 2.7433612e-06 0.0000000e+00 
0.0000000e+00 -3.3677155e-05 0.0000000e+00 
0.0000000e+00 -4.7106358e-05 0.0000000e+00 
0.0000000e+00 -8.0685029e-05 0.0000000e+00 
0.0000000e+00 -6.7749577e-05 0.0000000e+00 
0.0000000e+00 -5.0482988e-05 0.0000000e+00 
0.0000000e+00 -2.3416322e-04 0.0000000e+00 
0.0000000e+00 -3.4339490e-04 0.0000000e+00 
0.0000000e+00 -5.1919895e-04 0.0000000e+00 
0.0000000e+00 -5.4887717e-04 0.0000000e+00 
0.0000000e+00 -5.1988126e-04 0.0000000e+00 
0.0000000e+00 -3.8781017e-04 0.0000000e+00 
0.0000000e+00 -1.9481138e-04 0.0000000e+00 
0.0000000e+00 -5.7439065e-05 0.0000000e+00 
0.0000000e+00 -2.1629137e-05 0.0000000e+00 
0.0000000e+00 1.4587769e-05 0.0000000e+00 
0.0000000e+00 3.2457156e-05 0.0000000e+00 
0.0000000e+00 2.4919194e-05 0.0000000e+00 
0.0000000e+00 1.2676501e-05 0.0000000e+00 
0.0000000e+00 -3.3884528e-06 0.0000000e+00 
0.0000000e+00 -2.0356723e-05 0.0000000e+00 
0.0000000e+00 -1.5286007e-05 0.0000000e+00 
0.0000000e+00 2.8638783e-06 0.0000000e+00 
0.0000000e+00 1.0044139e-05 0.0000000e+00 
1.0802025e-06 -2.6250525e-06 -2.8515813e-06 
4.1814210e-06 -4.4525495e-06 -5.9426134e-06 
4.5358024e-06 -1.0767077e-05 -4.8700244e-06 
1.5415436e-06 -1.8402619e-05 -5.1263369e-06 
2.0417731e-07 -1.8686067e-07 -1.3262004e-07 
4.8778685e-07 1.1422322e-06 -1.0814938e-06 
3.0702262e-07 2.2841373e-06 -1.6043643e-06 
2.3441467e-07 1.5117532e-06 -1.1313092e-06 
-1.7699972e-06 2.8871949e-07 -2.9080559e-06 
-8.5766224e-08 -2.3730101e-06 2.9917476e-07 
-1.7086968e-06 -4.0249979e-06 9.0669971e-08 
-1.9068550e-07 2.6275060e-07 -3.7578941e-06 
4.4135243e-07 -6.5496793e-06 -6.4882744e-07 
-3.2783555e-06 9.3224544e-06 -5.6101085e-06 
-2.0314676e-06 -3.8887670e-06 -1.5792228e-06 
3.1079833e-06 -7.7544782e-06 -2.3378673e-06 
5.3191698e-06 4.5307279e-06 -4.0698255e-06 
8.7400340e-06 -4.7869539e-06 -1.4926164e-05 
1.9111434e-05 -8.8020715e-07 -1.7510869e-05 
3.1455111e-05 -1.2164961e-06 -1.2680151e-05 
3.2582939e-05 -9.2017517e-06 -8.2084780e-06 
4.1105617e-05 -9.4457691e-06 -2.2320346e-06 
4.7556827e-05 -1.2584881e-05 7.2383627e-06 
3.8009141e-05 -1.5504391e-05 1.0962596e-05 
3.1638505e-05 -1.1858426e-05 1.4204072e-05 
2.8936640e-05 -3.3145895e-06 1.9244175e-05 
2.0105666e-05 -3.7413638e-06 2.1967337e-05 