# vtk DataFile Version 4.0
vtk output
ASCII
DATASET UNSTRUCTURED_GRID
POINTS 1919 float
0.0000000e+00 0.0000000e+00 0.0000000e+00 
0.0000000e+00 0.0000000e+00 5.0000000e+01 
5.0000000e+00 0.0000000e+00 0.0000000e+00 
5.0000000e+00 0.0000000e+00 5.0000000e+01 
5.0000000e+00 1.0000000e+00 0.0000000e+00 
5.0000000e+00 1.0000000e+00 5.0000000e+01 
0.0000000e+00 1.0000000e+00 0.0000000e+00 
0.0000000e+00 1.0000000e+00 5.0000000e+01 
5.0000000e+00 2.0000000e+00 0.0000000e+00 
5.0000000e+00 2.0000000e+00 5.0000000e+01 
3.0000000e+00 2.0000000e+00 0.0000000e+00 
3.0000000e+00 2.0000000e+00 5.0000000e+01 
0.0000000e+00 2.0000000e+00 0.0000000e+00 
0.0000000e+00 2.0000000e+00 5.0000000e+01 
1.5000000e+00 3.0000000e+00 0.0000000e+00 
1.5000000e+00 3.0000000e+00 5.0000000e+01 
7.5000000e-01 3.0000000e+00 0.0000000e+00 
7.5000000e-01 3.0000000e+00 5.0000000e+01 
0.0000000e+00 3.0000000e+00 0.0000000e+00 
0.0000000e+00 3.0000000e+00 5.0000000e+01 
7.5000000e-01 3.0000000e+00 5.0000000e-01 
7.5000000e-01 3.0000000e+00 1.0000000e+00 
7.5000000e-01 3.0000000e+00 1.5000000e+00 
7.5000000e-01 3.0000000e+00 2.0000000e+00 
7.5000000e-01 3.0000000e+00 2.5000000e+00 
7.5000000e-01 3.0000000e+00 3.0000000e+00 
7.5000000e-01 3.0000000e+00 3.5000000e+00 
7.5000000e-01 3.0000000e+00 4.0000000e+00 
7.5000000e-01 3.0000000e+00 4.5000000e+00 
7.5000000e-01 3.0000000e+00 5.0000000e+00 
7.5000000e-01 3.0000000e+00 5.5000000e+00 
7.5000000e-01 3.0000000e+00 6.0000000e+00 
7.5000000e-01 3.0000000e+00 6.5000000e+00 
7.5000000e-01 3.0000000e+00 7.0000000e+00 
7.5000000e-01 3.0000000e+00 7.5000000e+00 
7.5000000e-01 3.0000000e+00 8.0000000e+00 
7.5000000e-01 3.0000000e+00 8.5000000e+00 
7.5000000e-01 3.0000000e+00 9.0000000e+00 
7.5000000e-01 3.0000000e+00 9.5000000e+00 
7.5000000e-01 3.0000000e+00 1.0000000e+01 
7.5000000e-01 3.0000000e+00 1.0500000e+01 
7.5000000e-01 3.0000000e+00 1.1000000e+01 
7.5000000e-01 3.0000000e+00 1.1500000e+01 
7.5000000e-01 3.0000000e+00 1.2000000e+01 
7.5000000e-01 3.0000000e+00 1.2500000e+01 
7.5000000e-01 3.0000000e+00 1.3000000e+01 
7.5000000e-01 3.0000000e+00 1.3500000e+01 
7.5000000e-01 3.0000000e+00 1.4000000e+01 
7.5000000e-01 3.0000000e+00 1.4500000e+01 
7.5000000e-01 3.0000000e+00 1.5000000e+01 
7.5000000e-01 3.0000000e+00 1.5500000e+01 
7.5000000e-01 3.0000000e+00 1.6000000e+01 
7.5000000e-01 3.0000000e+00 1.6500000e+01 
7.5000000e-01 3.0000000e+00 1.7000000e+01 
7.5000000e-01 3.0000000e+00 1.7500000e+01 
7.5000000e-01 3.0000000e+00 1.8000000e+01 
7.5000000e-01 3.0000000e+00 1.8500000e+01 
7.5000000e-01 3.0000000e+00 1.9000000e+01 
7.5000000e-01 3.0000000e+00 1.9500000e+01 
7.5000000e-01 3.0000000e+00 2.0000000e+01 
7.5000000e-01 3.0000000e+00 2.0500000e+01 
7.5000000e-01 3.0000000e+00 2.1000000e+01 
7.5000000e-01 3.0000000e+00 2.1500000e+01 
7.5000000e-01 3.0000000e+00 2.2000000e+01 
7.5000000e-01 3.0000000e+00 2.2500000e+01 
7.5000000e-01 3.0000000e+00 2.3000000e+01 
7.5000000e-01 3.0000000e+00 2.3500000e+01 
7.5000000e-01 3.0000000e+00 2.4000000e+01 
7.5000000e-01 3.0000000e+00 2.4500000e+01 
7.5000000e-01 3.0000000e+00 2.5000000e+01 
7.5000000e-01 3.0000000e+00 2.5500000e+01 
7.5000000e-01 3.0000000e+00 2.6000000e+01 
7.5000000e-01 3.0000000e+00 2.6500000e+01 
7.5000000e-01 3.0000000e+00 2.7000000e+01 
7.5000000e-01 3.0000000e+00 2.7500000e+01 
7.5000000e-01 3.0000000e+00 2.8000000e+01 
7.5000000e-01 3.0000000e+00 2.8500000e+01 
7.5000000e-01 3.0000000e+00 2.9000000e+01 
7.5000000e-01 3.0000000e+00 2.9500000e+01 
7.5000000e-01 3.0000000e+00 3.0000000e+01 
7.5000000e-01 3.0000000e+00 3.0500000e+01 
7.5000000e-01 3.0000000e+00 3.1000000e+01 
7.5000000e-01 3.0000000e+00 3.1500000e+01 
7.5000000e-01 3.0000000e+00 3.2000000e+01 
7.5000000e-01 3.0000000e+00 3.2500000e+01 
7.5000000e-01 3.0000000e+00 3.3000000e+01 
7.5000000e-01 3.0000000e+00 3.3500000e+01 
7.5000000e-01 3.0000000e+00 3.4000000e+01 
7.5000000e-01 3.0000000e+00 3.4500000e+01 
7.5000000e-01 3.0000000e+00 3.5000000e+01 
7.5000000e-01 3.0000000e+00 3.5500000e+01 
7.5000000e-01 3.0000000e+00 3.6000000e+01 
7.5000000e-01 3.0000000e+00 3.6500000e+01 
7.5000000e-01 3.0000000e+00 3.7000000e+01 
7.5000000e-01 3.0000000e+00 3.7500000e+01 
7.5000000e-01 3.0000000e+00 3.8000000e+01 
7.5000000e-01 3.0000000e+00 3.8500000e+01 
7.5000000e-01 3.0000000e+00 3.9000000e+01 
7.5000000e-01 3.0000000e+00 3.9500000e+01 
7.5000000e-01 3.0000000e+00 4.0000000e+01 
7.5000000e-01 3.0000000e+00 4.0500000e+01 
7.5000000e-01 3.0000000e+00 4.1000000e+01 
7.5000000e-01 3.0000000e+00 4.1500000e+01 
7.5000000e-01 3.0000000e+00 4.2000000e+01 
7.5000000e-01 3.0000000e+00 4.2500000e+01 
7.5000000e-01 3.0000000e+00 4.3000000e+01 
7.5000000e-01 3.0000000e+00 4.3500000e+01 
7.5000000e-01 3.0000000e+00 4.4000000e+01 
7.5000000e-01 3.0000000e+00 4.4500000e+01 
7.5000000e-01 3.0000000e+00 4.5000000e+01 
7.5000000e-01 3.0000000e+00 4.5500000e+01 
7.5000000e-01 3.0000000e+00 4.6000000e+01 
7.5000000e-01 3.0000000e+00 4.6500000e+01 
7.5000000e-01 3.0000000e+00 4.7000000e+01 
7.5000000e-01 3.0000000e+00 4.7500000e+01 
7.5000000e-01 3.0000000e+00 4.8000000e+01 
7.5000000e-01 3.0000000e+00 4.8500000e+01 
7.5000000e-01 3.0000000e+00 4.9000000e+01 
7.5000000e-01 3.0000000e+00 4.9500000e+01 
7.5000000e-01 3.0250001e+00 0.0000000e+00 
7.5000000e-01 3.0250001e+00 5.0000000e-01 
7.5000000e-01 3.0250001e+00 1.0000000e+00 
7.5000000e-01 3.0250001e+00 1.5000000e+00 
7.5000000e-01 3.0250001e+00 2.0000000e+00 
7.5000000e-01 3.0250001e+00 2.5000000e+00 
7.5000000e-01 3.0250001e+00 3.0000000e+00 
7.5000000e-01 3.0250001e+00 3.5000000e+00 
7.5000000e-01 3.0250001e+00 4.0000000e+00 
7.5000000e-01 3.0250001e+00 4.5000000e+00 
7.5000000e-01 3.0250001e+00 5.0000000e+00 
7.5000000e-01 3.0250001e+00 5.5000000e+00 
7.5000000e-01 3.0250001e+00 6.0000000e+00 
7.5000000e-01 3.0250001e+00 6.5000000e+00 
7.5000000e-01 3.0250001e+00 7.0000000e+00 
7.5000000e-01 3.0250001e+00 7.5000000e+00 
7.5000000e-01 3.0250001e+00 8.0000000e+00 
7.5000000e-01 3.0250001e+00 8.5000000e+00 
7.5000000e-01 3.0250001e+00 9.0000000e+00 
7.5000000e-01 3.0250001e+00 9.5000000e+00 
7.5000000e-01 3.0250001e+00 1.0000000e+01 
7.5000000e-01 3.0250001e+00 1.0500000e+01 
7.5000000e-01 3.0250001e+00 1.1000000e+01 
7.5000000e-01 3.0250001e+00 1.1500000e+01 
7.5000000e-01 3.0250001e+00 1.2000000e+01 
7.5000000e-01 3.0250001e+00 1.2500000e+01 
7.5000000e-01 3.0250001e+00 1.3000000e+01 
7.5000000e-01 3.0250001e+00 1.3500000e+01 
7.5000000e-01 3.0250001e+00 1.4000000e+01 
7.5000000e-01 3.0250001e+00 1.4500000e+01 
7.5000000e-01 3.0250001e+00 1.5000000e+01 
7.5000000e-01 3.0250001e+00 1.5500000e+01 
7.5000000e-01 3.0250001e+00 1.6000000e+01 
7.5000000e-01 3.0250001e+00 1.6500000e+01 
7.5000000e-01 3.0250001e+00 1.7000000e+01 
7.5000000e-01 3.0250001e+00 1.7500000e+01 
7.5000000e-01 3.0250001e+00 1.8000000e+01 
7.5000000e-01 3.0250001e+00 1.8500000e+01 
7.5000000e-01 3.0250001e+00 1.9000000e+01 
7.5000000e-01 3.0250001e+00 1.9500000e+01 
7.5000000e-01 3.0250001e+00 2.0000000e+01 
7.5000000e-01 3.0250001e+00 2.0500000e+01 
7.5000000e-01 3.0250001e+00 2.1000000e+01 
7.5000000e-01 3.0250001e+00 2.1500000e+01 
7.5000000e-01 3.0250001e+00 2.2000000e+01 
7.5000000e-01 3.0250001e+00 2.2500000e+01 
7.5000000e-01 3.0250001e+00 2.3000000e+01 
7.5000000e-01 3.0250001e+00 2.3500000e+01 
7.5000000e-01 3.0250001e+00 2.4000000e+01 
7.5000000e-01 3.0250001e+00 2.4500000e+01 
7.5000000e-01 3.0250001e+00 2.5000000e+01 
7.5000000e-01 3.0250001e+00 2.5500000e+01 
7.5000000e-01 3.0250001e+00 2.6000000e+01 
7.5000000e-01 3.0250001e+00 2.6500000e+01 
7.5000000e-01 3.0250001e+00 2.7000000e+01 
7.5000000e-01 3.0250001e+00 2.7500000e+01 
7.5000000e-01 3.0250001e+00 2.8000000e+01 
7.5000000e-01 3.0250001e+00 2.8500000e+01 
7.5000000e-01 3.0250001e+00 2.9000000e+01 
7.5000000e-01 3.0250001e+00 2.9500000e+01 
7.5000000e-01 3.0250001e+00 3.0000000e+01 
7.5000000e-01 3.0250001e+00 3.0500000e+01 
7.5000000e-01 3.0250001e+00 3.1000000e+01 
7.5000000e-01 3.0250001e+00 3.1500000e+01 
7.5000000e-01 3.0250001e+00 3.2000000e+01 
7.5000000e-01 3.0250001e+00 3.2500000e+01 
7.5000000e-01 3.0250001e+00 3.3000000e+01 
7.5000000e-01 3.0250001e+00 3.3500000e+01 
7.5000000e-01 3.0250001e+00 3.4000000e+01 
7.5000000e-01 3.0250001e+00 3.4500000e+01 
7.5000000e-01 3.0250001e+00 3.5000000e+01 
7.5000000e-01 3.0250001e+00 3.5500000e+01 
7.5000000e-01 3.0250001e+00 3.6000000e+01 
7.5000000e-01 3.0250001e+00 3.6500000e+01 
7.5000000e-01 3.0250001e+00 3.7000000e+01 
7.5000000e-01 3.0250001e+00 3.7500000e+01 
7.5000000e-01 3.0250001e+00 3.8000000e+01 
7.5000000e-01 3.0250001e+00 3.8500000e+01 
7.5000000e-01 3.0250001e+00 3.9000000e+01 
7.5000000e-01 3.0250001e+00 3.9500000e+01 
7.5000000e-01 3.0250001e+00 4.0000000e+01 
7.5000000e-01 3.0250001e+00 4.0500000e+01 
7.5000000e-01 3.0250001e+00 4.1000000e+01 
7.5000000e-01 3.0250001e+00 4.1500000e+01 
7.5000000e-01 3.0250001e+00 4.2000000e+01 
7.5000000e-01 3.0250001e+00 4.2500000e+01 
7.5000000e-01 3.0250001e+00 4.3000000e+01 
7.5000000e-01 3.0250001e+00 4.3500000e+01 
7.5000000e-01 3.0250001e+00 4.4000000e+01 
7.5000000e-01 3.0250001e+00 4.4500000e+01 
7.5000000e-01 3.0250001e+00 4.5000000e+01 
7.5000000e-01 3.0250001e+00 4.5500000e+01 
7.5000000e-01 3.0250001e+00 4.6000000e+01 
7.5000000e-01 3.0250001e+00 4.6500000e+01 
7.5000000e-01 3.0250001e+00 4.7000000e+01 
7.5000000e-01 3.0250001e+00 4.7500000e+01 
7.5000000e-01 3.0250001e+00 4.8000000e+01 
7.5000000e-01 3.0250001e+00 4.8500000e+01 
7.5000000e-01 3.0250001e+00 4.9000000e+01 
7.5000000e-01 3.0250001e+00 4.9500000e+01 
7.5000000e-01 3.0250001e+00 5.0000000e+01 
3.0000000e+00 2.0000000e+00 3.6000000e+01 
8.0487806e-01 3.0000000e+00 3.6000000e+01 
0.0000000e+00 0.0000000e+00 1.0000000e+00 
0.0000000e+00 0.0000000e+00 2.0000000e+00 
0.0000000e+00 0.0000000e+00 3.0000000e+00 
0.0000000e+00 0.0000000e+00 4.0000000e+00 
0.0000000e+00 0.0000000e+00 5.0000000e+00 
0.0000000e+00 0.0000000e+00 6.0000000e+00 
0.0000000e+00 0.0000000e+00 7.0000000e+00 
0.0000000e+00 0.0000000e+00 8.0000000e+00 
[...]
POINT_DATA 1919
FIELD FieldData 3
DISPLACEMENT 3 1919  float
0.0000000e+00 0.0000000e+00 0.0000000e+00 
0.0000000e+00 0.0000000e+00 0.0000000e+00 
0.0000000e+00 0.0000000e+00 0.0000000e+00 
0.0000000e+00 0.0000000e+00 0.0000000e+00 
-2.4274274e-07 7.9017019e-07 8.3859072e-07 
4.2307616e-07 -7.7501005e-07 1.3145261e-06 
0.0000000e+00 -8.3722352e-06 0.0000000e+00 
0.0000000e+00 9.0440499e-06 0.0000000e+00 
-8.9012570e-07 -8.4805362e-07 1.5535586e-06 
2.3775531e-06 -5.8437899e-07 2.6761277e-06 
-2.7775200e-06 -1.6360316e-06 3.5616615e-06 
2.0659102e-06 -1.8207595e-06 9.9770705e-06 
0.0000000e+00 -1.3019426e-05 0.0000000e+00 
0.0000000e+00 2.4291399e-05 0.0000000e+00 
-4.2239185e-06 -4.3315858e-06 3.9092396e-05 
6.1019996e-06 1.5674292e-05 3.7888833e-05 
5.4988086e-06 -6.5204258e-05 2.5185591e-05 
-2.0785741e-05 8.1236692e-05 4.5981578e-05 
0.0000000e+00 -1.5497448e-05 0.0000000e+00 
0.0000000e+00 5.0266339e-05 0.0000000e+00 
-7.3676697e-06 -6.6770830e-05 2.8480732e-05 
-1.0791851e-05 -7.1121918e-05 1.7658431e-05 
-1.3135995e-05 -7.6824253e-05 8.8464421e-06 
-9.7320162e-06 -8.0683007e-05 6.1637147e-06 
-1.7785465e-05 -7.8971469e-05 6.0034349e-06 
-2.1286405e-05 -7.0167232e-05 6.7656458e-07 
-2.2015458e-05 -5.6382854e-05 -1.1788599e-05 
-1.3200837e-05 -4.5882465e-05 -2.2708804e-05 
-3.7713585e-06 -4.1610496e-05 -3.8426158e-05 
5.2119808e-06 -4.1094590e-05 -3.4797376e-05 
-2.5627082e-07 -3.7638689e-05 -2.7971277e-05 
-4.8634606e-06 -2.4834455e-05 -2.2018105e-05 
-1.6159758e-05 -4.1954409e-06 -2.0587000e-05 
-5.1956903e-07 1.1210843e-05 -2.3956205e-05 
1.5461546e-05 9.7780467e-06 -3.2873562e-05 
1.3268047e-05 -9.9121726e-06 -2.6025511e-05 
-2.5179565e-06 -3.1233780e-05 -1.5953026e-05 
-4.3901241e-06 -2.8439164e-05 -1.2082498e-05 
-1.4472065e-05 3.0729973e-06 1.7059343e-06 
-7.3803549e-06 4.3167780e-05 1.5138722e-06 
5.5327578e-06 6.9319736e-05 6.2476938e-06 
-4.4614167e-06 7.2043818e-05 2.5610379e-05 
-3.9388028e-06 6.8369016e-05 3.3059434e-05 
4.2327451e-06 8.5009458e-05 6.1175582e-05 
1.3521959e-05 1.1329784e-04 1.0131873e-04 
-4.3875616e-06 8.9379420e-05 1.2804497e-04 
-2.1509568e-05 -9.9669087e-05 2.0851124e-04 
-5.4162312e-05 -5.6947966e-04 2.0828727e-04 
-9.3324874e-05 -1.3625395e-03 2.9980435e-04 
-1.5622347e-04 -2.4127879e-03 2.1587507e-04 
-2.0381245e-04 -3.5906530e-03 3.5635949e-04 
-2.6505187e-04 -4.5830244e-03 1.3272885e-04 
-2.7842479e-04 -5.0030276e-03 1.1490189e-04 
-2.6087853e-04 -4.8464215e-03 4.2364602e-05 
-2.6476345e-04 -4.6802601e-03 -1.3393063e-05 
-2.4612958e-04 -4.7008782e-03 -8.9126654e-05 
-2.3488063e-04 -4.7232481e-03 -1.0154781e-04 
-1.9961657e-04 -4.2334818e-03 -1.3807713e-04 
-1.6458110e-04 -3.1891828e-03 -2.3349216e-04 
-1.1704631e-04 -2.0391608e-03 -1.0532703e-04 
-7.0246599e-05 -1.1141078e-03 -1.4483236e-04 
-4.2274616e-05 -4.8173667e-04 -4.7506517e-05 
-3.7830938e-05 -1.1624958e-04 -5.9378846e-05 
-3.0097488e-05 4.4611490e-05 -3.5811951e-05 
-2.5981024e-05 7.0882699e-05 -3.7755141e-05 
-1.0644703e-05 3.1782518e-05 -3.9807637e-05 
-1.7055381e-05 -1.9302053e-05 -4.0631956e-05 
-1.7439201e-05 -6.4149244e-05 -4.4911561e-05 
-2.8581191e-05 -1.0287118e-04 -4.6854682e-05 
-2.4548115e-05 -1.4326522e-04 -5.5040829e-05 
-1.4493739e-05 -1.8072582e-04 -6.6377208e-05 
-1.2034987e-05 -1.9976078e-04 -6.6978595e-05 
-3.0645690e-05 -1.8885756e-04 -6.5114487e-05 
-2.4324841e-05 -1.5429109e-04 -7.6154378e-05 
-2.3807268e-05 -1.1411538e-04 -9.7955533e-05 
-5.1991146e-06 -8.6011765e-05 -1.0491438e-04 
3.0318645e-06 -6.3906511e-05 -1.0848034e-04 
1.4408929e-05 -2.7870674e-05 -8.2035869e-05 
1.5500640e-05 3.8288545e-05 -4.8529739e-05 
9.2255304e-06 1.2718735e-04 -1.1902948e-05 
-7.5436702e-07 1.9862414e-04 1.5385833e-05 
-5.1471952e-06 2.1920180e-04 3.2357446e-05 
8.2000943e-06 1.9332720e-04 1.3813239e-05 
1.6036296e-05 1.5657423e-04 1.6115682e-05 
1.1791722e-05 1.3570026e-04 2.5948613e-05 
-3.6443339e-07 1.0068049e-04 4.3169235e-05 
3.3652261e-06 -5.5267308e-05 1.4935440e-04 
-2.5418543e-05 -4.8415235e-04 1.7679711e-04 
-3.5462166e-05 -1.2971471e-03 2.5797446e-04 
-5.0729854e-05 -2.4615310e-03 5.2500883e-04 
-1.3281532e-04 -3.7176351e-03 4.4908220e-04 
-1.8592781e-04 -4.6384055e-03 2.0949118e-04 
-2.3931512e-04 -4.8040985e-03 1.7733737e-04 
-1.4406643e-04 -4.5726891e-03 8.6850610e-05 
-2.4558461e-04 -4.5613940e-03 1.7793654e-05 
-2.2780911e-04 -4.7692196e-03 -2.8946763e-05 
-2.5669293e-04 -4.8479973e-03 -3.8509832e-05 
-2.4247533e-04 -4.2245598e-03 -6.9699519e-05 
-2.1224789e-04 -3.1270648e-03 -2.2557835e-04 
-1.4902381e-04 -1.9812984e-03 -1.6457656e-04 
-9.0396832e-05 -1.0452799e-03 -2.5207177e-04 
-4.8058391e-05 -3.8394248e-04 -1.6347546e-04 
-1.6913113e-05 1.4121184e-05 -1.4949206e-04 
-6.8891568e-06 2.0754519e-04 -8.5456173e-05 
4.5217593e-07 2.6433653e-04 -6.0103754e-05 
3.5686949e-06 2.4145217e-04 -4.2466429e-05 
8.3029099e-06 1.7816381e-04 -2.4911011e-05 
6.4616816e-06 9.8653043e-05 -6.3589787e-06 
-1.1110528e-05 1.9599505e-05 -2.5126679e-05 
-1.7579989e-05 -4.4232413e-05 -3.7493272e-05 
-1.1280172e-05 -8.2104241e-05 -3.7021658e-05 
8.6224111e-07 -9.2393260e-05 -3.5312612e-05 
1.0045194e-05 -8.1090468e-05 -1.8602948e-05 
1.0284045e-05 -5.7883608e-05 5.7090197e-06 
8.0862847e-06 -2.9664321e-05 2.0475052e-05 
7.9586980e-06 3.6995843e-07 3.0042393e-05 
8.4330859e-06 3.0007175e-05 2.3271812e-05 
6.8595432e-06 5.6180332e-05 2.1686497e-05 
3.2875782e-06 7.4650910e-05 2.8887018e-05 
0.0000000e+00 -6.5158281e-05 0.0000000e+00 
0.0000000e+00 -6.6782544e-05 0.0000000e+00 
0.0000000e+00 -7.1266622e-05 0.0000000e+00 
0.0000000e+00 -7.7011216e-05 0.0000000e+00 
0.0000000e+00 -8.0740669e-05 0.0000000e+00 
0.0000000e+00 -7.8747507e-05 0.0000000e+00 
0.0000000e+00 -6.9641021e-05 0.0000000e+00 
0.0000000e+00 -5.6482004e-05 0.0000000e+00 
0.0000000e+00 -4.6196172e-05 0.0000000e+00 
0.0000000e+00 -4.1963540e-05 0.0000000e+00 
0.0000000e+00 -4.1211064e-05 0.0000000e+00 
0.0000000e+00 -3.7266866e-05 0.0000000e+00 
0.0000000e+00 -2.4126617e-05 0.0000000e+00 
0.0000000e+00 -3.9426363e-06 0.0000000e+00 
0.0000000e+00 1.0964368e-05 0.0000000e+00 
0.0000000e+00 8.7780381e-06 0.0000000e+00 
0.0000000e+00 -1.0748232e-05 0.0000000e+00 
0.0000000e+00 -3.0447900e-05 0.0000000e+00 
0.0000000e+00 -2.7119871e-05 0.0000000e+00 
0.0000000e+00 3.6197584e-06 0.0000000e+00 
0.0000000e+00 4.2869797e-05 0.0000000e+00 
0.0000000e+00 6.7969857e-05 0.0000000e+00 
0.0000000e+00 7.1244453e-05 0.0000000e+00 
0.0000000e+00 6.9562295e-05 0.0000000e+00 
0.0000000e+00 8.7368877e-05 0.0000000e+00 
0.0000000e+00 1.1623494e-04 0.0000000e+00 
0.0000000e+00 9.0623413e-05 0.0000000e+00 
0.0000000e+00 -1.0266937e-04 0.0000000e+00 
0.0000000e+00 -5.7524536e-04 0.0000000e+00 
0.0000000e+00 -1.3675037e-03 0.0000000e+00 
0.0000000e+00 -2.4236038e-03 0.0000000e+00 
0.0000000e+00 -3.6041664e-03 0.0000000e+00 
0.0000000e+00 -4.6103029e-03 0.0000000e+00 
0.0000000e+00 -5.0300485e-03 0.0000000e+00 
0.0000000e+00 -4.8775091e-03 0.0000000e+00 
0.0000000e+00 -4.7007292e-03 0.0000000e+00 
0.0000000e+00 -4.7263219e-03 0.0000000e+00 
0.0000000e+00 -4.7452063e-03 0.0000000e+00 
0.0000000e+00 -4.2611854e-03 0.0000000e+00 
0.0000000e+00 -3.2062232e-03 0.0000000e+00 
0.0000000e+00 -2.0511639e-03 0.0000000e+00 
0.0000000e+00 -1.1180629e-03 0.0000000e+00 
0.0000000e+00 -4.8329518e-04 0.0000000e+00 
0.0000000e+00 -1.1671327e-04 0.0000000e+00 
0.0000000e+00 4.4804281e-05 0.0000000e+00 
0.0000000e+00 7.1970717e-05 0.0000000e+00 
0.0000000e+00 3.3754797e-05 0.0000000e+00 
0.0000000e+00 -1.8243802e-05 0.0000000e+00 
0.0000000e+00 -6.3767773e-05 0.0000000e+00 
0.0000000e+00 -1.0352963e-04 0.0000000e+00 
0.0000000e+00 -1.4387078e-04 0.0000000e+00 
0.0000000e+00 -1.8064726e-04 0.0000000e+00 
0.0000000e+00 -1.9900453e-04 0.0000000e+00 
0.0000000e+00 -1.8818853e-04 0.0000000e+00 
0.0000000e+00 -1.5411213e-04 0.0000000e+00 
0.0000000e+00 -1.1501671e-04 0.0000000e+00 
0.0000000e+00 -8.6646367e-05 0.0000000e+00 
0.0000000e+00 -6.4223903e-05 0.0000000e+00 
0.0000000e+00 -2.7347713e-05 0.0000000e+00 
0.0000000e+00 3.9947565e-05 0.0000000e+00 
0.0000000e+00 1.2757750e-04 0.0000000e+00 
0.0000000e+00 1.9744583e-04 0.0000000e+00 
0.0000000e+00 2.1762798e-04 0.0000000e+00 
0.0000000e+00 1.9304109e-04 0.0000000e+00 
0.0000000e+00 1.5879307e-04 0.0000000e+00 
0.0000000e+00 1.3943466e-04 0.0000000e+00 
0.0000000e+00 1.0345616e-04 0.0000000e+00 
0.0000000e+00 -5.5874621e-05 0.0000000e+00 
0.0000000e+00 -4.9054495e-04 0.0000000e+00 
0.0000000e+00 -1.3094420e-03 0.0000000e+00 
0.0000000e+00 -2.4719392e-03 0.0000000e+00 
0.0000000e+00 -3.7344755e-03 0.0000000e+00 
0.0000000e+00 -4.6645440e-03 0.0000000e+00 
0.0000000e+00 -4.8285164e-03 0.0000000e+00 
0.0000000e+00 -4.6090437e-03 0.0000000e+00 
0.0000000e+00 -4.5807059e-03 0.0000000e+00 
0.0000000e+00 -4.7961278e-03 0.0000000e+00 
0.0000000e+00 -4.8703337e-03 0.0000000e+00 
0.0000000e+00 -4.2493893e-03 0.0000000e+00 
0.0000000e+00 -3.1406211e-03 0.0000000e+00 
0.0000000e+00 -1.9906205e-03 0.0000000e+00 
0.0000000e+00 -1.0491690e-03 0.0000000e+00 
0.0000000e+00 -3.8602884e-04 0.0000000e+00 
0.0000000e+00 1.3994629e-05 0.0000000e+00 
0.0000000e+00 2.0840605e-04 0.0000000e+00 
0.0000000e+00 2.6538112e-04 0.0000000e+00 
0.0000000e+00 2.4223435e-04 0.0000000e+00 
0.0000000e+00 1.7848711e-04 0.0000000e+00 
0.0000000e+00 9.8761724e-05 0.0000000e+00 
0.0000000e+00 1.9926109e-05 0.0000000e+00 
0.0000000e+00 -4.3719210e-05 0.0000000e+00 
0.0000000e+00 -8.1818842e-05 0.0000000e+00 
0.0000000e+00 -9.2362337e-05 0.0000000e+00 
0.0000000e+00 -8.1269980e-05 0.0000000e+00 
0.0000000e+00 -5.7985078e-05 0.0000000e+00 
0.0000000e+00 -2.9640563e-05 0.0000000e+00 
0.0000000e+00 3.7401517e-07 0.0000000e+00 
0.0000000e+00 2.9957553e-05 0.0000000e+00 
0.0000000e+00 5.6112382e-05 0.0000000e+00 
0.0000000e+00 7.4581956e-05 0.0000000e+00 
0.0000000e+00 8.1274287e-05 0.0000000e+00 
6.0117294e-05 -7.5868731e-05 2.3005092e-05 
-2.0760371e-04 -4.2416290e-03 2.2752560e-04 
0.0000000e+00 0.0000000e+00 0.0000000e+00 
0.0000000e+00 0.0000000e+00 0.0000000e+00 
0.0000000e+00 0.0000000e+00 0.0000000e+00 
0.0000000e+00 0.0000000e+00 0.0000000e+00 
0.0000000e+00 0.0000000e+00 0.0000000e+00 
0.0000000e+00 0.0000000e+00 0.0000000e+00 
0.0000000e+00 0.0000000e+00 0.0000000e+00 
0.0000000e+00 0.0000000e+00 0.0000000e+00 
0.0000000e+00 0.0000000e+00 0.0000000e+00 
0.0000000e+00 0.0000000e+00 0.0000000e+00 
0.0000000e+00 0.0000000e+00 0.0000000e+00 
0.0000000e+00 0.0000000e+00 0.0000000e+00 
0.0000000e+00 0.0000000e+00 0.0000000e+00 
0.0000000e+00 0.0000000e+00 0.0000000e+00 
0.0000000e+00 0.0000000e+00 0.0000000e+00 
0.0000000e+00 0.0000000e+00 0.0000000e+00 
0.0000000e+00 0.0000000e+00 0.0000000e+00 
0.0000000e+00 0.0000000e+00 0.0000000e+00 
0.0000000e+00 0.0000000e+00 0.0000000e+00 
0.0000000e+00 0.0000000e+00 0.0000000e+00 
0.0000000e+00 0.0000000e+00 0.0000000e+00 
0.0000000e+00 0.0000000e+00 0.0000000e+00 
0.0000000e+00 0.0000000e+00 0.0000000e+00 
0.0000000e+00 0.0000000e+00 0.0000000e+00 
0.0000000e+00 0.0000000e+00 0.0000000e+00 
0.0000000e+00 0.0000000e+00 0.0000000e+00 
0.0000000e+00 0.0000000e+00 0.0000000e+00 
0.0000000e+00 0.0000000e+00 0.0000000e+00 
0.0000000e+00 0.0000000e+00 0.0000000e+00 
0.0000000e+00 0.0000000e+00 0.0000000e+00 
0.0000000e+00 0.0000000e+00 0.0000000e+00 
0.0000000e+00 0.0000000e+00 0.0000000e+00 
0.0000000e+00 0.0000000e+00 0.0000000e+00 
0.0000000e+00 0.0000000e+00 0.0000000e+00 
0.0000000e+00 0.0000000e+00 0.0000000e+00 
0.0000000e+00 0.0000000e+00 0.0000000e+00 
0.0000000e+00 0.0000000e+00 0.0000000e+00 
0.0000000e+00 0.0000000e+00 0.0000000e+00 
0.0000000e+00 0.0000000e+00 0.0000000e+00 
0.0000000e+00 0.0000000e+00 0.0000000e+00 
0.0000000e+00 0.0000000e+00 0.0000000e+00 
0.0000000e+00 0.0000000e+00 0.0000000e+00 
0.0000000e+00 0.0000000e+00 0.0000000e+00 
0.0000000e+00 0.0000000e+00 0.0000000e+00 
0.0000000e+00 0.0000000e+00 0.0000000e+00 
0.0000000e+00 0.0000000e+00 0.0000000e+00 
0.0000000e+00 0.0000000e+00 0.0000000e+00 
0.0000000e+00 0.0000000e+00 0.0000000e+00 
0.0000000e+00 0.0000000e+00 0.0000000e+00 
0.0000000e+00 0.0000000e+00 0.0000000e+00 
0.0000000e+00 0.0000000e+00 0.0000000e+00 
0.0000000e+00 0.0000000e+00 0.0000000e+00 
0.0000000e+00 0.0000000e+00 0.0000000e+00 
0.0000000e+00 0.0000000e+00 0.0000000e+00 
0.0000000e+00 0.0000000e+00 0.0000000e+00 
0.0000000e+00 0.0000000e+00 0.0000000e+00 
0.0000000e+00 0.0000000e+00 0.0000000e+00 
0.0000000e+00 0.0000000e+00 0.0000000e+00 
0.0000000e+00 0.0000000e+00 0.0000000e+00 
0.0000000e+00 0.0000000e+00 0.0000000e+00 
0.0000000e+00 0.0000000e+00 0.0000000e+00 
0.0000000e+00 0.0000000e+00 0.0000000e+00 
0.0000000e+00 0.0000000e+00 0.0000000e+00 
0.0000000e+00 0.0000000e+00 0.0000000e+00 
0.0000000e+00 0.0000000e+00 0.0000000e+00 
0.0000000e+00 0.0000000e+00 0.0000000e+00 
0.0000000e+00 0.0000000e+00 0.0000000e+00 
0.0000000e+00 0.0000000e+00 0.0000000e+00 
0.0000000e+00 0.0000000e+00 0.0000000e+00 
0.0000000e+00 0.0000000e+00 0.0000000e+00 
0.0000000e+00 0.0000000e+00 0.0000000e+00 
0.0000000e+00 0.0000000e+00 0.0000000e+00 
0.0000000e+00 0.0000000e+00 0.0000000e+00 
0.0000000e+00 0.0000000e+00 0.0000000e+00 
0.0000000e+00 0.0000000e+00 0.0000000e+00 
0.0000000e+00 0.0000000e+00 0.0000000e+00 
0.0000000e+00 0.0000000e+00 0.0000000e+00 
0.0000000e+00 0.0000000e+00 0.0000000e+00 
0.0000000e+00 0.0000000e+00 0.0000000e+00 
0.0000000e+00 0.0000000e+00 0.0000000e+00 
0.0000000e+00 0.0000000e+00 0.0000000e+00 
0.0000000e+00 0.0000000e+00 0.0000000e+00 
0.0000000e+00 0.0000000e+00 0.0000000e+00 
0.0000000e+00 0.0000000e+00 0.0000000e+00 
0.0000000e+00 0.0000000e+00 0.0000000e+00 
0.0000000e+00 0.0000000e+00 0.0000000e+00 
0.0000000e+00 0.0000000e+00 0.0000000e+00 
0.0000000e+00 0.0000000e+00 0.0000000e+00 
0.0000000e+00 0.0000000e+00 0.0000000e+00 
0.0000000e+00 0.0000000e+00 0.0000000e+00 
0.0000000e+00 0.0000000e+00 0.0000000e+00 
0.0000000e+00 0.0000000e+00 0.0000000e+00 
0.0000000e+00 0.0000000e+00 0.0000000e+00 
0.0000000e+00 0.0000000e+00 0.0000000e+00 
0.0000000e+00 0.0000000e+00 0.0000000e+00 
0.0000000e+00 0.0000000e+00 0.0000000e+00 
0.0000000e+00 0.0000000e+00 0.0000000e+00 
0.0000000e+00 0.0000000e+00 0.0000000e+00 
0.0000000e+00 0.0000000e+00 0.0000000e+00 
0.0000000e+00 0.0000000e+00 0.0000000e+00 
0.0000000e+00 0.0000000e+00 0.0000000e+00 
0.0000000e+00 0.0000000e+00 0.0000000e+00 
0.0000000e+00 0.0000000e+00 0.0000000e+00 
0.0000000e+00 0.0000000e+00 0.0000000e+00 
0.0000000e+00 0.0000000e+00 0.0000000e+00 
0.0000000e+00 0.0000000e+00 0.0000000e+00 
1.9027450e-06 -1.7088879e-06 -1.7794470e-06 
1.5473369e-06 -1.0981057e-06 -5.8899144e-07 
-2.8064619e-07 -1.6478161e-06 -1.0366034e-06 
9.1146234e-07 1.3716922e-07 -1.0195744e-06 
3.3038214e-07 -1.4625815e-06 2.5292748e-06 
-1.7423874e-06 2.0154282e-06 -2.7927879e-07 
-1.9795302e-06 -3.1346469e-06 -1.2487058e-06 
-1.3470218e-07 1.4594042e-06 6.6701477e-07 
-1.7869244e-06 6.9584275e-06 -9.4477463e-07 
5.8429640e-07 -8.8272748e-07 -1.3576496e-06 
3.9499655e-06 2.9790303e-06 3.7793288e-07 
1.0875252e-05 -1.6091063e-06 -3.9210927e-06 
1.7263039e-05 -1.1499536e-05 -6.7812311e-06 
2.8094873e-05 -1.2282916e-05 -1.2273229e-05 
4.2648884e-05 -1.2925633e-05 -1.1202912e-05 
5.2622712e-05 -2.1253612e-05 -5.1927927e-06 
5.2818104e-05 -2.0013584e-05 6.4921051e-07 
5.2907548e-05 -1.7379818e-05 9.6795175e-06 
4.1058825e-05 -1.6921505e-05 9.1229176e-06 
2.9458999e-05 -8.4243802e-06 9.9399203e-06 
1.8743169e-05 -5.2328255e-06 8.0132886e-06 
1.1554995e-05 -1.1529056e-08 4.8705310e-06 
6.1689839e-06 -1.0707880e-06 2.9341948e-06 
4.8511583e-06 -4.2836796e-06 -3.7600598e-06 
3.2468870e-06 -3.4975560e-06 -6.4215669e-06 
8.3655254e-07 2.1783635e-06 7.6233459e-07 
2.2705897e-06 1.3468801e-06 5.4736535e-07 
-1.7768837e-06 8.5597918e-08 4.6001164e-06 
-4.5758147e-06 3.5870582e-06 7.9226502e-06 
-5.4489232e-07 4.8563952e-06 3.0648389e-06 
1.2421031e-06 -3.3862862e-06 -4.5171705e-06 
6.5844329e-06 1.3376747e-06 -5.4314519e-06 
1.4879078e-05 -7.0412339e-06 -1.0370010e-05 
2.5324303e-05 -1.3016422e-05 -1.0289065e-05 
4.0425366e-05 -2.0872836e-05 -8.8730931e-06 
5.2509316e-05 -2.2811439e-05 -5.2467858e-06 
5.2912746e-05 -2.1553858e-05 3.7165350e-06 
5.4203916e-05 -2.0862139e-05 9.3607287e-06 
4.5313816e-05 -1.6095160e-05 1.4282140e-05 
2.6133621e-05 -6.6676726e-06 1.7699638e-05 
1.5608914e-05 -2.1098379e-06 1.4071801e-05 
4.9309988e-06 -2.9009490e-07 5.8218106e-06 
-2.9440830e-07 -1.4567146e-06 -1.6879504e-06 
-5.2396837e-07 1.8314627e-07 -3.3581643e-06 
-1.0057627e-08 1.4717299e-06 -2.0311165e-06 
5.1127256e-07 -1.5922386e-07 -1.6060190e-07 
6.2501078e-07 -5.1894460e-07 2.7997992e-06 
6.7927090e-08 7.1793501e-08 3.3301860e-06 
-3.7011154e-07 2.9519461e-07 2.8765546e-06 
0.0000000e+00 -2.8601289e-05 0.0000000e+00 
0.0000000e+00 -4.3621614e-05 0.0000000e+00 
0.0000000e+00 -4.1850450e-05 0.0000000e+00 
0.0000000e+00 -5.0384009e-05 0.0000000e+00 
0.0000000e+00 -6.8283080e-05 0.0000000e+00 
0.0000000e+00 -6.6725879e-05 0.0000000e+00 
0.0000000e+00 -4.1242562e-05 0.0000000e+00 
0.0000000e+00 -3.0411296e-05 0.0000000e+00 
0.0000000e+00 1.8783917e-06 0.0000000e+00 
0.0000000e+00 5.1757277e-05 0.0000000e+00 
0.0000000e+00 3.9911291e-05 0.0000000e+00 
0.0000000e+00 6.9125177e-05 0.0000000e+00 
0.0000000e+00 2.0657029e-05 0.0000000e+00 
0.0000000e+00 -1.4673709e-04 0.0000000e+00 
0.0000000e+00 -3.6579807e-04 0.0000000e+00 
0.0000000e+00 -5.3994491e-04 0.0000000e+00 
0.0000000e+00 -6.4529013e-04 0.0000000e+00 
0.0000000e+00 -5.8215228e-04 0.0000000e+00 
0.0000000e+00 -4.7074020e-04 0.0000000e+00 
0.0000000e+00 -3.0175890e-04 0.0000000e+00 
0.0000000e+00 -1.4190185e-04 0.0000000e+00 
0.0000000e+00 -1.1054589e-04 0.0000000e+00 
0.0000000e+00 -9.8096272e-05 0.0000000e+00 
0.0000000e+00 -1.0899226e-04 0.0000000e+00 
0.0000000e+00 -1.1758499e-04 0.0000000e+00 
0.0000000e+00 -1.0199896e-04 0.0000000e+00 
0.0000000e+00 -5.8677684e-05 0.0000000e+00 
0.0000000e+00 -7.6155542e-05 0.0000000e+00 
0.0000000e+00 -1.4485810e-05 0.0000000e+00 
0.0000000e+00 7.2622046e-05 0.0000000e+00 
0.0000000e+00 5.0952669e-05 0.0000000e+00 
0.0000000e+00 1.9969160e-05 0.0000000e+00 
0.0000000e+00 4.2752596e-05 0.0000000e+00 
0.0000000e+00 -1.4479064e-04 0.0000000e+00 
0.0000000e+00 -3.2805683e-04 0.0000000e+00 
0.0000000e+00 -4.5914180e-04 0.0000000e+00 
0.0000000e+00 -5.6585215e-04 0.0000000e+00 
0.0000000e+00 -5.6278973e-04 0.0000000e+00 
0.0000000e+00 -4.2675689e-04 0.0000000e+00 
0.0000000e+00 -2.7978461e-04 0.0000000e+00 
0.0000000e+00 -8.9852649e-05 0.0000000e+00 
0.0000000e+00 1.3326500e-05 0.0000000e+00 
0.0000000e+00 3.2503234e-05 0.0000000e+00 
0.0000000e+00 1.2582133e-05 0.0000000e+00 
0.0000000e+00 -1.8129796e-05 0.0000000e+00 
0.0000000e+00 -2.7504249e-05 0.0000000e+00 
0.0000000e+00 -8.2445931e-06 0.0000000e+00 
0.0000000e+00 4.4470439e-06 0.0000000e+00 
0.0000000e+00 1.3783204e-05 0.0000000e+00 
2.1826181e-06 -1.1866123e-06 -1.3593568e-06 
7.5150172e-07 -1.8074375e-06 -2.6674338e-06 
1.3551277e-06 -4.1848903e-06 -3.5082721e-06 
-8.2726552e-07 -4.7715148e-06 -6.6189909e-06 
1.1379525e-07 -3.2534138e-07 2.9694461e-06 
-7.0174718e-07 -7.1596810e-07 3.1712934e-06 
-3.3278366e-06 3.1043376e-07 3.0574331e-06 
-3.5358823e-06 5.2303299e-06 1.1754578e-06 
-1.0209837e-06 -2.0518196e-07 1.9873714e-06 
-8.9577770e-07 -2.4396950e-06 -5.6559509e-07 
-1.2741983e-06 -2.0729658e-06 -2.7260962e-06 
-4.7861840e-06 -2.1811504e-06 -1.2843226e-06 
-4.4903622e-06 -1.5096562e-06 2.0955708e-06 
-9.8041692e-06 2.3851708e-06 -1.1040463e-06 
-5.1871357e-06 -2.1094779e-06 5.3650274e-07 
-4.9153164e-06 1.2119522e-06 -1.8535897e-06 
-1.8389726e-06 7.3383740e-06 -8.3981931e-08 
4.8169982e-06 -4.7357917e-06 -3.4849127e-06 
5.7311904e-06 5.4792336e-06 -2.2602051e-06 
1.5869506e-05 1.6898838e-06 4.1970469e-07 
2.5194273e-05 -1.3242725e-05 -9.4602328e-08 
3.1902036e-05 -4.0591108e-06 -9.0384592e-06 
4.2841672e-05 -1.6641425e-05 -6.1907440e-06 
4.5567354e-05 -2.0004602e-05 -9.0953267e-07 
4.9494927e-05 -1.8633562e-05 -1.1777751e-06 
4.4650380e-05 -1.1088658e-05 4.4442377e-06 
3.5825957e-05 -9.9932749e-06 1.1125702e-05 