# vtk DataFile Version 4.0
vtk output
ASCII
DATASET UNSTRUCTURED_GRID
POINTS 1919 float
0.0000000e+00 0.0000000e+00 0.0000000e+00 
0.0000000e+00 0.0000000e+00 5.0000000e+01 
5.0000000e+00 0.0000000e+00 0.0000000e+00 
5.0000000e+00 0.0000000e+00 5.0000000e+01 
5.0000000e+00 1.0000000e+00 0.0000000e+00 
5.0000000e+00 1.0000000e+00 5.0000000e+01 
0.0000000e+00 1.0000000e+00 0.0000000e+00 
0.0000000e+00 1.0000000e+00 5.0000000e+01 
5.0000000e+00 2.0000000e+00 0.0000000e+00 
5.0000000e+00 2.0000000e+00 5.0000000e+01 
3.0000000e+00 2.0000000e+00 0.0000000e+00 
3.0000000e+00 2.0000000e+00 5.0000000e+01 
0.0000000e+00 2.0000000e+00 0.0000000e+00 
0.0000000e+00 2.0000000e+00 5.0000000e+01 
1.5000000e+00 3.0000000e+00 0.0000000e+00 
1.5000000e+00 3.0000000e+00 5.0000000e+01 
7.5000000e-01 3.0000000e+00 0.0000000e+00 
7.5000000e-01 3.0000000e+00 5.0000000e+01 
0.0000000e+00 3.0000000e+00 0.0000000e+00 
0.0000000e+00 3.0000000e+00 5.0000000e+01 
7.5000000e-01 3.0000000e+00 5.0000000e-01 
7.5000000e-01 3.0000000e+00 1.0000000e+00 
7.5000000e-01 3.0000000e+00 1.5000000e+00 
7.5000000e-01 3.0000000e+00 2.0000000e+00 
7.5000000e-01 3.0000000e+00 2.5000000e+00 
7.5000000e-01 3.0000000e+00 3.0000000e+00 
7.5000000e-01 3.0000000e+00 3.5000000e+00 
7.5000000e-01 3.0000000e+00 4.0000000e+00 
7.5000000e-01 3.0000000e+00 4.5000000e+00 
7.5000000e-01 3.0000000e+00 5.0000000e+00 
7.5000000e-01 3.0000000e+00 5.5000000e+00 
7.5000000e-01 3.0000000e+00 6.0000000e+00 
7.5000000e-01 3.0000000e+00 6.5000000e+00 
7.5000000e-01 3.0000000e+00 7.0000000e+00 
7.5000000e-01 3.0000000e+00 7.5000000e+00 
7.5000000e-01 3.0000000e+00 8.0000000e+00 
7.5000000e-01 3.0000000e+00 8.5000000e+00 
7.5000000e-01 3.0000000e+00 9.0000000e+00 
7.5000000e-01 3.0000000e+00 9.5000000e+00 
7.5000000e-01 3.0000000e+00 1.0000000e+01 
7.5000000e-01 3.0000000e+00 1.0500000e+01 
7.5000000e-01 3.0000000e+00 1.1000000e+01 
7.5000000e-01 3.0000000e+00 1.1500000e+01 
7.5000000e-01 3.0000000e+00 1.2000000e+01 
7.5000000e-01 3.0000000e+00 1.2500000e+01 
7.5000000e-01 3.0000000e+00 1.3000000e+01 
7.5000000e-01 3.0000000e+00 1.3500000e+01 
7.5000000e-01 3.0000000e+00 1.4000000e+01 
7.5000000e-01 3.0000000e+00 1.4500000e+01 
7.5000000e-01 3.0000000e+00 1.5000000e+01 
7.5000000e-01 3.0000000e+00 1.5500000e+01 
7.5000000e-01 3.0000000e+00 1.6000000e+01 
7.5000000e-01 3.0000000e+00 1.6500000e+01 
7.5000000e-01 3.0000000e+00 1.7000000e+01 
7.5000000e-01 3.0000000e+00 1.7500000e+01 
7.5000000e-01 3.0000000e+00 1.8000000e+01 
7.5000000e-01 3.0000000e+00 1.8500000e+01 
7.5000000e-01 3.0000000e+00 1.9000000e+01 
7.5000000e-01 3.0000000e+00 1.9500000e+01 
7.5000000e-01 3.0000000e+00 2.0000000e+01 
7.5000000e-01 3.0000000e+00 2.0500000e+01 
7.5000000e-01 3.0000000e+00 2.1000000e+01 
7.5000000e-01 3.0000000e+00 2.1500000e+01 
7.5000000e-01 3.0000000e+00 2.2000000e+01 
7.5000000e-01 3.0000000e+00 2.2500000e+01 
7.5000000e-01 3.0000000e+00 2.3000000e+01 
7.5000000e-01 3.0000000e+00 2.3500000e+01 
7.5000000e-01 3.0000000e+00 2.4000000e+01 
7.5000000e-01 3.0000000e+00 2.4500000e+01 
7.5000000e-01 3.0000000e+00 2.5000000e+01 
7.5000000e-01 3.0000000e+00 2.5500000e+01 
7.5000000e-01 3.0000000e+00 2.6000000e+01 
7.5000000e-01 3.0000000e+00 2.6500000e+01 
7.5000000e-01 3.0000000e+00 2.7000000e+01 
7.5000000e-01 3.0000000e+00 2.7500000e+01 
7.5000000e-01 3.0000000e+00 2.8000000e+01 
7.5000000e-01 3.0000000e+00 2.8500000e+01 
7.5000000e-01 3.0000000e+00 2.9000000e+01 
7.5000000e-01 3.0000000e+00 2.9500000e+01 
7.5000000e-01 3.0000000e+00 3.0000000e+01 
7.5000000e-01 3.0000000e+00 3.0500000e+01 
7.5000000e-01 3.0000000e+00 3.1000000e+01 
7.5000000e-01 3.0000000e+00 3.1500000e+01 
7.5000000e-01 3.0000000e+00 3.2000000e+01 
7.5000000e-01 3.0000000e+00 3.2500000e+01 
7.5000000e-01 3.0000000e+00 3.3000000e+01 
7.5000000e-01 3.0000000e+00 3.3500000e+01 
7.5000000e-01 3.0000000e+00 3.4000000e+01 
7.5000000e-01 3.0000000e+00 3.4500000e+01 
7.5000000e-01 3.0000000e+00 3.5000000e+01 
7.5000000e-01 3.0000000e+00 3.5500000e+01 
7.5000000e-01 3.0000000e+00 3.6000000e+01 
7.5000000e-01 3.0000000e+00 3.6500000e+01 
7.5000000e-01 3.0000000e+00 3.7000000e+01 
7.5000000e-01 3.0000000e+00 3.7500000e+01 
7.5000000e-01 3.0000000e+00 3.8000000e+01 
7.5000000e-01 3.0000000e+00 3.8500000e+01 
7.5000000e-01 3.0000000e+00 3.9000000e+01 
7.5000000e-01 3.0000000e+00 3.9500000e+01 
7.5000000e-01 3.0000000e+00 4.0000000e+01 
7.5000000e-01 3.0000000e+00 4.0500000e+01 
7.5000000e-01 3.0000000e+00 4.1000000e+01 
7.5000000e-01 3.0000000e+00 4.1500000e+01 
7.5000000e-01 3.0000000e+00 4.2000000e+01 
7.5000000e-01 3.0000000e+00 4.2500000e+01 
7.5000000e-01 3.0000000e+00 4.3000000e+01 
7.5000000e-01 3.0000000e+00 4.3500000e+01 
7.5000000e-01 3.0000000e+00 4.4000000e+01 
7.5000000e-01 3.0000000e+00 4.4500000e+01 
7.5000000e-01 3.0000000e+00 4.5000000e+01 
7.5000000e-01 3.0000000e+00 4.5500000e+01 
7.5000000e-01 3.0000000e+00 4.6000000e+01 
7.5000000e-01 3.0000000e+00 4.6500000e+01 
7.5000000e-01 3.0000000e+00 4.7000000e+01 
7.5000000e-01 3.0000000e+00 4.7500000e+01 
7.5000000e-01 3.0000000e+00 4.8000000e+01 
7.5000000e-01 3.0000000e+00 4.8500000e+01 
7.5000000e-01 3.0000000e+00 4.9000000e+01 
7.5000000e-01 3.0000000e+00 4.9500000e+01 
7.5000000e-01 3.0250001e+00 0.0000000e+00 
7.5000000e-01 3.0250001e+00 5.0000000e-01 
7.5000000e-01 3.0250001e+00 1.0000000e+00 
7.5000000e-01 3.0250001e+00 1.5000000e+00 
7.5000000e-01 3.0250001e+00 2.0000000e+00 
7.5000000e-01 3.0250001e+00 2.5000000e+00 
7.5000000e-01 3.0250001e+00 3.0000000e+00 
7.5000000e-01 3.0250001e+00 3.5000000e+00 
7.5000000e-01 3.0250001e+00 4.0000000e+00 
7.5000000e-01 3.0250001e+00 4.5000000e+00 
7.5000000e-01 3.0250001e+00 5.0000000e+00 
7.5000000e-01 3.0250001e+00 5.5000000e+00 
7.5000000e-01 3.0250001e+00 6.0000000e+00 
7.5000000e-01 3.0250001e+00 6.5000000e+00 
7.5000000e-01 3.0250001e+00 7.0000000e+00 
7.5000000e-01 3.0250001e+00 7.5000000e+00 
7.5000000e-01 3.0250001e+00 8.0000000e+00 
7.5000000e-01 3.0250001e+00 8.5000000e+00 
7.5000000e-01 3.0250001e+00 9.0000000e+00 
7.5000000e-01 3.0250001e+00 9.5000000e+00 
7.5000000e-01 3.0250001e+00 1.0000000e+01 
7.5000000e-01 3.0250001e+00 1.0500000e+01 
7.5000000e-01 3.0250001e+00 1.1000000e+01 
7.5000000e-01 3.0250001e+00 1.1500000e+01 
7.5000000e-01 3.0250001e+00 1.2000000e+01 
7.5000000e-01 3.0250001e+00 1.2500000e+01 
7.5000000e-01 3.0250001e+00 1.3000000e+01 
7.5000000e-01 3.0250001e+00 1.3500000e+01 
7.5000000e-01 3.0250001e+00 1.4000000e+01 
7.5000000e-01 3.0250001e+00 1.4500000e+01 
7.5000000e-01 3.0250001e+00 1.5000000e+01 
7.5000000e-01 3.0250001e+00 1.5500000e+01 
7.5000000e-01 3.0250001e+00 1.6000000e+01 
7.5000000e-01 3.0250001e+00 1.6500000e+01 
7.5000000e-01 3.0250001e+00 1.7000000e+01 
7.5000000e-01 3.0250001e+00 1.7500000e+01 
7.5000000e-01 3.0250001e+00 1.8000000e+01 
7.5000000e-01 3.0250001e+00 1.8500000e+01 
7.5000000e-01 3.0250001e+00 1.9000000e+01 
7.5000000e-01 3.0250001e+00 1.9500000e+01 
7.5000000e-01 3.0250001e+00 2.0000000e+01 
7.5000000e-01 3.0250001e+00 2.0500000e+01 
7.5000000e-01 3.0250001e+00 2.1000000e+01 
7.5000000e-01 3.0250001e+00 2.1500000e+01 
7.5000000e-01 3.0250001e+00 2.2000000e+01 
7.5000000e-01 3.0250001e+00 2.2500000e+01 
7.5000000e-01 3.0250001e+00 2.3000000e+01 
7.5000000e-01 3.0250001e+00 2.3500000e+01 
7.5000000e-01 3.0250001e+00 2.4000000e+01 
7.5000000e-01 3.0250001e+00 2.4500000e+01 
7.5000000e-01 3.0250001e+00 2.5000000e+01 
7.5000000e-01 3.0250001e+00 2.5500000e+01 
7.5000000e-01 3.0250001e+00 2.6000000e+01 
7.5000000e-01 3.0250001e+00 2.6500000e+01 
7.5000000e-01 3.0250001e+00 2.7000000e+01 
7.5000000e-01 3.0250001e+00 2.7500000e+01 
7.5000000e-01 3.0250001e+00 2.8000000e+01 
7.5000000e-01 3.0250001e+00 2.8500000e+01 
7.5000000e-01 3.0250001e+00 2.9000000e+01 
7.5000000e-01 3.0250001e+00 2.9500000e+01 
7.5000000e-01 3.0250001e+00 3.0000000e+01 
7.5000000e-01 3.0250001e+00 3.0500000e+01 
7.5000000e-01 3.0250001e+00 3.1000000e+01 
7.5000000e-01 3.0250001e+00 3.1500000e+01 
7.5000000e-01 3.0250001e+00 3.2000000e+01 
7.5000000e-01 3.0250001e+00 3.2500000e+01 
7.5000000e-01 3.0250001e+00 3.3000000e+01 
7.5000000e-01 3.0250001e+00 3.3500000e+01 
7.5000000e-01 3.0250001e+00 3.4000000e+01 
7.5000000e-01 3.0250001e+00 3.4500000e+01 
7.5000000e-01 3.0250001e+00 3.5000000e+01 
7.5000000e-01 3.0250001e+00 3.5500000e+01 
7.5000000e-01 3.0250001e+00 3.6000000e+01 
7.5000000e-01 3.0250001e+00 3.6500000e+01 
7.5000000e-01 3.0250001e+00 3.7000000e+01 
7.5000000e-01 3.0250001e+00 3.7500000e+01 
7.5000000e-01 3.0250001e+00 3.8000000e+01 
7.5000000e-01 3.0250001e+00 3.8500000e+01 
7.5000000e-01 3.0250001e+00 3.9000000e+01 
7.5000000e-01 3.0250001e+00 3.9500000e+01 
7.5000000e-01 3.0250001e+00 4.0000000e+01 
7.5000000e-01 3.0250001e+00 4.0500000e+01 
7.5000000e-01 3.0250001e+00 4.1000000e+01 
7.5000000e-01 3.0250001e+00 4.1500000e+01 
7.5000000e-01 3.0250001e+00 4.2000000e+01 
7.5000000e-01 3.0250001e+00 4.2500000e+01 
7.5000000e-01 3.0250001e+00 4.3000000e+01 
7.5000000e-01 3.0250001e+00 4.3500000e+01 
7.5000000e-01 3.0250001e+00 4.4000000e+01 
7.5000000e-01 3.0250001e+00 4.4500000e+01 
7.5000000e-01 3.0250001e+00 4.5000000e+01 
7.5000000e-01 3.0250001e+00 4.5500000e+01 
7.5000000e-01 3.0250001e+00 4.6000000e+01 
7.5000000e-01 3.0250001e+00 4.6500000e+01 
7.5000000e-01 3.0250001e+00 4.7000000e+01 
7.5000000e-01 3.0250001e+00 4.7500000e+01 
7.5000000e-01 3.0250001e+00 4.8000000e+01 
7.5000000e-01 3.0250001e+00 4.8500000e+01 
7.5000000e-01 3.0250001e+00 4.9000000e+01 
7.5000000e-01 3.0250001e+00 4.9500000e+01 
7.5000000e-01 3.0250001e+00 5.0000000e+01 
3.0000000e+00 2.0000000e+00 3.6000000e+01 
8.0487806e-01 3.0000000e+00 3.6000000e+01 
0.0000000e+00 0.0000000e+00 1.0000000e+00 
0.0000000e+00 0.0000000e+00 2.0000000e+00 
0.0000000e+00 0.0000000e+00 3.0000000e+00 
0.0000000e+00 0.0000000e+00 4.0000000e+00 
0.0000000e+00 0.0000000e+00 5.0000000e+00 
0.0000000e+00 0.0000000e+00 6.0000000e+00 
0.0000000e+00 0.0000000e+00 7.0000000e+00 
0.0000000e+00 0.0000000e+00 8.0000000e+00 
[...]
POINT_DATA 1919
FIELD FieldData 3
DISPLACEMENT 3 1919  float
0.0000000e+00 0.0000000e+00 0.0000000e+00 
0.0000000e+00 0.0000000e+00 0.0000000e+00 
0.0000000e+00 0.0000000e+00 0.0000000e+00 
0.0000000e+00 0.0000000e+00 0.0000000e+00 
1.6956777e-06 -4.5525496e-07 -2.1473495e-06 
4.6958313e-08 2.2651488e-08 4.8458304e-08 
0.0000000e+00 3.6646696e-05 0.0000000e+00 
0.0000000e+00 -1.9089924e-07 0.0000000e+00 
-3.0614160e-06 -2.3599257e-06 -6.3648449e-06 
6.0619541e-08 -2.1889706e-08 1.9390906e-07 
1.1686328e-05 1.1530367e-05 -2.4200592e-06 
-4.3343382e-09 -3.7832031e-08 1.6364453e-07 
0.0000000e+00 5.7812307e-05 0.0000000e+00 
0.0000000e+00 5.9586622e-08 0.0000000e+00 
1.9437628e-05 -1.6780941e-05 -1.9599372e-06 
1.1026113e-07 -2.0933980e-07 1.0689713e-07 
2.4350929e-05 1.8143761e-05 -2.0041145e-05 
4.9363827e-08 5.7272706e-07 -6.0982586e-08 
0.0000000e+00 1.9807809e-05 0.0000000e+00 
0.0000000e+00 -1.0073301e-07 0.0000000e+00 
9.1298637e-07 1.9531073e-05 -1.4185001e-05 
6.8922291e-06 3.0745206e-05 9.3468543e-06 
3.1711723e-05 6.2293220e-05 -1.6175906e-06 
2.0292751e-05 1.1027748e-04 -2.0268119e-06 
4.2699475e-07 1.6267126e-04 -1.2894028e-05 
3.0619878e-05 2.0326537e-04 -1.4192619e-06 
3.9648352e-05 2.3046073e-04 2.9133837e-06 
7.1799791e-06 2.5954426e-04 2.1695223e-05 
6.0199432e-07 2.9106054e-04 6.8925699e-05 
1.2545541e-05 2.7744879e-04 8.0469115e-05 
-4.1343832e-05 1.2814955e-04 1.2691662e-04 
-2.7407048e-05 -2.7865195e-04 1.2950088e-04 
-3.7510945e-05 -1.0052559e-03 2.4871156e-04 
-1.5097433e-04 -1.9990788e-03 1.8826635e-04 
-1.5357220e-04 -3.1464633e-03 3.3310964e-04 
-2.4499185e-04 -4.1446709e-03 1.6397564e-04 
-2.5425034e-04 -4.6461811e-03 1.8298907e-04 
-2.1688608e-04 -4.6256026e-03 1.6007156e-04 
-2.1114248e-04 -4.6237619e-03 1.1755784e-04 
-2.1698065e-04 -4.8001623e-03 2.3998242e-05 
-2.8699721e-04 -4.9435408e-03 -3.1930933e-06 
-3.1718175e-04 -4.5179040e-03 -1.0365133e-04 
-2.4968592e-04 -3.4883085e-03 -2.8583981e-04 
-1.6223856e-04 -2.3124076e-03 -1.9029110e-04 
-1.2240259e-04 -1.3545607e-03 -2.7200129e-04 
-8.0368409e-05 -6.7771378e-04 -1.2658643e-04 
-5.8268717e-05 -2.6243820e-04 -7.9491503e-05 
-7.0675203e-05 -4.7196590e-05 -1.8025059e-05 
-9.0276706e-05 3.4312921e-05 -6.1516876e-05 
-7.8208504e-05 4.7152207e-05 -1.2363377e-04 
-4.7500529e-05 4.2088792e-05 -1.4769199e-04 
-1.8214199e-05 3.3347918e-05 -1.2765877e-04 
2.7599983e-05 1.2536791e-05 -5.9749887e-05 
2.8607681e-05 -3.0759758e-05 1.0900677e-06 
1.3568887e-06 -8.8381079e-05 5.6334291e-05 
-4.6553214e-06 -1.3466210e-04 8.8090572e-05 
-5.4597716e-05 -1.4865876e-04 7.7874996e-05 
-2.3583045e-05 -1.3326746e-04 4.4003973e-05 
-3.8548063e-05 -1.0641183e-04 1.0609018e-05 
-9.6571257e-06 -9.2521288e-05 -2.7865610e-05 
3.0159722e-06 -9.4054201e-05 -5.2592910e-05 
-1.0144461e-05 -8.9755908e-05 -4.5019209e-05 
-3.3551281e-05 -5.6253000e-05 -4.8913349e-05 
-1.6494445e-05 9.3334966e-06 -5.5063505e-05 
-2.2213570e-05 8.4421721e-05 -5.5315137e-05 
5.6175412e-07 1.3432013e-04 -5.7809877e-05 
-3.8630424e-06 1.5585337e-04 -7.9634206e-05 
-3.7374502e-06 1.6887553e-04 -4.9751914e-05 
-1.0710370e-05 1.8727849e-04 -3.6474255e-05 
1.1458880e-05 1.8413179e-04 -1.4841554e-05 
-2.9513826e-06 6.6622015e-05 6.1536979e-05 
-1.7744600e-05 -3.0682920e-04 5.1189341e-05 
-2.7329015e-05 -1.0472824e-03 1.6957874e-04 
-1.0931175e-04 -2.1361662e-03 1.2140965e-04 
-1.5297013e-04 -3.3952969e-03 2.7714091e-04 
-2.6274775e-04 -4.3536909e-03 1.5397585e-04 
-2.7264908e-04 -4.6226764e-03 1.9241891e-04 
-2.5072132e-04 -4.5018876e-03 1.8030613e-04 
-2.6746216e-04 -4.5483885e-03 1.3031680e-04 
-3.1314004e-04 -4.7902148e-03 7.8466510e-05 
-3.2730468e-04 -4.8975833e-03 5.9349415e-05 
-2.9790978e-04 -4.2811939e-03 3.9305083e-05 
-2.6407282e-04 -3.2005035e-03 -1.6336101e-04 
-1.8693892e-04 -2.0624585e-03 -1.2522799e-04 
-1.6960771e-04 -1.1262845e-03 -2.8008554e-04 
-1.0668475e-04 -4.5415378e-04 -2.2887095e-04 
-5.4278156e-05 -5.2745672e-05 -2.4447468e-04 
-1.0097718e-05 1.3584750e-04 -1.8116647e-04 
2.0766929e-05 1.9288094e-04 -1.6786600e-04 
-3.7583650e-06 1.9108450e-04 -1.3657947e-04 
2.3260622e-05 1.6864709e-04 -1.2381963e-04 
3.0441181e-05 1.3669429e-04 -8.5032967e-05 
4.3763011e-05 9.1325288e-05 -1.9229894e-05 
3.2298216e-05 4.0603049e-05 4.3251788e-05 
2.6859758e-05 -2.1961675e-06 8.6313208e-05 
1.1074631e-05 -2.8595037e-05 9.3471717e-05 
-1.9024610e-05 -4.0072813e-05 7.0944501e-05 
-1.8411236e-05 -4.1546635e-05 3.4503966e-05 
-1.7937817e-05 -3.4854682e-05 3.6264478e-06 
-9.1065485e-06 -2.1360338e-05 -1.2820889e-05 
1.3923262e-06 -3.7126920e-06 -1.9525320e-05 
2.6029720e-06 1.1598299e-05 -1.6234770e-05 
4.9365503e-06 1.8585686e-05 -1.0151125e-05 
2.4404978e-06 1.7085267e-05 -2.5691354e-06 
7.1260352e-08 1.0770534e-05 3.4893435e-06 
-9.0520302e-07 4.1877884e-06 4.6309051e-06 
-2.5220827e-06 -2.1811103e-07 4.8607412e-06 
-1.5233892e-06 -2.4623105e-06 1.0830292e-06 
-9.4326879e-07 -3.1268944e-06 -2.5715531e-07 
-2.8404004e-08 -2.6684204e-06 -1.8106545e-06 
9.2457896e-07 -1.5501546e-06 -2.8707568e-06 
1.0647791e-06 -3.8241626e-07 -2.0051095e-06 
8.9900971e-07 2.0585183e-07 -1.0966631e-06 
3.5197732e-07 1.0615859e-07 -3.5297307e-07 
-1.5453560e-07 -2.5884091e-07 7.9692910e-07 
-1.4987496e-07 -3.9478783e-07 7.2104319e-07 
-1.8798555e-07 -1.8185290e-07 6.8274448e-07 
-5.5185581e-07 1.6465988e-07 3.5384204e-07 
-1.6298407e-07 4.5738136e-07 8.3277577e-08 
0.0000000e+00 1.7173583e-05 0.0000000e+00 
0.0000000e+00 1.9147441e-05 0.0000000e+00 
0.0000000e+00 3.1828098e-05 0.0000000e+00 
0.0000000e+00 6.3512947e-05 0.0000000e+00 
0.0000000e+00 1.1112698e-04 0.0000000e+00 
0.0000000e+00 1.6186686e-04 0.0000000e+00 
0.0000000e+00 2.0169841e-04 0.0000000e+00 
0.0000000e+00 2.3065580e-04 0.0000000e+00 
0.0000000e+00 2.6202467e-04 0.0000000e+00 
0.0000000e+00 2.9410227e-04 0.0000000e+00 
0.0000000e+00 2.8028866e-04 0.0000000e+00 
0.0000000e+00 1.2585062e-04 0.0000000e+00 
0.0000000e+00 -2.8503733e-04 0.0000000e+00 
0.0000000e+00 -1.0103522e-03 0.0000000e+00 
0.0000000e+00 -2.0098260e-03 0.0000000e+00 
0.0000000e+00 -3.1578089e-03 0.0000000e+00 
0.0000000e+00 -4.1721785e-03 0.0000000e+00 
0.0000000e+00 -4.6704174e-03 0.0000000e+00 
0.0000000e+00 -4.6566399e-03 0.0000000e+00 
0.0000000e+00 -4.6440805e-03 0.0000000e+00 
0.0000000e+00 -4.8258542e-03 0.0000000e+00 
0.0000000e+00 -4.9662809e-03 0.0000000e+00 
0.0000000e+00 -4.5479918e-03 0.0000000e+00 
0.0000000e+00 -3.5047736e-03 0.0000000e+00 
0.0000000e+00 -2.3262820e-03 0.0000000e+00 
0.0000000e+00 -1.3581269e-03 0.0000000e+00 
0.0000000e+00 -6.7965820e-04 0.0000000e+00 
0.0000000e+00 -2.6296958e-04 0.0000000e+00 
0.0000000e+00 -4.7050482e-05 0.0000000e+00 
0.0000000e+00 3.5286652e-05 0.0000000e+00 
0.0000000e+00 4.9116796e-05 0.0000000e+00 
0.0000000e+00 4.3235395e-05 0.0000000e+00 
0.0000000e+00 3.3289944e-05 0.0000000e+00 
0.0000000e+00 1.1465117e-05 0.0000000e+00 
0.0000000e+00 -3.1651398e-05 0.0000000e+00 
0.0000000e+00 -8.8129884e-05 0.0000000e+00 
0.0000000e+00 -1.3344511e-04 0.0000000e+00 
0.0000000e+00 -1.4778516e-04 0.0000000e+00 
0.0000000e+00 -1.3279260e-04 0.0000000e+00 
0.0000000e+00 -1.0730364e-04 0.0000000e+00 
0.0000000e+00 -9.3676885e-05 0.0000000e+00 
0.0000000e+00 -9.4455550e-05 0.0000000e+00 
0.0000000e+00 -8.9027591e-05 0.0000000e+00 
0.0000000e+00 -5.4807177e-05 0.0000000e+00 
0.0000000e+00 1.0487300e-05 0.0000000e+00 
0.0000000e+00 8.3445761e-05 0.0000000e+00 
0.0000000e+00 1.3334343e-04 0.0000000e+00 
0.0000000e+00 1.5582109e-04 0.0000000e+00 
0.0000000e+00 1.7051466e-04 0.0000000e+00 
0.0000000e+00 1.9053447e-04 0.0000000e+00 
0.0000000e+00 1.8700327e-04 0.0000000e+00 
0.0000000e+00 6.6202134e-05 0.0000000e+00 
0.0000000e+00 -3.1218259e-04 0.0000000e+00 
0.0000000e+00 -1.0562683e-03 0.0000000e+00 
0.0000000e+00 -2.1527719e-03 0.0000000e+00 
0.0000000e+00 -3.4075321e-03 0.0000000e+00 
0.0000000e+00 -4.3805880e-03 0.0000000e+00 
0.0000000e+00 -4.6452172e-03 0.0000000e+00 
0.0000000e+00 -4.5332653e-03 0.0000000e+00 
0.0000000e+00 -4.5685056e-03 0.0000000e+00 
0.0000000e+00 -4.8191352e-03 0.0000000e+00 
0.0000000e+00 -4.9179308e-03 0.0000000e+00 
0.0000000e+00 -4.3083951e-03 0.0000000e+00 
0.0000000e+00 -3.2130685e-03 0.0000000e+00 
0.0000000e+00 -2.0718642e-03 0.0000000e+00 
0.0000000e+00 -1.1293669e-03 0.0000000e+00 
0.0000000e+00 -4.5723925e-04 0.0000000e+00 
0.0000000e+00 -5.3511536e-05 0.0000000e+00 
0.0000000e+00 1.3695574e-04 0.0000000e+00 
0.0000000e+00 1.9484044e-04 0.0000000e+00 
0.0000000e+00 1.9222587e-04 0.0000000e+00 
0.0000000e+00 1.6908861e-04 0.0000000e+00 
0.0000000e+00 1.3616943e-04 0.0000000e+00 
0.0000000e+00 9.1240086e-05 0.0000000e+00 
0.0000000e+00 4.0957042e-05 0.0000000e+00 
0.0000000e+00 -1.7737915e-06 0.0000000e+00 
0.0000000e+00 -2.8568156e-05 0.0000000e+00 
0.0000000e+00 -4.0254716e-05 0.0000000e+00 
0.0000000e+00 -4.1468320e-05 0.0000000e+00 
0.0000000e+00 -3.4721765e-05 0.0000000e+00 
0.0000000e+00 -2.1221671e-05 0.0000000e+00 
0.0000000e+00 -3.8278049e-06 0.0000000e+00 
0.0000000e+00 1.1267258e-05 0.0000000e+00 
0.0000000e+00 1.8437522e-05 0.0000000e+00 
0.0000000e+00 1.7116477e-05 0.0000000e+00 
0.0000000e+00 1.0896802e-05 0.0000000e+00 
0.0000000e+00 4.2869005e-06 0.0000000e+00 
0.0000000e+00 -2.1293214e-07 0.0000000e+00 
0.0000000e+00 -2.4716708e-06 0.0000000e+00 
0.0000000e+00 -3.1148074e-06 0.0000000e+00 
0.0000000e+00 -2.6573550e-06 0.0000000e+00 
0.0000000e+00 -1.5602858e-06 0.0000000e+00 
0.0000000e+00 -4.1927115e-07 0.0000000e+00 
0.0000000e+00 1.8156885e-07 0.0000000e+00 
0.0000000e+00 1.1467763e-07 0.0000000e+00 
0.0000000e+00 -2.3104998e-07 0.0000000e+00 
0.0000000e+00 -3.8032849e-07 0.0000000e+00 
0.0000000e+00 -1.9375439e-07 0.0000000e+00 
0.0000000e+00 1.5399772e-07 0.0000000e+00 
0.0000000e+00 4.5724255e-07 0.0000000e+00 
0.0000000e+00 5.7705415e-07 0.0000000e+00 
1.6561518e-06 1.7627917e-05 -1.0428369e-05 
3.1736305e-05 1.3808745e-04 -8.1965591e-05 
0.0000000e+00 0.0000000e+00 0.0000000e+00 
0.0000000e+00 0.0000000e+00 0.0000000e+00 
0.0000000e+00 0.0000000e+00 0.0000000e+00 
0.0000000e+00 0.0000000e+00 0.0000000e+00 
0.0000000e+00 0.0000000e+00 0.0000000e+00 
0.0000000e+00 0.0000000e+00 0.0000000e+00 
0.0000000e+00 0.0000000e+00 0.0000000e+00 
0.0000000e+00 0.0000000e+00 0.0000000e+00 
0.0000000e+00 0.0000000e+00 0.0000000e+00 
0.0000000e+00 0.0000000e+00 0.0000000e+00 
0.0000000e+00 0.0000000e+00 0.0000000e+00 
0.0000000e+00 0.0000000e+00 0.0000000e+00 
0.0000000e+00 0.0000000e+00 0.0000000e+00 
0.0000000e+00 0.0000000e+00 0.0000000e+00 
0.0000000e+00 0.0000000e+00 0.0000000e+00 
0.0000000e+00 0.0000000e+00 0.0000000e+00 
0.0000000e+00 0.0000000e+00 0.0000000e+00 
0.0000000e+00 0.0000000e+00 0.0000000e+00 
0.0000000e+00 0.0000000e+00 0.0000000e+00 
0.0000000e+00 0.0000000e+00 0.0000000e+00 
0.0000000e+00 0.0000000e+00 0.0000000e+00 
0.0000000e+00 0.0000000e+00 0.0000000e+00 
0.0000000e+00 0.0000000e+00 0.0000000e+00 
0.0000000e+00 0.0000000e+00 0.0000000e+00 
0.0000000e+00 0.0000000e+00 0.0000000e+00 
0.0000000e+00 0.0000000e+00 0.0000000e+00 
0.0000000e+00 0.0000000e+00 0.0000000e+00 
0.0000000e+00 0.0000000e+00 0.0000000e+00 
0.0000000e+00 0.0000000e+00 0.0000000e+00 
0.0000000e+00 0.0000000e+00 0.0000000e+00 
0.0000000e+00 0.0000000e+00 0.0000000e+00 
0.0000000e+00 0.0000000e+00 0.0000000e+00 
0.0000000e+00 0.0000000e+00 0.0000000e+00 
0.0000000e+00 0.0000000e+00 0.0000000e+00 
0.0000000e+00 0.0000000e+00 0.0000000e+00 
0.0000000e+00 0.0000000e+00 0.0000000e+00 
0.0000000e+00 0.0000000e+00 0.0000000e+00 
0.0000000e+00 0.0000000e+00 0.0000000e+00 
0.0000000e+00 0.0000000e+00 0.0000000e+00 
0.0000000e+00 0.0000000e+00 0.0000000e+00 
0.0000000e+00 0.0000000e+00 0.0000000e+00 
0.0000000e+00 0.0000000e+00 0.0000000e+00 
0.0000000e+00 0.0000000e+00 0.0000000e+00 
0.0000000e+00 0.0000000e+00 0.0000000e+00 
0.0000000e+00 0.0000000e+00 0.0000000e+00 
0.0000000e+00 0.0000000e+00 0.0000000e+00 
0.0000000e+00 0.0000000e+00 0.0000000e+00 
0.0000000e+00 0.0000000e+00 0.0000000e+00 
0.0000000e+00 0.0000000e+00 0.0000000e+00 
0.0000000e+00 0.0000000e+00 0.0000000e+00 
0.0000000e+00 0.0000000e+00 0.0000000e+00 
0.0000000e+00 0.0000000e+00 0.0000000e+00 
0.0000000e+00 0.0000000e+00 0.0000000e+00 
0.0000000e+00 0.0000000e+00 0.0000000e+00 
0.0000000e+00 0.0000000e+00 0.0000000e+00 
0.0000000e+00 0.0000000e+00 0.0000000e+00 
0.0000000e+00 0.0000000e+00 0.0000000e+00 
0.0000000e+00 0.0000000e+00 0.0000000e+00 
0.0000000e+00 0.0000000e+00 0.0000000e+00 
0.0000000e+00 0.0000000e+00 0.0000000e+00 
0.0000000e+00 0.0000000e+00 0.0000000e+00 
0.0000000e+00 0.0000000e+00 0.0000000e+00 
0.0000000e+00 0.0000000e+00 0.0000000e+00 
0.0000000e+00 0.0000000e+00 0.0000000e+00 
0.0000000e+00 0.0000000e+00 0.0000000e+00 
0.0000000e+00 0.0000000e+00 0.0000000e+00 
0.0000000e+00 0.0000000e+00 0.0000000e+00 
0.0000000e+00 0.0000000e+00 0.0000000e+00 
0.0000000e+00 0.0000000e+00 0.0000000e+00 
0.0000000e+00 0.0000000e+00 0.0000000e+00 
0.0000000e+00 0.0000000e+00 0.0000000e+00 
0.0000000e+00 0.0000000e+00 0.0000000e+00 
0.0000000e+00 0.0000000e+00 0.0000000e+00 
0.0000000e+00 0.0000000e+00 0.0000000e+00 
0.0000000e+00 0.0000000e+00 0.0000000e+00 
0.0000000e+00 0.0000000e+00 0.0000000e+00 
0.0000000e+00 0.0000000e+00 0.0000000e+00 
0.0000000e+00 0.0000000e+00 0.0000000e+00 
0.0000000e+00 0.0000000e+00 0.0000000e+00 
0.0000000e+00 0.0000000e+00 0.0000000e+00 
0.0000000e+00 0.0000000e+00 0.0000000e+00 
0.0000000e+00 0.0000000e+00 0.0000000e+00 
0.0000000e+00 0.0000000e+00 0.0000000e+00 
0.0000000e+00 0.0000000e+00 0.0000000e+00 
0.0000000e+00 0.0000000e+00 0.0000000e+00 
0.0000000e+00 0.0000000e+00 0.0000000e+00 
0.0000000e+00 0.0000000e+00 0.0000000e+00 
0.0000000e+00 0.0000000e+00 0.0000000e+00 
0.0000000e+00 0.0000000e+00 0.0000000e+00 
0.0000000e+00 0.0000000e+00 0.0000000e+00 
0.0000000e+00 0.0000000e+00 0.0000000e+00 
0.0000000e+00 0.0000000e+00 0.0000000e+00 
0.0000000e+00 0.0000000e+00 0.0000000e+00 
0.0000000e+00 0.0000000e+00 0.0000000e+00 
0.0000000e+00 0.0000000e+00 0.0000000e+00 
0.0000000e+00 0.0000000e+00 0.0000000e+00 
0.0000000e+00 0.0000000e+00 0.0000000e+00 
0.0000000e+00 0.0000000e+00 0.0000000e+00 
0.0000000e+00 0.0000000e+00 0.0000000e+00 
0.0000000e+00 0.0000000e+00 0.0000000e+00 
0.0000000e+00 0.0000000e+00 0.0000000e+00 
0.0000000e+00 0.0000000e+00 0.0000000e+00 
0.0000000e+00 0.0000000e+00 0.0000000e+00 
0.0000000e+00 0.0000000e+00 0.0000000e+00 
0.0000000e+00 0.0000000e+00 0.0000000e+00 
0.0000000e+00 0.0000000e+00 0.0000000e+00 
5.7007838e-07 -2.0170106e-08 -2.5904351e-06 
3.2703276e-06 -2.7077815e-06 -2.5705870e-06 
5.7090951e-06 -2.5030242e-06 -3.7008300e-07 
1.0413520e-05 -2.0933383e-06 -3.3065276e-06 
1.6010543e-05 -6.7507440e-06 -4.0448667e-06 
1.8863268e-05 -1.0020466e-05 -6.9013504e-06 
2.9630304e-05 -9.3639974e-06 -1.0602235e-05 
4.0690065e-05 -1.6299013e-05 -1.0893730e-05 
5.2030118e-05 -1.7282273e-05 -5.8478181e-06 
5.3604341e-05 -2.0546255e-05 6.6754610e-06 
4.1042822e-05 -1.4495307e-05 1.3523221e-05 
2.4785084e-05 -1.0361490e-05 1.1971495e-05 
1.8005603e-05 -1.8252753e-07 8.7355957e-06 
8.9817850e-06 3.4899740e-06 1.0520414e-05 
-2.3048183e-06 5.2483447e-06 7.3030983e-06 
-2.7681372e-06 -1.8283881e-06 3.3571806e-07 
5.9765684e-06 3.8020255e-07 -4.8849529e-06 
1.0561113e-05 1.3094834e-06 -2.9848250e-06 
1.1744570e-05 2.2561751e-06 -2.9931841e-06 
5.9815789e-06 -7.4495451e-06 -2.5905731e-06 
9.2606950e-07 8.8176535e-07 -5.9462565e-07 
4.6826094e-06 2.2468234e-06 -7.2482385e-07 
8.4171006e-06 -3.0228116e-06 1.7943532e-06 
6.0553348e-06 3.1177185e-06 5.7243903e-07 
1.3076901e-05 -4.3880740e-07 -7.2116524e-07 
2.2926693e-05 -5.0395256e-06 -5.1330212e-06 
3.0687945e-05 -7.9167739e-06 -7.6047672e-06 
4.2404794e-05 -1.4316922e-05 -4.5699285e-06 
4.7204652e-05 -2.1073618e-05 -3.3023398e-06 
5.2518273e-05 -1.6678185e-05 4.4622639e-06 
4.3396201e-05 -1.2307512e-05 1.1388678e-05 
2.6569120e-05 -1.0358442e-05 1.2579132e-05 
1.0511192e-05 -2.6624705e-06 1.1403916e-05 
5.0392833e-07 2.0829145e-06 8.5458569e-06 
-1.9570768e-06 1.8300534e-06 3.2543478e-06 
-1.4770613e-06 2.3095538e-07 4.6699674e-07 
-2.5903319e-07 -2.0105622e-06 -2.3670195e-07 
1.4620323e-06 -4.6418910e-07 5.1417419e-07 
1.8030132e-06 9.7399253e-09 6.7436139e-07 
1.4898535e-07 -5.9950264e-07 -3.0783934e-07 
-1.6124678e-06 7.4991782e-08 5.8017855e-07 
-6.9097013e-07 2.9626901e-07 5.6310614e-07 
6.6811975e-07 -2.1279877e-07 6.2640299e-07 
4.8174530e-07 -4.8240064e-08 8.5402667e-07 
2.7242547e-07 -1.1674008e-07 3.2871415e-07 
1.7626011e-08 -5.4132009e-08 -1.1661439e-07 
-1.3270738e-07 1.0489482e-07 -4.2488830e-07 
-6.0453722e-08 1.5167457e-08 -2.0707071e-07 
-5.7090087e-08 2.4141203e-08 -1.7945165e-08 
0.0000000e+00 -8.4143776e-06 0.0000000e+00 
0.0000000e+00 -2.1015841e-05 0.0000000e+00 
0.0000000e+00 -4.3581626e-05 0.0000000e+00 
0.0000000e+00 -2.8400234e-05 0.0000000e+00 
0.0000000e+00 3.1562857e-05 0.0000000e+00 
0.0000000e+00 -4.3985776e-05 0.0000000e+00 
0.0000000e+00 -1.8158079e-04 0.0000000e+00 
0.0000000e+00 -3.2862116e-04 0.0000000e+00 
0.0000000e+00 -5.0608435e-04 0.0000000e+00 
0.0000000e+00 -5.5553851e-04 0.0000000e+00 
0.0000000e+00 -5.0529814e-04 0.0000000e+00 
0.0000000e+00 -3.0373383e-04 0.0000000e+00 
0.0000000e+00 -1.1539406e-04 0.0000000e+00 
0.0000000e+00 -1.7108809e-05 0.0000000e+00 
0.0000000e+00 3.2999564e-05 0.0000000e+00 
0.0000000e+00 4.4461380e-05 0.0000000e+00 
0.0000000e+00 -2.5199663e-05 0.0000000e+00 
0.0000000e+00 -8.1176389e-05 0.0000000e+00 
0.0000000e+00 -1.1860664e-04 0.0000000e+00 
0.0000000e+00 -1.5808656e-04 0.0000000e+00 
0.0000000e+00 -1.6012850e-04 0.0000000e+00 
0.0000000e+00 -1.0114795e-04 0.0000000e+00 
0.0000000e+00 -1.2264196e-04 0.0000000e+00 
0.0000000e+00 -7.4939708e-05 0.0000000e+00 
0.0000000e+00 5.7449697e-06 0.0000000e+00 
0.0000000e+00 -6.3519634e-05 0.0000000e+00 
0.0000000e+00 -2.1353920e-04 0.0000000e+00 
0.0000000e+00 -3.2329423e-04 0.0000000e+00 
0.0000000e+00 -4.9030164e-04 0.0000000e+00 
0.0000000e+00 -5.0255499e-04 0.0000000e+00 
0.0000000e+00 -4.3869429e-04 0.0000000e+00 
0.0000000e+00 -3.1810583e-04 0.0000000e+00 
0.0000000e+00 -1.5288466e-04 0.0000000e+00 
0.0000000e+00 -8.8570814e-06 0.0000000e+00 
0.0000000e+00 2.8285447e-05 0.0000000e+00 
0.0000000e+00 4.1898184e-05 0.0000000e+00 
0.0000000e+00 3.5385434e-05 0.0000000e+00 
0.0000000e+00 -8.0155196e-06 0.0000000e+00 
0.0000000e+00 -2.0904394e-05 0.0000000e+00 
0.0000000e+00 -6.4748169e-06 0.0000000e+00 
0.0000000e+00 4.1970052e-06 0.0000000e+00 
0.0000000e+00 3.8941157e-06 0.0000000e+00 
0.0000000e+00 1.0667105e-06 0.0000000e+00 
0.0000000e+00 -1.8926727e-07 0.0000000e+00 
0.0000000e+00 -3.4812220e-07 0.0000000e+00 
0.0000000e+00 -6.2607097e-07 0.0000000e+00 
0.0000000e+00 -5.3758856e-07 0.0000000e+00 
0.0000000e+00 4.5649787e-07 0.0000000e+00 
0.0000000e+00 5.9706650e-07 0.0000000e+00 
-4.3911064e-06 -3.4827085e-06 9.3461949e-07 
-2.5543918e-06 2.9406525e-07 2.7427918e-06 
-8.2864080e-06 1.1887082e-05 2.9190930e-06 
-1.8135967e-06 2.3501470e-05 1.1111618e-05 
-1.6408954e-08 -2.8414290e-08 5.1629872e-08 
1.1361592e-08 -5.8026306e-08 5.5487277e-08 
7.6695763e-08 -2.9922774e-08 3.3644795e-08 
-2.4701558e-08 -1.3499042e-07 1.1538665e-07 
3.5067951e-06 5.3124137e-07 -6.1443670e-06 
7.2645125e-06 -5.1015868e-06 -5.5463329e-07 
1.4392771e-05 2.7796659e-06 -2.3586440e-06 
2.2099310e-05 3.5083360e-06 -5.3048302e-06 
2.1138421e-05 -9.9062117e-06 -6.1142209e-06 
3.0798452e-05 -4.7820445e-06 -6.1298983e-06 
3.5732719e-05 -1.0371812e-05 -4.1485682e-06 
3.9946448e-05 -1.7334332e-05 -7.0529927e-06 
4.7842223e-05 -1.3756730e-05 -1.5961181e-06 
4.4694589e-05 -1.7410464e-05 4.6385840e-06 
3.1456428e-05 -9.0939257e-06 1.5373633e-05 
1.7633742e-05 -6.4325063e-06 1.2365310e-05 
6.3882503e-06 4.4704971e-06 2.7726873e-07 
6.6014450e-06 6.2801823e-06 8.1364869e-06 
-4.6408732e-06 1.2957773e-05 8.9678761e-06 
-1.3736578e-05 -6.9145284e-07 4.2604497e-06 
-4.9000350e-06 1.2167566e-06 8.4062970e-07 
-5.1639785e-07 -2.5817824e-08 -4.6548366e-06 
-1.1377936e-06 2.5978900e-06 -6.4815836e-06 
-3.7130785e-06 -1.5739246e-05 -5.8549913e-06 