# vtk DataFile Version 4.0
vtk output
ASCII
DATASET UNSTRUCTURED_GRID
POINTS 1919 float
0.0000000e+00 0.0000000e+00 0.0000000e+00 
0.0000000e+00 0.0000000e+00 5.0000000e+01 
5.0000000e+00 0.0000000e+00 0.0000000e+00 
5.0000000e+00 0.0000000e+00 5.0000000e+01 
5.0000000e+00 1.0000000e+00 0.0000000e+00 
5.0000000e+00 1.0000000e+00 5.0000000e+01 
0.0000000e+00 1.0000000e+00 0.0000000e+00 
0.0000000e+00 1.0000000e+00 5.0000000e+01 
5.0000000e+00 2.0000000e+00 0.0000000e+00 
5.0000000e+00 2.0000000e+00 5.0000000e+01 
3.0000000e+00 2.0000000e+00 0.0000000e+00 
3.0000000e+00 2.0000000e+00 5.0000000e+01 
0.0000000e+00 2.0000000e+00 0.0000000e+00 
0.0000000e+00 2.0000000e+00 5.0000000e+01 
1.5000000e+00 3.0000000e+00 0.0000000e+00 
1.5000000e+00 3.0000000e+00 5.0000000e+01 
7.5000000e-01 3.0000000e+00 0.0000000e+00 
7.5000000e-01 3.0000000e+00 5.0000000e+01 
0.0000000e+00 3.0000000e+00 0.0000000e+00 
0.0000000e+00 3.0000000e+00 5.0000000e+01 
7.5000000e-01 3.0000000e+00 5.0000000e-01 
7.5000000e-01 3.0000000e+00 1.0000000e+00 
7.5000000e-01 3.0000000e+00 1.5000000e+00 
7.5000000e-01 3.0000000e+00 2.0000000e+00 
7.5000000e-01 3.0000000e+00 2.5000000e+00 
7.5000000e-01 3.0000000e+00 3.0000000e+00 
7.5000000e-01 3.0000000e+00 3.5000000e+00 
7.5000000e-01 3.0000000e+00 4.0000000e+00 
7.5000000e-01 3.0000000e+00 4.5000000e+00 
7.5000000e-01 3.0000000e+00 5.0000000e+00 
7.5000000e-01 3.0000000e+00 5.5000000e+00 
7.5000000e-01 3.0000000e+00 6.0000000e+00 
7.5000000e-01 3.0000000e+00 6.5000000e+00 
7.5000000e-01 3.0000000e+00 7.0000000e+00 
7.5000000e-01 3.0000000e+00 7.5000000e+00 
7.5000000e-01 3.0000000e+00 8.0000000e+00 
7.5000000e-01 3.0000000e+00 8.5000000e+00 
7.5000000e-01 3.0000000e+00 9.0000000e+00 
7.5000000e-01 3.0000000e+00 9.5000000e+00 
7.5000000e-01 3.0000000e+00 1.0000000e+01 
7.5000000e-01 3.0000000e+00 1.0500000e+01 
7.5000000e-01 3.0000000e+00 1.1000000e+01 
7.5000000e-01 3.0000000e+00 1.1500000e+01 
7.5000000e-01 3.0000000e+00 1.2000000e+01 
7.5000000e-01 3.0000000e+00 1.2500000e+01 
7.5000000e-01 3.0000000e+00 1.3000000e+01 
7.5000000e-01 3.0000000e+00 1.3500000e+01 
7.5000000e-01 3.0000000e+00 1.4000000e+01 
7.5000000e-01 3.0000000e+00 1.4500000e+01 
7.5000000e-01 3.0000000e+00 1.5000000e+01 
7.5000000e-01 3.0000000e+00 1.5500000e+01 
7.5000000e-01 3.0000000e+00 1.6000000e+01 
7.5000000e-01 3.0000000e+00 1.6500000e+01 
7.5000000e-01 3.0000000e+00 1.7000000e+01 
7.5000000e-01 3.0000000e+00 1.7500000e+01 
7.5000000e-01 3.0000000e+00 1.8000000e+01 
7.5000000e-01 3.0000000e+00 1.8500000e+01 
7.5000000e-01 3.0000000e+00 1.9000000e+01 
7.5000000e-01 3.0000000e+00 1.9500000e+01 
7.5000000e-01 3.0000000e+00 2.0000000e+01 
7.5000000e-01 3.0000000e+00 2.0500000e+01 
7.5000000e-01 3.0000000e+00 2.1000000e+01 
7.5000000e-01 3.0000000e+00 2.1500000e+01 
7.5000000e-01 3.0000000e+00 2.2000000e+01 
7.5000000e-01 3.0000000e+00 2.2500000e+01 
7.5000000e-01 3.0000000e+00 2.3000000e+01 
7.5000000e-01 3.0000000e+00 2.3500000e+01 
7.5000000e-01 3.0000000e+00 2.4000000e+01 
7.5000000e-01 3.0000000e+00 2.4500000e+01 
7.5000000e-01 3.0000000e+00 2.5000000e+01 
7.5000000e-01 3.0000000e+00 2.5500000e+01 
7.5000000e-01 3.0000000e+00 2.6000000e+01 
7.5000000e-01 3.0000000e+00 2.6500000e+01 
7.5000000e-01 3.0000000e+00 2.7000000e+01 
7.5000000e-01 3.0000000e+00 2.7500000e+01 
7.5000000e-01 3.0000000e+00 2.8000000e+01 
7.5000000e-01 3.0000000e+00 2.8500000e+01 
7.5000000e-01 3.0000000e+00 2.9000000e+01 
7.5000000e-01 3.0000000e+00 2.9500000e+01 
7.5000000e-01 3.0000000e+00 3.0000000e+01 
7.5000000e-01 3.0000000e+00 3.0500000e+01 
7.5000000e-01 3.0000000e+00 3.1000000e+01 
7.5000000e-01 3.0000000e+00 3.1500000e+01 
7.5000000e-01 3.0000000e+00 3.2000000e+01 
7.5000000e-01 3.0000000e+00 3.2500000e+01 
7.5000000e-01 3.0000000e+00 3.3000000e+01 
7.5000000e-01 3.0000000e+00 3.3500000e+01 
7.5000000e-01 3.0000000e+00 3.4000000e+01 
7.5000000e-01 3.0000000e+00 3.4500000e+01 
7.5000000e-01 3.0000000e+00 3.5000000e+01 
7.5000000e-01 3.0000000e+00 3.5500000e+01 
7.5000000e-01 3.0000000e+00 3.6000000e+01 
7.5000000e-01 3.0000000e+00 3.6500000e+01 
7.5000000e-01 3.0000000e+00 3.7000000e+01 
7.5000000e-01 3.0000000e+00 3.7500000e+01 
7.5000000e-01 3.0000000e+00 3.8000000e+01 
7.5000000e-01 3.0000000e+00 3.8500000e+01 
7.5000000e-01 3.0000000e+00 3.9000000e+01 
7.5000000e-01 3.0000000e+00 3.9500000e+01 
7.5000000e-01 3.0000000e+00 4.0000000e+01 
7.5000000e-01 3.0000000e+00 4.0500000e+01 
7.5000000e-01 3.0000000e+00 4.1000000e+01 
7.5000000e-01 3.0000000e+00 4.1500000e+01 
7.5000000e-01 3.0000000e+00 4.2000000e+01 
7.5000000e-01 3.0000000e+00 4.2500000e+01 
7.5000000e-01 3.0000000e+00 4.3000000e+01 
7.5000000e-01 3.0000000e+00 4.3500000e+01 
7.5000000e-01 3.0000000e+00 4.4000000e+01 
7.5000000e-01 3.0000000e+00 4.4500000e+01 
7.5000000e-01 3.0000000e+00 4.5000000e+01 
7.5000000e-01 3.0000000e+00 4.5500000e+01 
7.5000000e-01 3.0000000e+00 4.6000000e+01 
7.5000000e-01 3.0000000e+00 4.6500000e+01 
7.5000000e-01 3.0000000e+00 4.7000000e+01 
7.5000000e-01 3.0000000e+00 4.7500000e+01 
7.5000000e-01 3.0000000e+00 4.8000000e+01 
7.5000000e-01 3.0000000e+00 4.8500000e+01 
7.5000000e-01 3.0000000e+00 4.9000000e+01 
7.5000000e-01 3.0000000e+00 4.9500000e+01 
7.5000000e-01 3.0250001e+00 0.0000000e+00 
7.5000000e-01 3.0250001e+00 5.0000000e-01 
7.5000000e-01 3.0250001e+00 1.0000000e+00 
7.5000000e-01 3.0250001e+00 1.5000000e+00 
7.5000000e-01 3.0250001e+00 2.0000000e+00 
7.5000000e-01 3.0250001e+00 2.5000000e+00 
7.5000000e-01 3.0250001e+00 3.0000000e+00 
7.5000000e-01 3.0250001e+00 3.5000000e+00 
7.5000000e-01 3.0250001e+00 4.0000000e+00 
7.5000000e-01 3.0250001e+00 4.5000000e+00 
7.5000000e-01 3.0250001e+00 5.0000000e+00 
7.5000000e-01 3.0250001e+00 5.5000000e+00 
7.5000000e-01 3.0250001e+00 6.0000000e+00 
7.5000000e-01 3.0250001e+00 6.5000000e+00 
7.5000000e-01 3.0250001e+00 7.0000000e+00 
7.5000000e-01 3.0250001e+00 7.5000000e+00 
7.5000000e-01 3.0250001e+00 8.0000000e+00 
7.5000000e-01 3.0250001e+00 8.5000000e+00 
7.5000000e-01 3.0250001e+00 9.0000000e+00 
7.5000000e-01 3.0250001e+00 9.5000000e+00 
7.5000000e-01 3.0250001e+00 1.0000000e+01 
7.5000000e-01 3.0250001e+00 1.0500000e+01 
7.5000000e-01 3.0250001e+00 1.1000000e+01 
7.5000000e-01 3.0250001e+00 1.1500000e+01 
7.5000000e-01 3.0250001e+00 1.2000000e+01 
7.5000000e-01 3.0250001e+00 1.2500000e+01 
7.5000000e-01 3.0250001e+00 1.3000000e+01 
7.5000000e-01 3.0250001e+00 1.3500000e+01 
7.5000000e-01 3.0250001e+00 1.4000000e+01 
7.5000000e-01 3.0250001e+00 1.4500000e+01 
7.5000000e-01 3.0250001e+00 1.5000000e+01 
7.5000000e-01 3.0250001e+00 1.5500000e+01 
7.5000000e-01 3.0250001e+00 1.6000000e+01 
7.5000000e-01 3.0250001e+00 1.6500000e+01 
7.5000000e-01 3.0250001e+00 1.7000000e+01 
7.5000000e-01 3.0250001e+00 1.7500000e+01 
7.5000000e-01 3.0250001e+00 1.8000000e+01 
7.5000000e-01 3.0250001e+00 1.8500000e+01 
7.5000000e-01 3.0250001e+00 1.9000000e+01 
7.5000000e-01 3.0250001e+00 1.9500000e+01 
7.5000000e-01 3.0250001e+00 2.0000000e+01 
7.5000000e-01 3.0250001e+00 2.0500000e+01 
7.5000000e-01 3.0250001e+00 2.1000000e+01 
7.5000000e-01 3.0250001e+00 2.1500000e+01 
7.5000000e-01 3.0250001e+00 2.2000000e+01 
7.5000000e-01 3.0250001e+00 2.2500000e+01 
7.5000000e-01 3.0250001e+00 2.3000000e+01 
7.5000000e-01 3.0250001e+00 2.3500000e+01 
7.5000000e-01 3.0250001e+00 2.4000000e+01 
7.5000000e-01 3.0250001e+00 2.4500000e+01 
7.5000000e-01 3.0250001e+00 2.5000000e+01 
7.5000000e-01 3.0250001e+00 2.5500000e+01 
7.5000000e-01 3.0250001e+00 2.6000000e+01 
7.5000000e-01 3.0250001e+00 2.6500000e+01 
7.5000000e-01 3.0250001e+00 2.7000000e+01 
7.5000000e-01 3.0250001e+00 2.7500000e+01 
7.5000000e-01 3.0250001e+00 2.8000000e+01 
7.5000000e-01 3.0250001e+00 2.8500000e+01 
7.5000000e-01 3.0250001e+00 2.9000000e+01 
7.5000000e-01 3.0250001e+00 2.9500000e+01 
7.5000000e-01 3.0250001e+00 3.0000000e+01 
7.5000000e-01 3.0250001e+00 3.0500000e+01 
7.5000000e-01 3.0250001e+00 3.1000000e+01 
7.5000000e-01 3.0250001e+00 3.1500000e+01 
7.5000000e-01 3.0250001e+00 3.2000000e+01 
7.5000000e-01 3.0250001e+00 3.2500000e+01 
7.5000000e-01 3.0250001e+00 3.3000000e+01 
7.5000000e-01 3.0250001e+00 3.3500000e+01 
7.5000000e-01 3.0250001e+00 3.4000000e+01 
7.5000000e-01 3.0250001e+00 3.4500000e+01 
7.5000000e-01 3.0250001e+00 3.5000000e+01 
7.5000000e-01 3.0250001e+00 3.5500000e+01 
7.5000000e-01 3.0250001e+00 3.6000000e+01 
7.5000000e-01 3.0250001e+00 3.6500000e+01 
7.5000000e-01 3.0250001e+00 3.7000000e+01 
7.5000000e-01 3.0250001e+00 3.7500000e+01 
7.5000000e-01 3.0250001e+00 3.8000000e+01 
7.5000000e-01 3.0250001e+00 3.8500000e+01 
7.5000000e-01 3.0250001e+00 3.9000000e+01 
7.5000000e-01 3.0250001e+00 3.9500000e+01 
7.5000000e-01 3.0250001e+00 4.0000000e+01 
7.5000000e-01 3.0250001e+00 4.0500000e+01 
7.5000000e-01 3.0250001e+00 4.1000000e+01 
7.5000000e-01 3.0250001e+00 4.1500000e+01 
7.5000000e-01 3.0250001e+00 4.2000000e+01 
7.5000000e-01 3.0250001e+00 4.2500000e+01 
7.5000000e-01 3.0250001e+00 4.3000000e+01 
7.5000000e-01 3.0250001e+00 4.3500000e+01 
7.5000000e-01 3.0250001e+00 4.4000000e+01 
7.5000000e-01 3.0250001e+00 4.4500000e+01 
7.5000000e-01 3.0250001e+00 4.5000000e+01 
7.5000000e-01 3.0250001e+00 4.5500000e+01 
7.5000000e-01 3.0250001e+00 4.6000000e+01 
7.5000000e-01 3.0250001e+00 4.6500000e+01 
7.5000000e-01 3.0250001e+00 4.7000000e+01 
7.5000000e-01 3.0250001e+00 4.7500000e+01 
7.5000000e-01 3.0250001e+00 4.8000000e+01 
7.5000000e-01 3.0250001e+00 4.8500000e+01 
7.5000000e-01 3.0250001e+00 4.9000000e+01 
7.5000000e-01 3.0250001e+00 4.9500000e+01 
7.5000000e-01 3.0250001e+00 5.0000000e+01 
3.0000000e+00 2.0000000e+00 3.6000000e+01 
8.0487806e-01 3.0000000e+00 3.6000000e+01 
0.0000000e+00 0.0000000e+00 1.0000000e+00 
0.0000000e+00 0.0000000e+00 2.0000000e+00 
0.0000000e+00 0.0000000e+00 3.0000000e+00 
0.0000000e+00 0.0000000e+00 4.0000000e+00 
0.0000000e+00 0.0000000e+00 5.0000000e+00 
0.0000000e+00 0.0000000e+00 6.0000000e+00 
0.0000000e+00 0.0000000e+00 7.0000000e+00 
0.0000000e+00 0.0000000e+00 8.0000000e+00 
[...]
POINT_DATA 1919
FIELD FieldData 3
DISPLACEMENT 3 1919  float
0.0000000e+00 0.0000000e+00 0.0000000e+00 
0.0000000e+00 0.0000000e+00 0.0000000e+00 
0.0000000e+00 0.0000000e+00 0.0000000e+00 
0.0000000e+00 0.0000000e+00 0.0000000e+00 
-2.5290224e-06 -7.1896079e-06 -4.2703650e-06 
-1.9281888e-08 4.3737401e-08 -1.0473421e-08 
0.0000000e+00 -6.8709021e-05 0.0000000e+00 
0.0000000e+00 1.5068022e-07 0.0000000e+00 
6.0873413e-06 -4.5118295e-06 -8.5946449e-06 
-1.1295798e-09 2.3672847e-08 5.3947279e-08 
7.8178255e-06 -1.7052035e-06 3.4855168e-06 
5.9335128e-09 -1.1154804e-07 3.8854223e-10 
0.0000000e+00 -8.4308471e-05 0.0000000e+00 
0.0000000e+00 -9.1450900e-08 0.0000000e+00 
4.7024623e-05 1.1423255e-04 6.0150971e-05 
1.7665087e-08 -6.6500428e-07 -1.7176944e-08 
6.6762790e-05 1.6420077e-04 8.4366184e-05 
5.5004136e-08 1.4957518e-06 6.0958925e-08 
0.0000000e+00 3.2387768e-05 0.0000000e+00 
0.0000000e+00 -1.4782489e-06 0.0000000e+00 
8.1931021e-06 1.6119679e-04 8.8441011e-05 
-5.0840040e-06 1.4709141e-04 4.5386081e-05 
-4.5245702e-05 9.9793244e-05 5.3848380e-05 
-3.2230706e-05 2.1279964e-06 9.1320326e-05 
-4.3346058e-06 -1.6496964e-04 1.2008524e-04 
-5.8634119e-05 -4.3963169e-04 1.1665292e-04 
-1.1236897e-04 -8.9893636e-04 2.0119504e-04 
-1.2292272e-04 -1.6535704e-03 1.1675939e-04 
-2.0616344e-04 -2.7467173e-03 2.0701023e-04 
-2.7737112e-04 -3.9860131e-03 3.3763299e-05 
-2.8834908e-04 -4.9208584e-03 5.4495475e-05 
-3.1696580e-04 -4.9688062e-03 -7.5564407e-05 
-3.2190536e-04 -4.6600276e-03 -1.0520200e-04 
-3.0030371e-04 -4.5007309e-03 -1.1070786e-04 
-2.4724763e-04 -4.6167942e-03 -1.1063697e-04 
-2.6222569e-04 -4.5504943e-03 -1.6393546e-04 
-2.1706210e-04 -3.7993020e-03 -2.9878758e-04 
-9.3519520e-05 -2.6582924e-03 -1.9620989e-04 
-7.3173142e-06 -1.5778564e-03 -2.5127822e-04 
1.3113025e-05 -7.3902664e-04 -7.9562284e-05 
2.4757108e-05 -2.0289484e-04 7.4710988e-06 
2.4869103e-06 6.4026186e-05 1.2466386e-04 
-6.6947265e-05 1.3344279e-04 1.6346850e-04 
-8.3120380e-05 9.5602605e-05 1.2803001e-04 
-8.4463769e-05 2.6552094e-05 5.6467758e-05 
-5.9066635e-05 -3.6600570e-05 -3.9503502e-05 
-7.1922718e-06 -7.2137293e-05 -1.0269832e-04 
-3.9348788e-06 -7.4765274e-05 -9.9402874e-05 
2.0939937e-05 -4.8609760e-05 -7.9662634e-05 
3.4033437e-05 -1.1418198e-05 -4.4038839e-05 
3.1669257e-05 2.2130214e-05 -1.9569081e-05 
4.8652542e-05 4.7734127e-05 1.5139238e-05 
3.4873203e-05 7.0919683e-05 1.6592403e-05 
3.8795970e-05 1.0135620e-04 2.9360493e-05 
5.0094299e-05 1.3301229e-04 4.1866966e-05 
6.2407387e-05 1.4665628e-04 4.8742440e-05 
6.6320179e-05 1.2796666e-04 4.1284355e-05 
4.6483005e-05 8.1262115e-05 5.0668503e-05 
1.9687222e-05 3.5502428e-05 3.9380655e-05 
5.2417016e-07 2.8347829e-05 5.8205544e-05 
-1.6663234e-05 6.2974665e-05 7.0642047e-05 
-1.7443090e-05 9.5019386e-05 7.9028054e-05 
-7.8936419e-06 6.9952555e-05 8.0347032e-05 
-3.0485306e-05 -5.9264319e-05 9.5599469e-05 
-6.0928738e-05 -3.0019856e-04 1.3182119e-04 
-7.8462479e-05 -6.5572822e-04 1.0519984e-04 
-1.3213906e-04 -1.1785603e-03 1.8322904e-04 
-1.5811350e-04 -1.9511771e-03 6.9941270e-05 
-2.0562370e-04 -3.0172372e-03 1.5135511e-04 
-3.1769631e-04 -4.2243106e-03 -6.3370586e-05 
-3.4100309e-04 -5.1189559e-03 -9.3661314e-05 
-3.3847755e-04 -5.1071742e-03 -1.8854588e-04 
-3.0449216e-04 -4.7898847e-03 -2.4615903e-04 
-2.6121695e-04 -4.6377750e-03 -2.5403959e-04 
-2.2692255e-04 -4.7809137e-03 -2.0305619e-04 
-2.4749668e-04 -4.7189710e-03 -1.4480663e-04 
-2.4058686e-04 -3.8803169e-03 -2.0374738e-04 
-1.3983557e-04 -2.6461112e-03 -3.7467478e-05 
-1.0503104e-04 -1.5155013e-03 -1.1324424e-04 
-4.9166480e-05 -6.7075971e-04 -1.8807941e-05 
-2.3233804e-05 -1.6752174e-04 -4.1352301e-05 
-2.5952704e-05 7.2320836e-05 2.7394937e-05 
-3.9489198e-05 1.5167335e-04 5.8853417e-05 
-3.8357255e-05 1.4790318e-04 6.2198800e-05 
-4.7970818e-05 1.0621141e-04 1.9932259e-05 
-4.1679628e-05 5.1416620e-05 -5.9015107e-05 
-6.7415608e-06 9.9193085e-06 -1.1236504e-04 
1.6817910e-05 -7.8592602e-06 -1.1681342e-04 
3.1483287e-05 -5.2917298e-06 -8.7186978e-05 
3.1390598e-05 2.5194099e-06 -1.2949575e-05 
2.0345036e-05 5.4010375e-06 1.4277245e-05 
8.4009753e-06 3.8631683e-06 2.9631839e-05 
-3.0471194e-06 4.7478748e-06 3.2487162e-05 
-8.0206783e-06 7.8770345e-06 2.8829267e-05 
-9.6774420e-06 8.3225332e-06 1.8861647e-05 
-7.2189359e-06 3.9618121e-06 4.7428339e-06 
-3.6257024e-06 -2.2252038e-06 -3.2681207e-06 
-1.8635154e-06 -5.9615609e-06 -6.6681864e-06 
1.1612999e-06 -4.9384735e-06 -6.9369203e-06 
1.2041691e-06 -1.4617226e-06 -4.1925550e-06 
1.3109857e-06 6.8426067e-07 -2.6314794e-06 
1.0314506e-06 4.6761630e-07 -6.5466099e-07 
4.0342346e-07 -6.4197411e-07 1.1481004e-06 
2.3333899e-07 -8.5536487e-07 9.7567965e-07 
-1.1298746e-07 7.9168615e-08 1.5657415e-06 
-2.3784833e-07 9.5004805e-07 6.5104450e-07 
-2.6423612e-07 7.8800730e-07 4.2767672e-07 
1.9559744e-07 -5.6014713e-08 -1.7139870e-07 
-3.2586806e-07 -7.0159791e-07 -8.5878412e-08 
-1.7366639e-07 -5.1679729e-07 -6.3751924e-07 
3.0444191e-08 3.7289780e-07 1.2389081e-07 
1.4207234e-07 1.1382691e-06 -3.3943812e-07 
1.2654509e-07 1.0998469e-06 8.7760291e-08 
5.4739516e-08 2.8984678e-07 2.5375866e-07 
-5.8212454e-08 -8.4744983e-07 -1.0063168e-07 
-1.8975359e-09 -1.5747958e-06 1.2631344e-07 
3.9185664e-08 -1.3357630e-06 -2.2750362e-08 
-1.7078506e-07 -2.7806595e-07 -1.2945469e-07 
5.7197056e-08 9.4469442e-07 -1.3079507e-08 
0.0000000e+00 1.6553384e-04 0.0000000e+00 
0.0000000e+00 1.6254636e-04 0.0000000e+00 
0.0000000e+00 1.4635560e-04 0.0000000e+00 
0.0000000e+00 9.8820339e-05 0.0000000e+00 
0.0000000e+00 2.4127135e-06 0.0000000e+00 
0.0000000e+00 -1.6258578e-04 0.0000000e+00 
0.0000000e+00 -4.3653327e-04 0.0000000e+00 
0.0000000e+00 -9.0131455e-04 0.0000000e+00 
0.0000000e+00 -1.6651395e-03 0.0000000e+00 
0.0000000e+00 -2.7616767e-03 0.0000000e+00 
0.0000000e+00 -4.0129093e-03 0.0000000e+00 
0.0000000e+00 -4.9394323e-03 0.0000000e+00 
0.0000000e+00 -4.9939547e-03 0.0000000e+00 
0.0000000e+00 -4.6812710e-03 0.0000000e+00 
0.0000000e+00 -4.5309854e-03 0.0000000e+00 
0.0000000e+00 -4.6388283e-03 0.0000000e+00 
0.0000000e+00 -4.5807823e-03 0.0000000e+00 
0.0000000e+00 -3.8156826e-03 0.0000000e+00 
0.0000000e+00 -2.6732287e-03 0.0000000e+00 
0.0000000e+00 -1.5844386e-03 0.0000000e+00 
0.0000000e+00 -7.4382214e-04 0.0000000e+00 
0.0000000e+00 -2.0446508e-04 0.0000000e+00 
0.0000000e+00 6.3880347e-05 0.0000000e+00 
0.0000000e+00 1.3458125e-04 0.0000000e+00 
0.0000000e+00 9.7436721e-05 0.0000000e+00 
0.0000000e+00 2.6981697e-05 0.0000000e+00 
0.0000000e+00 -3.5989640e-05 0.0000000e+00 
0.0000000e+00 -7.1500501e-05 0.0000000e+00 
0.0000000e+00 -7.3899508e-05 0.0000000e+00 
0.0000000e+00 -4.8651251e-05 0.0000000e+00 
0.0000000e+00 -1.1980814e-05 0.0000000e+00 
0.0000000e+00 2.1401700e-05 0.0000000e+00 
0.0000000e+00 4.7392405e-05 0.0000000e+00 
0.0000000e+00 7.1844042e-05 0.0000000e+00 
0.0000000e+00 1.0231700e-04 0.0000000e+00 
0.0000000e+00 1.3309237e-04 0.0000000e+00 
0.0000000e+00 1.4591480e-04 0.0000000e+00 
0.0000000e+00 1.2666368e-04 0.0000000e+00 
0.0000000e+00 8.0588172e-05 0.0000000e+00 
0.0000000e+00 3.6973739e-05 0.0000000e+00 
0.0000000e+00 3.0823860e-05 0.0000000e+00 
0.0000000e+00 6.4298874e-05 0.0000000e+00 
0.0000000e+00 9.5427466e-05 0.0000000e+00 
0.0000000e+00 6.8055968e-05 0.0000000e+00 
0.0000000e+00 -5.9990165e-05 0.0000000e+00 
0.0000000e+00 -2.9825175e-04 0.0000000e+00 
0.0000000e+00 -6.5429829e-04 0.0000000e+00 
0.0000000e+00 -1.1800502e-03 0.0000000e+00 
0.0000000e+00 -1.9602983e-03 0.0000000e+00 
0.0000000e+00 -3.0330163e-03 0.0000000e+00 
0.0000000e+00 -4.2518792e-03 0.0000000e+00 
0.0000000e+00 -5.1389430e-03 0.0000000e+00 
0.0000000e+00 -5.1346589e-03 0.0000000e+00 
0.0000000e+00 -4.8082885e-03 0.0000000e+00 
0.0000000e+00 -4.6690614e-03 0.0000000e+00 
0.0000000e+00 -4.8053837e-03 0.0000000e+00 
0.0000000e+00 -4.7500157e-03 0.0000000e+00 
0.0000000e+00 -3.8957929e-03 0.0000000e+00 
0.0000000e+00 -2.6626985e-03 0.0000000e+00 
0.0000000e+00 -1.5223575e-03 0.0000000e+00 
0.0000000e+00 -6.7664706e-04 0.0000000e+00 
0.0000000e+00 -1.6810019e-04 0.0000000e+00 
0.0000000e+00 7.4036849e-05 0.0000000e+00 
0.0000000e+00 1.5320767e-04 0.0000000e+00 
0.0000000e+00 1.4871654e-04 0.0000000e+00 
0.0000000e+00 1.0622897e-04 0.0000000e+00 
0.0000000e+00 5.2480507e-05 0.0000000e+00 
0.0000000e+00 1.0695481e-05 0.0000000e+00 
0.0000000e+00 -7.5347834e-06 0.0000000e+00 
0.0000000e+00 -5.7135821e-06 0.0000000e+00 
0.0000000e+00 2.0492960e-06 0.0000000e+00 
0.0000000e+00 5.2917876e-06 0.0000000e+00 
0.0000000e+00 4.2670481e-06 0.0000000e+00 
0.0000000e+00 4.9009263e-06 0.0000000e+00 
0.0000000e+00 7.6130268e-06 0.0000000e+00 
0.0000000e+00 8.0755108e-06 0.0000000e+00 
0.0000000e+00 4.0165792e-06 0.0000000e+00 
0.0000000e+00 -2.0571915e-06 0.0000000e+00 
0.0000000e+00 -5.7739589e-06 0.0000000e+00 
0.0000000e+00 -4.9376399e-06 0.0000000e+00 
0.0000000e+00 -1.6321148e-06 0.0000000e+00 
0.0000000e+00 5.8897103e-07 0.0000000e+00 
0.0000000e+00 5.0373296e-07 0.0000000e+00 
0.0000000e+00 -5.5434822e-07 0.0000000e+00 
0.0000000e+00 -8.1130992e-07 0.0000000e+00 
0.0000000e+00 4.2801584e-08 0.0000000e+00 
0.0000000e+00 8.8584528e-07 0.0000000e+00 
0.0000000e+00 7.7687872e-07 0.0000000e+00 
0.0000000e+00 -3.6051208e-08 0.0000000e+00 
0.0000000e+00 -6.7139200e-07 0.0000000e+00 
0.0000000e+00 -4.9124577e-07 0.0000000e+00 
0.0000000e+00 3.6711307e-07 0.0000000e+00 
0.0000000e+00 1.1121660e-06 0.0000000e+00 
0.0000000e+00 1.0841655e-06 0.0000000e+00 
0.0000000e+00 2.7135300e-07 0.0000000e+00 
0.0000000e+00 -8.4625162e-07 0.0000000e+00 
0.0000000e+00 -1.5420550e-06 0.0000000e+00 
0.0000000e+00 -1.3057293e-06 0.0000000e+00 
0.0000000e+00 -2.6515278e-07 0.0000000e+00 
0.0000000e+00 9.2794517e-07 0.0000000e+00 
0.0000000e+00 1.4661895e-06 0.0000000e+00 
2.0049147e-06 1.2244458e-05 -1.0205870e-05 
9.2043556e-06 -1.6394216e-06 2.9307492e-05 
0.0000000e+00 0.0000000e+00 0.0000000e+00 
0.0000000e+00 0.0000000e+00 0.0000000e+00 
0.0000000e+00 0.0000000e+00 0.0000000e+00 
0.0000000e+00 0.0000000e+00 0.0000000e+00 
0.0000000e+00 0.0000000e+00 0.0000000e+00 
0.0000000e+00 0.0000000e+00 0.0000000e+00 
0.0000000e+00 0.0000000e+00 0.0000000e+00 
0.0000000e+00 0.0000000e+00 0.0000000e+00 
0.0000000e+00 0.0000000e+00 0.0000000e+00 
0.0000000e+00 0.0000000e+00 0.0000000e+00 
0.0000000e+00 0.0000000e+00 0.0000000e+00 
0.0000000e+00 0.0000000e+00 0.0000000e+00 
0.0000000e+00 0.0000000e+00 0.0000000e+00 
0.0000000e+00 0.0000000e+00 0.0000000e+00 
0.0000000e+00 0.0000000e+00 0.0000000e+00 
0.0000000e+00 0.0000000e+00 0.0000000e+00 
0.0000000e+00 0.0000000e+00 0.0000000e+00 
0.0000000e+00 0.0000000e+00 0.0000000e+00 
0.0000000e+00 0.0000000e+00 0.0000000e+00 
0.0000000e+00 0.0000000e+00 0.0000000e+00 
0.0000000e+00 0.0000000e+00 0.0000000e+00 
0.0000000e+00 0.0000000e+00 0.0000000e+00 
0.0000000e+00 0.0000000e+00 0.0000000e+00 
0.0000000e+00 0.0000000e+00 0.0000000e+00 
0.0000000e+00 0.0000000e+00 0.0000000e+00 
0.0000000e+00 0.0000000e+00 0.0000000e+00 
0.0000000e+00 0.0000000e+00 0.0000000e+00 
0.0000000e+00 0.0000000e+00 0.0000000e+00 
0.0000000e+00 0.0000000e+00 0.0000000e+00 
0.0000000e+00 0.0000000e+00 0.0000000e+00 
0.0000000e+00 0.0000000e+00 0.0000000e+00 
0.0000000e+00 0.0000000e+00 0.0000000e+00 
0.0000000e+00 0.0000000e+00 0.0000000e+00 
0.0000000e+00 0.0000000e+00 0.0000000e+00 
0.0000000e+00 0.0000000e+00 0.0000000e+00 
0.0000000e+00 0.0000000e+00 0.0000000e+00 
0.0000000e+00 0.0000000e+00 0.0000000e+00 
0.0000000e+00 0.0000000e+00 0.0000000e+00 
0.0000000e+00 0.0000000e+00 0.0000000e+00 
0.0000000e+00 0.0000000e+00 0.0000000e+00 
0.0000000e+00 0.0000000e+00 0.0000000e+00 
0.0000000e+00 0.0000000e+00 0.0000000e+00 
0.0000000e+00 0.0000000e+00 0.0000000e+00 
0.0000000e+00 0.0000000e+00 0.0000000e+00 
0.0000000e+00 0.0000000e+00 0.0000000e+00 
0.0000000e+00 0.0000000e+00 0.0000000e+00 
0.0000000e+00 0.0000000e+00 0.0000000e+00 
0.0000000e+00 0.0000000e+00 0.0000000e+00 
0.0000000e+00 0.0000000e+00 0.0000000e+00 
0.0000000e+00 0.0000000e+00 0.0000000e+00 
0.0000000e+00 0.0000000e+00 0.0000000e+00 
0.0000000e+00 0.0000000e+00 0.0000000e+00 
0.0000000e+00 0.0000000e+00 0.0000000e+00 
0.0000000e+00 0.0000000e+00 0.0000000e+00 
0.0000000e+00 0.0000000e+00 0.0000000e+00 
0.0000000e+00 0.0000000e+00 0.0000000e+00 
0.0000000e+00 0.0000000e+00 0.0000000e+00 
0.0000000e+00 0.0000000e+00 0.0000000e+00 
0.0000000e+00 0.0000000e+00 0.0000000e+00 
0.0000000e+00 0.0000000e+00 0.0000000e+00 
0.0000000e+00 0.0000000e+00 0.0000000e+00 
0.0000000e+00 0.0000000e+00 0.0000000e+00 
0.0000000e+00 0.0000000e+00 0.0000000e+00 
0.0000000e+00 0.0000000e+00 0.0000000e+00 
0.0000000e+00 0.0000000e+00 0.0000000e+00 
0.0000000e+00 0.0000000e+00 0.0000000e+00 
0.0000000e+00 0.0000000e+00 0.0000000e+00 
0.0000000e+00 0.0000000e+00 0.0000000e+00 
0.0000000e+00 0.0000000e+00 0.0000000e+00 
0.0000000e+00 0.0000000e+00 0.0000000e+00 
0.0000000e+00 0.0000000e+00 0.0000000e+00 
0.0000000e+00 0.0000000e+00 0.0000000e+00 
0.0000000e+00 0.0000000e+00 0.0000000e+00 
0.0000000e+00 0.0000000e+00 0.0000000e+00 
0.0000000e+00 0.0000000e+00 0.0000000e+00 
0.0000000e+00 0.0000000e+00 0.0000000e+00 
0.0000000e+00 0.0000000e+00 0.0000000e+00 
0.0000000e+00 0.0000000e+00 0.0000000e+00 
0.0000000e+00 0.0000000e+00 0.0000000e+00 
0.0000000e+00 0.0000000e+00 0.0000000e+00 
0.0000000e+00 0.0000000e+00 0.0000000e+00 
0.0000000e+00 0.0000000e+00 0.0000000e+00 
0.0000000e+00 0.0000000e+00 0.0000000e+00 
0.0000000e+00 0.0000000e+00 0.0000000e+00 
0.0000000e+00 0.0000000e+00 0.0000000e+00 
0.0000000e+00 0.0000000e+00 0.0000000e+00 
0.0000000e+00 0.0000000e+00 0.0000000e+00 
0.0000000e+00 0.0000000e+00 0.0000000e+00 
0.0000000e+00 0.0000000e+00 0.0000000e+00 
0.0000000e+00 0.0000000e+00 0.0000000e+00 
0.0000000e+00 0.0000000e+00 0.0000000e+00 
0.0000000e+00 0.0000000e+00 0.0000000e+00 
0.0000000e+00 0.0000000e+00 0.0000000e+00 
0.0000000e+00 0.0000000e+00 0.0000000e+00 
0.0000000e+00 0.0000000e+00 0.0000000e+00 
0.0000000e+00 0.0000000e+00 0.0000000e+00 
0.0000000e+00 0.0000000e+00 0.0000000e+00 
0.0000000e+00 0.0000000e+00 0.0000000e+00 
0.0000000e+00 0.0000000e+00 0.0000000e+00 
0.0000000e+00 0.0000000e+00 0.0000000e+00 
0.0000000e+00 0.0000000e+00 0.0000000e+00 
0.0000000e+00 0.0000000e+00 0.0000000e+00 
0.0000000e+00 0.0000000e+00 0.0000000e+00 
0.0000000e+00 0.0000000e+00 0.0000000e+00 
0.0000000e+00 0.0000000e+00 0.0000000e+00 
0.0000000e+00 0.0000000e+00 0.0000000e+00 
4.7876720e-06 -2.8067707e-06 -3.3983501e-06 
9.2467408e-06 2.7474928e-06 -4.7946246e-06 
1.3095851e-05 -6.5223895e-07 -8.2035176e-06 
2.0885649e-05 -3.1001841e-06 -4.7249505e-06 
2.9520806e-05 1.6735269e-06 -2.4814278e-06 
3.3432978e-05 -8.4184794e-06 6.0481256e-07 
3.5500500e-05 -1.6454180e-05 1.3871741e-07 
3.0913499e-05 -2.9781200e-05 5.4699813e-06 
2.6527388e-05 -1.3018561e-05 5.7664543e-06 
2.2529915e-05 -3.4669810e-07 9.7091370e-06 
1.6205786e-05 3.6451509e-06 1.5465122e-05 
1.0780270e-05 -8.5010270e-06 2.0816517e-05 
1.4652522e-06 -6.1079268e-06 2.0097114e-05 
-6.3359680e-06 3.2607790e-07 1.2026565e-05 
-3.5264584e-06 9.0522047e-07 4.2935972e-06 
-4.9571508e-06 1.2745041e-06 1.8152072e-06 
-7.6683009e-06 2.5397762e-07 5.5269589e-07 
-4.5338479e-06 2.0281118e-06 -3.5168778e-06 
-5.9484410e-06 4.1046465e-06 -7.0893643e-06 
6.4000924e-06 1.9438634e-05 -8.2037250e-06 
1.1193261e-05 9.0186386e-06 -8.3089453e-06 
1.3318172e-05 8.5436186e-06 -1.1203204e-05 
1.8304929e-05 4.8315774e-06 -1.4433565e-05 
2.3282828e-05 -9.5559471e-06 -1.3466145e-05 
3.0320327e-05 -9.7729471e-06 -1.4229108e-05 
3.4076729e-05 -1.3050698e-05 -6.9910025e-06 
3.4556786e-05 -1.5543928e-05 -2.5111458e-06 
3.3611657e-05 -1.4492737e-05 2.5764423e-06 
3.2663378e-05 -1.1190510e-05 1.5481877e-05 
2.3793111e-05 -7.3813344e-06 2.2343127e-05 
1.5871452e-05 -2.5171603e-06 2.0665819e-05 
8.4670683e-06 -3.8396429e-06 1.6804983e-05 
3.2719470e-06 -5.2880214e-06 9.0786580e-06 
-1.1043415e-06 -8.1195850e-07 -7.8167659e-07 
-1.9165745e-06 3.0066151e-06 -3.5022715e-06 
-1.0701539e-06 2.3653365e-06 -4.4468757e-06 
1.5580854e-07 -4.6469503e-07 -1.9542824e-06 
7.8051023e-08 -4.3633477e-07 2.9329678e-07 
4.8188920e-08 -2.7951083e-07 9.8234398e-07 
-1.6371634e-07 7.9325126e-08 1.0358802e-06 
2.4616128e-07 -2.8067095e-07 9.9821364e-08 
1.8509587e-07 1.4328927e-07 -1.1485943e-07 
1.0796249e-09 1.0224619e-07 8.8529063e-08 
-3.6421163e-08 -1.5415210e-07 -5.3113386e-08 
-4.2648360e-08 2.4796243e-08 -4.4155836e-08 
-2.3798171e-08 1.3430454e-07 5.9765249e-08 
-2.3606235e-09 -1.0540834e-08 4.2195119e-08 
-3.0225817e-08 -8.7562235e-08 -5.1423420e-08 
-3.3154290e-08 3.1857414e-09 -4.7664589e-08 
0.0000000e+00 -1.2264396e-04 0.0000000e+00 
0.0000000e+00 -1.7209434e-04 0.0000000e+00 
0.0000000e+00 -2.2896804e-04 0.0000000e+00 
0.0000000e+00 -4.0302356e-04 0.0000000e+00 
0.0000000e+00 -6.3278957e-04 0.0000000e+00 
0.0000000e+00 -6.4847519e-04 0.0000000e+00 
0.0000000e+00 -5.8479671e-04 0.0000000e+00 
0.0000000e+00 -4.2046097e-04 0.0000000e+00 
0.0000000e+00 -2.6950950e-04 0.0000000e+00 
0.0000000e+00 -1.1628203e-04 0.0000000e+00 
0.0000000e+00 -2.8672362e-06 0.0000000e+00 
0.0000000e+00 -4.3647083e-06 0.0000000e+00 
0.0000000e+00 -1.4127654e-05 0.0000000e+00 
0.0000000e+00 -8.3558216e-06 0.0000000e+00 
0.0000000e+00 -2.7585718e-05 0.0000000e+00 
0.0000000e+00 -6.5424123e-05 0.0000000e+00 
0.0000000e+00 -6.8130168e-05 0.0000000e+00 
0.0000000e+00 -8.2179846e-05 0.0000000e+00 
0.0000000e+00 -1.1428296e-04 0.0000000e+00 
0.0000000e+00 -9.9021512e-05 0.0000000e+00 
0.0000000e+00 -1.0941125e-04 0.0000000e+00 
0.0000000e+00 -2.4227622e-04 0.0000000e+00 
0.0000000e+00 -2.6738615e-04 0.0000000e+00 
0.0000000e+00 -4.3094359e-04 0.0000000e+00 
0.0000000e+00 -6.6858582e-04 0.0000000e+00 
0.0000000e+00 -6.8138761e-04 0.0000000e+00 
0.0000000e+00 -5.7844789e-04 0.0000000e+00 
0.0000000e+00 -4.7476016e-04 0.0000000e+00 
0.0000000e+00 -2.7575594e-04 0.0000000e+00 
0.0000000e+00 -6.0258109e-05 0.0000000e+00 
0.0000000e+00 6.0661314e-06 0.0000000e+00 
0.0000000e+00 -9.3872250e-06 0.0000000e+00 
0.0000000e+00 -1.8979570e-05 0.0000000e+00 
0.0000000e+00 -7.6257361e-06 0.0000000e+00 
0.0000000e+00 4.2190704e-06 0.0000000e+00 
0.0000000e+00 7.1292279e-06 0.0000000e+00 
0.0000000e+00 7.5747844e-06 0.0000000e+00 
0.0000000e+00 1.8443299e-06 0.0000000e+00 
0.0000000e+00 -2.7295105e-06 0.0000000e+00 
0.0000000e+00 -2.8686629e-06 0.0000000e+00 
0.0000000e+00 -8.4058615e-07 0.0000000e+00 
0.0000000e+00 1.0704985e-06 0.0000000e+00 
0.0000000e+00 1.0279952e-06 0.0000000e+00 
0.0000000e+00 4.1146762e-07 0.0000000e+00 
0.0000000e+00 -6.2213360e-07 0.0000000e+00 
0.0000000e+00 -4.4101083e-07 0.0000000e+00 
0.0000000e+00 2.9276600e-07 0.0000000e+00 
0.0000000e+00 2.2293953e-07 0.0000000e+00 
0.0000000e+00 -6.1561877e-08 0.0000000e+00 
6.6731823e-06 7.1808458e-06 -4.9006267e-06 
4.7208232e-06 9.8883474e-06 -7.0027513e-06 
8.8702327e-06 3.4563102e-06 -1.1237489e-05 
3.5167666e-06 -3.3719800e-05 -1.2710109e-05 
-3.3589675e-09 -4.8033613e-08 -2.0598861e-08 
-6.6339240e-10 -8.8018560e-08 -6.7599480e-08 
-6.6335851e-08 3.3841015e-08 7.7411705e-08 
3.4467245e-08 -6.3073045e-09 6.1785568e-09 
1.6804324e-05 -3.5498524e-06 -5.8675441e-06 
2.2066946e-05 1.0352885e-05 -4.0484992e-06 
1.9497727e-05 -3.1694884e-07 -3.3750368e-06 
2.3020564e-05 5.4522985e-07 -2.5966849e-06 
3.7400623e-05 1.9661054e-05 8.2523948e-06 
3.8869177e-05 4.4211579e-06 1.5974339e-05 
3.2829637e-05 -1.5500775e-05 1.7142125e-05 
2.3330073e-05 -3.4424786e-05 1.7481727e-07 
1.8813917e-05 -1.7401970e-05 -1.2384450e-05 
2.2805010e-05 7.0443352e-06 2.3271912e-06 
2.2653958e-05 6.9785538e-06 2.5907208e-05 
1.4912463e-05 -8.0607442e-06 4.0834842e-05 
4.8613680e-07 -9.6223002e-06 3.7714512e-05 
-1.7028560e-05 -1.0682921e-08 1.1207003e-05 
-1.3599521e-05 1.4305609e-06 -1.2101315e-06 
9.7234090e-07 4.0090749e-06 -4.3496925e-06 
6.1405408e-06 -3.9923430e-07 -1.1120085e-05 
1.4028364e-05 8.4709854e-06 -1.0598097e-05 
2.4435471e-05 1.0912663e-05 -1.7462560e-05 
3.7532856e-05 3.3240485e-05 -1.5133575e-05 