# vtk DataFile Version 4.0
vtk output
ASCII
DATASET UNSTRUCTURED_GRID
POINTS 1919 float
0.0000000e+00 0.0000000e+00 0.0000000e+00 
0.0000000e+00 0.0000000e+00 5.0000000e+01 
5.0000000e+00 0.0000000e+00 0.0000000e+00 
5.0000000e+00 0.0000000e+00 5.0000000e+01 
5.0000000e+00 1.0000000e+00 0.0000000e+00 
5.0000000e+00 1.0000000e+00 5.0000000e+01 
0.0000000e+00 1.0000000e+00 0.0000000e+00 
0.0000000e+00 1.0000000e+00 5.0000000e+01 
5.0000000e+00 2.0000000e+00 0.0000000e+00 
5.0000000e+00 2.0000000e+00 5.0000000e+01 
3.0000000e+00 2.0000000e+00 0.0000000e+00 
3.0000000e+00 2.0000000e+00 5.0000000e+01 
0.0000000e+00 2.0000000e+00 0.0000000e+00 
0.0000000e+00 2.0000000e+00 5.0000000e+01 
1.5000000e+00 3.0000000e+00 0.0000000e+00 
1.5000000e+00 3.0000000e+00 5.0000000e+01 
7.5000000e-01 3.0000000e+00 0.0000000e+00 
7.5000000e-01 3.0000000e+00 5.0000000e+01 
0.0000000e+00 3.0000000e+00 0.0000000e+00 
0.0000000e+00 3.0000000e+00 5.0000000e+01 
7.5000000e-01 3.0000000e+00 5.0000000e-01 
7.5000000e-01 3.0000000e+00 1.0000000e+00 
7.5000000e-01 3.0000000e+00 1.5000000e+00 
7.5000000e-01 3.0000000e+00 2.0000000e+00 
7.5000000e-01 3.0000000e+00 2.5000000e+00 
7.5000000e-01 3.0000000e+00 3.0000000e+00 
7.5000000e-01 3.0000000e+00 3.5000000e+00 
7.5000000e-01 3.0000000e+00 4.0000000e+00 
7.5000000e-01 3.0000000e+00 4.5000000e+00 
7.5000000e-01 3.0000000e+00 5.0000000e+00 
7.5000000e-01 3.0000000e+00 5.5000000e+00 
7.5000000e-01 3.0000000e+00 6.0000000e+00 
7.5000000e-01 3.0000000e+00 6.5000000e+00 
7.5000000e-01 3.0000000e+00 7.0000000e+00 
7.5000000e-01 3.0000000e+00 7.5000000e+00 
7.5000000e-01 3.0000000e+00 8.0000000e+00 
7.5000000e-01 3.0000000e+00 8.5000000e+00 
7.5000000e-01 3.0000000e+00 9.0000000e+00 
7.5000000e-01 3.0000000e+00 9.5000000e+00 
7.5000000e-01 3.0000000e+00 1.0000000e+01 
7.5000000e-01 3.0000000e+00 1.0500000e+01 
7.5000000e-01 3.0000000e+00 1.1000000e+01 
7.5000000e-01 3.0000000e+00 1.1500000e+01 
7.5000000e-01 3.0000000e+00 1.2000000e+01 
7.5000000e-01 3.0000000e+00 1.2500000e+01 
7.5000000e-01 3.0000000e+00 1.3000000e+01 
7.5000000e-01 3.0000000e+00 1.3500000e+01 
7.5000000e-01 3.0000000e+00 1.4000000e+01 
7.5000000e-01 3.0000000e+00 1.4500000e+01 
7.5000000e-01 3.0000000e+00 1.5000000e+01 
7.5000000e-01 3.0000000e+00 1.5500000e+01 
7.5000000e-01 3.0000000e+00 1.6000000e+01 
7.5000000e-01 3.0000000e+00 1.6500000e+01 
7.5000000e-01 3.0000000e+00 1.7000000e+01 
7.5000000e-01 3.0000000e+00 1.7500000e+01 
7.5000000e-01 3.0000000e+00 1.8000000e+01 
7.5000000e-01 3.0000000e+00 1.8500000e+01 
7.5000000e-01 3.0000000e+00 1.9000000e+01 
7.5000000e-01 3.0000000e+00 1.9500000e+01 
7.5000000e-01 3.0000000e+00 2.0000000e+01 
7.5000000e-01 3.0000000e+00 2.0500000e+01 
7.5000000e-01 3.0000000e+00 2.1000000e+01 
7.5000000e-01 3.0000000e+00 2.1500000e+01 
7.5000000e-01 3.0000000e+00 2.2000000e+01 
7.5000000e-01 3.0000000e+00 2.2500000e+01 
7.5000000e-01 3.0000000e+00 2.3000000e+01 
7.5000000e-01 3.0000000e+00 2.3500000e+01 
7.5000000e-01 3.0000000e+00 2.4000000e+01 
7.5000000e-01 3.0000000e+00 2.4500000e+01 
7.5000000e-01 3.0000000e+00 2.5000000e+01 
7.5000000e-01 3.0000000e+00 2.5500000e+01 
7.5000000e-01 3.0000000e+00 2.6000000e+01 
7.5000000e-01 3.0000000e+00 2.6500000e+01 
7.5000000e-01 3.0000000e+00 2.7000000e+01 
7.5000000e-01 3.0000000e+00 2.7500000e+01 
7.5000000e-01 3.0000000e+00 2.8000000e+01 
7.5000000e-01 3.0000000e+00 2.8500000e+01 
7.5000000e-01 3.0000000e+00 2.9000000e+01 
7.5000000e-01 3.0000000e+00 2.9500000e+01 
7.5000000e-01 3.0000000e+00 3.0000000e+01 
7.5000000e-01 3.0000000e+00 3.0500000e+01 
7.5000000e-01 3.0000000e+00 3.1000000e+01 
7.5000000e-01 3.0000000e+00 3.1500000e+01 
7.5000000e-01 3.0000000e+00 3.2000000e+01 
7.5000000e-01 3.0000000e+00 3.2500000e+01 
7.5000000e-01 3.0000000e+00 3.3000000e+01 
7.5000000e-01 3.0000000e+00 3.3500000e+01 
7.5000000e-01 3.0000000e+00 3.4000000e+01 
7.5000000e-01 3.0000000e+00 3.4500000e+01 
7.5000000e-01 3.0000000e+00 3.5000000e+01 
7.5000000e-01 3.0000000e+00 3.5500000e+01 
7.5000000e-01 3.0000000e+00 3.6000000e+01 
7.5000000e-01 3.0000000e+00 3.6500000e+01 
7.5000000e-01 3.0000000e+00 3.7000000e+01 
7.5000000e-01 3.0000000e+00 3.7500000e+01 
7.5000000e-01 3.0000000e+00 3.8000000e+01 
7.5000000e-01 3.0000000e+00 3.8500000e+01 
7.5000000e-01 3.0000000e+00 3.9000000e+01 
7.5000000e-01 3.0000000e+00 3.9500000e+01 
7.5000000e-01 3.0000000e+00 4.0000000e+01 
7.5000000e-01 3.0000000e+00 4.0500000e+01 
7.5000000e-01 3.0000000e+00 4.1000000e+01 
7.5000000e-01 3.0000000e+00 4.1500000e+01 
7.5000000e-01 3.0000000e+00 4.2000000e+01 
7.5000000e-01 3.0000000e+00 4.2500000e+01 
7.5000000e-01 3.0000000e+00 4.3000000e+01 
7.5000000e-01 3.0000000e+00 4.3500000e+01 
7.5000000e-01 3.0000000e+00 4.4000000e+01 
7.5000000e-01 3.0000000e+00 4.4500000e+01 
7.5000000e-01 3.0000000e+00 4.5000000e+01 
7.5000000e-01 3.0000000e+00 4.5500000e+01 
7.5000000e-01 3.0000000e+00 4.6000000e+01 
7.5000000e-01 3.0000000e+00 4.6500000e+01 
7.5000000e-01 3.0000000e+00 4.7000000e+01 
7.5000000e-01 3.0000000e+00 4.7500000e+01 
7.5000000e-01 3.0000000e+00 4.8000000e+01 
7.5000000e-01 3.0000000e+00 4.8500000e+01 
7.5000000e-01 3.0000000e+00 4.9000000e+01 
7.5000000e-01 3.0000000e+00 4.9500000e+01 
7.5000000e-01 3.0250001e+00 0.0000000e+00 
7.5000000e-01 3.0250001e+00 5.0000000e-01 
7.5000000e-01 3.0250001e+00 1.0000000e+00 
7.5000000e-01 3.0250001e+00 1.5000000e+00 
7.5000000e-01 3.0250001e+00 2.0000000e+00 
7.5000000e-01 3.0250001e+00 2.5000000e+00 
7.5000000e-01 3.0250001e+00 3.0000000e+00 
7.5000000e-01 3.0250001e+00 3.5000000e+00 
7.5000000e-01 3.0250001e+00 4.0000000e+00 
7.5000000e-01 3.0250001e+00 4.5000000e+00 
7.5000000e-01 3.0250001e+00 5.0000000e+00 
7.5000000e-01 3.0250001e+00 5.5000000e+00 
7.5000000e-01 3.0250001e+00 6.0000000e+00 
7.5000000e-01 3.0250001e+00 6.5000000e+00 
7.5000000e-01 3.0250001e+00 7.0000000e+00 
7.5000000e-01 3.0250001e+00 7.5000000e+00 
7.5000000e-01 3.0250001e+00 8.0000000e+00 
7.5000000e-01 3.0250001e+00 8.5000000e+00 
7.5000000e-01 3.0250001e+00 9.0000000e+00 
7.5000000e-01 3.0250001e+00 9.5000000e+00 
7.5000000e-01 3.0250001e+00 1.0000000e+01 
7.5000000e-01 3.0250001e+00 1.0500000e+01 
7.5000000e-01 3.0250001e+00 1.1000000e+01 
7.5000000e-01 3.0250001e+00 1.1500000e+01 
7.5000000e-01 3.0250001e+00 1.2000000e+01 
7.5000000e-01 3.0250001e+00 1.2500000e+01 
7.5000000e-01 3.0250001e+00 1.3000000e+01 
7.5000000e-01 3.0250001e+00 1.3500000e+01 
7.5000000e-01 3.0250001e+00 1.4000000e+01 
7.5000000e-01 3.0250001e+00 1.4500000e+01 
7.5000000e-01 3.0250001e+00 1.5000000e+01 
7.5000000e-01 3.0250001e+00 1.5500000e+01 
7.5000000e-01 3.0250001e+00 1.6000000e+01 
7.5000000e-01 3.0250001e+00 1.6500000e+01 
7.5000000e-01 3.0250001e+00 1.7000000e+01 
7.5000000e-01 3.0250001e+00 1.7500000e+01 
7.5000000e-01 3.0250001e+00 1.8000000e+01 
7.5000000e-01 3.0250001e+00 1.8500000e+01 
7.5000000e-01 3.0250001e+00 1.9000000e+01 
7.5000000e-01 3.0250001e+00 1.9500000e+01 
7.5000000e-01 3.0250001e+00 2.0000000e+01 
7.5000000e-01 3.0250001e+00 2.0500000e+01 
7.5000000e-01 3.0250001e+00 2.1000000e+01 
7.5000000e-01 3.0250001e+00 2.1500000e+01 
7.5000000e-01 3.0250001e+00 2.2000000e+01 
7.5000000e-01 3.0250001e+00 2.2500000e+01 
7.5000000e-01 3.0250001e+00 2.3000000e+01 
7.5000000e-01 3.0250001e+00 2.3500000e+01 
7.5000000e-01 3.0250001e+00 2.4000000e+01 
7.5000000e-01 3.0250001e+00 2.4500000e+01 
7.5000000e-01 3.0250001e+00 2.5000000e+01 
7.5000000e-01 3.0250001e+00 2.5500000e+01 
7.5000000e-01 3.0250001e+00 2.6000000e+01 
7.5000000e-01 3.0250001e+00 2.6500000e+01 
7.5000000e-01 3.0250001e+00 2.7000000e+01 
7.5000000e-01 3.0250001e+00 2.7500000e+01 
7.5000000e-01 3.0250001e+00 2.8000000e+01 
7.5000000e-01 3.0250001e+00 2.8500000e+01 
7.5000000e-01 3.0250001e+00 2.9000000e+01 
7.5000000e-01 3.0250001e+00 2.9500000e+01 
7.5000000e-01 3.0250001e+00 3.0000000e+01 
7.5000000e-01 3.0250001e+00 3.0500000e+01 
7.5000000e-01 3.0250001e+00 3.1000000e+01 
7.5000000e-01 3.0250001e+00 3.1500000e+01 
7.5000000e-01 3.0250001e+00 3.2000000e+01 
7.5000000e-01 3.0250001e+00 3.2500000e+01 
7.5000000e-01 3.0250001e+00 3.3000000e+01 
7.5000000e-01 3.0250001e+00 3.3500000e+01 
7.5000000e-01 3.0250001e+00 3.4000000e+01 
7.5000000e-01 3.0250001e+00 3.4500000e+01 
7.5000000e-01 3.0250001e+00 3.5000000e+01 
7.5000000e-01 3.0250001e+00 3.5500000e+01 
7.5000000e-01 3.0250001e+00 3.6000000e+01 
7.5000000e-01 3.0250001e+00 3.6500000e+01 
7.5000000e-01 3.0250001e+00 3.7000000e+01 
7.5000000e-01 3.0250001e+00 3.7500000e+01 
7.5000000e-01 3.0250001e+00 3.8000000e+01 
7.5000000e-01 3.0250001e+00 3.8500000e+01 
7.5000000e-01 3.0250001e+00 3.9000000e+01 
7.5000000e-01 3.0250001e+00 3.9500000e+01 
7.5000000e-01 3.0250001e+00 4.0000000e+01 
7.5000000e-01 3.0250001e+00 4.0500000e+01 
7.5000000e-01 3.0250001e+00 4.1000000e+01 
7.5000000e-01 3.0250001e+00 4.1500000e+01 
7.5000000e-01 3.0250001e+00 4.2000000e+01 
7.5000000e-01 3.0250001e+00 4.2500000e+01 
7.5000000e-01 3.0250001e+00 4.3000000e+01 
7.5000000e-01 3.0250001e+00 4.3500000e+01 
7.5000000e-01 3.0250001e+00 4.4000000e+01 
7.5000000e-01 3.0250001e+00 4.4500000e+01 
7.5000000e-01 3.0250001e+00 4.5000000e+01 
7.5000000e-01 3.0250001e+00 4.5500000e+01 
7.5000000e-01 3.0250001e+00 4.6000000e+01 
7.5000000e-01 3.0250001e+00 4.6500000e+01 
7.5000000e-01 3.0250001e+00 4.7000000e+01 
7.5000000e-01 3.0250001e+00 4.7500000e+01 
7.5000000e-01 3.0250001e+00 4.8000000e+01 
7.5000000e-01 3.0250001e+00 4.8500000e+01 
7.5000000e-01 3.0250001e+00 4.9000000e+01 
7.5000000e-01 3.0250001e+00 4.9500000e+01 
7.5000000e-01 3.0250001e+00 5.0000000e+01 
3.0000000e+00 2.0000000e+00 3.6000000e+01 
8.0487806e-01 3.0000000e+00 3.6000000e+01 
0.0000000e+00 0.0000000e+00 1.0000000e+00 
0.0000000e+00 0.0000000e+00 2.0000000e+00 
0.0000000e+00 0.0000000e+00 3.0000000e+00 
0.0000000e+00 0.0000000e+00 4.0000000e+00 
0.0000000e+00 0.0000000e+00 5.0000000e+00 
0.0000000e+00 0.0000000e+00 6.0000000e+00 
0.0000000e+00 0.0000000e+00 7.0000000e+00 
0.0000000e+00 0.0000000e+00 8.0000000e+00 
[...]
POINT_DATA 1919
FIELD FieldData 3
DISPLACEMENT 3 1919  float
0.0000000e+00 0.0000000e+00 0.0000000e+00 
0.0000000e+00 0.0000000e+00 0.0000000e+00 
0.0000000e+00 0.0000000e+00 0.0000000e+00 
0.0000000e+00 0.0000000e+00 0.0000000e+00 
8.3063691e-07 -2.3610596e-06 -3.6966271e-06 
-2.6702145e-07 -4.0435580e-07 -7.5559271e-08 
0.0000000e+00 -1.1846113e-06 0.0000000e+00 
0.0000000e+00 6.5225167e-06 0.0000000e+00 
3.0061940e-07 2.9560649e-06 -2.0713853e-06 
6.9273023e-07 -1.4268724e-06 1.6010795e-06 
2.4788219e-06 -4.3091236e-06 -4.2948768e-06 
1.9338947e-06 2.0743830e-06 4.1266034e-07 
0.0000000e+00 -2.4064590e-05 0.0000000e+00 
0.0000000e+00 1.0765772e-05 0.0000000e+00 
-2.3877399e-05 -3.1142848e-05 -1.5197248e-05 
6.5626878e-06 8.7901581e-06 2.4952631e-05 
-2.0666450e-05 -4.7009169e-05 -1.7402530e-05 
-1.6887529e-05 4.3584216e-05 1.8469904e-05 
0.0000000e+00 -4.9207596e-05 0.0000000e+00 
0.0000000e+00 1.2802250e-05 0.0000000e+00 
-9.5111091e-06 -4.5435503e-05 -1.4050547e-05 
2.7040735e-06 -3.7638205e-05 -1.3704414e-05 
8.1876333e-06 -1.6441507e-05 -1.6718208e-05 
1.7041266e-06 1.9044079e-05 -1.2251085e-05 
1.2350965e-05 5.6602003e-05 -4.7133799e-06 
1.2028665e-05 7.5722601e-05 -3.3303388e-07 
1.6916521e-05 6.1414088e-05 1.0794057e-05 
1.3669529e-05 2.3367218e-05 2.4052031e-05 
3.3819663e-06 -1.6729393e-05 4.4329347e-05 
-1.4157416e-05 -4.1451105e-05 5.2682208e-05 
-1.5280775e-05 -5.2561518e-05 5.2384152e-05 
-1.2954541e-05 -6.2769832e-05 2.9178804e-05 
-8.1561247e-06 -8.7342240e-05 2.3778590e-05 
-1.5211958e-05 -1.2920635e-04 1.9339363e-05 
-2.6179669e-05 -1.6712319e-04 1.7217983e-05 
-3.5059442e-05 -1.6608696e-04 2.0147048e-05 
-2.2802511e-05 -1.0796399e-04 7.8592866e-06 
-1.8722028e-05 -1.2068311e-05 -1.4721611e-05 
-1.5239832e-05 7.9068639e-05 -3.8941071e-05 
-1.5628715e-05 1.1960813e-04 -3.8040485e-05 
4.4591380e-07 9.3931667e-05 -3.6697205e-05 
1.1401434e-05 -5.1479642e-06 -3.4918191e-06 
-4.3593463e-06 -2.1316194e-04 4.4352328e-05 
-3.8183272e-05 -6.0765626e-04 2.1813639e-05 
-4.6223617e-05 -1.2936682e-03 1.5139875e-04 
-8.9640831e-05 -2.3088255e-03 5.9839833e-05 
-1.5878874e-04 -3.5288886e-03 1.5739103e-04 
-2.1769393e-04 -4.4516842e-03 3.9246039e-05 
-2.3785190e-04 -4.5830761e-03 6.1797480e-05 
-2.4859470e-04 -4.4094785e-03 2.2435524e-05 
-2.5105479e-04 -4.4584908e-03 5.9271944e-05 
-2.9074342e-04 -4.7577899e-03 -1.4793322e-05 
-3.1781779e-04 -4.8767836e-03 -7.8222511e-05 
-2.5691150e-04 -4.1300743e-03 -1.2808977e-04 
-1.8855486e-04 -2.9594174e-03 -2.8524664e-04 
-1.2154958e-04 -1.8075086e-03 -1.8693127e-04 
-5.1631578e-05 -9.0826000e-04 -2.1664561e-04 
-1.2709202e-05 -3.0583644e-04 -9.8765333e-05 
2.0861935e-05 3.8117010e-05 -7.5238502e-05 
1.9139701e-05 2.0175608e-04 -2.8421133e-05 
1.6975198e-05 2.5742658e-04 -1.0509797e-05 
1.6703605e-05 2.5289514e-04 1.8432534e-06 
1.9915420e-05 2.2100353e-04 2.3122351e-05 
2.2177544e-05 1.8863622e-04 3.4658060e-05 
4.2761680e-05 1.7417973e-04 4.3053056e-05 
3.4473218e-05 1.8048286e-04 4.4104600e-05 
4.4826505e-05 1.9124095e-04 4.4815864e-05 
4.1790365e-05 1.8282203e-04 4.1423020e-05 
3.5170589e-05 1.4447117e-04 6.0108829e-05 
6.2287086e-06 8.8756417e-05 7.8970254e-05 
-2.3461664e-05 3.1335028e-05 9.0679037e-05 
-3.9944080e-05 -1.4103986e-05 8.0920872e-05 
-3.7610203e-05 -5.2603402e-05 7.5293894e-05 
-2.7113545e-05 -9.3886709e-05 3.7716709e-05 
-6.7846481e-06 -1.3140672e-04 1.2475334e-05 
-4.3236678e-06 -1.4623613e-04 1.5348240e-05 
-9.3968602e-06 -1.1511719e-04 2.0870702e-05 
-1.3455115e-05 -3.2532425e-05 3.5099049e-05 
-9.4457573e-06 6.8109519e-05 3.5880668e-05 
-8.6375676e-06 1.2296405e-04 4.3373755e-05 
-1.0135375e-05 7.4858675e-05 4.3410564e-05 
-2.5595042e-05 -1.1539736e-04 4.2453386e-05 
-5.0362771e-05 -4.6332576e-04 7.7554847e-05 
-9.4466472e-05 -9.9802366e-04 3.4044911e-05 
-1.3311437e-04 -1.7860002e-03 1.4794079e-04 
-2.1640434e-04 -2.8377187e-03 2.1621790e-05 
-2.5968367e-04 -4.0352722e-03 1.1520812e-04 
-3.1977508e-04 -4.9030427e-03 -9.2494429e-06 
-3.4130743e-04 -5.0261607e-03 -9.1830028e-05 
-5.3289783e-05 -4.8718518e-03 -1.2487410e-05 
-2.2246859e-04 -4.8369803e-03 6.0412123e-05 
-2.3541595e-04 -4.9721529e-03 -1.0503633e-04 
-2.4274169e-04 -4.8401267e-03 -1.8698332e-04 
-1.1501768e-04 -3.8680027e-03 -1.5570153e-04 
-1.7425050e-04 -2.6218651e-03 -2.9225295e-04 
-1.0264613e-04 -1.5131622e-03 -1.3986349e-04 
-4.5914632e-05 -7.3873060e-04 -1.4043844e-04 
-6.9456964e-06 -2.7803902e-04 -3.9321792e-05 
1.0764920e-05 -3.9434111e-05 -1.2787798e-05 
6.8579798e-06 6.8396606e-05 2.5255824e-05 
-7.0361909e-07 1.0724727e-04 2.9342165e-05 
1.9399788e-07 1.1065422e-04 2.6988218e-05 
-4.2175199e-07 1.0374974e-04 2.0243242e-05 
3.0147517e-06 9.9166093e-05 1.3103056e-05 
1.1131340e-05 9.8203127e-05 1.1674234e-05 
5.7178231e-06 9.4526971e-05 3.4133375e-06 
-7.2806070e-06 8.2837963e-05 -1.3646954e-05 
-1.1390238e-05 6.3234707e-05 -3.6486173e-05 
-4.3733576e-06 3.7973958e-05 -2.4851106e-05 
-6.6317730e-06 9.9219478e-06 -1.4178468e-05 
-5.0541021e-06 -1.8117084e-05 2.3251685e-06 
-6.3833054e-06 -4.1944662e-05 2.0412767e-06 
-1.3817528e-05 -5.6979647e-05 -5.1358511e-06 
-6.9087218e-06 -5.9312548e-05 -1.6045484e-05 
2.3731154e-06 -4.6895359e-05 -2.4553210e-05 
6.8132608e-06 -2.3963285e-05 -1.7923277e-05 
1.4471536e-05 2.4376568e-06 -4.6585260e-06 
1.4781466e-05 2.4991807e-05 1.0388777e-05 
8.4749945e-06 3.9005834e-05 1.8940780e-05 
0.0000000e+00 -4.7129630e-05 0.0000000e+00 
0.0000000e+00 -4.5591092e-05 0.0000000e+00 
0.0000000e+00 -3.7443293e-05 0.0000000e+00 
0.0000000e+00 -1.5974345e-05 0.0000000e+00 
0.0000000e+00 1.9358509e-05 0.0000000e+00 
0.0000000e+00 5.6456876e-05 0.0000000e+00 
0.0000000e+00 7.4748481e-05 0.0000000e+00 
0.0000000e+00 6.0790913e-05 0.0000000e+00 
0.0000000e+00 2.3326882e-05 0.0000000e+00 
0.0000000e+00 -1.6048742e-05 0.0000000e+00 
0.0000000e+00 -4.0997562e-05 0.0000000e+00 
0.0000000e+00 -5.2282434e-05 0.0000000e+00 
0.0000000e+00 -6.3137450e-05 0.0000000e+00 
0.0000000e+00 -8.8478380e-05 0.0000000e+00 
0.0000000e+00 -1.3013060e-04 0.0000000e+00 
0.0000000e+00 -1.6685425e-04 0.0000000e+00 
0.0000000e+00 -1.6467390e-04 0.0000000e+00 
0.0000000e+00 -1.0644325e-04 0.0000000e+00 
0.0000000e+00 -1.1122975e-05 0.0000000e+00 
0.0000000e+00 7.8050776e-05 0.0000000e+00 
0.0000000e+00 1.1899574e-04 0.0000000e+00 
0.0000000e+00 9.4586510e-05 0.0000000e+00 
0.0000000e+00 -3.4718305e-06 0.0000000e+00 
0.0000000e+00 -2.1138703e-04 0.0000000e+00 
0.0000000e+00 -6.1007391e-04 0.0000000e+00 
0.0000000e+00 -1.3011950e-03 0.0000000e+00 
0.0000000e+00 -2.3277011e-03 0.0000000e+00 
0.0000000e+00 -3.5492668e-03 0.0000000e+00 
0.0000000e+00 -4.4795731e-03 0.0000000e+00 
0.0000000e+00 -4.6023945e-03 0.0000000e+00 
0.0000000e+00 -4.4348384e-03 0.0000000e+00 
0.0000000e+00 -4.4822870e-03 0.0000000e+00 
0.0000000e+00 -4.7907336e-03 0.0000000e+00 
0.0000000e+00 -4.8998636e-03 0.0000000e+00 
0.0000000e+00 -4.1516372e-03 0.0000000e+00 
0.0000000e+00 -2.9714424e-03 0.0000000e+00 
0.0000000e+00 -1.8173635e-03 0.0000000e+00 
0.0000000e+00 -9.1230636e-04 0.0000000e+00 
0.0000000e+00 -3.0717437e-04 0.0000000e+00 
0.0000000e+00 3.8919297e-05 0.0000000e+00 
0.0000000e+00 2.0318053e-04 0.0000000e+00 
0.0000000e+00 2.5805781e-04 0.0000000e+00 
0.0000000e+00 2.5304186e-04 0.0000000e+00 
0.0000000e+00 2.2138434e-04 0.0000000e+00 
0.0000000e+00 1.8941845e-04 0.0000000e+00 
0.0000000e+00 1.7518371e-04 0.0000000e+00 
0.0000000e+00 1.8093328e-04 0.0000000e+00 
0.0000000e+00 1.9066389e-04 0.0000000e+00 
0.0000000e+00 1.8160525e-04 0.0000000e+00 
0.0000000e+00 1.4394610e-04 0.0000000e+00 
0.0000000e+00 8.8527981e-05 0.0000000e+00 
0.0000000e+00 3.2306794e-05 0.0000000e+00 
0.0000000e+00 -1.3514595e-05 0.0000000e+00 
0.0000000e+00 -5.3092506e-05 0.0000000e+00 
0.0000000e+00 -9.4551229e-05 0.0000000e+00 
0.0000000e+00 -1.3209290e-04 0.0000000e+00 
0.0000000e+00 -1.4589920e-04 0.0000000e+00 
0.0000000e+00 -1.1343174e-04 0.0000000e+00 
0.0000000e+00 -3.0727238e-05 0.0000000e+00 
0.0000000e+00 6.8711975e-05 0.0000000e+00 
0.0000000e+00 1.2274629e-04 0.0000000e+00 
0.0000000e+00 7.3324009e-05 0.0000000e+00 
0.0000000e+00 -1.1560217e-04 0.0000000e+00 
0.0000000e+00 -4.6206891e-04 0.0000000e+00 
0.0000000e+00 -1.0004969e-03 0.0000000e+00 
0.0000000e+00 -1.7922058e-03 0.0000000e+00 
0.0000000e+00 -2.8566972e-03 0.0000000e+00 
0.0000000e+00 -4.0563634e-03 0.0000000e+00 
0.0000000e+00 -4.9356320e-03 0.0000000e+00 
0.0000000e+00 -5.0501744e-03 0.0000000e+00 
0.0000000e+00 -4.8893541e-03 0.0000000e+00 
0.0000000e+00 -4.8628938e-03 0.0000000e+00 
0.0000000e+00 -5.0031645e-03 0.0000000e+00 
0.0000000e+00 -4.8631919e-03 0.0000000e+00 
0.0000000e+00 -3.8965391e-03 0.0000000e+00 
0.0000000e+00 -2.6334415e-03 0.0000000e+00 
0.0000000e+00 -1.5229544e-03 0.0000000e+00 
0.0000000e+00 -7.4154470e-04 0.0000000e+00 
0.0000000e+00 -2.7738241e-04 0.0000000e+00 
0.0000000e+00 -3.7957030e-05 0.0000000e+00 
0.0000000e+00 6.9589143e-05 0.0000000e+00 
0.0000000e+00 1.0772586e-04 0.0000000e+00 
0.0000000e+00 1.1151650e-04 0.0000000e+00 
0.0000000e+00 1.0440735e-04 0.0000000e+00 
0.0000000e+00 9.9413191e-05 0.0000000e+00 
0.0000000e+00 9.8067336e-05 0.0000000e+00 
0.0000000e+00 9.4300543e-05 0.0000000e+00 
0.0000000e+00 8.2795792e-05 0.0000000e+00 
0.0000000e+00 6.3236432e-05 0.0000000e+00 
0.0000000e+00 3.7959813e-05 0.0000000e+00 
0.0000000e+00 9.8154032e-06 0.0000000e+00 
0.0000000e+00 -1.8156610e-05 0.0000000e+00 
0.0000000e+00 -4.1896903e-05 0.0000000e+00 
0.0000000e+00 -5.6855617e-05 0.0000000e+00 
0.0000000e+00 -5.8993537e-05 0.0000000e+00 
0.0000000e+00 -4.6789322e-05 0.0000000e+00 
0.0000000e+00 -2.4004044e-05 0.0000000e+00 
0.0000000e+00 2.2931642e-06 0.0000000e+00 
0.0000000e+00 2.4816669e-05 0.0000000e+00 
0.0000000e+00 3.8970851e-05 0.0000000e+00 
0.0000000e+00 4.3622949e-05 0.0000000e+00 
4.6916804e-05 -1.0231826e-04 -1.3810607e-05 
-2.6043280e-04 -4.5387051e-03 -1.0058028e-04 
0.0000000e+00 0.0000000e+00 0.0000000e+00 
0.0000000e+00 0.0000000e+00 0.0000000e+00 
0.0000000e+00 0.0000000e+00 0.0000000e+00 
0.0000000e+00 0.0000000e+00 0.0000000e+00 
0.0000000e+00 0.0000000e+00 0.0000000e+00 
0.0000000e+00 0.0000000e+00 0.0000000e+00 
0.0000000e+00 0.0000000e+00 0.0000000e+00 
0.0000000e+00 0.0000000e+00 0.0000000e+00 
0.0000000e+00 0.0000000e+00 0.0000000e+00 
0.0000000e+00 0.0000000e+00 0.0000000e+00 
0.0000000e+00 0.0000000e+00 0.0000000e+00 
0.0000000e+00 0.0000000e+00 0.0000000e+00 
0.0000000e+00 0.0000000e+00 0.0000000e+00 
0.0000000e+00 0.0000000e+00 0.0000000e+00 
0.0000000e+00 0.0000000e+00 0.0000000e+00 
0.0000000e+00 0.0000000e+00 0.0000000e+00 
0.0000000e+00 0.0000000e+00 0.0000000e+00 
0.0000000e+00 0.0000000e+00 0.0000000e+00 
0.0000000e+00 0.0000000e+00 0.0000000e+00 
0.0000000e+00 0.0000000e+00 0.0000000e+00 
0.0000000e+00 0.0000000e+00 0.0000000e+00 
0.0000000e+00 0.0000000e+00 0.0000000e+00 
0.0000000e+00 0.0000000e+00 0.0000000e+00 
0.0000000e+00 0.0000000e+00 0.0000000e+00 
0.0000000e+00 0.0000000e+00 0.0000000e+00 
0.0000000e+00 0.0000000e+00 0.0000000e+00 
0.0000000e+00 0.0000000e+00 0.0000000e+00 
0.0000000e+00 0.0000000e+00 0.0000000e+00 
0.0000000e+00 0.0000000e+00 0.0000000e+00 
0.0000000e+00 0.0000000e+00 0.0000000e+00 
0.0000000e+00 0.0000000e+00 0.0000000e+00 
0.0000000e+00 0.0000000e+00 0.0000000e+00 
0.0000000e+00 0.0000000e+00 0.0000000e+00 
0.0000000e+00 0.0000000e+00 0.0000000e+00 
0.0000000e+00 0.0000000e+00 0.0000000e+00 
0.0000000e+00 0.0000000e+00 0.0000000e+00 
0.0000000e+00 0.0000000e+00 0.0000000e+00 
0.0000000e+00 0.0000000e+00 0.0000000e+00 
0.0000000e+00 0.0000000e+00 0.0000000e+00 
0.0000000e+00 0.0000000e+00 0.0000000e+00 
0.0000000e+00 0.0000000e+00 0.0000000e+00 
0.0000000e+00 0.0000000e+00 0.0000000e+00 
0.0000000e+00 0.0000000e+00 0.0000000e+00 
0.0000000e+00 0.0000000e+00 0.0000000e+00 
0.0000000e+00 0.0000000e+00 0.0000000e+00 
0.0000000e+00 0.0000000e+00 0.0000000e+00 
0.0000000e+00 0.0000000e+00 0.0000000e+00 
0.0000000e+00 0.0000000e+00 0.0000000e+00 
0.0000000e+00 0.0000000e+00 0.0000000e+00 
0.0000000e+00 0.0000000e+00 0.0000000e+00 
0.0000000e+00 0.0000000e+00 0.0000000e+00 
0.0000000e+00 0.0000000e+00 0.0000000e+00 
0.0000000e+00 0.0000000e+00 0.0000000e+00 
0.0000000e+00 0.0000000e+00 0.0000000e+00 
0.0000000e+00 0.0000000e+00 0.0000000e+00 
0.0000000e+00 0.0000000e+00 0.0000000e+00 
0.0000000e+00 0.0000000e+00 0.0000000e+00 
0.0000000e+00 0.0000000e+00 0.0000000e+00 
0.0000000e+00 0.0000000e+00 0.0000000e+00 
0.0000000e+00 0.0000000e+00 0.0000000e+00 
0.0000000e+00 0.0000000e+00 0.0000000e+00 
0.0000000e+00 0.0000000e+00 0.0000000e+00 
0.0000000e+00 0.0000000e+00 0.0000000e+00 
0.0000000e+00 0.0000000e+00 0.0000000e+00 
0.0000000e+00 0.0000000e+00 0.0000000e+00 
0.0000000e+00 0.0000000e+00 0.0000000e+00 
0.0000000e+00 0.0000000e+00 0.0000000e+00 
0.0000000e+00 0.0000000e+00 0.0000000e+00 
0.0000000e+00 0.0000000e+00 0.0000000e+00 
0.0000000e+00 0.0000000e+00 0.0000000e+00 
0.0000000e+00 0.0000000e+00 0.0000000e+00 
0.0000000e+00 0.0000000e+00 0.0000000e+00 
0.0000000e+00 0.0000000e+00 0.0000000e+00 
0.0000000e+00 0.0000000e+00 0.0000000e+00 
0.0000000e+00 0.0000000e+00 0.0000000e+00 
0.0000000e+00 0.0000000e+00 0.0000000e+00 
0.0000000e+00 0.0000000e+00 0.0000000e+00 
0.0000000e+00 0.0000000e+00 0.0000000e+00 
0.0000000e+00 0.0000000e+00 0.0000000e+00 
0.0000000e+00 0.0000000e+00 0.0000000e+00 
0.0000000e+00 0.0000000e+00 0.0000000e+00 
0.0000000e+00 0.0000000e+00 0.0000000e+00 
0.0000000e+00 0.0000000e+00 0.0000000e+00 
0.0000000e+00 0.0000000e+00 0.0000000e+00 
0.0000000e+00 0.0000000e+00 0.0000000e+00 
0.0000000e+00 0.0000000e+00 0.0000000e+00 
0.0000000e+00 0.0000000e+00 0.0000000e+00 
0.0000000e+00 0.0000000e+00 0.0000000e+00 
0.0000000e+00 0.0000000e+00 0.0000000e+00 
0.0000000e+00 0.0000000e+00 0.0000000e+00 
0.0000000e+00 0.0000000e+00 0.0000000e+00 
0.0000000e+00 0.0000000e+00 0.0000000e+00 
0.0000000e+00 0.0000000e+00 0.0000000e+00 
0.0000000e+00 0.0000000e+00 0.0000000e+00 
0.0000000e+00 0.0000000e+00 0.0000000e+00 
0.0000000e+00 0.0000000e+00 0.0000000e+00 
0.0000000e+00 0.0000000e+00 0.0000000e+00 
0.0000000e+00 0.0000000e+00 0.0000000e+00 
0.0000000e+00 0.0000000e+00 0.0000000e+00 
0.0000000e+00 0.0000000e+00 0.0000000e+00 
0.0000000e+00 0.0000000e+00 0.0000000e+00 
0.0000000e+00 0.0000000e+00 0.0000000e+00 
0.0000000e+00 0.0000000e+00 0.0000000e+00 
0.0000000e+00 0.0000000e+00 0.0000000e+00 
0.0000000e+00 0.0000000e+00 0.0000000e+00 
0.0000000e+00 0.0000000e+00 0.0000000e+00 
7.5846731e-07 8.5005661e-07 -8.2736375e-07 
-2.6104433e-06 1.7299126e-08 2.7165247e-06 
-2.0750647e-06 -1.9886895e-06 -2.3456897e-07 
2.4595204e-06 -1.4734238e-06 1.8008957e-07 
-1.0491627e-06 1.9957768e-06 -2.4158207e-06 
3.3481433e-06 -2.7399196e-06 -8.5049569e-06 
2.2417046e-06 -3.6485644e-06 -6.3611101e-06 
4.6547002e-06 4.0408931e-06 -5.2519640e-06 
8.2643855e-06 -1.4094702e-06 -3.0272229e-06 
7.5225535e-06 -1.0950556e-05 -1.1122761e-05 
2.0098676e-05 1.5495851e-06 -1.5744010e-05 
2.6478312e-05 -1.5208284e-06 -1.2931271e-05 
3.2551015e-05 -9.2700093e-06 -8.9205141e-06 
4.0841936e-05 -6.7679489e-06 -4.3775117e-06 
4.3840530e-05 -1.5331596e-05 2.5432118e-06 
3.8131860e-05 -1.5804075e-05 1.1562896e-05 
3.2012602e-05 -1.2857596e-05 1.1399991e-05 
2.7499762e-05 -9.1061611e-06 1.5100281e-05 
1.7674654e-05 -5.9971198e-06 1.9419191e-05 
5.8593223e-06 -5.9962150e-07 1.7658549e-05 
-3.1425697e-07 -2.3999723e-06 1.1612640e-05 
-3.7676928e-06 -2.7125034e-06 7.1262198e-06 
-9.6026031e-07 -4.7566264e-06 -2.1295182e-06 
4.7136109e-07 -2.7988192e-06 -3.5656740e-06 
4.6079595e-06 -9.5973417e-07 -1.8981967e-06 
5.5961755e-06 -3.4728557e-06 -6.0664015e-06 
5.4044913e-06 -6.5327886e-06 -6.4984943e-06 
1.2307935e-05 -4.6558457e-06 -1.1350341e-05 
1.3835887e-05 6.2446084e-06 -8.6164746e-06 
1.4784632e-05 -5.2169353e-06 -1.1692574e-05 
1.8554238e-05 -4.8879706e-06 -1.4055813e-05 
2.3603896e-05 -3.6444055e-06 -1.5316120e-05 
3.3966498e-05 -1.3654093e-05 -1.5893473e-05 
4.1696989e-05 -1.6031388e-05 -1.0620059e-05 
4.5506898e-05 -1.4775268e-05 -2.1563251e-06 
4.1082847e-05 -1.7078601e-05 7.4262316e-06 
3.6912923e-05 -1.0968178e-05 1.4356704e-05 
3.0576477e-05 -7.9663323e-06 1.9476985e-05 
2.0428595e-05 -6.1926803e-06 1.9096247e-05 
9.2724267e-06 -3.8697171e-06 1.7643299e-05 
4.2795364e-06 -2.6473451e-06 1.2874471e-05 
9.3706205e-07 -1.3960470e-06 6.0435518e-06 
-5.7041530e-07 -1.1635113e-06 4.5313021e-07 
-9.2428792e-07 -6.7588545e-08 -1.3252668e-06 
-9.7114867e-07 1.4826890e-06 -2.1162750e-06 
-6.5934177e-07 1.0117024e-06 -2.1189553e-06 
-4.3858185e-07 -8.1644700e-09 -1.7659829e-06 
-4.2889883e-07 -1.9095597e-07 -1.4222321e-06 
-5.0656104e-07 5.9045760e-07 -1.1252905e-06 
0.0000000e+00 1.4240096e-05 0.0000000e+00 
0.0000000e+00 3.9290269e-05 0.0000000e+00 
0.0000000e+00 6.0998544e-05 0.0000000e+00 
0.0000000e+00 6.8055197e-05 0.0000000e+00 
0.0000000e+00 5.9381888e-05 0.0000000e+00 
0.0000000e+00 5.8055422e-05 0.0000000e+00 
0.0000000e+00 1.9934472e-05 0.0000000e+00 
0.0000000e+00 -1.9477100e-05 0.0000000e+00 
0.0000000e+00 -1.4869390e-05 0.0000000e+00 
0.0000000e+00 -5.2395433e-05 0.0000000e+00 
0.0000000e+00 -1.2012754e-04 0.0000000e+00 
0.0000000e+00 -1.4359661e-04 0.0000000e+00 
0.0000000e+00 -2.8355510e-04 0.0000000e+00 
0.0000000e+00 -4.2240482e-04 0.0000000e+00 
0.0000000e+00 -4.4678571e-04 0.0000000e+00 
0.0000000e+00 -4.7490615e-04 0.0000000e+00 
0.0000000e+00 -3.7571075e-04 0.0000000e+00 
0.0000000e+00 -2.2127345e-04 0.0000000e+00 
0.0000000e+00 -2.6460097e-05 0.0000000e+00 
0.0000000e+00 5.9961800e-05 0.0000000e+00 
0.0000000e+00 1.0282230e-04 0.0000000e+00 
0.0000000e+00 1.1147153e-04 0.0000000e+00 
0.0000000e+00 1.3315254e-04 0.0000000e+00 
0.0000000e+00 1.2977043e-04 0.0000000e+00 
0.0000000e+00 1.1036322e-04 0.0000000e+00 
0.0000000e+00 4.6099340e-05 0.0000000e+00 
0.0000000e+00 2.1861553e-05 0.0000000e+00 
0.0000000e+00 -2.9157438e-05 0.0000000e+00 
0.0000000e+00 3.9767912e-07 0.0000000e+00 
0.0000000e+00 -2.7544622e-05 0.0000000e+00 
0.0000000e+00 -1.3937756e-04 0.0000000e+00 
0.0000000e+00 -1.5529350e-04 0.0000000e+00 
0.0000000e+00 -3.2284282e-04 0.0000000e+00 
0.0000000e+00 -5.3091603e-04 0.0000000e+00 
0.0000000e+00 -5.5024651e-04 0.0000000e+00 
0.0000000e+00 -5.2422378e-04 0.0000000e+00 
0.0000000e+00 -4.0164206e-04 0.0000000e+00 
0.0000000e+00 -2.2615229e-04 0.0000000e+00 
0.0000000e+00 -6.9486465e-05 0.0000000e+00 
0.0000000e+00 -3.4752025e-05 0.0000000e+00 
0.0000000e+00 -6.7653864e-06 0.0000000e+00 
0.0000000e+00 1.6558479e-05 0.0000000e+00 
0.0000000e+00 2.8694363e-05 0.0000000e+00 
0.0000000e+00 2.3448243e-05 0.0000000e+00 
0.0000000e+00 1.0325398e-05 0.0000000e+00 
0.0000000e+00 -1.1993538e-05 0.0000000e+00 
0.0000000e+00 -2.2939570e-05 0.0000000e+00 
0.0000000e+00 -6.7286933e-06 0.0000000e+00 
0.0000000e+00 8.9620789e-06 0.0000000e+00 
2.7010531e-06 1.6933178e-07 -2.4357353e-06 
8.6395069e-08 -2.2047850e-06 5.9645333e-07 
1.6484435e-07 -8.4442672e-06 -9.0041476e-07 
-2.0383808e-07 -8.1695098e-06 -2.6095290e-06 
-1.8196067e-07 6.2427335e-07 -1.0934626e-06 
-4.5185016e-07 2.4181827e-06 -1.1998624e-06 
-1.1518052e-06 4.6021323e-06 -8.6543952e-07 
-6.9946918e-07 5.7815869e-06 -8.6915134e-07 
1.5352705e-06 -1.2981480e-06 -1.2700889e-06 
1.7492036e-06 -1.1911739e-06 -1.3523583e-06 
3.3137208e-06 -7.2872541e-07 -1.7432669e-06 
1.0595390e-06 -4.4033336e-06 3.7840525e-07 
1.3639218e-06 2.8419399e-06 -5.7362431e-06 
4.4808053e-06 -9.3315002e-06 -5.2141727e-06 
6.1920364e-06 -4.8521233e-06 -6.8020099e-06 
1.7853359e-06 3.8729504e-06 -8.6119153e-06 
5.3470280e-06 -9.2504888e-06 -1.4039946e-05 
1.7419776e-05 -3.6765935e-06 -2.0212989e-05 
2.6594202e-05 4.7120170e-06 -1.9588953e-05 
2.9504250e-05 -1.7675156e-06 -1.3986805e-05 
3.6380443e-05 -1.2508538e-06 -6.5644740e-06 
3.3371707e-05 -5.1308984e-06 1.9412648e-06 
3.0181085e-05 -1.7841026e-05 5.7617676e-06 
3.9792962e-05 -1.2686263e-05 1.2893804e-05 
3.2941563e-05 -9.5652622e-06 1.6009584e-05 
2.2810385e-05 -1.0910652e-05 1.5303696e-05 
2.2224198e-05 -3.4083714e-06 1.8714984e-05 
1.2388450e-05 1.1256254e-06 1.8343308e-05 