# vtk DataFile Version 4.0
vtk output
ASCII
DATASET UNSTRUCTURED_GRID
POINTS 1919 float
0.0000000e+00 0.0000000e+00 0.0000000e+00 
0.0000000e+00 0.0000000e+00 5.0000000e+01 
5.0000000e+00 0.0000000e+00 0.0000000e+00 
5.0000000e+00 0.0000000e+00 5.0000000e+01 
5.0000000e+00 1.0000000e+00 0.0000000e+00 
5.0000000e+00 1.0000000e+00 5.0000000e+01 
0.0000000e+00 1.0000000e+00 0.0000000e+00 
0.0000000e+00 1.0000000e+00 5.0000000e+01 
5.0000000e+00 2.0000000e+00 0.0000000e+00 
5.0000000e+00 2.0000000e+00 5.0000000e+01 
3.0000000e+00 2.0000000e+00 0.0000000e+00 
3.0000000e+00 2.0000000e+00 5.0000000e+01 
0.0000000e+00 2.0000000e+00 0.0000000e+00 
0.0000000e+00 2.0000000e+00 5.0000000e+01 
1.5000000e+00 3.0000000e+00 0.0000000e+00 
1.5000000e+00 3.0000000e+00 5.0000000e+01 
7.5000000e-01 3.0000000e+00 0.0000000e+00 
7.5000000e-01 3.0000000e+00 5.0000000e+01 
0.0000000e+00 3.0000000e+00 0.0000000e+00 
0.0000000e+00 3.0000000e+00 5.0000000e+01 
7.5000000e-01 3.0000000e+00 5.0000000e-01 
7.5000000e-01 3.0000000e+00 1.0000000e+00 
7.5000000e-01 3.0000000e+00 1.5000000e+00 
7.5000000e-01 3.0000000e+00 2.0000000e+00 
7.5000000e-01 3.0000000e+00 2.5000000e+00 
7.5000000e-01 3.0000000e+00 3.0000000e+00 
7.5000000e-01 3.0000000e+00 3.5000000e+00 
7.5000000e-01 3.0000000e+00 4.0000000e+00 
7.5000000e-01 3.0000000e+00 4.5000000e+00 
7.5000000e-01 3.0000000e+00 5.0000000e+00 
7.5000000e-01 3.0000000e+00 5.5000000e+00 
7.5000000e-01 3.0000000e+00 6.0000000e+00 
7.5000000e-01 3.0000000e+00 6.5000000e+00 
7.5000000e-01 3.0000000e+00 7.0000000e+00 
7.5000000e-01 3.0000000e+00 7.5000000e+00 
7.5000000e-01 3.0000000e+00 8.0000000e+00 
7.5000000e-01 3.0000000e+00 8.5000000e+00 
7.5000000e-01 3.0000000e+00 9.0000000e+00 
7.5000000e-01 3.0000000e+00 9.5000000e+00 
7.5000000e-01 3.0000000e+00 1.0000000e+01 
7.5000000e-01 3.0000000e+00 1.0500000e+01 
7.5000000e-01 3.0000000e+00 1.1000000e+01 
7.5000000e-01 3.0000000e+00 1.1500000e+01 
7.5000000e-01 3.0000000e+00 1.2000000e+01 
7.5000000e-01 3.0000000e+00 1.2500000e+01 
7.5000000e-01 3.0000000e+00 1.3000000e+01 
7.5000000e-01 3.0000000e+00 1.3500000e+01 
7.5000000e-01 3.0000000e+00 1.4000000e+01 
7.5000000e-01 3.0000000e+00 1.4500000e+01 
7.5000000e-01 3.0000000e+00 1.5000000e+01 
7.5000000e-01 3.0000000e+00 1.5500000e+01 
7.5000000e-01 3.0000000e+00 1.6000000e+01 
7.5000000e-01 3.0000000e+00 1.6500000e+01 
7.5000000e-01 3.0000000e+00 1.7000000e+01 
7.5000000e-01 3.0000000e+00 1.7500000e+01 
7.5000000e-01 3.0000000e+00 1.8000000e+01 
7.5000000e-01 3.0000000e+00 1.8500000e+01 
7.5000000e-01 3.0000000e+00 1.9000000e+01 
7.5000000e-01 3.0000000e+00 1.9500000e+01 
7.5000000e-01 3.0000000e+00 2.0000000e+01 
7.5000000e-01 3.0000000e+00 2.0500000e+01 
7.5000000e-01 3.0000000e+00 2.1000000e+01 
7.5000000e-01 3.0000000e+00 2.1500000e+01 
7.5000000e-01 3.0000000e+00 2.2000000e+01 
7.5000000e-01 3.0000000e+00 2.2500000e+01 
7.5000000e-01 3.0000000e+00 2.3000000e+01 
7.5000000e-01 3.0000000e+00 2.3500000e+01 
7.5000000e-01 3.0000000e+00 2.4000000e+01 
7.5000000e-01 3.0000000e+00 2.4500000e+01 
7.5000000e-01 3.0000000e+00 2.5000000e+01 
7.5000000e-01 3.0000000e+00 2.5500000e+01 
7.5000000e-01 3.0000000e+00 2.6000000e+01 
7.5000000e-01 3.0000000e+00 2.6500000e+01 
7.5000000e-01 3.0000000e+00 2.7000000e+01 
7.5000000e-01 3.0000000e+00 2.7500000e+01 
7.5000000e-01 3.0000000e+00 2.8000000e+01 
7.5000000e-01 3.0000000e+00 2.8500000e+01 
7.5000000e-01 3.0000000e+00 2.9000000e+01 
7.5000000e-01 3.0000000e+00 2.9500000e+01 
7.5000000e-01 3.0000000e+00 3.0000000e+01 
7.5000000e-01 3.0000000e+00 3.0500000e+01 
7.5000000e-01 3.0000000e+00 3.1000000e+01 
7.5000000e-01 3.0000000e+00 3.1500000e+01 
7.5000000e-01 3.0000000e+00 3.2000000e+01 
7.5000000e-01 3.0000000e+00 3.2500000e+01 
7.5000000e-01 3.0000000e+00 3.3000000e+01 
7.5000000e-01 3.0000000e+00 3.3500000e+01 
7.5000000e-01 3.0000000e+00 3.4000000e+01 
7.5000000e-01 3.0000000e+00 3.4500000e+01 
7.5000000e-01 3.0000000e+00 3.5000000e+01 
7.5000000e-01 3.0000000e+00 3.5500000e+01 
7.5000000e-01 3.0000000e+00 3.6000000e+01 
7.5000000e-01 3.0000000e+00 3.6500000e+01 
7.5000000e-01 3.0000000e+00 3.7000000e+01 
7.5000000e-01 3.0000000e+00 3.7500000e+01 
7.5000000e-01 3.0000000e+00 3.8000000e+01 
7.5000000e-01 3.0000000e+00 3.8500000e+01 
7.5000000e-01 3.0000000e+00 3.9000000e+01 
7.5000000e-01 3.0000000e+00 3.9500000e+01 
7.5000000e-01 3.0000000e+00 4.0000000e+01 
7.5000000e-01 3.0000000e+00 4.0500000e+01 
7.5000000e-01 3.0000000e+00 4.1000000e+01 
7.5000000e-01 3.0000000e+00 4.1500000e+01 
7.5000000e-01 3.0000000e+00 4.2000000e+01 
7.5000000e-01 3.0000000e+00 4.2500000e+01 
7.5000000e-01 3.0000000e+00 4.3000000e+01 
7.5000000e-01 3.0000000e+00 4.3500000e+01 
7.5000000e-01 3.0000000e+00 4.4000000e+01 
7.5000000e-01 3.0000000e+00 4.4500000e+01 
7.5000000e-01 3.0000000e+00 4.5000000e+01 
7.5000000e-01 3.0000000e+00 4.5500000e+01 
7.5000000e-01 3.0000000e+00 4.6000000e+01 
7.5000000e-01 3.0000000e+00 4.6500000e+01 
7.5000000e-01 3.0000000e+00 4.7000000e+01 
7.5000000e-01 3.0000000e+00 4.7500000e+01 
7.5000000e-01 3.0000000e+00 4.8000000e+01 
7.5000000e-01 3.0000000e+00 4.8500000e+01 
7.5000000e-01 3.0000000e+00 4.9000000e+01 
7.5000000e-01 3.0000000e+00 4.9500000e+01 
7.5000000e-01 3.0250001e+00 0.0000000e+00 
7.5000000e-01 3.0250001e+00 5.0000000e-01 
7.5000000e-01 3.0250001e+00 1.0000000e+00 
7.5000000e-01 3.0250001e+00 1.5000000e+00 
7.5000000e-01 3.0250001e+00 2.0000000e+00 
7.5000000e-01 3.0250001e+00 2.5000000e+00 
7.5000000e-01 3.0250001e+00 3.0000000e+00 
7.5000000e-01 3.0250001e+00 3.5000000e+00 
7.5000000e-01 3.0250001e+00 4.0000000e+00 
7.5000000e-01 3.0250001e+00 4.5000000e+00 
7.5000000e-01 3.0250001e+00 5.0000000e+00 
7.5000000e-01 3.0250001e+00 5.5000000e+00 
7.5000000e-01 3.0250001e+00 6.0000000e+00 
7.5000000e-01 3.0250001e+00 6.5000000e+00 
7.5000000e-01 3.0250001e+00 7.0000000e+00 
7.5000000e-01 3.0250001e+00 7.5000000e+00 
7.5000000e-01 3.0250001e+00 8.0000000e+00 
7.5000000e-01 3.0250001e+00 8.5000000e+00 
7.5000000e-01 3.0250001e+00 9.0000000e+00 
7.5000000e-01 3.0250001e+00 9.5000000e+00 
7.5000000e-01 3.0250001e+00 1.0000000e+01 
7.5000000e-01 3.0250001e+00 1.0500000e+01 
7.5000000e-01 3.0250001e+00 1.1000000e+01 
7.5000000e-01 3.0250001e+00 1.1500000e+01 
7.5000000e-01 3.0250001e+00 1.2000000e+01 
7.5000000e-01 3.0250001e+00 1.2500000e+01 
7.5000000e-01 3.0250001e+00 1.3000000e+01 
7.5000000e-01 3.0250001e+00 1.3500000e+01 
7.5000000e-01 3.0250001e+00 1.4000000e+01 
7.5000000e-01 3.0250001e+00 1.4500000e+01 
7.5000000e-01 3.0250001e+00 1.5000000e+01 
7.5000000e-01 3.0250001e+00 1.5500000e+01 
7.5000000e-01 3.0250001e+00 1.6000000e+01 
7.5000000e-01 3.0250001e+00 1.6500000e+01 
7.5000000e-01 3.0250001e+00 1.7000000e+01 
7.5000000e-01 3.0250001e+00 1.7500000e+01 
7.5000000e-01 3.0250001e+00 1.8000000e+01 
7.5000000e-01 3.0250001e+00 1.8500000e+01 
7.5000000e-01 3.0250001e+00 1.9000000e+01 
7.5000000e-01 3.0250001e+00 1.9500000e+01 
7.5000000e-01 3.0250001e+00 2.0000000e+01 
7.5000000e-01 3.0250001e+00 2.0500000e+01 
7.5000000e-01 3.0250001e+00 2.1000000e+01 
7.5000000e-01 3.0250001e+00 2.1500000e+01 
7.5000000e-01 3.0250001e+00 2.2000000e+01 
7.5000000e-01 3.0250001e+00 2.2500000e+01 
7.5000000e-01 3.0250001e+00 2.3000000e+01 
7.5000000e-01 3.0250001e+00 2.3500000e+01 
7.5000000e-01 3.0250001e+00 2.4000000e+01 
7.5000000e-01 3.0250001e+00 2.4500000e+01 
7.5000000e-01 3.0250001e+00 2.5000000e+01 
7.5000000e-01 3.0250001e+00 2.5500000e+01 
7.5000000e-01 3.0250001e+00 2.6000000e+01 
7.5000000e-01 3.0250001e+00 2.6500000e+01 
7.5000000e-01 3.0250001e+00 2.7000000e+01 
7.5000000e-01 3.0250001e+00 2.7500000e+01 
7.5000000e-01 3.0250001e+00 2.8000000e+01 
7.5000000e-01 3.0250001e+00 2.8500000e+01 
7.5000000e-01 3.0250001e+00 2.9000000e+01 
7.5000000e-01 3.0250001e+00 2.9500000e+01 
7.5000000e-01 3.0250001e+00 3.0000000e+01 
7.5000000e-01 3.0250001e+00 3.0500000e+01 
7.5000000e-01 3.0250001e+00 3.1000000e+01 
7.5000000e-01 3.0250001e+00 3.1500000e+01 
7.5000000e-01 3.0250001e+00 3.2000000e+01 
7.5000000e-01 3.0250001e+00 3.2500000e+01 
7.5000000e-01 3.0250001e+00 3.3000000e+01 
7.5000000e-01 3.0250001e+00 3.3500000e+01 
7.5000000e-01 3.0250001e+00 3.4000000e+01 
7.5000000e-01 3.0250001e+00 3.4500000e+01 
7.5000000e-01 3.0250001e+00 3.5000000e+01 
7.5000000e-01 3.0250001e+00 3.5500000e+01 
7.5000000e-01 3.0250001e+00 3.6000000e+01 
7.5000000e-01 3.0250001e+00 3.6500000e+01 
7.5000000e-01 3.0250001e+00 3.7000000e+01 
7.5000000e-01 3.0250001e+00 3.7500000e+01 
7.5000000e-01 3.0250001e+00 3.8000000e+01 
7.5000000e-01 3.0250001e+00 3.8500000e+01 
7.5000000e-01 3.0250001e+00 3.9000000e+01 
7.5000000e-01 3.0250001e+00 3.9500000e+01 
7.5000000e-01 3.0250001e+00 4.0000000e+01 
7.5000000e-01 3.0250001e+00 4.0500000e+01 
7.5000000e-01 3.0250001e+00 4.1000000e+01 
7.5000000e-01 3.0250001e+00 4.1500000e+01 
7.5000000e-01 3.0250001e+00 4.2000000e+01 
7.5000000e-01 3.0250001e+00 4.2500000e+01 
7.5000000e-01 3.0250001e+00 4.3000000e+01 
7.5000000e-01 3.0250001e+00 4.3500000e+01 
7.5000000e-01 3.0250001e+00 4.4000000e+01 
7.5000000e-01 3.0250001e+00 4.4500000e+01 
7.5000000e-01 3.0250001e+00 4.5000000e+01 
7.5000000e-01 3.0250001e+00 4.5500000e+01 
7.5000000e-01 3.0250001e+00 4.6000000e+01 
7.5000000e-01 3.0250001e+00 4.6500000e+01 
7.5000000e-01 3.0250001e+00 4.7000000e+01 
7.5000000e-01 3.0250001e+00 4.7500000e+01 
7.5000000e-01 3.0250001e+00 4.8000000e+01 
7.5000000e-01 3.0250001e+00 4.8500000e+01 
7.5000000e-01 3.0250001e+00 4.9000000e+01 
7.5000000e-01 3.0250001e+00 4.9500000e+01 
7.5000000e-01 3.0250001e+00 5.0000000e+01 
3.0000000e+00 2.0000000e+00 3.6000000e+01 
8.0487806e-01 3.0000000e+00 3.6000000e+01 
0.0000000e+00 0.0000000e+00 1.0000000e+00 
0.0000000e+00 0.0000000e+00 2.0000000e+00 
0.0000000e+00 0.0000000e+00 3.0000000e+00 
0.0000000e+00 0.0000000e+00 4.0000000e+00 
0.0000000e+00 0.0000000e+00 5.0000000e+00 
0.0000000e+00 0.0000000e+00 6.0000000e+00 
0.0000000e+00 0.0000000e+00 7.0000000e+00 
0.0000000e+00 0.0000000e+00 8.0000000e+00 
[...]
POINT_DATA 1919
FIELD FieldData 3
DISPLACEMENT 3 1919  float
0.0000000e+00 0.0000000e+00 0.0000000e+00 
0.0000000e+00 0.0000000e+00 0.0000000e+00 
0.0000000e+00 0.0000000e+00 0.0000000e+00 
0.0000000e+00 0.0000000e+00 0.0000000e+00 
7.9451762e-05 1.0811420e-05 8.4362091e-06 
-1.5546646e-11 -1.7290916e-10 2.3506629e-11 
0.0000000e+00 -4.2988869e-04 0.0000000e+00 
0.0000000e+00 1.3685573e-09 0.0000000e+00 
-1.6657048e-05 3.9385399e-05 5.1025345e-05 
1.4355776e-11 -2.4426808e-10 1.1466034e-10 
-3.3792560e-06 -1.4261983e-04 -1.4553595e-04 
-2.9385255e-10 -2.2442177e-09 2.4313437e-10 
0.0000000e+00 -6.6536834e-04 0.0000000e+00 
0.0000000e+00 7.9289268e-09 0.0000000e+00 
-2.4357819e-04 -5.2915438e-04 -3.5295109e-04 
-2.4926334e-09 -8.7165120e-09 -3.3504022e-09 
-2.1398751e-04 -3.4962609e-04 -4.8807674e-06 
5.7254566e-11 2.2638233e-07 7.1646342e-09 
0.0000000e+00 -7.5976655e-04 0.0000000e+00 
0.0000000e+00 -3.4636301e-08 0.0000000e+00 
1.1107227e-04 -6.0508517e-04 1.3123215e-05 
4.6622135e-05 -1.3240591e-03 1.0378024e-04 
3.6734007e-05 -2.3718339e-03 1.8875506e-04 
-1.6168876e-04 -3.5382975e-03 6.6720073e-05 
-2.1497041e-04 -4.5061219e-03 1.3607348e-04 
-2.2039720e-04 -4.8451298e-03 1.2067849e-05 
-3.0671540e-04 -4.8441910e-03 -4.5436558e-05 
-2.8471887e-04 -4.9147592e-03 -1.5527290e-05 
-2.9675927e-04 -5.1737106e-03 -7.1517272e-05 
-3.2599250e-04 -5.2396636e-03 -1.8130860e-04 
-3.4277060e-04 -4.6730745e-03 -2.9755454e-04 
-2.8759392e-04 -3.5512715e-03 -2.6384703e-04 
-2.2715871e-04 -2.3893926e-03 -4.2714985e-04 
-1.1783311e-04 -1.4075032e-03 -3.1786889e-04 
-4.7273315e-05 -6.4136472e-04 -3.2117451e-04 
4.9014484e-06 -9.4020972e-05 -1.5383567e-04 
2.2622406e-05 2.2328294e-04 -6.7253626e-05 
2.8858311e-05 3.3753851e-04 1.3507502e-05 
2.1327913e-05 3.0490567e-04 3.9787632e-05 
1.3857988e-05 2.1089960e-04 4.3835051e-05 
8.0455666e-06 1.2536770e-04 3.6173533e-05 
1.2886464e-06 6.7512505e-05 1.3151480e-05 
2.6472403e-06 2.6175840e-05 1.1558038e-05 
8.9972121e-07 -1.6870630e-05 2.2415954e-06 
-2.6325838e-06 -6.3783620e-05 7.3330659e-07 
-6.6447615e-06 -9.4158138e-05 1.0643442e-05 
-1.2418511e-05 -8.9708919e-05 9.5250161e-06 
-1.1870190e-05 -4.8124963e-05 -4.8243814e-06 
-1.1217358e-05 1.5401400e-05 -1.9196481e-05 
4.5895235e-06 6.9243666e-05 -2.3405606e-05 
2.1491483e-05 1.0375759e-04 -4.4021603e-05 
4.1511899e-05 1.4512308e-04 -3.0574134e-05 
6.4968233e-05 2.1883385e-04 -4.3957800e-05 
8.3970262e-05 3.2478632e-04 -3.6479800e-05 
1.2042413e-04 4.3424920e-04 4.9498560e-08 
1.1571993e-04 5.0550664e-04 -2.4085919e-06 
1.2341133e-04 5.2159029e-04 6.5642776e-06 
1.5862549e-04 4.8257288e-04 4.6649569e-05 
1.1437941e-04 3.7092785e-04 1.7044511e-04 
1.4696385e-04 1.3517738e-04 1.7248122e-04 
1.0166357e-04 -3.3583600e-04 3.2212641e-04 
5.8629819e-05 -1.1635182e-03 2.7023096e-04 
-3.4026110e-05 -2.3774481e-03 4.2242379e-04 
-9.0695947e-05 -3.7613609e-03 2.8545383e-04 
-2.4044525e-04 -4.8444956e-03 3.2411792e-04 
-2.7138798e-04 -5.0721327e-03 1.2861633e-04 
-3.0670757e-04 -4.9371175e-03 -3.8816602e-06 
-2.8392815e-04 -4.9360301e-03 -9.0951027e-05 
-2.9401510e-04 -5.1742713e-03 -1.3365463e-04 
-3.3369349e-04 -5.1928735e-03 -2.2644640e-04 
-3.2876167e-04 -4.4594971e-03 -3.4209253e-04 
-2.5709503e-04 -3.2588462e-03 -2.4446874e-04 
-2.0707543e-04 -2.0718093e-03 -3.9829110e-04 
-1.1067234e-04 -1.0930772e-03 -2.8119463e-04 
-4.0282139e-05 -4.0510975e-04 -2.8534391e-04 
1.9179786e-05 1.3135548e-05 -1.4394482e-04 
2.9693108e-05 2.1483254e-04 -5.3389911e-05 
2.8923729e-05 2.7432427e-04 2.3731251e-05 
2.4091427e-05 2.5687058e-04 4.8297541e-05 
1.3201331e-05 2.0155525e-04 4.1909421e-05 
6.8348627e-06 1.2869624e-04 3.2393396e-05 
2.0548705e-06 5.7627101e-05 1.4415820e-05 
-2.0949894e-06 7.5479184e-06 8.0556601e-06 
-3.6325050e-06 -1.7822549e-05 -7.2410012e-06 
-2.3412822e-06 -2.4244058e-05 -5.2276473e-06 
-1.3707221e-06 -2.2828577e-05 -4.0613345e-06 
-1.5635839e-06 -2.0736408e-05 -3.9339006e-06 
3.3687795e-07 -1.6865673e-05 3.3256609e-07 
1.7145403e-07 -8.4704398e-06 7.8844107e-07 
1.2731535e-06 1.8791632e-06 3.5321357e-09 
1.2426256e-06 8.3499863e-06 2.1876203e-07 
1.3110763e-07 7.6380929e-06 8.0082447e-07 
1.5649623e-07 2.9444452e-06 3.4660707e-07 
1.9112082e-07 -1.2367354e-06 -3.4601305e-07 
-2.5365134e-08 -2.4115318e-06 -1.0456694e-06 
-4.8246907e-08 -1.7019116e-06 3.8656466e-07 
-1.8266968e-07 -7.0391548e-07 4.4276720e-09 
1.0591362e-07 1.0689121e-07 -8.1398639e-08 
2.1897095e-07 1.1359991e-06 5.1445221e-07 
5.4538344e-08 2.0289554e-06 -3.3088688e-07 
-7.4081420e-08 1.6124301e-06 -1.3677793e-08 
-4.1786912e-08 -1.9589216e-07 2.4206270e-07 
-4.0235925e-08 -2.0366390e-06 -3.5927403e-07 
8.7356300e-10 -2.3872130e-06 4.2482888e-08 
3.5507295e-08 -7.8746768e-07 1.5921093e-07 
1.1443687e-08 1.3654495e-06 -1.5524772e-07 
6.2006407e-08 2.1710669e-06 -2.7278634e-08 
-1.2002150e-07 1.2240472e-06 -3.5795964e-08 
-7.8548744e-08 -4.2881354e-07 -2.0991228e-08 
-5.0133821e-08 -1.3130606e-06 4.1531404e-08 
-3.6917174e-09 -8.9816069e-07 -3.5665213e-09 
-8.7123730e-09 1.0975639e-07 -2.0519277e-08 
8.2273788e-09 6.9049679e-07 3.7336012e-08 
2.2636456e-08 5.5619046e-07 -8.7874792e-09 
-3.2345551e-09 6.1415186e-08 -1.5300225e-08 
-1.3585600e-08 -3.1835827e-07 1.2593684e-08 
3.0865166e-09 -3.4716837e-07 -5.7829226e-09 
-4.4477666e-09 -1.2729461e-07 1.8507443e-09 
3.6941590e-09 1.2137228e-07 -1.5497752e-09 
0.0000000e+00 -3.5055331e-04 0.0000000e+00 
0.0000000e+00 -6.0815882e-04 0.0000000e+00 
0.0000000e+00 -1.3291751e-03 0.0000000e+00 
0.0000000e+00 -2.3802717e-03 0.0000000e+00 
0.0000000e+00 -3.5579221e-03 0.0000000e+00 
0.0000000e+00 -4.5256172e-03 0.0000000e+00 
0.0000000e+00 -4.8795915e-03 0.0000000e+00 
0.0000000e+00 -4.8673777e-03 0.0000000e+00 
0.0000000e+00 -4.9405675e-03 0.0000000e+00 
0.0000000e+00 -5.1913224e-03 0.0000000e+00 
0.0000000e+00 -5.2715326e-03 0.0000000e+00 
0.0000000e+00 -4.6950984e-03 0.0000000e+00 
0.0000000e+00 -3.5726982e-03 0.0000000e+00 
0.0000000e+00 -2.3977738e-03 0.0000000e+00 
0.0000000e+00 -1.4085278e-03 0.0000000e+00 
0.0000000e+00 -6.4116094e-04 0.0000000e+00 
0.0000000e+00 -9.6180418e-05 0.0000000e+00 
0.0000000e+00 2.2184648e-04 0.0000000e+00 
0.0000000e+00 3.3638673e-04 0.0000000e+00 
0.0000000e+00 3.0593574e-04 0.0000000e+00 
0.0000000e+00 2.1367638e-04 0.0000000e+00 
0.0000000e+00 1.2713077e-04 0.0000000e+00 
0.0000000e+00 6.7926347e-05 0.0000000e+00 
0.0000000e+00 2.5164516e-05 0.0000000e+00 
0.0000000e+00 -1.8364604e-05 0.0000000e+00 
0.0000000e+00 -6.3948755e-05 0.0000000e+00 
0.0000000e+00 -9.3333692e-05 0.0000000e+00 
0.0000000e+00 -8.8520836e-05 0.0000000e+00 
0.0000000e+00 -4.6997666e-05 0.0000000e+00 
0.0000000e+00 1.4366809e-05 0.0000000e+00 
0.0000000e+00 6.7234134e-05 0.0000000e+00 
0.0000000e+00 1.0332307e-04 0.0000000e+00 
0.0000000e+00 1.4614839e-04 0.0000000e+00 
0.0000000e+00 2.2077697e-04 0.0000000e+00 
0.0000000e+00 3.2627399e-04 0.0000000e+00 
0.0000000e+00 4.3349326e-04 0.0000000e+00 
0.0000000e+00 5.0458219e-04 0.0000000e+00 
0.0000000e+00 5.2191672e-04 0.0000000e+00 
0.0000000e+00 4.8395220e-04 0.0000000e+00 
0.0000000e+00 3.7429240e-04 0.0000000e+00 
0.0000000e+00 1.3665899e-04 0.0000000e+00 
0.0000000e+00 -3.3947889e-04 0.0000000e+00 
0.0000000e+00 -1.1752566e-03 0.0000000e+00 
0.0000000e+00 -2.3922487e-03 0.0000000e+00 
0.0000000e+00 -3.7853960e-03 0.0000000e+00 
0.0000000e+00 -4.8643029e-03 0.0000000e+00 
0.0000000e+00 -5.0984896e-03 0.0000000e+00 
0.0000000e+00 -4.9596755e-03 0.0000000e+00 
0.0000000e+00 -4.9655065e-03 0.0000000e+00 
0.0000000e+00 -5.1977672e-03 0.0000000e+00 
0.0000000e+00 -5.2228193e-03 0.0000000e+00 
0.0000000e+00 -4.4769896e-03 0.0000000e+00 
0.0000000e+00 -3.2752918e-03 0.0000000e+00 
0.0000000e+00 -2.0778289e-03 0.0000000e+00 
0.0000000e+00 -1.0982588e-03 0.0000000e+00 
0.0000000e+00 -4.0658328e-04 0.0000000e+00 
0.0000000e+00 1.2807507e-05 0.0000000e+00 
0.0000000e+00 2.1572257e-04 0.0000000e+00 
0.0000000e+00 2.7560483e-04 0.0000000e+00 
0.0000000e+00 2.5761090e-04 0.0000000e+00 
0.0000000e+00 2.0155917e-04 0.0000000e+00 
0.0000000e+00 1.2888560e-04 0.0000000e+00 
0.0000000e+00 5.8615664e-05 0.0000000e+00 
0.0000000e+00 7.9949687e-06 0.0000000e+00 
0.0000000e+00 -1.7807171e-05 0.0000000e+00 
0.0000000e+00 -2.4533498e-05 0.0000000e+00 
0.0000000e+00 -2.3120159e-05 0.0000000e+00 
0.0000000e+00 -2.0700993e-05 0.0000000e+00 
0.0000000e+00 -1.6620568e-05 0.0000000e+00 
0.0000000e+00 -8.4185604e-06 0.0000000e+00 
0.0000000e+00 1.6723128e-06 0.0000000e+00 
0.0000000e+00 8.0733034e-06 0.0000000e+00 
0.0000000e+00 7.6899269e-06 0.0000000e+00 
0.0000000e+00 3.0975318e-06 0.0000000e+00 
0.0000000e+00 -1.1077835e-06 0.0000000e+00 
0.0000000e+00 -2.4329975e-06 0.0000000e+00 
0.0000000e+00 -1.7565376e-06 0.0000000e+00 
0.0000000e+00 -7.1874621e-07 0.0000000e+00 
0.0000000e+00 1.5598108e-07 0.0000000e+00 
0.0000000e+00 1.1569097e-06 0.0000000e+00 
0.0000000e+00 1.9522288e-06 0.0000000e+00 
0.0000000e+00 1.5511465e-06 0.0000000e+00 
0.0000000e+00 -1.6592502e-07 0.0000000e+00 
0.0000000e+00 -1.9676718e-06 0.0000000e+00 
0.0000000e+00 -2.3199627e-06 0.0000000e+00 
0.0000000e+00 -7.9572220e-07 0.0000000e+00 
0.0000000e+00 1.2805917e-06 0.0000000e+00 
0.0000000e+00 2.1172777e-06 0.0000000e+00 
0.0000000e+00 1.2296955e-06 0.0000000e+00 
0.0000000e+00 -3.7210671e-07 0.0000000e+00 
0.0000000e+00 -1.2656214e-06 0.0000000e+00 
0.0000000e+00 -9.0140429e-07 0.0000000e+00 
0.0000000e+00 6.7021368e-08 0.0000000e+00 
0.0000000e+00 6.6639564e-07 0.0000000e+00 
0.0000000e+00 5.6241885e-07 0.0000000e+00 
0.0000000e+00 7.7055461e-08 0.0000000e+00 
0.0000000e+00 -3.0685328e-07 0.0000000e+00 
0.0000000e+00 -3.4754854e-07 0.0000000e+00 
0.0000000e+00 -1.3214877e-07 0.0000000e+00 
0.0000000e+00 1.1864447e-07 0.0000000e+00 
0.0000000e+00 2.2560477e-07 0.0000000e+00 
6.1915563e-07 -7.9245621e-07 1.1090755e-06 
4.1017336e-07 5.4846200e-06 1.0255957e-06 
0.0000000e+00 0.0000000e+00 0.0000000e+00 
0.0000000e+00 0.0000000e+00 0.0000000e+00 
0.0000000e+00 0.0000000e+00 0.0000000e+00 
0.0000000e+00 0.0000000e+00 0.0000000e+00 
0.0000000e+00 0.0000000e+00 0.0000000e+00 
0.0000000e+00 0.0000000e+00 0.0000000e+00 
0.0000000e+00 0.0000000e+00 0.0000000e+00 
0.0000000e+00 0.0000000e+00 0.0000000e+00 
0.0000000e+00 0.0000000e+00 0.0000000e+00 
0.0000000e+00 0.0000000e+00 0.0000000e+00 
0.0000000e+00 0.0000000e+00 0.0000000e+00 
0.0000000e+00 0.0000000e+00 0.0000000e+00 
0.0000000e+00 0.0000000e+00 0.0000000e+00 
0.0000000e+00 0.0000000e+00 0.0000000e+00 
0.0000000e+00 0.0000000e+00 0.0000000e+00 
0.0000000e+00 0.0000000e+00 0.0000000e+00 
0.0000000e+00 0.0000000e+00 0.0000000e+00 
0.0000000e+00 0.0000000e+00 0.0000000e+00 
0.0000000e+00 0.0000000e+00 0.0000000e+00 
0.0000000e+00 0.0000000e+00 0.0000000e+00 
0.0000000e+00 0.0000000e+00 0.0000000e+00 
0.0000000e+00 0.0000000e+00 0.0000000e+00 
0.0000000e+00 0.0000000e+00 0.0000000e+00 
0.0000000e+00 0.0000000e+00 0.0000000e+00 
0.0000000e+00 0.0000000e+00 0.0000000e+00 
0.0000000e+00 0.0000000e+00 0.0000000e+00 
0.0000000e+00 0.0000000e+00 0.0000000e+00 
0.0000000e+00 0.0000000e+00 0.0000000e+00 
0.0000000e+00 0.0000000e+00 0.0000000e+00 
0.0000000e+00 0.0000000e+00 0.0000000e+00 
0.0000000e+00 0.0000000e+00 0.0000000e+00 
0.0000000e+00 0.0000000e+00 0.0000000e+00 
0.0000000e+00 0.0000000e+00 0.0000000e+00 
0.0000000e+00 0.0000000e+00 0.0000000e+00 
0.0000000e+00 0.0000000e+00 0.0000000e+00 
0.0000000e+00 0.0000000e+00 0.0000000e+00 
0.0000000e+00 0.0000000e+00 0.0000000e+00 
0.0000000e+00 0.0000000e+00 0.0000000e+00 
0.0000000e+00 0.0000000e+00 0.0000000e+00 
0.0000000e+00 0.0000000e+00 0.0000000e+00 
0.0000000e+00 0.0000000e+00 0.0000000e+00 
0.0000000e+00 0.0000000e+00 0.0000000e+00 
0.0000000e+00 0.0000000e+00 0.0000000e+00 
0.0000000e+00 0.0000000e+00 0.0000000e+00 
0.0000000e+00 0.0000000e+00 0.0000000e+00 
0.0000000e+00 0.0000000e+00 0.0000000e+00 
0.0000000e+00 0.0000000e+00 0.0000000e+00 
0.0000000e+00 0.0000000e+00 0.0000000e+00 
0.0000000e+00 0.0000000e+00 0.0000000e+00 
0.0000000e+00 0.0000000e+00 0.0000000e+00 
0.0000000e+00 0.0000000e+00 0.0000000e+00 
0.0000000e+00 0.0000000e+00 0.0000000e+00 
0.0000000e+00 0.0000000e+00 0.0000000e+00 
0.0000000e+00 0.0000000e+00 0.0000000e+00 
0.0000000e+00 0.0000000e+00 0.0000000e+00 
0.0000000e+00 0.0000000e+00 0.0000000e+00 
0.0000000e+00 0.0000000e+00 0.0000000e+00 
0.0000000e+00 0.0000000e+00 0.0000000e+00 
0.0000000e+00 0.0000000e+00 0.0000000e+00 
0.0000000e+00 0.0000000e+00 0.0000000e+00 
0.0000000e+00 0.0000000e+00 0.0000000e+00 
0.0000000e+00 0.0000000e+00 0.0000000e+00 
0.0000000e+00 0.0000000e+00 0.0000000e+00 
0.0000000e+00 0.0000000e+00 0.0000000e+00 
0.0000000e+00 0.0000000e+00 0.0000000e+00 
0.0000000e+00 0.0000000e+00 0.0000000e+00 
0.0000000e+00 0.0000000e+00 0.0000000e+00 
0.0000000e+00 0.0000000e+00 0.0000000e+00 
0.0000000e+00 0.0000000e+00 0.0000000e+00 
0.0000000e+00 0.0000000e+00 0.0000000e+00 
0.0000000e+00 0.0000000e+00 0.0000000e+00 
0.0000000e+00 0.0000000e+00 0.0000000e+00 
0.0000000e+00 0.0000000e+00 0.0000000e+00 
0.0000000e+00 0.0000000e+00 0.0000000e+00 
0.0000000e+00 0.0000000e+00 0.0000000e+00 
0.0000000e+00 0.0000000e+00 0.0000000e+00 
0.0000000e+00 0.0000000e+00 0.0000000e+00 
0.0000000e+00 0.0000000e+00 0.0000000e+00 
0.0000000e+00 0.0000000e+00 0.0000000e+00 
0.0000000e+00 0.0000000e+00 0.0000000e+00 
0.0000000e+00 0.0000000e+00 0.0000000e+00 
0.0000000e+00 0.0000000e+00 0.0000000e+00 
0.0000000e+00 0.0000000e+00 0.0000000e+00 
0.0000000e+00 0.0000000e+00 0.0000000e+00 
0.0000000e+00 0.0000000e+00 0.0000000e+00 
0.0000000e+00 0.0000000e+00 0.0000000e+00 
0.0000000e+00 0.0000000e+00 0.0000000e+00 
0.0000000e+00 0.0000000e+00 0.0000000e+00 
0.0000000e+00 0.0000000e+00 0.0000000e+00 
0.0000000e+00 0.0000000e+00 0.0000000e+00 
0.0000000e+00 0.0000000e+00 0.0000000e+00 
0.0000000e+00 0.0000000e+00 0.0000000e+00 
0.0000000e+00 0.0000000e+00 0.0000000e+00 
0.0000000e+00 0.0000000e+00 0.0000000e+00 
0.0000000e+00 0.0000000e+00 0.0000000e+00 
0.0000000e+00 0.0000000e+00 0.0000000e+00 
0.0000000e+00 0.0000000e+00 0.0000000e+00 
0.0000000e+00 0.0000000e+00 0.0000000e+00 
0.0000000e+00 0.0000000e+00 0.0000000e+00 
0.0000000e+00 0.0000000e+00 0.0000000e+00 
0.0000000e+00 0.0000000e+00 0.0000000e+00 
0.0000000e+00 0.0000000e+00 0.0000000e+00 
0.0000000e+00 0.0000000e+00 0.0000000e+00 
0.0000000e+00 0.0000000e+00 0.0000000e+00 
0.0000000e+00 0.0000000e+00 0.0000000e+00 
0.0000000e+00 0.0000000e+00 0.0000000e+00 
2.0870337e-05 -3.5403860e-05 -1.1206349e-05 
1.9546147e-05 -5.2691754e-05 -2.1398551e-05 
2.9537068e-05 -5.5828055e-05 -2.0493335e-05 
5.0129434e-05 -3.4638560e-05 -1.3159708e-05 
5.6486275e-05 6.9749731e-06 6.4441083e-06 
4.6950066e-05 6.3171564e-07 2.8993147e-05 
3.6851834e-05 5.0431049e-06 3.7603146e-05 
2.1683110e-05 -6.6111056e-07 3.2773256e-05 
7.7754139e-06 -4.6738878e-06 1.0994923e-05 
1.4820044e-06 -3.2786431e-06 3.5380497e-06 
9.8719333e-08 -2.9059609e-06 -1.0590268e-06 
1.5221964e-06 2.4341389e-06 -3.4648301e-06 
1.5895720e-06 4.7717908e-06 -3.1709187e-06 
6.9765480e-07 -7.8513549e-06 -3.4332024e-06 
-3.6369279e-06 2.2630748e-07 -2.9294717e-06 
-2.9914263e-06 7.6840361e-06 -2.5628722e-06 
2.3822713e-06 9.1699521e-06 -3.2047174e-06 
5.8917880e-07 1.1647664e-06 -9.0720923e-06 
-1.1684105e-08 4.1694748e-06 -1.2000481e-05 
4.5964971e-06 -2.7484975e-05 -3.0016861e-05 
6.2707472e-06 -3.2811120e-05 -2.6781250e-05 
2.7441372e-05 -3.8678350e-05 -2.6329921e-05 
6.2851002e-05 -3.0259796e-05 -1.4717063e-05 
6.3276217e-05 -1.2753723e-05 3.0863864e-06 
5.7091118e-05 -1.1652414e-06 2.1833235e-05 
5.1634725e-05 2.8139957e-06 3.6498972e-05 
3.3010794e-05 2.7034325e-06 3.8098944e-05 
1.7422562e-05 -2.2293211e-06 2.6107266e-05 
5.6768745e-06 -4.2493275e-06 9.9273511e-06 
4.3407954e-07 -4.1662142e-06 2.8836016e-06 
-5.6975790e-07 -3.7061798e-07 -4.5299831e-07 
-3.3925492e-08 3.2823611e-06 -2.8725236e-07 
-1.9357837e-07 -8.2675847e-08 -8.6919210e-09 
3.1035003e-07 -1.8105555e-06 1.6645058e-07 
1.2727824e-07 2.7595707e-08 -2.0732466e-07 
-1.8643604e-07 5.5837285e-07 2.7032813e-08 
1.1142987e-07 -2.1790103e-07 2.0406409e-07 
-1.1926862e-08 -1.2628185e-07 -2.5568840e-09 
-1.3897797e-08 8.2183460e-09 3.9904524e-11 
-4.5578870e-09 1.0150815e-07 2.1826606e-08 
1.3521531e-08 -5.8053534e-08 1.1287921e-08 
2.5696929e-09 1.4830736e-08 -1.4138420e-09 
6.4503342e-10 1.0651698e-08 6.5238175e-09 
7.0595330e-10 -4.9904054e-09 -1.0624384e-10 
-3.1567401e-10 -1.1773268e-09 -6.7847900e-10 
-1.7160096e-10 6.4268069e-10 1.2004391e-10 
2.2678634e-10 -2.1603049e-10 2.4558575e-10 
3.4618321e-13 -3.8542603e-11 5.1697865e-11 
5.4650354e-11 3.4544942e-10 1.1245412e-10 
0.0000000e+00 -2.6681719e-04 0.0000000e+00 
0.0000000e+00 -3.4771540e-04 0.0000000e+00 
0.0000000e+00 -5.8119261e-04 0.0000000e+00 
0.0000000e+00 -6.8705162e-04 0.0000000e+00 
0.0000000e+00 -6.4722594e-04 0.0000000e+00 
0.0000000e+00 -4.9797993e-04 0.0000000e+00 
0.0000000e+00 -2.4643572e-04 0.0000000e+00 
0.0000000e+00 -6.0153467e-05 0.0000000e+00 
0.0000000e+00 2.2947643e-05 0.0000000e+00 
0.0000000e+00 6.1473780e-05 0.0000000e+00 
0.0000000e+00 2.5051982e-05 0.0000000e+00 
0.0000000e+00 -1.8834968e-05 0.0000000e+00 
0.0000000e+00 -1.2786079e-05 0.0000000e+00 
0.0000000e+00 1.3685215e-05 0.0000000e+00 
0.0000000e+00 -2.5135287e-05 0.0000000e+00 
0.0000000e+00 -1.0291111e-05 0.0000000e+00 
0.0000000e+00 2.7208120e-05 0.0000000e+00 
0.0000000e+00 6.2965417e-05 0.0000000e+00 
0.0000000e+00 7.6582422e-05 0.0000000e+00 
0.0000000e+00 1.0568791e-04 0.0000000e+00 
0.0000000e+00 -7.1943345e-05 0.0000000e+00 
0.0000000e+00 -3.6841212e-04 0.0000000e+00 
0.0000000e+00 -5.4665079e-04 0.0000000e+00 
0.0000000e+00 -6.3833891e-04 0.0000000e+00 
0.0000000e+00 -6.4416800e-04 0.0000000e+00 
0.0000000e+00 -4.9722038e-04 0.0000000e+00 
0.0000000e+00 -2.4715878e-04 0.0000000e+00 
0.0000000e+00 -4.4929788e-05 0.0000000e+00 
0.0000000e+00 5.0726223e-05 0.0000000e+00 
0.0000000e+00 4.5693516e-05 0.0000000e+00 
0.0000000e+00 1.1132702e-05 0.0000000e+00 
0.0000000e+00 -2.8258364e-06 0.0000000e+00 
0.0000000e+00 -4.5995125e-06 0.0000000e+00 
0.0000000e+00 -3.4474770e-06 0.0000000e+00 
0.0000000e+00 2.7582399e-07 0.0000000e+00 
0.0000000e+00 5.7615648e-07 0.0000000e+00 
0.0000000e+00 6.2310056e-07 0.0000000e+00 
0.0000000e+00 -2.5891549e-07 0.0000000e+00 
0.0000000e+00 -9.5873736e-07 0.0000000e+00 
0.0000000e+00 -1.4652947e-07 0.0000000e+00 
0.0000000e+00 1.1469490e-06 0.0000000e+00 
0.0000000e+00 -5.7950490e-07 0.0000000e+00 
0.0000000e+00 -8.5117748e-08 0.0000000e+00 
0.0000000e+00 1.1721644e-07 0.0000000e+00 
0.0000000e+00 -7.1539695e-08 0.0000000e+00 
0.0000000e+00 -1.3519244e-07 0.0000000e+00 
0.0000000e+00 7.0413812e-08 0.0000000e+00 
0.0000000e+00 1.7630516e-09 0.0000000e+00 
0.0000000e+00 -1.8327516e-08 0.0000000e+00 
4.4311812e-05 -1.0137929e-04 -3.4123150e-05 
6.7355002e-05 -1.4961897e-04 -8.4654217e-05 
1.0789029e-04 -2.0266822e-04 -1.1360909e-04 
5.8791778e-05 -3.6192851e-04 -1.2844190e-04 
1.8605274e-10 4.3271775e-10 1.8246517e-10 
-3.2519892e-10 -9.2833924e-10 -2.5724375e-10 
5.7071720e-10 5.3858845e-10 -5.2967680e-10 
-1.4751177e-09 2.0737871e-09 1.2396845e-09 
-5.1623898e-05 -4.2269610e-05 1.8118462e-05 
-9.1024674e-05 -8.3247985e-05 -1.5004640e-05 
-8.7243046e-05 -8.5309315e-05 -2.5322384e-05 
-6.3703323e-05 -6.9871596e-05 -5.3406951e-05 
-5.2810146e-06 -2.5799523e-06 -4.2892862e-05 
2.7732427e-05 -1.3103532e-07 7.5622643e-07 
3.8597893e-05 1.7392755e-05 3.6260102e-05 
3.2788663e-05 7.1214417e-06 4.0269464e-05 
1.8351000e-05 7.7515620e-07 2.6288808e-05 
2.0898656e-06 -6.9464945e-06 4.8074312e-06 
-1.0959287e-06 -1.7516977e-06 -8.9366922e-06 
-8.5915917e-07 5.4503071e-06 -8.9168097e-06 
-2.1122139e-06 4.4097128e-06 3.8576951e-07 
3.2734686e-06 -1.5328402e-05 -6.0287346e-07 
2.2853849e-06 2.4611236e-07 -2.6751541e-06 
-2.4127851e-07 1.4687103e-05 5.1388565e-06 
-1.1273277e-05 8.3109371e-06 9.2025221e-06 
-2.9419047e-05 1.0896845e-06 -7.1943066e-07 
-4.8804082e-05 3.4379873e-06 -1.7177387e-06 
-6.7982583e-05 -3.4265577e-05 -6.8114728e-06 