# vtk DataFile Version 4.0
vtk output
ASCII
DATASET UNSTRUCTURED_GRID
POINTS 1919 float
0.0000000e+00 0.0000000e+00 0.0000000e+00 
0.0000000e+00 0.0000000e+00 5.0000000e+01 
5.0000000e+00 0.0000000e+00 0.0000000e+00 
5.0000000e+00 0.0000000e+00 5.0000000e+01 
5.0000000e+00 1.0000000e+00 0.0000000e+00 
5.0000000e+00 1.0000000e+00 5.0000000e+01 
0.0000000e+00 1.0000000e+00 0.0000000e+00 
0.0000000e+00 1.0000000e+00 5.0000000e+01 
5.0000000e+00 2.0000000e+00 0.0000000e+00 
5.0000000e+00 2.0000000e+00 5.0000000e+01 
3.0000000e+00 2.0000000e+00 0.0000000e+00 
3.0000000e+00 2.0000000e+00 5.0000000e+01 
0.0000000e+00 2.0000000e+00 0.0000000e+00 
0.0000000e+00 2.0000000e+00 5.0000000e+01 
1.5000000e+00 3.0000000e+00 0.0000000e+00 
1.5000000e+00 3.0000000e+00 5.0000000e+01 
7.5000000e-01 3.0000000e+00 0.0000000e+00 
7.5000000e-01 3.0000000e+00 5.0000000e+01 
0.0000000e+00 3.0000000e+00 0.0000000e+00 
0.0000000e+00 3.0000000e+00 5.0000000e+01 
7.5000000e-01 3.0000000e+00 5.0000000e-01 
7.5000000e-01 3.0000000e+00 1.0000000e+00 
7.5000000e-01 3.0000000e+00 1.5000000e+00 
7.5000000e-01 3.0000000e+00 2.0000000e+00 
7.5000000e-01 3.0000000e+00 2.5000000e+00 
7.5000000e-01 3.0000000e+00 3.0000000e+00 
7.5000000e-01 3.0000000e+00 3.5000000e+00 
7.5000000e-01 3.0000000e+00 4.0000000e+00 
7.5000000e-01 3.0000000e+00 4.5000000e+00 
7.5000000e-01 3.0000000e+00 5.0000000e+00 
7.5000000e-01 3.0000000e+00 5.5000000e+00 
7.5000000e-01 3.0000000e+00 6.0000000e+00 
7.5000000e-01 3.0000000e+00 6.5000000e+00 
7.5000000e-01 3.0000000e+00 7.0000000e+00 
7.5000000e-01 3.0000000e+00 7.5000000e+00 
7.5000000e-01 3.0000000e+00 8.0000000e+00 
7.5000000e-01 3.0000000e+00 8.5000000e+00 
7.5000000e-01 3.0000000e+00 9.0000000e+00 
7.5000000e-01 3.0000000e+00 9.5000000e+00 
7.5000000e-01 3.0000000e+00 1.0000000e+01 
7.5000000e-01 3.0000000e+00 1.0500000e+01 
7.5000000e-01 3.0000000e+00 1.1000000e+01 
7.5000000e-01 3.0000000e+00 1.1500000e+01 
7.5000000e-01 3.0000000e+00 1.2000000e+01 
7.5000000e-01 3.0000000e+00 1.2500000e+01 
7.5000000e-01 3.0000000e+00 1.3000000e+01 
7.5000000e-01 3.0000000e+00 1.3500000e+01 
7.5000000e-01 3.0000000e+00 1.4000000e+01 
7.5000000e-01 3.0000000e+00 1.4500000e+01 
7.5000000e-01 3.0000000e+00 1.5000000e+01 
7.5000000e-01 3.0000000e+00 1.5500000e+01 
7.5000000e-01 3.0000000e+00 1.6000000e+01 
7.5000000e-01 3.0000000e+00 1.6500000e+01 
7.5000000e-01 3.0000000e+00 1.7000000e+01 
7.5000000e-01 3.0000000e+00 1.7500000e+01 
7.5000000e-01 3.0000000e+00 1.8000000e+01 
7.5000000e-01 3.0000000e+00 1.8500000e+01 
7.5000000e-01 3.0000000e+00 1.9000000e+01 
7.5000000e-01 3.0000000e+00 1.9500000e+01 
7.5000000e-01 3.0000000e+00 2.0000000e+01 
7.5000000e-01 3.0000000e+00 2.0500000e+01 
7.5000000e-01 3.0000000e+00 2.1000000e+01 
7.5000000e-01 3.0000000e+00 2.1500000e+01 
7.5000000e-01 3.0000000e+00 2.2000000e+01 
7.5000000e-01 3.0000000e+00 2.2500000e+01 
7.5000000e-01 3.0000000e+00 2.3000000e+01 
7.5000000e-01 3.0000000e+00 2.3500000e+01 
7.5000000e-01 3.0000000e+00 2.4000000e+01 
7.5000000e-01 3.0000000e+00 2.4500000e+01 
7.5000000e-01 3.0000000e+00 2.5000000e+01 
7.5000000e-01 3.0000000e+00 2.5500000e+01 
7.5000000e-01 3.0000000e+00 2.6000000e+01 
7.5000000e-01 3.0000000e+00 2.6500000e+01 
7.5000000e-01 3.0000000e+00 2.7000000e+01 
7.5000000e-01 3.0000000e+00 2.7500000e+01 
7.5000000e-01 3.0000000e+00 2.8000000e+01 
7.5000000e-01 3.0000000e+00 2.8500000e+01 
7.5000000e-01 3.0000000e+00 2.9000000e+01 
7.5000000e-01 3.0000000e+00 2.9500000e+01 
7.5000000e-01 3.0000000e+00 3.0000000e+01 
7.5000000e-01 3.0000000e+00 3.0500000e+01 
7.5000000e-01 3.0000000e+00 3.1000000e+01 
7.5000000e-01 3.0000000e+00 3.1500000e+01 
7.5000000e-01 3.0000000e+00 3.2000000e+01 
7.5000000e-01 3.0000000e+00 3.2500000e+01 
7.5000000e-01 3.0000000e+00 3.3000000e+01 
7.5000000e-01 3.0000000e+00 3.3500000e+01 
7.5000000e-01 3.0000000e+00 3.4000000e+01 
7.5000000e-01 3.0000000e+00 3.4500000e+01 
7.5000000e-01 3.0000000e+00 3.5000000e+01 
7.5000000e-01 3.0000000e+00 3.5500000e+01 
7.5000000e-01 3.0000000e+00 3.6000000e+01 
7.5000000e-01 3.0000000e+00 3.6500000e+01 
7.5000000e-01 3.0000000e+00 3.7000000e+01 
7.5000000e-01 3.0000000e+00 3.7500000e+01 
7.5000000e-01 3.0000000e+00 3.8000000e+01 
7.5000000e-01 3.0000000e+00 3.8500000e+01 
7.5000000e-01 3.0000000e+00 3.9000000e+01 
7.5000000e-01 3.0000000e+00 3.9500000e+01 
7.5000000e-01 3.0000000e+00 4.0000000e+01 
7.5000000e-01 3.0000000e+00 4.0500000e+01 
7.5000000e-01 3.0000000e+00 4.1000000e+01 
7.5000000e-01 3.0000000e+00 4.1500000e+01 
7.5000000e-01 3.0000000e+00 4.2000000e+01 
7.5000000e-01 3.0000000e+00 4.2500000e+01 
7.5000000e-01 3.0000000e+00 4.3000000e+01 
7.5000000e-01 3.0000000e+00 4.3500000e+01 
7.5000000e-01 3.0000000e+00 4.4000000e+01 
7.5000000e-01 3.0000000e+00 4.4500000e+01 
7.5000000e-01 3.0000000e+00 4.5000000e+01 
7.5000000e-01 3.0000000e+00 4.5500000e+01 
7.5000000e-01 3.0000000e+00 4.6000000e+01 
7.5000000e-01 3.0000000e+00 4.6500000e+01 
7.5000000e-01 3.0000000e+00 4.7000000e+01 
7.5000000e-01 3.0000000e+00 4.7500000e+01 
7.5000000e-01 3.0000000e+00 4.8000000e+01 
7.5000000e-01 3.0000000e+00 4.8500000e+01 
7.5000000e-01 3.0000000e+00 4.9000000e+01 
7.5000000e-01 3.0000000e+00 4.9500000e+01 
7.5000000e-01 3.0250001e+00 0.0000000e+00 
7.5000000e-01 3.0250001e+00 5.0000000e-01 
7.5000000e-01 3.0250001e+00 1.0000000e+00 
7.5000000e-01 3.0250001e+00 1.5000000e+00 
7.5000000e-01 3.0250001e+00 2.0000000e+00 
7.5000000e-01 3.0250001e+00 2.5000000e+00 
7.5000000e-01 3.0250001e+00 3.0000000e+00 
7.5000000e-01 3.0250001e+00 3.5000000e+00 
7.5000000e-01 3.0250001e+00 4.0000000e+00 
7.5000000e-01 3.0250001e+00 4.5000000e+00 
7.5000000e-01 3.0250001e+00 5.0000000e+00 
7.5000000e-01 3.0250001e+00 5.5000000e+00 
7.5000000e-01 3.0250001e+00 6.0000000e+00 
7.5000000e-01 3.0250001e+00 6.5000000e+00 
7.5000000e-01 3.0250001e+00 7.0000000e+00 
7.5000000e-01 3.0250001e+00 7.5000000e+00 
7.5000000e-01 3.0250001e+00 8.0000000e+00 
7.5000000e-01 3.0250001e+00 8.5000000e+00 
7.5000000e-01 3.0250001e+00 9.0000000e+00 
7.5000000e-01 3.0250001e+00 9.5000000e+00 
7.5000000e-01 3.0250001e+00 1.0000000e+01 
7.5000000e-01 3.0250001e+00 1.0500000e+01 
7.5000000e-01 3.0250001e+00 1.1000000e+01 
7.5000000e-01 3.0250001e+00 1.1500000e+01 
7.5000000e-01 3.0250001e+00 1.2000000e+01 
7.5000000e-01 3.0250001e+00 1.2500000e+01 
7.5000000e-01 3.0250001e+00 1.3000000e+01 
7.5000000e-01 3.0250001e+00 1.3500000e+01 
7.5000000e-01 3.0250001e+00 1.4000000e+01 
7.5000000e-01 3.0250001e+00 1.4500000e+01 
7.5000000e-01 3.0250001e+00 1.5000000e+01 
7.5000000e-01 3.0250001e+00 1.5500000e+01 
7.5000000e-01 3.0250001e+00 1.6000000e+01 
7.5000000e-01 3.0250001e+00 1.6500000e+01 
7.5000000e-01 3.0250001e+00 1.7000000e+01 
7.5000000e-01 3.0250001e+00 1.7500000e+01 
7.5000000e-01 3.0250001e+00 1.8000000e+01 
7.5000000e-01 3.0250001e+00 1.8500000e+01 
7.5000000e-01 3.0250001e+00 1.9000000e+01 
7.5000000e-01 3.0250001e+00 1.9500000e+01 
7.5000000e-01 3.0250001e+00 2.0000000e+01 
7.5000000e-01 3.0250001e+00 2.0500000e+01 
7.5000000e-01 3.0250001e+00 2.1000000e+01 
7.5000000e-01 3.0250001e+00 2.1500000e+01 
7.5000000e-01 3.0250001e+00 2.2000000e+01 
7.5000000e-01 3.0250001e+00 2.2500000e+01 
7.5000000e-01 3.0250001e+00 2.3000000e+01 
7.5000000e-01 3.0250001e+00 2.3500000e+01 
7.5000000e-01 3.0250001e+00 2.4000000e+01 
7.5000000e-01 3.0250001e+00 2.4500000e+01 
7.5000000e-01 3.0250001e+00 2.5000000e+01 
7.5000000e-01 3.0250001e+00 2.5500000e+01 
7.5000000e-01 3.0250001e+00 2.6000000e+01 
7.5000000e-01 3.0250001e+00 2.6500000e+01 
7.5000000e-01 3.0250001e+00 2.7000000e+01 
7.5000000e-01 3.0250001e+00 2.7500000e+01 
7.5000000e-01 3.0250001e+00 2.8000000e+01 
7.5000000e-01 3.0250001e+00 2.8500000e+01 
7.5000000e-01 3.0250001e+00 2.9000000e+01 
7.5000000e-01 3.0250001e+00 2.9500000e+01 
7.5000000e-01 3.0250001e+00 3.0000000e+01 
7.5000000e-01 3.0250001e+00 3.0500000e+01 
7.5000000e-01 3.0250001e+00 3.1000000e+01 
7.5000000e-01 3.0250001e+00 3.1500000e+01 
7.5000000e-01 3.0250001e+00 3.2000000e+01 
7.5000000e-01 3.0250001e+00 3.2500000e+01 
7.5000000e-01 3.0250001e+00 3.3000000e+01 
7.5000000e-01 3.0250001e+00 3.3500000e+01 
7.5000000e-01 3.0250001e+00 3.4000000e+01 
7.5000000e-01 3.0250001e+00 3.4500000e+01 
7.5000000e-01 3.0250001e+00 3.5000000e+01 
7.5000000e-01 3.0250001e+00 3.5500000e+01 
7.5000000e-01 3.0250001e+00 3.6000000e+01 
7.5000000e-01 3.0250001e+00 3.6500000e+01 
7.5000000e-01 3.0250001e+00 3.7000000e+01 
7.5000000e-01 3.0250001e+00 3.7500000e+01 
7.5000000e-01 3.0250001e+00 3.8000000e+01 
7.5000000e-01 3.0250001e+00 3.8500000e+01 
7.5000000e-01 3.0250001e+00 3.9000000e+01 
7.5000000e-01 3.0250001e+00 3.9500000e+01 
7.5000000e-01 3.0250001e+00 4.0000000e+01 
7.5000000e-01 3.0250001e+00 4.0500000e+01 
7.5000000e-01 3.0250001e+00 4.1000000e+01 
7.5000000e-01 3.0250001e+00 4.1500000e+01 
7.5000000e-01 3.0250001e+00 4.2000000e+01 
7.5000000e-01 3.0250001e+00 4.2500000e+01 
7.5000000e-01 3.0250001e+00 4.3000000e+01 
7.5000000e-01 3.0250001e+00 4.3500000e+01 
7.5000000e-01 3.0250001e+00 4.4000000e+01 
7.5000000e-01 3.0250001e+00 4.4500000e+01 
7.5000000e-01 3.0250001e+00 4.5000000e+01 
7.5000000e-01 3.0250001e+00 4.5500000e+01 
7.5000000e-01 3.0250001e+00 4.6000000e+01 
7.5000000e-01 3.0250001e+00 4.6500000e+01 
7.5000000e-01 3.0250001e+00 4.7000000e+01 
7.5000000e-01 3.0250001e+00 4.7500000e+01 
7.5000000e-01 3.0250001e+00 4.8000000e+01 
7.5000000e-01 3.0250001e+00 4.8500000e+01 
7.5000000e-01 3.0250001e+00 4.9000000e+01 
7.5000000e-01 3.0250001e+00 4.9500000e+01 
7.5000000e-01 3.0250001e+00 5.0000000e+01 
3.0000000e+00 2.0000000e+00 3.6000000e+01 
8.0487806e-01 3.0000000e+00 3.6000000e+01 
0.0000000e+00 0.0000000e+00 1.0000000e+00 
0.0000000e+00 0.0000000e+00 2.0000000e+00 
0.0000000e+00 0.0000000e+00 3.0000000e+00 
0.0000000e+00 0.0000000e+00 4.0000000e+00 
0.0000000e+00 0.0000000e+00 5.0000000e+00 
0.0000000e+00 0.0000000e+00 6.0000000e+00 
0.0000000e+00 0.0000000e+00 7.0000000e+00 
0.0000000e+00 0.0000000e+00 8.0000000e+00 
[...]
POINT_DATA 1919
FIELD FieldData 3
DISPLACEMENT 3 1919  float
0.0000000e+00 0.0000000e+00 0.0000000e+00 
0.0000000e+00 0.0000000e+00 0.0000000e+00 
0.0000000e+00 0.0000000e+00 0.0000000e+00 
0.0000000e+00 0.0000000e+00 0.0000000e+00 
-1.7055901e-06 -2.0035757e-06 3.8665092e-07 
-8.7723954e-08 5.1195394e-07 -5.2628297e-07 
0.0000000e+00 1.8932613e-05 0.0000000e+00 
0.0000000e+00 -9.8923592e-06 0.0000000e+00 
1.2096350e-06 -2.3050322e-06 -7.1963018e-07 
-1.3485304e-06 6.6654081e-07 -9.8604346e-07 
1.6066042e-06 1.8940324e-06 -2.8708587e-06 
-1.7313924e-06 -9.8886005e-07 -4.7254885e-06 
0.0000000e+00 3.4419903e-05 0.0000000e+00 
0.0000000e+00 -2.0768754e-05 0.0000000e+00 
2.1430113e-05 5.5724271e-05 -3.6098590e-05 
-1.0207033e-05 -1.6717348e-05 -3.3506083e-05 
1.9953794e-05 1.0820614e-04 -7.1998033e-06 
2.2611868e-05 -7.6869641e-05 -3.9732175e-05 
0.0000000e+00 7.8821606e-05 0.0000000e+00 
0.0000000e+00 -3.0818414e-05 0.0000000e+00 
9.3200260e-06 1.0143194e-04 -8.0656664e-06 
1.0371888e-05 8.5990177e-05 -1.5298881e-05 
1.6427610e-05 7.1556198e-05 -8.3892619e-06 
1.5729309e-05 6.6650631e-05 1.6417255e-06 
1.0891136e-05 7.2429844e-05 9.6143267e-06 
8.5577358e-06 8.1834281e-05 3.3352107e-06 
1.6391381e-05 8.6549750e-05 -8.6812133e-06 
2.7959897e-05 8.4592379e-05 -1.6910808e-05 
3.7335238e-05 8.4432140e-05 -2.3146544e-05 
3.3559136e-05 9.5336916e-05 -1.1905591e-05 
2.0107804e-05 1.1952664e-04 -3.7641446e-06 
1.4662683e-05 1.5181302e-04 -4.8892016e-06 
1.0481473e-05 1.7861955e-04 -7.6282513e-06 
2.9027151e-05 1.8487526e-04 -2.5372808e-06 
3.9796145e-05 1.6920725e-04 -2.8266868e-06 
2.8729148e-05 1.4770428e-04 1.0646731e-05 
2.0676242e-05 1.4189653e-04 2.3888128e-05 
2.4309227e-05 1.6435009e-04 2.4681005e-05 
2.9366551e-05 1.9948898e-04 3.9677645e-05 
3.1466905e-05 2.1591895e-04 4.7568490e-05 
3.8733837e-05 1.9743152e-04 6.3609070e-05 
1.9032575e-05 1.4624762e-04 1.0006816e-04 
-1.5721693e-05 7.4083466e-05 1.1326322e-04 
-2.9024548e-05 -2.5741931e-05 1.1803702e-04 
-2.1542030e-05 -2.2126506e-04 1.7151942e-04 
-4.8930258e-05 -6.3772115e-04 1.3432800e-04 
-7.4308504e-05 -1.3905707e-03 2.3908177e-04 
-1.1797723e-04 -2.4819302e-03 1.4971271e-04 
-1.4574575e-04 -3.7285660e-03 2.4397197e-04 
-2.0175449e-04 -4.6306686e-03 4.8047634e-05 
-2.3063619e-04 -4.7478830e-03 3.4393448e-05 
-2.2006128e-04 -4.4760937e-03 -2.1995040e-05 
-2.1265035e-04 -4.3957080e-03 -3.8274808e-05 
-2.1458147e-04 -4.5639188e-03 -8.9468078e-05 
-2.4578496e-04 -4.6312502e-03 -8.4875872e-05 
-2.3076536e-04 -4.0127672e-03 -1.0270496e-04 
-2.1149186e-04 -2.9713102e-03 -2.3638614e-04 
-1.5779305e-04 -1.9099133e-03 -1.6022475e-04 
-1.1986493e-04 -1.0577936e-03 -2.2455536e-04 
-8.9746405e-05 -4.6983638e-04 -1.5327852e-04 
-4.2154144e-05 -1.3380530e-04 -1.5445834e-04 
-1.1515027e-05 1.1471944e-05 -1.1638200e-04 
1.1296889e-05 4.5315290e-05 -9.7892917e-05 
7.1655636e-06 3.5239984e-05 -7.0607974e-05 
6.6287716e-06 2.4484425e-05 -4.3163211e-05 
-9.5991045e-06 2.7894897e-05 -2.2335165e-05 
-1.6020633e-05 4.1728992e-05 -1.4923283e-05 
-1.7070483e-06 5.7098390e-05 -2.2456454e-05 
1.0262190e-05 7.4078816e-05 -3.1173331e-05 
2.4489236e-05 9.8813347e-05 -3.2062220e-05 
3.7080292e-05 1.3929501e-04 -4.0278166e-05 
4.5922050e-05 1.9961246e-04 -1.1987429e-05 
5.2939715e-05 2.6667348e-04 1.8143137e-05 
6.2418701e-05 3.1478956e-04 4.1436837e-05 
7.0813207e-05 3.2074566e-04 5.7180947e-05 
5.7151341e-05 2.8174932e-04 7.5595883e-05 
3.0246476e-05 2.2323903e-04 8.5508887e-05 
2.1703143e-05 1.9175795e-04 6.6842396e-05 
2.5025895e-05 2.0954935e-04 5.6225315e-05 
3.3008026e-05 2.5491178e-04 3.9869810e-05 
4.6092049e-05 2.8260934e-04 4.8042573e-05 
3.6301357e-05 2.5053613e-04 8.6769767e-05 
3.3611617e-05 1.5013221e-04 1.1802059e-04 
1.2462194e-05 -2.1795568e-05 1.5580183e-04 
-1.8179780e-05 -3.0707094e-04 2.2940434e-04 
-7.5856507e-05 -7.9352816e-04 1.7516817e-04 
-9.8743563e-05 -1.5960018e-03 2.8808959e-04 
-1.7994001e-04 -2.7494065e-03 1.4952999e-04 
-1.9241631e-04 -4.0994943e-03 1.4851074e-04 
1.3398656e-05 -5.0932416e-03 2.2357964e-04 
-2.2269116e-04 -5.1184157e-03 1.9805339e-04 
-2.5488954e-04 -4.7831875e-03 5.8068181e-05 
-2.9673098e-04 -4.6743443e-03 1.1738528e-05 
-2.3583963e-04 -4.8514623e-03 -1.0960460e-04 
-3.6095289e-04 -4.9245898e-03 -2.1289939e-04 
-2.7358820e-04 -4.1449331e-03 -2.2186637e-04 
-2.0350146e-04 -2.9379444e-03 -3.6677608e-04 
-1.2786633e-04 -1.7485174e-03 -2.5146938e-04 
-6.2302497e-05 -8.2792254e-04 -2.7533021e-04 
-2.9931714e-05 -2.3834562e-04 -1.6131286e-04 
-7.1078557e-07 5.1565439e-05 -1.2574554e-04 
1.0049143e-05 1.3735352e-04 -6.5554144e-05 
1.9420473e-05 1.1826014e-04 -2.4066678e-05 
1.2972929e-05 6.1860002e-05 2.9001612e-07 
5.7472635e-06 5.7397983e-06 1.5254503e-05 
2.2478382e-06 -3.4776032e-05 1.3012949e-05 
-1.2677219e-06 -5.0739116e-05 2.0425312e-05 
4.5388770e-06 -4.1689247e-05 2.5006113e-05 
2.0911210e-05 -1.5047277e-05 4.1335403e-05 
1.5427278e-05 1.7062879e-05 4.3191212e-05 
4.2110642e-06 4.4988748e-05 2.9131967e-05 
2.9465059e-06 6.4597662e-05 1.7506996e-05 
6.4706876e-07 7.4115313e-05 3.3031868e-06 
1.9847018e-06 7.1290262e-05 7.5489174e-07 
4.0200684e-06 5.3118321e-05 1.0640274e-05 
-6.3012749e-06 2.1734666e-05 1.2218143e-05 
-1.5761263e-05 -1.5663498e-05 7.8124322e-06 
-1.4368630e-05 -4.8698475e-05 -1.0791261e-05 
-8.9932064e-06 -6.9918598e-05 -3.1780943e-05 
0.0000000e+00 1.0805771e-04 0.0000000e+00 
0.0000000e+00 1.0133442e-04 0.0000000e+00 
0.0000000e+00 8.5982159e-05 0.0000000e+00 
0.0000000e+00 7.1737231e-05 0.0000000e+00 
0.0000000e+00 6.6920598e-05 0.0000000e+00 
0.0000000e+00 7.2645533e-05 0.0000000e+00 
0.0000000e+00 8.1857841e-05 0.0000000e+00 
0.0000000e+00 8.6179934e-05 0.0000000e+00 
0.0000000e+00 8.4427003e-05 0.0000000e+00 
0.0000000e+00 8.4565836e-05 0.0000000e+00 
0.0000000e+00 9.5591684e-05 0.0000000e+00 
0.0000000e+00 1.2007174e-04 0.0000000e+00 
0.0000000e+00 1.5221845e-04 0.0000000e+00 
0.0000000e+00 1.7829765e-04 0.0000000e+00 
0.0000000e+00 1.8413505e-04 0.0000000e+00 
0.0000000e+00 1.6858014e-04 0.0000000e+00 
0.0000000e+00 1.4764865e-04 0.0000000e+00 
0.0000000e+00 1.4330883e-04 0.0000000e+00 
0.0000000e+00 1.6567233e-04 0.0000000e+00 
0.0000000e+00 1.9936627e-04 0.0000000e+00 
0.0000000e+00 2.1523261e-04 0.0000000e+00 
0.0000000e+00 1.9653370e-04 0.0000000e+00 
0.0000000e+00 1.4659927e-04 0.0000000e+00 
0.0000000e+00 7.6954319e-05 0.0000000e+00 
0.0000000e+00 -2.2562481e-05 0.0000000e+00 
0.0000000e+00 -2.2074911e-04 0.0000000e+00 
0.0000000e+00 -6.4228277e-04 0.0000000e+00 
0.0000000e+00 -1.4005001e-03 0.0000000e+00 
0.0000000e+00 -2.4997320e-03 0.0000000e+00 
0.0000000e+00 -3.7436134e-03 0.0000000e+00 
0.0000000e+00 -4.6555949e-03 0.0000000e+00 
0.0000000e+00 -4.7717961e-03 0.0000000e+00 
0.0000000e+00 -4.5062262e-03 0.0000000e+00 
0.0000000e+00 -4.4180569e-03 0.0000000e+00 
0.0000000e+00 -4.5927600e-03 0.0000000e+00 
0.0000000e+00 -4.6539479e-03 0.0000000e+00 
0.0000000e+00 -4.0372494e-03 0.0000000e+00 
0.0000000e+00 -2.9841238e-03 0.0000000e+00 
0.0000000e+00 -1.9184657e-03 0.0000000e+00 
0.0000000e+00 -1.0613793e-03 0.0000000e+00 
0.0000000e+00 -4.7203913e-04 0.0000000e+00 
0.0000000e+00 -1.3423405e-04 0.0000000e+00 
0.0000000e+00 1.2496576e-05 0.0000000e+00 
0.0000000e+00 4.6544184e-05 0.0000000e+00 
0.0000000e+00 3.6335019e-05 0.0000000e+00 
0.0000000e+00 2.5204172e-05 0.0000000e+00 
0.0000000e+00 2.8236887e-05 0.0000000e+00 
0.0000000e+00 4.1598640e-05 0.0000000e+00 
0.0000000e+00 5.6987559e-05 0.0000000e+00 
0.0000000e+00 7.3787487e-05 0.0000000e+00 
0.0000000e+00 9.8661592e-05 0.0000000e+00 
0.0000000e+00 1.4004830e-04 0.0000000e+00 
0.0000000e+00 2.0049151e-04 0.0000000e+00 
0.0000000e+00 2.6696810e-04 0.0000000e+00 
0.0000000e+00 3.1404043e-04 0.0000000e+00 
0.0000000e+00 3.1929562e-04 0.0000000e+00 
0.0000000e+00 2.8041878e-04 0.0000000e+00 
0.0000000e+00 2.2404322e-04 0.0000000e+00 
0.0000000e+00 1.9393330e-04 0.0000000e+00 
0.0000000e+00 2.1141229e-04 0.0000000e+00 
0.0000000e+00 2.5554758e-04 0.0000000e+00 
0.0000000e+00 2.8115150e-04 0.0000000e+00 
0.0000000e+00 2.4975932e-04 0.0000000e+00 
0.0000000e+00 1.5135706e-04 0.0000000e+00 
0.0000000e+00 -1.9623159e-05 0.0000000e+00 
0.0000000e+00 -3.0526734e-04 0.0000000e+00 
0.0000000e+00 -7.9664798e-04 0.0000000e+00 
0.0000000e+00 -1.6048759e-03 0.0000000e+00 
0.0000000e+00 -2.7704223e-03 0.0000000e+00 
0.0000000e+00 -4.1236845e-03 0.0000000e+00 
0.0000000e+00 -5.1097567e-03 0.0000000e+00 
0.0000000e+00 -5.1419735e-03 0.0000000e+00 
0.0000000e+00 -4.8107621e-03 0.0000000e+00 
0.0000000e+00 -4.6980246e-03 0.0000000e+00 
0.0000000e+00 -4.8900568e-03 0.0000000e+00 
0.0000000e+00 -4.9455445e-03 0.0000000e+00 
0.0000000e+00 -4.1661775e-03 0.0000000e+00 
0.0000000e+00 -2.9495365e-03 0.0000000e+00 
0.0000000e+00 -1.7584922e-03 0.0000000e+00 
0.0000000e+00 -8.3261210e-04 0.0000000e+00 
0.0000000e+00 -2.4079664e-04 0.0000000e+00 
0.0000000e+00 5.2035692e-05 0.0000000e+00 
0.0000000e+00 1.3923316e-04 0.0000000e+00 
0.0000000e+00 1.1964466e-04 0.0000000e+00 
0.0000000e+00 6.2760788e-05 0.0000000e+00 
0.0000000e+00 6.0697434e-06 0.0000000e+00 
0.0000000e+00 -3.4238219e-05 0.0000000e+00 
0.0000000e+00 -5.0317143e-05 0.0000000e+00 
0.0000000e+00 -4.1553445e-05 0.0000000e+00 
0.0000000e+00 -1.5278401e-05 0.0000000e+00 
0.0000000e+00 1.6780310e-05 0.0000000e+00 
0.0000000e+00 4.4940556e-05 0.0000000e+00 
0.0000000e+00 6.4686603e-05 0.0000000e+00 
0.0000000e+00 7.4150623e-05 0.0000000e+00 
0.0000000e+00 7.1002607e-05 0.0000000e+00 
0.0000000e+00 5.2858162e-05 0.0000000e+00 
0.0000000e+00 2.1627269e-05 0.0000000e+00 
0.0000000e+00 -1.5463353e-05 0.0000000e+00 
0.0000000e+00 -4.8430386e-05 0.0000000e+00 
0.0000000e+00 -6.9832306e-05 0.0000000e+00 
0.0000000e+00 -7.6968368e-05 0.0000000e+00 
5.7476766e-05 -9.8416167e-05 -1.1702086e-05 
-2.7961165e-04 -4.3759793e-03 6.4603781e-05 
0.0000000e+00 0.0000000e+00 0.0000000e+00 
0.0000000e+00 0.0000000e+00 0.0000000e+00 
0.0000000e+00 0.0000000e+00 0.0000000e+00 
0.0000000e+00 0.0000000e+00 0.0000000e+00 
0.0000000e+00 0.0000000e+00 0.0000000e+00 
0.0000000e+00 0.0000000e+00 0.0000000e+00 
0.0000000e+00 0.0000000e+00 0.0000000e+00 
0.0000000e+00 0.0000000e+00 0.0000000e+00 
0.0000000e+00 0.0000000e+00 0.0000000e+00 
0.0000000e+00 0.0000000e+00 0.0000000e+00 
0.0000000e+00 0.0000000e+00 0.0000000e+00 
0.0000000e+00 0.0000000e+00 0.0000000e+00 
0.0000000e+00 0.0000000e+00 0.0000000e+00 
0.0000000e+00 0.0000000e+00 0.0000000e+00 
0.0000000e+00 0.0000000e+00 0.0000000e+00 
0.0000000e+00 0.0000000e+00 0.0000000e+00 
0.0000000e+00 0.0000000e+00 0.0000000e+00 
0.0000000e+00 0.0000000e+00 0.0000000e+00 
0.0000000e+00 0.0000000e+00 0.0000000e+00 
0.0000000e+00 0.0000000e+00 0.0000000e+00 
0.0000000e+00 0.0000000e+00 0.0000000e+00 
0.0000000e+00 0.0000000e+00 0.0000000e+00 
0.0000000e+00 0.0000000e+00 0.0000000e+00 
0.0000000e+00 0.0000000e+00 0.0000000e+00 
0.0000000e+00 0.0000000e+00 0.0000000e+00 
0.0000000e+00 0.0000000e+00 0.0000000e+00 
0.0000000e+00 0.0000000e+00 0.0000000e+00 
0.0000000e+00 0.0000000e+00 0.0000000e+00 
0.0000000e+00 0.0000000e+00 0.0000000e+00 
0.0000000e+00 0.0000000e+00 0.0000000e+00 
0.0000000e+00 0.0000000e+00 0.0000000e+00 
0.0000000e+00 0.0000000e+00 0.0000000e+00 
0.0000000e+00 0.0000000e+00 0.0000000e+00 
0.0000000e+00 0.0000000e+00 0.0000000e+00 
0.0000000e+00 0.0000000e+00 0.0000000e+00 
0.0000000e+00 0.0000000e+00 0.0000000e+00 
0.0000000e+00 0.0000000e+00 0.0000000e+00 
0.0000000e+00 0.0000000e+00 0.0000000e+00 
0.0000000e+00 0.0000000e+00 0.0000000e+00 
0.0000000e+00 0.0000000e+00 0.0000000e+00 
0.0000000e+00 0.0000000e+00 0.0000000e+00 
0.0000000e+00 0.0000000e+00 0.0000000e+00 
0.0000000e+00 0.0000000e+00 0.0000000e+00 
0.0000000e+00 0.0000000e+00 0.0000000e+00 
0.0000000e+00 0.0000000e+00 0.0000000e+00 
0.0000000e+00 0.0000000e+00 0.0000000e+00 
0.0000000e+00 0.0000000e+00 0.0000000e+00 
0.0000000e+00 0.0000000e+00 0.0000000e+00 
0.0000000e+00 0.0000000e+00 0.0000000e+00 
0.0000000e+00 0.0000000e+00 0.0000000e+00 
0.0000000e+00 0.0000000e+00 0.0000000e+00 
0.0000000e+00 0.0000000e+00 0.0000000e+00 
0.0000000e+00 0.0000000e+00 0.0000000e+00 
0.0000000e+00 0.0000000e+00 0.0000000e+00 
0.0000000e+00 0.0000000e+00 0.0000000e+00 
0.0000000e+00 0.0000000e+00 0.0000000e+00 
0.0000000e+00 0.0000000e+00 0.0000000e+00 
0.0000000e+00 0.0000000e+00 0.0000000e+00 
0.0000000e+00 0.0000000e+00 0.0000000e+00 
0.0000000e+00 0.0000000e+00 0.0000000e+00 
0.0000000e+00 0.0000000e+00 0.0000000e+00 
0.0000000e+00 0.0000000e+00 0.0000000e+00 
0.0000000e+00 0.0000000e+00 0.0000000e+00 
0.0000000e+00 0.0000000e+00 0.0000000e+00 
0.0000000e+00 0.0000000e+00 0.0000000e+00 
0.0000000e+00 0.0000000e+00 0.0000000e+00 
0.0000000e+00 0.0000000e+00 0.0000000e+00 
0.0000000e+00 0.0000000e+00 0.0000000e+00 
0.0000000e+00 0.0000000e+00 0.0000000e+00 
0.0000000e+00 0.0000000e+00 0.0000000e+00 
0.0000000e+00 0.0000000e+00 0.0000000e+00 
0.0000000e+00 0.0000000e+00 0.0000000e+00 
0.0000000e+00 0.0000000e+00 0.0000000e+00 
0.0000000e+00 0.0000000e+00 0.0000000e+00 
0.0000000e+00 0.0000000e+00 0.0000000e+00 
0.0000000e+00 0.0000000e+00 0.0000000e+00 
0.0000000e+00 0.0000000e+00 0.0000000e+00 
0.0000000e+00 0.0000000e+00 0.0000000e+00 
0.0000000e+00 0.0000000e+00 0.0000000e+00 
0.0000000e+00 0.0000000e+00 0.0000000e+00 
0.0000000e+00 0.0000000e+00 0.0000000e+00 
0.0000000e+00 0.0000000e+00 0.0000000e+00 
0.0000000e+00 0.0000000e+00 0.0000000e+00 
0.0000000e+00 0.0000000e+00 0.0000000e+00 
0.0000000e+00 0.0000000e+00 0.0000000e+00 
0.0000000e+00 0.0000000e+00 0.0000000e+00 
0.0000000e+00 0.0000000e+00 0.0000000e+00 
0.0000000e+00 0.0000000e+00 0.0000000e+00 
0.0000000e+00 0.0000000e+00 0.0000000e+00 
0.0000000e+00 0.0000000e+00 0.0000000e+00 
0.0000000e+00 0.0000000e+00 0.0000000e+00 
0.0000000e+00 0.0000000e+00 0.0000000e+00 
0.0000000e+00 0.0000000e+00 0.0000000e+00 
0.0000000e+00 0.0000000e+00 0.0000000e+00 
0.0000000e+00 0.0000000e+00 0.0000000e+00 
0.0000000e+00 0.0000000e+00 0.0000000e+00 
0.0000000e+00 0.0000000e+00 0.0000000e+00 
0.0000000e+00 0.0000000e+00 0.0000000e+00 
0.0000000e+00 0.0000000e+00 0.0000000e+00 
0.0000000e+00 0.0000000e+00 0.0000000e+00 
0.0000000e+00 0.0000000e+00 0.0000000e+00 
0.0000000e+00 0.0000000e+00 0.0000000e+00 
0.0000000e+00 0.0000000e+00 0.0000000e+00 
0.0000000e+00 0.0000000e+00 0.0000000e+00 
0.0000000e+00 0.0000000e+00 0.0000000e+00 
0.0000000e+00 0.0000000e+00 0.0000000e+00 
-9.1123241e-07 5.0295284e-07 -1.1032218e-06 
-3.6948168e-06 2.1528379e-06 1.8210919e-06 
-4.6472314e-06 -2.0795227e-07 6.4074658e-07 
-1.5070486e-06 9.0573302e-08 1.9259737e-06 
-2.8749662e-06 -3.7616471e-07 4.4342282e-06 
8.3125070e-07 7.2166341e-07 -2.0199045e-06 
4.3269566e-07 -3.2145658e-06 -1.1416235e-07 
1.3446856e-06 3.1924137e-06 1.3412910e-06 
2.4064864e-06 2.4827241e-06 -4.4133944e-07 
2.6215976e-06 -1.0917572e-05 -6.7495712e-06 
1.0432700e-05 -1.7250255e-06 -1.3604105e-05 
2.0526859e-05 -9.6486292e-06 -1.8737566e-05 
2.7781651e-05 -1.9431867e-05 -2.1091815e-05 
3.9088522e-05 -7.3707620e-06 -2.1977316e-05 
4.9405200e-05 -1.1426187e-05 -1.5166926e-05 
4.4178571e-05 -1.2913320e-05 -3.4106044e-06 
3.6808418e-05 -1.0893273e-05 1.5583755e-06 
3.2950287e-05 -9.6355998e-06 7.8042203e-06 
2.1754429e-05 -8.9405958e-06 1.0807552e-05 
8.8396946e-06 -4.0094433e-06 9.4620718e-06 
2.3188622e-06 -3.5399312e-06 7.5223493e-06 
6.8682184e-09 3.1288965e-07 8.2292399e-06 
-2.1789633e-06 2.4269668e-06 9.4028992e-06 
-4.4925978e-06 4.3436144e-06 9.2696719e-06 
-6.6533921e-06 1.4257625e-06 1.4803742e-05 
-9.8125511e-06 6.0469625e-07 1.0934589e-05 
-6.0335751e-06 -1.9835036e-06 1.7010456e-06 
8.2831599e-07 -4.1750077e-06 -5.6812141e-06 
5.5192044e-07 2.7012902e-06 -2.8998318e-06 
7.0529491e-06 -6.9670864e-06 -5.9550007e-06 
1.3658417e-05 -1.1300921e-05 -1.1743889e-05 
2.4030911e-05 -3.9875918e-06 -1.2801328e-05 
3.6213674e-05 -1.6637352e-05 -1.6519420e-05 
4.1216717e-05 -1.5901978e-05 -1.4912492e-05 
4.5622601e-05 -1.8566729e-05 -9.1895618e-06 
4.5387958e-05 -1.8983015e-05 -5.0785820e-06 
4.1046344e-05 -1.1543115e-05 1.6066991e-07 
3.5230558e-05 -1.1852134e-05 4.5957731e-06 
2.5546164e-05 -8.8309826e-06 6.6225989e-06 
1.2365434e-05 -2.5770971e-06 8.3730638e-06 
7.2553275e-06 -1.8603195e-06 8.1733824e-06 
4.4288035e-06 -2.1929743e-06 7.1119439e-06 
3.1816010e-06 -1.3323317e-06 8.0446398e-06 
2.1450255e-06 -4.5296906e-07 7.7704208e-06 
1.3744495e-06 -1.4338883e-07 6.2117383e-06 
7.2773145e-07 -3.8199775e-07 3.1364136e-06 
5.3207509e-07 -1.4557088e-06 -1.8777804e-08 
1.6763293e-07 -5.4187586e-07 -9.3688578e-07 
2.3277458e-07 4.6786289e-07 -1.1042146e-06 
0.0000000e+00 1.2586916e-05 0.0000000e+00 
0.0000000e+00 4.0901800e-06 0.0000000e+00 
0.0000000e+00 7.6003244e-06 0.0000000e+00 
0.0000000e+00 4.7688991e-06 0.0000000e+00 
0.0000000e+00 3.3470619e-06 0.0000000e+00 
0.0000000e+00 2.2873743e-05 0.0000000e+00 
0.0000000e+00 4.0368810e-05 0.0000000e+00 
0.0000000e+00 3.5487286e-05 0.0000000e+00 
0.0000000e+00 4.9219772e-05 0.0000000e+00 
0.0000000e+00 4.3002627e-05 0.0000000e+00 
0.0000000e+00 -4.5245044e-05 0.0000000e+00 
0.0000000e+00 -4.0170260e-05 0.0000000e+00 
0.0000000e+00 -1.6024918e-04 0.0000000e+00 
0.0000000e+00 -3.7105416e-04 0.0000000e+00 
0.0000000e+00 -4.8634800e-04 0.0000000e+00 
0.0000000e+00 -5.4983678e-04 0.0000000e+00 
0.0000000e+00 -5.1266979e-04 0.0000000e+00 
0.0000000e+00 -4.2841071e-04 0.0000000e+00 
0.0000000e+00 -2.6115362e-04 0.0000000e+00 
0.0000000e+00 -1.0494695e-04 0.0000000e+00 
0.0000000e+00 -3.5610494e-06 0.0000000e+00 
0.0000000e+00 1.5173273e-05 0.0000000e+00 
0.0000000e+00 3.9276903e-05 0.0000000e+00 
0.0000000e+00 3.0775707e-05 0.0000000e+00 
0.0000000e+00 3.1809584e-05 0.0000000e+00 
0.0000000e+00 4.6039921e-05 0.0000000e+00 
0.0000000e+00 9.6554082e-05 0.0000000e+00 
0.0000000e+00 3.0919909e-05 0.0000000e+00 
0.0000000e+00 1.9993658e-05 0.0000000e+00 
0.0000000e+00 3.8428709e-05 0.0000000e+00 
0.0000000e+00 -1.1155285e-05 0.0000000e+00 
0.0000000e+00 -1.1254599e-05 0.0000000e+00 
0.0000000e+00 -1.0185240e-04 0.0000000e+00 
0.0000000e+00 -4.0281852e-04 0.0000000e+00 
0.0000000e+00 -5.2851695e-04 0.0000000e+00 
0.0000000e+00 -5.5666448e-04 0.0000000e+00 
0.0000000e+00 -5.8885856e-04 0.0000000e+00 
0.0000000e+00 -4.7096566e-04 0.0000000e+00 
0.0000000e+00 -2.0250987e-04 0.0000000e+00 
0.0000000e+00 -6.7084497e-05 0.0000000e+00 
0.0000000e+00 2.9258360e-06 0.0000000e+00 
0.0000000e+00 -6.2135587e-06 0.0000000e+00 
0.0000000e+00 -1.9923771e-05 0.0000000e+00 
0.0000000e+00 -9.0346011e-06 0.0000000e+00 
0.0000000e+00 7.8646526e-06 0.0000000e+00 
0.0000000e+00 1.3388015e-05 0.0000000e+00 
0.0000000e+00 1.6539103e-05 0.0000000e+00 
0.0000000e+00 5.5022242e-06 0.0000000e+00 
0.0000000e+00 -1.3050568e-05 0.0000000e+00 
-3.2380694e-07 1.8248720e-07 -9.1363250e-07 
-4.3604045e-06 4.1681692e-06 2.3057357e-06 
-4.5983961e-06 8.7072822e-06 4.5485690e-06 
-3.6500253e-06 1.5470827e-05 2.1979265e-06 
1.4268913e-07 2.9156254e-07 -1.1462474e-06 
1.0801531e-06 -8.6488177e-07 -1.7489224e-06 
2.8954555e-06 -3.3716640e-06 -1.3795349e-06 
2.4426492e-06 -7.4848149e-06 1.0304080e-06 
8.2207112e-07 2.9460583e-07 1.5832315e-07 
-1.1085471e-06 6.4526824e-07 1.1979997e-06 
-1.5567820e-06 -3.5658675e-07 1.3885451e-06 
-4.4138792e-06 -4.5472893e-06 4.0291279e-06 
-5.8944659e-07 -3.9620554e-07 2.8329462e-06 
2.8902277e-06 -1.7786482e-06 1.3907495e-06 
7.3922947e-06 -4.7822559e-06 5.2844734e-06 
4.3468563e-06 2.4536182e-06 3.3349515e-06 
5.7564635e-06 -4.1339695e-06 -7.9940838e-07 
1.2619181e-05 -1.0973516e-05 -1.4093556e-05 
1.7115257e-05 -5.8838395e-07 -1.6161524e-05 
2.3732999e-05 -1.1562346e-05 -1.6287187e-05 
3.0673044e-05 -1.8523637e-05 -2.5022349e-05 
3.2461878e-05 -1.9872989e-06 -2.9834200e-05 
3.9473292e-05 -1.2391907e-05 -2.3859353e-05 
4.4031796e-05 -6.0153338e-06 -7.0756869e-06 
3.4837944e-05 -3.9037882e-06 -2.6170858e-07 
2.0685404e-05 -6.1110600e-06 3.0406443e-06 
1.6703274e-05 -2.7243746e-06 1.1931003e-05 
4.3021168e-06 -5.1064058e-07 1.0810246e-05 
4.9094689e-07 -3.9616179e-06 7.8843186e-06 