# vtk DataFile Version 4.0
vtk output
ASCII
DATASET UNSTRUCTURED_GRID
POINTS 1919 float
0.0000000e+00 0.0000000e+00 0.0000000e+00 
0.0000000e+00 0.0000000e+00 5.0000000e+01 
5.0000000e+00 0.0000000e+00 0.0000000e+00 
5.0000000e+00 0.0000000e+00 5.0000000e+01 
5.0000000e+00 1.0000000e+00 0.0000000e+00 
5.0000000e+00 1.0000000e+00 5.0000000e+01 
0.0000000e+00 1.0000000e+00 0.0000000e+00 
0.0000000e+00 1.0000000e+00 5.0000000e+01 
5.0000000e+00 2.0000000e+00 0.0000000e+00 
5.0000000e+00 2.0000000e+00 5.0000000e+01 
3.0000000e+00 2.0000000e+00 0.0000000e+00 
3.0000000e+00 2.0000000e+00 5.0000000e+01 
0.0000000e+00 2.0000000e+00 0.0000000e+00 
0.0000000e+00 2.0000000e+00 5.0000000e+01 
1.5000000e+00 3.0000000e+00 0.0000000e+00 
1.5000000e+00 3.0000000e+00 5.0000000e+01 
7.5000000e-01 3.0000000e+00 0.0000000e+00 
7.5000000e-01 3.0000000e+00 5.0000000e+01 
0.0000000e+00 3.0000000e+00 0.0000000e+00 
0.0000000e+00 3.0000000e+00 5.0000000e+01 
7.5000000e-01 3.0000000e+00 5.0000000e-01 
7.5000000e-01 3.0000000e+00 1.0000000e+00 
7.5000000e-01 3.0000000e+00 1.5000000e+00 
7.5000000e-01 3.0000000e+00 2.0000000e+00 
7.5000000e-01 3.0000000e+00 2.5000000e+00 
7.5000000e-01 3.0000000e+00 3.0000000e+00 
7.5000000e-01 3.0000000e+00 3.5000000e+00 
7.5000000e-01 3.0000000e+00 4.0000000e+00 
7.5000000e-01 3.0000000e+00 4.5000000e+00 
7.5000000e-01 3.0000000e+00 5.0000000e+00 
7.5000000e-01 3.0000000e+00 5.5000000e+00 
7.5000000e-01 3.0000000e+00 6.0000000e+00 
7.5000000e-01 3.0000000e+00 6.5000000e+00 
7.5000000e-01 3.0000000e+00 7.0000000e+00 
7.5000000e-01 3.0000000e+00 7.5000000e+00 
7.5000000e-01 3.0000000e+00 8.0000000e+00 
7.5000000e-01 3.0000000e+00 8.5000000e+00 
7.5000000e-01 3.0000000e+00 9.0000000e+00 
7.5000000e-01 3.0000000e+00 9.5000000e+00 
7.5000000e-01 3.0000000e+00 1.0000000e+01 
7.5000000e-01 3.0000000e+00 1.0500000e+01 
7.5000000e-01 3.0000000e+00 1.1000000e+01 
7.5000000e-01 3.0000000e+00 1.1500000e+01 
7.5000000e-01 3.0000000e+00 1.2000000e+01 
7.5000000e-01 3.0000000e+00 1.2500000e+01 
7.5000000e-01 3.0000000e+00 1.3000000e+01 
7.5000000e-01 3.0000000e+00 1.3500000e+01 
7.5000000e-01 3.0000000e+00 1.4000000e+01 
7.5000000e-01 3.0000000e+00 1.4500000e+01 
7.5000000e-01 3.0000000e+00 1.5000000e+01 
7.5000000e-01 3.0000000e+00 1.5500000e+01 
7.5000000e-01 3.0000000e+00 1.6000000e+01 
7.5000000e-01 3.0000000e+00 1.6500000e+01 
7.5000000e-01 3.0000000e+00 1.7000000e+01 
7.5000000e-01 3.0000000e+00 1.7500000e+01 
7.5000000e-01 3.0000000e+00 1.8000000e+01 
7.5000000e-01 3.0000000e+00 1.8500000e+01 
7.5000000e-01 3.0000000e+00 1.9000000e+01 
7.5000000e-01 3.0000000e+00 1.9500000e+01 
7.5000000e-01 3.0000000e+00 2.0000000e+01 
7.5000000e-01 3.0000000e+00 2.0500000e+01 
7.5000000e-01 3.0000000e+00 2.1000000e+01 
7.5000000e-01 3.0000000e+00 2.1500000e+01 
7.5000000e-01 3.0000000e+00 2.2000000e+01 
7.5000000e-01 3.0000000e+00 2.2500000e+01 
7.5000000e-01 3.0000000e+00 2.3000000e+01 
7.5000000e-01 3.0000000e+00 2.3500000e+01 
7.5000000e-01 3.0000000e+00 2.4000000e+01 
7.5000000e-01 3.0000000e+00 2.4500000e+01 
7.5000000e-01 3.0000000e+00 2.5000000e+01 
7.5000000e-01 3.0000000e+00 2.5500000e+01 
7.5000000e-01 3.0000000e+00 2.6000000e+01 
7.5000000e-01 3.0000000e+00 2.6500000e+01 
7.5000000e-01 3.0000000e+00 2.7000000e+01 
7.5000000e-01 3.0000000e+00 2.7500000e+01 
7.5000000e-01 3.0000000e+00 2.8000000e+01 
7.5000000e-01 3.0000000e+00 2.8500000e+01 
7.5000000e-01 3.0000000e+00 2.9000000e+01 
7.5000000e-01 3.0000000e+00 2.9500000e+01 
7.5000000e-01 3.0000000e+00 3.0000000e+01 
7.5000000e-01 3.0000000e+00 3.0500000e+01 
7.5000000e-01 3.0000000e+00 3.1000000e+01 
7.5000000e-01 3.0000000e+00 3.1500000e+01 
7.5000000e-01 3.0000000e+00 3.2000000e+01 
7.5000000e-01 3.0000000e+00 3.2500000e+01 
7.5000000e-01 3.0000000e+00 3.3000000e+01 
7.5000000e-01 3.0000000e+00 3.3500000e+01 
7.5000000e-01 3.0000000e+00 3.4000000e+01 
7.5000000e-01 3.0000000e+00 3.4500000e+01 
7.5000000e-01 3.0000000e+00 3.5000000e+01 
7.5000000e-01 3.0000000e+00 3.5500000e+01 
7.5000000e-01 3.0000000e+00 3.6000000e+01 
7.5000000e-01 3.0000000e+00 3.6500000e+01 
7.5000000e-01 3.0000000e+00 3.7000000e+01 
7.5000000e-01 3.0000000e+00 3.7500000e+01 
7.5000000e-01 3.0000000e+00 3.8000000e+01 
7.5000000e-01 3.0000000e+00 3.8500000e+01 
7.5000000e-01 3.0000000e+00 3.9000000e+01 
7.5000000e-01 3.0000000e+00 3.9500000e+01 
7.5000000e-01 3.0000000e+00 4.0000000e+01 
7.5000000e-01 3.0000000e+00 4.0500000e+01 
7.5000000e-01 3.0000000e+00 4.1000000e+01 
7.5000000e-01 3.0000000e+00 4.1500000e+01 
7.5000000e-01 3.0000000e+00 4.2000000e+01 
7.5000000e-01 3.0000000e+00 4.2500000e+01 
7.5000000e-01 3.0000000e+00 4.3000000e+01 
7.5000000e-01 3.0000000e+00 4.3500000e+01 
7.5000000e-01 3.0000000e+00 4.4000000e+01 
7.5000000e-01 3.0000000e+00 4.4500000e+01 
7.5000000e-01 3.0000000e+00 4.5000000e+01 
7.5000000e-01 3.0000000e+00 4.5500000e+01 
7.5000000e-01 3.0000000e+00 4.6000000e+01 
7.5000000e-01 3.0000000e+00 4.6500000e+01 
7.5000000e-01 3.0000000e+00 4.7000000e+01 
7.5000000e-01 3.0000000e+00 4.7500000e+01 
7.5000000e-01 3.0000000e+00 4.8000000e+01 
7.5000000e-01 3.0000000e+00 4.8500000e+01 
7.5000000e-01 3.0000000e+00 4.9000000e+01 
7.5000000e-01 3.0000000e+00 4.9500000e+01 
7.5000000e-01 3.0250001e+00 0.0000000e+00 
7.5000000e-01 3.0250001e+00 5.0000000e-01 
7.5000000e-01 3.0250001e+00 1.0000000e+00 
7.5000000e-01 3.0250001e+00 1.5000000e+00 
7.5000000e-01 3.0250001e+00 2.0000000e+00 
7.5000000e-01 3.0250001e+00 2.5000000e+00 
7.5000000e-01 3.0250001e+00 3.0000000e+00 
7.5000000e-01 3.0250001e+00 3.5000000e+00 
7.5000000e-01 3.0250001e+00 4.0000000e+00 
7.5000000e-01 3.0250001e+00 4.5000000e+00 
7.5000000e-01 3.0250001e+00 5.0000000e+00 
7.5000000e-01 3.0250001e+00 5.5000000e+00 
7.5000000e-01 3.0250001e+00 6.0000000e+00 
7.5000000e-01 3.0250001e+00 6.5000000e+00 
7.5000000e-01 3.0250001e+00 7.0000000e+00 
7.5000000e-01 3.0250001e+00 7.5000000e+00 
7.5000000e-01 3.0250001e+00 8.0000000e+00 
7.5000000e-01 3.0250001e+00 8.5000000e+00 
7.5000000e-01 3.0250001e+00 9.0000000e+00 
7.5000000e-01 3.0250001e+00 9.5000000e+00 
7.5000000e-01 3.0250001e+00 1.0000000e+01 
7.5000000e-01 3.0250001e+00 1.0500000e+01 
7.5000000e-01 3.0250001e+00 1.1000000e+01 
7.5000000e-01 3.0250001e+00 1.1500000e+01 
7.5000000e-01 3.0250001e+00 1.2000000e+01 
7.5000000e-01 3.0250001e+00 1.2500000e+01 
7.5000000e-01 3.0250001e+00 1.3000000e+01 
7.5000000e-01 3.0250001e+00 1.3500000e+01 
7.5000000e-01 3.0250001e+00 1.4000000e+01 
7.5000000e-01 3.0250001e+00 1.4500000e+01 
7.5000000e-01 3.0250001e+00 1.5000000e+01 
7.5000000e-01 3.0250001e+00 1.5500000e+01 
7.5000000e-01 3.0250001e+00 1.6000000e+01 
7.5000000e-01 3.0250001e+00 1.6500000e+01 
7.5000000e-01 3.0250001e+00 1.7000000e+01 
7.5000000e-01 3.0250001e+00 1.7500000e+01 
7.5000000e-01 3.0250001e+00 1.8000000e+01 
7.5000000e-01 3.0250001e+00 1.8500000e+01 
7.5000000e-01 3.0250001e+00 1.9000000e+01 
7.5000000e-01 3.0250001e+00 1.9500000e+01 
7.5000000e-01 3.0250001e+00 2.0000000e+01 
7.5000000e-01 3.0250001e+00 2.0500000e+01 
7.5000000e-01 3.0250001e+00 2.1000000e+01 
7.5000000e-01 3.0250001e+00 2.1500000e+01 
7.5000000e-01 3.0250001e+00 2.2000000e+01 
7.5000000e-01 3.0250001e+00 2.2500000e+01 
7.5000000e-01 3.0250001e+00 2.3000000e+01 
7.5000000e-01 3.0250001e+00 2.3500000e+01 
7.5000000e-01 3.0250001e+00 2.4000000e+01 
7.5000000e-01 3.0250001e+00 2.4500000e+01 
7.5000000e-01 3.0250001e+00 2.5000000e+01 
7.5000000e-01 3.0250001e+00 2.5500000e+01 
7.5000000e-01 3.0250001e+00 2.6000000e+01 
7.5000000e-01 3.0250001e+00 2.6500000e+01 
7.5000000e-01 3.0250001e+00 2.7000000e+01 
7.5000000e-01 3.0250001e+00 2.7500000e+01 
7.5000000e-01 3.0250001e+00 2.8000000e+01 
7.5000000e-01 3.0250001e+00 2.8500000e+01 
7.5000000e-01 3.0250001e+00 2.9000000e+01 
7.5000000e-01 3.0250001e+00 2.9500000e+01 
7.5000000e-01 3.0250001e+00 3.0000000e+01 
7.5000000e-01 3.0250001e+00 3.0500000e+01 
7.5000000e-01 3.0250001e+00 3.1000000e+01 
7.5000000e-01 3.0250001e+00 3.1500000e+01 
7.5000000e-01 3.0250001e+00 3.2000000e+01 
7.5000000e-01 3.0250001e+00 3.2500000e+01 
7.5000000e-01 3.0250001e+00 3.3000000e+01 
7.5000000e-01 3.0250001e+00 3.3500000e+01 
7.5000000e-01 3.0250001e+00 3.4000000e+01 
7.5000000e-01 3.0250001e+00 3.4500000e+01 
7.5000000e-01 3.0250001e+00 3.5000000e+01 
7.5000000e-01 3.0250001e+00 3.5500000e+01 
7.5000000e-01 3.0250001e+00 3.6000000e+01 
7.5000000e-01 3.0250001e+00 3.6500000e+01 
7.5000000e-01 3.0250001e+00 3.7000000e+01 
7.5000000e-01 3.0250001e+00 3.7500000e+01 
7.5000000e-01 3.0250001e+00 3.8000000e+01 
7.5000000e-01 3.0250001e+00 3.8500000e+01 
7.5000000e-01 3.0250001e+00 3.9000000e+01 
7.5000000e-01 3.0250001e+00 3.9500000e+01 
7.5000000e-01 3.0250001e+00 4.0000000e+01 
7.5000000e-01 3.0250001e+00 4.0500000e+01 
7.5000000e-01 3.0250001e+00 4.1000000e+01 
7.5000000e-01 3.0250001e+00 4.1500000e+01 
7.5000000e-01 3.0250001e+00 4.2000000e+01 
7.5000000e-01 3.0250001e+00 4.2500000e+01 
7.5000000e-01 3.0250001e+00 4.3000000e+01 
7.5000000e-01 3.0250001e+00 4.3500000e+01 
7.5000000e-01 3.0250001e+00 4.4000000e+01 
7.5000000e-01 3.0250001e+00 4.4500000e+01 
7.5000000e-01 3.0250001e+00 4.5000000e+01 
7.5000000e-01 3.0250001e+00 4.5500000e+01 
7.5000000e-01 3.0250001e+00 4.6000000e+01 
7.5000000e-01 3.0250001e+00 4.6500000e+01 
7.5000000e-01 3.0250001e+00 4.7000000e+01 
7.5000000e-01 3.0250001e+00 4.7500000e+01 
7.5000000e-01 3.0250001e+00 4.8000000e+01 
7.5000000e-01 3.0250001e+00 4.8500000e+01 
7.5000000e-01 3.0250001e+00 4.9000000e+01 
7.5000000e-01 3.0250001e+00 4.9500000e+01 
7.5000000e-01 3.0250001e+00 5.0000000e+01 
3.0000000e+00 2.0000000e+00 3.6000000e+01 
8.0487806e-01 3.0000000e+00 3.6000000e+01 
0.0000000e+00 0.0000000e+00 1.0000000e+00 
0.0000000e+00 0.0000000e+00 2.0000000e+00 
0.0000000e+00 0.0000000e+00 3.0000000e+00 
0.0000000e+00 0.0000000e+00 4.0000000e+00 
0.0000000e+00 0.0000000e+00 5.0000000e+00 
0.0000000e+00 0.0000000e+00 6.0000000e+00 
0.0000000e+00 0.0000000e+00 7.0000000e+00 
0.0000000e+00 0.0000000e+00 8.0000000e+00 
[...]
POINT_DATA 1919
FIELD FieldData 3
DISPLACEMENT 3 1919  float
0.0000000e+00 0.0000000e+00 0.0000000e+00 
0.0000000e+00 0.0000000e+00 0.0000000e+00 
0.0000000e+00 0.0000000e+00 0.0000000e+00 
0.0000000e+00 0.0000000e+00 0.0000000e+00 
-2.6794307e-06 -5.8260953e-06 -3.3404942e-06 
-8.1631434e-08 3.6559813e-09 1.2483303e-08 
0.0000000e+00 -5.9596218e-06 0.0000000e+00 
0.0000000e+00 3.1444489e-07 0.0000000e+00 
3.3155666e-06 -6.4294850e-06 -7.1484228e-06 
-1.2386610e-07 -4.0568775e-08 -4.3087911e-09 
5.6910034e-07 -5.8757305e-06 -1.6271034e-07 
2.2551436e-07 -1.1499844e-07 -1.3055040e-07 
0.0000000e+00 -3.6697961e-06 0.0000000e+00 
0.0000000e+00 3.0038376e-07 0.0000000e+00 
2.0439527e-05 2.3050374e-05 -2.5174902e-05 
-6.2396197e-07 3.2841248e-07 7.0296704e-07 
2.4857642e-05 4.5774013e-05 -2.3451006e-05 
-1.8948083e-07 -6.8495797e-07 -3.8209862e-08 
0.0000000e+00 4.8856466e-05 0.0000000e+00 
0.0000000e+00 4.7702622e-07 0.0000000e+00 
1.4519600e-05 5.1056151e-05 8.5245927e-07 
2.2141357e-05 6.0073457e-05 -4.8604884e-06 
1.2921545e-05 5.9176753e-05 -2.0359514e-06 
2.5887062e-05 4.9869181e-05 3.3383155e-06 
2.3318989e-05 5.0559578e-05 9.8406338e-07 
5.0225731e-06 8.6666565e-05 1.6281194e-05 
4.0249147e-06 1.6147816e-04 3.1088573e-05 
3.7018002e-05 2.3145774e-04 1.5195755e-05 
5.7062084e-06 2.5791221e-04 -1.0555467e-05 
2.0963851e-05 2.1892249e-04 5.9989425e-06 
8.4549592e-06 1.0230889e-04 4.7414458e-05 
-2.1174308e-05 -1.2310484e-04 5.5339206e-05 
-5.5732937e-05 -5.3955126e-04 1.7479621e-04 
-1.2387410e-04 -1.2538539e-03 1.3765310e-04 
-1.4418902e-04 -2.3155471e-03 2.8283396e-04 
-1.8449404e-04 -3.5540450e-03 1.4284642e-04 
-2.3165943e-04 -4.5311819e-03 1.7840703e-04 
-2.2140406e-04 -4.6612616e-03 1.1159573e-04 
-1.8713871e-04 -4.5053870e-03 1.4293344e-04 
-2.1157241e-04 -4.5466241e-03 1.0950419e-04 
-2.4737927e-04 -4.8784618e-03 1.4654215e-04 
-3.3344669e-04 -4.9883900e-03 2.0199408e-05 
-3.4599478e-04 -4.2734314e-03 -1.6959198e-04 
-2.5575454e-04 -3.0978031e-03 -1.2941385e-04 
-1.5690424e-04 -1.9630513e-03 -2.7864511e-04 
-9.5997872e-05 -1.0649177e-03 -1.5039215e-04 
-4.7322606e-05 -4.7676338e-04 -1.3446868e-04 
-5.3124892e-05 -1.4575836e-04 -3.6648147e-05 
-7.4381969e-05 1.7654354e-05 -2.1534492e-05 
-7.3682655e-05 8.8728702e-05 -2.9914183e-05 
-6.9556008e-05 1.1660872e-04 -9.1874681e-05 
-1.0269649e-05 1.1802543e-04 -1.2976171e-04 
2.7832379e-05 1.0590113e-04 -1.3452300e-04 
4.0834853e-05 9.0151436e-05 -7.6601296e-05 
5.3184391e-05 6.9365735e-05 -6.6915650e-06 
4.7683268e-05 3.3475953e-05 4.9417049e-05 
1.5283100e-05 -2.5517493e-05 9.5524789e-05 
5.1046572e-06 -9.6251919e-05 8.8673332e-05 
-1.9100708e-05 -1.5150313e-04 5.3550502e-05 
-1.6199228e-05 -1.6912792e-04 1.7861190e-05 
-3.3867796e-05 -1.4917228e-04 7.0318424e-06 
-1.6766911e-05 -1.1874615e-04 -9.3017416e-06 
-1.1822698e-05 -1.0332467e-04 -2.9117840e-05 
-7.3157262e-06 -1.0965455e-04 -3.6410791e-05 
-2.6724045e-05 -1.1568855e-04 -6.3769381e-05 
-7.6321494e-06 -8.2311963e-05 -6.6686523e-05 
-3.6119713e-05 5.1562606e-06 -6.4909880e-05 
-1.7479682e-05 1.1587750e-04 -6.2780884e-05 
-1.8990761e-05 1.9264380e-04 -6.6658642e-05 
-1.0162369e-05 1.7126824e-04 -5.3181724e-05 
-3.6023092e-05 2.3393832e-05 -3.5750800e-05 
-2.5322202e-05 -2.6818807e-04 -3.1124982e-06 
-4.5957160e-05 -7.5137313e-04 1.1030908e-04 
-1.1099868e-04 -1.4867784e-03 6.0282720e-05 
-1.4483897e-04 -2.5216653e-03 2.2472603e-04 
-2.2998640e-04 -3.7000682e-03 9.4271694e-05 
-2.6398516e-04 -4.6006180e-03 1.3410131e-04 
-2.6398667e-04 -4.6794750e-03 1.0709252e-04 
-2.4367050e-04 -4.5103529e-03 1.0062486e-04 
-2.7015354e-04 -4.4990811e-03 7.5064236e-05 
-2.9505801e-04 -4.7300612e-03 9.8126671e-05 
-3.0224273e-04 -4.7006137e-03 7.8428711e-05 
-2.6350841e-04 -3.8908834e-03 -7.5764161e-05 
-1.9956633e-04 -2.6984529e-03 -1.1277407e-05 
-1.6958236e-04 -1.6111474e-03 -1.6543793e-04 
-1.1720038e-04 -7.9301721e-04 -1.1950357e-04 
-9.5248550e-05 -2.7512774e-04 -2.0131125e-04 
-4.3313870e-05 1.4910109e-05 -1.7352647e-04 
-1.5942902e-05 1.5767686e-04 -1.6599070e-04 
-2.2979557e-05 2.0710849e-04 -1.0848897e-04 
-4.6905539e-06 1.9484785e-04 -1.2620806e-04 
2.0281614e-05 1.5319187e-04 -1.2718435e-04 
2.2204227e-05 1.1187986e-04 -9.5237432e-05 
2.8812474e-05 7.8934536e-05 -4.0818421e-05 
4.1433508e-05 4.7053072e-05 1.4069959e-05 
2.6560901e-05 1.3485549e-05 5.8216363e-05 
7.7381983e-06 -1.9246623e-05 8.0575839e-05 
-4.4232979e-06 -4.1976291e-05 6.6218345e-05 
-1.9750538e-05 -4.7576268e-05 3.6157511e-05 
-1.3547617e-05 -3.8799353e-05 1.0003671e-05 
-6.0727098e-06 -2.2876206e-05 -7.7949453e-06 
-9.3732632e-07 -7.1187633e-06 -1.4197859e-05 
3.7551638e-06 4.9647469e-06 -1.4600614e-05 
3.3242748e-06 1.2807531e-05 -8.7853450e-06 
4.2377087e-06 1.6117210e-05 -2.3411324e-06 
1.6616509e-06 1.4949799e-05 3.1635630e-06 
-9.4008152e-07 9.9043318e-06 6.0378902e-06 
-2.8961924e-06 3.3256797e-06 4.8769339e-06 
-2.5728634e-06 -2.0383527e-06 2.6149946e-06 
-1.9202841e-06 -4.3435798e-06 8.4279981e-07 
-8.1136966e-07 -3.8822141e-06 -2.0427321e-06 
1.1093157e-07 -2.2920317e-06 -2.7249171e-06 
1.2276303e-06 -9.0776314e-07 -2.7562569e-06 
1.1568010e-06 -6.3808177e-09 -1.8185240e-06 
9.0033785e-07 4.8436260e-07 -7.6003556e-07 
6.2469252e-07 6.9805452e-07 2.5366839e-07 
-1.1943499e-07 5.8207189e-07 7.3281660e-07 
-1.5071684e-07 1.3034139e-07 9.0622149e-07 
-5.1715085e-07 -4.2772626e-07 5.3279700e-07 
0.0000000e+00 4.6627374e-05 0.0000000e+00 
0.0000000e+00 5.1646024e-05 0.0000000e+00 
0.0000000e+00 5.9244612e-05 0.0000000e+00 
0.0000000e+00 5.7777994e-05 0.0000000e+00 
0.0000000e+00 4.8881804e-05 0.0000000e+00 
0.0000000e+00 5.1793468e-05 0.0000000e+00 
0.0000000e+00 8.9953312e-05 0.0000000e+00 
0.0000000e+00 1.6214429e-04 0.0000000e+00 
0.0000000e+00 2.3065082e-04 0.0000000e+00 
0.0000000e+00 2.5688022e-04 0.0000000e+00 
0.0000000e+00 2.1939584e-04 0.0000000e+00 
0.0000000e+00 1.0481301e-04 0.0000000e+00 
0.0000000e+00 -1.2123756e-04 0.0000000e+00 
0.0000000e+00 -5.4154440e-04 0.0000000e+00 
0.0000000e+00 -1.2640171e-03 0.0000000e+00 
0.0000000e+00 -2.3299917e-03 0.0000000e+00 
0.0000000e+00 -3.5815137e-03 0.0000000e+00 
0.0000000e+00 -4.5496379e-03 0.0000000e+00 
0.0000000e+00 -4.6863519e-03 0.0000000e+00 
0.0000000e+00 -4.5263469e-03 0.0000000e+00 
0.0000000e+00 -4.5771264e-03 0.0000000e+00 
0.0000000e+00 -4.9043717e-03 0.0000000e+00 
0.0000000e+00 -5.0189961e-03 0.0000000e+00 
0.0000000e+00 -4.2897235e-03 0.0000000e+00 
0.0000000e+00 -3.1144093e-03 0.0000000e+00 
0.0000000e+00 -1.9700064e-03 0.0000000e+00 
0.0000000e+00 -1.0709418e-03 0.0000000e+00 
0.0000000e+00 -4.7800905e-04 0.0000000e+00 
0.0000000e+00 -1.4425995e-04 0.0000000e+00 
0.0000000e+00 1.9203959e-05 0.0000000e+00 
0.0000000e+00 9.0116919e-05 0.0000000e+00 
0.0000000e+00 1.1658433e-04 0.0000000e+00 
0.0000000e+00 1.1821079e-04 0.0000000e+00 
0.0000000e+00 1.0666577e-04 0.0000000e+00 
0.0000000e+00 9.0721056e-05 0.0000000e+00 
0.0000000e+00 6.9430775e-05 0.0000000e+00 
0.0000000e+00 3.2676951e-05 0.0000000e+00 
0.0000000e+00 -2.6320209e-05 0.0000000e+00 
0.0000000e+00 -9.6072312e-05 0.0000000e+00 
0.0000000e+00 -1.5042440e-04 0.0000000e+00 
0.0000000e+00 -1.6770048e-04 0.0000000e+00 
0.0000000e+00 -1.4900193e-04 0.0000000e+00 
0.0000000e+00 -1.1947176e-04 0.0000000e+00 
0.0000000e+00 -1.0464895e-04 0.0000000e+00 
0.0000000e+00 -1.1060133e-04 0.0000000e+00 
0.0000000e+00 -1.1488352e-04 0.0000000e+00 
0.0000000e+00 -8.0332829e-05 0.0000000e+00 
0.0000000e+00 7.0217648e-06 0.0000000e+00 
0.0000000e+00 1.1719552e-04 0.0000000e+00 
0.0000000e+00 1.9142617e-04 0.0000000e+00 
0.0000000e+00 1.7051626e-04 0.0000000e+00 
0.0000000e+00 2.4114563e-05 0.0000000e+00 
0.0000000e+00 -2.6791400e-04 0.0000000e+00 
0.0000000e+00 -7.5185555e-04 0.0000000e+00 
0.0000000e+00 -1.4963528e-03 0.0000000e+00 
0.0000000e+00 -2.5361045e-03 0.0000000e+00 
0.0000000e+00 -3.7277355e-03 0.0000000e+00 
0.0000000e+00 -4.6214564e-03 0.0000000e+00 
0.0000000e+00 -4.7078016e-03 0.0000000e+00 
0.0000000e+00 -4.5278026e-03 0.0000000e+00 
0.0000000e+00 -4.5287111e-03 0.0000000e+00 
0.0000000e+00 -4.7528911e-03 0.0000000e+00 
0.0000000e+00 -4.7305594e-03 0.0000000e+00 
0.0000000e+00 -3.9067776e-03 0.0000000e+00 
0.0000000e+00 -2.7151376e-03 0.0000000e+00 
0.0000000e+00 -1.6179680e-03 0.0000000e+00 
0.0000000e+00 -7.9713110e-04 0.0000000e+00 
0.0000000e+00 -2.7492558e-04 0.0000000e+00 
0.0000000e+00 1.6317113e-05 0.0000000e+00 
0.0000000e+00 1.5854376e-04 0.0000000e+00 
0.0000000e+00 2.0710984e-04 0.0000000e+00 
0.0000000e+00 1.9537452e-04 0.0000000e+00 
0.0000000e+00 1.5454876e-04 0.0000000e+00 
0.0000000e+00 1.1255769e-04 0.0000000e+00 
0.0000000e+00 7.8434212e-05 0.0000000e+00 
0.0000000e+00 4.6720139e-05 0.0000000e+00 
0.0000000e+00 1.3315963e-05 0.0000000e+00 
0.0000000e+00 -1.9020752e-05 0.0000000e+00 
0.0000000e+00 -4.1493804e-05 0.0000000e+00 
0.0000000e+00 -4.7449361e-05 0.0000000e+00 
0.0000000e+00 -3.8878330e-05 0.0000000e+00 
0.0000000e+00 -2.3055234e-05 0.0000000e+00 
0.0000000e+00 -7.2138773e-06 0.0000000e+00 
0.0000000e+00 4.9649498e-06 0.0000000e+00 
0.0000000e+00 1.2756243e-05 0.0000000e+00 
0.0000000e+00 1.6064432e-05 0.0000000e+00 
0.0000000e+00 1.4884092e-05 0.0000000e+00 
0.0000000e+00 9.9235640e-06 0.0000000e+00 
0.0000000e+00 3.3951292e-06 0.0000000e+00 
0.0000000e+00 -1.9433753e-06 0.0000000e+00 
0.0000000e+00 -4.3048885e-06 0.0000000e+00 
0.0000000e+00 -3.9109896e-06 0.0000000e+00 
0.0000000e+00 -2.3380192e-06 0.0000000e+00 
0.0000000e+00 -9.1661030e-07 0.0000000e+00 
0.0000000e+00 -1.0536479e-08 0.0000000e+00 
0.0000000e+00 4.8599992e-07 0.0000000e+00 
0.0000000e+00 6.9674104e-07 0.0000000e+00 
0.0000000e+00 5.8010806e-07 0.0000000e+00 
0.0000000e+00 1.2899613e-07 0.0000000e+00 
0.0000000e+00 -4.2372278e-07 0.0000000e+00 
0.0000000e+00 -6.8071813e-07 0.0000000e+00 
-3.2751448e-06 1.5104300e-05 -2.1432170e-05 
2.1513097e-05 1.3206447e-04 -1.2905250e-04 
0.0000000e+00 0.0000000e+00 0.0000000e+00 
0.0000000e+00 0.0000000e+00 0.0000000e+00 
0.0000000e+00 0.0000000e+00 0.0000000e+00 
0.0000000e+00 0.0000000e+00 0.0000000e+00 
0.0000000e+00 0.0000000e+00 0.0000000e+00 
0.0000000e+00 0.0000000e+00 0.0000000e+00 
0.0000000e+00 0.0000000e+00 0.0000000e+00 
0.0000000e+00 0.0000000e+00 0.0000000e+00 
0.0000000e+00 0.0000000e+00 0.0000000e+00 
0.0000000e+00 0.0000000e+00 0.0000000e+00 
0.0000000e+00 0.0000000e+00 0.0000000e+00 
0.0000000e+00 0.0000000e+00 0.0000000e+00 
0.0000000e+00 0.0000000e+00 0.0000000e+00 
0.0000000e+00 0.0000000e+00 0.0000000e+00 
0.0000000e+00 0.0000000e+00 0.0000000e+00 
0.0000000e+00 0.0000000e+00 0.0000000e+00 
0.0000000e+00 0.0000000e+00 0.0000000e+00 
0.0000000e+00 0.0000000e+00 0.0000000e+00 
0.0000000e+00 0.0000000e+00 0.0000000e+00 
0.0000000e+00 0.0000000e+00 0.0000000e+00 
0.0000000e+00 0.0000000e+00 0.0000000e+00 
0.0000000e+00 0.0000000e+00 0.0000000e+00 
0.0000000e+00 0.0000000e+00 0.0000000e+00 
0.0000000e+00 0.0000000e+00 0.0000000e+00 
0.0000000e+00 0.0000000e+00 0.0000000e+00 
0.0000000e+00 0.0000000e+00 0.0000000e+00 
0.0000000e+00 0.0000000e+00 0.0000000e+00 
0.0000000e+00 0.0000000e+00 0.0000000e+00 
0.0000000e+00 0.0000000e+00 0.0000000e+00 
0.0000000e+00 0.0000000e+00 0.0000000e+00 
0.0000000e+00 0.0000000e+00 0.0000000e+00 
0.0000000e+00 0.0000000e+00 0.0000000e+00 
0.0000000e+00 0.0000000e+00 0.0000000e+00 
0.0000000e+00 0.0000000e+00 0.0000000e+00 
0.0000000e+00 0.0000000e+00 0.0000000e+00 
0.0000000e+00 0.0000000e+00 0.0000000e+00 
0.0000000e+00 0.0000000e+00 0.0000000e+00 
0.0000000e+00 0.0000000e+00 0.0000000e+00 
0.0000000e+00 0.0000000e+00 0.0000000e+00 
0.0000000e+00 0.0000000e+00 0.0000000e+00 
0.0000000e+00 0.0000000e+00 0.0000000e+00 
0.0000000e+00 0.0000000e+00 0.0000000e+00 
0.0000000e+00 0.0000000e+00 0.0000000e+00 
0.0000000e+00 0.0000000e+00 0.0000000e+00 
0.0000000e+00 0.0000000e+00 0.0000000e+00 
0.0000000e+00 0.0000000e+00 0.0000000e+00 
0.0000000e+00 0.0000000e+00 0.0000000e+00 
0.0000000e+00 0.0000000e+00 0.0000000e+00 
0.0000000e+00 0.0000000e+00 0.0000000e+00 
0.0000000e+00 0.0000000e+00 0.0000000e+00 
0.0000000e+00 0.0000000e+00 0.0000000e+00 
0.0000000e+00 0.0000000e+00 0.0000000e+00 
0.0000000e+00 0.0000000e+00 0.0000000e+00 
0.0000000e+00 0.0000000e+00 0.0000000e+00 
0.0000000e+00 0.0000000e+00 0.0000000e+00 
0.0000000e+00 0.0000000e+00 0.0000000e+00 
0.0000000e+00 0.0000000e+00 0.0000000e+00 
0.0000000e+00 0.0000000e+00 0.0000000e+00 
0.0000000e+00 0.0000000e+00 0.0000000e+00 
0.0000000e+00 0.0000000e+00 0.0000000e+00 
0.0000000e+00 0.0000000e+00 0.0000000e+00 
0.0000000e+00 0.0000000e+00 0.0000000e+00 
0.0000000e+00 0.0000000e+00 0.0000000e+00 
0.0000000e+00 0.0000000e+00 0.0000000e+00 
0.0000000e+00 0.0000000e+00 0.0000000e+00 
0.0000000e+00 0.0000000e+00 0.0000000e+00 
0.0000000e+00 0.0000000e+00 0.0000000e+00 
0.0000000e+00 0.0000000e+00 0.0000000e+00 
0.0000000e+00 0.0000000e+00 0.0000000e+00 
0.0000000e+00 0.0000000e+00 0.0000000e+00 
0.0000000e+00 0.0000000e+00 0.0000000e+00 
0.0000000e+00 0.0000000e+00 0.0000000e+00 
0.0000000e+00 0.0000000e+00 0.0000000e+00 
0.0000000e+00 0.0000000e+00 0.0000000e+00 
0.0000000e+00 0.0000000e+00 0.0000000e+00 
0.0000000e+00 0.0000000e+00 0.0000000e+00 
0.0000000e+00 0.0000000e+00 0.0000000e+00 
0.0000000e+00 0.0000000e+00 0.0000000e+00 
0.0000000e+00 0.0000000e+00 0.0000000e+00 
0.0000000e+00 0.0000000e+00 0.0000000e+00 
0.0000000e+00 0.0000000e+00 0.0000000e+00 
0.0000000e+00 0.0000000e+00 0.0000000e+00 
0.0000000e+00 0.0000000e+00 0.0000000e+00 
0.0000000e+00 0.0000000e+00 0.0000000e+00 
0.0000000e+00 0.0000000e+00 0.0000000e+00 
0.0000000e+00 0.0000000e+00 0.0000000e+00 
0.0000000e+00 0.0000000e+00 0.0000000e+00 
0.0000000e+00 0.0000000e+00 0.0000000e+00 
0.0000000e+00 0.0000000e+00 0.0000000e+00 
0.0000000e+00 0.0000000e+00 0.0000000e+00 
0.0000000e+00 0.0000000e+00 0.0000000e+00 
0.0000000e+00 0.0000000e+00 0.0000000e+00 
0.0000000e+00 0.0000000e+00 0.0000000e+00 
0.0000000e+00 0.0000000e+00 0.0000000e+00 
0.0000000e+00 0.0000000e+00 0.0000000e+00 
0.0000000e+00 0.0000000e+00 0.0000000e+00 
0.0000000e+00 0.0000000e+00 0.0000000e+00 
0.0000000e+00 0.0000000e+00 0.0000000e+00 
0.0000000e+00 0.0000000e+00 0.0000000e+00 
0.0000000e+00 0.0000000e+00 0.0000000e+00 
0.0000000e+00 0.0000000e+00 0.0000000e+00 
0.0000000e+00 0.0000000e+00 0.0000000e+00 
0.0000000e+00 0.0000000e+00 0.0000000e+00 
0.0000000e+00 0.0000000e+00 0.0000000e+00 
0.0000000e+00 0.0000000e+00 0.0000000e+00 
0.0000000e+00 0.0000000e+00 0.0000000e+00 
2.1611856e-06 -2.9310827e-06 -7.9487450e-07 
2.3420059e-06 1.6253077e-08 -5.3068472e-08 
2.9865114e-06 -1.7346639e-06 -4.8749389e-06 
7.0232300e-06 -5.6880676e-06 -4.3897339e-06 
1.2987951e-05 -8.6558894e-06 -5.6020158e-06 
2.3078697e-05 -6.5472454e-06 -8.8486959e-06 
3.0562198e-05 -1.8079250e-05 -7.6165570e-06 
4.2644664e-05 -1.7397273e-05 -6.0056304e-06 
4.8134625e-05 -1.7528213e-05 -2.8006700e-06 
4.9898776e-05 -1.8990648e-05 1.4716311e-06 
4.8655835e-05 -1.4296024e-05 1.4747825e-05 
3.2125205e-05 -7.4564509e-06 2.0674803e-05 
2.2752334e-05 -7.8536386e-06 1.6390935e-05 
1.2805641e-05 -3.0592053e-06 9.9035460e-06 
5.5017076e-06 2.8821557e-06 -1.0476239e-06 
-4.0196887e-06 1.8402005e-06 -1.1755942e-06 
-3.7462780e-06 -5.0279746e-06 -2.2716238e-06 
5.2108130e-06 -1.1201679e-05 -5.8620881e-06 
6.8775498e-06 -1.4645649e-05 -5.6587546e-06 
6.0123102e-06 -6.1666392e-06 -4.6652467e-06 
5.2782348e-06 -9.5257565e-06 -3.6408151e-06 
1.6292735e-06 -1.1267119e-05 -1.3120610e-06 
3.8078174e-06 -5.6004974e-06 -1.5915432e-06 
1.0454917e-05 -1.0545437e-05 -8.4067068e-08 
1.0620078e-05 -5.2428700e-06 -6.7921400e-07 
1.7159171e-05 -2.5878892e-06 -1.1662287e-06 
2.9195098e-05 -1.2869964e-05 -2.4949511e-06 
3.9962080e-05 -1.7806329e-05 -4.0534082e-06 
4.8601923e-05 -1.5126793e-05 2.9166592e-06 
4.7868154e-05 -2.0422733e-05 3.6583529e-06 
4.5062421e-05 -1.5364676e-05 7.3962319e-06 
3.5073386e-05 -9.5447094e-06 1.2164215e-05 
1.8385474e-05 -8.1063608e-06 1.2022508e-05 
4.9134073e-06 -1.9426473e-06 7.3096662e-06 
-1.7476907e-06 2.1492701e-06 5.7734569e-06 
-3.8819417e-06 2.5796978e-06 2.7380927e-06 
-1.7323155e-06 -6.2688065e-07 1.4437812e-06 
-3.2462236e-07 -1.6414772e-06 6.7323322e-07 
1.3347553e-06 -8.5877468e-07 5.8985790e-07 
1.9398453e-06 3.9312917e-07 4.9272705e-07 
-8.1649937e-08 -4.7975800e-07 6.6925082e-08 
-1.5990014e-06 3.0417317e-07 -8.2836344e-08 
-3.3223438e-07 1.7500373e-07 -1.4165351e-08 
4.0941080e-07 -2.1183247e-07 5.1346865e-07 
3.7676136e-07 -1.5392207e-07 7.9744621e-07 
1.9625828e-07 -3.2111931e-08 3.3304875e-07 
3.9280753e-08 -2.7772408e-08 -1.1272349e-07 
-6.0871301e-08 5.0558125e-08 -3.0711468e-07 
-8.3722533e-08 -6.9311479e-10 -2.5024249e-07 
0.0000000e+00 -5.0917362e-05 0.0000000e+00 
0.0000000e+00 -8.7878732e-05 0.0000000e+00 
0.0000000e+00 -6.7339788e-05 0.0000000e+00 
0.0000000e+00 -6.7902052e-05 0.0000000e+00 
0.0000000e+00 -1.0679384e-04 0.0000000e+00 
0.0000000e+00 -9.6295436e-05 0.0000000e+00 
0.0000000e+00 -1.8797105e-04 0.0000000e+00 
0.0000000e+00 -3.8074469e-04 0.0000000e+00 
0.0000000e+00 -4.3380089e-04 0.0000000e+00 
0.0000000e+00 -5.1608426e-04 0.0000000e+00 
0.0000000e+00 -4.7897929e-04 0.0000000e+00 
0.0000000e+00 -3.4710413e-04 0.0000000e+00 
0.0000000e+00 -1.6839946e-04 0.0000000e+00 
0.0000000e+00 -7.0588081e-05 0.0000000e+00 
0.0000000e+00 -3.7083020e-05 0.0000000e+00 
0.0000000e+00 -4.6983434e-05 0.0000000e+00 
0.0000000e+00 -5.8888225e-05 0.0000000e+00 
0.0000000e+00 -1.0201764e-04 0.0000000e+00 
0.0000000e+00 -1.6000433e-04 0.0000000e+00 
0.0000000e+00 -1.5708855e-04 0.0000000e+00 
0.0000000e+00 -1.4450986e-04 0.0000000e+00 
0.0000000e+00 -1.9970140e-04 0.0000000e+00 
0.0000000e+00 -1.5254994e-04 0.0000000e+00 
0.0000000e+00 -1.3344090e-04 0.0000000e+00 
0.0000000e+00 -1.3274960e-04 0.0000000e+00 
0.0000000e+00 -1.1520074e-04 0.0000000e+00 
0.0000000e+00 -1.4842606e-04 0.0000000e+00 
0.0000000e+00 -3.8818546e-04 0.0000000e+00 
0.0000000e+00 -4.8845826e-04 0.0000000e+00 
0.0000000e+00 -4.6988070e-04 0.0000000e+00 
0.0000000e+00 -4.5614727e-04 0.0000000e+00 
0.0000000e+00 -3.5251892e-04 0.0000000e+00 
0.0000000e+00 -1.8586087e-04 0.0000000e+00 
0.0000000e+00 -4.3383534e-05 0.0000000e+00 
0.0000000e+00 3.2767396e-06 0.0000000e+00 
0.0000000e+00 1.9680178e-05 0.0000000e+00 
0.0000000e+00 4.1425490e-05 0.0000000e+00 
0.0000000e+00 1.9436375e-05 0.0000000e+00 
0.0000000e+00 -1.7009092e-05 0.0000000e+00 
0.0000000e+00 -1.6656795e-05 0.0000000e+00 
0.0000000e+00 -5.0731262e-07 0.0000000e+00 
0.0000000e+00 4.5433117e-06 0.0000000e+00 
0.0000000e+00 2.0536463e-06 0.0000000e+00 
0.0000000e+00 4.8087594e-07 0.0000000e+00 
0.0000000e+00 -3.6094951e-07 0.0000000e+00 
0.0000000e+00 -2.3743574e-07 0.0000000e+00 
0.0000000e+00 -7.3609465e-07 0.0000000e+00 
0.0000000e+00 -3.7828579e-07 0.0000000e+00 
0.0000000e+00 5.3407792e-08 0.0000000e+00 
2.6671030e-06 -3.4887836e-07 -9.9474721e-07 
5.7380288e-07 6.2475933e-06 -2.9907014e-07 
7.1784298e-06 1.1247836e-05 3.1480413e-06 
2.7530768e-06 3.9548117e-06 -4.5867364e-06 
-6.1628342e-08 -1.1796546e-08 -1.5422636e-07 
6.5649203e-08 1.8583140e-08 -2.3069769e-07 
-2.8225665e-08 -1.5698809e-07 3.3061081e-08 
-3.5880053e-08 8.6656257e-08 1.2180391e-07 
6.4293431e-06 -5.6942913e-06 -1.8969497e-06 
8.4217663e-06 5.0994845e-07 -4.8714533e-06 
7.8918983e-06 -8.5885786e-06 -7.4515397e-06 
1.8859842e-05 -1.1905388e-05 -4.5341158e-06 
3.6389309e-05 -5.0645131e-06 -2.8043517e-06 
3.3040986e-05 -7.8822750e-06 -1.1124953e-06 
3.9385424e-05 -1.8870958e-05 -2.8480308e-06 
4.3459917e-05 -1.5120540e-05 -6.9818503e-07 
4.8389105e-05 -1.8625424e-05 2.7464276e-07 
4.3974153e-05 -1.5672689e-05 5.7905468e-06 
3.7484944e-05 -1.3833832e-05 1.5268157e-05 
2.2862225e-05 -2.7265919e-06 2.4775643e-05 
1.8924677e-05 -4.8323936e-06 2.1757245e-05 
7.9234642e-06 2.5290476e-06 -1.0012568e-06 
1.7260510e-06 4.5669503e-06 -9.4541138e-06 
-4.4780600e-06 2.4494382e-06 -2.0525222e-06 
-4.9299010e-06 -1.2659566e-05 -3.8683370e-06 
9.8092787e-06 -1.3571936e-05 -6.4928381e-06 
1.7829541e-05 -1.7659691e-05 -7.4421309e-06 
1.6555123e-05 3.9153360e-07 -7.6874967e-06 