# vtk DataFile Version 4.0
vtk output
ASCII
DATASET UNSTRUCTURED_GRID
POINTS 1919 float
0.0000000e+00 0.0000000e+00 0.0000000e+00 
0.0000000e+00 0.0000000e+00 5.0000000e+01 
5.0000000e+00 0.0000000e+00 0.0000000e+00 
5.0000000e+00 0.0000000e+00 5.0000000e+01 
5.0000000e+00 1.0000000e+00 0.0000000e+00 
5.0000000e+00 1.0000000e+00 5.0000000e+01 
0.0000000e+00 1.0000000e+00 0.0000000e+00 
0.0000000e+00 1.0000000e+00 5.0000000e+01 
5.0000000e+00 2.0000000e+00 0.0000000e+00 
5.0000000e+00 2.0000000e+00 5.0000000e+01 
3.0000000e+00 2.0000000e+00 0.0000000e+00 
3.0000000e+00 2.0000000e+00 5.0000000e+01 
0.0000000e+00 2.0000000e+00 0.0000000e+00 
0.0000000e+00 2.0000000e+00 5.0000000e+01 
1.5000000e+00 3.0000000e+00 0.0000000e+00 
1.5000000e+00 3.0000000e+00 5.0000000e+01 
7.5000000e-01 3.0000000e+00 0.0000000e+00 
7.5000000e-01 3.0000000e+00 5.0000000e+01 
0.0000000e+00 3.0000000e+00 0.0000000e+00 
0.0000000e+00 3.0000000e+00 5.0000000e+01 
7.5000000e-01 3.0000000e+00 5.0000000e-01 
7.5000000e-01 3.0000000e+00 1.0000000e+00 
7.5000000e-01 3.0000000e+00 1.5000000e+00 
7.5000000e-01 3.0000000e+00 2.0000000e+00 
7.5000000e-01 3.0000000e+00 2.5000000e+00 
7.5000000e-01 3.0000000e+00 3.0000000e+00 
7.5000000e-01 3.0000000e+00 3.5000000e+00 
7.5000000e-01 3.0000000e+00 4.0000000e+00 
7.5000000e-01 3.0000000e+00 4.5000000e+00 
7.5000000e-01 3.0000000e+00 5.0000000e+00 
7.5000000e-01 3.0000000e+00 5.5000000e+00 
7.5000000e-01 3.0000000e+00 6.0000000e+00 
7.5000000e-01 3.0000000e+00 6.5000000e+00 
7.5000000e-01 3.0000000e+00 7.0000000e+00 
7.5000000e-01 3.0000000e+00 7.5000000e+00 
7.5000000e-01 3.0000000e+00 8.0000000e+00 
7.5000000e-01 3.0000000e+00 8.5000000e+00 
7.5000000e-01 3.0000000e+00 9.0000000e+00 
7.5000000e-01 3.0000000e+00 9.5000000e+00 
7.5000000e-01 3.0000000e+00 1.0000000e+01 
7.5000000e-01 3.0000000e+00 1.0500000e+01 
7.5000000e-01 3.0000000e+00 1.1000000e+01 
7.5000000e-01 3.0000000e+00 1.1500000e+01 
7.5000000e-01 3.0000000e+00 1.2000000e+01 
7.5000000e-01 3.0000000e+00 1.2500000e+01 
7.5000000e-01 3.0000000e+00 1.3000000e+01 
7.5000000e-01 3.0000000e+00 1.3500000e+01 
7.5000000e-01 3.0000000e+00 1.4000000e+01 
7.5000000e-01 3.0000000e+00 1.4500000e+01 
7.5000000e-01 3.0000000e+00 1.5000000e+01 
7.5000000e-01 3.0000000e+00 1.5500000e+01 
7.5000000e-01 3.0000000e+00 1.6000000e+01 
7.5000000e-01 3.0000000e+00 1.6500000e+01 
7.5000000e-01 3.0000000e+00 1.7000000e+01 
7.5000000e-01 3.0000000e+00 1.7500000e+01 
7.5000000e-01 3.0000000e+00 1.8000000e+01 
7.5000000e-01 3.0000000e+00 1.8500000e+01 
7.5000000e-01 3.0000000e+00 1.9000000e+01 
7.5000000e-01 3.0000000e+00 1.9500000e+01 
7.5000000e-01 3.0000000e+00 2.0000000e+01 
7.5000000e-01 3.0000000e+00 2.0500000e+01 
7.5000000e-01 3.0000000e+00 2.1000000e+01 
7.5000000e-01 3.0000000e+00 2.1500000e+01 
7.5000000e-01 3.0000000e+00 2.2000000e+01 
7.5000000e-01 3.0000000e+00 2.2500000e+01 
7.5000000e-01 3.0000000e+00 2.3000000e+01 
7.5000000e-01 3.0000000e+00 2.3500000e+01 
7.5000000e-01 3.0000000e+00 2.4000000e+01 
7.5000000e-01 3.0000000e+00 2.4500000e+01 
7.5000000e-01 3.0000000e+00 2.5000000e+01 
7.5000000e-01 3.0000000e+00 2.5500000e+01 
7.5000000e-01 3.0000000e+00 2.6000000e+01 
7.5000000e-01 3.0000000e+00 2.6500000e+01 
7.5000000e-01 3.0000000e+00 2.7000000e+01 
7.5000000e-01 3.0000000e+00 2.7500000e+01 
7.5000000e-01 3.0000000e+00 2.8000000e+01 
7.5000000e-01 3.0000000e+00 2.8500000e+01 
7.5000000e-01 3.0000000e+00 2.9000000e+01 
7.5000000e-01 3.0000000e+00 2.9500000e+01 
7.5000000e-01 3.0000000e+00 3.0000000e+01 
7.5000000e-01 3.0000000e+00 3.0500000e+01 
7.5000000e-01 3.0000000e+00 3.1000000e+01 
7.5000000e-01 3.0000000e+00 3.1500000e+01 
7.5000000e-01 3.0000000e+00 3.2000000e+01 
7.5000000e-01 3.0000000e+00 3.2500000e+01 
7.5000000e-01 3.0000000e+00 3.3000000e+01 
7.5000000e-01 3.0000000e+00 3.3500000e+01 
7.5000000e-01 3.0000000e+00 3.4000000e+01 
7.5000000e-01 3.0000000e+00 3.4500000e+01 
7.5000000e-01 3.0000000e+00 3.5000000e+01 
7.5000000e-01 3.0000000e+00 3.5500000e+01 
7.5000000e-01 3.0000000e+00 3.6000000e+01 
7.5000000e-01 3.0000000e+00 3.6500000e+01 
7.5000000e-01 3.0000000e+00 3.7000000e+01 
7.5000000e-01 3.0000000e+00 3.7500000e+01 
7.5000000e-01 3.0000000e+00 3.8000000e+01 
7.5000000e-01 3.0000000e+00 3.8500000e+01 
7.5000000e-01 3.0000000e+00 3.9000000e+01 
7.5000000e-01 3.0000000e+00 3.9500000e+01 
7.5000000e-01 3.0000000e+00 4.0000000e+01 
7.5000000e-01 3.0000000e+00 4.0500000e+01 
7.5000000e-01 3.0000000e+00 4.1000000e+01 
7.5000000e-01 3.0000000e+00 4.1500000e+01 
7.5000000e-01 3.0000000e+00 4.2000000e+01 
7.5000000e-01 3.0000000e+00 4.2500000e+01 
7.5000000e-01 3.0000000e+00 4.3000000e+01 
7.5000000e-01 3.0000000e+00 4.3500000e+01 
7.5000000e-01 3.0000000e+00 4.4000000e+01 
7.5000000e-01 3.0000000e+00 4.4500000e+01 
7.5000000e-01 3.0000000e+00 4.5000000e+01 
7.5000000e-01 3.0000000e+00 4.5500000e+01 
7.5000000e-01 3.0000000e+00 4.6000000e+01 
7.5000000e-01 3.0000000e+00 4.6500000e+01 
7.5000000e-01 3.0000000e+00 4.7000000e+01 
7.5000000e-01 3.0000000e+00 4.7500000e+01 
7.5000000e-01 3.0000000e+00 4.8000000e+01 
7.5000000e-01 3.0000000e+00 4.8500000e+01 
7.5000000e-01 3.0000000e+00 4.9000000e+01 
7.5000000e-01 3.0000000e+00 4.9500000e+01 
7.5000000e-01 3.0250001e+00 0.0000000e+00 
7.5000000e-01 3.0250001e+00 5.0000000e-01 
7.5000000e-01 3.0250001e+00 1.0000000e+00 
7.5000000e-01 3.0250001e+00 1.5000000e+00 
7.5000000e-01 3.0250001e+00 2.0000000e+00 
7.5000000e-01 3.0250001e+00 2.5000000e+00 
7.5000000e-01 3.0250001e+00 3.0000000e+00 
7.5000000e-01 3.0250001e+00 3.5000000e+00 
7.5000000e-01 3.0250001e+00 4.0000000e+00 
7.5000000e-01 3.0250001e+00 4.5000000e+00 
7.5000000e-01 3.0250001e+00 5.0000000e+00 
7.5000000e-01 3.0250001e+00 5.5000000e+00 
7.5000000e-01 3.0250001e+00 6.0000000e+00 
7.5000000e-01 3.0250001e+00 6.5000000e+00 
7.5000000e-01 3.0250001e+00 7.0000000e+00 
7.5000000e-01 3.0250001e+00 7.5000000e+00 
7.5000000e-01 3.0250001e+00 8.0000000e+00 
7.5000000e-01 3.0250001e+00 8.5000000e+00 
7.5000000e-01 3.0250001e+00 9.0000000e+00 
7.5000000e-01 3.0250001e+00 9.5000000e+00 
7.5000000e-01 3.0250001e+00 1.0000000e+01 
7.5000000e-01 3.0250001e+00 1.0500000e+01 
7.5000000e-01 3.0250001e+00 1.1000000e+01 
7.5000000e-01 3.0250001e+00 1.1500000e+01 
7.5000000e-01 3.0250001e+00 1.2000000e+01 
7.5000000e-01 3.0250001e+00 1.2500000e+01 
7.5000000e-01 3.0250001e+00 1.3000000e+01 
7.5000000e-01 3.0250001e+00 1.3500000e+01 
7.5000000e-01 3.0250001e+00 1.4000000e+01 
7.5000000e-01 3.0250001e+00 1.4500000e+01 
7.5000000e-01 3.0250001e+00 1.5000000e+01 
7.5000000e-01 3.0250001e+00 1.5500000e+01 
7.5000000e-01 3.0250001e+00 1.6000000e+01 
7.5000000e-01 3.0250001e+00 1.6500000e+01 
7.5000000e-01 3.0250001e+00 1.7000000e+01 
7.5000000e-01 3.0250001e+00 1.7500000e+01 
7.5000000e-01 3.0250001e+00 1.8000000e+01 
7.5000000e-01 3.0250001e+00 1.8500000e+01 
7.5000000e-01 3.0250001e+00 1.9000000e+01 
7.5000000e-01 3.0250001e+00 1.9500000e+01 
7.5000000e-01 3.0250001e+00 2.0000000e+01 
7.5000000e-01 3.0250001e+00 2.0500000e+01 
7.5000000e-01 3.0250001e+00 2.1000000e+01 
7.5000000e-01 3.0250001e+00 2.1500000e+01 
7.5000000e-01 3.0250001e+00 2.2000000e+01 
7.5000000e-01 3.0250001e+00 2.2500000e+01 
7.5000000e-01 3.0250001e+00 2.3000000e+01 
7.5000000e-01 3.0250001e+00 2.3500000e+01 
7.5000000e-01 3.0250001e+00 2.4000000e+01 
7.5000000e-01 3.0250001e+00 2.4500000e+01 
7.5000000e-01 3.0250001e+00 2.5000000e+01 
7.5000000e-01 3.0250001e+00 2.5500000e+01 
7.5000000e-01 3.0250001e+00 2.6000000e+01 
7.5000000e-01 3.0250001e+00 2.6500000e+01 
7.5000000e-01 3.0250001e+00 2.7000000e+01 
7.5000000e-01 3.0250001e+00 2.7500000e+01 
7.5000000e-01 3.0250001e+00 2.8000000e+01 
7.5000000e-01 3.0250001e+00 2.8500000e+01 
7.5000000e-01 3.0250001e+00 2.9000000e+01 
7.5000000e-01 3.0250001e+00 2.9500000e+01 
7.5000000e-01 3.0250001e+00 3.0000000e+01 
7.5000000e-01 3.0250001e+00 3.0500000e+01 
7.5000000e-01 3.0250001e+00 3.1000000e+01 
7.5000000e-01 3.0250001e+00 3.1500000e+01 
7.5000000e-01 3.0250001e+00 3.2000000e+01 
7.5000000e-01 3.0250001e+00 3.2500000e+01 
7.5000000e-01 3.0250001e+00 3.3000000e+01 
7.5000000e-01 3.0250001e+00 3.3500000e+01 
7.5000000e-01 3.0250001e+00 3.4000000e+01 
7.5000000e-01 3.0250001e+00 3.4500000e+01 
7.5000000e-01 3.0250001e+00 3.5000000e+01 
7.5000000e-01 3.0250001e+00 3.5500000e+01 
7.5000000e-01 3.0250001e+00 3.6000000e+01 
7.5000000e-01 3.0250001e+00 3.6500000e+01 
7.5000000e-01 3.0250001e+00 3.7000000e+01 
7.5000000e-01 3.0250001e+00 3.7500000e+01 
7.5000000e-01 3.0250001e+00 3.8000000e+01 
7.5000000e-01 3.0250001e+00 3.8500000e+01 
7.5000000e-01 3.0250001e+00 3.9000000e+01 
7.5000000e-01 3.0250001e+00 3.9500000e+01 
7.5000000e-01 3.0250001e+00 4.0000000e+01 
7.5000000e-01 3.0250001e+00 4.0500000e+01 
7.5000000e-01 3.0250001e+00 4.1000000e+01 
7.5000000e-01 3.0250001e+00 4.1500000e+01 
7.5000000e-01 3.0250001e+00 4.2000000e+01 
7.5000000e-01 3.0250001e+00 4.2500000e+01 
7.5000000e-01 3.0250001e+00 4.3000000e+01 
7.5000000e-01 3.0250001e+00 4.3500000e+01 
7.5000000e-01 3.0250001e+00 4.4000000e+01 
7.5000000e-01 3.0250001e+00 4.4500000e+01 
7.5000000e-01 3.0250001e+00 4.5000000e+01 
7.5000000e-01 3.0250001e+00 4.5500000e+01 
7.5000000e-01 3.0250001e+00 4.6000000e+01 
7.5000000e-01 3.0250001e+00 4.6500000e+01 
7.5000000e-01 3.0250001e+00 4.7000000e+01 
7.5000000e-01 3.0250001e+00 4.7500000e+01 
7.5000000e-01 3.0250001e+00 4.8000000e+01 
7.5000000e-01 3.0250001e+00 4.8500000e+01 
7.5000000e-01 3.0250001e+00 4.9000000e+01 
7.5000000e-01 3.0250001e+00 4.9500000e+01 
7.5000000e-01 3.0250001e+00 5.0000000e+01 
3.0000000e+00 2.0000000e+00 3.6000000e+01 
8.0487806e-01 3.0000000e+00 3.6000000e+01 
0.0000000e+00 0.0000000e+00 1.0000000e+00 
0.0000000e+00 0.0000000e+00 2.0000000e+00 
0.0000000e+00 0.0000000e+00 3.0000000e+00 
0.0000000e+00 0.0000000e+00 4.0000000e+00 
0.0000000e+00 0.0000000e+00 5.0000000e+00 
0.0000000e+00 0.0000000e+00 6.0000000e+00 
0.0000000e+00 0.0000000e+00 7.0000000e+00 
0.0000000e+00 0.0000000e+00 8.0000000e+00 
[...]
POINT_DATA 1919
FIELD FieldData 3
DISPLACEMENT 3 1919  float
0.0000000e+00 0.0000000e+00 0.0000000e+00 
0.0000000e+00 0.0000000e+00 0.0000000e+00 
0.0000000e+00 0.0000000e+00 0.0000000e+00 
0.0000000e+00 0.0000000e+00 0.0000000e+00 
-7.7680835e-07 -7.5960361e-07 -1.0856185e-06 
2.8841418e-08 7.8608520e-07 -7.9427349e-07 
0.0000000e+00 1.7197164e-05 0.0000000e+00 
0.0000000e+00 -3.0144981e-06 0.0000000e+00 
-1.7464380e-06 5.0189547e-06 2.0676259e-06 
-8.5902877e-07 1.5615253e-06 -2.5464451e-06 
-3.3506018e-07 6.1107494e-06 5.3079089e-06 
-1.7049579e-06 4.4272011e-07 -1.2932081e-06 
0.0000000e+00 1.8547472e-06 0.0000000e+00 
0.0000000e+00 -6.1338023e-06 0.0000000e+00 
-2.4022087e-05 -1.3964794e-05 4.2719701e-05 
-5.0901726e-08 -5.8001015e-06 -1.3234718e-05 
1.8267262e-07 -5.1214683e-05 1.5595610e-05 
5.1452766e-06 -2.5328663e-05 -1.5165449e-06 
0.0000000e+00 -1.3245141e-05 0.0000000e+00 
0.0000000e+00 -1.2560914e-05 0.0000000e+00 
-1.2337180e-05 -6.5302585e-05 4.1125862e-05 
-1.6162838e-05 -9.7123702e-05 4.8560945e-05 
-2.3870063e-05 -1.2491706e-04 3.0261195e-05 
-3.7838254e-05 -1.3537651e-04 8.7757990e-06 
-2.9623481e-05 -1.3248586e-04 -3.4958067e-08 
-2.1148602e-05 -1.3759619e-04 -2.0971620e-05 
-3.0385081e-05 -1.6471162e-04 -2.2574162e-05 
-2.7990131e-05 -2.0092528e-04 -2.0745149e-05 
-4.6500380e-05 -2.1739154e-04 -2.0360596e-05 
-5.0122337e-05 -1.9956777e-04 -2.4694917e-05 
-4.4022574e-05 -1.5611600e-04 -3.0096646e-05 
-3.4892728e-05 -1.1118360e-04 -4.2841308e-05 
-1.5548769e-05 -8.4502062e-05 -3.9805222e-05 
-1.1259813e-05 -7.5006290e-05 -3.3862572e-05 
-3.1477728e-05 -5.4268290e-05 -4.4932156e-05 
-2.1025542e-05 9.4238458e-06 -2.9748224e-05 
2.4582373e-06 1.1761171e-04 -2.3107490e-05 
-3.9009569e-06 2.1886395e-04 -8.7174722e-06 
1.1261744e-05 2.3061704e-04 2.9683888e-05 
-6.5838333e-07 6.3419960e-05 5.4350239e-05 
-1.3189178e-05 -3.3119266e-04 1.2903621e-04 
-4.2588090e-05 -9.5766643e-04 1.3084980e-04 
-8.8759050e-05 -1.8304923e-03 2.7678043e-04 
-1.9260212e-04 -2.9085963e-03 1.7779670e-04 
-2.3491851e-04 -4.0480657e-03 3.1494256e-04 
-2.5025016e-04 -4.7967527e-03 2.1263880e-04 
-2.7879194e-04 -4.8856353e-03 1.6737521e-04 
-2.9102952e-04 -4.7809728e-03 9.9538527e-05 
-2.8685501e-04 -4.8714429e-03 8.4431958e-05 
-2.9845044e-04 -5.0387452e-03 -5.7223700e-05 
-2.9035305e-04 -4.8340843e-03 -1.5226731e-04 
-2.5533588e-04 -3.8349763e-03 -1.2736878e-04 
-1.9653045e-04 -2.5723188e-03 -2.4569765e-04 
-1.1755850e-04 -1.4635057e-03 -1.3583699e-04 
-6.1484912e-05 -6.7566743e-04 -1.8138949e-04 
-3.5282148e-05 -1.8956314e-04 -9.2940514e-05 
-1.6546601e-05 7.3101306e-05 -7.4154945e-05 
8.8460865e-06 1.9138234e-04 -2.7977067e-05 
3.4195222e-05 2.1974655e-04 -1.1401408e-05 
4.0634346e-05 1.9285567e-04 3.2605724e-06 
1.6095184e-05 1.3770783e-04 2.2390621e-05 
-7.8918856e-07 7.1060429e-05 2.4062500e-05 
-3.1986223e-05 4.0937284e-06 2.5832700e-05 
-4.2637290e-05 -5.9479669e-05 8.3438672e-06 
-4.7430320e-05 -1.2016505e-04 6.5627778e-06 
-4.1360152e-05 -1.7816846e-04 -1.7434870e-06 
-4.2813572e-05 -2.3337814e-04 1.2019695e-05 
-2.8985560e-05 -2.8685443e-04 1.0346921e-05 
-2.4960535e-05 -3.2669670e-04 -1.3004520e-06 
-2.6470034e-05 -3.3596484e-04 -2.2724480e-05 
-2.8811530e-05 -3.0552002e-04 -4.4667599e-05 
-2.9788573e-05 -2.4348022e-04 -5.9245984e-05 
-3.6205314e-05 -1.7321929e-04 -6.9038739e-05 
-4.2574011e-05 -1.2056676e-04 -6.9845948e-05 
-5.2838986e-05 -8.3397543e-05 -8.5571577e-05 
-3.4505618e-05 -4.2270753e-05 -7.4668249e-05 
-2.0014430e-05 2.3162609e-05 -8.5415086e-05 
-7.4572172e-06 1.0526749e-04 -7.5671545e-05 
7.5352095e-06 1.3902194e-04 -4.1773674e-05 
-1.0495896e-05 4.6397486e-06 -9.6458034e-06 
-2.9254084e-05 -4.0769170e-04 9.3235722e-05 
-7.2539915e-05 -1.1432964e-03 1.0527906e-04 
-1.2681585e-04 -2.1730938e-03 2.3556530e-04 
-2.2493611e-04 -3.3363451e-03 1.1785832e-04 
-2.8573893e-04 -4.3825181e-03 2.3847100e-04 
-3.3040330e-04 -4.8694876e-03 1.0969867e-04 
-3.1725035e-04 -4.8717326e-03 3.9714843e-05 
-2.9785230e-04 -4.8426674e-03 1.4256713e-05 
-2.7801975e-04 -5.0354702e-03 -4.9504401e-05 
6.7429319e-05 -5.1573236e-03 3.7933107e-05 
-1.5912612e-04 -4.6573393e-03 3.3626435e-05 
-1.3413346e-04 -3.5291568e-03 -5.1616962e-06 
-1.1735322e-04 -2.2969411e-03 -1.6396385e-04 
-5.5316028e-05 -1.2706998e-03 -7.6400429e-05 
-5.9223490e-05 -5.4814573e-04 -1.4812182e-04 
-3.9330840e-05 -9.1185357e-05 -8.9814821e-05 
-2.9180530e-05 1.5442395e-04 -1.0591197e-04 
-1.5422649e-05 2.5166760e-04 -8.6474203e-05 
1.2172217e-06 2.6223628e-04 -8.0542544e-05 
5.5541122e-06 2.3174826e-04 -7.0560061e-05 
1.6503905e-05 1.8617482e-04 -4.7528833e-05 
1.6785758e-05 1.3379013e-04 -3.7727335e-05 
5.3329481e-06 7.6383229e-05 -2.7485346e-05 
8.5900331e-10 2.0250647e-05 -2.2995491e-05 
7.3722604e-06 -2.5698386e-05 -3.4722942e-07 
5.7372790e-06 -5.5752909e-05 1.3790703e-05 
1.4214999e-06 -6.9858288e-05 2.8617700e-05 
2.7350709e-06 -7.0461560e-05 2.9083609e-05 
-3.0274302e-06 -5.9393340e-05 3.0584010e-06 
-1.2903923e-06 -3.7860176e-05 -3.5136284e-06 
7.5003290e-06 -9.5526184e-06 -7.8499243e-06 
7.0489596e-06 1.7673090e-05 -1.5026100e-06 
3.3136537e-06 3.5598667e-05 5.2735818e-06 
-6.1192634e-07 4.0940904e-05 1.1074761e-05 
-6.8764057e-06 3.4421799e-05 1.0493183e-05 
-7.7198774e-06 2.0565656e-05 6.1792493e-06 
-5.9140366e-06 4.1012386e-06 5.2470966e-07 
-3.8558151e-06 -1.1002750e-05 -6.6355169e-06 
6.7937265e-07 -2.1520302e-05 -8.9617188e-06 
0.0000000e+00 -5.1764182e-05 0.0000000e+00 
0.0000000e+00 -6.5733271e-05 0.0000000e+00 
0.0000000e+00 -9.6829608e-05 0.0000000e+00 
0.0000000e+00 -1.2424676e-04 0.0000000e+00 
0.0000000e+00 -1.3463944e-04 0.0000000e+00 
0.0000000e+00 -1.3270871e-04 0.0000000e+00 
0.0000000e+00 -1.3871332e-04 0.0000000e+00 
0.0000000e+00 -1.6555299e-04 0.0000000e+00 
0.0000000e+00 -2.0051473e-04 0.0000000e+00 
0.0000000e+00 -2.1650319e-04 0.0000000e+00 
0.0000000e+00 -1.9883872e-04 0.0000000e+00 
0.0000000e+00 -1.5606306e-04 0.0000000e+00 
0.0000000e+00 -1.1197629e-04 0.0000000e+00 
0.0000000e+00 -8.5913787e-05 0.0000000e+00 
0.0000000e+00 -7.5495933e-05 0.0000000e+00 
0.0000000e+00 -5.3261603e-05 0.0000000e+00 
0.0000000e+00 1.1744101e-05 0.0000000e+00 
0.0000000e+00 1.1976252e-04 0.0000000e+00 
0.0000000e+00 2.2025386e-04 0.0000000e+00 
0.0000000e+00 2.2906704e-04 0.0000000e+00 
0.0000000e+00 6.0842991e-05 0.0000000e+00 
0.0000000e+00 -3.3193608e-04 0.0000000e+00 
0.0000000e+00 -9.6109440e-04 0.0000000e+00 
0.0000000e+00 -1.8358146e-03 0.0000000e+00 
0.0000000e+00 -2.9271168e-03 0.0000000e+00 
0.0000000e+00 -4.0687323e-03 0.0000000e+00 
0.0000000e+00 -4.8278673e-03 0.0000000e+00 
0.0000000e+00 -4.9077417e-03 0.0000000e+00 
0.0000000e+00 -4.8070643e-03 0.0000000e+00 
0.0000000e+00 -4.8920796e-03 0.0000000e+00 
0.0000000e+00 -5.0674570e-03 0.0000000e+00 
0.0000000e+00 -4.8573059e-03 0.0000000e+00 
0.0000000e+00 -3.8581309e-03 0.0000000e+00 
0.0000000e+00 -2.5850735e-03 0.0000000e+00 
0.0000000e+00 -1.4718489e-03 0.0000000e+00 
0.0000000e+00 -6.7796529e-04 0.0000000e+00 
0.0000000e+00 -1.8939699e-04 0.0000000e+00 
0.0000000e+00 7.4129566e-05 0.0000000e+00 
0.0000000e+00 1.9235162e-04 0.0000000e+00 
0.0000000e+00 2.2050657e-04 0.0000000e+00 
0.0000000e+00 1.9378746e-04 0.0000000e+00 
0.0000000e+00 1.3806237e-04 0.0000000e+00 
0.0000000e+00 7.1194831e-05 0.0000000e+00 
0.0000000e+00 4.0581394e-06 0.0000000e+00 
0.0000000e+00 -5.9549704e-05 0.0000000e+00 
0.0000000e+00 -1.1991987e-04 0.0000000e+00 
0.0000000e+00 -1.7779613e-04 0.0000000e+00 
0.0000000e+00 -2.3392004e-04 0.0000000e+00 
0.0000000e+00 -2.8731755e-04 0.0000000e+00 
0.0000000e+00 -3.2678785e-04 0.0000000e+00 
0.0000000e+00 -3.3548431e-04 0.0000000e+00 
0.0000000e+00 -3.0459807e-04 0.0000000e+00 
0.0000000e+00 -2.4295154e-04 0.0000000e+00 
0.0000000e+00 -1.7435390e-04 0.0000000e+00 
0.0000000e+00 -1.2163441e-04 0.0000000e+00 
0.0000000e+00 -8.3930667e-05 0.0000000e+00 
0.0000000e+00 -4.1309671e-05 0.0000000e+00 
0.0000000e+00 2.5909978e-05 0.0000000e+00 
0.0000000e+00 1.0843063e-04 0.0000000e+00 
0.0000000e+00 1.3966320e-04 0.0000000e+00 
0.0000000e+00 2.2978311e-06 0.0000000e+00 
0.0000000e+00 -4.1223940e-04 0.0000000e+00 
0.0000000e+00 -1.1513957e-03 0.0000000e+00 
0.0000000e+00 -2.1792727e-03 0.0000000e+00 
0.0000000e+00 -3.3549981e-03 0.0000000e+00 
0.0000000e+00 -4.4033350e-03 0.0000000e+00 
0.0000000e+00 -4.9046404e-03 0.0000000e+00 
0.0000000e+00 -4.8948503e-03 0.0000000e+00 
0.0000000e+00 -4.8712939e-03 0.0000000e+00 
0.0000000e+00 -5.0581568e-03 0.0000000e+00 
0.0000000e+00 -5.1760138e-03 0.0000000e+00 
0.0000000e+00 -4.6847970e-03 0.0000000e+00 
0.0000000e+00 -3.5512375e-03 0.0000000e+00 
0.0000000e+00 -2.3068704e-03 0.0000000e+00 
0.0000000e+00 -1.2767911e-03 0.0000000e+00 
0.0000000e+00 -5.4890616e-04 0.0000000e+00 
0.0000000e+00 -9.1505150e-05 0.0000000e+00 
0.0000000e+00 1.5472417e-04 0.0000000e+00 
0.0000000e+00 2.5286304e-04 0.0000000e+00 
0.0000000e+00 2.6339825e-04 0.0000000e+00 
0.0000000e+00 2.3252613e-04 0.0000000e+00 
0.0000000e+00 1.8636156e-04 0.0000000e+00 
0.0000000e+00 1.3357330e-04 0.0000000e+00 
0.0000000e+00 7.6386175e-05 0.0000000e+00 
0.0000000e+00 2.0522333e-05 0.0000000e+00 
0.0000000e+00 -2.5456346e-05 0.0000000e+00 
0.0000000e+00 -5.5747067e-05 0.0000000e+00 
0.0000000e+00 -6.9942427e-05 0.0000000e+00 
0.0000000e+00 -7.0456765e-05 0.0000000e+00 
0.0000000e+00 -5.9210688e-05 0.0000000e+00 
0.0000000e+00 -3.7655369e-05 0.0000000e+00 
0.0000000e+00 -9.6006106e-06 0.0000000e+00 
0.0000000e+00 1.7363966e-05 0.0000000e+00 
0.0000000e+00 3.5398400e-05 0.0000000e+00 
0.0000000e+00 4.0808514e-05 0.0000000e+00 
0.0000000e+00 3.4458713e-05 0.0000000e+00 
0.0000000e+00 2.0623183e-05 0.0000000e+00 
0.0000000e+00 4.1254407e-06 0.0000000e+00 
0.0000000e+00 -1.0967898e-05 0.0000000e+00 
0.0000000e+00 -2.1477981e-05 0.0000000e+00 
0.0000000e+00 -2.5273102e-05 0.0000000e+00 
5.0895065e-05 -7.4112053e-05 4.4937198e-05 
-1.4846439e-04 -3.1914280e-03 -4.6302657e-06 
0.0000000e+00 0.0000000e+00 0.0000000e+00 
0.0000000e+00 0.0000000e+00 0.0000000e+00 
0.0000000e+00 0.0000000e+00 0.0000000e+00 
0.0000000e+00 0.0000000e+00 0.0000000e+00 
0.0000000e+00 0.0000000e+00 0.0000000e+00 
0.0000000e+00 0.0000000e+00 0.0000000e+00 
0.0000000e+00 0.0000000e+00 0.0000000e+00 
0.0000000e+00 0.0000000e+00 0.0000000e+00 
0.0000000e+00 0.0000000e+00 0.0000000e+00 
0.0000000e+00 0.0000000e+00 0.0000000e+00 
0.0000000e+00 0.0000000e+00 0.0000000e+00 
0.0000000e+00 0.0000000e+00 0.0000000e+00 
0.0000000e+00 0.0000000e+00 0.0000000e+00 
0.0000000e+00 0.0000000e+00 0.0000000e+00 
0.0000000e+00 0.0000000e+00 0.0000000e+00 
0.0000000e+00 0.0000000e+00 0.0000000e+00 
0.0000000e+00 0.0000000e+00 0.0000000e+00 
0.0000000e+00 0.0000000e+00 0.0000000e+00 
0.0000000e+00 0.0000000e+00 0.0000000e+00 
0.0000000e+00 0.0000000e+00 0.0000000e+00 
0.0000000e+00 0.0000000e+00 0.0000000e+00 
0.0000000e+00 0.0000000e+00 0.0000000e+00 
0.0000000e+00 0.0000000e+00 0.0000000e+00 
0.0000000e+00 0.0000000e+00 0.0000000e+00 
0.0000000e+00 0.0000000e+00 0.0000000e+00 
0.0000000e+00 0.0000000e+00 0.0000000e+00 
0.0000000e+00 0.0000000e+00 0.0000000e+00 
0.0000000e+00 0.0000000e+00 0.0000000e+00 
0.0000000e+00 0.0000000e+00 0.0000000e+00 
0.0000000e+00 0.0000000e+00 0.0000000e+00 
0.0000000e+00 0.0000000e+00 0.0000000e+00 
0.0000000e+00 0.0000000e+00 0.0000000e+00 
0.0000000e+00 0.0000000e+00 0.0000000e+00 
0.0000000e+00 0.0000000e+00 0.0000000e+00 
0.0000000e+00 0.0000000e+00 0.0000000e+00 
0.0000000e+00 0.0000000e+00 0.0000000e+00 
0.0000000e+00 0.0000000e+00 0.0000000e+00 
0.0000000e+00 0.0000000e+00 0.0000000e+00 
0.0000000e+00 0.0000000e+00 0.0000000e+00 
0.0000000e+00 0.0000000e+00 0.0000000e+00 
0.0000000e+00 0.0000000e+00 0.0000000e+00 
0.0000000e+00 0.0000000e+00 0.0000000e+00 
0.0000000e+00 0.0000000e+00 0.0000000e+00 
0.0000000e+00 0.0000000e+00 0.0000000e+00 
0.0000000e+00 0.0000000e+00 0.0000000e+00 
0.0000000e+00 0.0000000e+00 0.0000000e+00 
0.0000000e+00 0.0000000e+00 0.0000000e+00 
0.0000000e+00 0.0000000e+00 0.0000000e+00 
0.0000000e+00 0.0000000e+00 0.0000000e+00 
0.0000000e+00 0.0000000e+00 0.0000000e+00 
0.0000000e+00 0.0000000e+00 0.0000000e+00 
0.0000000e+00 0.0000000e+00 0.0000000e+00 
0.0000000e+00 0.0000000e+00 0.0000000e+00 
0.0000000e+00 0.0000000e+00 0.0000000e+00 
0.0000000e+00 0.0000000e+00 0.0000000e+00 
0.0000000e+00 0.0000000e+00 0.0000000e+00 
0.0000000e+00 0.0000000e+00 0.0000000e+00 
0.0000000e+00 0.0000000e+00 0.0000000e+00 
0.0000000e+00 0.0000000e+00 0.0000000e+00 
0.0000000e+00 0.0000000e+00 0.0000000e+00 
0.0000000e+00 0.0000000e+00 0.0000000e+00 
0.0000000e+00 0.0000000e+00 0.0000000e+00 
0.0000000e+00 0.0000000e+00 0.0000000e+00 
0.0000000e+00 0.0000000e+00 0.0000000e+00 
0.0000000e+00 0.0000000e+00 0.0000000e+00 
0.0000000e+00 0.0000000e+00 0.0000000e+00 
0.0000000e+00 0.0000000e+00 0.0000000e+00 
0.0000000e+00 0.0000000e+00 0.0000000e+00 
0.0000000e+00 0.0000000e+00 0.0000000e+00 
0.0000000e+00 0.0000000e+00 0.0000000e+00 
0.0000000e+00 0.0000000e+00 0.0000000e+00 
0.0000000e+00 0.0000000e+00 0.0000000e+00 
0.0000000e+00 0.0000000e+00 0.0000000e+00 
0.0000000e+00 0.0000000e+00 0.0000000e+00 
0.0000000e+00 0.0000000e+00 0.0000000e+00 
0.0000000e+00 0.0000000e+00 0.0000000e+00 
0.0000000e+00 0.0000000e+00 0.0000000e+00 
0.0000000e+00 0.0000000e+00 0.0000000e+00 
0.0000000e+00 0.0000000e+00 0.0000000e+00 
0.0000000e+00 0.0000000e+00 0.0000000e+00 
0.0000000e+00 0.0000000e+00 0.0000000e+00 
0.0000000e+00 0.0000000e+00 0.0000000e+00 
0.0000000e+00 0.0000000e+00 0.0000000e+00 
0.0000000e+00 0.0000000e+00 0.0000000e+00 
0.0000000e+00 0.0000000e+00 0.0000000e+00 
0.0000000e+00 0.0000000e+00 0.0000000e+00 
0.0000000e+00 0.0000000e+00 0.0000000e+00 
0.0000000e+00 0.0000000e+00 0.0000000e+00 
0.0000000e+00 0.0000000e+00 0.0000000e+00 
0.0000000e+00 0.0000000e+00 0.0000000e+00 
0.0000000e+00 0.0000000e+00 0.0000000e+00 
0.0000000e+00 0.0000000e+00 0.0000000e+00 
0.0000000e+00 0.0000000e+00 0.0000000e+00 
0.0000000e+00 0.0000000e+00 0.0000000e+00 
0.0000000e+00 0.0000000e+00 0.0000000e+00 
0.0000000e+00 0.0000000e+00 0.0000000e+00 
0.0000000e+00 0.0000000e+00 0.0000000e+00 
0.0000000e+00 0.0000000e+00 0.0000000e+00 
0.0000000e+00 0.0000000e+00 0.0000000e+00 
0.0000000e+00 0.0000000e+00 0.0000000e+00 
0.0000000e+00 0.0000000e+00 0.0000000e+00 
0.0000000e+00 0.0000000e+00 0.0000000e+00 
0.0000000e+00 0.0000000e+00 0.0000000e+00 
0.0000000e+00 0.0000000e+00 0.0000000e+00 
0.0000000e+00 0.0000000e+00 0.0000000e+00 
0.0000000e+00 0.0000000e+00 0.0000000e+00 
8.3259181e-07 2.5240224e-06 2.6560297e-06 
-9.4527714e-08 4.0099857e-07 2.5353243e-06 
2.5407594e-06 -2.2639485e-06 -1.2020710e-06 
6.9099092e-06 -1.2074590e-06 1.7736864e-06 
7.9057418e-07 7.1126524e-06 -1.4153101e-06 
-7.4765796e-07 -1.4391900e-06 -3.6064334e-06 
-6.2529793e-06 1.1266742e-06 -3.7310115e-06 
-2.9728956e-06 7.5332287e-06 -7.4394948e-06 
3.9886372e-06 -5.8846098e-07 -5.0612448e-06 
6.8357945e-06 -8.3357590e-06 -1.1014240e-05 
2.6794827e-05 -6.6773455e-06 -1.3589313e-05 
4.2664902e-05 -1.1151952e-05 -9.4948527e-06 
5.2729454e-05 -1.7722807e-05 1.4897078e-06 
5.5734537e-05 -1.8045979e-05 1.0916625e-05 
5.1085961e-05 -1.7530780e-05 2.0197273e-05 
3.4181186e-05 -1.1261845e-05 2.5295572e-05 
2.3264931e-05 -3.3960705e-06 1.7130922e-05 
1.5255890e-05 -1.5843999e-06 1.1988262e-05 
7.4985451e-06 -1.6495367e-06 6.7834171e-06 
4.0555483e-06 -3.5085307e-06 -1.8877010e-06 
3.9650486e-06 5.9327056e-07 -4.6764708e-06 
3.5265543e-06 4.9807613e-06 -2.3445916e-06 
3.6730426e-06 1.8887868e-06 -4.0357568e-06 
2.0736948e-06 1.4465043e-06 -2.1518483e-06 
-8.9626184e-07 2.8016070e-06 -9.4382625e-07 
-9.6081646e-07 -1.6347074e-06 -6.8330864e-06 
-5.2746436e-06 7.9841038e-07 -6.6350644e-06 
4.2448942e-08 -4.8783562e-07 -1.0381103e-05 
8.4651820e-06 2.6505193e-06 -9.8491309e-06 
1.5199379e-05 -8.0680347e-06 -1.4791191e-05 
3.0309704e-05 -9.5939577e-06 -1.3243442e-05 
4.2464002e-05 -1.2409248e-05 -8.8364059e-06 
4.9796003e-05 -1.5392763e-05 1.0684829e-06 
5.2758209e-05 -1.7146014e-05 1.3328004e-05 
4.8486047e-05 -1.4811956e-05 2.0900603e-05 
3.6856181e-05 -1.4110567e-05 2.6001351e-05 
2.5237618e-05 -9.5449523e-06 2.2578961e-05 
1.6142762e-05 -7.8191906e-06 1.6181633e-05 
6.6295565e-06 -2.9414800e-06 7.8772118e-06 
1.1493541e-06 1.9284819e-06 -4.9909789e-07 
-8.9488583e-07 3.3852966e-06 -2.7115941e-06 
-2.7255953e-06 3.0329836e-06 -4.6168288e-06 
-2.5259515e-06 7.8808768e-07 -3.9136153e-06 
-8.2143777e-07 -1.1187747e-06 -1.7842099e-06 
6.5398115e-07 -1.1871557e-06 1.2664980e-06 
8.6031184e-07 -5.3893108e-09 2.6966309e-06 
9.5155332e-07 6.2036008e-07 3.2197745e-06 
6.9243868e-07 -3.9457822e-07 2.0690354e-06 
2.8540157e-07 -1.0903813e-06 8.0777517e-07 
0.0000000e+00 -2.9490200e-05 0.0000000e+00 
0.0000000e+00 -4.5480127e-05 0.0000000e+00 
0.0000000e+00 -4.8598129e-05 0.0000000e+00 
0.0000000e+00 -5.3972224e-05 0.0000000e+00 
0.0000000e+00 -3.7768892e-05 0.0000000e+00 
0.0000000e+00 -6.9339239e-06 0.0000000e+00 
0.0000000e+00 -1.4913442e-05 0.0000000e+00 
0.0000000e+00 -5.7711231e-06 0.0000000e+00 
0.0000000e+00 4.4104243e-05 0.0000000e+00 
0.0000000e+00 -1.7681978e-05 0.0000000e+00 
0.0000000e+00 -1.4303793e-04 0.0000000e+00 
0.0000000e+00 -3.2414062e-04 0.0000000e+00 
0.0000000e+00 -5.1054248e-04 0.0000000e+00 
0.0000000e+00 -5.7910307e-04 0.0000000e+00 
0.0000000e+00 -5.6510366e-04 0.0000000e+00 
0.0000000e+00 -4.1302477e-04 0.0000000e+00 
0.0000000e+00 -2.0432634e-04 0.0000000e+00 
0.0000000e+00 -7.7487464e-05 0.0000000e+00 
0.0000000e+00 -1.9580439e-05 0.0000000e+00 
0.0000000e+00 -3.9732429e-05 0.0000000e+00 
0.0000000e+00 -6.2727377e-05 0.0000000e+00 
0.0000000e+00 -8.2583669e-05 0.0000000e+00 
0.0000000e+00 -1.0316206e-04 0.0000000e+00 
0.0000000e+00 -1.3067150e-04 0.0000000e+00 
0.0000000e+00 -1.0745955e-04 0.0000000e+00 
0.0000000e+00 -8.4337553e-05 0.0000000e+00 
0.0000000e+00 -2.5202764e-05 0.0000000e+00 
0.0000000e+00 -1.1373278e-05 0.0000000e+00 
0.0000000e+00 4.3354943e-05 0.0000000e+00 
0.0000000e+00 -2.2598837e-05 0.0000000e+00 
0.0000000e+00 -1.9959120e-04 0.0000000e+00 
0.0000000e+00 -3.1157132e-04 0.0000000e+00 
0.0000000e+00 -4.9758446e-04 0.0000000e+00 
0.0000000e+00 -5.7618081e-04 0.0000000e+00 
0.0000000e+00 -5.3463515e-04 0.0000000e+00 
0.0000000e+00 -4.1598818e-04 0.0000000e+00 
0.0000000e+00 -2.1134315e-04 0.0000000e+00 
0.0000000e+00 -5.5979308e-05 0.0000000e+00 
0.0000000e+00 3.3613360e-05 0.0000000e+00 
0.0000000e+00 4.4128723e-05 0.0000000e+00 
0.0000000e+00 2.8019114e-05 0.0000000e+00 
0.0000000e+00 3.7048076e-06 0.0000000e+00 
0.0000000e+00 -1.3558794e-05 0.0000000e+00 
0.0000000e+00 -2.0302603e-05 0.0000000e+00 
0.0000000e+00 -1.0114156e-05 0.0000000e+00 
0.0000000e+00 1.0545563e-05 0.0000000e+00 
0.0000000e+00 1.3217288e-05 0.0000000e+00 
0.0000000e+00 2.6708158e-06 0.0000000e+00 
0.0000000e+00 -3.6341821e-06 0.0000000e+00 
1.6154609e-06 3.0479112e-06 4.3779926e-07 
-3.8976799e-07 2.1136589e-06 1.0569418e-06 
1.0811444e-06 7.2228062e-08 -4.2770594e-06 
-2.1780261e-08 1.8322110e-06 -7.0221176e-06 
-8.7548010e-08 -3.1119910e-08 3.0610272e-07 
-3.3050060e-07 -9.4550376e-07 8.6026745e-07 
-7.2650681e-07 -2.4720625e-06 8.0501962e-07 
-2.5057190e-07 -2.6080786e-06 5.7954998e-07 
-2.1566370e-07 1.1102034e-06 2.7893607e-06 
-1.1714756e-06 1.8100774e-06 -1.3650739e-06 
1.0767885e-06 1.1895833e-06 -3.2071177e-06 
-7.9070549e-07 -1.0953306e-06 -1.1586599e-06 
-4.2912419e-07 1.0063610e-05 -5.7875891e-06 
-1.2809418e-06 -8.3895320e-06 -2.3787263e-06 
-2.1831884e-06 4.8022976e-06 -8.6857908e-06 
-4.0560044e-06 8.8148490e-06 -9.2955815e-06 
4.2703346e-06 -7.4770860e-06 -1.2389268e-05 
1.8811670e-05 -3.7120788e-06 -7.2199982e-06 
2.8604232e-05 -9.4287207e-06 -5.5417090e-06 
4.0535400e-05 -1.4812729e-05 -3.5752735e-06 
5.2575720e-05 -1.2764890e-05 7.4820100e-06 
4.7922633e-05 -1.6723063e-05 1.5472522e-05 
3.6319256e-05 -1.5772246e-05 1.9962397e-05 
3.3527958e-05 -4.1827093e-06 2.3772891e-05 
2.3794542e-05 4.8479146e-06 2.2018839e-05 
1.2421027e-05 3.7388559e-06 1.7404727e-05 
5.9639301e-06 2.6464013e-06 8.6490018e-06 