# vtk DataFile Version 4.0
vtk output
ASCII
DATASET UNSTRUCTURED_GRID
POINTS 1919 float
0.0000000e+00 0.0000000e+00 0.0000000e+00 
0.0000000e+00 0.0000000e+00 5.0000000e+01 
5.0000000e+00 0.0000000e+00 0.0000000e+00 
5.0000000e+00 0.0000000e+00 5.0000000e+01 
5.0000000e+00 1.0000000e+00 0.0000000e+00 
5.0000000e+00 1.0000000e+00 5.0000000e+01 
0.0000000e+00 1.0000000e+00 0.0000000e+00 
0.0000000e+00 1.0000000e+00 5.0000000e+01 
5.0000000e+00 2.0000000e+00 0.0000000e+00 
5.0000000e+00 2.0000000e+00 5.0000000e+01 
3.0000000e+00 2.0000000e+00 0.0000000e+00 
3.0000000e+00 2.0000000e+00 5.0000000e+01 
0.0000000e+00 2.0000000e+00 0.0000000e+00 
0.0000000e+00 2.0000000e+00 5.0000000e+01 
1.5000000e+00 3.0000000e+00 0.0000000e+00 
1.5000000e+00 3.0000000e+00 5.0000000e+01 
7.5000000e-01 3.0000000e+00 0.0000000e+00 
7.5000000e-01 3.0000000e+00 5.0000000e+01 
0.0000000e+00 3.0000000e+00 0.0000000e+00 
0.0000000e+00 3.0000000e+00 5.0000000e+01 
7.5000000e-01 3.0000000e+00 5.0000000e-01 
7.5000000e-01 3.0000000e+00 1.0000000e+00 
7.5000000e-01 3.0000000e+00 1.5000000e+00 
7.5000000e-01 3.0000000e+00 2.0000000e+00 
7.5000000e-01 3.0000000e+00 2.5000000e+00 
7.5000000e-01 3.0000000e+00 3.0000000e+00 
7.5000000e-01 3.0000000e+00 3.5000000e+00 
7.5000000e-01 3.0000000e+00 4.0000000e+00 
7.5000000e-01 3.0000000e+00 4.5000000e+00 
7.5000000e-01 3.0000000e+00 5.0000000e+00 
7.5000000e-01 3.0000000e+00 5.5000000e+00 
7.5000000e-01 3.0000000e+00 6.0000000e+00 
7.5000000e-01 3.0000000e+00 6.5000000e+00 
7.5000000e-01 3.0000000e+00 7.0000000e+00 
7.5000000e-01 3.0000000e+00 7.5000000e+00 
7.5000000e-01 3.0000000e+00 8.0000000e+00 
7.5000000e-01 3.0000000e+00 8.5000000e+00 
7.5000000e-01 3.0000000e+00 9.0000000e+00 
7.5000000e-01 3.0000000e+00 9.5000000e+00 
7.5000000e-01 3.0000000e+00 1.0000000e+01 
7.5000000e-01 3.0000000e+00 1.0500000e+01 
7.5000000e-01 3.0000000e+00 1.1000000e+01 
7.5000000e-01 3.0000000e+00 1.1500000e+01 
7.5000000e-01 3.0000000e+00 1.2000000e+01 
7.5000000e-01 3.0000000e+00 1.2500000e+01 
7.5000000e-01 3.0000000e+00 1.3000000e+01 
7.5000000e-01 3.0000000e+00 1.3500000e+01 
7.5000000e-01 3.0000000e+00 1.4000000e+01 
7.5000000e-01 3.0000000e+00 1.4500000e+01 
7.5000000e-01 3.0000000e+00 1.5000000e+01 
7.5000000e-01 3.0000000e+00 1.5500000e+01 
7.5000000e-01 3.0000000e+00 1.6000000e+01 
7.5000000e-01 3.0000000e+00 1.6500000e+01 
7.5000000e-01 3.0000000e+00 1.7000000e+01 
7.5000000e-01 3.0000000e+00 1.7500000e+01 
7.5000000e-01 3.0000000e+00 1.8000000e+01 
7.5000000e-01 3.0000000e+00 1.8500000e+01 
7.5000000e-01 3.0000000e+00 1.9000000e+01 
7.5000000e-01 3.0000000e+00 1.9500000e+01 
7.5000000e-01 3.0000000e+00 2.0000000e+01 
7.5000000e-01 3.0000000e+00 2.0500000e+01 
7.5000000e-01 3.0000000e+00 2.1000000e+01 
7.5000000e-01 3.0000000e+00 2.1500000e+01 
7.5000000e-01 3.0000000e+00 2.2000000e+01 
7.5000000e-01 3.0000000e+00 2.2500000e+01 
7.5000000e-01 3.0000000e+00 2.3000000e+01 
7.5000000e-01 3.0000000e+00 2.3500000e+01 
7.5000000e-01 3.0000000e+00 2.4000000e+01 
7.5000000e-01 3.0000000e+00 2.4500000e+01 
7.5000000e-01 3.0000000e+00 2.5000000e+01 
7.5000000e-01 3.0000000e+00 2.5500000e+01 
7.5000000e-01 3.0000000e+00 2.6000000e+01 
7.5000000e-01 3.0000000e+00 2.6500000e+01 
7.5000000e-01 3.0000000e+00 2.7000000e+01 
7.5000000e-01 3.0000000e+00 2.7500000e+01 
7.5000000e-01 3.0000000e+00 2.8000000e+01 
7.5000000e-01 3.0000000e+00 2.8500000e+01 
7.5000000e-01 3.0000000e+00 2.9000000e+01 
7.5000000e-01 3.0000000e+00 2.9500000e+01 
7.5000000e-01 3.0000000e+00 3.0000000e+01 
7.5000000e-01 3.0000000e+00 3.0500000e+01 
7.5000000e-01 3.0000000e+00 3.1000000e+01 
7.5000000e-01 3.0000000e+00 3.1500000e+01 
7.5000000e-01 3.0000000e+00 3.2000000e+01 
7.5000000e-01 3.0000000e+00 3.2500000e+01 
7.5000000e-01 3.0000000e+00 3.3000000e+01 
7.5000000e-01 3.0000000e+00 3.3500000e+01 
7.5000000e-01 3.0000000e+00 3.4000000e+01 
7.5000000e-01 3.0000000e+00 3.4500000e+01 
7.5000000e-01 3.0000000e+00 3.5000000e+01 
7.5000000e-01 3.0000000e+00 3.5500000e+01 
7.5000000e-01 3.0000000e+00 3.6000000e+01 
7.5000000e-01 3.0000000e+00 3.6500000e+01 
7.5000000e-01 3.0000000e+00 3.7000000e+01 
7.5000000e-01 3.0000000e+00 3.7500000e+01 
7.5000000e-01 3.0000000e+00 3.8000000e+01 
7.5000000e-01 3.0000000e+00 3.8500000e+01 
7.5000000e-01 3.0000000e+00 3.9000000e+01 
7.5000000e-01 3.0000000e+00 3.9500000e+01 
7.5000000e-01 3.0000000e+00 4.0000000e+01 
7.5000000e-01 3.0000000e+00 4.0500000e+01 
7.5000000e-01 3.0000000e+00 4.1000000e+01 
7.5000000e-01 3.0000000e+00 4.1500000e+01 
7.5000000e-01 3.0000000e+00 4.2000000e+01 
7.5000000e-01 3.0000000e+00 4.2500000e+01 
7.5000000e-01 3.0000000e+00 4.3000000e+01 
7.5000000e-01 3.0000000e+00 4.3500000e+01 
7.5000000e-01 3.0000000e+00 4.4000000e+01 
7.5000000e-01 3.0000000e+00 4.4500000e+01 
7.5000000e-01 3.0000000e+00 4.5000000e+01 
7.5000000e-01 3.0000000e+00 4.5500000e+01 
7.5000000e-01 3.0000000e+00 4.6000000e+01 
7.5000000e-01 3.0000000e+00 4.6500000e+01 
7.5000000e-01 3.0000000e+00 4.7000000e+01 
7.5000000e-01 3.0000000e+00 4.7500000e+01 
7.5000000e-01 3.0000000e+00 4.8000000e+01 
7.5000000e-01 3.0000000e+00 4.8500000e+01 
7.5000000e-01 3.0000000e+00 4.9000000e+01 
7.5000000e-01 3.0000000e+00 4.9500000e+01 
7.5000000e-01 3.0250001e+00 0.0000000e+00 
7.5000000e-01 3.0250001e+00 5.0000000e-01 
7.5000000e-01 3.0250001e+00 1.0000000e+00 
7.5000000e-01 3.0250001e+00 1.5000000e+00 
7.5000000e-01 3.0250001e+00 2.0000000e+00 
7.5000000e-01 3.0250001e+00 2.5000000e+00 
7.5000000e-01 3.0250001e+00 3.0000000e+00 
7.5000000e-01 3.0250001e+00 3.5000000e+00 
7.5000000e-01 3.0250001e+00 4.0000000e+00 
7.5000000e-01 3.0250001e+00 4.5000000e+00 
7.5000000e-01 3.0250001e+00 5.0000000e+00 
7.5000000e-01 3.0250001e+00 5.5000000e+00 
7.5000000e-01 3.0250001e+00 6.0000000e+00 
7.5000000e-01 3.0250001e+00 6.5000000e+00 
7.5000000e-01 3.0250001e+00 7.0000000e+00 
7.5000000e-01 3.0250001e+00 7.5000000e+00 
7.5000000e-01 3.0250001e+00 8.0000000e+00 
7.5000000e-01 3.0250001e+00 8.5000000e+00 
7.5000000e-01 3.0250001e+00 9.0000000e+00 
7.5000000e-01 3.0250001e+00 9.5000000e+00 
7.5000000e-01 3.0250001e+00 1.0000000e+01 
7.5000000e-01 3.0250001e+00 1.0500000e+01 
7.5000000e-01 3.0250001e+00 1.1000000e+01 
7.5000000e-01 3.0250001e+00 1.1500000e+01 
7.5000000e-01 3.0250001e+00 1.2000000e+01 
7.5000000e-01 3.0250001e+00 1.2500000e+01 
7.5000000e-01 3.0250001e+00 1.3000000e+01 
7.5000000e-01 3.0250001e+00 1.3500000e+01 
7.5000000e-01 3.0250001e+00 1.4000000e+01 
7.5000000e-01 3.0250001e+00 1.4500000e+01 
7.5000000e-01 3.0250001e+00 1.5000000e+01 
7.5000000e-01 3.0250001e+00 1.5500000e+01 
7.5000000e-01 3.0250001e+00 1.6000000e+01 
7.5000000e-01 3.0250001e+00 1.6500000e+01 
7.5000000e-01 3.0250001e+00 1.7000000e+01 
7.5000000e-01 3.0250001e+00 1.7500000e+01 
7.5000000e-01 3.0250001e+00 1.8000000e+01 
7.5000000e-01 3.0250001e+00 1.8500000e+01 
7.5000000e-01 3.0250001e+00 1.9000000e+01 
7.5000000e-01 3.0250001e+00 1.9500000e+01 
7.5000000e-01 3.0250001e+00 2.0000000e+01 
7.5000000e-01 3.0250001e+00 2.0500000e+01 
7.5000000e-01 3.0250001e+00 2.1000000e+01 
7.5000000e-01 3.0250001e+00 2.1500000e+01 
7.5000000e-01 3.0250001e+00 2.2000000e+01 
7.5000000e-01 3.0250001e+00 2.2500000e+01 
7.5000000e-01 3.0250001e+00 2.3000000e+01 
7.5000000e-01 3.0250001e+00 2.3500000e+01 
7.5000000e-01 3.0250001e+00 2.4000000e+01 
7.5000000e-01 3.0250001e+00 2.4500000e+01 
7.5000000e-01 3.0250001e+00 2.5000000e+01 
7.5000000e-01 3.0250001e+00 2.5500000e+01 
7.5000000e-01 3.0250001e+00 2.6000000e+01 
7.5000000e-01 3.0250001e+00 2.6500000e+01 
7.5000000e-01 3.0250001e+00 2.7000000e+01 
7.5000000e-01 3.0250001e+00 2.7500000e+01 
7.5000000e-01 3.0250001e+00 2.8000000e+01 
7.5000000e-01 3.0250001e+00 2.8500000e+01 
7.5000000e-01 3.0250001e+00 2.9000000e+01 
7.5000000e-01 3.0250001e+00 2.9500000e+01 
7.5000000e-01 3.0250001e+00 3.0000000e+01 
7.5000000e-01 3.0250001e+00 3.0500000e+01 
7.5000000e-01 3.0250001e+00 3.1000000e+01 
7.5000000e-01 3.0250001e+00 3.1500000e+01 
7.5000000e-01 3.0250001e+00 3.2000000e+01 
7.5000000e-01 3.0250001e+00 3.2500000e+01 
7.5000000e-01 3.0250001e+00 3.3000000e+01 
7.5000000e-01 3.0250001e+00 3.3500000e+01 
7.5000000e-01 3.0250001e+00 3.4000000e+01 
7.5000000e-01 3.0250001e+00 3.4500000e+01 
7.5000000e-01 3.0250001e+00 3.5000000e+01 
7.5000000e-01 3.0250001e+00 3.5500000e+01 
7.5000000e-01 3.0250001e+00 3.6000000e+01 
7.5000000e-01 3.0250001e+00 3.6500000e+01 
7.5000000e-01 3.0250001e+00 3.7000000e+01 
7.5000000e-01 3.0250001e+00 3.7500000e+01 
7.5000000e-01 3.0250001e+00 3.8000000e+01 
7.5000000e-01 3.0250001e+00 3.8500000e+01 
7.5000000e-01 3.0250001e+00 3.9000000e+01 
7.5000000e-01 3.0250001e+00 3.9500000e+01 
7.5000000e-01 3.0250001e+00 4.0000000e+01 
7.5000000e-01 3.0250001e+00 4.0500000e+01 
7.5000000e-01 3.0250001e+00 4.1000000e+01 
7.5000000e-01 3.0250001e+00 4.1500000e+01 
7.5000000e-01 3.0250001e+00 4.2000000e+01 
7.5000000e-01 3.0250001e+00 4.2500000e+01 
7.5000000e-01 3.0250001e+00 4.3000000e+01 
7.5000000e-01 3.0250001e+00 4.3500000e+01 
7.5000000e-01 3.0250001e+00 4.4000000e+01 
7.5000000e-01 3.0250001e+00 4.4500000e+01 
7.5000000e-01 3.0250001e+00 4.5000000e+01 
7.5000000e-01 3.0250001e+00 4.5500000e+01 
7.5000000e-01 3.0250001e+00 4.6000000e+01 
7.5000000e-01 3.0250001e+00 4.6500000e+01 
7.5000000e-01 3.0250001e+00 4.7000000e+01 
7.5000000e-01 3.0250001e+00 4.7500000e+01 
7.5000000e-01 3.0250001e+00 4.8000000e+01 
7.5000000e-01 3.0250001e+00 4.8500000e+01 
7.5000000e-01 3.0250001e+00 4.9000000e+01 
7.5000000e-01 3.0250001e+00 4.9500000e+01 
7.5000000e-01 3.0250001e+00 5.0000000e+01 
3.0000000e+00 2.0000000e+00 3.6000000e+01 
8.0487806e-01 3.0000000e+00 3.6000000e+01 
0.0000000e+00 0.0000000e+00 1.0000000e+00 
0.0000000e+00 0.0000000e+00 2.0000000e+00 
0.0000000e+00 0.0000000e+00 3.0000000e+00 
0.0000000e+00 0.0000000e+00 4.0000000e+00 
0.0000000e+00 0.0000000e+00 5.0000000e+00 
0.0000000e+00 0.0000000e+00 6.0000000e+00 
0.0000000e+00 0.0000000e+00 7.0000000e+00 
0.0000000e+00 0.0000000e+00 8.0000000e+00 
[...]
POINT_DATA 1919
FIELD FieldData 3
DISPLACEMENT 3 1919  float
0.0000000e+00 0.0000000e+00 0.0000000e+00 
0.0000000e+00 0.0000000e+00 0.0000000e+00 
0.0000000e+00 0.0000000e+00 0.0000000e+00 
0.0000000e+00 0.0000000e+00 0.0000000e+00 
7.1226295e-06 -3.3789111e-05 -1.4126870e-05 
1.4373813e-09 3.6211472e-09 9.1631980e-11 
0.0000000e+00 4.0555962e-05 0.0000000e+00 
0.0000000e+00 5.0595478e-08 0.0000000e+00 
1.1534443e-04 -7.0297632e-05 -8.4020263e-05 
1.8671891e-09 2.5957405e-09 1.3007594e-09 
4.1625233e-05 -3.2869033e-05 -9.6243151e-05 
5.4009193e-09 1.2866828e-08 7.2422739e-09 
0.0000000e+00 6.1453888e-05 0.0000000e+00 
0.0000000e+00 -1.6847765e-07 0.0000000e+00 
-1.1565618e-05 -1.3834948e-04 3.6998479e-06 
3.9696157e-08 -1.9715735e-07 -1.5963060e-08 
7.1289178e-05 3.6610785e-04 7.5896322e-05 
7.2473849e-09 4.8696819e-07 -1.8994937e-08 
0.0000000e+00 -8.2898885e-05 0.0000000e+00 
0.0000000e+00 -5.6488085e-07 0.0000000e+00 
-8.9120964e-05 2.4649844e-04 1.1716953e-04 
-5.5223074e-05 -9.2118258e-05 1.6629716e-04 
4.0475882e-07 -6.3200173e-04 2.2624544e-04 
-1.1723321e-04 -1.4002839e-03 2.0516641e-04 
-5.8443275e-05 -2.4310884e-03 3.2594934e-04 
-3.1915610e-04 -3.5921186e-03 1.8876993e-04 
-3.0102927e-04 -4.5229732e-03 2.1986583e-04 
-3.1021444e-04 -4.7129900e-03 4.3280063e-05 
-3.7653203e-04 -4.6994714e-03 -3.5921232e-06 
-3.9511884e-04 -4.8177862e-03 -5.9593831e-06 
-3.3852670e-04 -5.0810850e-03 -6.2335444e-06 
-2.5468826e-04 -4.9819266e-03 -5.2208339e-05 
-2.5703255e-04 -4.0681888e-03 -2.0353978e-04 
-2.1016560e-04 -2.8130629e-03 -1.6301865e-04 
-1.6254268e-04 -1.7086841e-03 -3.2016664e-04 
-1.0726505e-04 -9.0607483e-04 -2.7582305e-04 
-5.1168092e-05 -3.9910595e-04 -3.2135737e-04 
-5.6284312e-06 -9.4104675e-05 -2.2437230e-04 
2.7305754e-05 8.1982376e-05 -1.3541977e-04 
2.8127368e-05 1.6577094e-04 -3.5943904e-05 
2.2907774e-05 1.7759654e-04 2.4744941e-05 
1.8004999e-05 1.4662811e-04 6.1016293e-05 
8.0897044e-06 1.1173703e-04 6.4564570e-05 
8.4377268e-07 9.2436698e-05 4.3614713e-05 
-1.4910863e-06 8.4076455e-05 1.8456331e-05 
-6.0387824e-06 7.3554540e-05 -6.1622754e-06 
-4.4861349e-06 4.8910875e-05 -2.0064135e-05 
-8.1119497e-06 1.1734262e-05 -3.2300879e-05 
9.6743943e-06 -1.9717932e-05 -3.3568489e-05 
1.5914498e-05 -2.9454070e-05 -3.5885863e-05 
-4.1910999e-07 -1.3950435e-05 -3.4311826e-05 
-2.8493198e-06 2.1455244e-05 -2.4056857e-05 
-2.3959183e-05 5.4355267e-05 -3.8676117e-05 
-7.6804708e-06 6.4035950e-05 -3.9001636e-05 
-2.8521674e-06 5.4342043e-05 -5.1797779e-05 
-9.3856306e-06 5.4436154e-05 -2.4412939e-05 
2.3275463e-05 1.0140904e-04 -2.7758640e-05 
-3.6824852e-06 2.1390684e-04 -2.5041565e-05 
6.6701512e-05 3.5451664e-04 4.9241776e-06 
-2.3679124e-06 4.2413452e-04 6.7904243e-06 
9.0842674e-05 3.1930502e-04 6.4827276e-05 
-1.4775247e-05 -4.0760708e-05 1.1039399e-04 
5.8855454e-05 -6.8286469e-04 2.3262032e-04 
-7.5003780e-05 -1.5765443e-03 2.0785445e-04 
-2.4794623e-05 -2.6775957e-03 4.3144356e-04 
-1.6060050e-04 -3.7736222e-03 2.4879252e-04 
-2.0060425e-04 -4.4839350e-03 3.0010493e-04 
-2.6907382e-04 -4.5739873e-03 2.2921669e-04 
-3.1080865e-04 -4.5833476e-03 1.6511575e-04 
-3.8408226e-04 -4.7683772e-03 -4.0868505e-07 
-3.5649544e-04 -5.0147991e-03 -8.2772596e-05 
-3.3598248e-04 -4.7780364e-03 -1.8965403e-04 
-3.2671593e-04 -3.8285851e-03 -3.4228174e-04 
-2.0788067e-04 -2.6178318e-03 -2.0540386e-04 
-1.5481461e-04 -1.5766838e-03 -3.0629590e-04 
-9.1402078e-05 -8.0748601e-04 -2.1928457e-04 
-3.9853876e-05 -3.0033060e-04 -2.6461296e-04 
3.2478683e-06 5.9229419e-06 -1.9268600e-04 
2.3570834e-05 1.5871355e-04 -1.2757347e-04 
3.5728041e-05 2.0511563e-04 -2.3003387e-05 
2.2797607e-05 1.9409577e-04 3.2986911e-05 
1.0873586e-05 1.6256237e-04 5.0965478e-05 
7.2045491e-06 1.2913336e-04 5.4603410e-05 
1.5639496e-06 9.2163747e-05 2.8761280e-05 
1.3122062e-06 4.6794969e-05 2.0524485e-05 
-2.2098066e-06 1.4265669e-06 4.9167097e-06 
-3.8624553e-06 -2.7951453e-05 -4.3863520e-06 
-2.2974880e-06 -3.5821045e-05 -7.1250083e-06 
-2.3841387e-06 -2.7748225e-05 -7.7734403e-06 
1.7341681e-06 -1.5391051e-05 -5.6223053e-06 
1.8904535e-07 -6.1344854e-06 -2.3902139e-06 
-8.1741126e-07 -1.2028818e-06 -5.3736926e-07 
-9.2425928e-08 1.4077306e-06 -9.4142172e-07 
-1.0199183e-07 2.7294550e-06 1.4062535e-06 
3.1927691e-08 2.3557134e-06 5.0008532e-07 
1.6198251e-07 1.1279408e-06 9.3559578e-07 
-1.6964751e-07 7.7109775e-07 5.6601101e-07 
-1.0860574e-07 1.4773843e-06 -7.5836471e-07 
3.5673736e-07 2.0189620e-06 8.2953918e-08 
3.7710888e-07 1.2615789e-06 -7.7414633e-08 
-5.2517258e-08 -7.1912592e-07 -2.2003786e-07 
-3.0622138e-07 -2.3181276e-06 1.7443271e-07 
-3.3454862e-07 -2.1914705e-06 -4.0343892e-07 
-4.1117890e-08 -6.7313243e-07 -3.0018544e-08 
2.2387756e-07 9.6153269e-07 2.9262210e-07 
1.7114719e-07 1.6675720e-06 -6.1283401e-08 
1.3132798e-07 1.2483223e-06 9.2072568e-08 
-1.6418331e-07 3.0270002e-07 -6.8397320e-08 
-1.3694873e-07 -5.8262657e-07 -2.9988338e-09 
-7.4588542e-08 -1.0223778e-06 6.4955117e-08 
-3.3097511e-08 -8.1298026e-07 -7.9414924e-08 
-3.9711011e-08 -1.6080234e-07 -2.1873278e-08 
3.6336420e-08 5.2396234e-07 1.1352434e-07 
-1.1815689e-08 8.2478454e-07 -3.2398475e-08 
-6.8714519e-09 4.4955840e-07 1.1684723e-08 
3.6717836e-08 -2.5383508e-07 4.8085305e-09 
-1.4634475e-08 -6.2498185e-07 -7.2480582e-08 
-2.6763576e-08 -3.8925663e-07 -8.9512113e-09 
-5.2539724e-09 1.8470028e-07 4.4652719e-08 
0.0000000e+00 3.6453421e-04 0.0000000e+00 
0.0000000e+00 2.4673020e-04 0.0000000e+00 
0.0000000e+00 -8.9389127e-05 0.0000000e+00 
0.0000000e+00 -6.3140754e-04 0.0000000e+00 
0.0000000e+00 -1.4086505e-03 0.0000000e+00 
0.0000000e+00 -2.4449404e-03 0.0000000e+00 
0.0000000e+00 -3.6230846e-03 0.0000000e+00 
0.0000000e+00 -4.5454828e-03 0.0000000e+00 
0.0000000e+00 -4.7415779e-03 0.0000000e+00 
0.0000000e+00 -4.7166385e-03 0.0000000e+00 
0.0000000e+00 -4.8451750e-03 0.0000000e+00 
0.0000000e+00 -5.1031453e-03 0.0000000e+00 
0.0000000e+00 -5.0134538e-03 0.0000000e+00 
0.0000000e+00 -4.0879324e-03 0.0000000e+00 
0.0000000e+00 -2.8299862e-03 0.0000000e+00 
0.0000000e+00 -1.7160563e-03 0.0000000e+00 
0.0000000e+00 -9.0940943e-04 0.0000000e+00 
0.0000000e+00 -3.9779724e-04 0.0000000e+00 
0.0000000e+00 -9.2631373e-05 0.0000000e+00 
0.0000000e+00 8.2521903e-05 0.0000000e+00 
0.0000000e+00 1.6563351e-04 0.0000000e+00 
0.0000000e+00 1.7758328e-04 0.0000000e+00 
0.0000000e+00 1.4776834e-04 0.0000000e+00 
0.0000000e+00 1.1265773e-04 0.0000000e+00 
0.0000000e+00 9.2368595e-05 0.0000000e+00 
0.0000000e+00 8.3974635e-05 0.0000000e+00 
0.0000000e+00 7.3383562e-05 0.0000000e+00 
0.0000000e+00 4.8651738e-05 0.0000000e+00 
0.0000000e+00 1.2032144e-05 0.0000000e+00 
0.0000000e+00 -1.9622667e-05 0.0000000e+00 
0.0000000e+00 -2.9737317e-05 0.0000000e+00 
0.0000000e+00 -1.3256530e-05 0.0000000e+00 
0.0000000e+00 2.1775044e-05 0.0000000e+00 
0.0000000e+00 5.3633899e-05 0.0000000e+00 
0.0000000e+00 6.2977553e-05 0.0000000e+00 
0.0000000e+00 5.3559423e-05 0.0000000e+00 
0.0000000e+00 5.4632288e-05 0.0000000e+00 
0.0000000e+00 1.0360215e-04 0.0000000e+00 
0.0000000e+00 2.1688004e-04 0.0000000e+00 
0.0000000e+00 3.5579127e-04 0.0000000e+00 
0.0000000e+00 4.2424563e-04 0.0000000e+00 
0.0000000e+00 3.1654557e-04 0.0000000e+00 
0.0000000e+00 -4.4671582e-05 0.0000000e+00 
0.0000000e+00 -6.8481290e-04 0.0000000e+00 
0.0000000e+00 -1.5853901e-03 0.0000000e+00 
0.0000000e+00 -2.6916666e-03 0.0000000e+00 
0.0000000e+00 -3.8020567e-03 0.0000000e+00 
0.0000000e+00 -4.5103552e-03 0.0000000e+00 
0.0000000e+00 -4.6042348e-03 0.0000000e+00 
0.0000000e+00 -4.6036420e-03 0.0000000e+00 
0.0000000e+00 -4.7953492e-03 0.0000000e+00 
0.0000000e+00 -5.0353464e-03 0.0000000e+00 
0.0000000e+00 -4.8076878e-03 0.0000000e+00 
0.0000000e+00 -3.8453059e-03 0.0000000e+00 
0.0000000e+00 -2.6335400e-03 0.0000000e+00 
0.0000000e+00 -1.5817728e-03 0.0000000e+00 
0.0000000e+00 -8.0953527e-04 0.0000000e+00 
0.0000000e+00 -2.9979652e-04 0.0000000e+00 
0.0000000e+00 5.8893211e-06 0.0000000e+00 
0.0000000e+00 1.5890112e-04 0.0000000e+00 
0.0000000e+00 2.0622004e-04 0.0000000e+00 
0.0000000e+00 1.9514091e-04 0.0000000e+00 
0.0000000e+00 1.6327042e-04 0.0000000e+00 
0.0000000e+00 1.2908971e-04 0.0000000e+00 
0.0000000e+00 9.1579539e-05 0.0000000e+00 
0.0000000e+00 4.6634788e-05 0.0000000e+00 
0.0000000e+00 2.1143137e-06 0.0000000e+00 
0.0000000e+00 -2.7453247e-05 0.0000000e+00 
0.0000000e+00 -3.5742345e-05 0.0000000e+00 
0.0000000e+00 -2.8059643e-05 0.0000000e+00 
0.0000000e+00 -1.5630718e-05 0.0000000e+00 
0.0000000e+00 -6.1952578e-06 0.0000000e+00 
0.0000000e+00 -1.1681262e-06 0.0000000e+00 
0.0000000e+00 1.4353765e-06 0.0000000e+00 
0.0000000e+00 2.6543323e-06 0.0000000e+00 
0.0000000e+00 2.3319874e-06 0.0000000e+00 
0.0000000e+00 1.2306353e-06 0.0000000e+00 
0.0000000e+00 8.3049520e-07 0.0000000e+00 
0.0000000e+00 1.4360595e-06 0.0000000e+00 
0.0000000e+00 1.9525187e-06 0.0000000e+00 
0.0000000e+00 1.2139667e-06 0.0000000e+00 
0.0000000e+00 -6.8208948e-07 0.0000000e+00 
0.0000000e+00 -2.2356212e-06 0.0000000e+00 
0.0000000e+00 -2.1663432e-06 0.0000000e+00 
0.0000000e+00 -7.0435061e-07 0.0000000e+00 
0.0000000e+00 9.2048793e-07 0.0000000e+00 
0.0000000e+00 1.6427072e-06 0.0000000e+00 
0.0000000e+00 1.2596402e-06 0.0000000e+00 
0.0000000e+00 3.1278256e-07 0.0000000e+00 
0.0000000e+00 -5.8002774e-07 0.0000000e+00 
0.0000000e+00 -1.0042976e-06 0.0000000e+00 
0.0000000e+00 -7.9977895e-07 0.0000000e+00 
0.0000000e+00 -1.5898792e-07 0.0000000e+00 
0.0000000e+00 5.1489434e-07 0.0000000e+00 
0.0000000e+00 7.8774536e-07 0.0000000e+00 
0.0000000e+00 4.3093203e-07 0.0000000e+00 
0.0000000e+00 -2.2963532e-07 0.0000000e+00 
0.0000000e+00 -5.8914196e-07 0.0000000e+00 
0.0000000e+00 -3.6883188e-07 0.0000000e+00 
0.0000000e+00 1.7045450e-07 0.0000000e+00 
0.0000000e+00 4.5990944e-07 0.0000000e+00 
6.1921793e-07 -1.0584340e-08 -5.7479258e-07 
-8.6135560e-07 -2.1079711e-06 -5.9669998e-07 
0.0000000e+00 0.0000000e+00 0.0000000e+00 
0.0000000e+00 0.0000000e+00 0.0000000e+00 
0.0000000e+00 0.0000000e+00 0.0000000e+00 
0.0000000e+00 0.0000000e+00 0.0000000e+00 
0.0000000e+00 0.0000000e+00 0.0000000e+00 
0.0000000e+00 0.0000000e+00 0.0000000e+00 
0.0000000e+00 0.0000000e+00 0.0000000e+00 
0.0000000e+00 0.0000000e+00 0.0000000e+00 
0.0000000e+00 0.0000000e+00 0.0000000e+00 
0.0000000e+00 0.0000000e+00 0.0000000e+00 
0.0000000e+00 0.0000000e+00 0.0000000e+00 
0.0000000e+00 0.0000000e+00 0.0000000e+00 
0.0000000e+00 0.0000000e+00 0.0000000e+00 
0.0000000e+00 0.0000000e+00 0.0000000e+00 
0.0000000e+00 0.0000000e+00 0.0000000e+00 
0.0000000e+00 0.0000000e+00 0.0000000e+00 
0.0000000e+00 0.0000000e+00 0.0000000e+00 
0.0000000e+00 0.0000000e+00 0.0000000e+00 
0.0000000e+00 0.0000000e+00 0.0000000e+00 
0.0000000e+00 0.0000000e+00 0.0000000e+00 
0.0000000e+00 0.0000000e+00 0.0000000e+00 
0.0000000e+00 0.0000000e+00 0.0000000e+00 
0.0000000e+00 0.0000000e+00 0.0000000e+00 
0.0000000e+00 0.0000000e+00 0.0000000e+00 
0.0000000e+00 0.0000000e+00 0.0000000e+00 
0.0000000e+00 0.0000000e+00 0.0000000e+00 
0.0000000e+00 0.0000000e+00 0.0000000e+00 
0.0000000e+00 0.0000000e+00 0.0000000e+00 
0.0000000e+00 0.0000000e+00 0.0000000e+00 
0.0000000e+00 0.0000000e+00 0.0000000e+00 
0.0000000e+00 0.0000000e+00 0.0000000e+00 
0.0000000e+00 0.0000000e+00 0.0000000e+00 
0.0000000e+00 0.0000000e+00 0.0000000e+00 
0.0000000e+00 0.0000000e+00 0.0000000e+00 
0.0000000e+00 0.0000000e+00 0.0000000e+00 
0.0000000e+00 0.0000000e+00 0.0000000e+00 
0.0000000e+00 0.0000000e+00 0.0000000e+00 
0.0000000e+00 0.0000000e+00 0.0000000e+00 
0.0000000e+00 0.0000000e+00 0.0000000e+00 
0.0000000e+00 0.0000000e+00 0.0000000e+00 
0.0000000e+00 0.0000000e+00 0.0000000e+00 
0.0000000e+00 0.0000000e+00 0.0000000e+00 
0.0000000e+00 0.0000000e+00 0.0000000e+00 
0.0000000e+00 0.0000000e+00 0.0000000e+00 
0.0000000e+00 0.0000000e+00 0.0000000e+00 
0.0000000e+00 0.0000000e+00 0.0000000e+00 
0.0000000e+00 0.0000000e+00 0.0000000e+00 
0.0000000e+00 0.0000000e+00 0.0000000e+00 
0.0000000e+00 0.0000000e+00 0.0000000e+00 
0.0000000e+00 0.0000000e+00 0.0000000e+00 
0.0000000e+00 0.0000000e+00 0.0000000e+00 
0.0000000e+00 0.0000000e+00 0.0000000e+00 
0.0000000e+00 0.0000000e+00 0.0000000e+00 
0.0000000e+00 0.0000000e+00 0.0000000e+00 
0.0000000e+00 0.0000000e+00 0.0000000e+00 
0.0000000e+00 0.0000000e+00 0.0000000e+00 
0.0000000e+00 0.0000000e+00 0.0000000e+00 
0.0000000e+00 0.0000000e+00 0.0000000e+00 
0.0000000e+00 0.0000000e+00 0.0000000e+00 
0.0000000e+00 0.0000000e+00 0.0000000e+00 
0.0000000e+00 0.0000000e+00 0.0000000e+00 
0.0000000e+00 0.0000000e+00 0.0000000e+00 
0.0000000e+00 0.0000000e+00 0.0000000e+00 
0.0000000e+00 0.0000000e+00 0.0000000e+00 
0.0000000e+00 0.0000000e+00 0.0000000e+00 
0.0000000e+00 0.0000000e+00 0.0000000e+00 
0.0000000e+00 0.0000000e+00 0.0000000e+00 
0.0000000e+00 0.0000000e+00 0.0000000e+00 
0.0000000e+00 0.0000000e+00 0.0000000e+00 
0.0000000e+00 0.0000000e+00 0.0000000e+00 
0.0000000e+00 0.0000000e+00 0.0000000e+00 
0.0000000e+00 0.0000000e+00 0.0000000e+00 
0.0000000e+00 0.0000000e+00 0.0000000e+00 
0.0000000e+00 0.0000000e+00 0.0000000e+00 
0.0000000e+00 0.0000000e+00 0.0000000e+00 
0.0000000e+00 0.0000000e+00 0.0000000e+00 
0.0000000e+00 0.0000000e+00 0.0000000e+00 
0.0000000e+00 0.0000000e+00 0.0000000e+00 
0.0000000e+00 0.0000000e+00 0.0000000e+00 
0.0000000e+00 0.0000000e+00 0.0000000e+00 
0.0000000e+00 0.0000000e+00 0.0000000e+00 
0.0000000e+00 0.0000000e+00 0.0000000e+00 
0.0000000e+00 0.0000000e+00 0.0000000e+00 
0.0000000e+00 0.0000000e+00 0.0000000e+00 
0.0000000e+00 0.0000000e+00 0.0000000e+00 
0.0000000e+00 0.0000000e+00 0.0000000e+00 
0.0000000e+00 0.0000000e+00 0.0000000e+00 
0.0000000e+00 0.0000000e+00 0.0000000e+00 
0.0000000e+00 0.0000000e+00 0.0000000e+00 
0.0000000e+00 0.0000000e+00 0.0000000e+00 
0.0000000e+00 0.0000000e+00 0.0000000e+00 
0.0000000e+00 0.0000000e+00 0.0000000e+00 
0.0000000e+00 0.0000000e+00 0.0000000e+00 
0.0000000e+00 0.0000000e+00 0.0000000e+00 
0.0000000e+00 0.0000000e+00 0.0000000e+00 
0.0000000e+00 0.0000000e+00 0.0000000e+00 
0.0000000e+00 0.0000000e+00 0.0000000e+00 
0.0000000e+00 0.0000000e+00 0.0000000e+00 
0.0000000e+00 0.0000000e+00 0.0000000e+00 
0.0000000e+00 0.0000000e+00 0.0000000e+00 
0.0000000e+00 0.0000000e+00 0.0000000e+00 
0.0000000e+00 0.0000000e+00 0.0000000e+00 
0.0000000e+00 0.0000000e+00 0.0000000e+00 
0.0000000e+00 0.0000000e+00 0.0000000e+00 
0.0000000e+00 0.0000000e+00 0.0000000e+00 
0.0000000e+00 0.0000000e+00 0.0000000e+00 
2.3555640e-05 2.2175343e-05 -1.2476856e-05 
1.8882378e-05 3.5580564e-05 -1.8990044e-05 
1.8849503e-05 3.5650944e-05 -2.2137177e-05 
2.5676953e-05 1.3973798e-05 -1.6474582e-05 
1.5251308e-05 -2.8225855e-05 -5.4732385e-07 
8.8665684e-06 -3.1863670e-05 -1.4558145e-05 
1.0394682e-05 -3.4415392e-05 -1.7716497e-05 
1.0478183e-05 -4.4705816e-06 -1.7710339e-05 
7.1651825e-06 1.5491953e-05 9.5983260e-06 
7.2502553e-06 2.9349569e-06 1.7667424e-05 
2.9037208e-06 -2.0132352e-06 1.9026094e-05 
2.5773495e-06 -6.7024794e-06 1.1446087e-05 
-3.5332502e-07 1.7206986e-06 5.0261165e-06 
-1.1464990e-06 -1.6647988e-06 2.8708389e-06 
-8.3698951e-06 -1.1902944e-07 4.6033702e-07 
-1.0434072e-05 -2.8430750e-06 3.1949203e-06 
-1.4779552e-05 -1.2417454e-05 6.0586744e-06 
-1.6008624e-05 9.5862390e-07 3.7613568e-06 
-6.9376692e-06 9.6320082e-06 3.8323128e-06 
-2.2481274e-06 2.4146493e-05 8.8271627e-06 
1.7064607e-05 2.9742401e-05 -6.6095558e-06 
2.7778609e-05 2.1879758e-05 -1.0151715e-05 
1.4528679e-05 2.0556306e-06 -1.7916236e-05 
2.2343531e-05 -1.5037083e-05 -2.5130526e-05 
2.5327976e-05 -3.2883618e-05 -2.1818794e-05 
1.7751596e-05 -2.9318653e-05 -1.2574831e-05 
1.6306936e-05 -1.3961796e-05 -1.6098592e-07 
1.1121507e-05 2.3803818e-06 1.3062230e-05 
1.0118243e-05 2.0478094e-06 1.6541342e-05 
7.0671081e-06 2.6167197e-06 1.9016139e-05 
5.5208625e-06 -5.6495514e-07 1.4553530e-05 
1.5730582e-06 -4.8995394e-06 5.2781502e-06 
5.9571488e-07 -3.1726750e-06 -6.3082956e-07 
-1.7638067e-08 9.3752146e-07 -1.4650473e-06 
2.2577809e-07 1.4222564e-06 -2.4456119e-07 
-4.0721852e-07 5.0223213e-07 2.2603587e-07 
2.7893560e-07 -6.9317315e-07 5.6213645e-07 
6.2414237e-08 -4.5627141e-07 2.4956204e-08 
-3.7553548e-08 9.1176034e-08 -1.4989588e-07 
-1.1261962e-07 5.4915074e-07 -2.1654056e-08 
6.2264135e-08 -3.5516513e-07 1.2850110e-07 
5.3346909e-08 -4.3628056e-08 -2.5440036e-08 
-1.2329365e-08 1.9195092e-07 1.4409573e-08 
-1.3773554e-08 -3.0767154e-08 3.3915924e-08 
6.7774621e-09 -5.6481017e-08 -5.4922276e-09 
-1.0118176e-08 1.8529885e-08 -1.1663239e-08 
1.5742228e-09 1.3860917e-08 -3.0832861e-10 
1.7370344e-09 -7.5401170e-09 -4.1635709e-10 
-1.3148089e-09 -2.3514093e-09 -1.1549902e-09 
0.0000000e+00 -9.1266455e-05 0.0000000e+00 
0.0000000e+00 -1.6644727e-04 0.0000000e+00 
0.0000000e+00 -3.1875080e-04 0.0000000e+00 
0.0000000e+00 -4.4998495e-04 0.0000000e+00 
0.0000000e+00 -4.7970380e-04 0.0000000e+00 
0.0000000e+00 -4.8103181e-04 0.0000000e+00 
0.0000000e+00 -3.7603427e-04 0.0000000e+00 
0.0000000e+00 -1.8589773e-04 0.0000000e+00 
0.0000000e+00 -7.2747898e-05 0.0000000e+00 
0.0000000e+00 3.6813541e-05 0.0000000e+00 
0.0000000e+00 3.3027332e-05 0.0000000e+00 
0.0000000e+00 -8.0603240e-06 0.0000000e+00 
0.0000000e+00 -5.1282018e-06 0.0000000e+00 
0.0000000e+00 6.5194108e-06 0.0000000e+00 
0.0000000e+00 1.4945119e-05 0.0000000e+00 
0.0000000e+00 1.0175294e-04 0.0000000e+00 
0.0000000e+00 7.1363997e-05 0.0000000e+00 
0.0000000e+00 5.2350031e-05 0.0000000e+00 
0.0000000e+00 9.9831130e-05 0.0000000e+00 
0.0000000e+00 2.4797118e-05 0.0000000e+00 
0.0000000e+00 -6.7381261e-05 0.0000000e+00 
0.0000000e+00 -1.6909296e-04 0.0000000e+00 
0.0000000e+00 -3.7118371e-04 0.0000000e+00 
0.0000000e+00 -4.7934882e-04 0.0000000e+00 
0.0000000e+00 -5.2982266e-04 0.0000000e+00 
0.0000000e+00 -5.2449876e-04 0.0000000e+00 
0.0000000e+00 -3.4516517e-04 0.0000000e+00 
0.0000000e+00 -1.6417734e-04 0.0000000e+00 
0.0000000e+00 -2.6373447e-05 0.0000000e+00 
0.0000000e+00 3.5059344e-05 0.0000000e+00 
0.0000000e+00 3.0526277e-05 0.0000000e+00 
0.0000000e+00 1.3952321e-05 0.0000000e+00 
0.0000000e+00 2.0286998e-06 0.0000000e+00 
0.0000000e+00 -3.9342203e-06 0.0000000e+00 
0.0000000e+00 -1.9673766e-06 0.0000000e+00 
0.0000000e+00 8.5202110e-08 0.0000000e+00 
0.0000000e+00 1.2866041e-06 0.0000000e+00 
0.0000000e+00 3.4099530e-09 0.0000000e+00 
0.0000000e+00 -2.3557320e-07 0.0000000e+00 
0.0000000e+00 1.8515421e-07 0.0000000e+00 
0.0000000e+00 1.8785757e-07 0.0000000e+00 
0.0000000e+00 -4.6180742e-07 0.0000000e+00 
0.0000000e+00 -1.9857314e-08 0.0000000e+00 
0.0000000e+00 3.0504771e-07 0.0000000e+00 
0.0000000e+00 6.3143432e-08 0.0000000e+00 
0.0000000e+00 -4.3833685e-07 0.0000000e+00 
0.0000000e+00 -4.5844349e-08 0.0000000e+00 
0.0000000e+00 2.1191133e-07 0.0000000e+00 
0.0000000e+00 -6.7143844e-08 0.0000000e+00 
3.2037911e-05 3.3047454e-05 -1.9874458e-05 
3.0959985e-05 -8.8146853e-06 -4.7621175e-05 
-6.7674523e-06 -5.5470500e-05 -6.3597152e-05 
-3.1587479e-05 -2.3621404e-05 -5.7038611e-05 
-3.5765300e-09 -6.0756102e-09 -2.0481403e-09 
-9.6840047e-10 -1.6244951e-09 -8.3098097e-09 
-8.3414999e-09 -1.5598879e-08 2.5710802e-08 
1.0942267e-08 1.9019513e-08 1.5603405e-09 
9.3135728e-05 2.7380440e-05 -5.7612564e-05 
9.2779992e-05 7.1349983e-05 -4.0864492e-05 
1.0668108e-04 7.5797165e-05 -2.8371865e-05 
1.2162180e-04 4.2332402e-05 9.3272056e-06 
7.3861382e-05 -2.1686343e-05 3.9306688e-05 
3.0021400e-05 -3.1092313e-05 2.2539736e-05 
2.9248595e-06 -4.4526634e-05 -9.9053641e-06 
-5.7212665e-06 -1.2778578e-05 -3.7541817e-05 
-7.1418494e-06 1.7526034e-05 -1.1463442e-05 
6.8572390e-06 2.4406563e-06 2.2130245e-05 
9.2711862e-06 -1.9554898e-06 2.6078034e-05 
7.9214560e-06 -6.8795957e-06 1.7288627e-05 
-2.5806592e-06 1.5484081e-06 1.0527250e-05 
-8.5648344e-06 -2.8961872e-06 5.6862523e-06 
-1.0958905e-05 1.5920369e-06 1.9859024e-07 
-5.8599430e-06 -1.0131465e-05 -3.1537847e-06 
1.0637162e-05 -7.5934054e-06 -1.6994207e-05 
5.0343086e-05 7.0177980e-06 -1.9625208e-05 
8.7329609e-05 3.1845411e-05 -2.4822277e-05 
1.1437761e-04 4.6175253e-05 -2.5942840e-05 