# vtk DataFile Version 4.0
vtk output
ASCII
DATASET UNSTRUCTURED_GRID
POINTS 1919 float
0.0000000e+00 0.0000000e+00 0.0000000e+00 
0.0000000e+00 0.0000000e+00 5.0000000e+01 
5.0000000e+00 0.0000000e+00 0.0000000e+00 
5.0000000e+00 0.0000000e+00 5.0000000e+01 
5.0000000e+00 1.0000000e+00 0.0000000e+00 
5.0000000e+00 1.0000000e+00 5.0000000e+01 
0.0000000e+00 1.0000000e+00 0.0000000e+00 
0.0000000e+00 1.0000000e+00 5.0000000e+01 
5.0000000e+00 2.0000000e+00 0.0000000e+00 
5.0000000e+00 2.0000000e+00 5.0000000e+01 
3.0000000e+00 2.0000000e+00 0.0000000e+00 
3.0000000e+00 2.0000000e+00 5.0000000e+01 
0.0000000e+00 2.0000000e+00 0.0000000e+00 
0.0000000e+00 2.0000000e+00 5.0000000e+01 
1.5000000e+00 3.0000000e+00 0.0000000e+00 
1.5000000e+00 3.0000000e+00 5.0000000e+01 
7.5000000e-01 3.0000000e+00 0.0000000e+00 
7.5000000e-01 3.0000000e+00 5.0000000e+01 
0.0000000e+00 3.0000000e+00 0.0000000e+00 
0.0000000e+00 3.0000000e+00 5.0000000e+01 
7.5000000e-01 3.0000000e+00 5.0000000e-01 
7.5000000e-01 3.0000000e+00 1.0000000e+00 
7.5000000e-01 3.0000000e+00 1.5000000e+00 
7.5000000e-01 3.0000000e+00 2.0000000e+00 
7.5000000e-01 3.0000000e+00 2.5000000e+00 
7.5000000e-01 3.0000000e+00 3.0000000e+00 
7.5000000e-01 3.0000000e+00 3.5000000e+00 
7.5000000e-01 3.0000000e+00 4.0000000e+00 
7.5000000e-01 3.0000000e+00 4.5000000e+00 
7.5000000e-01 3.0000000e+00 5.0000000e+00 
7.5000000e-01 3.0000000e+00 5.5000000e+00 
7.5000000e-01 3.0000000e+00 6.0000000e+00 
7.5000000e-01 3.0000000e+00 6.5000000e+00 
7.5000000e-01 3.0000000e+00 7.0000000e+00 
7.5000000e-01 3.0000000e+00 7.5000000e+00 
7.5000000e-01 3.0000000e+00 8.0000000e+00 
7.5000000e-01 3.0000000e+00 8.5000000e+00 
7.5000000e-01 3.0000000e+00 9.0000000e+00 
7.5000000e-01 3.0000000e+00 9.5000000e+00 
7.5000000e-01 3.0000000e+00 1.0000000e+01 
7.5000000e-01 3.0000000e+00 1.0500000e+01 
7.5000000e-01 3.0000000e+00 1.1000000e+01 
7.5000000e-01 3.0000000e+00 1.1500000e+01 
7.5000000e-01 3.0000000e+00 1.2000000e+01 
7.5000000e-01 3.0000000e+00 1.2500000e+01 
7.5000000e-01 3.0000000e+00 1.3000000e+01 
7.5000000e-01 3.0000000e+00 1.3500000e+01 
7.5000000e-01 3.0000000e+00 1.4000000e+01 
7.5000000e-01 3.0000000e+00 1.4500000e+01 
7.5000000e-01 3.0000000e+00 1.5000000e+01 
7.5000000e-01 3.0000000e+00 1.5500000e+01 
7.5000000e-01 3.0000000e+00 1.6000000e+01 
7.5000000e-01 3.0000000e+00 1.6500000e+01 
7.5000000e-01 3.0000000e+00 1.7000000e+01 
7.5000000e-01 3.0000000e+00 1.7500000e+01 
7.5000000e-01 3.0000000e+00 1.8000000e+01 
7.5000000e-01 3.0000000e+00 1.8500000e+01 
7.5000000e-01 3.0000000e+00 1.9000000e+01 
7.5000000e-01 3.0000000e+00 1.9500000e+01 
7.5000000e-01 3.0000000e+00 2.0000000e+01 
7.5000000e-01 3.0000000e+00 2.0500000e+01 
7.5000000e-01 3.0000000e+00 2.1000000e+01 
7.5000000e-01 3.0000000e+00 2.1500000e+01 
7.5000000e-01 3.0000000e+00 2.2000000e+01 
7.5000000e-01 3.0000000e+00 2.2500000e+01 
7.5000000e-01 3.0000000e+00 2.3000000e+01 
7.5000000e-01 3.0000000e+00 2.3500000e+01 
7.5000000e-01 3.0000000e+00 2.4000000e+01 
7.5000000e-01 3.0000000e+00 2.4500000e+01 
7.5000000e-01 3.0000000e+00 2.5000000e+01 
7.5000000e-01 3.0000000e+00 2.5500000e+01 
7.5000000e-01 3.0000000e+00 2.6000000e+01 
7.5000000e-01 3.0000000e+00 2.6500000e+01 
7.5000000e-01 3.0000000e+00 2.7000000e+01 
7.5000000e-01 3.0000000e+00 2.7500000e+01 
7.5000000e-01 3.0000000e+00 2.8000000e+01 
7.5000000e-01 3.0000000e+00 2.8500000e+01 
7.5000000e-01 3.0000000e+00 2.9000000e+01 
7.5000000e-01 3.0000000e+00 2.9500000e+01 
7.5000000e-01 3.0000000e+00 3.0000000e+01 
7.5000000e-01 3.0000000e+00 3.0500000e+01 
7.5000000e-01 3.0000000e+00 3.1000000e+01 
7.5000000e-01 3.0000000e+00 3.1500000e+01 
7.5000000e-01 3.0000000e+00 3.2000000e+01 
7.5000000e-01 3.0000000e+00 3.2500000e+01 
7.5000000e-01 3.0000000e+00 3.3000000e+01 
7.5000000e-01 3.0000000e+00 3.3500000e+01 
7.5000000e-01 3.0000000e+00 3.4000000e+01 
7.5000000e-01 3.0000000e+00 3.4500000e+01 
7.5000000e-01 3.0000000e+00 3.5000000e+01 
7.5000000e-01 3.0000000e+00 3.5500000e+01 
7.5000000e-01 3.0000000e+00 3.6000000e+01 
7.5000000e-01 3.0000000e+00 3.6500000e+01 
7.5000000e-01 3.0000000e+00 3.7000000e+01 
7.5000000e-01 3.0000000e+00 3.7500000e+01 
7.5000000e-01 3.0000000e+00 3.8000000e+01 
7.5000000e-01 3.0000000e+00 3.8500000e+01 
7.5000000e-01 3.0000000e+00 3.9000000e+01 
7.5000000e-01 3.0000000e+00 3.9500000e+01 
7.5000000e-01 3.0000000e+00 4.0000000e+01 
7.5000000e-01 3.0000000e+00 4.0500000e+01 
7.5000000e-01 3.0000000e+00 4.1000000e+01 
7.5000000e-01 3.0000000e+00 4.1500000e+01 
7.5000000e-01 3.0000000e+00 4.2000000e+01 
7.5000000e-01 3.0000000e+00 4.2500000e+01 
7.5000000e-01 3.0000000e+00 4.3000000e+01 
7.5000000e-01 3.0000000e+00 4.3500000e+01 
7.5000000e-01 3.0000000e+00 4.4000000e+01 
7.5000000e-01 3.0000000e+00 4.4500000e+01 
7.5000000e-01 3.0000000e+00 4.5000000e+01 
7.5000000e-01 3.0000000e+00 4.5500000e+01 
7.5000000e-01 3.0000000e+00 4.6000000e+01 
7.5000000e-01 3.0000000e+00 4.6500000e+01 
7.5000000e-01 3.0000000e+00 4.7000000e+01 
7.5000000e-01 3.0000000e+00 4.7500000e+01 
7.5000000e-01 3.0000000e+00 4.8000000e+01 
7.5000000e-01 3.0000000e+00 4.8500000e+01 
7.5000000e-01 3.0000000e+00 4.9000000e+01 
7.5000000e-01 3.0000000e+00 4.9500000e+01 
7.5000000e-01 3.0250001e+00 0.0000000e+00 
7.5000000e-01 3.0250001e+00 5.0000000e-01 
7.5000000e-01 3.0250001e+00 1.0000000e+00 
7.5000000e-01 3.0250001e+00 1.5000000e+00 
7.5000000e-01 3.0250001e+00 2.0000000e+00 
7.5000000e-01 3.0250001e+00 2.5000000e+00 
7.5000000e-01 3.0250001e+00 3.0000000e+00 
7.5000000e-01 3.0250001e+00 3.5000000e+00 
7.5000000e-01 3.0250001e+00 4.0000000e+00 
7.5000000e-01 3.0250001e+00 4.5000000e+00 
7.5000000e-01 3.0250001e+00 5.0000000e+00 
7.5000000e-01 3.0250001e+00 5.5000000e+00 
7.5000000e-01 3.0250001e+00 6.0000000e+00 
7.5000000e-01 3.0250001e+00 6.5000000e+00 
7.5000000e-01 3.0250001e+00 7.0000000e+00 
7.5000000e-01 3.0250001e+00 7.5000000e+00 
7.5000000e-01 3.0250001e+00 8.0000000e+00 
7.5000000e-01 3.0250001e+00 8.5000000e+00 
7.5000000e-01 3.0250001e+00 9.0000000e+00 
7.5000000e-01 3.0250001e+00 9.5000000e+00 
7.5000000e-01 3.0250001e+00 1.0000000e+01 
7.5000000e-01 3.0250001e+00 1.0500000e+01 
7.5000000e-01 3.0250001e+00 1.1000000e+01 
7.5000000e-01 3.0250001e+00 1.1500000e+01 
7.5000000e-01 3.0250001e+00 1.2000000e+01 
7.5000000e-01 3.0250001e+00 1.2500000e+01 
7.5000000e-01 3.0250001e+00 1.3000000e+01 
7.5000000e-01 3.0250001e+00 1.3500000e+01 
7.5000000e-01 3.0250001e+00 1.4000000e+01 
7.5000000e-01 3.0250001e+00 1.4500000e+01 
7.5000000e-01 3.0250001e+00 1.5000000e+01 
7.5000000e-01 3.0250001e+00 1.5500000e+01 
7.5000000e-01 3.0250001e+00 1.6000000e+01 
7.5000000e-01 3.0250001e+00 1.6500000e+01 
7.5000000e-01 3.0250001e+00 1.7000000e+01 
7.5000000e-01 3.0250001e+00 1.7500000e+01 
7.5000000e-01 3.0250001e+00 1.8000000e+01 
7.5000000e-01 3.0250001e+00 1.8500000e+01 
7.5000000e-01 3.0250001e+00 1.9000000e+01 
7.5000000e-01 3.0250001e+00 1.9500000e+01 
7.5000000e-01 3.0250001e+00 2.0000000e+01 
7.5000000e-01 3.0250001e+00 2.0500000e+01 
7.5000000e-01 3.0250001e+00 2.1000000e+01 
7.5000000e-01 3.0250001e+00 2.1500000e+01 
7.5000000e-01 3.0250001e+00 2.2000000e+01 
7.5000000e-01 3.0250001e+00 2.2500000e+01 
7.5000000e-01 3.0250001e+00 2.3000000e+01 
7.5000000e-01 3.0250001e+00 2.3500000e+01 
7.5000000e-01 3.0250001e+00 2.4000000e+01 
7.5000000e-01 3.0250001e+00 2.4500000e+01 
7.5000000e-01 3.0250001e+00 2.5000000e+01 
7.5000000e-01 3.0250001e+00 2.5500000e+01 
7.5000000e-01 3.0250001e+00 2.6000000e+01 
7.5000000e-01 3.0250001e+00 2.6500000e+01 
7.5000000e-01 3.0250001e+00 2.7000000e+01 
7.5000000e-01 3.0250001e+00 2.7500000e+01 
7.5000000e-01 3.0250001e+00 2.8000000e+01 
7.5000000e-01 3.0250001e+00 2.8500000e+01 
7.5000000e-01 3.0250001e+00 2.9000000e+01 
7.5000000e-01 3.0250001e+00 2.9500000e+01 
7.5000000e-01 3.0250001e+00 3.0000000e+01 
7.5000000e-01 3.0250001e+00 3.0500000e+01 
7.5000000e-01 3.0250001e+00 3.1000000e+01 
7.5000000e-01 3.0250001e+00 3.1500000e+01 
7.5000000e-01 3.0250001e+00 3.2000000e+01 
7.5000000e-01 3.0250001e+00 3.2500000e+01 
7.5000000e-01 3.0250001e+00 3.3000000e+01 
7.5000000e-01 3.0250001e+00 3.3500000e+01 
7.5000000e-01 3.0250001e+00 3.4000000e+01 
7.5000000e-01 3.0250001e+00 3.4500000e+01 
7.5000000e-01 3.0250001e+00 3.5000000e+01 
7.5000000e-01 3.0250001e+00 3.5500000e+01 
7.5000000e-01 3.0250001e+00 3.6000000e+01 
7.5000000e-01 3.0250001e+00 3.6500000e+01 
7.5000000e-01 3.0250001e+00 3.7000000e+01 
7.5000000e-01 3.0250001e+00 3.7500000e+01 
7.5000000e-01 3.0250001e+00 3.8000000e+01 
7.5000000e-01 3.0250001e+00 3.8500000e+01 
7.5000000e-01 3.0250001e+00 3.9000000e+01 
7.5000000e-01 3.0250001e+00 3.9500000e+01 
7.5000000e-01 3.0250001e+00 4.0000000e+01 
7.5000000e-01 3.0250001e+00 4.0500000e+01 
7.5000000e-01 3.0250001e+00 4.1000000e+01 
7.5000000e-01 3.0250001e+00 4.1500000e+01 
7.5000000e-01 3.0250001e+00 4.2000000e+01 
7.5000000e-01 3.0250001e+00 4.2500000e+01 
7.5000000e-01 3.0250001e+00 4.3000000e+01 
7.5000000e-01 3.0250001e+00 4.3500000e+01 
7.5000000e-01 3.0250001e+00 4.4000000e+01 
7.5000000e-01 3.0250001e+00 4.4500000e+01 
7.5000000e-01 3.0250001e+00 4.5000000e+01 
7.5000000e-01 3.0250001e+00 4.5500000e+01 
7.5000000e-01 3.0250001e+00 4.6000000e+01 
7.5000000e-01 3.0250001e+00 4.6500000e+01 
7.5000000e-01 3.0250001e+00 4.7000000e+01 
7.5000000e-01 3.0250001e+00 4.7500000e+01 
7.5000000e-01 3.0250001e+00 4.8000000e+01 
7.5000000e-01 3.0250001e+00 4.8500000e+01 
7.5000000e-01 3.0250001e+00 4.9000000e+01 
7.5000000e-01 3.0250001e+00 4.9500000e+01 
7.5000000e-01 3.0250001e+00 5.0000000e+01 
3.0000000e+00 2.0000000e+00 3.6000000e+01 
8.0487806e-01 3.0000000e+00 3.6000000e+01 
0.0000000e+00 0.0000000e+00 1.0000000e+00 
0.0000000e+00 0.0000000e+00 2.0000000e+00 
0.0000000e+00 0.0000000e+00 3.0000000e+00 
0.0000000e+00 0.0000000e+00 4.0000000e+00 
0.0000000e+00 0.0000000e+00 5.0000000e+00 
0.0000000e+00 0.0000000e+00 6.0000000e+00 
0.0000000e+00 0.0000000e+00 7.0000000e+00 
0.0000000e+00 0.0000000e+00 8.0000000e+00 
[...]
POINT_DATA 1919
FIELD FieldData 3
DISPLACEMENT 3 1919  float
0.0000000e+00 0.0000000e+00 0.0000000e+00 
0.0000000e+00 0.0000000e+00 0.0000000e+00 
0.0000000e+00 0.0000000e+00 0.0000000e+00 
0.0000000e+00 0.0000000e+00 0.0000000e+00 
-6.2809016e-07 5.4362704e-07 1.3426194e-06 
-2.2435941e-06 1.8114057e-06 -3.4761167e-06 
0.0000000e+00 6.9417765e-06 0.0000000e+00 
0.0000000e+00 -1.5723290e-05 0.0000000e+00 
1.0250193e-06 -2.9620528e-06 -2.3486299e-07 
-3.5882460e-06 1.6252300e-06 -5.9823415e-06 
-1.1064493e-06 -3.0406329e-06 -4.0676323e-06 
-8.6158907e-06 1.1724979e-06 -1.2907718e-05 
0.0000000e+00 1.9183670e-05 0.0000000e+00 
0.0000000e+00 -3.0765059e-05 0.0000000e+00 
5.5121459e-06 8.6621958e-06 -3.0507439e-05 
-1.2078222e-05 -2.2162047e-05 -5.6838217e-05 
2.1888634e-06 4.4114528e-05 -1.0071873e-05 
1.1392137e-05 -6.0351227e-05 -3.9200811e-05 
0.0000000e+00 2.8726041e-05 0.0000000e+00 
0.0000000e+00 -6.4180567e-05 0.0000000e+00 
4.9486184e-06 5.0882176e-05 -2.0932510e-05 
1.1790696e-05 6.6208318e-05 -2.2283846e-05 
2.0656289e-05 8.0612663e-05 -8.5893416e-06 
2.6124912e-05 8.8705499e-05 6.3055154e-06 
2.1196776e-05 9.1663023e-05 1.0381153e-05 
1.4848781e-05 9.6978612e-05 1.3170940e-05 
1.5515860e-05 1.0850080e-04 8.2717115e-06 
2.5340525e-05 1.1977057e-04 8.6777591e-06 
3.8523518e-05 1.2163311e-04 1.1648654e-05 
4.3635220e-05 1.1063370e-04 1.7937215e-05 
2.6157802e-05 9.2000220e-05 2.6449694e-05 
1.2844350e-05 7.6253229e-05 3.0072781e-05 
3.7849079e-06 7.0356822e-05 2.4256378e-05 
1.2678963e-05 7.0429502e-05 1.6054293e-05 
1.3033036e-05 6.3677464e-05 1.4901399e-05 
1.3282125e-05 3.7833332e-05 6.9468706e-06 
7.4552468e-06 -3.4370305e-06 -4.1571852e-07 
-1.0578055e-05 -4.0278239e-05 3.7182798e-07 
-2.0239311e-05 -5.7788340e-05 3.1987627e-06 
-1.4977219e-05 -5.6162982e-05 -7.1905638e-06 
-1.6892171e-05 -4.8219234e-05 -2.0527750e-05 
-1.9597830e-05 -4.8637630e-05 -3.3646404e-05 
-1.9644069e-05 -5.5006054e-05 -4.5419220e-05 
-2.0332773e-05 -4.8320744e-05 -5.3427117e-05 
1.0471518e-06 -2.5758964e-06 -7.1929629e-05 
8.8143406e-06 9.6772150e-05 -6.1820458e-05 
2.0539328e-05 2.2310660e-04 -4.9323015e-05 
1.9650704e-05 3.1323551e-04 -3.4577435e-05 
4.1228257e-05 3.0980867e-04 -1.9616986e-05 
5.2098731e-05 1.7128979e-04 2.0511237e-05 
4.8655966e-05 -1.3370677e-04 1.0174123e-04 
2.5041065e-05 -6.3796819e-04 1.0821177e-04 
7.4109571e-06 -1.4141430e-03 2.7799088e-04 
-5.6814086e-05 -2.4880911e-03 1.7633858e-04 
-1.5900024e-04 -3.7331765e-03 2.9219166e-04 
-2.3406526e-04 -4.6631489e-03 1.4105543e-04 
-2.7203115e-04 -4.8155719e-03 1.1186003e-04 
-2.7504083e-04 -4.6689766e-03 4.2209766e-05 
-2.8079233e-04 -4.7112792e-03 4.0935673e-05 
-2.9472043e-04 -4.9296673e-03 -8.9968475e-05 
-3.0640603e-04 -4.8832661e-03 -1.6983860e-04 
-2.4055451e-04 -3.9506014e-03 -1.6927881e-04 
-1.5898608e-04 -2.6449126e-03 -3.1594362e-04 
-7.9315549e-05 -1.4348688e-03 -2.0521625e-04 
-5.8646515e-06 -5.4543390e-04 -2.4281372e-04 
3.8965976e-05 1.2795454e-05 -1.2048151e-04 
6.0230446e-05 3.1028321e-04 -8.0230238e-05 
6.7070345e-05 4.3991403e-04 -1.5490459e-05 
6.9017646e-05 4.6914665e-04 2.0883461e-05 
7.5728778e-05 4.3534490e-04 5.3718923e-05 
6.9131886e-05 3.6629644e-04 8.7052482e-05 
6.3453575e-05 2.8718374e-04 9.7414049e-05 
5.5462933e-05 2.1949667e-04 1.0569656e-04 
3.9065704e-05 1.7202551e-04 8.8126355e-05 
2.1836109e-05 1.3577451e-04 9.0698784e-05 
1.0902693e-05 9.5387251e-05 7.8334248e-05 
-3.5581559e-06 4.3693799e-05 8.1346698e-05 
-7.9074471e-06 -1.6439446e-05 6.4142179e-05 
-2.1225353e-05 -6.8265828e-05 5.3494168e-05 
-4.0438248e-05 -9.4518946e-05 3.9649141e-05 
-5.3732394e-05 -9.7054093e-05 2.8190176e-05 
-4.7653986e-05 -8.9772788e-05 -7.4576988e-06 
-2.3590308e-05 -8.6377520e-05 -6.3791158e-05 
-8.0286391e-06 -9.1718772e-05 -1.0298755e-04 
1.0690337e-05 -8.3399005e-05 -1.1808728e-04 
1.5122852e-05 -3.2534728e-05 -6.4406777e-05 
1.6672670e-05 6.4724438e-05 -2.3039633e-05 
2.4010813e-05 1.7332527e-04 1.7446228e-05 
-4.6466616e-06 2.0638607e-04 5.2847066e-05 
-3.5955047e-05 4.7743375e-05 1.2076922e-04 
-6.5670494e-05 -3.6218719e-04 1.2037552e-04 
-8.5318105e-05 -1.0321860e-03 8.4479288e-05 
-1.3407231e-04 -1.9433895e-03 1.9349267e-04 
-1.5095308e-04 -3.0314398e-03 3.9726096e-05 
-2.6634979e-04 -4.1392460e-03 1.4635113e-04 
-2.7662568e-04 -4.7944449e-03 4.1852538e-05 
-2.8503462e-04 -4.7920891e-03 4.5787756e-06 
-2.8469073e-04 -4.6149800e-03 -3.1186908e-05 
-2.7122820e-04 -4.6437681e-03 -9.5257146e-06 
-2.7239858e-04 -4.7458541e-03 -9.6848329e-05 
-2.4847279e-04 -4.4805147e-03 -1.6210230e-04 
-1.9724833e-04 -3.4917230e-03 -1.2984002e-04 
-1.4373017e-04 -2.3014862e-03 -2.2113005e-04 
-9.3564508e-05 -1.2920139e-03 -9.8389282e-05 
-5.0868610e-05 -6.0148939e-04 -1.1875786e-04 
-1.9389250e-05 -1.9076662e-04 -4.9102891e-05 
6.8593299e-06 2.5084337e-05 -5.6140976e-05 
4.1257408e-05 1.2108956e-04 -5.0839524e-05 
2.6283853e-05 1.4747783e-04 -2.0316907e-05 
2.6781223e-05 1.4182838e-04 -5.5934079e-06 
2.7001495e-05 1.2769044e-04 2.0359805e-05 
2.6029875e-05 1.1564555e-04 2.9660476e-05 
2.2731210e-05 1.0432996e-04 4.4883749e-05 
1.2395516e-05 8.7803790e-05 5.3548159e-05 
-8.4993608e-06 6.2248007e-05 5.3232317e-05 
-2.3160861e-05 2.9740489e-05 3.7268179e-05 
-3.2326683e-05 -4.3887080e-06 9.6392287e-06 
-2.8551778e-05 -3.3768039e-05 -2.1883265e-05 
-1.5450471e-05 -5.3418160e-05 -3.9517883e-05 
0.0000000e+00 4.4428911e-05 0.0000000e+00 
0.0000000e+00 5.1081905e-05 0.0000000e+00 
0.0000000e+00 6.6047098e-05 0.0000000e+00 
0.0000000e+00 8.0287115e-05 0.0000000e+00 
0.0000000e+00 8.8356202e-05 0.0000000e+00 
0.0000000e+00 9.1839676e-05 0.0000000e+00 
0.0000000e+00 9.7557568e-05 0.0000000e+00 
0.0000000e+00 1.0874789e-04 0.0000000e+00 
0.0000000e+00 1.1957654e-04 0.0000000e+00 
0.0000000e+00 1.2126007e-04 0.0000000e+00 
0.0000000e+00 1.1039416e-04 0.0000000e+00 
0.0000000e+00 9.2126334e-05 0.0000000e+00 
0.0000000e+00 7.6747543e-05 0.0000000e+00 
0.0000000e+00 7.0912065e-05 0.0000000e+00 
0.0000000e+00 7.0631286e-05 0.0000000e+00 
0.0000000e+00 6.3059568e-05 0.0000000e+00 
0.0000000e+00 3.6991732e-05 0.0000000e+00 
0.0000000e+00 -3.4805305e-06 0.0000000e+00 
0.0000000e+00 -3.9773935e-05 0.0000000e+00 
0.0000000e+00 -5.7111985e-05 0.0000000e+00 
0.0000000e+00 -5.5825989e-05 0.0000000e+00 
0.0000000e+00 -4.8777987e-05 0.0000000e+00 
0.0000000e+00 -4.9386610e-05 0.0000000e+00 
0.0000000e+00 -5.5747929e-05 0.0000000e+00 
0.0000000e+00 -4.8340182e-05 0.0000000e+00 
0.0000000e+00 -7.9847047e-07 0.0000000e+00 
0.0000000e+00 9.8955745e-05 0.0000000e+00 
0.0000000e+00 2.2374668e-04 0.0000000e+00 
0.0000000e+00 3.1307861e-04 0.0000000e+00 
0.0000000e+00 3.0883704e-04 0.0000000e+00 
0.0000000e+00 1.7054999e-04 0.0000000e+00 
0.0000000e+00 -1.3209111e-04 0.0000000e+00 
0.0000000e+00 -6.3989958e-04 0.0000000e+00 
0.0000000e+00 -1.4214286e-03 0.0000000e+00 
0.0000000e+00 -2.5066060e-03 0.0000000e+00 
0.0000000e+00 -3.7545122e-03 0.0000000e+00 
0.0000000e+00 -4.6929936e-03 0.0000000e+00 
0.0000000e+00 -4.8360438e-03 0.0000000e+00 
0.0000000e+00 -4.6946169e-03 0.0000000e+00 
0.0000000e+00 -4.7338987e-03 0.0000000e+00 
0.0000000e+00 -4.9607879e-03 0.0000000e+00 
0.0000000e+00 -4.9070590e-03 0.0000000e+00 
0.0000000e+00 -3.9736782e-03 0.0000000e+00 
0.0000000e+00 -2.6579816e-03 0.0000000e+00 
0.0000000e+00 -1.4452145e-03 0.0000000e+00 
0.0000000e+00 -5.4894533e-04 0.0000000e+00 
0.0000000e+00 1.2374303e-05 0.0000000e+00 
0.0000000e+00 3.1185252e-04 0.0000000e+00 
0.0000000e+00 4.4151794e-04 0.0000000e+00 
0.0000000e+00 4.6984473e-04 0.0000000e+00 
0.0000000e+00 4.3579677e-04 0.0000000e+00 
0.0000000e+00 3.6656766e-04 0.0000000e+00 
0.0000000e+00 2.8764262e-04 0.0000000e+00 
0.0000000e+00 2.2021889e-04 0.0000000e+00 
0.0000000e+00 1.7241821e-04 0.0000000e+00 
0.0000000e+00 1.3579486e-04 0.0000000e+00 
0.0000000e+00 9.5296564e-05 0.0000000e+00 
0.0000000e+00 4.2897129e-05 0.0000000e+00 
0.0000000e+00 -1.7006178e-05 0.0000000e+00 
0.0000000e+00 -6.7766137e-05 0.0000000e+00 
0.0000000e+00 -9.3879702e-05 0.0000000e+00 
0.0000000e+00 -9.6578726e-05 0.0000000e+00 
0.0000000e+00 -8.9751986e-05 0.0000000e+00 
0.0000000e+00 -8.7690256e-05 0.0000000e+00 
0.0000000e+00 -9.2457813e-05 0.0000000e+00 
0.0000000e+00 -8.2890627e-05 0.0000000e+00 
0.0000000e+00 -3.1076423e-05 0.0000000e+00 
0.0000000e+00 6.7866582e-05 0.0000000e+00 
0.0000000e+00 1.7597458e-04 0.0000000e+00 
0.0000000e+00 2.0442439e-04 0.0000000e+00 
0.0000000e+00 4.4938075e-05 0.0000000e+00 
0.0000000e+00 -3.6477591e-04 0.0000000e+00 
0.0000000e+00 -1.0352167e-03 0.0000000e+00 
0.0000000e+00 -1.9483478e-03 0.0000000e+00 
0.0000000e+00 -3.0513150e-03 0.0000000e+00 
0.0000000e+00 -4.1591632e-03 0.0000000e+00 
0.0000000e+00 -4.8266724e-03 0.0000000e+00 
0.0000000e+00 -4.8148497e-03 0.0000000e+00 
0.0000000e+00 -4.6412898e-03 0.0000000e+00 
0.0000000e+00 -4.6641030e-03 0.0000000e+00 
0.0000000e+00 -4.7737323e-03 0.0000000e+00 
0.0000000e+00 -4.5032199e-03 0.0000000e+00 
0.0000000e+00 -3.5147655e-03 0.0000000e+00 
0.0000000e+00 -2.3138360e-03 0.0000000e+00 
0.0000000e+00 -1.2998767e-03 0.0000000e+00 
0.0000000e+00 -6.0309249e-04 0.0000000e+00 
0.0000000e+00 -1.8994350e-04 0.0000000e+00 
0.0000000e+00 2.6228387e-05 0.0000000e+00 
0.0000000e+00 1.2172000e-04 0.0000000e+00 
0.0000000e+00 1.4839928e-04 0.0000000e+00 
0.0000000e+00 1.4266708e-04 0.0000000e+00 
0.0000000e+00 1.2823407e-04 0.0000000e+00 
0.0000000e+00 1.1572049e-04 0.0000000e+00 
0.0000000e+00 1.0417670e-04 0.0000000e+00 
0.0000000e+00 8.7629953e-05 0.0000000e+00 
0.0000000e+00 6.2221057e-05 0.0000000e+00 
0.0000000e+00 2.9683737e-05 0.0000000e+00 
0.0000000e+00 -4.4584726e-06 0.0000000e+00 
0.0000000e+00 -3.3774111e-05 0.0000000e+00 
0.0000000e+00 -5.3315067e-05 0.0000000e+00 
0.0000000e+00 -6.0191313e-05 0.0000000e+00 
3.2007905e-05 -2.5567097e-05 -2.6735031e-05 
-9.1420392e-05 -9.8108395e-04 8.7298511e-05 
0.0000000e+00 0.0000000e+00 0.0000000e+00 
0.0000000e+00 0.0000000e+00 0.0000000e+00 
0.0000000e+00 0.0000000e+00 0.0000000e+00 
0.0000000e+00 0.0000000e+00 0.0000000e+00 
0.0000000e+00 0.0000000e+00 0.0000000e+00 
0.0000000e+00 0.0000000e+00 0.0000000e+00 
0.0000000e+00 0.0000000e+00 0.0000000e+00 
0.0000000e+00 0.0000000e+00 0.0000000e+00 
0.0000000e+00 0.0000000e+00 0.0000000e+00 
0.0000000e+00 0.0000000e+00 0.0000000e+00 
0.0000000e+00 0.0000000e+00 0.0000000e+00 
0.0000000e+00 0.0000000e+00 0.0000000e+00 
0.0000000e+00 0.0000000e+00 0.0000000e+00 
0.0000000e+00 0.0000000e+00 0.0000000e+00 
0.0000000e+00 0.0000000e+00 0.0000000e+00 
0.0000000e+00 0.0000000e+00 0.0000000e+00 
0.0000000e+00 0.0000000e+00 0.0000000e+00 
0.0000000e+00 0.0000000e+00 0.0000000e+00 
0.0000000e+00 0.0000000e+00 0.0000000e+00 
0.0000000e+00 0.0000000e+00 0.0000000e+00 
0.0000000e+00 0.0000000e+00 0.0000000e+00 
0.0000000e+00 0.0000000e+00 0.0000000e+00 
0.0000000e+00 0.0000000e+00 0.0000000e+00 
0.0000000e+00 0.0000000e+00 0.0000000e+00 
0.0000000e+00 0.0000000e+00 0.0000000e+00 
0.0000000e+00 0.0000000e+00 0.0000000e+00 
0.0000000e+00 0.0000000e+00 0.0000000e+00 
0.0000000e+00 0.0000000e+00 0.0000000e+00 
0.0000000e+00 0.0000000e+00 0.0000000e+00 
0.0000000e+00 0.0000000e+00 0.0000000e+00 
0.0000000e+00 0.0000000e+00 0.0000000e+00 
0.0000000e+00 0.0000000e+00 0.0000000e+00 
0.0000000e+00 0.0000000e+00 0.0000000e+00 
0.0000000e+00 0.0000000e+00 0.0000000e+00 
0.0000000e+00 0.0000000e+00 0.0000000e+00 
0.0000000e+00 0.0000000e+00 0.0000000e+00 
0.0000000e+00 0.0000000e+00 0.0000000e+00 
0.0000000e+00 0.0000000e+00 0.0000000e+00 
0.0000000e+00 0.0000000e+00 0.0000000e+00 
0.0000000e+00 0.0000000e+00 0.0000000e+00 
0.0000000e+00 0.0000000e+00 0.0000000e+00 
0.0000000e+00 0.0000000e+00 0.0000000e+00 
0.0000000e+00 0.0000000e+00 0.0000000e+00 
0.0000000e+00 0.0000000e+00 0.0000000e+00 
0.0000000e+00 0.0000000e+00 0.0000000e+00 
0.0000000e+00 0.0000000e+00 0.0000000e+00 
0.0000000e+00 0.0000000e+00 0.0000000e+00 
0.0000000e+00 0.0000000e+00 0.0000000e+00 
0.0000000e+00 0.0000000e+00 0.0000000e+00 
0.0000000e+00 0.0000000e+00 0.0000000e+00 
0.0000000e+00 0.0000000e+00 0.0000000e+00 
0.0000000e+00 0.0000000e+00 0.0000000e+00 
0.0000000e+00 0.0000000e+00 0.0000000e+00 
0.0000000e+00 0.0000000e+00 0.0000000e+00 
0.0000000e+00 0.0000000e+00 0.0000000e+00 
0.0000000e+00 0.0000000e+00 0.0000000e+00 
0.0000000e+00 0.0000000e+00 0.0000000e+00 
0.0000000e+00 0.0000000e+00 0.0000000e+00 
0.0000000e+00 0.0000000e+00 0.0000000e+00 
0.0000000e+00 0.0000000e+00 0.0000000e+00 
0.0000000e+00 0.0000000e+00 0.0000000e+00 
0.0000000e+00 0.0000000e+00 0.0000000e+00 
0.0000000e+00 0.0000000e+00 0.0000000e+00 
0.0000000e+00 0.0000000e+00 0.0000000e+00 
0.0000000e+00 0.0000000e+00 0.0000000e+00 
0.0000000e+00 0.0000000e+00 0.0000000e+00 
0.0000000e+00 0.0000000e+00 0.0000000e+00 
0.0000000e+00 0.0000000e+00 0.0000000e+00 
0.0000000e+00 0.0000000e+00 0.0000000e+00 
0.0000000e+00 0.0000000e+00 0.0000000e+00 
0.0000000e+00 0.0000000e+00 0.0000000e+00 
0.0000000e+00 0.0000000e+00 0.0000000e+00 
0.0000000e+00 0.0000000e+00 0.0000000e+00 
0.0000000e+00 0.0000000e+00 0.0000000e+00 
0.0000000e+00 0.0000000e+00 0.0000000e+00 
0.0000000e+00 0.0000000e+00 0.0000000e+00 
0.0000000e+00 0.0000000e+00 0.0000000e+00 
0.0000000e+00 0.0000000e+00 0.0000000e+00 
0.0000000e+00 0.0000000e+00 0.0000000e+00 
0.0000000e+00 0.0000000e+00 0.0000000e+00 
0.0000000e+00 0.0000000e+00 0.0000000e+00 
0.0000000e+00 0.0000000e+00 0.0000000e+00 
0.0000000e+00 0.0000000e+00 0.0000000e+00 
0.0000000e+00 0.0000000e+00 0.0000000e+00 
0.0000000e+00 0.0000000e+00 0.0000000e+00 
0.0000000e+00 0.0000000e+00 0.0000000e+00 
0.0000000e+00 0.0000000e+00 0.0000000e+00 
0.0000000e+00 0.0000000e+00 0.0000000e+00 
0.0000000e+00 0.0000000e+00 0.0000000e+00 
0.0000000e+00 0.0000000e+00 0.0000000e+00 
0.0000000e+00 0.0000000e+00 0.0000000e+00 
0.0000000e+00 0.0000000e+00 0.0000000e+00 
0.0000000e+00 0.0000000e+00 0.0000000e+00 
0.0000000e+00 0.0000000e+00 0.0000000e+00 
0.0000000e+00 0.0000000e+00 0.0000000e+00 
0.0000000e+00 0.0000000e+00 0.0000000e+00 
0.0000000e+00 0.0000000e+00 0.0000000e+00 
0.0000000e+00 0.0000000e+00 0.0000000e+00 
0.0000000e+00 0.0000000e+00 0.0000000e+00 
0.0000000e+00 0.0000000e+00 0.0000000e+00 
0.0000000e+00 0.0000000e+00 0.0000000e+00 
0.0000000e+00 0.0000000e+00 0.0000000e+00 
0.0000000e+00 0.0000000e+00 0.0000000e+00 
0.0000000e+00 0.0000000e+00 0.0000000e+00 
0.0000000e+00 0.0000000e+00 0.0000000e+00 
0.0000000e+00 0.0000000e+00 0.0000000e+00 
-8.7439253e-07 -3.8350987e-07 -6.5629445e-07 
-1.7159950e-07 6.6946444e-07 -2.2647739e-06 
-1.6266021e-06 1.0167405e-06 -1.3440180e-06 
-1.2149912e-06 1.3563489e-06 -1.4348533e-06 
3.2833536e-06 -2.0265634e-06 -1.4187341e-06 
3.1960551e-06 8.9573001e-07 1.0625198e-06 
3.8466906e-06 -1.5741037e-06 4.6348930e-07 
5.5421269e-06 -4.3650034e-06 -1.2805351e-06 
2.6131695e-06 -1.6365552e-06 -3.5210332e-06 
1.2643713e-06 7.3696903e-08 -5.6762337e-06 
5.8423262e-07 -3.5444421e-06 -3.8448788e-06 
3.6543648e-07 -2.6647258e-06 -4.1568919e-06 
-7.1811414e-08 3.7857499e-06 -9.7534703e-06 
4.0026212e-06 -1.4794079e-05 -1.4956958e-05 
1.2080879e-05 -5.3223775e-06 -1.8567749e-05 
3.2559365e-05 -8.5260872e-06 -1.9651383e-05 
3.9510236e-05 -1.2458844e-05 -9.2699065e-06 
4.6212393e-05 -1.4461808e-05 -2.8455318e-06 
4.9540704e-05 -1.7287592e-05 1.1250022e-06 
4.4233770e-05 -1.4865252e-05 1.5157946e-05 
3.4713812e-05 -1.0775138e-05 1.9104484e-05 
2.2087654e-05 -5.5879441e-06 2.0684211e-05 
1.2279694e-05 -3.4586903e-06 2.0966199e-05 
7.4396044e-06 -3.9111460e-06 1.6675091e-05 
4.5687048e-06 -1.8765791e-06 6.2818976e-06 
3.3898384e-06 -5.3757236e-07 5.3438016e-06 
4.3481705e-06 -1.7379479e-06 5.7702289e-07 
6.9541237e-08 -2.5347149e-06 -3.0168485e-06 
1.2218421e-06 -5.5253777e-06 -5.2852997e-06 
2.2278207e-06 1.5869213e-07 -7.0547917e-06 
4.6600150e-07 -3.1894836e-06 -1.2652265e-05 
5.4340826e-06 -5.9083100e-06 -1.1561168e-05 
4.3452005e-06 -1.0734468e-07 -1.5609179e-05 
1.0946962e-05 -1.6470906e-06 -1.6814296e-05 
2.1109723e-05 -5.9510694e-06 -1.8192319e-05 
3.0753399e-05 -2.7961546e-06 -1.7848593e-05 
3.7694681e-05 -8.8193983e-06 -1.3862341e-05 
4.2889631e-05 -1.5962894e-05 -1.0744595e-05 
4.5228244e-05 -1.2387791e-05 -4.8802372e-07 
3.9499442e-05 -1.4684336e-05 1.2851195e-05 
3.2632026e-05 -1.1783050e-05 1.8336017e-05 
2.2735603e-05 -9.2993660e-06 1.9906525e-05 
1.5652095e-05 -7.7278310e-06 1.9023611e-05 
1.0198167e-05 -3.4712241e-06 1.5154917e-05 
4.9900141e-06 4.6940126e-08 9.4973102e-06 
2.9538107e-06 -9.1483862e-08 7.7284831e-06 
2.8807801e-07 -8.9545824e-07 3.6668102e-06 
-1.3616850e-06 -4.8927592e-07 -6.6900284e-08 
-1.9954448e-06 -2.5424814e-07 -2.3678890e-06 
0.0000000e+00 1.7400391e-05 0.0000000e+00 
0.0000000e+00 9.2905884e-06 0.0000000e+00 
0.0000000e+00 -3.5548442e-08 0.0000000e+00 
0.0000000e+00 -9.7661859e-06 0.0000000e+00 
0.0000000e+00 -1.9599589e-05 0.0000000e+00 
0.0000000e+00 -2.9650384e-05 0.0000000e+00 
0.0000000e+00 -1.0216100e-05 0.0000000e+00 
0.0000000e+00 -2.4166447e-06 0.0000000e+00 
0.0000000e+00 -9.5881642e-06 0.0000000e+00 
0.0000000e+00 1.3845297e-05 0.0000000e+00 
0.0000000e+00 2.5249989e-05 0.0000000e+00 
0.0000000e+00 2.3131595e-05 0.0000000e+00 
0.0000000e+00 4.1777112e-05 0.0000000e+00 
0.0000000e+00 4.9149665e-05 0.0000000e+00 
0.0000000e+00 -2.8697275e-05 0.0000000e+00 
0.0000000e+00 -7.9076024e-05 0.0000000e+00 
0.0000000e+00 -3.3781544e-04 0.0000000e+00 
0.0000000e+00 -4.9570942e-04 0.0000000e+00 
0.0000000e+00 -5.8765005e-04 0.0000000e+00 
0.0000000e+00 -6.1591383e-04 0.0000000e+00 
0.0000000e+00 -4.3881306e-04 0.0000000e+00 
0.0000000e+00 -1.8258311e-04 0.0000000e+00 
0.0000000e+00 -2.7514376e-05 0.0000000e+00 
0.0000000e+00 4.7709644e-05 0.0000000e+00 
0.0000000e+00 4.3260279e-05 0.0000000e+00 
0.0000000e+00 3.4813707e-05 0.0000000e+00 
0.0000000e+00 1.7534552e-05 0.0000000e+00 
0.0000000e+00 -3.4261022e-06 0.0000000e+00 
0.0000000e+00 -3.2675696e-05 0.0000000e+00 
0.0000000e+00 -1.6762422e-05 0.0000000e+00 
0.0000000e+00 4.9371424e-06 0.0000000e+00 
0.0000000e+00 -5.9173555e-05 0.0000000e+00 
0.0000000e+00 -2.5324143e-05 0.0000000e+00 
0.0000000e+00 8.8517872e-06 0.0000000e+00 
0.0000000e+00 -4.3396234e-05 0.0000000e+00 
0.0000000e+00 -2.1390799e-04 0.0000000e+00 
0.0000000e+00 -3.6754753e-04 0.0000000e+00 
0.0000000e+00 -5.4815103e-04 0.0000000e+00 
0.0000000e+00 -5.4893515e-04 0.0000000e+00 
0.0000000e+00 -4.9373659e-04 0.0000000e+00 
0.0000000e+00 -3.5995737e-04 0.0000000e+00 
0.0000000e+00 -1.8314116e-04 0.0000000e+00 
0.0000000e+00 -6.9200178e-05 0.0000000e+00 
0.0000000e+00 -2.3229484e-05 0.0000000e+00 
0.0000000e+00 6.4042724e-06 0.0000000e+00 
0.0000000e+00 2.9450301e-05 0.0000000e+00 
0.0000000e+00 2.9899342e-05 0.0000000e+00 
0.0000000e+00 5.2660043e-06 0.0000000e+00 
0.0000000e+00 -1.3293280e-05 0.0000000e+00 
-1.1320495e-06 -9.1351831e-07 2.0440102e-07 
-1.9146153e-06 -5.7013017e-07 -1.5599800e-06 
-3.0029175e-06 3.2234293e-06 1.6449023e-06 
-2.5874260e-06 6.9388525e-06 2.8940290e-06 
-3.1644172e-06 1.3396443e-06 -3.8350586e-06 
-2.8774057e-06 -1.3873462e-07 -5.8871428e-06 
9.0437013e-08 -3.9914166e-06 -8.2883817e-06 
2.7224382e-06 -1.0674834e-05 -4.2005031e-06 
-1.1770984e-06 5.0884410e-07 -9.4165057e-07 
-5.6095791e-07 7.6464516e-07 -1.5196254e-06 
-1.1908523e-06 1.7050799e-07 -1.4787315e-06 
7.4828911e-08 3.0392937e-06 -9.7527732e-07 
3.9773504e-06 -1.8506232e-06 1.6810121e-06 
7.2953731e-07 2.6023099e-06 -1.0278671e-06 
4.0976920e-06 1.8037302e-06 -4.0243731e-07 
5.8589189e-06 -4.4241492e-06 -2.6131965e-09 
3.1405591e-06 7.7205038e-07 -1.2831653e-06 
2.6037110e-06 -4.8296893e-06 -1.8460800e-06 
-2.1974590e-07 -5.0499925e-06 -6.1890960e-06 
3.0565561e-06 -2.8698864e-06 -1.3691970e-05 
-1.2987916e-06 1.7457463e-06 -1.6960124e-05 
1.5137916e-05 -1.3662405e-05 -2.1886799e-05 
2.8092396e-05 9.8151327e-07 -1.7761951e-05 
2.9508023e-05 -8.9606119e-06 -1.8120238e-05 
3.8325907e-05 -1.3624959e-05 -1.4646812e-05 
4.8309787e-05 -6.2140653e-06 1.2651159e-06 
4.4247219e-05 -1.4825503e-05 8.2182687e-06 
4.1065974e-05 -1.2746395e-05 1.7355242e-05 