# vtk DataFile Version 4.0
vtk output
ASCII
DATASET UNSTRUCTURED_GRID
POINTS 1919 float
0.0000000e+00 0.0000000e+00 0.0000000e+00 
0.0000000e+00 0.0000000e+00 5.0000000e+01 
5.0000000e+00 0.0000000e+00 0.0000000e+00 
5.0000000e+00 0.0000000e+00 5.0000000e+01 
5.0000000e+00 1.0000000e+00 0.0000000e+00 
5.0000000e+00 1.0000000e+00 5.0000000e+01 
0.0000000e+00 1.0000000e+00 0.0000000e+00 
0.0000000e+00 1.0000000e+00 5.0000000e+01 
5.0000000e+00 2.0000000e+00 0.0000000e+00 
5.0000000e+00 2.0000000e+00 5.0000000e+01 
3.0000000e+00 2.0000000e+00 0.0000000e+00 
3.0000000e+00 2.0000000e+00 5.0000000e+01 
0.0000000e+00 2.0000000e+00 0.0000000e+00 
0.0000000e+00 2.0000000e+00 5.0000000e+01 
1.5000000e+00 3.0000000e+00 0.0000000e+00 
1.5000000e+00 3.0000000e+00 5.0000000e+01 
7.5000000e-01 3.0000000e+00 0.0000000e+00 
7.5000000e-01 3.0000000e+00 5.0000000e+01 
0.0000000e+00 3.0000000e+00 0.0000000e+00 
0.0000000e+00 3.0000000e+00 5.0000000e+01 
7.5000000e-01 3.0000000e+00 5.0000000e-01 
7.5000000e-01 3.0000000e+00 1.0000000e+00 
7.5000000e-01 3.0000000e+00 1.5000000e+00 
7.5000000e-01 3.0000000e+00 2.0000000e+00 
7.5000000e-01 3.0000000e+00 2.5000000e+00 
7.5000000e-01 3.0000000e+00 3.0000000e+00 
7.5000000e-01 3.0000000e+00 3.5000000e+00 
7.5000000e-01 3.0000000e+00 4.0000000e+00 
7.5000000e-01 3.0000000e+00 4.5000000e+00 
7.5000000e-01 3.0000000e+00 5.0000000e+00 
7.5000000e-01 3.0000000e+00 5.5000000e+00 
7.5000000e-01 3.0000000e+00 6.0000000e+00 
7.5000000e-01 3.0000000e+00 6.5000000e+00 
7.5000000e-01 3.0000000e+00 7.0000000e+00 
7.5000000e-01 3.0000000e+00 7.5000000e+00 
7.5000000e-01 3.0000000e+00 8.0000000e+00 
7.5000000e-01 3.0000000e+00 8.5000000e+00 
7.5000000e-01 3.0000000e+00 9.0000000e+00 
7.5000000e-01 3.0000000e+00 9.5000000e+00 
7.5000000e-01 3.0000000e+00 1.0000000e+01 
7.5000000e-01 3.0000000e+00 1.0500000e+01 
7.5000000e-01 3.0000000e+00 1.1000000e+01 
7.5000000e-01 3.0000000e+00 1.1500000e+01 
7.5000000e-01 3.0000000e+00 1.2000000e+01 
7.5000000e-01 3.0000000e+00 1.2500000e+01 
7.5000000e-01 3.0000000e+00 1.3000000e+01 
7.5000000e-01 3.0000000e+00 1.3500000e+01 
7.5000000e-01 3.0000000e+00 1.4000000e+01 
7.5000000e-01 3.0000000e+00 1.4500000e+01 
7.5000000e-01 3.0000000e+00 1.5000000e+01 
7.5000000e-01 3.0000000e+00 1.5500000e+01 
7.5000000e-01 3.0000000e+00 1.6000000e+01 
7.5000000e-01 3.0000000e+00 1.6500000e+01 
7.5000000e-01 3.0000000e+00 1.7000000e+01 
7.5000000e-01 3.0000000e+00 1.7500000e+01 
7.5000000e-01 3.0000000e+00 1.8000000e+01 
7.5000000e-01 3.0000000e+00 1.8500000e+01 
7.5000000e-01 3.0000000e+00 1.9000000e+01 
7.5000000e-01 3.0000000e+00 1.9500000e+01 
7.5000000e-01 3.0000000e+00 2.0000000e+01 
7.5000000e-01 3.0000000e+00 2.0500000e+01 
7.5000000e-01 3.0000000e+00 2.1000000e+01 
7.5000000e-01 3.0000000e+00 2.1500000e+01 
7.5000000e-01 3.0000000e+00 2.2000000e+01 
7.5000000e-01 3.0000000e+00 2.2500000e+01 
7.5000000e-01 3.0000000e+00 2.3000000e+01 
7.5000000e-01 3.0000000e+00 2.3500000e+01 
7.5000000e-01 3.0000000e+00 2.4000000e+01 
7.5000000e-01 3.0000000e+00 2.4500000e+01 
7.5000000e-01 3.0000000e+00 2.5000000e+01 
7.5000000e-01 3.0000000e+00 2.5500000e+01 
7.5000000e-01 3.0000000e+00 2.6000000e+01 
7.5000000e-01 3.0000000e+00 2.6500000e+01 
7.5000000e-01 3.0000000e+00 2.7000000e+01 
7.5000000e-01 3.0000000e+00 2.7500000e+01 
7.5000000e-01 3.0000000e+00 2.8000000e+01 
7.5000000e-01 3.0000000e+00 2.8500000e+01 
7.5000000e-01 3.0000000e+00 2.9000000e+01 
7.5000000e-01 3.0000000e+00 2.9500000e+01 
7.5000000e-01 3.0000000e+00 3.0000000e+01 
7.5000000e-01 3.0000000e+00 3.0500000e+01 
7.5000000e-01 3.0000000e+00 3.1000000e+01 
7.5000000e-01 3.0000000e+00 3.1500000e+01 
7.5000000e-01 3.0000000e+00 3.2000000e+01 
7.5000000e-01 3.0000000e+00 3.2500000e+01 
7.5000000e-01 3.0000000e+00 3.3000000e+01 
7.5000000e-01 3.0000000e+00 3.3500000e+01 
7.5000000e-01 3.0000000e+00 3.4000000e+01 
7.5000000e-01 3.0000000e+00 3.4500000e+01 
7.5000000e-01 3.0000000e+00 3.5000000e+01 
7.5000000e-01 3.0000000e+00 3.5500000e+01 
7.5000000e-01 3.0000000e+00 3.6000000e+01 
7.5000000e-01 3.0000000e+00 3.6500000e+01 
7.5000000e-01 3.0000000e+00 3.7000000e+01 
7.5000000e-01 3.0000000e+00 3.7500000e+01 
7.5000000e-01 3.0000000e+00 3.8000000e+01 
7.5000000e-01 3.0000000e+00 3.8500000e+01 
7.5000000e-01 3.0000000e+00 3.9000000e+01 
7.5000000e-01 3.0000000e+00 3.9500000e+01 
7.5000000e-01 3.0000000e+00 4.0000000e+01 
7.5000000e-01 3.0000000e+00 4.0500000e+01 
7.5000000e-01 3.0000000e+00 4.1000000e+01 
7.5000000e-01 3.0000000e+00 4.1500000e+01 
7.5000000e-01 3.0000000e+00 4.2000000e+01 
7.5000000e-01 3.0000000e+00 4.2500000e+01 
7.5000000e-01 3.0000000e+00 4.3000000e+01 
7.5000000e-01 3.0000000e+00 4.3500000e+01 
7.5000000e-01 3.0000000e+00 4.4000000e+01 
7.5000000e-01 3.0000000e+00 4.4500000e+01 
7.5000000e-01 3.0000000e+00 4.5000000e+01 
7.5000000e-01 3.0000000e+00 4.5500000e+01 
7.5000000e-01 3.0000000e+00 4.6000000e+01 
7.5000000e-01 3.0000000e+00 4.6500000e+01 
7.5000000e-01 3.0000000e+00 4.7000000e+01 
7.5000000e-01 3.0000000e+00 4.7500000e+01 
7.5000000e-01 3.0000000e+00 4.8000000e+01 
7.5000000e-01 3.0000000e+00 4.8500000e+01 
7.5000000e-01 3.0000000e+00 4.9000000e+01 
7.5000000e-01 3.0000000e+00 4.9500000e+01 
7.5000000e-01 3.0250001e+00 0.0000000e+00 
7.5000000e-01 3.0250001e+00 5.0000000e-01 
7.5000000e-01 3.0250001e+00 1.0000000e+00 
7.5000000e-01 3.0250001e+00 1.5000000e+00 
7.5000000e-01 3.0250001e+00 2.0000000e+00 
7.5000000e-01 3.0250001e+00 2.5000000e+00 
7.5000000e-01 3.0250001e+00 3.0000000e+00 
7.5000000e-01 3.0250001e+00 3.5000000e+00 
7.5000000e-01 3.0250001e+00 4.0000000e+00 
7.5000000e-01 3.0250001e+00 4.5000000e+00 
7.5000000e-01 3.0250001e+00 5.0000000e+00 
7.5000000e-01 3.0250001e+00 5.5000000e+00 
7.5000000e-01 3.0250001e+00 6.0000000e+00 
7.5000000e-01 3.0250001e+00 6.5000000e+00 
7.5000000e-01 3.0250001e+00 7.0000000e+00 
7.5000000e-01 3.0250001e+00 7.5000000e+00 
7.5000000e-01 3.0250001e+00 8.0000000e+00 
7.5000000e-01 3.0250001e+00 8.5000000e+00 
7.5000000e-01 3.0250001e+00 9.0000000e+00 
7.5000000e-01 3.0250001e+00 9.5000000e+00 
7.5000000e-01 3.0250001e+00 1.0000000e+01 
7.5000000e-01 3.0250001e+00 1.0500000e+01 
7.5000000e-01 3.0250001e+00 1.1000000e+01 
7.5000000e-01 3.0250001e+00 1.1500000e+01 
7.5000000e-01 3.0250001e+00 1.2000000e+01 
7.5000000e-01 3.0250001e+00 1.2500000e+01 
7.5000000e-01 3.0250001e+00 1.3000000e+01 
7.5000000e-01 3.0250001e+00 1.3500000e+01 
7.5000000e-01 3.0250001e+00 1.4000000e+01 
7.5000000e-01 3.0250001e+00 1.4500000e+01 
7.5000000e-01 3.0250001e+00 1.5000000e+01 
7.5000000e-01 3.0250001e+00 1.5500000e+01 
7.5000000e-01 3.0250001e+00 1.6000000e+01 
7.5000000e-01 3.0250001e+00 1.6500000e+01 
7.5000000e-01 3.0250001e+00 1.7000000e+01 
7.5000000e-01 3.0250001e+00 1.7500000e+01 
7.5000000e-01 3.0250001e+00 1.8000000e+01 
7.5000000e-01 3.0250001e+00 1.8500000e+01 
7.5000000e-01 3.0250001e+00 1.9000000e+01 
7.5000000e-01 3.0250001e+00 1.9500000e+01 
7.5000000e-01 3.0250001e+00 2.0000000e+01 
7.5000000e-01 3.0250001e+00 2.0500000e+01 
7.5000000e-01 3.0250001e+00 2.1000000e+01 
7.5000000e-01 3.0250001e+00 2.1500000e+01 
7.5000000e-01 3.0250001e+00 2.2000000e+01 
7.5000000e-01 3.0250001e+00 2.2500000e+01 
7.5000000e-01 3.0250001e+00 2.3000000e+01 
7.5000000e-01 3.0250001e+00 2.3500000e+01 
7.5000000e-01 3.0250001e+00 2.4000000e+01 
7.5000000e-01 3.0250001e+00 2.4500000e+01 
7.5000000e-01 3.0250001e+00 2.5000000e+01 
7.5000000e-01 3.0250001e+00 2.5500000e+01 
7.5000000e-01 3.0250001e+00 2.6000000e+01 
7.5000000e-01 3.0250001e+00 2.6500000e+01 
7.5000000e-01 3.0250001e+00 2.7000000e+01 
7.5000000e-01 3.0250001e+00 2.7500000e+01 
7.5000000e-01 3.0250001e+00 2.8000000e+01 
7.5000000e-01 3.0250001e+00 2.8500000e+01 
7.5000000e-01 3.0250001e+00 2.9000000e+01 
7.5000000e-01 3.0250001e+00 2.9500000e+01 
7.5000000e-01 3.0250001e+00 3.0000000e+01 
7.5000000e-01 3.0250001e+00 3.0500000e+01 
7.5000000e-01 3.0250001e+00 3.1000000e+01 
7.5000000e-01 3.0250001e+00 3.1500000e+01 
7.5000000e-01 3.0250001e+00 3.2000000e+01 
7.5000000e-01 3.0250001e+00 3.2500000e+01 
7.5000000e-01 3.0250001e+00 3.3000000e+01 
7.5000000e-01 3.0250001e+00 3.3500000e+01 
7.5000000e-01 3.0250001e+00 3.4000000e+01 
7.5000000e-01 3.0250001e+00 3.4500000e+01 
7.5000000e-01 3.0250001e+00 3.5000000e+01 
7.5000000e-01 3.0250001e+00 3.5500000e+01 
7.5000000e-01 3.0250001e+00 3.6000000e+01 
7.5000000e-01 3.0250001e+00 3.6500000e+01 
7.5000000e-01 3.0250001e+00 3.7000000e+01 
7.5000000e-01 3.0250001e+00 3.7500000e+01 
7.5000000e-01 3.0250001e+00 3.8000000e+01 
7.5000000e-01 3.0250001e+00 3.8500000e+01 
7.5000000e-01 3.0250001e+00 3.9000000e+01 
7.5000000e-01 3.0250001e+00 3.9500000e+01 
7.5000000e-01 3.0250001e+00 4.0000000e+01 
7.5000000e-01 3.0250001e+00 4.0500000e+01 
7.5000000e-01 3.0250001e+00 4.1000000e+01 
7.5000000e-01 3.0250001e+00 4.1500000e+01 
7.5000000e-01 3.0250001e+00 4.2000000e+01 
7.5000000e-01 3.0250001e+00 4.2500000e+01 
7.5000000e-01 3.0250001e+00 4.3000000e+01 
7.5000000e-01 3.0250001e+00 4.3500000e+01 
7.5000000e-01 3.0250001e+00 4.4000000e+01 
7.5000000e-01 3.0250001e+00 4.4500000e+01 
7.5000000e-01 3.0250001e+00 4.5000000e+01 
7.5000000e-01 3.0250001e+00 4.5500000e+01 
7.5000000e-01 3.0250001e+00 4.6000000e+01 
7.5000000e-01 3.0250001e+00 4.6500000e+01 
7.5000000e-01 3.0250001e+00 4.7000000e+01 
7.5000000e-01 3.0250001e+00 4.7500000e+01 
7.5000000e-01 3.0250001e+00 4.8000000e+01 
7.5000000e-01 3.0250001e+00 4.8500000e+01 
7.5000000e-01 3.0250001e+00 4.9000000e+01 
7.5000000e-01 3.0250001e+00 4.9500000e+01 
7.5000000e-01 3.0250001e+00 5.0000000e+01 
3.0000000e+00 2.0000000e+00 3.6000000e+01 
8.0487806e-01 3.0000000e+00 3.6000000e+01 
0.0000000e+00 0.0000000e+00 1.0000000e+00 
0.0000000e+00 0.0000000e+00 2.0000000e+00 
0.0000000e+00 0.0000000e+00 3.0000000e+00 
0.0000000e+00 0.0000000e+00 4.0000000e+00 
0.0000000e+00 0.0000000e+00 5.0000000e+00 
0.0000000e+00 0.0000000e+00 6.0000000e+00 
0.0000000e+00 0.0000000e+00 7.0000000e+00 
0.0000000e+00 0.0000000e+00 8.0000000e+00 
[...]
POINT_DATA 1919
FIELD FieldData 3
DISPLACEMENT 3 1919  float
0.0000000e+00 0.0000000e+00 0.0000000e+00 
0.0000000e+00 0.0000000e+00 0.0000000e+00 
0.0000000e+00 0.0000000e+00 0.0000000e+00 
0.0000000e+00 0.0000000e+00 0.0000000e+00 
2.3301412e-07 -1.3745059e-06 -1.5553366e-06 
-2.6880886e-07 1.1045202e-07 -8.5043132e-07 
0.0000000e+00 1.4466495e-05 0.0000000e+00 
0.0000000e+00 1.7202692e-06 0.0000000e+00 
5.8542895e-07 2.1981848e-06 1.7727085e-06 
-8.6204892e-09 -7.0801923e-07 -6.2870885e-07 
-1.5732587e-07 3.9350571e-06 5.5344631e-06 
-1.1858238e-07 1.4014845e-06 -3.5755222e-06 
0.0000000e+00 1.1105103e-05 0.0000000e+00 
0.0000000e+00 3.2852447e-06 0.0000000e+00 
1.0082563e-05 3.2580145e-05 2.4342884e-05 
1.0933026e-06 6.8238310e-06 -3.4050822e-06 
4.2703541e-06 1.5588425e-05 3.0555337e-05 
-4.1789017e-06 -1.1129675e-05 -5.1133469e-08 
0.0000000e+00 3.9795748e-05 0.0000000e+00 
0.0000000e+00 8.9599616e-06 0.0000000e+00 
-3.5245021e-06 -4.2129477e-06 2.4527693e-05 
-1.5300067e-05 -4.8640577e-05 2.5658544e-05 
-1.9498379e-05 -8.9787267e-05 3.4953962e-05 
-2.7749449e-05 -1.1033777e-04 2.4278897e-05 
-4.5479257e-05 -1.1404147e-04 2.5485600e-05 
-4.4309189e-05 -1.2473491e-04 1.3003652e-06 
-3.7028902e-05 -1.5711092e-04 -1.5720359e-05 
-3.6734971e-05 -1.9260138e-04 -3.7253565e-05 
-2.9052815e-05 -1.9813349e-04 -4.9617316e-05 
-3.0400946e-05 -1.5834643e-04 -5.0631050e-05 
-2.2222008e-05 -8.4782216e-05 -5.7281417e-05 
-6.0695570e-06 -5.6910030e-06 -6.1377410e-05 
3.9114343e-06 5.8140773e-05 -7.3305062e-05 
2.6112532e-06 1.0749936e-04 -5.3391501e-05 
2.3031136e-05 1.6527815e-04 -4.7928253e-05 
2.3799905e-05 2.5198670e-04 3.2347534e-06 
2.0850863e-05 3.4591643e-04 4.5810342e-05 
3.0344758e-05 3.6349604e-04 5.9287333e-05 
3.9029754e-05 1.9526016e-04 1.1269566e-04 
9.9362860e-06 -2.5172491e-04 1.5687839e-04 
-3.5023164e-05 -1.0075611e-03 3.1542455e-04 
-1.4010393e-04 -2.0132491e-03 2.6578802e-04 
-1.7732386e-04 -3.1835281e-03 4.1774363e-04 
-2.8361182e-04 -4.2679547e-03 2.3187553e-04 
-3.3745141e-04 -4.9047852e-03 2.2674289e-04 
-2.9573025e-04 -4.9158358e-03 1.5098945e-04 
-2.9954920e-04 -4.8450641e-03 7.5436430e-05 
-2.8353874e-04 -4.9268133e-03 -2.5513491e-05 
-2.7503836e-04 -5.0271605e-03 -4.4791810e-05 
-2.5724806e-04 -4.6373545e-03 -1.1320833e-04 
-2.2191797e-04 -3.5896066e-03 -2.4202470e-04 
-1.6676603e-04 -2.3563914e-03 -1.5248907e-04 
-1.1283594e-04 -1.3288690e-03 -2.5009608e-04 
-7.3385912e-05 -6.0563936e-04 -1.5699262e-04 
-3.9632050e-05 -1.6687806e-04 -1.5073754e-04 
-1.6426609e-05 5.1451880e-05 -8.9208334e-05 
-1.7130363e-07 1.1301273e-04 -4.9484490e-05 
-2.4194138e-05 8.0205944e-05 -1.2565535e-05 
-4.0850206e-05 4.6311916e-06 1.7405131e-05 
-5.9212780e-05 -8.5425861e-05 3.1787727e-06 
-5.8109006e-05 -1.7676019e-04 -7.5371318e-06 
-6.8670910e-05 -2.6621946e-04 -4.0228773e-05 
-6.1587052e-05 -3.4376699e-04 -2.5614978e-05 
-5.6611629e-05 -3.9463979e-04 -8.6575992e-06 
-5.9606184e-05 -4.0931060e-04 1.1670849e-05 
-6.5252403e-05 -3.9406377e-04 7.1314221e-06 
-4.9667673e-05 -3.6278160e-04 -2.5176096e-05 
-5.3388128e-05 -3.3176932e-04 -5.1698808e-05 
-4.6530713e-05 -2.9618599e-04 -7.6328790e-05 
-5.1314611e-05 -2.3892023e-04 -7.9892772e-05 
-5.9216782e-05 -1.5274990e-04 -9.1307615e-05 
-5.0872219e-05 -4.9283339e-05 -7.9396108e-05 
-3.3590582e-05 4.5522858e-05 -8.7069275e-05 
-9.6493368e-06 1.1235086e-04 -8.4573265e-05 
2.7375640e-05 1.6288577e-04 -9.6833806e-05 
3.5413472e-05 2.1436083e-04 -5.4809971e-05 
3.1589658e-05 2.6411487e-04 -1.8915660e-05 
2.6968726e-05 2.6689196e-04 3.2105625e-05 
2.8275126e-05 1.1681874e-04 1.3467133e-04 
-2.1552667e-06 -3.2253459e-04 1.5153621e-04 
-3.7424012e-05 -1.1354416e-03 2.8305099e-04 
-1.4511886e-04 -2.2701030e-03 2.2283731e-04 
-2.0135658e-04 -3.5563970e-03 3.6467746e-04 
-3.0938745e-04 -4.5766877e-03 1.8190508e-04 
-3.3744026e-04 -4.9476675e-03 1.7310161e-04 
-3.1772579e-04 -4.8499284e-03 1.2247691e-04 
-3.2302018e-04 -4.8510614e-03 4.4241253e-05 
-3.3794862e-04 -5.0284769e-03 -2.9119499e-05 
-3.4050533e-04 -5.1067318e-03 -9.0223424e-05 
1.1360562e-05 -4.5284610e-03 -2.2901253e-04 
-1.4511266e-04 -3.3627735e-03 -1.5362233e-04 
-1.0014956e-04 -2.1379692e-03 -1.1634903e-04 
-7.7359087e-05 -1.1268264e-03 -2.2980441e-04 
-5.5045224e-05 -4.0023515e-04 -1.6566381e-04 
-4.0103572e-05 4.1590149e-05 -2.0054616e-04 
-1.7059452e-05 2.5238306e-04 -1.5457232e-04 
1.1020481e-05 3.0276051e-04 -1.2704667e-04 
2.0038979e-05 2.6592435e-04 -9.1780654e-05 
2.6083469e-05 1.9707467e-04 -4.7539335e-05 
2.3260523e-05 1.2268493e-04 -2.5243755e-05 
1.2329752e-05 5.1734201e-05 -4.0769010e-06 
2.1986291e-06 -1.0416780e-05 1.0888328e-06 
8.1843054e-06 -5.7020781e-05 2.6758744e-05 
7.8896737e-06 -8.2456107e-05 3.8131304e-05 
-1.7476435e-06 -8.5791726e-05 4.3291573e-05 
-3.3047465e-06 -7.1651222e-05 3.6555524e-05 
-7.2543048e-06 -4.5802535e-05 1.5245296e-05 
-3.5057567e-06 -1.4750013e-05 -1.2853375e-05 
2.4635731e-06 1.5104456e-05 -9.5264795e-06 
3.5862056e-06 3.7131991e-05 -5.6056506e-06 
-6.1083040e-07 4.6002093e-05 2.5795117e-07 
-1.9179668e-06 4.1569507e-05 5.8817623e-06 
-4.1366006e-06 2.7415739e-05 7.6989982e-06 
-3.5593750e-06 1.0327010e-05 4.7218605e-06 
-8.0836838e-07 -3.7603636e-06 1.0664531e-06 
1.9856448e-06 -1.2205431e-05 -4.7452172e-06 
5.3176964e-06 -1.4814620e-05 -6.5686277e-06 
5.0361996e-06 -1.3896458e-05 -6.0960451e-06 
3.1858522e-06 -1.1988574e-05 -2.6124180e-06 
0.0000000e+00 1.4657267e-05 0.0000000e+00 
0.0000000e+00 -4.7316580e-06 0.0000000e+00 
0.0000000e+00 -4.8166647e-05 0.0000000e+00 
0.0000000e+00 -8.8781992e-05 0.0000000e+00 
0.0000000e+00 -1.0933799e-04 0.0000000e+00 
0.0000000e+00 -1.1440473e-04 0.0000000e+00 
0.0000000e+00 -1.2634647e-04 0.0000000e+00 
0.0000000e+00 -1.5802030e-04 0.0000000e+00 
0.0000000e+00 -1.9202221e-04 0.0000000e+00 
0.0000000e+00 -1.9697804e-04 0.0000000e+00 
0.0000000e+00 -1.5745936e-04 0.0000000e+00 
0.0000000e+00 -8.4840307e-05 0.0000000e+00 
0.0000000e+00 -6.5475519e-06 0.0000000e+00 
0.0000000e+00 5.6920799e-05 0.0000000e+00 
0.0000000e+00 1.0726772e-04 0.0000000e+00 
0.0000000e+00 1.6692656e-04 0.0000000e+00 
0.0000000e+00 2.5494758e-04 0.0000000e+00 
0.0000000e+00 3.4811284e-04 0.0000000e+00 
0.0000000e+00 3.6393796e-04 0.0000000e+00 
0.0000000e+00 1.9228749e-04 0.0000000e+00 
0.0000000e+00 -2.5703694e-04 0.0000000e+00 
0.0000000e+00 -1.0104090e-03 0.0000000e+00 
0.0000000e+00 -2.0221213e-03 0.0000000e+00 
0.0000000e+00 -3.1959291e-03 0.0000000e+00 
0.0000000e+00 -4.2970437e-03 0.0000000e+00 
0.0000000e+00 -4.9293102e-03 0.0000000e+00 
0.0000000e+00 -4.9457424e-03 0.0000000e+00 
0.0000000e+00 -4.8650270e-03 0.0000000e+00 
0.0000000e+00 -4.9523292e-03 0.0000000e+00 
0.0000000e+00 -5.0497139e-03 0.0000000e+00 
0.0000000e+00 -4.6657291e-03 0.0000000e+00 
0.0000000e+00 -3.6077606e-03 0.0000000e+00 
0.0000000e+00 -2.3701789e-03 0.0000000e+00 
0.0000000e+00 -1.3340133e-03 0.0000000e+00 
0.0000000e+00 -6.0742628e-04 0.0000000e+00 
0.0000000e+00 -1.6705695e-04 0.0000000e+00 
0.0000000e+00 5.1410207e-05 0.0000000e+00 
0.0000000e+00 1.1376702e-04 0.0000000e+00 
0.0000000e+00 8.1698097e-05 0.0000000e+00 
0.0000000e+00 5.5590549e-06 0.0000000e+00 
0.0000000e+00 -8.5040105e-05 0.0000000e+00 
0.0000000e+00 -1.7741036e-04 0.0000000e+00 
0.0000000e+00 -2.6678928e-04 0.0000000e+00 
0.0000000e+00 -3.4370320e-04 0.0000000e+00 
0.0000000e+00 -3.9396848e-04 0.0000000e+00 
0.0000000e+00 -4.0886167e-04 0.0000000e+00 
0.0000000e+00 -3.9385029e-04 0.0000000e+00 
0.0000000e+00 -3.6387326e-04 0.0000000e+00 
0.0000000e+00 -3.3268283e-04 0.0000000e+00 
0.0000000e+00 -2.9627560e-04 0.0000000e+00 
0.0000000e+00 -2.3843457e-04 0.0000000e+00 
0.0000000e+00 -1.5177400e-04 0.0000000e+00 
0.0000000e+00 -4.9007085e-05 0.0000000e+00 
0.0000000e+00 4.4305889e-05 0.0000000e+00 
0.0000000e+00 1.1182945e-04 0.0000000e+00 
0.0000000e+00 1.6325784e-04 0.0000000e+00 
0.0000000e+00 2.1607291e-04 0.0000000e+00 
0.0000000e+00 2.6737814e-04 0.0000000e+00 
0.0000000e+00 2.6934300e-04 0.0000000e+00 
0.0000000e+00 1.1544057e-04 0.0000000e+00 
0.0000000e+00 -3.2877078e-04 0.0000000e+00 
0.0000000e+00 -1.1430449e-03 0.0000000e+00 
0.0000000e+00 -2.2844861e-03 0.0000000e+00 
0.0000000e+00 -3.5687177e-03 0.0000000e+00 
0.0000000e+00 -4.6050861e-03 0.0000000e+00 
0.0000000e+00 -4.9723345e-03 0.0000000e+00 
0.0000000e+00 -4.8825182e-03 0.0000000e+00 
0.0000000e+00 -4.8705400e-03 0.0000000e+00 
0.0000000e+00 -5.0565405e-03 0.0000000e+00 
0.0000000e+00 -5.1315972e-03 0.0000000e+00 
0.0000000e+00 -4.5470195e-03 0.0000000e+00 
0.0000000e+00 -3.3823934e-03 0.0000000e+00 
0.0000000e+00 -2.1477719e-03 0.0000000e+00 
0.0000000e+00 -1.1301701e-03 0.0000000e+00 
0.0000000e+00 -4.0306224e-04 0.0000000e+00 
0.0000000e+00 4.0946165e-05 0.0000000e+00 
0.0000000e+00 2.5289995e-04 0.0000000e+00 
0.0000000e+00 3.0406087e-04 0.0000000e+00 
0.0000000e+00 2.6737479e-04 0.0000000e+00 
0.0000000e+00 1.9778598e-04 0.0000000e+00 
0.0000000e+00 1.2276061e-04 0.0000000e+00 
0.0000000e+00 5.1728934e-05 0.0000000e+00 
0.0000000e+00 -1.0238132e-05 0.0000000e+00 
0.0000000e+00 -5.6780085e-05 0.0000000e+00 
0.0000000e+00 -8.2297935e-05 0.0000000e+00 
0.0000000e+00 -8.5828899e-05 0.0000000e+00 
0.0000000e+00 -7.1611736e-05 0.0000000e+00 
0.0000000e+00 -4.5758086e-05 0.0000000e+00 
0.0000000e+00 -1.4730031e-05 0.0000000e+00 
0.0000000e+00 1.4979108e-05 0.0000000e+00 
0.0000000e+00 3.6816942e-05 0.0000000e+00 
0.0000000e+00 4.5830049e-05 0.0000000e+00 
0.0000000e+00 4.1482384e-05 0.0000000e+00 
0.0000000e+00 2.7507866e-05 0.0000000e+00 
0.0000000e+00 1.0495077e-05 0.0000000e+00 
0.0000000e+00 -3.6601109e-06 0.0000000e+00 
0.0000000e+00 -1.2092534e-05 0.0000000e+00 
0.0000000e+00 -1.4791650e-05 0.0000000e+00 
0.0000000e+00 -1.3919197e-05 0.0000000e+00 
0.0000000e+00 -1.2060877e-05 0.0000000e+00 
0.0000000e+00 -1.1188495e-05 0.0000000e+00 
3.0663545e-05 -6.2251282e-05 3.2480642e-05 
-1.0987806e-04 -1.9850212e-03 -1.2860181e-04 
0.0000000e+00 0.0000000e+00 0.0000000e+00 
0.0000000e+00 0.0000000e+00 0.0000000e+00 
0.0000000e+00 0.0000000e+00 0.0000000e+00 
0.0000000e+00 0.0000000e+00 0.0000000e+00 
0.0000000e+00 0.0000000e+00 0.0000000e+00 
0.0000000e+00 0.0000000e+00 0.0000000e+00 
0.0000000e+00 0.0000000e+00 0.0000000e+00 
0.0000000e+00 0.0000000e+00 0.0000000e+00 
0.0000000e+00 0.0000000e+00 0.0000000e+00 
0.0000000e+00 0.0000000e+00 0.0000000e+00 
0.0000000e+00 0.0000000e+00 0.0000000e+00 
0.0000000e+00 0.0000000e+00 0.0000000e+00 
0.0000000e+00 0.0000000e+00 0.0000000e+00 
0.0000000e+00 0.0000000e+00 0.0000000e+00 
0.0000000e+00 0.0000000e+00 0.0000000e+00 
0.0000000e+00 0.0000000e+00 0.0000000e+00 
0.0000000e+00 0.0000000e+00 0.0000000e+00 
0.0000000e+00 0.0000000e+00 0.0000000e+00 
0.0000000e+00 0.0000000e+00 0.0000000e+00 
0.0000000e+00 0.0000000e+00 0.0000000e+00 
0.0000000e+00 0.0000000e+00 0.0000000e+00 
0.0000000e+00 0.0000000e+00 0.0000000e+00 
0.0000000e+00 0.0000000e+00 0.0000000e+00 
0.0000000e+00 0.0000000e+00 0.0000000e+00 
0.0000000e+00 0.0000000e+00 0.0000000e+00 
0.0000000e+00 0.0000000e+00 0.0000000e+00 
0.0000000e+00 0.0000000e+00 0.0000000e+00 
0.0000000e+00 0.0000000e+00 0.0000000e+00 
0.0000000e+00 0.0000000e+00 0.0000000e+00 
0.0000000e+00 0.0000000e+00 0.0000000e+00 
0.0000000e+00 0.0000000e+00 0.0000000e+00 
0.0000000e+00 0.0000000e+00 0.0000000e+00 
0.0000000e+00 0.0000000e+00 0.0000000e+00 
0.0000000e+00 0.0000000e+00 0.0000000e+00 
0.0000000e+00 0.0000000e+00 0.0000000e+00 
0.0000000e+00 0.0000000e+00 0.0000000e+00 
0.0000000e+00 0.0000000e+00 0.0000000e+00 
0.0000000e+00 0.0000000e+00 0.0000000e+00 
0.0000000e+00 0.0000000e+00 0.0000000e+00 
0.0000000e+00 0.0000000e+00 0.0000000e+00 
0.0000000e+00 0.0000000e+00 0.0000000e+00 
0.0000000e+00 0.0000000e+00 0.0000000e+00 
0.0000000e+00 0.0000000e+00 0.0000000e+00 
0.0000000e+00 0.0000000e+00 0.0000000e+00 
0.0000000e+00 0.0000000e+00 0.0000000e+00 
0.0000000e+00 0.0000000e+00 0.0000000e+00 
0.0000000e+00 0.0000000e+00 0.0000000e+00 
0.0000000e+00 0.0000000e+00 0.0000000e+00 
0.0000000e+00 0.0000000e+00 0.0000000e+00 
0.0000000e+00 0.0000000e+00 0.0000000e+00 
0.0000000e+00 0.0000000e+00 0.0000000e+00 
0.0000000e+00 0.0000000e+00 0.0000000e+00 
0.0000000e+00 0.0000000e+00 0.0000000e+00 
0.0000000e+00 0.0000000e+00 0.0000000e+00 
0.0000000e+00 0.0000000e+00 0.0000000e+00 
0.0000000e+00 0.0000000e+00 0.0000000e+00 
0.0000000e+00 0.0000000e+00 0.0000000e+00 
0.0000000e+00 0.0000000e+00 0.0000000e+00 
0.0000000e+00 0.0000000e+00 0.0000000e+00 
0.0000000e+00 0.0000000e+00 0.0000000e+00 
0.0000000e+00 0.0000000e+00 0.0000000e+00 
0.0000000e+00 0.0000000e+00 0.0000000e+00 
0.0000000e+00 0.0000000e+00 0.0000000e+00 
0.0000000e+00 0.0000000e+00 0.0000000e+00 
0.0000000e+00 0.0000000e+00 0.0000000e+00 
0.0000000e+00 0.0000000e+00 0.0000000e+00 
0.0000000e+00 0.0000000e+00 0.0000000e+00 
0.0000000e+00 0.0000000e+00 0.0000000e+00 
0.0000000e+00 0.0000000e+00 0.0000000e+00 
0.0000000e+00 0.0000000e+00 0.0000000e+00 
0.0000000e+00 0.0000000e+00 0.0000000e+00 
0.0000000e+00 0.0000000e+00 0.0000000e+00 
0.0000000e+00 0.0000000e+00 0.0000000e+00 
0.0000000e+00 0.0000000e+00 0.0000000e+00 
0.0000000e+00 0.0000000e+00 0.0000000e+00 
0.0000000e+00 0.0000000e+00 0.0000000e+00 
0.0000000e+00 0.0000000e+00 0.0000000e+00 
0.0000000e+00 0.0000000e+00 0.0000000e+00 
0.0000000e+00 0.0000000e+00 0.0000000e+00 
0.0000000e+00 0.0000000e+00 0.0000000e+00 
0.0000000e+00 0.0000000e+00 0.0000000e+00 
0.0000000e+00 0.0000000e+00 0.0000000e+00 
0.0000000e+00 0.0000000e+00 0.0000000e+00 
0.0000000e+00 0.0000000e+00 0.0000000e+00 
0.0000000e+00 0.0000000e+00 0.0000000e+00 
0.0000000e+00 0.0000000e+00 0.0000000e+00 
0.0000000e+00 0.0000000e+00 0.0000000e+00 
0.0000000e+00 0.0000000e+00 0.0000000e+00 
0.0000000e+00 0.0000000e+00 0.0000000e+00 
0.0000000e+00 0.0000000e+00 0.0000000e+00 
0.0000000e+00 0.0000000e+00 0.0000000e+00 
0.0000000e+00 0.0000000e+00 0.0000000e+00 
0.0000000e+00 0.0000000e+00 0.0000000e+00 
0.0000000e+00 0.0000000e+00 0.0000000e+00 
0.0000000e+00 0.0000000e+00 0.0000000e+00 
0.0000000e+00 0.0000000e+00 0.0000000e+00 
0.0000000e+00 0.0000000e+00 0.0000000e+00 
0.0000000e+00 0.0000000e+00 0.0000000e+00 
0.0000000e+00 0.0000000e+00 0.0000000e+00 
0.0000000e+00 0.0000000e+00 0.0000000e+00 
0.0000000e+00 0.0000000e+00 0.0000000e+00 
0.0000000e+00 0.0000000e+00 0.0000000e+00 
0.0000000e+00 0.0000000e+00 0.0000000e+00 
0.0000000e+00 0.0000000e+00 0.0000000e+00 
0.0000000e+00 0.0000000e+00 0.0000000e+00 
0.0000000e+00 0.0000000e+00 0.0000000e+00 
-2.6460564e-06 1.8916882e-06 3.8631374e-06 
-5.1858169e-06 2.6336716e-07 2.2224169e-06 
-2.3373334e-06 -2.6406983e-06 1.5505561e-06 
-1.3255031e-06 -4.3237569e-06 5.7582797e-06 
-5.5620726e-06 5.9380991e-06 4.4504372e-07 
-2.0175969e-06 -6.6559937e-06 1.3434143e-06 
-1.3477060e-06 -4.0500908e-08 5.2286470e-07 
5.0879316e-06 6.6725147e-07 -4.3261125e-06 
1.4403398e-05 -6.8904774e-06 -5.7730608e-06 
2.1503387e-05 -1.1203642e-05 -1.1666104e-05 
4.2497857e-05 -1.5189675e-05 -1.5911537e-05 
5.3015130e-05 -1.4962290e-05 -1.1375751e-05 
5.4674820e-05 -1.6791191e-05 -2.3983380e-06 
5.1160780e-05 -1.4673211e-05 4.8533830e-06 
4.4454679e-05 -1.0809126e-05 1.4226415e-05 
2.3194911e-05 -5.4765701e-06 1.3826205e-05 
1.2165890e-05 -4.9803066e-06 4.3109899e-06 
4.1660164e-06 -4.3073369e-06 -1.6015991e-06 
1.5837010e-06 8.3754611e-07 -3.3534520e-06 
2.7491676e-06 3.2632913e-06 -4.2750830e-06 
-4.5881669e-07 4.1224002e-06 7.0830458e-07 
-6.2408167e-06 2.8596592e-06 2.7668091e-06 
-4.7635635e-06 -3.2941973e-06 -2.3952800e-06 
-4.9750852e-06 -2.0227935e-06 -1.2750910e-07 
-4.5007259e-06 1.4809276e-06 1.8997174e-06 
-4.0848040e-06 -2.7319077e-06 -1.1277689e-06 
-7.2525199e-06 7.4153894e-07 -1.6191753e-07 
3.6628962e-06 -2.2521153e-06 -5.4915186e-06 
1.8207567e-05 -5.8580940e-06 -7.6580936e-06 
2.5841051e-05 -1.0567775e-05 -1.0111410e-05 
4.3828197e-05 -1.2086594e-05 -3.9187121e-06 
5.2365449e-05 -1.6141168e-05 2.9655944e-06 
5.3062256e-05 -1.8576535e-05 1.0648661e-05 
5.0079361e-05 -2.0584366e-05 1.4838283e-05 
4.1900148e-05 -1.7084312e-05 1.5402946e-05 
2.8591807e-05 -1.1541818e-05 1.3863372e-05 
1.5873775e-05 -4.1512426e-06 8.1883627e-06 
8.2859851e-06 -5.7119473e-07 3.6282165e-06 
4.3421494e-07 3.4706493e-06 -1.7127535e-06 
-4.1993053e-06 3.8744620e-06 -4.4610324e-06 
-4.1098265e-06 1.5529329e-06 -2.4741564e-06 
-1.2209894e-06 -1.2448526e-06 -4.3224460e-07 
2.1541296e-06 -2.8996926e-06 2.8278080e-06 
2.0314917e-06 -7.8526836e-07 4.7045564e-06 
1.5352393e-06 7.0647070e-07 4.3917485e-06 
6.6358490e-07 2.0353673e-07 2.2251158e-06 
-1.4582714e-07 -1.0545368e-06 -2.1530086e-07 
-5.3773192e-07 -7.0300452e-08 -1.3220199e-06 
-5.2794883e-07 6.8971798e-07 -1.7755281e-06 
0.0000000e+00 2.6926525e-06 0.0000000e+00 
0.0000000e+00 8.5646525e-06 0.0000000e+00 
0.0000000e+00 1.9389728e-07 0.0000000e+00 
0.0000000e+00 -1.4749986e-05 0.0000000e+00 
0.0000000e+00 1.6926481e-06 0.0000000e+00 
0.0000000e+00 3.6958718e-05 0.0000000e+00 
0.0000000e+00 4.8561411e-05 0.0000000e+00 
0.0000000e+00 5.2370971e-05 0.0000000e+00 
0.0000000e+00 6.6815795e-05 0.0000000e+00 
0.0000000e+00 -8.1708116e-05 0.0000000e+00 
0.0000000e+00 -2.7685487e-04 0.0000000e+00 
0.0000000e+00 -5.2476913e-04 0.0000000e+00 
0.0000000e+00 -6.4513565e-04 0.0000000e+00 
0.0000000e+00 -6.2672107e-04 0.0000000e+00 
0.0000000e+00 -5.1634241e-04 0.0000000e+00 
0.0000000e+00 -2.9858603e-04 0.0000000e+00 
0.0000000e+00 -9.7414370e-05 0.0000000e+00 
0.0000000e+00 -3.8407566e-06 0.0000000e+00 
0.0000000e+00 4.6774607e-05 0.0000000e+00 
0.0000000e+00 3.7582904e-05 0.0000000e+00 
0.0000000e+00 1.4967061e-05 0.0000000e+00 
0.0000000e+00 -1.3138718e-05 0.0000000e+00 
0.0000000e+00 -3.4396719e-05 0.0000000e+00 
0.0000000e+00 -2.6312848e-05 0.0000000e+00 
0.0000000e+00 1.7072518e-05 0.0000000e+00 
0.0000000e+00 1.1246897e-05 0.0000000e+00 
0.0000000e+00 1.4879211e-05 0.0000000e+00 
0.0000000e+00 3.0668765e-05 0.0000000e+00 
0.0000000e+00 4.1091469e-05 0.0000000e+00 
0.0000000e+00 -1.0986997e-04 0.0000000e+00 
0.0000000e+00 -2.9673136e-04 0.0000000e+00 
0.0000000e+00 -4.3693976e-04 0.0000000e+00 
0.0000000e+00 -5.6591240e-04 0.0000000e+00 
0.0000000e+00 -5.5630092e-04 0.0000000e+00 
0.0000000e+00 -4.5413864e-04 0.0000000e+00 
0.0000000e+00 -2.9352139e-04 0.0000000e+00 
0.0000000e+00 -9.8657467e-05 0.0000000e+00 
0.0000000e+00 1.2097112e-05 0.0000000e+00 
0.0000000e+00 3.8662929e-05 0.0000000e+00 
0.0000000e+00 2.3068249e-05 0.0000000e+00 
0.0000000e+00 1.6197581e-06 0.0000000e+00 
0.0000000e+00 -1.3802372e-05 0.0000000e+00 
0.0000000e+00 -1.7539132e-05 0.0000000e+00 
0.0000000e+00 -3.8622316e-06 0.0000000e+00 
0.0000000e+00 1.0534925e-05 0.0000000e+00 
0.0000000e+00 8.4542953e-06 0.0000000e+00 
0.0000000e+00 -1.2285346e-06 0.0000000e+00 
0.0000000e+00 -5.1003326e-06 0.0000000e+00 
0.0000000e+00 -3.1837826e-06 0.0000000e+00 
-2.0681309e-06 3.0172382e-06 1.7305208e-06 
-3.8526596e-06 1.9172846e-06 5.8306837e-06 
-2.9152593e-06 1.7356515e-06 1.7247864e-06 
-1.4328466e-06 4.2984780e-06 -1.4934413e-08 
-2.6736805e-07 7.8567365e-07 -1.6607765e-06 
6.1481913e-08 1.2165399e-06 -1.5640895e-06 
6.2492666e-07 1.5681208e-06 -2.4118555e-07 
4.2468878e-07 1.4012835e-06 6.7545687e-07 
-1.2969879e-06 -8.7587938e-07 1.8442133e-06 
-3.4215802e-06 1.4829410e-06 -5.4146477e-07 
2.7619814e-07 -8.3326665e-07 4.1310582e-06 
-3.4127079e-06 -4.8800539e-06 7.1295681e-06 
-3.4759735e-06 4.8765210e-06 5.6551391e-07 
7.1940226e-06 -1.4994982e-05 3.9867705e-06 
1.2890420e-05 1.8863287e-06 -1.5294243e-07 
1.0473161e-05 -1.1509092e-06 1.1386487e-06 
1.9784966e-05 -1.3409507e-05 -4.9376927e-06 
3.4938628e-05 -8.1115340e-06 -5.2691607e-06 
4.6172489e-05 -1.8286826e-05 -1.1182004e-05 
5.2593521e-05 -1.5750544e-05 -1.2487287e-05 
5.1485084e-05 -9.8167093e-06 -1.3086719e-06 
3.9621533e-05 -1.1342722e-05 6.3561356e-06 
2.4249011e-05 -5.1698062e-06 8.9948953e-06 
1.7987491e-05 3.8683720e-06 9.3174058e-06 
8.6519203e-06 1.9962588e-06 3.2542052e-06 
9.1307317e-07 -3.1974487e-06 -3.6336212e-06 
-2.5752129e-06 2.1001636e-06 -9.9337749e-06 