# vtk DataFile Version 4.0
vtk output
ASCII
DATASET UNSTRUCTURED_GRID
POINTS 1919 float
0.0000000e+00 0.0000000e+00 0.0000000e+00 
0.0000000e+00 0.0000000e+00 5.0000000e+01 
5.0000000e+00 0.0000000e+00 0.0000000e+00 
5.0000000e+00 0.0000000e+00 5.0000000e+01 
5.0000000e+00 1.0000000e+00 0.0000000e+00 
5.0000000e+00 1.0000000e+00 5.0000000e+01 
0.0000000e+00 1.0000000e+00 0.0000000e+00 
0.0000000e+00 1.0000000e+00 5.0000000e+01 
5.0000000e+00 2.0000000e+00 0.0000000e+00 
5.0000000e+00 2.0000000e+00 5.0000000e+01 
3.0000000e+00 2.0000000e+00 0.0000000e+00 
3.0000000e+00 2.0000000e+00 5.0000000e+01 
0.0000000e+00 2.0000000e+00 0.0000000e+00 
0.0000000e+00 2.0000000e+00 5.0000000e+01 
1.5000000e+00 3.0000000e+00 0.0000000e+00 
1.5000000e+00 3.0000000e+00 5.0000000e+01 
7.5000000e-01 3.0000000e+00 0.0000000e+00 
7.5000000e-01 3.0000000e+00 5.0000000e+01 
0.0000000e+00 3.0000000e+00 0.0000000e+00 
0.0000000e+00 3.0000000e+00 5.0000000e+01 
7.5000000e-01 3.0000000e+00 5.0000000e-01 
7.5000000e-01 3.0000000e+00 1.0000000e+00 
7.5000000e-01 3.0000000e+00 1.5000000e+00 
7.5000000e-01 3.0000000e+00 2.0000000e+00 
7.5000000e-01 3.0000000e+00 2.5000000e+00 
7.5000000e-01 3.0000000e+00 3.0000000e+00 
7.5000000e-01 3.0000000e+00 3.5000000e+00 
7.5000000e-01 3.0000000e+00 4.0000000e+00 
7.5000000e-01 3.0000000e+00 4.5000000e+00 
7.5000000e-01 3.0000000e+00 5.0000000e+00 
7.5000000e-01 3.0000000e+00 5.5000000e+00 
7.5000000e-01 3.0000000e+00 6.0000000e+00 
7.5000000e-01 3.0000000e+00 6.5000000e+00 
7.5000000e-01 3.0000000e+00 7.0000000e+00 
7.5000000e-01 3.0000000e+00 7.5000000e+00 
7.5000000e-01 3.0000000e+00 8.0000000e+00 
7.5000000e-01 3.0000000e+00 8.5000000e+00 
7.5000000e-01 3.0000000e+00 9.0000000e+00 
7.5000000e-01 3.0000000e+00 9.5000000e+00 
7.5000000e-01 3.0000000e+00 1.0000000e+01 
7.5000000e-01 3.0000000e+00 1.0500000e+01 
7.5000000e-01 3.0000000e+00 1.1000000e+01 
7.5000000e-01 3.0000000e+00 1.1500000e+01 
7.5000000e-01 3.0000000e+00 1.2000000e+01 
7.5000000e-01 3.0000000e+00 1.2500000e+01 
7.5000000e-01 3.0000000e+00 1.3000000e+01 
7.5000000e-01 3.0000000e+00 1.3500000e+01 
7.5000000e-01 3.0000000e+00 1.4000000e+01 
7.5000000e-01 3.0000000e+00 1.4500000e+01 
7.5000000e-01 3.0000000e+00 1.5000000e+01 
7.5000000e-01 3.0000000e+00 1.5500000e+01 
7.5000000e-01 3.0000000e+00 1.6000000e+01 
7.5000000e-01 3.0000000e+00 1.6500000e+01 
7.5000000e-01 3.0000000e+00 1.7000000e+01 
7.5000000e-01 3.0000000e+00 1.7500000e+01 
7.5000000e-01 3.0000000e+00 1.8000000e+01 
7.5000000e-01 3.0000000e+00 1.8500000e+01 
7.5000000e-01 3.0000000e+00 1.9000000e+01 
7.5000000e-01 3.0000000e+00 1.9500000e+01 
7.5000000e-01 3.0000000e+00 2.0000000e+01 
7.5000000e-01 3.0000000e+00 2.0500000e+01 
7.5000000e-01 3.0000000e+00 2.1000000e+01 
7.5000000e-01 3.0000000e+00 2.1500000e+01 
7.5000000e-01 3.0000000e+00 2.2000000e+01 
7.5000000e-01 3.0000000e+00 2.2500000e+01 
7.5000000e-01 3.0000000e+00 2.3000000e+01 
7.5000000e-01 3.0000000e+00 2.3500000e+01 
7.5000000e-01 3.0000000e+00 2.4000000e+01 
7.5000000e-01 3.0000000e+00 2.4500000e+01 
7.5000000e-01 3.0000000e+00 2.5000000e+01 
7.5000000e-01 3.0000000e+00 2.5500000e+01 
7.5000000e-01 3.0000000e+00 2.6000000e+01 
7.5000000e-01 3.0000000e+00 2.6500000e+01 
7.5000000e-01 3.0000000e+00 2.7000000e+01 
7.5000000e-01 3.0000000e+00 2.7500000e+01 
7.5000000e-01 3.0000000e+00 2.8000000e+01 
7.5000000e-01 3.0000000e+00 2.8500000e+01 
7.5000000e-01 3.0000000e+00 2.9000000e+01 
7.5000000e-01 3.0000000e+00 2.9500000e+01 
7.5000000e-01 3.0000000e+00 3.0000000e+01 
7.5000000e-01 3.0000000e+00 3.0500000e+01 
7.5000000e-01 3.0000000e+00 3.1000000e+01 
7.5000000e-01 3.0000000e+00 3.1500000e+01 
7.5000000e-01 3.0000000e+00 3.2000000e+01 
7.5000000e-01 3.0000000e+00 3.2500000e+01 
7.5000000e-01 3.0000000e+00 3.3000000e+01 
7.5000000e-01 3.0000000e+00 3.3500000e+01 
7.5000000e-01 3.0000000e+00 3.4000000e+01 
7.5000000e-01 3.0000000e+00 3.4500000e+01 
7.5000000e-01 3.0000000e+00 3.5000000e+01 
7.5000000e-01 3.0000000e+00 3.5500000e+01 
7.5000000e-01 3.0000000e+00 3.6000000e+01 
7.5000000e-01 3.0000000e+00 3.6500000e+01 
7.5000000e-01 3.0000000e+00 3.7000000e+01 
7.5000000e-01 3.0000000e+00 3.7500000e+01 
7.5000000e-01 3.0000000e+00 3.8000000e+01 
7.5000000e-01 3.0000000e+00 3.8500000e+01 
7.5000000e-01 3.0000000e+00 3.9000000e+01 
7.5000000e-01 3.0000000e+00 3.9500000e+01 
7.5000000e-01 3.0000000e+00 4.0000000e+01 
7.5000000e-01 3.0000000e+00 4.0500000e+01 
7.5000000e-01 3.0000000e+00 4.1000000e+01 
7.5000000e-01 3.0000000e+00 4.1500000e+01 
7.5000000e-01 3.0000000e+00 4.2000000e+01 
7.5000000e-01 3.0000000e+00 4.2500000e+01 
7.5000000e-01 3.0000000e+00 4.3000000e+01 
7.5000000e-01 3.0000000e+00 4.3500000e+01 
7.5000000e-01 3.0000000e+00 4.4000000e+01 
7.5000000e-01 3.0000000e+00 4.4500000e+01 
7.5000000e-01 3.0000000e+00 4.5000000e+01 
7.5000000e-01 3.0000000e+00 4.5500000e+01 
7.5000000e-01 3.0000000e+00 4.6000000e+01 
7.5000000e-01 3.0000000e+00 4.6500000e+01 
7.5000000e-01 3.0000000e+00 4.7000000e+01 
7.5000000e-01 3.0000000e+00 4.7500000e+01 
7.5000000e-01 3.0000000e+00 4.8000000e+01 
7.5000000e-01 3.0000000e+00 4.8500000e+01 
7.5000000e-01 3.0000000e+00 4.9000000e+01 
7.5000000e-01 3.0000000e+00 4.9500000e+01 
7.5000000e-01 3.0250001e+00 0.0000000e+00 
7.5000000e-01 3.0250001e+00 5.0000000e-01 
7.5000000e-01 3.0250001e+00 1.0000000e+00 
7.5000000e-01 3.0250001e+00 1.5000000e+00 
7.5000000e-01 3.0250001e+00 2.0000000e+00 
7.5000000e-01 3.0250001e+00 2.5000000e+00 
7.5000000e-01 3.0250001e+00 3.0000000e+00 
7.5000000e-01 3.0250001e+00 3.5000000e+00 
7.5000000e-01 3.0250001e+00 4.0000000e+00 
7.5000000e-01 3.0250001e+00 4.5000000e+00 
7.5000000e-01 3.0250001e+00 5.0000000e+00 
7.5000000e-01 3.0250001e+00 5.5000000e+00 
7.5000000e-01 3.0250001e+00 6.0000000e+00 
7.5000000e-01 3.0250001e+00 6.5000000e+00 
7.5000000e-01 3.0250001e+00 7.0000000e+00 
7.5000000e-01 3.0250001e+00 7.5000000e+00 
7.5000000e-01 3.0250001e+00 8.0000000e+00 
7.5000000e-01 3.0250001e+00 8.5000000e+00 
7.5000000e-01 3.0250001e+00 9.0000000e+00 
7.5000000e-01 3.0250001e+00 9.5000000e+00 
7.5000000e-01 3.0250001e+00 1.0000000e+01 
7.5000000e-01 3.0250001e+00 1.0500000e+01 
7.5000000e-01 3.0250001e+00 1.1000000e+01 
7.5000000e-01 3.0250001e+00 1.1500000e+01 
7.5000000e-01 3.0250001e+00 1.2000000e+01 
7.5000000e-01 3.0250001e+00 1.2500000e+01 
7.5000000e-01 3.0250001e+00 1.3000000e+01 
7.5000000e-01 3.0250001e+00 1.3500000e+01 
7.5000000e-01 3.0250001e+00 1.4000000e+01 
7.5000000e-01 3.0250001e+00 1.4500000e+01 
7.5000000e-01 3.0250001e+00 1.5000000e+01 
7.5000000e-01 3.0250001e+00 1.5500000e+01 
7.5000000e-01 3.0250001e+00 1.6000000e+01 
7.5000000e-01 3.0250001e+00 1.6500000e+01 
7.5000000e-01 3.0250001e+00 1.7000000e+01 
7.5000000e-01 3.0250001e+00 1.7500000e+01 
7.5000000e-01 3.0250001e+00 1.8000000e+01 
7.5000000e-01 3.0250001e+00 1.8500000e+01 
7.5000000e-01 3.0250001e+00 1.9000000e+01 
7.5000000e-01 3.0250001e+00 1.9500000e+01 
7.5000000e-01 3.0250001e+00 2.0000000e+01 
7.5000000e-01 3.0250001e+00 2.0500000e+01 
7.5000000e-01 3.0250001e+00 2.1000000e+01 
7.5000000e-01 3.0250001e+00 2.1500000e+01 
7.5000000e-01 3.0250001e+00 2.2000000e+01 
7.5000000e-01 3.0250001e+00 2.2500000e+01 
7.5000000e-01 3.0250001e+00 2.3000000e+01 
7.5000000e-01 3.0250001e+00 2.3500000e+01 
7.5000000e-01 3.0250001e+00 2.4000000e+01 
7.5000000e-01 3.0250001e+00 2.4500000e+01 
7.5000000e-01 3.0250001e+00 2.5000000e+01 
7.5000000e-01 3.0250001e+00 2.5500000e+01 
7.5000000e-01 3.0250001e+00 2.6000000e+01 
7.5000000e-01 3.0250001e+00 2.6500000e+01 
7.5000000e-01 3.0250001e+00 2.7000000e+01 
7.5000000e-01 3.0250001e+00 2.7500000e+01 
7.5000000e-01 3.0250001e+00 2.8000000e+01 
7.5000000e-01 3.0250001e+00 2.8500000e+01 
7.5000000e-01 3.0250001e+00 2.9000000e+01 
7.5000000e-01 3.0250001e+00 2.9500000e+01 
7.5000000e-01 3.0250001e+00 3.0000000e+01 
7.5000000e-01 3.0250001e+00 3.0500000e+01 
7.5000000e-01 3.0250001e+00 3.1000000e+01 
7.5000000e-01 3.0250001e+00 3.1500000e+01 
7.5000000e-01 3.0250001e+00 3.2000000e+01 
7.5000000e-01 3.0250001e+00 3.2500000e+01 
7.5000000e-01 3.0250001e+00 3.3000000e+01 
7.5000000e-01 3.0250001e+00 3.3500000e+01 
7.5000000e-01 3.0250001e+00 3.4000000e+01 
7.5000000e-01 3.0250001e+00 3.4500000e+01 
7.5000000e-01 3.0250001e+00 3.5000000e+01 
7.5000000e-01 3.0250001e+00 3.5500000e+01 
7.5000000e-01 3.0250001e+00 3.6000000e+01 
7.5000000e-01 3.0250001e+00 3.6500000e+01 
7.5000000e-01 3.0250001e+00 3.7000000e+01 
7.5000000e-01 3.0250001e+00 3.7500000e+01 
7.5000000e-01 3.0250001e+00 3.8000000e+01 
7.5000000e-01 3.0250001e+00 3.8500000e+01 
7.5000000e-01 3.0250001e+00 3.9000000e+01 
7.5000000e-01 3.0250001e+00 3.9500000e+01 
7.5000000e-01 3.0250001e+00 4.0000000e+01 
7.5000000e-01 3.0250001e+00 4.0500000e+01 
7.5000000e-01 3.0250001e+00 4.1000000e+01 
7.5000000e-01 3.0250001e+00 4.1500000e+01 
7.5000000e-01 3.0250001e+00 4.2000000e+01 
7.5000000e-01 3.0250001e+00 4.2500000e+01 
7.5000000e-01 3.0250001e+00 4.3000000e+01 
7.5000000e-01 3.0250001e+00 4.3500000e+01 
7.5000000e-01 3.0250001e+00 4.4000000e+01 
7.5000000e-01 3.0250001e+00 4.4500000e+01 
7.5000000e-01 3.0250001e+00 4.5000000e+01 
7.5000000e-01 3.0250001e+00 4.5500000e+01 
7.5000000e-01 3.0250001e+00 4.6000000e+01 
7.5000000e-01 3.0250001e+00 4.6500000e+01 
7.5000000e-01 3.0250001e+00 4.7000000e+01 
7.5000000e-01 3.0250001e+00 4.7500000e+01 
7.5000000e-01 3.0250001e+00 4.8000000e+01 
7.5000000e-01 3.0250001e+00 4.8500000e+01 
7.5000000e-01 3.0250001e+00 4.9000000e+01 
7.5000000e-01 3.0250001e+00 4.9500000e+01 
7.5000000e-01 3.0250001e+00 5.0000000e+01 
3.0000000e+00 2.0000000e+00 3.6000000e+01 
8.0487806e-01 3.0000000e+00 3.6000000e+01 
0.0000000e+00 0.0000000e+00 1.0000000e+00 
0.0000000e+00 0.0000000e+00 2.0000000e+00 
0.0000000e+00 0.0000000e+00 3.0000000e+00 
0.0000000e+00 0.0000000e+00 4.0000000e+00 
0.0000000e+00 0.0000000e+00 5.0000000e+00 
0.0000000e+00 0.0000000e+00 6.0000000e+00 
0.0000000e+00 0.0000000e+00 7.0000000e+00 
0.0000000e+00 0.0000000e+00 8.0000000e+00 
[...]
POINT_DATA 1919
FIELD FieldData 3
DISPLACEMENT 3 1919  float
0.0000000e+00 0.0000000e+00 0.0000000e+00 
0.0000000e+00 0.0000000e+00 0.0000000e+00 
0.0000000e+00 0.0000000e+00 0.0000000e+00 
0.0000000e+00 0.0000000e+00 0.0000000e+00 
8.5979402e-05 -7.7470359e-06 -5.3670033e-06 
-6.5381226e-14 -2.0831885e-11 4.3757706e-11 
0.0000000e+00 -1.2330697e-03 0.0000000e+00 
0.0000000e+00 -5.8065427e-12 0.0000000e+00 
3.1817839e-05 2.1150161e-05 1.6088834e-06 
-2.9548983e-12 -2.2759098e-11 6.9327544e-11 
1.4307286e-05 -5.8321359e-05 -1.2153986e-04 
-1.0122842e-11 -1.9493339e-11 6.0544500e-11 
0.0000000e+00 -2.3286832e-03 0.0000000e+00 
0.0000000e+00 -4.4402737e-12 0.0000000e+00 
-6.5505365e-04 -1.9299996e-03 -9.8490121e-04 
-1.5953225e-11 -8.5818392e-12 4.4614257e-11 
-6.8007299e-04 -6.6429540e-03 -1.3736965e-03 
-1.4831249e-11 -5.1062366e-12 2.5076618e-11 
0.0000000e+00 -4.0514641e-03 0.0000000e+00 
0.0000000e+00 -8.0019124e-13 0.0000000e+00 
-4.9243669e-04 -6.7314287e-03 -8.5799507e-04 
-3.6132545e-04 -6.7753443e-03 -6.2853994e-04 
-4.1765178e-04 -6.2409188e-03 -4.3399143e-04 
-4.4194271e-04 -5.5331732e-03 -4.0289588e-04 
-4.3592096e-04 -5.1425956e-03 -3.5031576e-04 
-3.9756246e-04 -5.0425036e-03 -3.3279223e-04 
-3.4263052e-04 -4.8791594e-03 -3.2885055e-04 
-2.5200940e-04 -4.0015196e-03 -2.1700279e-04 
-1.6300550e-04 -2.7752966e-03 -3.0593737e-04 
-6.9339469e-05 -1.5736161e-03 -1.1249048e-04 
-1.3170658e-05 -6.3040154e-04 -1.6388019e-04 
7.4342852e-06 -1.4677310e-05 -3.7929276e-05 
1.1928562e-05 2.6169626e-04 -3.9824823e-05 
1.7361246e-05 2.9773969e-04 -9.3633425e-06 
1.0855156e-05 2.2929223e-04 1.5505544e-06 
7.7766281e-06 1.4518521e-04 -6.2846143e-06 
4.6435439e-06 8.0697391e-05 7.9658794e-06 
2.7233123e-06 2.9525099e-05 -2.1229444e-06 
5.0695712e-07 -1.2011904e-05 -1.0467530e-08 
-6.1340353e-07 -3.4823512e-05 1.3024842e-06 
-3.8964458e-07 -3.2109390e-05 -1.3667212e-06 
-2.5610666e-07 -1.5298536e-05 1.3468359e-07 
-1.4375263e-07 -9.1599514e-07 -1.4714608e-07 
-2.5869224e-07 7.7461445e-06 -1.0319480e-06 
2.8966332e-07 1.4421439e-05 -8.1602172e-07 
9.6311635e-07 2.1100805e-05 -2.5632784e-07 
2.0328782e-06 2.3927028e-05 -1.8378573e-06 
2.4398760e-06 1.6175078e-05 -1.6966820e-07 
3.5430003e-06 1.5017094e-06 2.4404633e-07 
4.7018689e-06 6.6500814e-07 3.6480917e-06 
6.5675245e-06 3.0677860e-05 1.5527865e-05 
1.0912268e-05 7.8414967e-05 3.3066495e-05 
-3.2134662e-06 9.8772718e-05 4.5549750e-05 
-1.0588327e-05 3.2890595e-05 7.1188697e-05 
-5.9833383e-05 -1.4672235e-04 1.0947506e-04 
-7.4645628e-05 -4.3688415e-04 1.0140249e-04 
-1.3512658e-04 -8.4984116e-04 2.2769171e-04 
-1.6973833e-04 -1.4353758e-03 1.1059520e-04 
-2.1305357e-04 -2.2795873e-03 2.2431393e-04 
-2.7396550e-04 -3.4055009e-03 3.3428441e-05 
-3.4900894e-04 -4.6683280e-03 1.5709948e-04 
-3.5413419e-04 -5.5367379e-03 -4.4620527e-05 
-3.4196573e-04 -5.5054082e-03 -1.5547988e-05 
-3.1534673e-04 -5.0895633e-03 -6.8966983e-05 
-2.8833427e-04 -4.8622838e-03 -7.4045747e-05 
-2.9385544e-04 -4.8778006e-03 -1.2843379e-04 
-2.6559728e-04 -4.7420217e-03 -2.0174643e-04 
-1.7709761e-04 -3.7906123e-03 -1.6631135e-04 
-1.0467438e-04 -2.4915903e-03 -2.3302333e-04 
-5.5521410e-05 -1.3002297e-03 -8.2592131e-05 
-1.9812696e-05 -4.5881109e-04 -1.3384769e-04 
6.0261646e-06 2.3251705e-05 -2.1537468e-05 
9.4652105e-06 2.2009981e-04 -3.3677105e-05 
1.4715367e-05 2.5157683e-04 -1.0364512e-05 
1.2618239e-05 2.1614795e-04 4.8618745e-06 
7.2548874e-06 1.5439115e-04 -5.9435092e-06 
3.8193089e-06 8.1703613e-05 7.9516867e-06 
1.7177331e-06 1.3080413e-05 -1.0533045e-06 
6.6270621e-07 -2.9787150e-05 -7.0955076e-07 
-4.2789370e-07 -4.0266827e-05 1.5331266e-06 
-4.7292545e-07 -2.5496332e-05 -9.6272356e-07 
-1.6312910e-07 -3.4087188e-06 3.6138402e-07 
2.1913491e-08 9.3285989e-06 7.3524433e-07 
6.7057044e-08 1.0026956e-05 -8.0383835e-08 
-1.0826359e-07 3.6376405e-06 1.7683345e-07 
-1.6334475e-07 -2.7132196e-06 9.0895696e-08 
-9.5802953e-08 -4.1019880e-06 -1.3678206e-07 
-2.8357027e-08 -1.6936730e-06 2.9444534e-08 
-4.8456150e-10 7.9936660e-07 2.1887040e-08 
-3.2971293e-08 1.4398514e-06 3.6108801e-08 
-8.5223242e-09 6.4343681e-07 1.0117009e-08 
-3.0431904e-09 -1.6499501e-07 1.4471564e-08 
-2.6543796e-09 -2.8625584e-07 9.0570413e-09 
-2.2324547e-09 -3.2600447e-08 8.8042436e-09 
-6.1083805e-10 9.2831897e-08 9.4483559e-09 
-1.0678944e-09 5.0948877e-08 5.7450702e-09 
-1.2905590e-09 -7.5558368e-09 4.6639559e-09 
-1.1549218e-09 -1.6287805e-08 3.4629939e-09 
-8.9607682e-10 -2.7554092e-09 2.6732929e-09 
-6.9334122e-10 3.0545197e-09 2.0590996e-09 
-5.6112720e-10 8.2266777e-10 1.5764763e-09 
-4.1124357e-10 -7.7449391e-10 1.2271095e-09 
-3.1478334e-10 -2.1413327e-10 9.3641372e-10 
-2.3026928e-10 2.5933786e-10 7.3597595e-10 
-1.7037714e-10 1.2163057e-10 5.7383454e-10 
-1.1853181e-10 4.5331364e-11 4.4410522e-10 
-8.8309471e-11 1.5222490e-10 3.4326911e-10 
-6.5909174e-11 1.6023911e-10 2.6584451e-10 
-5.4909056e-11 4.8033057e-11 1.9953192e-10 
-4.1999203e-11 -1.7059439e-11 1.5520049e-10 
-3.3371070e-11 1.1831413e-11 1.2325049e-10 
-2.3927096e-11 4.7861645e-11 9.3589358e-11 
-1.9397879e-11 3.3620794e-11 7.5354029e-11 
-1.4342337e-11 1.4594500e-12 5.9512353e-11 
-1.0894083e-11 -7.4825736e-12 4.8407077e-11 
-7.7759977e-12 1.8106663e-12 3.9201194e-11 
-5.8276339e-12 7.1446239e-12 3.3371396e-11 
-4.8084713e-12 3.3446737e-12 2.8476955e-11 
-7.0653132e-12 -2.6999035e-12 2.5729033e-11 
0.0000000e+00 -6.6582486e-03 0.0000000e+00 
0.0000000e+00 -6.7641772e-03 0.0000000e+00 
0.0000000e+00 -6.8020122e-03 0.0000000e+00 
0.0000000e+00 -6.2643252e-03 0.0000000e+00 
0.0000000e+00 -5.5620773e-03 0.0000000e+00 
0.0000000e+00 -5.1621334e-03 0.0000000e+00 
0.0000000e+00 -5.0775241e-03 0.0000000e+00 
0.0000000e+00 -4.9006441e-03 0.0000000e+00 
0.0000000e+00 -4.0270160e-03 0.0000000e+00 
0.0000000e+00 -2.7847458e-03 0.0000000e+00 
0.0000000e+00 -1.5824930e-03 0.0000000e+00 
0.0000000e+00 -6.3432963e-04 0.0000000e+00 
0.0000000e+00 -1.9816132e-05 0.0000000e+00 
0.0000000e+00 2.6096805e-04 0.0000000e+00 
0.0000000e+00 3.0127019e-04 0.0000000e+00 
0.0000000e+00 2.3212565e-04 0.0000000e+00 
0.0000000e+00 1.4657152e-04 0.0000000e+00 
0.0000000e+00 8.0198974e-05 0.0000000e+00 
0.0000000e+00 2.9095067e-05 0.0000000e+00 
0.0000000e+00 -1.1524697e-05 0.0000000e+00 
0.0000000e+00 -3.3798660e-05 0.0000000e+00 
0.0000000e+00 -3.2074422e-05 0.0000000e+00 
0.0000000e+00 -1.6314523e-05 0.0000000e+00 
0.0000000e+00 -1.4079490e-06 0.0000000e+00 
0.0000000e+00 7.9996635e-06 0.0000000e+00 
0.0000000e+00 1.4959036e-05 0.0000000e+00 
0.0000000e+00 2.1444990e-05 0.0000000e+00 
0.0000000e+00 2.3481229e-05 0.0000000e+00 
0.0000000e+00 1.5168614e-05 0.0000000e+00 
0.0000000e+00 1.2703703e-06 0.0000000e+00 
0.0000000e+00 1.7723856e-06 0.0000000e+00 
0.0000000e+00 3.2508549e-05 0.0000000e+00 
0.0000000e+00 7.9913596e-05 0.0000000e+00 
0.0000000e+00 9.7852135e-05 0.0000000e+00 
0.0000000e+00 3.1202522e-05 0.0000000e+00 
0.0000000e+00 -1.4686515e-04 0.0000000e+00 
0.0000000e+00 -4.3595597e-04 0.0000000e+00 
0.0000000e+00 -8.4828486e-04 0.0000000e+00 
0.0000000e+00 -1.4382545e-03 0.0000000e+00 
0.0000000e+00 -2.2882370e-03 0.0000000e+00 
0.0000000e+00 -3.4257132e-03 0.0000000e+00 
0.0000000e+00 -4.6888604e-03 0.0000000e+00 
0.0000000e+00 -5.5651614e-03 0.0000000e+00 
0.0000000e+00 -5.5250069e-03 0.0000000e+00 
0.0000000e+00 -5.1170727e-03 0.0000000e+00 
0.0000000e+00 -4.8863455e-03 0.0000000e+00 
0.0000000e+00 -4.9114088e-03 0.0000000e+00 
0.0000000e+00 -4.7642319e-03 0.0000000e+00 
0.0000000e+00 -3.8124083e-03 0.0000000e+00 
0.0000000e+00 -2.5039546e-03 0.0000000e+00 
0.0000000e+00 -1.3122272e-03 0.0000000e+00 
0.0000000e+00 -4.6258347e-04 0.0000000e+00 
0.0000000e+00 2.2139579e-05 0.0000000e+00 
0.0000000e+00 2.2179259e-04 0.0000000e+00 
0.0000000e+00 2.5442141e-04 0.0000000e+00 
0.0000000e+00 2.1712996e-04 0.0000000e+00 
0.0000000e+00 1.5435336e-04 0.0000000e+00 
0.0000000e+00 8.1651386e-05 0.0000000e+00 
0.0000000e+00 1.4099532e-05 0.0000000e+00 
0.0000000e+00 -2.9137898e-05 0.0000000e+00 
0.0000000e+00 -4.0025116e-05 0.0000000e+00 
0.0000000e+00 -2.5749836e-05 0.0000000e+00 
0.0000000e+00 -4.1279677e-06 0.0000000e+00 
0.0000000e+00 9.0341919e-06 0.0000000e+00 
0.0000000e+00 1.0060929e-05 0.0000000e+00 
0.0000000e+00 3.8054061e-06 0.0000000e+00 
0.0000000e+00 -2.4510866e-06 0.0000000e+00 
0.0000000e+00 -4.0414443e-06 0.0000000e+00 
0.0000000e+00 -1.8210673e-06 0.0000000e+00 
0.0000000e+00 7.0008593e-07 0.0000000e+00 
0.0000000e+00 1.4266461e-06 0.0000000e+00 
0.0000000e+00 6.9158972e-07 0.0000000e+00 
0.0000000e+00 -1.2893970e-07 0.0000000e+00 
0.0000000e+00 -2.8949222e-07 0.0000000e+00 
0.0000000e+00 -5.4509897e-08 0.0000000e+00 
0.0000000e+00 8.8592593e-08 0.0000000e+00 
0.0000000e+00 5.6903062e-08 0.0000000e+00 
0.0000000e+00 -4.4244288e-09 0.0000000e+00 
0.0000000e+00 -1.7279170e-08 0.0000000e+00 
0.0000000e+00 -3.9710986e-09 0.0000000e+00 
0.0000000e+00 3.0423919e-09 0.0000000e+00 
0.0000000e+00 1.1738118e-09 0.0000000e+00 
0.0000000e+00 -7.2133965e-10 0.0000000e+00 
0.0000000e+00 -3.1208339e-10 0.0000000e+00 
0.0000000e+00 2.4025001e-10 0.0000000e+00 
0.0000000e+00 1.5381989e-10 0.0000000e+00 
0.0000000e+00 5.0750557e-11 0.0000000e+00 
0.0000000e+00 1.3776827e-10 0.0000000e+00 
0.0000000e+00 1.5720523e-10 0.0000000e+00 
0.0000000e+00 5.5910165e-11 0.0000000e+00 
0.0000000e+00 -1.3655970e-11 0.0000000e+00 
0.0000000e+00 8.6414790e-12 0.0000000e+00 
0.0000000e+00 4.4720484e-11 0.0000000e+00 
0.0000000e+00 3.4424817e-11 0.0000000e+00 
0.0000000e+00 3.4994960e-12 0.0000000e+00 
0.0000000e+00 -7.3136167e-12 0.0000000e+00 
0.0000000e+00 8.3105539e-13 0.0000000e+00 
0.0000000e+00 6.8228292e-12 0.0000000e+00 
0.0000000e+00 3.5899812e-12 0.0000000e+00 
0.0000000e+00 -2.5224131e-12 0.0000000e+00 
0.0000000e+00 -5.1462263e-12 0.0000000e+00 
-7.5285254e-09 -5.7122318e-10 3.9544148e-08 
-5.1178368e-09 -2.6282936e-07 1.8337882e-08 
0.0000000e+00 0.0000000e+00 0.0000000e+00 
0.0000000e+00 0.0000000e+00 0.0000000e+00 
0.0000000e+00 0.0000000e+00 0.0000000e+00 
0.0000000e+00 0.0000000e+00 0.0000000e+00 
0.0000000e+00 0.0000000e+00 0.0000000e+00 
0.0000000e+00 0.0000000e+00 0.0000000e+00 
0.0000000e+00 0.0000000e+00 0.0000000e+00 
0.0000000e+00 0.0000000e+00 0.0000000e+00 
0.0000000e+00 0.0000000e+00 0.0000000e+00 
0.0000000e+00 0.0000000e+00 0.0000000e+00 
0.0000000e+00 0.0000000e+00 0.0000000e+00 
0.0000000e+00 0.0000000e+00 0.0000000e+00 
0.0000000e+00 0.0000000e+00 0.0000000e+00 
0.0000000e+00 0.0000000e+00 0.0000000e+00 
0.0000000e+00 0.0000000e+00 0.0000000e+00 
0.0000000e+00 0.0000000e+00 0.0000000e+00 
0.0000000e+00 0.0000000e+00 0.0000000e+00 
0.0000000e+00 0.0000000e+00 0.0000000e+00 
0.0000000e+00 0.0000000e+00 0.0000000e+00 
0.0000000e+00 0.0000000e+00 0.0000000e+00 
0.0000000e+00 0.0000000e+00 0.0000000e+00 
0.0000000e+00 0.0000000e+00 0.0000000e+00 
0.0000000e+00 0.0000000e+00 0.0000000e+00 
0.0000000e+00 0.0000000e+00 0.0000000e+00 
0.0000000e+00 0.0000000e+00 0.0000000e+00 
0.0000000e+00 0.0000000e+00 0.0000000e+00 
0.0000000e+00 0.0000000e+00 0.0000000e+00 
0.0000000e+00 0.0000000e+00 0.0000000e+00 
0.0000000e+00 0.0000000e+00 0.0000000e+00 
0.0000000e+00 0.0000000e+00 0.0000000e+00 
0.0000000e+00 0.0000000e+00 0.0000000e+00 
0.0000000e+00 0.0000000e+00 0.0000000e+00 
0.0000000e+00 0.0000000e+00 0.0000000e+00 
0.0000000e+00 0.0000000e+00 0.0000000e+00 
0.0000000e+00 0.0000000e+00 0.0000000e+00 
0.0000000e+00 0.0000000e+00 0.0000000e+00 
0.0000000e+00 0.0000000e+00 0.0000000e+00 
0.0000000e+00 0.0000000e+00 0.0000000e+00 
0.0000000e+00 0.0000000e+00 0.0000000e+00 
0.0000000e+00 0.0000000e+00 0.0000000e+00 
0.0000000e+00 0.0000000e+00 0.0000000e+00 
0.0000000e+00 0.0000000e+00 0.0000000e+00 
0.0000000e+00 0.0000000e+00 0.0000000e+00 
0.0000000e+00 0.0000000e+00 0.0000000e+00 
0.0000000e+00 0.0000000e+00 0.0000000e+00 
0.0000000e+00 0.0000000e+00 0.0000000e+00 
0.0000000e+00 0.0000000e+00 0.0000000e+00 
0.0000000e+00 0.0000000e+00 0.0000000e+00 
0.0000000e+00 0.0000000e+00 0.0000000e+00 
0.0000000e+00 0.0000000e+00 0.0000000e+00 
0.0000000e+00 0.0000000e+00 0.0000000e+00 
0.0000000e+00 0.0000000e+00 0.0000000e+00 
0.0000000e+00 0.0000000e+00 0.0000000e+00 
0.0000000e+00 0.0000000e+00 0.0000000e+00 
0.0000000e+00 0.0000000e+00 0.0000000e+00 
0.0000000e+00 0.0000000e+00 0.0000000e+00 
0.0000000e+00 0.0000000e+00 0.0000000e+00 
0.0000000e+00 0.0000000e+00 0.0000000e+00 
0.0000000e+00 0.0000000e+00 0.0000000e+00 
0.0000000e+00 0.0000000e+00 0.0000000e+00 
0.0000000e+00 0.0000000e+00 0.0000000e+00 
0.0000000e+00 0.0000000e+00 0.0000000e+00 
0.0000000e+00 0.0000000e+00 0.0000000e+00 
0.0000000e+00 0.0000000e+00 0.0000000e+00 
0.0000000e+00 0.0000000e+00 0.0000000e+00 
0.0000000e+00 0.0000000e+00 0.0000000e+00 
0.0000000e+00 0.0000000e+00 0.0000000e+00 
0.0000000e+00 0.0000000e+00 0.0000000e+00 
0.0000000e+00 0.0000000e+00 0.0000000e+00 
0.0000000e+00 0.0000000e+00 0.0000000e+00 
0.0000000e+00 0.0000000e+00 0.0000000e+00 
0.0000000e+00 0.0000000e+00 0.0000000e+00 
0.0000000e+00 0.0000000e+00 0.0000000e+00 
0.0000000e+00 0.0000000e+00 0.0000000e+00 
0.0000000e+00 0.0000000e+00 0.0000000e+00 
0.0000000e+00 0.0000000e+00 0.0000000e+00 
0.0000000e+00 0.0000000e+00 0.0000000e+00 
0.0000000e+00 0.0000000e+00 0.0000000e+00 
0.0000000e+00 0.0000000e+00 0.0000000e+00 
0.0000000e+00 0.0000000e+00 0.0000000e+00 
0.0000000e+00 0.0000000e+00 0.0000000e+00 
0.0000000e+00 0.0000000e+00 0.0000000e+00 
0.0000000e+00 0.0000000e+00 0.0000000e+00 
0.0000000e+00 0.0000000e+00 0.0000000e+00 
0.0000000e+00 0.0000000e+00 0.0000000e+00 
0.0000000e+00 0.0000000e+00 0.0000000e+00 
0.0000000e+00 0.0000000e+00 0.0000000e+00 
0.0000000e+00 0.0000000e+00 0.0000000e+00 
0.0000000e+00 0.0000000e+00 0.0000000e+00 
0.0000000e+00 0.0000000e+00 0.0000000e+00 
0.0000000e+00 0.0000000e+00 0.0000000e+00 
0.0000000e+00 0.0000000e+00 0.0000000e+00 
0.0000000e+00 0.0000000e+00 0.0000000e+00 
0.0000000e+00 0.0000000e+00 0.0000000e+00 
0.0000000e+00 0.0000000e+00 0.0000000e+00 
0.0000000e+00 0.0000000e+00 0.0000000e+00 
0.0000000e+00 0.0000000e+00 0.0000000e+00 
0.0000000e+00 0.0000000e+00 0.0000000e+00 
0.0000000e+00 0.0000000e+00 0.0000000e+00 
0.0000000e+00 0.0000000e+00 0.0000000e+00 
0.0000000e+00 0.0000000e+00 0.0000000e+00 
0.0000000e+00 0.0000000e+00 0.0000000e+00 
0.0000000e+00 0.0000000e+00 0.0000000e+00 
0.0000000e+00 0.0000000e+00 0.0000000e+00 
0.0000000e+00 0.0000000e+00 0.0000000e+00 
0.0000000e+00 0.0000000e+00 0.0000000e+00 
6.2536514e-05 -2.7356464e-05 -5.8812957e-06 
4.8170688e-05 -2.1857708e-05 -4.2334659e-06 
3.7857106e-05 -1.6569469e-05 1.5102582e-06 
2.8954029e-05 -8.2548941e-06 8.7512954e-06 
1.4532367e-05 -2.6299656e-06 7.1957411e-06 
8.1809840e-06 -2.9097416e-06 5.0597487e-06 
4.4427688e-06 -1.3368017e-06 3.6849372e-06 
1.0825815e-06 -5.3424139e-07 2.4092844e-06 
3.5917571e-07 -1.5617681e-07 1.0322317e-06 
-8.8310665e-09 -6.4863571e-08 2.2847051e-07 
-8.0924667e-10 -9.4531174e-08 -3.3275927e-07 
9.9364890e-08 -8.5834934e-08 -9.4363776e-07 
4.4408034e-07 -3.7906804e-07 -2.0081823e-06 
1.2354249e-06 -7.2818420e-07 -3.5186640e-06 
2.8348247e-06 -1.6495145e-06 -5.4487377e-06 
7.8760977e-06 -3.8262792e-06 -8.8524248e-06 
1.4752046e-05 -5.3479671e-06 -1.2634820e-05 
2.5804420e-05 -8.5830952e-06 -1.3810248e-05 
3.1216376e-05 -1.1563856e-05 -1.0823693e-05 
3.5747551e-05 -1.3187991e-05 -7.5098119e-06 
4.2243842e-05 -1.4569044e-05 -9.7225870e-07 
3.9635281e-05 -1.4964724e-05 6.9475623e-06 
3.5223020e-05 -1.4504383e-05 8.9520436e-06 
2.9402836e-05 -1.1154118e-05 1.2583777e-05 
1.6753631e-05 -6.7374481e-06 1.2887148e-05 
7.9991451e-06 -3.0208623e-06 8.9220994e-06 
4.4201552e-06 -1.3745497e-06 6.3186189e-06 
1.7219990e-06 -9.4801538e-07 4.0887903e-06 
5.2831155e-07 -3.8217257e-07 2.2043268e-06 
1.5248015e-07 -2.2172912e-07 1.2648759e-06 
6.9375133e-08 -9.6542898e-08 7.0811240e-07 
1.6165778e-08 -4.6323539e-08 3.6274304e-07 
1.9372438e-08 -3.4916880e-08 2.1814984e-07 
9.0600478e-09 -1.6987915e-08 1.1641173e-07 
6.0575172e-09 -1.3331449e-08 6.8275590e-08 
4.6285895e-09 -5.9315073e-09 4.0876266e-08 
1.2142591e-09 -2.1823401e-09 2.2717986e-08 
5.5052535e-10 -2.2170463e-09 1.3528282e-08 
5.4389278e-11 -8.5124419e-10 8.3673397e-09 
2.4832916e-10 -4.8970122e-10 4.3091890e-09 
2.8769012e-10 -3.5573799e-10 2.7257399e-09 
1.6417359e-10 -2.2885104e-10 1.6263526e-09 
1.0522107e-10 -1.3444938e-10 9.1325630e-10 
5.3242574e-11 -9.0402498e-11 5.1716836e-10 
4.1007624e-11 -4.2220911e-11 3.1488415e-10 
1.5518335e-11 -2.4881742e-11 1.9240448e-10 
1.2079926e-11 -1.5075923e-11 1.1347236e-10 
3.8109620e-12 -8.9748781e-12 7.3686994e-11 
1.2344449e-12 -7.8238666e-12 5.0205961e-11 
0.0000000e+00 -9.5150102e-04 0.0000000e+00 
0.0000000e+00 -9.0688828e-04 0.0000000e+00 
0.0000000e+00 -6.1552436e-04 0.0000000e+00 
0.0000000e+00 -4.0668194e-04 0.0000000e+00 
0.0000000e+00 -1.0850337e-04 0.0000000e+00 
0.0000000e+00 1.1676897e-05 0.0000000e+00 
0.0000000e+00 1.4185674e-05 0.0000000e+00 
0.0000000e+00 -6.0838229e-06 0.0000000e+00 
0.0000000e+00 2.4323056e-06 0.0000000e+00 
0.0000000e+00 6.1196938e-06 0.0000000e+00 
0.0000000e+00 -9.2954963e-07 0.0000000e+00 
0.0000000e+00 -2.3093384e-07 0.0000000e+00 
0.0000000e+00 3.8476815e-06 0.0000000e+00 
0.0000000e+00 6.2220893e-06 0.0000000e+00 
0.0000000e+00 7.3754536e-06 0.0000000e+00 
0.0000000e+00 -1.9772402e-05 0.0000000e+00 
0.0000000e+00 -1.3185205e-04 0.0000000e+00 
0.0000000e+00 -2.2675050e-04 0.0000000e+00 
0.0000000e+00 -3.4743911e-04 0.0000000e+00 
0.0000000e+00 -5.6801358e-04 0.0000000e+00 
0.0000000e+00 -6.6492410e-04 0.0000000e+00 
0.0000000e+00 -5.1754195e-04 0.0000000e+00 
0.0000000e+00 -4.9527583e-04 0.0000000e+00 
0.0000000e+00 -3.6201777e-04 0.0000000e+00 
0.0000000e+00 -9.3668117e-05 0.0000000e+00 
0.0000000e+00 -3.7530485e-06 0.0000000e+00 
0.0000000e+00 -4.2370280e-06 0.0000000e+00 
0.0000000e+00 -1.1200114e-05 0.0000000e+00 
0.0000000e+00 4.3182763e-06 0.0000000e+00 
0.0000000e+00 5.6425893e-06 0.0000000e+00 
0.0000000e+00 -1.2077809e-06 0.0000000e+00 
0.0000000e+00 -1.4639821e-07 0.0000000e+00 
0.0000000e+00 1.0565059e-07 0.0000000e+00 
0.0000000e+00 -1.4052850e-07 0.0000000e+00 
0.0000000e+00 -1.5939882e-08 0.0000000e+00 
0.0000000e+00 -3.0876393e-10 0.0000000e+00 
0.0000000e+00 -4.1604835e-09 0.0000000e+00 
0.0000000e+00 2.0209181e-09 0.0000000e+00 
0.0000000e+00 -4.2300236e-10 0.0000000e+00 
0.0000000e+00 -6.0113046e-11 0.0000000e+00 
0.0000000e+00 -1.5276064e-10 0.0000000e+00 
0.0000000e+00 -7.9411325e-11 0.0000000e+00 
0.0000000e+00 -3.5141935e-11 0.0000000e+00 
0.0000000e+00 -1.5052438e-11 0.0000000e+00 
0.0000000e+00 -1.0108820e-11 0.0000000e+00 
0.0000000e+00 -9.3064003e-12 0.0000000e+00 
0.0000000e+00 -4.8681953e-12 0.0000000e+00 
0.0000000e+00 -4.5898255e-12 0.0000000e+00 
0.0000000e+00 -3.6714451e-12 0.0000000e+00 
8.4153413e-05 -7.0061447e-05 -2.4660219e-05 
1.4327210e-04 -9.7079865e-05 -4.9340819e-05 
2.2154691e-04 -4.3799187e-04 -1.4050613e-04 
2.1394787e-04 -9.7104523e-04 -1.7161958e-04 
-3.9260093e-12 -2.0512834e-11 4.4202846e-11 
-7.9917748e-12 -1.7240371e-11 3.9038637e-11 
-1.1209171e-11 -1.4171968e-11 3.0656682e-11 
-1.0137642e-11 -9.6785852e-12 1.7668568e-11 
3.9962157e-05 -2.9845909e-05 -2.3046707e-06 
3.2285760e-05 -3.6242083e-05 -6.4342894e-06 
1.8605047e-05 -2.7275108e-05 1.2867587e-06 
1.2049434e-05 -1.2613471e-05 1.1138808e-06 
1.0121691e-05 -1.1722741e-06 1.9463207e-06 
8.1162261e-06 -1.7471915e-06 4.9658847e-06 
5.6544909e-06 -1.0843000e-06 4.3503214e-06 
3.1248671e-06 -3.2209934e-07 2.9829316e-06 
1.2144593e-06 -2.1686422e-08 1.4259984e-06 
3.1697681e-07 -4.0134086e-08 4.6911316e-07 
1.5832262e-07 -4.0817710e-08 -4.8345709e-07 
4.2432146e-07 -3.5184502e-08 -1.5282014e-06 
1.3240210e-06 -3.2106206e-07 -3.0724609e-06 
3.2483379e-06 -7.9548448e-07 -4.5549991e-06 
5.8374244e-06 -1.1662370e-06 -6.9652897e-06 
7.7885552e-06 -2.5554555e-06 -1.0157211e-05 
1.2469962e-05 -4.6789423e-06 -1.0381726e-05 
1.0766624e-05 -1.0662185e-05 -1.2291443e-05 
1.3926297e-05 -1.8443123e-05 -9.6971780e-06 
1.4095221e-05 -2.1126814e-05 -2.7468081e-06 