# vtk DataFile Version 4.0
vtk output
ASCII
DATASET UNSTRUCTURED_GRID
POINTS 1919 float
0.0000000e+00 0.0000000e+00 0.0000000e+00 
0.0000000e+00 0.0000000e+00 5.0000000e+01 
5.0000000e+00 0.0000000e+00 0.0000000e+00 
5.0000000e+00 0.0000000e+00 5.0000000e+01 
5.0000000e+00 1.0000000e+00 0.0000000e+00 
5.0000000e+00 1.0000000e+00 5.0000000e+01 
0.0000000e+00 1.0000000e+00 0.0000000e+00 
0.0000000e+00 1.0000000e+00 5.0000000e+01 
5.0000000e+00 2.0000000e+00 0.0000000e+00 
5.0000000e+00 2.0000000e+00 5.0000000e+01 
3.0000000e+00 2.0000000e+00 0.0000000e+00 
3.0000000e+00 2.0000000e+00 5.0000000e+01 
0.0000000e+00 2.0000000e+00 0.0000000e+00 
0.0000000e+00 2.0000000e+00 5.0000000e+01 
1.5000000e+00 3.0000000e+00 0.0000000e+00 
1.5000000e+00 3.0000000e+00 5.0000000e+01 
7.5000000e-01 3.0000000e+00 0.0000000e+00 
7.5000000e-01 3.0000000e+00 5.0000000e+01 
0.0000000e+00 3.0000000e+00 0.0000000e+00 
0.0000000e+00 3.0000000e+00 5.0000000e+01 
7.5000000e-01 3.0000000e+00 5.0000000e-01 
7.5000000e-01 3.0000000e+00 1.0000000e+00 
7.5000000e-01 3.0000000e+00 1.5000000e+00 
7.5000000e-01 3.0000000e+00 2.0000000e+00 
7.5000000e-01 3.0000000e+00 2.5000000e+00 
7.5000000e-01 3.0000000e+00 3.0000000e+00 
7.5000000e-01 3.0000000e+00 3.5000000e+00 
7.5000000e-01 3.0000000e+00 4.0000000e+00 
7.5000000e-01 3.0000000e+00 4.5000000e+00 
7.5000000e-01 3.0000000e+00 5.0000000e+00 
7.5000000e-01 3.0000000e+00 5.5000000e+00 
7.5000000e-01 3.0000000e+00 6.0000000e+00 
7.5000000e-01 3.0000000e+00 6.5000000e+00 
7.5000000e-01 3.0000000e+00 7.0000000e+00 
7.5000000e-01 3.0000000e+00 7.5000000e+00 
7.5000000e-01 3.0000000e+00 8.0000000e+00 
7.5000000e-01 3.0000000e+00 8.5000000e+00 
7.5000000e-01 3.0000000e+00 9.0000000e+00 
7.5000000e-01 3.0000000e+00 9.5000000e+00 
7.5000000e-01 3.0000000e+00 1.0000000e+01 
7.5000000e-01 3.0000000e+00 1.0500000e+01 
7.5000000e-01 3.0000000e+00 1.1000000e+01 
7.5000000e-01 3.0000000e+00 1.1500000e+01 
7.5000000e-01 3.0000000e+00 1.2000000e+01 
7.5000000e-01 3.0000000e+00 1.2500000e+01 
7.5000000e-01 3.0000000e+00 1.3000000e+01 
7.5000000e-01 3.0000000e+00 1.3500000e+01 
7.5000000e-01 3.0000000e+00 1.4000000e+01 
7.5000000e-01 3.0000000e+00 1.4500000e+01 
7.5000000e-01 3.0000000e+00 1.5000000e+01 
7.5000000e-01 3.0000000e+00 1.5500000e+01 
7.5000000e-01 3.0000000e+00 1.6000000e+01 
7.5000000e-01 3.0000000e+00 1.6500000e+01 
7.5000000e-01 3.0000000e+00 1.7000000e+01 
7.5000000e-01 3.0000000e+00 1.7500000e+01 
7.5000000e-01 3.0000000e+00 1.8000000e+01 
7.5000000e-01 3.0000000e+00 1.8500000e+01 
7.5000000e-01 3.0000000e+00 1.9000000e+01 
7.5000000e-01 3.0000000e+00 1.9500000e+01 
7.5000000e-01 3.0000000e+00 2.0000000e+01 
7.5000000e-01 3.0000000e+00 2.0500000e+01 
7.5000000e-01 3.0000000e+00 2.1000000e+01 
7.5000000e-01 3.0000000e+00 2.1500000e+01 
7.5000000e-01 3.0000000e+00 2.2000000e+01 
7.5000000e-01 3.0000000e+00 2.2500000e+01 
7.5000000e-01 3.0000000e+00 2.3000000e+01 
7.5000000e-01 3.0000000e+00 2.3500000e+01 
7.5000000e-01 3.0000000e+00 2.4000000e+01 
7.5000000e-01 3.0000000e+00 2.4500000e+01 
7.5000000e-01 3.0000000e+00 2.5000000e+01 
7.5000000e-01 3.0000000e+00 2.5500000e+01 
7.5000000e-01 3.0000000e+00 2.6000000e+01 
7.5000000e-01 3.0000000e+00 2.6500000e+01 
7.5000000e-01 3.0000000e+00 2.7000000e+01 
7.5000000e-01 3.0000000e+00 2.7500000e+01 
7.5000000e-01 3.0000000e+00 2.8000000e+01 
7.5000000e-01 3.0000000e+00 2.8500000e+01 
7.5000000e-01 3.0000000e+00 2.9000000e+01 
7.5000000e-01 3.0000000e+00 2.9500000e+01 
7.5000000e-01 3.0000000e+00 3.0000000e+01 
7.5000000e-01 3.0000000e+00 3.0500000e+01 
7.5000000e-01 3.0000000e+00 3.1000000e+01 
7.5000000e-01 3.0000000e+00 3.1500000e+01 
7.5000000e-01 3.0000000e+00 3.2000000e+01 
7.5000000e-01 3.0000000e+00 3.2500000e+01 
7.5000000e-01 3.0000000e+00 3.3000000e+01 
7.5000000e-01 3.0000000e+00 3.3500000e+01 
7.5000000e-01 3.0000000e+00 3.4000000e+01 
7.5000000e-01 3.0000000e+00 3.4500000e+01 
7.5000000e-01 3.0000000e+00 3.5000000e+01 
7.5000000e-01 3.0000000e+00 3.5500000e+01 
7.5000000e-01 3.0000000e+00 3.6000000e+01 
7.5000000e-01 3.0000000e+00 3.6500000e+01 
7.5000000e-01 3.0000000e+00 3.7000000e+01 
7.5000000e-01 3.0000000e+00 3.7500000e+01 
7.5000000e-01 3.0000000e+00 3.8000000e+01 
7.5000000e-01 3.0000000e+00 3.8500000e+01 
7.5000000e-01 3.0000000e+00 3.9000000e+01 
7.5000000e-01 3.0000000e+00 3.9500000e+01 
7.5000000e-01 3.0000000e+00 4.0000000e+01 
7.5000000e-01 3.0000000e+00 4.0500000e+01 
7.5000000e-01 3.0000000e+00 4.1000000e+01 
7.5000000e-01 3.0000000e+00 4.1500000e+01 
7.5000000e-01 3.0000000e+00 4.2000000e+01 
7.5000000e-01 3.0000000e+00 4.2500000e+01 
7.5000000e-01 3.0000000e+00 4.3000000e+01 
7.5000000e-01 3.0000000e+00 4.3500000e+01 
7.5000000e-01 3.0000000e+00 4.4000000e+01 
7.5000000e-01 3.0000000e+00 4.4500000e+01 
7.5000000e-01 3.0000000e+00 4.5000000e+01 
7.5000000e-01 3.0000000e+00 4.5500000e+01 
7.5000000e-01 3.0000000e+00 4.6000000e+01 
7.5000000e-01 3.0000000e+00 4.6500000e+01 
7.5000000e-01 3.0000000e+00 4.7000000e+01 
7.5000000e-01 3.0000000e+00 4.7500000e+01 
7.5000000e-01 3.0000000e+00 4.8000000e+01 
7.5000000e-01 3.0000000e+00 4.8500000e+01 
7.5000000e-01 3.0000000e+00 4.9000000e+01 
7.5000000e-01 3.0000000e+00 4.9500000e+01 
7.5000000e-01 3.0250001e+00 0.0000000e+00 
7.5000000e-01 3.0250001e+00 5.0000000e-01 
7.5000000e-01 3.0250001e+00 1.0000000e+00 
7.5000000e-01 3.0250001e+00 1.5000000e+00 
7.5000000e-01 3.0250001e+00 2.0000000e+00 
7.5000000e-01 3.0250001e+00 2.5000000e+00 
7.5000000e-01 3.0250001e+00 3.0000000e+00 
7.5000000e-01 3.0250001e+00 3.5000000e+00 
7.5000000e-01 3.0250001e+00 4.0000000e+00 
7.5000000e-01 3.0250001e+00 4.5000000e+00 
7.5000000e-01 3.0250001e+00 5.0000000e+00 
7.5000000e-01 3.0250001e+00 5.5000000e+00 
7.5000000e-01 3.0250001e+00 6.0000000e+00 
7.5000000e-01 3.0250001e+00 6.5000000e+00 
7.5000000e-01 3.0250001e+00 7.0000000e+00 
7.5000000e-01 3.0250001e+00 7.5000000e+00 
7.5000000e-01 3.0250001e+00 8.0000000e+00 
7.5000000e-01 3.0250001e+00 8.5000000e+00 
7.5000000e-01 3.0250001e+00 9.0000000e+00 
7.5000000e-01 3.0250001e+00 9.5000000e+00 
7.5000000e-01 3.0250001e+00 1.0000000e+01 
7.5000000e-01 3.0250001e+00 1.0500000e+01 
7.5000000e-01 3.0250001e+00 1.1000000e+01 
7.5000000e-01 3.0250001e+00 1.1500000e+01 
7.5000000e-01 3.0250001e+00 1.2000000e+01 
7.5000000e-01 3.0250001e+00 1.2500000e+01 
7.5000000e-01 3.0250001e+00 1.3000000e+01 
7.5000000e-01 3.0250001e+00 1.3500000e+01 
7.5000000e-01 3.0250001e+00 1.4000000e+01 
7.5000000e-01 3.0250001e+00 1.4500000e+01 
7.5000000e-01 3.0250001e+00 1.5000000e+01 
7.5000000e-01 3.0250001e+00 1.5500000e+01 
7.5000000e-01 3.0250001e+00 1.6000000e+01 
7.5000000e-01 3.0250001e+00 1.6500000e+01 
7.5000000e-01 3.0250001e+00 1.7000000e+01 
7.5000000e-01 3.0250001e+00 1.7500000e+01 
7.5000000e-01 3.0250001e+00 1.8000000e+01 
7.5000000e-01 3.0250001e+00 1.8500000e+01 
7.5000000e-01 3.0250001e+00 1.9000000e+01 
7.5000000e-01 3.0250001e+00 1.9500000e+01 
7.5000000e-01 3.0250001e+00 2.0000000e+01 
7.5000000e-01 3.0250001e+00 2.0500000e+01 
7.5000000e-01 3.0250001e+00 2.1000000e+01 
7.5000000e-01 3.0250001e+00 2.1500000e+01 
7.5000000e-01 3.0250001e+00 2.2000000e+01 
7.5000000e-01 3.0250001e+00 2.2500000e+01 
7.5000000e-01 3.0250001e+00 2.3000000e+01 
7.5000000e-01 3.0250001e+00 2.3500000e+01 
7.5000000e-01 3.0250001e+00 2.4000000e+01 
7.5000000e-01 3.0250001e+00 2.4500000e+01 
7.5000000e-01 3.0250001e+00 2.5000000e+01 
7.5000000e-01 3.0250001e+00 2.5500000e+01 
7.5000000e-01 3.0250001e+00 2.6000000e+01 
7.5000000e-01 3.0250001e+00 2.6500000e+01 
7.5000000e-01 3.0250001e+00 2.7000000e+01 
7.5000000e-01 3.0250001e+00 2.7500000e+01 
7.5000000e-01 3.0250001e+00 2.8000000e+01 
7.5000000e-01 3.0250001e+00 2.8500000e+01 
7.5000000e-01 3.0250001e+00 2.9000000e+01 
7.5000000e-01 3.0250001e+00 2.9500000e+01 
7.5000000e-01 3.0250001e+00 3.0000000e+01 
7.5000000e-01 3.0250001e+00 3.0500000e+01 
7.5000000e-01 3.0250001e+00 3.1000000e+01 
7.5000000e-01 3.0250001e+00 3.1500000e+01 
7.5000000e-01 3.0250001e+00 3.2000000e+01 
7.5000000e-01 3.0250001e+00 3.2500000e+01 
7.5000000e-01 3.0250001e+00 3.3000000e+01 
7.5000000e-01 3.0250001e+00 3.3500000e+01 
7.5000000e-01 3.0250001e+00 3.4000000e+01 
7.5000000e-01 3.0250001e+00 3.4500000e+01 
7.5000000e-01 3.0250001e+00 3.5000000e+01 
7.5000000e-01 3.0250001e+00 3.5500000e+01 
7.5000000e-01 3.0250001e+00 3.6000000e+01 
7.5000000e-01 3.0250001e+00 3.6500000e+01 
7.5000000e-01 3.0250001e+00 3.7000000e+01 
7.5000000e-01 3.0250001e+00 3.7500000e+01 
7.5000000e-01 3.0250001e+00 3.8000000e+01 
7.5000000e-01 3.0250001e+00 3.8500000e+01 
7.5000000e-01 3.0250001e+00 3.9000000e+01 
7.5000000e-01 3.0250001e+00 3.9500000e+01 
7.5000000e-01 3.0250001e+00 4.0000000e+01 
7.5000000e-01 3.0250001e+00 4.0500000e+01 
7.5000000e-01 3.0250001e+00 4.1000000e+01 
7.5000000e-01 3.0250001e+00 4.1500000e+01 
7.5000000e-01 3.0250001e+00 4.2000000e+01 
7.5000000e-01 3.0250001e+00 4.2500000e+01 
7.5000000e-01 3.0250001e+00 4.3000000e+01 
7.5000000e-01 3.0250001e+00 4.3500000e+01 
7.5000000e-01 3.0250001e+00 4.4000000e+01 
7.5000000e-01 3.0250001e+00 4.4500000e+01 
7.5000000e-01 3.0250001e+00 4.5000000e+01 
7.5000000e-01 3.0250001e+00 4.5500000e+01 
7.5000000e-01 3.0250001e+00 4.6000000e+01 
7.5000000e-01 3.0250001e+00 4.6500000e+01 
7.5000000e-01 3.0250001e+00 4.7000000e+01 
7.5000000e-01 3.0250001e+00 4.7500000e+01 
7.5000000e-01 3.0250001e+00 4.8000000e+01 
7.5000000e-01 3.0250001e+00 4.8500000e+01 
7.5000000e-01 3.0250001e+00 4.9000000e+01 
7.5000000e-01 3.0250001e+00 4.9500000e+01 
7.5000000e-01 3.0250001e+00 5.0000000e+01 
3.0000000e+00 2.0000000e+00 3.6000000e+01 
8.0487806e-01 3.0000000e+00 3.6000000e+01 
0.0000000e+00 0.0000000e+00 1.0000000e+00 
0.0000000e+00 0.0000000e+00 2.0000000e+00 
0.0000000e+00 0.0000000e+00 3.0000000e+00 
0.0000000e+00 0.0000000e+00 4.0000000e+00 
0.0000000e+00 0.0000000e+00 5.0000000e+00 
0.0000000e+00 0.0000000e+00 6.0000000e+00 
0.0000000e+00 0.0000000e+00 7.0000000e+00 
0.0000000e+00 0.0000000e+00 8.0000000e+00 
[...]
POINT_DATA 1919
FIELD FieldData 3
DISPLACEMENT 3 1919  float
0.0000000e+00 0.0000000e+00 0.0000000e+00 
0.0000000e+00 0.0000000e+00 0.0000000e+00 
0.0000000e+00 0.0000000e+00 0.0000000e+00 
0.0000000e+00 0.0000000e+00 0.0000000e+00 
5.6367076e-05 -5.1841285e-05 1.1364203e-06 
-2.8494309e-15 -2.0742540e-11 4.3229403e-11 
0.0000000e+00 -9.2981284e-04 0.0000000e+00 
0.0000000e+00 -5.8481401e-12 0.0000000e+00 
9.9499041e-05 -8.2784194e-05 -1.4131306e-06 
-2.6779731e-12 -2.2539151e-11 6.8388184e-11 
1.0539464e-04 -1.7633139e-04 -1.3467448e-04 
-9.8114876e-12 -1.9250318e-11 5.9747880e-11 
0.0000000e+00 -1.8408527e-03 0.0000000e+00 
0.0000000e+00 -5.7208669e-12 0.0000000e+00 
-1.1848644e-03 -2.1021029e-03 -7.8394188e-04 
-1.4928064e-11 -8.8666392e-12 4.3825193e-11 
-7.8609126e-04 -5.7036243e-03 -1.1184255e-03 
-1.5023942e-11 -1.5229202e-11 2.4219095e-11 
0.0000000e+00 -2.8261554e-03 0.0000000e+00 
0.0000000e+00 -3.8489672e-12 0.0000000e+00 
-4.8764449e-04 -5.7830000e-03 -7.2102703e-04 
-2.2213871e-04 -6.0336883e-03 -4.9784954e-04 
-3.1781822e-04 -6.0902005e-03 -2.6005349e-04 
-5.8996433e-04 -5.5517876e-03 -2.6450062e-04 
-2.6787966e-04 -5.0468673e-03 -3.3385315e-04 
-4.4468074e-04 -4.9100271e-03 -2.4455035e-04 
-3.4040216e-04 -5.0686155e-03 -2.5691482e-04 
-3.3755315e-04 -4.9034772e-03 -2.6279798e-04 
-2.4513033e-04 -3.8804065e-03 -3.6880391e-04 
-1.4509654e-04 -2.4795830e-03 -1.9712275e-04 
-6.3854663e-05 -1.2761399e-03 -2.3142388e-04 
-5.1306802e-06 -4.4470301e-04 -6.7809022e-05 
1.6051721e-05 1.5760288e-05 -6.4640197e-05 
2.5150415e-05 2.2499701e-04 -4.4892286e-06 
1.5460189e-05 2.9551829e-04 1.7961352e-06 
1.2033278e-05 2.8021762e-04 9.3947176e-07 
4.9970467e-06 2.0069197e-04 1.1263723e-05 
2.7248288e-06 9.1910057e-05 4.3511054e-07 
9.4422501e-07 5.6300328e-06 5.5969685e-06 
-5.2597278e-07 -3.2211428e-05 -3.2318587e-06 
-2.3247584e-07 -2.7649396e-05 8.4965461e-07 
7.5454075e-08 -7.6275633e-06 4.7962044e-07 
-7.8472922e-08 3.1049533e-06 -3.2814858e-06 
5.0755483e-07 -2.3076561e-06 1.2404226e-06 
2.6267719e-07 -1.4219389e-05 -2.3248131e-06 
-2.1507766e-07 -1.8492823e-05 -3.4815914e-06 
1.3410707e-06 -6.1315145e-06 5.3666651e-07 
4.7540370e-06 2.3064338e-05 -3.8101473e-06 
4.2693491e-06 5.3930813e-05 -2.5208857e-07 
7.5195285e-06 6.0080572e-05 1.1984372e-05 
2.0969937e-06 3.0444071e-05 1.6116099e-05 
-5.1093471e-06 -1.6918671e-05 3.2163829e-05 
-2.4394683e-05 -4.7538200e-05 5.0768605e-05 
-3.3823086e-05 -3.6394365e-05 6.2638363e-05 
-3.2247364e-05 -1.4949258e-05 1.0522939e-04 
-9.4174029e-05 -8.3334256e-05 1.1821400e-04 
-2.5936590e-05 -3.4612790e-04 1.4848489e-04 
-1.6914669e-04 -8.6585223e-04 1.6360081e-04 
-7.2822972e-05 -1.6414681e-03 2.4646832e-04 
-3.0284488e-04 -2.6216100e-03 1.6319154e-04 
-1.4394398e-04 -3.7338305e-03 2.4307732e-04 
-4.2696373e-04 -4.7701341e-03 -3.6790298e-06 
-2.5267739e-04 -5.3489893e-03 6.2491431e-06 
-3.9990677e-04 -5.2627679e-03 -2.6418180e-05 
-2.0253366e-04 -5.0556185e-03 -5.5074055e-05 
-3.4203473e-04 -5.0075958e-03 -1.1635977e-04 
-2.4696128e-04 -5.0137276e-03 -1.1327543e-04 
-2.9351251e-04 -4.5808270e-03 -1.7599123e-04 
-1.7875471e-04 -3.4744667e-03 -2.7926374e-04 
-1.2743626e-04 -2.1709620e-03 -1.4416641e-04 
-3.7587004e-05 -1.0971692e-03 -1.9612779e-04 
-3.4626638e-07 -3.5438777e-04 -6.1561477e-05 
1.2944221e-05 7.1745322e-05 -4.7463476e-05 
1.9707370e-05 2.6407820e-04 4.4157025e-07 
1.3008414e-05 2.9217181e-04 -8.4757909e-07 
8.3438008e-06 2.2721769e-04 3.2922028e-06 
2.8402160e-06 1.3681312e-04 9.5470104e-06 
1.4401907e-06 6.1970350e-05 -9.3308607e-08 
3.1617481e-07 2.0712550e-05 7.5968310e-06 
2.6165887e-07 8.8677007e-07 -1.9499862e-06 
5.4130606e-07 -1.4736554e-05 4.9615016e-07 
-7.1810473e-07 -2.8059800e-05 1.3523039e-06 
-5.7840492e-07 -3.0004287e-05 -2.7832020e-06 
-3.8448673e-07 -1.8198007e-05 9.2860915e-07 
-7.4294221e-08 -5.4583168e-08 1.0003557e-07 
1.2123219e-07 1.2961385e-05 -4.7762478e-07 
1.3356222e-07 1.3157191e-05 8.3214485e-07 
2.2168901e-08 4.7413960e-06 -7.0619535e-08 
-3.9571734e-08 -3.3557137e-06 -1.2007182e-07 
2.5342641e-07 -6.3013140e-06 -1.4321172e-07 
-2.6184269e-08 -4.1345711e-06 2.3361644e-09 
1.7489132e-08 -2.9530224e-07 -3.9393811e-08 
1.4144106e-08 1.7388278e-06 7.7323278e-08 
6.6893366e-09 1.4476535e-06 6.2041788e-10 
-8.6797742e-09 1.5961966e-07 -9.0939645e-11 
-1.5478019e-08 -6.9038123e-07 1.3676758e-08 
-1.7990833e-09 -5.5752514e-07 -2.9465785e-09 
2.5112139e-09 -1.5323529e-08 2.2598396e-09 
9.0313018e-10 2.3763636e-07 6.5352510e-09 
-9.1722061e-11 1.3574427e-07 1.6814452e-09 
-1.3378546e-09 -2.6544988e-08 9.3638597e-10 
-1.2056729e-09 -6.8523860e-08 1.5050872e-09 
-1.6061878e-10 -2.1538048e-08 7.7118800e-10 
3.9955154e-11 1.7047538e-08 6.8136213e-10 
-1.7191171e-10 1.4346997e-08 6.9075595e-10 
-1.7947348e-10 -7.0092654e-10 4.4855364e-10 
-1.1604575e-10 -4.6380721e-09 3.3977832e-10 
-4.6719410e-11 -1.3016144e-09 2.5801261e-10 
-3.5611954e-11 1.0529111e-09 2.1018616e-10 
-4.1472978e-11 5.9324501e-10 1.5047187e-10 
-3.4350696e-11 -1.1619769e-10 1.2161773e-10 
-2.5023343e-11 -1.2925547e-10 9.5908004e-11 
-2.0304857e-11 2.0664033e-11 7.3697971e-11 
-1.5869524e-11 1.6370337e-11 5.9627366e-11 
-1.1325190e-11 -1.6463046e-11 4.9112492e-11 
-7.2731712e-12 4.3077807e-12 3.8549119e-11 
-6.5400346e-12 2.2057346e-11 3.2388259e-11 
-5.0221181e-12 8.8300018e-12 2.8153884e-11 
-7.3988524e-12 -9.5333750e-12 2.5775297e-11 
0.0000000e+00 -5.7013794e-03 0.0000000e+00 
0.0000000e+00 -5.8037746e-03 0.0000000e+00 
0.0000000e+00 -6.0630497e-03 0.0000000e+00 
0.0000000e+00 -6.1199060e-03 0.0000000e+00 
0.0000000e+00 -5.5871136e-03 0.0000000e+00 
0.0000000e+00 -5.0670244e-03 0.0000000e+00 
0.0000000e+00 -4.9367603e-03 0.0000000e+00 
0.0000000e+00 -5.0876029e-03 0.0000000e+00 
0.0000000e+00 -4.9288617e-03 0.0000000e+00 
0.0000000e+00 -3.8967035e-03 0.0000000e+00 
0.0000000e+00 -2.5002663e-03 0.0000000e+00 
0.0000000e+00 -1.2843393e-03 0.0000000e+00 
0.0000000e+00 -4.4873497e-04 0.0000000e+00 
0.0000000e+00 1.6813046e-05 0.0000000e+00 
0.0000000e+00 2.2752825e-04 0.0000000e+00 
0.0000000e+00 2.9653186e-04 0.0000000e+00 
0.0000000e+00 2.7974119e-04 0.0000000e+00 
0.0000000e+00 2.0057289e-04 0.0000000e+00 
0.0000000e+00 9.3720650e-05 0.0000000e+00 
0.0000000e+00 6.9880034e-06 0.0000000e+00 
0.0000000e+00 -3.1914708e-05 0.0000000e+00 
0.0000000e+00 -2.8034854e-05 0.0000000e+00 
0.0000000e+00 -8.0855334e-06 0.0000000e+00 
0.0000000e+00 2.8108695e-06 0.0000000e+00 
0.0000000e+00 -2.4809467e-06 0.0000000e+00 
0.0000000e+00 -1.4484471e-05 0.0000000e+00 
0.0000000e+00 -1.8663557e-05 0.0000000e+00 
0.0000000e+00 -5.3647836e-06 0.0000000e+00 
0.0000000e+00 2.4220863e-05 0.0000000e+00 
0.0000000e+00 5.3784908e-05 0.0000000e+00 
0.0000000e+00 5.8834517e-05 0.0000000e+00 
0.0000000e+00 2.9204961e-05 0.0000000e+00 
0.0000000e+00 -1.7206199e-05 0.0000000e+00 
0.0000000e+00 -4.5162749e-05 0.0000000e+00 
0.0000000e+00 -3.2644723e-05 0.0000000e+00 
0.0000000e+00 -1.3581048e-05 0.0000000e+00 
0.0000000e+00 -8.4452629e-05 0.0000000e+00 
0.0000000e+00 -3.4980846e-04 0.0000000e+00 
0.0000000e+00 -8.6980086e-04 0.0000000e+00 
0.0000000e+00 -1.6437147e-03 0.0000000e+00 
0.0000000e+00 -2.6288007e-03 0.0000000e+00 
0.0000000e+00 -3.7483135e-03 0.0000000e+00 
0.0000000e+00 -4.7971420e-03 0.0000000e+00 
0.0000000e+00 -5.3756731e-03 0.0000000e+00 
0.0000000e+00 -5.2920338e-03 0.0000000e+00 
0.0000000e+00 -5.0762878e-03 0.0000000e+00 
0.0000000e+00 -5.0325720e-03 0.0000000e+00 
0.0000000e+00 -5.0367978e-03 0.0000000e+00 
0.0000000e+00 -4.6083536e-03 0.0000000e+00 
0.0000000e+00 -3.4923223e-03 0.0000000e+00 
0.0000000e+00 -2.1866721e-03 0.0000000e+00 
0.0000000e+00 -1.1022747e-03 0.0000000e+00 
0.0000000e+00 -3.5712231e-04 0.0000000e+00 
0.0000000e+00 7.2330920e-05 0.0000000e+00 
0.0000000e+00 2.6397663e-04 0.0000000e+00 
0.0000000e+00 2.9263669e-04 0.0000000e+00 
0.0000000e+00 2.2908840e-04 0.0000000e+00 
0.0000000e+00 1.3816183e-04 0.0000000e+00 
0.0000000e+00 6.3158055e-05 0.0000000e+00 
0.0000000e+00 2.0688913e-05 0.0000000e+00 
0.0000000e+00 1.0208291e-07 0.0000000e+00 
0.0000000e+00 -1.5087741e-05 0.0000000e+00 
0.0000000e+00 -2.7535496e-05 0.0000000e+00 
0.0000000e+00 -2.9578028e-05 0.0000000e+00 
0.0000000e+00 -1.8248404e-05 0.0000000e+00 
0.0000000e+00 -3.6076096e-07 0.0000000e+00 
0.0000000e+00 1.2454031e-05 0.0000000e+00 
0.0000000e+00 1.3048497e-05 0.0000000e+00 
0.0000000e+00 5.0243470e-06 0.0000000e+00 
0.0000000e+00 -3.1283807e-06 0.0000000e+00 
0.0000000e+00 -6.1980563e-06 0.0000000e+00 
0.0000000e+00 -4.1877656e-06 0.0000000e+00 
0.0000000e+00 -4.5393674e-07 0.0000000e+00 
0.0000000e+00 1.6706520e-06 0.0000000e+00 
0.0000000e+00 1.4781401e-06 0.0000000e+00 
0.0000000e+00 2.1140846e-07 0.0000000e+00 
0.0000000e+00 -6.5308120e-07 0.0000000e+00 
0.0000000e+00 -5.6610702e-07 0.0000000e+00 
0.0000000e+00 -4.6505956e-08 0.0000000e+00 
0.0000000e+00 2.2785329e-07 0.0000000e+00 
0.0000000e+00 1.4622482e-07 0.0000000e+00 
0.0000000e+00 -1.7914271e-08 0.0000000e+00 
0.0000000e+00 -6.8654153e-08 0.0000000e+00 
0.0000000e+00 -2.5171582e-08 0.0000000e+00 
0.0000000e+00 1.5318998e-08 0.0000000e+00 
0.0000000e+00 1.5225897e-08 0.0000000e+00 
0.0000000e+00 3.3947134e-10 0.0000000e+00 
0.0000000e+00 -4.7193152e-09 0.0000000e+00 
0.0000000e+00 -1.6105230e-09 0.0000000e+00 
0.0000000e+00 9.5911223e-10 0.0000000e+00 
0.0000000e+00 6.9525941e-10 0.0000000e+00 
0.0000000e+00 -7.4630496e-11 0.0000000e+00 
0.0000000e+00 -1.5315177e-10 0.0000000e+00 
0.0000000e+00 7.0453287e-12 0.0000000e+00 
0.0000000e+00 2.3174252e-11 0.0000000e+00 
0.0000000e+00 -1.2499300e-11 0.0000000e+00 
0.0000000e+00 9.7115306e-13 0.0000000e+00 
0.0000000e+00 2.0687192e-11 0.0000000e+00 
0.0000000e+00 1.0583498e-11 0.0000000e+00 
0.0000000e+00 -8.8093265e-12 0.0000000e+00 
0.0000000e+00 -1.6141229e-11 0.0000000e+00 
-3.0091944e-09 1.9818213e-08 4.5186603e-08 
1.5235832e-08 1.1330305e-06 -6.5990671e-09 
0.0000000e+00 0.0000000e+00 0.0000000e+00 
0.0000000e+00 0.0000000e+00 0.0000000e+00 
0.0000000e+00 0.0000000e+00 0.0000000e+00 
0.0000000e+00 0.0000000e+00 0.0000000e+00 
0.0000000e+00 0.0000000e+00 0.0000000e+00 
0.0000000e+00 0.0000000e+00 0.0000000e+00 
0.0000000e+00 0.0000000e+00 0.0000000e+00 
0.0000000e+00 0.0000000e+00 0.0000000e+00 
0.0000000e+00 0.0000000e+00 0.0000000e+00 
0.0000000e+00 0.0000000e+00 0.0000000e+00 
0.0000000e+00 0.0000000e+00 0.0000000e+00 
0.0000000e+00 0.0000000e+00 0.0000000e+00 
0.0000000e+00 0.0000000e+00 0.0000000e+00 
0.0000000e+00 0.0000000e+00 0.0000000e+00 
0.0000000e+00 0.0000000e+00 0.0000000e+00 
0.0000000e+00 0.0000000e+00 0.0000000e+00 
0.0000000e+00 0.0000000e+00 0.0000000e+00 
0.0000000e+00 0.0000000e+00 0.0000000e+00 
0.0000000e+00 0.0000000e+00 0.0000000e+00 
0.0000000e+00 0.0000000e+00 0.0000000e+00 
0.0000000e+00 0.0000000e+00 0.0000000e+00 
0.0000000e+00 0.0000000e+00 0.0000000e+00 
0.0000000e+00 0.0000000e+00 0.0000000e+00 
0.0000000e+00 0.0000000e+00 0.0000000e+00 
0.0000000e+00 0.0000000e+00 0.0000000e+00 
0.0000000e+00 0.0000000e+00 0.0000000e+00 
0.0000000e+00 0.0000000e+00 0.0000000e+00 
0.0000000e+00 0.0000000e+00 0.0000000e+00 
0.0000000e+00 0.0000000e+00 0.0000000e+00 
0.0000000e+00 0.0000000e+00 0.0000000e+00 
0.0000000e+00 0.0000000e+00 0.0000000e+00 
0.0000000e+00 0.0000000e+00 0.0000000e+00 
0.0000000e+00 0.0000000e+00 0.0000000e+00 
0.0000000e+00 0.0000000e+00 0.0000000e+00 
0.0000000e+00 0.0000000e+00 0.0000000e+00 
0.0000000e+00 0.0000000e+00 0.0000000e+00 
0.0000000e+00 0.0000000e+00 0.0000000e+00 
0.0000000e+00 0.0000000e+00 0.0000000e+00 
0.0000000e+00 0.0000000e+00 0.0000000e+00 
0.0000000e+00 0.0000000e+00 0.0000000e+00 
0.0000000e+00 0.0000000e+00 0.0000000e+00 
0.0000000e+00 0.0000000e+00 0.0000000e+00 
0.0000000e+00 0.0000000e+00 0.0000000e+00 
0.0000000e+00 0.0000000e+00 0.0000000e+00 
0.0000000e+00 0.0000000e+00 0.0000000e+00 
0.0000000e+00 0.0000000e+00 0.0000000e+00 
0.0000000e+00 0.0000000e+00 0.0000000e+00 
0.0000000e+00 0.0000000e+00 0.0000000e+00 
0.0000000e+00 0.0000000e+00 0.0000000e+00 
0.0000000e+00 0.0000000e+00 0.0000000e+00 
0.0000000e+00 0.0000000e+00 0.0000000e+00 
0.0000000e+00 0.0000000e+00 0.0000000e+00 
0.0000000e+00 0.0000000e+00 0.0000000e+00 
0.0000000e+00 0.0000000e+00 0.0000000e+00 
0.0000000e+00 0.0000000e+00 0.0000000e+00 
0.0000000e+00 0.0000000e+00 0.0000000e+00 
0.0000000e+00 0.0000000e+00 0.0000000e+00 
0.0000000e+00 0.0000000e+00 0.0000000e+00 
0.0000000e+00 0.0000000e+00 0.0000000e+00 
0.0000000e+00 0.0000000e+00 0.0000000e+00 
0.0000000e+00 0.0000000e+00 0.0000000e+00 
0.0000000e+00 0.0000000e+00 0.0000000e+00 
0.0000000e+00 0.0000000e+00 0.0000000e+00 
0.0000000e+00 0.0000000e+00 0.0000000e+00 
0.0000000e+00 0.0000000e+00 0.0000000e+00 
0.0000000e+00 0.0000000e+00 0.0000000e+00 
0.0000000e+00 0.0000000e+00 0.0000000e+00 
0.0000000e+00 0.0000000e+00 0.0000000e+00 
0.0000000e+00 0.0000000e+00 0.0000000e+00 
0.0000000e+00 0.0000000e+00 0.0000000e+00 
0.0000000e+00 0.0000000e+00 0.0000000e+00 
0.0000000e+00 0.0000000e+00 0.0000000e+00 
0.0000000e+00 0.0000000e+00 0.0000000e+00 
0.0000000e+00 0.0000000e+00 0.0000000e+00 
0.0000000e+00 0.0000000e+00 0.0000000e+00 
0.0000000e+00 0.0000000e+00 0.0000000e+00 
0.0000000e+00 0.0000000e+00 0.0000000e+00 
0.0000000e+00 0.0000000e+00 0.0000000e+00 
0.0000000e+00 0.0000000e+00 0.0000000e+00 
0.0000000e+00 0.0000000e+00 0.0000000e+00 
0.0000000e+00 0.0000000e+00 0.0000000e+00 
0.0000000e+00 0.0000000e+00 0.0000000e+00 
0.0000000e+00 0.0000000e+00 0.0000000e+00 
0.0000000e+00 0.0000000e+00 0.0000000e+00 
0.0000000e+00 0.0000000e+00 0.0000000e+00 
0.0000000e+00 0.0000000e+00 0.0000000e+00 
0.0000000e+00 0.0000000e+00 0.0000000e+00 
0.0000000e+00 0.0000000e+00 0.0000000e+00 
0.0000000e+00 0.0000000e+00 0.0000000e+00 
0.0000000e+00 0.0000000e+00 0.0000000e+00 
0.0000000e+00 0.0000000e+00 0.0000000e+00 
0.0000000e+00 0.0000000e+00 0.0000000e+00 
0.0000000e+00 0.0000000e+00 0.0000000e+00 
0.0000000e+00 0.0000000e+00 0.0000000e+00 
0.0000000e+00 0.0000000e+00 0.0000000e+00 
0.0000000e+00 0.0000000e+00 0.0000000e+00 
0.0000000e+00 0.0000000e+00 0.0000000e+00 
0.0000000e+00 0.0000000e+00 0.0000000e+00 
0.0000000e+00 0.0000000e+00 0.0000000e+00 
0.0000000e+00 0.0000000e+00 0.0000000e+00 
0.0000000e+00 0.0000000e+00 0.0000000e+00 
0.0000000e+00 0.0000000e+00 0.0000000e+00 
0.0000000e+00 0.0000000e+00 0.0000000e+00 
0.0000000e+00 0.0000000e+00 0.0000000e+00 
0.0000000e+00 0.0000000e+00 0.0000000e+00 
0.0000000e+00 0.0000000e+00 0.0000000e+00 
3.6253005e-05 -2.7271617e-05 3.4298785e-06 
3.1255138e-05 -2.4346451e-05 4.2020311e-06 
2.0083769e-05 -1.3017561e-05 6.7373385e-06 
4.5639799e-06 -1.0277820e-05 -1.4959861e-06 
1.0912362e-05 -8.7571061e-06 5.1402189e-06 
8.1836333e-06 -2.0284547e-06 6.9545372e-06 
4.0270238e-06 -3.2912581e-07 4.6331033e-06 
2.4662299e-06 -4.8449095e-07 2.5732875e-06 
6.1383514e-07 -3.6692202e-07 1.0810968e-06 
2.5111886e-08 -5.6178578e-08 1.6796474e-07 
-6.5867177e-08 -1.8237841e-07 -2.2122718e-07 
4.5367514e-08 -2.2735198e-07 -1.0282245e-06 
5.2012825e-07 -1.8572152e-07 -1.8655625e-06 
2.2925460e-06 -6.9076214e-07 -4.0074910e-06 
3.4808741e-06 -9.9453302e-07 -6.3401399e-06 
6.9484890e-06 -2.5742399e-06 -6.7098545e-06 
9.6455187e-06 -5.7323273e-06 -7.4392428e-06 
1.3994269e-05 -1.0587019e-05 -7.2063694e-06 
1.9380070e-05 -1.3750147e-05 -7.1985769e-06 
2.3974426e-05 -1.9298288e-05 -8.8947144e-07 
2.2703636e-05 -1.7488435e-05 -1.7431469e-06 
1.9715622e-05 -1.4047961e-05 2.1814365e-06 
1.7192808e-05 -1.2479065e-05 8.0769469e-06 
1.3656613e-05 -8.6895270e-06 6.6429720e-06 
1.2838356e-05 -5.4278166e-06 7.8412240e-06 
7.7462864e-06 -4.1554085e-06 7.6104220e-06 
3.8705898e-06 -2.4404737e-06 6.0584739e-06 
2.1239719e-06 -1.4945210e-06 3.9050788e-06 
8.7014297e-07 -3.7348065e-07 2.4786896e-06 
3.4368759e-07 -1.3210328e-07 1.3515579e-06 
1.2417864e-07 -1.1065050e-07 7.2018577e-07 
-2.1061595e-08 -1.0274718e-07 3.3852365e-07 
1.2387608e-08 -4.9326334e-09 2.0997302e-07 
2.6530653e-09 -2.6257988e-08 1.1338008e-07 
5.9791936e-09 -9.7390380e-09 6.4840357e-08 
4.4815485e-09 -5.0096447e-09 4.1917822e-08 
1.7483953e-09 -2.2251174e-09 2.2711594e-08 
8.1154361e-10 -2.2753033e-09 1.3392683e-08 
7.1368460e-11 -8.4464286e-10 8.2801321e-09 
2.1428843e-10 -5.2470861e-10 4.2392907e-09 
2.7714303e-10 -3.4802594e-10 2.6950051e-09 
1.6126796e-10 -2.2876646e-10 1.6102425e-09 
1.0383340e-10 -1.3451758e-10 9.0359875e-10 
5.3341203e-11 -8.7882646e-11 5.1263832e-10 
4.1291786e-11 -4.2040219e-11 3.1307743e-10 
1.5780606e-11 -2.4454059e-11 1.9096368e-10 
1.2042716e-11 -1.4909305e-11 1.1250667e-10 
3.7064661e-12 -8.9323974e-12 7.2869204e-11 
1.2638351e-12 -7.8168800e-12 4.9615978e-11 
0.0000000e+00 -5.4631406e-04 0.0000000e+00 
0.0000000e+00 -3.3839277e-04 0.0000000e+00 
0.0000000e+00 -3.8894711e-04 0.0000000e+00 
0.0000000e+00 -3.7315849e-04 0.0000000e+00 
0.0000000e+00 -2.1226937e-04 0.0000000e+00 
0.0000000e+00 2.3907825e-05 0.0000000e+00 
0.0000000e+00 4.4637858e-05 0.0000000e+00 
0.0000000e+00 2.4947381e-06 0.0000000e+00 
0.0000000e+00 -1.1257777e-05 0.0000000e+00 
0.0000000e+00 -7.2476000e-06 0.0000000e+00 
0.0000000e+00 8.1520111e-06 0.0000000e+00 
0.0000000e+00 2.9033740e-07 0.0000000e+00 
0.0000000e+00 8.5251401e-07 0.0000000e+00 
0.0000000e+00 1.0816733e-05 0.0000000e+00 
0.0000000e+00 -1.2252158e-05 0.0000000e+00 
0.0000000e+00 -4.6129258e-05 0.0000000e+00 
0.0000000e+00 -1.0016782e-07 0.0000000e+00 
0.0000000e+00 2.8422617e-05 0.0000000e+00 
0.0000000e+00 -6.2068990e-05 0.0000000e+00 
0.0000000e+00 -1.3877837e-04 0.0000000e+00 
0.0000000e+00 -3.2512963e-04 0.0000000e+00 
0.0000000e+00 -3.8505541e-04 0.0000000e+00 
0.0000000e+00 -3.2152535e-04 0.0000000e+00 
0.0000000e+00 -2.8768749e-04 0.0000000e+00 
0.0000000e+00 -1.7343801e-04 0.0000000e+00 
0.0000000e+00 9.2497366e-06 0.0000000e+00 
0.0000000e+00 3.1154868e-05 0.0000000e+00 
0.0000000e+00 7.1212826e-06 0.0000000e+00 
0.0000000e+00 -1.0949451e-05 0.0000000e+00 
0.0000000e+00 -5.1746315e-06 0.0000000e+00 
0.0000000e+00 5.4948987e-06 0.0000000e+00 
0.0000000e+00 2.1493777e-07 0.0000000e+00 
0.0000000e+00 -1.8339656e-06 0.0000000e+00 
0.0000000e+00 6.2928535e-07 0.0000000e+00 
0.0000000e+00 1.0730427e-07 0.0000000e+00 
0.0000000e+00 -1.1609437e-07 0.0000000e+00 
0.0000000e+00 6.3379552e-08 0.0000000e+00 
0.0000000e+00 2.5398888e-08 0.0000000e+00 
0.0000000e+00 -1.5608178e-08 0.0000000e+00 
0.0000000e+00 7.1944108e-09 0.0000000e+00 
0.0000000e+00 -2.4292188e-09 0.0000000e+00 
0.0000000e+00 4.2290565e-10 0.0000000e+00 
0.0000000e+00 -6.9071172e-11 0.0000000e+00 
0.0000000e+00 -3.0083627e-11 0.0000000e+00 
0.0000000e+00 1.5649735e-13 0.0000000e+00 
0.0000000e+00 -7.6043182e-12 0.0000000e+00 
0.0000000e+00 -5.2151404e-12 0.0000000e+00 
0.0000000e+00 -8.6854574e-13 0.0000000e+00 
0.0000000e+00 -2.9838742e-12 0.0000000e+00 
7.2906652e-05 -1.1403573e-05 -1.7263117e-05 
1.6459999e-04 -1.4150496e-04 -6.7477013e-05 
3.0048162e-04 -3.6905415e-04 -9.2143855e-05 
1.9587456e-04 -7.4086728e-04 -1.5931767e-04 
-3.8114273e-12 -2.0006474e-11 4.3674113e-11 
-7.8950770e-12 -1.7109219e-11 3.8591703e-11 
-1.0851468e-11 -1.3893893e-11 3.0627403e-11 
-9.9992488e-12 -9.2900210e-12 1.7372442e-11 
2.9206112e-05 -2.5846677e-05 -1.1503987e-05 
-3.4276463e-06 -1.0037811e-05 -1.7961165e-05 
9.6726149e-07 -2.4196770e-06 -1.5605137e-05 
5.0712001e-06 -1.3006069e-05 -1.1690415e-05 
7.2020694e-06 -1.3306644e-05 -6.3937917e-09 
3.6867273e-06 -3.8652533e-06 -5.8601910e-07 
7.3110766e-07 7.6645006e-07 9.7331838e-07 
6.3314718e-07 -1.0117399e-07 2.4418548e-06 
5.7058065e-07 -3.0887713e-07 1.5743051e-06 
4.2683456e-07 1.5697337e-07 3.4267535e-07 
4.2144598e-07 -5.7557699e-08 -4.4545868e-07 
3.8958669e-07 -1.7003229e-07 -1.3813526e-06 
5.0432482e-07 2.9576814e-08 -1.9803156e-06 
9.4133510e-09 4.6092364e-08 -4.2239053e-06 
-1.7889947e-07 -1.6572184e-06 -5.1865286e-06 
3.6635315e-06 -3.1377319e-06 -4.8287666e-06 
5.9220242e-06 -5.9260415e-06 -5.0594608e-06 
1.1237885e-05 -3.7372201e-06 -1.3289109e-06 
1.9908050e-05 -2.0403593e-06 -7.0438472e-07 
2.5249032e-05 -7.8724988e-06 -3.1817663e-06 