# vtk DataFile Version 4.0
vtk output
ASCII
DATASET UNSTRUCTURED_GRID
POINTS 1919 float
0.0000000e+00 0.0000000e+00 0.0000000e+00 
0.0000000e+00 0.0000000e+00 5.0000000e+01 
5.0000000e+00 0.0000000e+00 0.0000000e+00 
5.0000000e+00 0.0000000e+00 5.0000000e+01 
5.0000000e+00 1.0000000e+00 0.0000000e+00 
5.0000000e+00 1.0000000e+00 5.0000000e+01 
0.0000000e+00 1.0000000e+00 0.0000000e+00 
0.0000000e+00 1.0000000e+00 5.0000000e+01 
5.0000000e+00 2.0000000e+00 0.0000000e+00 
5.0000000e+00 2.0000000e+00 5.0000000e+01 
3.0000000e+00 2.0000000e+00 0.0000000e+00 
3.0000000e+00 2.0000000e+00 5.0000000e+01 
0.0000000e+00 2.0000000e+00 0.0000000e+00 
0.0000000e+00 2.0000000e+00 5.0000000e+01 
1.5000000e+00 3.0000000e+00 0.0000000e+00 
1.5000000e+00 3.0000000e+00 5.0000000e+01 
7.5000000e-01 3.0000000e+00 0.0000000e+00 
7.5000000e-01 3.0000000e+00 5.0000000e+01 
0.0000000e+00 3.0000000e+00 0.0000000e+00 
0.0000000e+00 3.0000000e+00 5.0000000e+01 
7.5000000e-01 3.0000000e+00 5.0000000e-01 
7.5000000e-01 3.0000000e+00 1.0000000e+00 
7.5000000e-01 3.0000000e+00 1.5000000e+00 
7.5000000e-01 3.0000000e+00 2.0000000e+00 
7.5000000e-01 3.0000000e+00 2.5000000e+00 
7.5000000e-01 3.0000000e+00 3.0000000e+00 
7.5000000e-01 3.0000000e+00 3.5000000e+00 
7.5000000e-01 3.0000000e+00 4.0000000e+00 
7.5000000e-01 3.0000000e+00 4.5000000e+00 
7.5000000e-01 3.0000000e+00 5.0000000e+00 
7.5000000e-01 3.0000000e+00 5.5000000e+00 
7.5000000e-01 3.0000000e+00 6.0000000e+00 
7.5000000e-01 3.0000000e+00 6.5000000e+00 
7.5000000e-01 3.0000000e+00 7.0000000e+00 
7.5000000e-01 3.0000000e+00 7.5000000e+00 
7.5000000e-01 3.0000000e+00 8.0000000e+00 
7.5000000e-01 3.0000000e+00 8.5000000e+00 
7.5000000e-01 3.0000000e+00 9.0000000e+00 
7.5000000e-01 3.0000000e+00 9.5000000e+00 
7.5000000e-01 3.0000000e+00 1.0000000e+01 
7.5000000e-01 3.0000000e+00 1.0500000e+01 
7.5000000e-01 3.0000000e+00 1.1000000e+01 
7.5000000e-01 3.0000000e+00 1.1500000e+01 
7.5000000e-01 3.0000000e+00 1.2000000e+01 
7.5000000e-01 3.0000000e+00 1.2500000e+01 
7.5000000e-01 3.0000000e+00 1.3000000e+01 
7.5000000e-01 3.0000000e+00 1.3500000e+01 
7.5000000e-01 3.0000000e+00 1.4000000e+01 
7.5000000e-01 3.0000000e+00 1.4500000e+01 
7.5000000e-01 3.0000000e+00 1.5000000e+01 
7.5000000e-01 3.0000000e+00 1.5500000e+01 
7.5000000e-01 3.0000000e+00 1.6000000e+01 
7.5000000e-01 3.0000000e+00 1.6500000e+01 
7.5000000e-01 3.0000000e+00 1.7000000e+01 
7.5000000e-01 3.0000000e+00 1.7500000e+01 
7.5000000e-01 3.0000000e+00 1.8000000e+01 
7.5000000e-01 3.0000000e+00 1.8500000e+01 
7.5000000e-01 3.0000000e+00 1.9000000e+01 
7.5000000e-01 3.0000000e+00 1.9500000e+01 
7.5000000e-01 3.0000000e+00 2.0000000e+01 
7.5000000e-01 3.0000000e+00 2.0500000e+01 
7.5000000e-01 3.0000000e+00 2.1000000e+01 
7.5000000e-01 3.0000000e+00 2.1500000e+01 
7.5000000e-01 3.0000000e+00 2.2000000e+01 
7.5000000e-01 3.0000000e+00 2.2500000e+01 
7.5000000e-01 3.0000000e+00 2.3000000e+01 
7.5000000e-01 3.0000000e+00 2.3500000e+01 
7.5000000e-01 3.0000000e+00 2.4000000e+01 
7.5000000e-01 3.0000000e+00 2.4500000e+01 
7.5000000e-01 3.0000000e+00 2.5000000e+01 
7.5000000e-01 3.0000000e+00 2.5500000e+01 
7.5000000e-01 3.0000000e+00 2.6000000e+01 
7.5000000e-01 3.0000000e+00 2.6500000e+01 
7.5000000e-01 3.0000000e+00 2.7000000e+01 
7.5000000e-01 3.0000000e+00 2.7500000e+01 
7.5000000e-01 3.0000000e+00 2.8000000e+01 
7.5000000e-01 3.0000000e+00 2.8500000e+01 
7.5000000e-01 3.0000000e+00 2.9000000e+01 
7.5000000e-01 3.0000000e+00 2.9500000e+01 
7.5000000e-01 3.0000000e+00 3.0000000e+01 
7.5000000e-01 3.0000000e+00 3.0500000e+01 
7.5000000e-01 3.0000000e+00 3.1000000e+01 
7.5000000e-01 3.0000000e+00 3.1500000e+01 
7.5000000e-01 3.0000000e+00 3.2000000e+01 
7.5000000e-01 3.0000000e+00 3.2500000e+01 
7.5000000e-01 3.0000000e+00 3.3000000e+01 
7.5000000e-01 3.0000000e+00 3.3500000e+01 
7.5000000e-01 3.0000000e+00 3.4000000e+01 
7.5000000e-01 3.0000000e+00 3.4500000e+01 
7.5000000e-01 3.0000000e+00 3.5000000e+01 
7.5000000e-01 3.0000000e+00 3.5500000e+01 
7.5000000e-01 3.0000000e+00 3.6000000e+01 
7.5000000e-01 3.0000000e+00 3.6500000e+01 
7.5000000e-01 3.0000000e+00 3.7000000e+01 
7.5000000e-01 3.0000000e+00 3.7500000e+01 
7.5000000e-01 3.0000000e+00 3.8000000e+01 
7.5000000e-01 3.0000000e+00 3.8500000e+01 
7.5000000e-01 3.0000000e+00 3.9000000e+01 
7.5000000e-01 3.0000000e+00 3.9500000e+01 
7.5000000e-01 3.0000000e+00 4.0000000e+01 
7.5000000e-01 3.0000000e+00 4.0500000e+01 
7.5000000e-01 3.0000000e+00 4.1000000e+01 
7.5000000e-01 3.0000000e+00 4.1500000e+01 
7.5000000e-01 3.0000000e+00 4.2000000e+01 
7.5000000e-01 3.0000000e+00 4.2500000e+01 
7.5000000e-01 3.0000000e+00 4.3000000e+01 
7.5000000e-01 3.0000000e+00 4.3500000e+01 
7.5000000e-01 3.0000000e+00 4.4000000e+01 
7.5000000e-01 3.0000000e+00 4.4500000e+01 
7.5000000e-01 3.0000000e+00 4.5000000e+01 
7.5000000e-01 3.0000000e+00 4.5500000e+01 
7.5000000e-01 3.0000000e+00 4.6000000e+01 
7.5000000e-01 3.0000000e+00 4.6500000e+01 
7.5000000e-01 3.0000000e+00 4.7000000e+01 
7.5000000e-01 3.0000000e+00 4.7500000e+01 
7.5000000e-01 3.0000000e+00 4.8000000e+01 
7.5000000e-01 3.0000000e+00 4.8500000e+01 
7.5000000e-01 3.0000000e+00 4.9000000e+01 
7.5000000e-01 3.0000000e+00 4.9500000e+01 
7.5000000e-01 3.0250001e+00 0.0000000e+00 
7.5000000e-01 3.0250001e+00 5.0000000e-01 
7.5000000e-01 3.0250001e+00 1.0000000e+00 
7.5000000e-01 3.0250001e+00 1.5000000e+00 
7.5000000e-01 3.0250001e+00 2.0000000e+00 
7.5000000e-01 3.0250001e+00 2.5000000e+00 
7.5000000e-01 3.0250001e+00 3.0000000e+00 
7.5000000e-01 3.0250001e+00 3.5000000e+00 
7.5000000e-01 3.0250001e+00 4.0000000e+00 
7.5000000e-01 3.0250001e+00 4.5000000e+00 
7.5000000e-01 3.0250001e+00 5.0000000e+00 
7.5000000e-01 3.0250001e+00 5.5000000e+00 
7.5000000e-01 3.0250001e+00 6.0000000e+00 
7.5000000e-01 3.0250001e+00 6.5000000e+00 
7.5000000e-01 3.0250001e+00 7.0000000e+00 
7.5000000e-01 3.0250001e+00 7.5000000e+00 
7.5000000e-01 3.0250001e+00 8.0000000e+00 
7.5000000e-01 3.0250001e+00 8.5000000e+00 
7.5000000e-01 3.0250001e+00 9.0000000e+00 
7.5000000e-01 3.0250001e+00 9.5000000e+00 
7.5000000e-01 3.0250001e+00 1.0000000e+01 
7.5000000e-01 3.0250001e+00 1.0500000e+01 
7.5000000e-01 3.0250001e+00 1.1000000e+01 
7.5000000e-01 3.0250001e+00 1.1500000e+01 
7.5000000e-01 3.0250001e+00 1.2000000e+01 
7.5000000e-01 3.0250001e+00 1.2500000e+01 
7.5000000e-01 3.0250001e+00 1.3000000e+01 
7.5000000e-01 3.0250001e+00 1.3500000e+01 
7.5000000e-01 3.0250001e+00 1.4000000e+01 
7.5000000e-01 3.0250001e+00 1.4500000e+01 
7.5000000e-01 3.0250001e+00 1.5000000e+01 
7.5000000e-01 3.0250001e+00 1.5500000e+01 
7.5000000e-01 3.0250001e+00 1.6000000e+01 
7.5000000e-01 3.0250001e+00 1.6500000e+01 
7.5000000e-01 3.0250001e+00 1.7000000e+01 
7.5000000e-01 3.0250001e+00 1.7500000e+01 
7.5000000e-01 3.0250001e+00 1.8000000e+01 
7.5000000e-01 3.0250001e+00 1.8500000e+01 
7.5000000e-01 3.0250001e+00 1.9000000e+01 
7.5000000e-01 3.0250001e+00 1.9500000e+01 
7.5000000e-01 3.0250001e+00 2.0000000e+01 
7.5000000e-01 3.0250001e+00 2.0500000e+01 
7.5000000e-01 3.0250001e+00 2.1000000e+01 
7.5000000e-01 3.0250001e+00 2.1500000e+01 
7.5000000e-01 3.0250001e+00 2.2000000e+01 
7.5000000e-01 3.0250001e+00 2.2500000e+01 
7.5000000e-01 3.0250001e+00 2.3000000e+01 
7.5000000e-01 3.0250001e+00 2.3500000e+01 
7.5000000e-01 3.0250001e+00 2.4000000e+01 
7.5000000e-01 3.0250001e+00 2.4500000e+01 
7.5000000e-01 3.0250001e+00 2.5000000e+01 
7.5000000e-01 3.0250001e+00 2.5500000e+01 
7.5000000e-01 3.0250001e+00 2.6000000e+01 
7.5000000e-01 3.0250001e+00 2.6500000e+01 
7.5000000e-01 3.0250001e+00 2.7000000e+01 
7.5000000e-01 3.0250001e+00 2.7500000e+01 
7.5000000e-01 3.0250001e+00 2.8000000e+01 
7.5000000e-01 3.0250001e+00 2.8500000e+01 
7.5000000e-01 3.0250001e+00 2.9000000e+01 
7.5000000e-01 3.0250001e+00 2.9500000e+01 
7.5000000e-01 3.0250001e+00 3.0000000e+01 
7.5000000e-01 3.0250001e+00 3.0500000e+01 
7.5000000e-01 3.0250001e+00 3.1000000e+01 
7.5000000e-01 3.0250001e+00 3.1500000e+01 
7.5000000e-01 3.0250001e+00 3.2000000e+01 
7.5000000e-01 3.0250001e+00 3.2500000e+01 
7.5000000e-01 3.0250001e+00 3.3000000e+01 
7.5000000e-01 3.0250001e+00 3.3500000e+01 
7.5000000e-01 3.0250001e+00 3.4000000e+01 
7.5000000e-01 3.0250001e+00 3.4500000e+01 
7.5000000e-01 3.0250001e+00 3.5000000e+01 
7.5000000e-01 3.0250001e+00 3.5500000e+01 
7.5000000e-01 3.0250001e+00 3.6000000e+01 
7.5000000e-01 3.0250001e+00 3.6500000e+01 
7.5000000e-01 3.0250001e+00 3.7000000e+01 
7.5000000e-01 3.0250001e+00 3.7500000e+01 
7.5000000e-01 3.0250001e+00 3.8000000e+01 
7.5000000e-01 3.0250001e+00 3.8500000e+01 
7.5000000e-01 3.0250001e+00 3.9000000e+01 
7.5000000e-01 3.0250001e+00 3.9500000e+01 
7.5000000e-01 3.0250001e+00 4.0000000e+01 
7.5000000e-01 3.0250001e+00 4.0500000e+01 
7.5000000e-01 3.0250001e+00 4.1000000e+01 
7.5000000e-01 3.0250001e+00 4.1500000e+01 
7.5000000e-01 3.0250001e+00 4.2000000e+01 
7.5000000e-01 3.0250001e+00 4.2500000e+01 
7.5000000e-01 3.0250001e+00 4.3000000e+01 
7.5000000e-01 3.0250001e+00 4.3500000e+01 
7.5000000e-01 3.0250001e+00 4.4000000e+01 
7.5000000e-01 3.0250001e+00 4.4500000e+01 
7.5000000e-01 3.0250001e+00 4.5000000e+01 
7.5000000e-01 3.0250001e+00 4.5500000e+01 
7.5000000e-01 3.0250001e+00 4.6000000e+01 
7.5000000e-01 3.0250001e+00 4.6500000e+01 
7.5000000e-01 3.0250001e+00 4.7000000e+01 
7.5000000e-01 3.0250001e+00 4.7500000e+01 
7.5000000e-01 3.0250001e+00 4.8000000e+01 
7.5000000e-01 3.0250001e+00 4.8500000e+01 
7.5000000e-01 3.0250001e+00 4.9000000e+01 
7.5000000e-01 3.0250001e+00 4.9500000e+01 
7.5000000e-01 3.0250001e+00 5.0000000e+01 
3.0000000e+00 2.0000000e+00 3.6000000e+01 
8.0487806e-01 3.0000000e+00 3.6000000e+01 
0.0000000e+00 0.0000000e+00 1.0000000e+00 
0.0000000e+00 0.0000000e+00 2.0000000e+00 
0.0000000e+00 0.0000000e+00 3.0000000e+00 
0.0000000e+00 0.0000000e+00 4.0000000e+00 
0.0000000e+00 0.0000000e+00 5.0000000e+00 
0.0000000e+00 0.0000000e+00 6.0000000e+00 
0.0000000e+00 0.0000000e+00 7.0000000e+00 
0.0000000e+00 0.0000000e+00 8.0000000e+00 
[...]
POINT_DATA 1919
FIELD FieldData 3
DISPLACEMENT 3 1919  float
0.0000000e+00 0.0000000e+00 0.0000000e+00 
0.0000000e+00 0.0000000e+00 0.0000000e+00 
0.0000000e+00 0.0000000e+00 0.0000000e+00 
0.0000000e+00 0.0000000e+00 0.0000000e+00 
6.6252614e-05 -2.3789960e-05 -6.1014734e-06 
-1.5935723e-13 -2.1161638e-11 4.4334401e-11 
0.0000000e+00 -1.0026710e-03 0.0000000e+00 
0.0000000e+00 -5.8066993e-12 0.0000000e+00 
9.1654831e-05 -2.8339429e-05 -6.1234132e-06 
-2.9339742e-12 -2.3113617e-11 7.0209394e-11 
1.1535758e-04 -2.5504868e-04 -1.1190870e-04 
-1.0012277e-11 -1.9990008e-11 6.1121989e-11 
0.0000000e+00 -2.3904897e-03 0.0000000e+00 
0.0000000e+00 -4.3852712e-12 0.0000000e+00 
-8.3832775e-04 -2.2001255e-03 -1.2982531e-03 
-1.4812452e-11 -8.4707363e-12 4.5230420e-11 
-2.7041274e-04 -7.2372355e-03 -1.7636941e-03 
-1.4481457e-11 -1.8219118e-12 2.5534894e-11 
0.0000000e+00 -4.4029029e-03 0.0000000e+00 
0.0000000e+00 -1.4625691e-12 0.0000000e+00 
-3.6557458e-04 -7.0847450e-03 -1.0491968e-03 
-3.9354584e-04 -6.5726712e-03 -6.5623043e-04 
-4.5159247e-04 -5.6460979e-03 -5.4853992e-04 
-1.6671297e-04 -4.8681744e-03 -2.9442008e-04 
-3.8402711e-04 -4.5861877e-03 -2.7650225e-04 
-1.7402500e-04 -4.4931839e-03 -2.9392706e-04 
-2.7978874e-04 -4.0461048e-03 -2.9264254e-04 
-9.8541837e-05 -2.9152166e-03 -1.6337656e-04 
-9.7931465e-05 -1.6877697e-03 -2.4993703e-04 
-1.7912396e-05 -7.3076278e-04 -9.4657407e-05 
-5.2647147e-06 -1.5566785e-04 -1.1683199e-04 
4.8332331e-06 1.3245906e-04 -4.9455950e-05 
1.3958786e-05 2.3868465e-04 -3.0094785e-05 
8.9496307e-06 2.3177534e-04 -2.3595476e-05 
9.4873776e-06 1.5693263e-04 -2.9784844e-06 
2.9057953e-06 6.2384905e-05 -6.4816395e-06 
2.6200748e-06 -2.9843718e-06 -2.2766801e-06 
5.1522426e-07 -2.5390571e-05 -3.4507545e-07 
4.5088510e-07 -1.6603841e-05 -3.9708996e-07 
1.2096905e-07 -1.3876324e-06 -4.2517829e-08 
-1.4440074e-07 2.8990528e-06 2.3723518e-07 
-3.0546843e-07 -1.3464573e-06 -2.6581253e-07 
-4.2252236e-07 -3.7759162e-06 -3.5315679e-07 
-2.5584052e-07 -1.1088615e-06 -4.5915058e-07 
4.9290836e-08 2.1183366e-06 -8.6460443e-07 
3.5617202e-07 3.3414015e-06 -3.5791587e-07 
1.6344386e-06 8.4565017e-06 -3.7461447e-07 
1.0178069e-06 2.4736035e-05 1.1897124e-06 
4.6825558e-06 4.8346094e-05 3.0122833e-06 
3.3252609e-06 6.2894949e-05 7.3808988e-06 
6.5155423e-06 5.6477606e-05 1.3838076e-05 
4.9627051e-06 3.3781645e-05 2.5094172e-05 
5.3253170e-06 6.9006423e-06 4.6185563e-05 
1.5878685e-06 -2.7918693e-05 6.3355670e-05 
-3.5900208e-05 -1.1276836e-04 9.7836310e-05 
-2.2723401e-05 -3.4398373e-04 1.2178336e-04 
-1.4813735e-04 -8.2777318e-04 1.5522678e-04 
-8.8407178e-05 -1.6174419e-03 1.3862827e-04 
-2.6958025e-04 -2.6616980e-03 2.0320868e-04 
-1.6412786e-04 -3.7592337e-03 2.1209155e-05 
-4.0055590e-04 -4.5961533e-03 1.0086529e-04 
-2.0496506e-04 -4.7766445e-03 3.4851630e-05 
-3.6778548e-04 -4.5281267e-03 -5.5048342e-05 
-1.9522329e-04 -4.3346407e-03 -4.7049227e-05 
-3.2721681e-04 -4.3864422e-03 -2.7746968e-05 
-1.6697696e-04 -4.3516755e-03 -1.3021284e-04 
-2.2253975e-04 -3.7617621e-03 -1.8193114e-04 
-9.2183720e-05 -2.6493978e-03 -9.2367933e-05 
-8.5771790e-05 -1.5342929e-03 -1.8066632e-04 
-1.0870166e-05 -6.7289959e-04 -5.5720498e-05 
-1.5318503e-05 -1.2146655e-04 -8.2452418e-05 
4.6394593e-06 1.6868922e-04 -3.7335525e-05 
1.6154107e-05 2.5717125e-04 -2.1069700e-05 
8.9399337e-06 2.1784326e-04 -2.0000040e-05 
8.0096288e-06 1.2648490e-04 -8.8370871e-07 
2.4934991e-06 3.9122697e-05 -4.4382682e-06 
2.6319167e-06 -8.6491191e-06 -1.9768297e-06 
3.0249544e-07 -1.8872812e-05 2.1583396e-07 
3.7304457e-07 -8.8812958e-06 2.7300663e-07 
1.2201747e-07 3.2335674e-06 6.1085052e-07 
-1.0239965e-07 6.0772800e-06 6.7492630e-07 
-1.3148684e-07 1.8485736e-06 2.8833227e-07 
-2.3440620e-07 -2.2519657e-06 1.4632857e-07 
-1.3400364e-07 -2.9957712e-06 1.6521977e-07 
-1.0860966e-07 -1.4438054e-06 4.2023284e-08 
-3.8741295e-08 3.7598298e-09 5.6737370e-08 
-3.2353864e-08 2.9270583e-07 3.0798020e-08 
-1.6776715e-08 4.8658332e-08 2.1021052e-08 
-1.0932555e-08 -4.7838384e-08 1.9420057e-08 
-7.2686595e-09 1.1429701e-08 1.3774729e-08 
-3.3203769e-09 5.8761525e-08 1.3558303e-08 
-3.3121981e-09 4.4789157e-08 1.1178068e-08 
-1.8462730e-09 2.1498371e-08 1.0868764e-08 
-2.7945539e-09 1.2226691e-08 8.3617167e-09 
-1.3016056e-09 7.8094340e-09 7.4112680e-09 
-1.4852387e-09 2.9136455e-09 5.6189884e-09 
-1.3034785e-09 -7.0349428e-11 4.6274367e-09 
-1.0830433e-09 -4.6352411e-10 3.5164871e-09 
-8.6951490e-10 -2.2756068e-10 2.7100224e-09 
-6.8359396e-10 -3.2775591e-10 2.0935877e-09 
-5.4091970e-10 -3.7833672e-10 1.5949861e-09 
-3.9612041e-10 -1.2555328e-10 1.2413396e-09 
-3.0531744e-10 1.4957262e-10 9.6176100e-10 
-2.2212067e-10 2.0791584e-10 7.4336798e-10 
-1.6324128e-10 1.2107763e-10 5.7778277e-10 
-1.2149895e-10 6.4638947e-11 4.4270695e-10 
-8.5594316e-11 8.2559855e-11 3.4296610e-10 
-6.4388238e-11 9.9666414e-11 2.6481087e-10 
-4.9767735e-11 7.6801912e-11 2.0237464e-10 
-4.2595732e-11 3.8937919e-11 1.5490936e-10 
-3.2153905e-11 1.9857543e-11 1.2151052e-10 
-2.4886634e-11 1.8068094e-11 9.4489548e-11 
-1.7906098e-11 1.7573148e-11 7.5425825e-11 
-1.4038470e-11 1.3160353e-11 5.9102237e-11 
-1.0324237e-11 8.1033522e-12 4.8876962e-11 
-7.7075603e-12 4.7191201e-12 3.9556285e-11 
-5.5364433e-12 2.3655227e-12 3.3427330e-11 
-4.5781994e-12 3.0231381e-13 2.8841641e-11 
-6.8531673e-12 -1.2423865e-12 2.6075081e-11 
0.0000000e+00 -7.2460962e-03 0.0000000e+00 
0.0000000e+00 -7.1206936e-03 0.0000000e+00 
0.0000000e+00 -6.6108787e-03 0.0000000e+00 
0.0000000e+00 -5.6746146e-03 0.0000000e+00 
0.0000000e+00 -4.9002315e-03 0.0000000e+00 
0.0000000e+00 -4.6026562e-03 0.0000000e+00 
0.0000000e+00 -4.5176973e-03 0.0000000e+00 
0.0000000e+00 -4.0654191e-03 0.0000000e+00 
0.0000000e+00 -2.9416042e-03 0.0000000e+00 
0.0000000e+00 -1.7003004e-03 0.0000000e+00 
0.0000000e+00 -7.3890720e-04 0.0000000e+00 
0.0000000e+00 -1.5525818e-04 0.0000000e+00 
0.0000000e+00 1.3414070e-04 0.0000000e+00 
0.0000000e+00 2.3947989e-04 0.0000000e+00 
0.0000000e+00 2.3182038e-04 0.0000000e+00 
0.0000000e+00 1.5740882e-04 0.0000000e+00 
0.0000000e+00 6.4399559e-05 0.0000000e+00 
0.0000000e+00 -1.8828042e-06 0.0000000e+00 
0.0000000e+00 -2.5185176e-05 0.0000000e+00 
0.0000000e+00 -1.7143189e-05 0.0000000e+00 
0.0000000e+00 -2.2584943e-06 0.0000000e+00 
0.0000000e+00 2.6154789e-06 0.0000000e+00 
0.0000000e+00 -9.9107353e-07 0.0000000e+00 
0.0000000e+00 -3.3694089e-06 0.0000000e+00 
0.0000000e+00 -1.1102026e-06 0.0000000e+00 
0.0000000e+00 1.6921002e-06 0.0000000e+00 
0.0000000e+00 3.0634028e-06 0.0000000e+00 
0.0000000e+00 8.8605420e-06 0.0000000e+00 
0.0000000e+00 2.5504271e-05 0.0000000e+00 
0.0000000e+00 4.8440597e-05 0.0000000e+00 
0.0000000e+00 6.2236206e-05 0.0000000e+00 
0.0000000e+00 5.5927645e-05 0.0000000e+00 
0.0000000e+00 3.4135093e-05 0.0000000e+00 
0.0000000e+00 8.5076590e-06 0.0000000e+00 
0.0000000e+00 -2.5018833e-05 0.0000000e+00 
0.0000000e+00 -1.1127912e-04 0.0000000e+00 
0.0000000e+00 -3.4523153e-04 0.0000000e+00 
0.0000000e+00 -8.3286536e-04 0.0000000e+00 
0.0000000e+00 -1.6259605e-03 0.0000000e+00 
0.0000000e+00 -2.6688967e-03 0.0000000e+00 
0.0000000e+00 -3.7746867e-03 0.0000000e+00 
0.0000000e+00 -4.6170373e-03 0.0000000e+00 
0.0000000e+00 -4.8088632e-03 0.0000000e+00 
0.0000000e+00 -4.5525921e-03 0.0000000e+00 
0.0000000e+00 -4.3611941e-03 0.0000000e+00 
0.0000000e+00 -4.4055092e-03 0.0000000e+00 
0.0000000e+00 -4.3792692e-03 0.0000000e+00 
0.0000000e+00 -3.7836710e-03 0.0000000e+00 
0.0000000e+00 -2.6702562e-03 0.0000000e+00 
0.0000000e+00 -1.5434548e-03 0.0000000e+00 
0.0000000e+00 -6.7738473e-04 0.0000000e+00 
0.0000000e+00 -1.2203585e-04 0.0000000e+00 
0.0000000e+00 1.6812774e-04 0.0000000e+00 
0.0000000e+00 2.5746168e-04 0.0000000e+00 
0.0000000e+00 2.1934128e-04 0.0000000e+00 
0.0000000e+00 1.2775495e-04 0.0000000e+00 
0.0000000e+00 4.0890100e-05 0.0000000e+00 
0.0000000e+00 -8.1034159e-06 0.0000000e+00 
0.0000000e+00 -1.9118810e-05 0.0000000e+00 
0.0000000e+00 -9.3150556e-06 0.0000000e+00 
0.0000000e+00 2.6555842e-06 0.0000000e+00 
0.0000000e+00 5.9611043e-06 0.0000000e+00 
0.0000000e+00 2.1182118e-06 0.0000000e+00 
0.0000000e+00 -2.0749762e-06 0.0000000e+00 
0.0000000e+00 -3.0038234e-06 0.0000000e+00 
0.0000000e+00 -1.5262970e-06 0.0000000e+00 
0.0000000e+00 -4.9971636e-08 0.0000000e+00 
0.0000000e+00 3.0694545e-07 0.0000000e+00 
0.0000000e+00 7.6723261e-08 0.0000000e+00 
0.0000000e+00 -4.6452076e-08 0.0000000e+00 
0.0000000e+00 5.0200448e-09 0.0000000e+00 
0.0000000e+00 5.6467616e-08 0.0000000e+00 
0.0000000e+00 4.6845859e-08 0.0000000e+00 
0.0000000e+00 2.2462562e-08 0.0000000e+00 
0.0000000e+00 1.1762656e-08 0.0000000e+00 
0.0000000e+00 7.5900530e-09 0.0000000e+00 
0.0000000e+00 3.0762155e-09 0.0000000e+00 
0.0000000e+00 -5.1231952e-13 0.0000000e+00 
0.0000000e+00 -5.4395105e-10 0.0000000e+00 
0.0000000e+00 -2.7222974e-10 0.0000000e+00 
0.0000000e+00 -3.0530192e-10 0.0000000e+00 
0.0000000e+00 -3.5978745e-10 0.0000000e+00 
0.0000000e+00 -1.3730851e-10 0.0000000e+00 
0.0000000e+00 1.3592395e-10 0.0000000e+00 
0.0000000e+00 2.0875737e-10 0.0000000e+00 
0.0000000e+00 1.2847329e-10 0.0000000e+00 
0.0000000e+00 6.7673270e-11 0.0000000e+00 
0.0000000e+00 7.9597211e-11 0.0000000e+00 
0.0000000e+00 9.7431903e-11 0.0000000e+00 
0.0000000e+00 7.7431332e-11 0.0000000e+00 
0.0000000e+00 4.0547208e-11 0.0000000e+00 
0.0000000e+00 2.0083981e-11 0.0000000e+00 
0.0000000e+00 1.7436740e-11 0.0000000e+00 
0.0000000e+00 1.7326378e-11 0.0000000e+00 
0.0000000e+00 1.3297358e-11 0.0000000e+00 
0.0000000e+00 8.2034379e-12 0.0000000e+00 
0.0000000e+00 4.6832278e-12 0.0000000e+00 
0.0000000e+00 2.3338037e-12 0.0000000e+00 
0.0000000e+00 3.1630609e-13 0.0000000e+00 
0.0000000e+00 -1.2313729e-12 0.0000000e+00 
0.0000000e+00 -1.8230604e-12 0.0000000e+00 
-6.4139156e-09 -1.0528864e-09 4.2436156e-08 
-3.1414829e-09 3.1450263e-08 1.2196804e-08 
0.0000000e+00 0.0000000e+00 0.0000000e+00 
0.0000000e+00 0.0000000e+00 0.0000000e+00 
0.0000000e+00 0.0000000e+00 0.0000000e+00 
0.0000000e+00 0.0000000e+00 0.0000000e+00 
0.0000000e+00 0.0000000e+00 0.0000000e+00 
0.0000000e+00 0.0000000e+00 0.0000000e+00 
0.0000000e+00 0.0000000e+00 0.0000000e+00 
0.0000000e+00 0.0000000e+00 0.0000000e+00 
0.0000000e+00 0.0000000e+00 0.0000000e+00 
0.0000000e+00 0.0000000e+00 0.0000000e+00 
0.0000000e+00 0.0000000e+00 0.0000000e+00 
0.0000000e+00 0.0000000e+00 0.0000000e+00 
0.0000000e+00 0.0000000e+00 0.0000000e+00 
0.0000000e+00 0.0000000e+00 0.0000000e+00 
0.0000000e+00 0.0000000e+00 0.0000000e+00 
0.0000000e+00 0.0000000e+00 0.0000000e+00 
0.0000000e+00 0.0000000e+00 0.0000000e+00 
0.0000000e+00 0.0000000e+00 0.0000000e+00 
0.0000000e+00 0.0000000e+00 0.0000000e+00 
0.0000000e+00 0.0000000e+00 0.0000000e+00 
0.0000000e+00 0.0000000e+00 0.0000000e+00 
0.0000000e+00 0.0000000e+00 0.0000000e+00 
0.0000000e+00 0.0000000e+00 0.0000000e+00 
0.0000000e+00 0.0000000e+00 0.0000000e+00 
0.0000000e+00 0.0000000e+00 0.0000000e+00 
0.0000000e+00 0.0000000e+00 0.0000000e+00 
0.0000000e+00 0.0000000e+00 0.0000000e+00 
0.0000000e+00 0.0000000e+00 0.0000000e+00 
0.0000000e+00 0.0000000e+00 0.0000000e+00 
0.0000000e+00 0.0000000e+00 0.0000000e+00 
0.0000000e+00 0.0000000e+00 0.0000000e+00 
0.0000000e+00 0.0000000e+00 0.0000000e+00 
0.0000000e+00 0.0000000e+00 0.0000000e+00 
0.0000000e+00 0.0000000e+00 0.0000000e+00 
0.0000000e+00 0.0000000e+00 0.0000000e+00 
0.0000000e+00 0.0000000e+00 0.0000000e+00 
0.0000000e+00 0.0000000e+00 0.0000000e+00 
0.0000000e+00 0.0000000e+00 0.0000000e+00 
0.0000000e+00 0.0000000e+00 0.0000000e+00 
0.0000000e+00 0.0000000e+00 0.0000000e+00 
0.0000000e+00 0.0000000e+00 0.0000000e+00 
0.0000000e+00 0.0000000e+00 0.0000000e+00 
0.0000000e+00 0.0000000e+00 0.0000000e+00 
0.0000000e+00 0.0000000e+00 0.0000000e+00 
0.0000000e+00 0.0000000e+00 0.0000000e+00 
0.0000000e+00 0.0000000e+00 0.0000000e+00 
0.0000000e+00 0.0000000e+00 0.0000000e+00 
0.0000000e+00 0.0000000e+00 0.0000000e+00 
0.0000000e+00 0.0000000e+00 0.0000000e+00 
0.0000000e+00 0.0000000e+00 0.0000000e+00 
0.0000000e+00 0.0000000e+00 0.0000000e+00 
0.0000000e+00 0.0000000e+00 0.0000000e+00 
0.0000000e+00 0.0000000e+00 0.0000000e+00 
0.0000000e+00 0.0000000e+00 0.0000000e+00 
0.0000000e+00 0.0000000e+00 0.0000000e+00 
0.0000000e+00 0.0000000e+00 0.0000000e+00 
0.0000000e+00 0.0000000e+00 0.0000000e+00 
0.0000000e+00 0.0000000e+00 0.0000000e+00 
0.0000000e+00 0.0000000e+00 0.0000000e+00 
0.0000000e+00 0.0000000e+00 0.0000000e+00 
0.0000000e+00 0.0000000e+00 0.0000000e+00 
0.0000000e+00 0.0000000e+00 0.0000000e+00 
0.0000000e+00 0.0000000e+00 0.0000000e+00 
0.0000000e+00 0.0000000e+00 0.0000000e+00 
0.0000000e+00 0.0000000e+00 0.0000000e+00 
0.0000000e+00 0.0000000e+00 0.0000000e+00 
0.0000000e+00 0.0000000e+00 0.0000000e+00 
0.0000000e+00 0.0000000e+00 0.0000000e+00 
0.0000000e+00 0.0000000e+00 0.0000000e+00 
0.0000000e+00 0.0000000e+00 0.0000000e+00 
0.0000000e+00 0.0000000e+00 0.0000000e+00 
0.0000000e+00 0.0000000e+00 0.0000000e+00 
0.0000000e+00 0.0000000e+00 0.0000000e+00 
0.0000000e+00 0.0000000e+00 0.0000000e+00 
0.0000000e+00 0.0000000e+00 0.0000000e+00 
0.0000000e+00 0.0000000e+00 0.0000000e+00 
0.0000000e+00 0.0000000e+00 0.0000000e+00 
0.0000000e+00 0.0000000e+00 0.0000000e+00 
0.0000000e+00 0.0000000e+00 0.0000000e+00 
0.0000000e+00 0.0000000e+00 0.0000000e+00 
0.0000000e+00 0.0000000e+00 0.0000000e+00 
0.0000000e+00 0.0000000e+00 0.0000000e+00 
0.0000000e+00 0.0000000e+00 0.0000000e+00 
0.0000000e+00 0.0000000e+00 0.0000000e+00 
0.0000000e+00 0.0000000e+00 0.0000000e+00 
0.0000000e+00 0.0000000e+00 0.0000000e+00 
0.0000000e+00 0.0000000e+00 0.0000000e+00 
0.0000000e+00 0.0000000e+00 0.0000000e+00 
0.0000000e+00 0.0000000e+00 0.0000000e+00 
0.0000000e+00 0.0000000e+00 0.0000000e+00 
0.0000000e+00 0.0000000e+00 0.0000000e+00 
0.0000000e+00 0.0000000e+00 0.0000000e+00 
0.0000000e+00 0.0000000e+00 0.0000000e+00 
0.0000000e+00 0.0000000e+00 0.0000000e+00 
0.0000000e+00 0.0000000e+00 0.0000000e+00 
0.0000000e+00 0.0000000e+00 0.0000000e+00 
0.0000000e+00 0.0000000e+00 0.0000000e+00 
0.0000000e+00 0.0000000e+00 0.0000000e+00 
0.0000000e+00 0.0000000e+00 0.0000000e+00 
0.0000000e+00 0.0000000e+00 0.0000000e+00 
0.0000000e+00 0.0000000e+00 0.0000000e+00 
0.0000000e+00 0.0000000e+00 0.0000000e+00 
0.0000000e+00 0.0000000e+00 0.0000000e+00 
0.0000000e+00 0.0000000e+00 0.0000000e+00 
0.0000000e+00 0.0000000e+00 0.0000000e+00 
0.0000000e+00 0.0000000e+00 0.0000000e+00 
5.9605398e-05 -2.0852867e-05 -2.9439982e-06 
5.0485571e-05 -1.8268875e-05 -1.8250198e-08 
3.7208749e-05 -1.2748714e-05 4.1802696e-06 
2.2366723e-05 -5.5140167e-06 6.3196512e-06 
1.5704334e-05 -4.8931634e-06 6.4037636e-06 
9.3756389e-06 -2.4327762e-06 6.2572549e-06 
4.7455819e-06 -1.1011424e-06 4.2311913e-06 
1.6292885e-06 -3.3381005e-07 2.4209619e-06 
4.7450587e-07 -1.3687247e-07 1.0999023e-06 
6.4782675e-08 -6.7685946e-08 2.5218472e-07 
-1.2329107e-08 -1.2180185e-07 -3.0731925e-07 
1.4211453e-07 -1.0775248e-07 -1.0023161e-06 
5.5523543e-07 -2.9123464e-07 -2.0402724e-06 
1.7904856e-06 -7.5342649e-07 -3.8308285e-06 
3.5826204e-06 -1.5814226e-06 -6.0051420e-06 
8.3141076e-06 -3.2334262e-06 -8.5852535e-06 
1.3464750e-05 -5.4040988e-06 -1.0927768e-05 
2.1936685e-05 -8.6782084e-06 -1.2546193e-05 
3.0675477e-05 -1.1838848e-05 -1.2298696e-05 
3.9814797e-05 -1.3750263e-05 -6.5032282e-06 
4.1005860e-05 -1.4304044e-05 -5.1586272e-07 
3.8212471e-05 -1.3834094e-05 6.2070162e-06 
3.2076779e-05 -1.2413600e-05 1.0593424e-05 
2.6278660e-05 -9.6967278e-06 1.1801178e-05 
1.7462762e-05 -5.2990658e-06 1.1537789e-05 
9.1902630e-06 -3.4118584e-06 9.2900591e-06 
4.5472566e-06 -1.9389570e-06 6.5864465e-06 
1.9951744e-06 -9.5755308e-07 4.0930981e-06 
6.8841240e-07 -3.6838398e-07 2.3680134e-06 
2.2147906e-07 -1.9305052e-07 1.3207210e-06 
7.8388041e-08 -8.1418030e-08 7.1547794e-07 
3.2083576e-09 -6.4272193e-08 3.6367001e-07 
1.6203815e-08 -3.2411197e-08 2.1652767e-07 
6.9891080e-09 -1.8210468e-08 1.1668611e-07 
5.4657812e-09 -1.2789663e-08 6.8248717e-08 
4.5130455e-09 -5.9690928e-09 4.1287979e-08 
1.3633844e-09 -2.1013247e-09 2.2945715e-08 
6.3046102e-10 -2.2118352e-09 1.3639354e-08 
4.1568415e-11 -8.5474750e-10 8.4244247e-09 
2.3657665e-10 -4.8889054e-10 4.3353037e-09 
2.8296884e-10 -3.5694830e-10 2.7428102e-09 
1.6199184e-10 -2.3076401e-10 1.6364208e-09 
1.0494242e-10 -1.3488048e-10 9.2004770e-10 
5.3499812e-11 -9.0507213e-11 5.2110621e-10 
4.1126446e-11 -4.2354426e-11 3.1738176e-10 
1.5426150e-11 -2.4778972e-11 1.9400713e-10 
1.1988319e-11 -1.5008014e-11 1.1452737e-10 
3.6621413e-12 -9.0014237e-12 7.4393665e-11 
1.2067645e-12 -7.8531730e-12 5.0755910e-11 
0.0000000e+00 -1.2206024e-03 0.0000000e+00 
0.0000000e+00 -7.4338750e-04 0.0000000e+00 
0.0000000e+00 -6.5240427e-04 0.0000000e+00 
0.0000000e+00 -2.9615164e-04 0.0000000e+00 
0.0000000e+00 -5.5690121e-05 0.0000000e+00 
0.0000000e+00 -9.0736166e-06 0.0000000e+00 
0.0000000e+00 6.6264136e-07 0.0000000e+00 
0.0000000e+00 1.2614292e-05 0.0000000e+00 
0.0000000e+00 7.2394305e-06 0.0000000e+00 
0.0000000e+00 1.6794773e-07 0.0000000e+00 
0.0000000e+00 -1.0688877e-07 0.0000000e+00 
0.0000000e+00 1.2218404e-06 0.0000000e+00 
0.0000000e+00 1.7784840e-06 0.0000000e+00 
0.0000000e+00 8.3528084e-06 0.0000000e+00 
0.0000000e+00 1.2535243e-05 0.0000000e+00 
0.0000000e+00 -1.0025796e-05 0.0000000e+00 
0.0000000e+00 -9.8369201e-05 0.0000000e+00 
0.0000000e+00 -2.4079692e-04 0.0000000e+00 
0.0000000e+00 -5.7186943e-04 0.0000000e+00 
0.0000000e+00 -7.9305668e-04 0.0000000e+00 
0.0000000e+00 -8.3650684e-04 0.0000000e+00 
0.0000000e+00 -7.4024685e-04 0.0000000e+00 
0.0000000e+00 -5.5156177e-04 0.0000000e+00 
0.0000000e+00 -3.2086560e-04 0.0000000e+00 
0.0000000e+00 -1.1243457e-04 0.0000000e+00 
0.0000000e+00 -1.4636584e-05 0.0000000e+00 
0.0000000e+00 3.1785981e-07 0.0000000e+00 
0.0000000e+00 1.5865959e-05 0.0000000e+00 
0.0000000e+00 5.0840449e-06 0.0000000e+00 
0.0000000e+00 1.6183512e-07 0.0000000e+00 
0.0000000e+00 1.7704092e-07 0.0000000e+00 
0.0000000e+00 -2.1980678e-07 0.0000000e+00 
0.0000000e+00 -1.1587809e-07 0.0000000e+00 
0.0000000e+00 -2.6969326e-08 0.0000000e+00 
0.0000000e+00 -4.3846166e-10 0.0000000e+00 
0.0000000e+00 1.5191812e-09 0.0000000e+00 
0.0000000e+00 2.3950153e-09 0.0000000e+00 
0.0000000e+00 6.8577199e-10 0.0000000e+00 
0.0000000e+00 -1.3826995e-10 0.0000000e+00 
0.0000000e+00 -1.5232715e-10 0.0000000e+00 
0.0000000e+00 -1.4071144e-10 0.0000000e+00 
0.0000000e+00 -5.5518104e-11 0.0000000e+00 
0.0000000e+00 -2.6184714e-11 0.0000000e+00 
0.0000000e+00 -9.6068110e-12 0.0000000e+00 
0.0000000e+00 -5.3720114e-12 0.0000000e+00 
0.0000000e+00 -7.3736356e-12 0.0000000e+00 
0.0000000e+00 -3.8372847e-12 0.0000000e+00 
0.0000000e+00 -2.8191260e-12 0.0000000e+00 
0.0000000e+00 -3.4134141e-12 0.0000000e+00 
1.0526965e-04 -3.7774782e-05 -2.1336331e-05 
1.1908996e-04 -1.4593749e-04 -6.6947010e-05 
2.3522020e-04 -2.5977820e-04 -1.2560825e-04 
2.0718883e-04 -8.1558747e-04 -1.9633811e-04 
-4.0209932e-12 -2.0590951e-11 4.4710385e-11 
-8.3658011e-12 -1.7601677e-11 3.9437942e-11 
-1.1199496e-11 -1.4045085e-11 3.0925689e-11 
-1.0275402e-11 -9.6336194e-12 1.7677127e-11 
4.8782604e-05 -1.1710338e-05 -8.7811231e-06 
3.7344755e-05 -1.0455755e-05 -8.8706083e-06 
3.2754200e-05 -7.6589095e-06 -7.5284229e-06 
2.8711391e-05 -1.7902767e-06 8.3143630e-07 
1.9547120e-05 -3.4263123e-06 5.3247345e-06 
1.1752799e-05 -1.7103897e-06 5.1600414e-06 
5.3862477e-06 -4.6363073e-07 4.0855039e-06 
1.8395859e-06 -3.7335354e-08 2.6540608e-06 
6.4022743e-07 3.7700634e-08 1.4023462e-06 
7.6300680e-08 5.0851753e-08 3.3260702e-07 
1.6744265e-08 6.0103771e-09 -4.5229461e-07 
1.8625209e-07 -1.5749428e-08 -1.3832188e-06 
7.8765453e-07 -1.3039953e-07 -2.7150684e-06 
2.1385165e-06 -4.6117722e-07 -4.7214212e-06 
5.6070712e-06 -1.0819718e-06 -7.2611178e-06 
1.2467389e-05 -2.8074978e-06 -1.0375572e-05 
2.0069181e-05 -4.9002001e-06 -1.3189941e-05 
3.3407818e-05 -8.4322082e-06 -1.3987659e-05 
4.5521589e-05 -1.1140928e-05 -1.3378981e-05 
5.6084671e-05 -1.3339151e-05 -8.9786699e-06 