# vtk DataFile Version 4.0
vtk output
ASCII
DATASET UNSTRUCTURED_GRID
POINTS 1919 float
0.0000000e+00 0.0000000e+00 0.0000000e+00 
0.0000000e+00 0.0000000e+00 5.0000000e+01 
5.0000000e+00 0.0000000e+00 0.0000000e+00 
5.0000000e+00 0.0000000e+00 5.0000000e+01 
5.0000000e+00 1.0000000e+00 0.0000000e+00 
5.0000000e+00 1.0000000e+00 5.0000000e+01 
0.0000000e+00 1.0000000e+00 0.0000000e+00 
0.0000000e+00 1.0000000e+00 5.0000000e+01 
5.0000000e+00 2.0000000e+00 0.0000000e+00 
5.0000000e+00 2.0000000e+00 5.0000000e+01 
3.0000000e+00 2.0000000e+00 0.0000000e+00 
3.0000000e+00 2.0000000e+00 5.0000000e+01 
0.0000000e+00 2.0000000e+00 0.0000000e+00 
0.0000000e+00 2.0000000e+00 5.0000000e+01 
1.5000000e+00 3.0000000e+00 0.0000000e+00 
1.5000000e+00 3.0000000e+00 5.0000000e+01 
7.5000000e-01 3.0000000e+00 0.0000000e+00 
7.5000000e-01 3.0000000e+00 5.0000000e+01 
0.0000000e+00 3.0000000e+00 0.0000000e+00 
0.0000000e+00 3.0000000e+00 5.0000000e+01 
7.5000000e-01 3.0000000e+00 5.0000000e-01 
7.5000000e-01 3.0000000e+00 1.0000000e+00 
7.5000000e-01 3.0000000e+00 1.5000000e+00 
7.5000000e-01 3.0000000e+00 2.0000000e+00 
7.5000000e-01 3.0000000e+00 2.5000000e+00 
7.5000000e-01 3.0000000e+00 3.0000000e+00 
7.5000000e-01 3.0000000e+00 3.5000000e+00 
7.5000000e-01 3.0000000e+00 4.0000000e+00 
7.5000000e-01 3.0000000e+00 4.5000000e+00 
7.5000000e-01 3.0000000e+00 5.0000000e+00 
7.5000000e-01 3.0000000e+00 5.5000000e+00 
7.5000000e-01 3.0000000e+00 6.0000000e+00 
7.5000000e-01 3.0000000e+00 6.5000000e+00 
7.5000000e-01 3.0000000e+00 7.0000000e+00 
7.5000000e-01 3.0000000e+00 7.5000000e+00 
7.5000000e-01 3.0000000e+00 8.0000000e+00 
7.5000000e-01 3.0000000e+00 8.5000000e+00 
7.5000000e-01 3.0000000e+00 9.0000000e+00 
7.5000000e-01 3.0000000e+00 9.5000000e+00 
7.5000000e-01 3.0000000e+00 1.0000000e+01 
7.5000000e-01 3.0000000e+00 1.0500000e+01 
7.5000000e-01 3.0000000e+00 1.1000000e+01 
7.5000000e-01 3.0000000e+00 1.1500000e+01 
7.5000000e-01 3.0000000e+00 1.2000000e+01 
7.5000000e-01 3.0000000e+00 1.2500000e+01 
7.5000000e-01 3.0000000e+00 1.3000000e+01 
7.5000000e-01 3.0000000e+00 1.3500000e+01 
7.5000000e-01 3.0000000e+00 1.4000000e+01 
7.5000000e-01 3.0000000e+00 1.4500000e+01 
7.5000000e-01 3.0000000e+00 1.5000000e+01 
7.5000000e-01 3.0000000e+00 1.5500000e+01 
7.5000000e-01 3.0000000e+00 1.6000000e+01 
7.5000000e-01 3.0000000e+00 1.6500000e+01 
7.5000000e-01 3.0000000e+00 1.7000000e+01 
7.5000000e-01 3.0000000e+00 1.7500000e+01 
7.5000000e-01 3.0000000e+00 1.8000000e+01 
7.5000000e-01 3.0000000e+00 1.8500000e+01 
7.5000000e-01 3.0000000e+00 1.9000000e+01 
7.5000000e-01 3.0000000e+00 1.9500000e+01 
7.5000000e-01 3.0000000e+00 2.0000000e+01 
7.5000000e-01 3.0000000e+00 2.0500000e+01 
7.5000000e-01 3.0000000e+00 2.1000000e+01 
7.5000000e-01 3.0000000e+00 2.1500000e+01 
7.5000000e-01 3.0000000e+00 2.2000000e+01 
7.5000000e-01 3.0000000e+00 2.2500000e+01 
7.5000000e-01 3.0000000e+00 2.3000000e+01 
7.5000000e-01 3.0000000e+00 2.3500000e+01 
7.5000000e-01 3.0000000e+00 2.4000000e+01 
7.5000000e-01 3.0000000e+00 2.4500000e+01 
7.5000000e-01 3.0000000e+00 2.5000000e+01 
7.5000000e-01 3.0000000e+00 2.5500000e+01 
7.5000000e-01 3.0000000e+00 2.6000000e+01 
7.5000000e-01 3.0000000e+00 2.6500000e+01 
7.5000000e-01 3.0000000e+00 2.7000000e+01 
7.5000000e-01 3.0000000e+00 2.7500000e+01 
7.5000000e-01 3.0000000e+00 2.8000000e+01 
7.5000000e-01 3.0000000e+00 2.8500000e+01 
7.5000000e-01 3.0000000e+00 2.9000000e+01 
7.5000000e-01 3.0000000e+00 2.9500000e+01 
7.5000000e-01 3.0000000e+00 3.0000000e+01 
7.5000000e-01 3.0000000e+00 3.0500000e+01 
7.5000000e-01 3.0000000e+00 3.1000000e+01 
7.5000000e-01 3.0000000e+00 3.1500000e+01 
7.5000000e-01 3.0000000e+00 3.2000000e+01 
7.5000000e-01 3.0000000e+00 3.2500000e+01 
7.5000000e-01 3.0000000e+00 3.3000000e+01 
7.5000000e-01 3.0000000e+00 3.3500000e+01 
7.5000000e-01 3.0000000e+00 3.4000000e+01 
7.5000000e-01 3.0000000e+00 3.4500000e+01 
7.5000000e-01 3.0000000e+00 3.5000000e+01 
7.5000000e-01 3.0000000e+00 3.5500000e+01 
7.5000000e-01 3.0000000e+00 3.6000000e+01 
7.5000000e-01 3.0000000e+00 3.6500000e+01 
7.5000000e-01 3.0000000e+00 3.7000000e+01 
7.5000000e-01 3.0000000e+00 3.7500000e+01 
7.5000000e-01 3.0000000e+00 3.8000000e+01 
7.5000000e-01 3.0000000e+00 3.8500000e+01 
7.5000000e-01 3.0000000e+00 3.9000000e+01 
7.5000000e-01 3.0000000e+00 3.9500000e+01 
7.5000000e-01 3.0000000e+00 4.0000000e+01 
7.5000000e-01 3.0000000e+00 4.0500000e+01 
7.5000000e-01 3.0000000e+00 4.1000000e+01 
7.5000000e-01 3.0000000e+00 4.1500000e+01 
7.5000000e-01 3.0000000e+00 4.2000000e+01 
7.5000000e-01 3.0000000e+00 4.2500000e+01 
7.5000000e-01 3.0000000e+00 4.3000000e+01 
7.5000000e-01 3.0000000e+00 4.3500000e+01 
7.5000000e-01 3.0000000e+00 4.4000000e+01 
7.5000000e-01 3.0000000e+00 4.4500000e+01 
7.5000000e-01 3.0000000e+00 4.5000000e+01 
7.5000000e-01 3.0000000e+00 4.5500000e+01 
7.5000000e-01 3.0000000e+00 4.6000000e+01 
7.5000000e-01 3.0000000e+00 4.6500000e+01 
7.5000000e-01 3.0000000e+00 4.7000000e+01 
7.5000000e-01 3.0000000e+00 4.7500000e+01 
7.5000000e-01 3.0000000e+00 4.8000000e+01 
7.5000000e-01 3.0000000e+00 4.8500000e+01 
7.5000000e-01 3.0000000e+00 4.9000000e+01 
7.5000000e-01 3.0000000e+00 4.9500000e+01 
7.5000000e-01 3.0250001e+00 0.0000000e+00 
7.5000000e-01 3.0250001e+00 5.0000000e-01 
7.5000000e-01 3.0250001e+00 1.0000000e+00 
7.5000000e-01 3.0250001e+00 1.5000000e+00 
7.5000000e-01 3.0250001e+00 2.0000000e+00 
7.5000000e-01 3.0250001e+00 2.5000000e+00 
7.5000000e-01 3.0250001e+00 3.0000000e+00 
7.5000000e-01 3.0250001e+00 3.5000000e+00 
7.5000000e-01 3.0250001e+00 4.0000000e+00 
7.5000000e-01 3.0250001e+00 4.5000000e+00 
7.5000000e-01 3.0250001e+00 5.0000000e+00 
7.5000000e-01 3.0250001e+00 5.5000000e+00 
7.5000000e-01 3.0250001e+00 6.0000000e+00 
7.5000000e-01 3.0250001e+00 6.5000000e+00 
7.5000000e-01 3.0250001e+00 7.0000000e+00 
7.5000000e-01 3.0250001e+00 7.5000000e+00 
7.5000000e-01 3.0250001e+00 8.0000000e+00 
7.5000000e-01 3.0250001e+00 8.5000000e+00 
7.5000000e-01 3.0250001e+00 9.0000000e+00 
7.5000000e-01 3.0250001e+00 9.5000000e+00 
7.5000000e-01 3.0250001e+00 1.0000000e+01 
7.5000000e-01 3.0250001e+00 1.0500000e+01 
7.5000000e-01 3.0250001e+00 1.1000000e+01 
7.5000000e-01 3.0250001e+00 1.1500000e+01 
7.5000000e-01 3.0250001e+00 1.2000000e+01 
7.5000000e-01 3.0250001e+00 1.2500000e+01 
7.5000000e-01 3.0250001e+00 1.3000000e+01 
7.5000000e-01 3.0250001e+00 1.3500000e+01 
7.5000000e-01 3.0250001e+00 1.4000000e+01 
7.5000000e-01 3.0250001e+00 1.4500000e+01 
7.5000000e-01 3.0250001e+00 1.5000000e+01 
7.5000000e-01 3.0250001e+00 1.5500000e+01 
7.5000000e-01 3.0250001e+00 1.6000000e+01 
7.5000000e-01 3.0250001e+00 1.6500000e+01 
7.5000000e-01 3.0250001e+00 1.7000000e+01 
7.5000000e-01 3.0250001e+00 1.7500000e+01 
7.5000000e-01 3.0250001e+00 1.8000000e+01 
7.5000000e-01 3.0250001e+00 1.8500000e+01 
7.5000000e-01 3.0250001e+00 1.9000000e+01 
7.5000000e-01 3.0250001e+00 1.9500000e+01 
7.5000000e-01 3.0250001e+00 2.0000000e+01 
7.5000000e-01 3.0250001e+00 2.0500000e+01 
7.5000000e-01 3.0250001e+00 2.1000000e+01 
7.5000000e-01 3.0250001e+00 2.1500000e+01 
7.5000000e-01 3.0250001e+00 2.2000000e+01 
7.5000000e-01 3.0250001e+00 2.2500000e+01 
7.5000000e-01 3.0250001e+00 2.3000000e+01 
7.5000000e-01 3.0250001e+00 2.3500000e+01 
7.5000000e-01 3.0250001e+00 2.4000000e+01 
7.5000000e-01 3.0250001e+00 2.4500000e+01 
7.5000000e-01 3.0250001e+00 2.5000000e+01 
7.5000000e-01 3.0250001e+00 2.5500000e+01 
7.5000000e-01 3.0250001e+00 2.6000000e+01 
7.5000000e-01 3.0250001e+00 2.6500000e+01 
7.5000000e-01 3.0250001e+00 2.7000000e+01 
7.5000000e-01 3.0250001e+00 2.7500000e+01 
7.5000000e-01 3.0250001e+00 2.8000000e+01 
7.5000000e-01 3.0250001e+00 2.8500000e+01 
7.5000000e-01 3.0250001e+00 2.9000000e+01 
7.5000000e-01 3.0250001e+00 2.9500000e+01 
7.5000000e-01 3.0250001e+00 3.0000000e+01 
7.5000000e-01 3.0250001e+00 3.0500000e+01 
7.5000000e-01 3.0250001e+00 3.1000000e+01 
7.5000000e-01 3.0250001e+00 3.1500000e+01 
7.5000000e-01 3.0250001e+00 3.2000000e+01 
7.5000000e-01 3.0250001e+00 3.2500000e+01 
7.5000000e-01 3.0250001e+00 3.3000000e+01 
7.5000000e-01 3.0250001e+00 3.3500000e+01 
7.5000000e-01 3.0250001e+00 3.4000000e+01 
7.5000000e-01 3.0250001e+00 3.4500000e+01 
7.5000000e-01 3.0250001e+00 3.5000000e+01 
7.5000000e-01 3.0250001e+00 3.5500000e+01 
7.5000000e-01 3.0250001e+00 3.6000000e+01 
7.5000000e-01 3.0250001e+00 3.6500000e+01 
7.5000000e-01 3.0250001e+00 3.7000000e+01 
7.5000000e-01 3.0250001e+00 3.7500000e+01 
7.5000000e-01 3.0250001e+00 3.8000000e+01 
7.5000000e-01 3.0250001e+00 3.8500000e+01 
7.5000000e-01 3.0250001e+00 3.9000000e+01 
7.5000000e-01 3.0250001e+00 3.9500000e+01 
7.5000000e-01 3.0250001e+00 4.0000000e+01 
7.5000000e-01 3.0250001e+00 4.0500000e+01 
7.5000000e-01 3.0250001e+00 4.1000000e+01 
7.5000000e-01 3.0250001e+00 4.1500000e+01 
7.5000000e-01 3.0250001e+00 4.2000000e+01 
7.5000000e-01 3.0250001e+00 4.2500000e+01 
7.5000000e-01 3.0250001e+00 4.3000000e+01 
7.5000000e-01 3.0250001e+00 4.3500000e+01 
7.5000000e-01 3.0250001e+00 4.4000000e+01 
7.5000000e-01 3.0250001e+00 4.4500000e+01 
7.5000000e-01 3.0250001e+00 4.5000000e+01 
7.5000000e-01 3.0250001e+00 4.5500000e+01 
7.5000000e-01 3.0250001e+00 4.6000000e+01 
7.5000000e-01 3.0250001e+00 4.6500000e+01 
7.5000000e-01 3.0250001e+00 4.7000000e+01 
7.5000000e-01 3.0250001e+00 4.7500000e+01 
7.5000000e-01 3.0250001e+00 4.8000000e+01 
7.5000000e-01 3.0250001e+00 4.8500000e+01 
7.5000000e-01 3.0250001e+00 4.9000000e+01 
7.5000000e-01 3.0250001e+00 4.9500000e+01 
7.5000000e-01 3.0250001e+00 5.0000000e+01 
3.0000000e+00 2.0000000e+00 3.6000000e+01 
8.0487806e-01 3.0000000e+00 3.6000000e+01 
0.0000000e+00 0.0000000e+00 1.0000000e+00 
0.0000000e+00 0.0000000e+00 2.0000000e+00 
0.0000000e+00 0.0000000e+00 3.0000000e+00 
0.0000000e+00 0.0000000e+00 4.0000000e+00 
0.0000000e+00 0.0000000e+00 5.0000000e+00 
0.0000000e+00 0.0000000e+00 6.0000000e+00 
0.0000000e+00 0.0000000e+00 7.0000000e+00 
0.0000000e+00 0.0000000e+00 8.0000000e+00 
[...]
POINT_DATA 1919
FIELD FieldData 3
DISPLACEMENT 3 1919  float
0.0000000e+00 0.0000000e+00 0.0000000e+00 
0.0000000e+00 0.0000000e+00 0.0000000e+00 
0.0000000e+00 0.0000000e+00 0.0000000e+00 
0.0000000e+00 0.0000000e+00 0.0000000e+00 
-1.4385304e-06 1.0985997e-06 1.2344220e-06 
-3.3491185e-07 2.2032398e-07 -8.1303040e-07 
0.0000000e+00 2.0496893e-06 0.0000000e+00 
0.0000000e+00 9.7871243e-06 0.0000000e+00 
-2.2302844e-07 -4.9555833e-06 -2.4542305e-06 
2.0677717e-07 -6.7051644e-08 -1.5443413e-06 
2.9127939e-06 -6.6350526e-06 -4.8562324e-06 
-5.5424539e-07 1.6624363e-06 -1.5296893e-06 
0.0000000e+00 7.0797705e-06 0.0000000e+00 
0.0000000e+00 2.0787664e-05 0.0000000e+00 
-1.4794438e-06 -3.9358365e-05 -3.5471319e-05 
7.1503459e-06 2.3703038e-05 1.2332775e-06 
-1.2689833e-05 5.4129205e-06 -3.7032678e-05 
-4.2756201e-06 1.6326341e-05 1.7079275e-05 
0.0000000e+00 -2.0276448e-05 0.0000000e+00 
0.0000000e+00 4.0120409e-05 0.0000000e+00 
1.3428416e-05 2.1645690e-05 -3.0300171e-05 
2.0788408e-05 5.7140765e-05 -2.0621428e-05 
1.4768459e-05 8.9060282e-05 -1.3312389e-05 
1.7822316e-05 1.0344051e-04 -5.6477770e-06 
2.8520955e-05 1.0098764e-04 -5.3808085e-06 
2.2428547e-05 9.7411255e-05 8.9879213e-06 
2.2604027e-05 1.0294012e-04 2.7355296e-05 
1.1982253e-05 1.1134855e-04 4.2526055e-05 
1.1352392e-05 1.0581966e-04 5.0418537e-05 
8.2062661e-06 7.9034588e-05 4.4149623e-05 
1.9117746e-05 3.9682192e-05 3.9739771e-05 
2.5018977e-05 9.2711352e-06 3.3332446e-05 
2.3207804e-05 5.5330742e-07 3.7520687e-05 
5.4939233e-06 8.3160357e-06 3.8296464e-05 
1.0455536e-05 1.3046770e-05 4.0345698e-05 
1.2455043e-05 -2.7327161e-07 3.0996547e-05 
6.1803089e-06 -2.4493485e-05 1.3455689e-05 
2.0154328e-06 -2.9739191e-05 1.2348616e-05 
-3.8734397e-05 8.4478497e-06 6.5885752e-06 
-3.6243157e-05 8.6138542e-05 1.3556617e-06 
-1.4775747e-05 1.5519698e-04 -7.7142367e-06 
-1.4429881e-05 1.2824309e-04 -1.6347127e-05 
-1.4642711e-05 -5.6878405e-05 1.8812205e-05 
-3.0486084e-05 -4.2585653e-04 4.2331143e-05 
-5.6266803e-05 -9.9814613e-04 1.3348764e-04 
-9.0082656e-05 -1.7841016e-03 6.4237691e-05 
-1.1000541e-04 -2.7945542e-03 2.0100796e-04 
-1.7262298e-04 -3.8638145e-03 2.5631842e-05 
-2.1926177e-04 -4.5960387e-03 4.4214532e-05 
-2.3409400e-04 -4.6006595e-03 7.4089312e-06 
-2.3219615e-04 -4.4451393e-03 1.2598869e-05 
-2.5629910e-04 -4.4843322e-03 -3.8607988e-05 
-2.7549628e-04 -4.6940311e-03 -2.4753635e-05 
-2.7313997e-04 -4.5670243e-03 -1.0756595e-04 
-2.1901983e-04 -3.6818341e-03 -2.4494159e-04 
-1.5243598e-04 -2.4835391e-03 -1.7628286e-04 
-8.8784203e-05 -1.4255692e-03 -2.6978005e-04 
-3.1214484e-05 -6.5336243e-04 -1.6275335e-04 
2.7951848e-05 -1.6351865e-04 -1.6106805e-04 
5.3605596e-05 1.2127506e-04 -8.8016706e-05 
6.7475434e-05 2.7265295e-04 -5.5390079e-05 
5.5045846e-05 3.3489370e-04 -9.2105465e-06 
4.0580358e-05 3.3728059e-04 1.0895435e-05 
4.6658963e-05 3.0831629e-04 1.4081429e-05 
4.9567800e-05 2.7652617e-04 1.6474291e-05 
6.3644278e-05 2.6173814e-04 1.3439274e-05 
7.1821778e-05 2.6811150e-04 1.8016462e-05 
6.4689317e-05 2.8814853e-04 3.1626078e-05 
6.9194910e-05 3.0346034e-04 5.2850595e-05 
6.2439285e-05 2.9582088e-04 6.9748952e-05 
5.8107431e-05 2.5681304e-04 8.6478613e-05 
3.3700959e-05 1.9521704e-04 8.0703518e-05 
1.2695282e-05 1.2723984e-04 8.5148888e-05 
-8.3842988e-06 7.6342061e-05 7.3646290e-05 
-2.0429745e-05 4.4248940e-05 7.0591377e-05 
-1.4435916e-05 1.8156396e-05 4.7892405e-05 
1.0357868e-05 -8.8734150e-06 3.3323893e-05 
1.6345288e-05 -3.1175419e-05 3.6251648e-05 
6.9644084e-06 -2.6961154e-05 5.2889904e-05 
2.9179498e-06 1.9513385e-05 8.1223683e-05 
-4.5372672e-06 8.3802333e-05 1.1044519e-04 
-6.5198515e-06 8.8987887e-05 1.1329394e-04 
-2.1083326e-05 -7.5352247e-05 1.3301453e-04 
-5.6814544e-05 -5.1017362e-04 1.0748360e-04 
-9.1599482e-05 -1.2453615e-03 1.7685174e-04 
-1.7767270e-04 -2.2234579e-03 8.2317878e-05 
-2.1808139e-04 -3.3565157e-03 1.9663040e-04 
-3.2052296e-04 -4.3783491e-03 -7.8779367e-06 
-3.2616867e-04 -4.9394416e-03 -5.7580361e-05 
-2.1610798e-05 -4.9478961e-03 -7.3859260e-06 
-2.3517405e-04 -4.8462339e-03 3.2472846e-05 
-2.5697253e-04 -4.9271686e-03 -9.7258075e-05 
-2.7846519e-04 -5.0082603e-03 -1.2568364e-04 
-1.3820711e-04 -4.5591048e-03 -1.9985273e-04 
-2.2296238e-04 -3.5115019e-03 -3.6183526e-04 
-1.5197363e-04 -2.2950233e-03 -2.0818591e-04 
-8.9090317e-05 -1.2915530e-03 -2.4938484e-04 
-4.2470208e-05 -5.8904523e-04 -1.2129371e-04 
-3.2558432e-06 -1.6837819e-04 -8.7806118e-05 
1.0831954e-05 3.4410336e-05 -1.7518263e-05 
1.2316118e-05 8.9981193e-05 1.8163597e-05 
7.5232697e-06 7.1217364e-05 3.3356908e-05 
-5.4016191e-06 4.2461630e-05 3.4765169e-05 
-2.3954947e-06 3.3753287e-05 3.1538460e-05 
6.1103201e-06 4.7638296e-05 3.0513203e-05 
9.6280810e-06 6.7953988e-05 3.0708023e-05 
1.3694773e-05 7.9916666e-05 2.5772764e-05 
8.7920116e-06 8.0865815e-05 1.0962422e-05 
-3.5636108e-06 7.3426068e-05 -9.6015619e-06 
-4.9467449e-06 5.9419042e-05 -1.7118331e-05 
1.5462308e-06 3.7501559e-05 -1.0708016e-05 
-3.9079964e-06 9.3687167e-06 -1.2009729e-06 
-9.5500509e-06 -1.9736952e-05 7.6602964e-06 
-1.1518924e-05 -4.1846371e-05 7.8085571e-07 
-1.5645908e-05 -5.0683469e-05 -1.3949078e-05 
-4.9753953e-06 -4.5325465e-05 -2.7929966e-05 
6.7741767e-06 -2.8206134e-05 -3.4537326e-05 
9.8952778e-06 -7.0286414e-06 -2.5486792e-05 
1.1560438e-05 9.9974486e-06 -5.0466961e-06 
0.0000000e+00 6.2624922e-06 0.0000000e+00 
0.0000000e+00 2.2032100e-05 0.0000000e+00 
0.0000000e+00 5.6705256e-05 0.0000000e+00 
0.0000000e+00 8.8277913e-05 0.0000000e+00 
0.0000000e+00 1.0262772e-04 0.0000000e+00 
0.0000000e+00 1.0117608e-04 0.0000000e+00 
0.0000000e+00 9.8205768e-05 0.0000000e+00 
0.0000000e+00 1.0356668e-04 0.0000000e+00 
0.0000000e+00 1.1103405e-04 0.0000000e+00 
0.0000000e+00 1.0506521e-04 0.0000000e+00 
0.0000000e+00 7.8261684e-05 0.0000000e+00 
0.0000000e+00 3.9812876e-05 0.0000000e+00 
0.0000000e+00 1.0004712e-05 0.0000000e+00 
0.0000000e+00 1.4273110e-06 0.0000000e+00 
0.0000000e+00 8.3751629e-06 0.0000000e+00 
0.0000000e+00 1.2103956e-05 0.0000000e+00 
0.0000000e+00 -1.4632749e-06 0.0000000e+00 
0.0000000e+00 -2.4648580e-05 0.0000000e+00 
0.0000000e+00 -2.8830245e-05 0.0000000e+00 
0.0000000e+00 1.0608996e-05 0.0000000e+00 
0.0000000e+00 8.8679917e-05 0.0000000e+00 
0.0000000e+00 1.5496003e-04 0.0000000e+00 
0.0000000e+00 1.2690084e-04 0.0000000e+00 
0.0000000e+00 -5.8073019e-05 0.0000000e+00 
0.0000000e+00 -4.2732767e-04 0.0000000e+00 
0.0000000e+00 -9.9856488e-04 0.0000000e+00 
0.0000000e+00 -1.7926230e-03 0.0000000e+00 
0.0000000e+00 -2.8089359e-03 0.0000000e+00 
0.0000000e+00 -3.8908576e-03 0.0000000e+00 
0.0000000e+00 -4.6204114e-03 0.0000000e+00 
0.0000000e+00 -4.6299081e-03 0.0000000e+00 
0.0000000e+00 -4.4653751e-03 0.0000000e+00 
0.0000000e+00 -4.5108697e-03 0.0000000e+00 
0.0000000e+00 -4.7173621e-03 0.0000000e+00 
0.0000000e+00 -4.5954529e-03 0.0000000e+00 
0.0000000e+00 -3.6999602e-03 0.0000000e+00 
0.0000000e+00 -2.4989776e-03 0.0000000e+00 
0.0000000e+00 -1.4325425e-03 0.0000000e+00 
0.0000000e+00 -6.5618497e-04 0.0000000e+00 
0.0000000e+00 -1.6302161e-04 0.0000000e+00 
0.0000000e+00 1.2247374e-04 0.0000000e+00 
0.0000000e+00 2.7342734e-04 0.0000000e+00 
0.0000000e+00 3.3534726e-04 0.0000000e+00 
0.0000000e+00 3.3769631e-04 0.0000000e+00 
0.0000000e+00 3.0884001e-04 0.0000000e+00 
0.0000000e+00 2.7706887e-04 0.0000000e+00 
0.0000000e+00 2.6212129e-04 0.0000000e+00 
0.0000000e+00 2.6874623e-04 0.0000000e+00 
0.0000000e+00 2.8844859e-04 0.0000000e+00 
0.0000000e+00 3.0327478e-04 0.0000000e+00 
0.0000000e+00 2.9506741e-04 0.0000000e+00 
0.0000000e+00 2.5613004e-04 0.0000000e+00 
0.0000000e+00 1.9446629e-04 0.0000000e+00 
0.0000000e+00 1.2823039e-04 0.0000000e+00 
0.0000000e+00 7.7430981e-05 0.0000000e+00 
0.0000000e+00 4.4448527e-05 0.0000000e+00 
0.0000000e+00 1.7684328e-05 0.0000000e+00 
0.0000000e+00 -9.9796089e-06 0.0000000e+00 
0.0000000e+00 -3.1394957e-05 0.0000000e+00 
0.0000000e+00 -2.5530157e-05 0.0000000e+00 
0.0000000e+00 2.1946766e-05 0.0000000e+00 
0.0000000e+00 8.6252068e-05 0.0000000e+00 
0.0000000e+00 8.9774578e-05 0.0000000e+00 
0.0000000e+00 -7.8537611e-05 0.0000000e+00 
0.0000000e+00 -5.1533314e-04 0.0000000e+00 
0.0000000e+00 -1.2486943e-03 0.0000000e+00 
0.0000000e+00 -2.2333129e-03 0.0000000e+00 
0.0000000e+00 -3.3684764e-03 0.0000000e+00 
0.0000000e+00 -4.4075772e-03 0.0000000e+00 
0.0000000e+00 -4.9696346e-03 0.0000000e+00 
0.0000000e+00 -4.9684243e-03 0.0000000e+00 
0.0000000e+00 -4.8713405e-03 0.0000000e+00 
0.0000000e+00 -4.9534608e-03 0.0000000e+00 
0.0000000e+00 -5.0300476e-03 0.0000000e+00 
0.0000000e+00 -4.5937584e-03 0.0000000e+00 
0.0000000e+00 -3.5273761e-03 0.0000000e+00 
0.0000000e+00 -2.3085373e-03 0.0000000e+00 
0.0000000e+00 -1.2964684e-03 0.0000000e+00 
0.0000000e+00 -5.9105887e-04 0.0000000e+00 
0.0000000e+00 -1.6880946e-04 0.0000000e+00 
0.0000000e+00 3.4514404e-05 0.0000000e+00 
0.0000000e+00 9.0855901e-05 0.0000000e+00 
0.0000000e+00 7.3245428e-05 0.0000000e+00 
0.0000000e+00 4.3802225e-05 0.0000000e+00 
0.0000000e+00 3.4391014e-05 0.0000000e+00 
0.0000000e+00 4.7399775e-05 0.0000000e+00 
0.0000000e+00 6.7404595e-05 0.0000000e+00 
0.0000000e+00 7.9807418e-05 0.0000000e+00 
0.0000000e+00 8.0985497e-05 0.0000000e+00 
0.0000000e+00 7.3525618e-05 0.0000000e+00 
0.0000000e+00 5.9208887e-05 0.0000000e+00 
0.0000000e+00 3.7337471e-05 0.0000000e+00 
0.0000000e+00 9.2774508e-06 0.0000000e+00 
0.0000000e+00 -1.9641222e-05 0.0000000e+00 
0.0000000e+00 -4.1590723e-05 0.0000000e+00 
0.0000000e+00 -5.0523602e-05 0.0000000e+00 
0.0000000e+00 -4.5075220e-05 0.0000000e+00 
0.0000000e+00 -2.8185274e-05 0.0000000e+00 
0.0000000e+00 -7.1316954e-06 0.0000000e+00 
0.0000000e+00 9.7914763e-06 0.0000000e+00 
0.0000000e+00 1.6214743e-05 0.0000000e+00 
4.8530717e-05 -8.1005899e-05 -2.1764465e-05 
-2.8166227e-04 -4.5355898e-03 -1.0094992e-04 
0.0000000e+00 0.0000000e+00 0.0000000e+00 
0.0000000e+00 0.0000000e+00 0.0000000e+00 
0.0000000e+00 0.0000000e+00 0.0000000e+00 
0.0000000e+00 0.0000000e+00 0.0000000e+00 
0.0000000e+00 0.0000000e+00 0.0000000e+00 
0.0000000e+00 0.0000000e+00 0.0000000e+00 
0.0000000e+00 0.0000000e+00 0.0000000e+00 
0.0000000e+00 0.0000000e+00 0.0000000e+00 
0.0000000e+00 0.0000000e+00 0.0000000e+00 
0.0000000e+00 0.0000000e+00 0.0000000e+00 
0.0000000e+00 0.0000000e+00 0.0000000e+00 
0.0000000e+00 0.0000000e+00 0.0000000e+00 
0.0000000e+00 0.0000000e+00 0.0000000e+00 
0.0000000e+00 0.0000000e+00 0.0000000e+00 
0.0000000e+00 0.0000000e+00 0.0000000e+00 
0.0000000e+00 0.0000000e+00 0.0000000e+00 
0.0000000e+00 0.0000000e+00 0.0000000e+00 
0.0000000e+00 0.0000000e+00 0.0000000e+00 
0.0000000e+00 0.0000000e+00 0.0000000e+00 
0.0000000e+00 0.0000000e+00 0.0000000e+00 
0.0000000e+00 0.0000000e+00 0.0000000e+00 
0.0000000e+00 0.0000000e+00 0.0000000e+00 
0.0000000e+00 0.0000000e+00 0.0000000e+00 
0.0000000e+00 0.0000000e+00 0.0000000e+00 
0.0000000e+00 0.0000000e+00 0.0000000e+00 
0.0000000e+00 0.0000000e+00 0.0000000e+00 
0.0000000e+00 0.0000000e+00 0.0000000e+00 
0.0000000e+00 0.0000000e+00 0.0000000e+00 
0.0000000e+00 0.0000000e+00 0.0000000e+00 
0.0000000e+00 0.0000000e+00 0.0000000e+00 
0.0000000e+00 0.0000000e+00 0.0000000e+00 
0.0000000e+00 0.0000000e+00 0.0000000e+00 
0.0000000e+00 0.0000000e+00 0.0000000e+00 
0.0000000e+00 0.0000000e+00 0.0000000e+00 
0.0000000e+00 0.0000000e+00 0.0000000e+00 
0.0000000e+00 0.0000000e+00 0.0000000e+00 
0.0000000e+00 0.0000000e+00 0.0000000e+00 
0.0000000e+00 0.0000000e+00 0.0000000e+00 
0.0000000e+00 0.0000000e+00 0.0000000e+00 
0.0000000e+00 0.0000000e+00 0.0000000e+00 
0.0000000e+00 0.0000000e+00 0.0000000e+00 
0.0000000e+00 0.0000000e+00 0.0000000e+00 
0.0000000e+00 0.0000000e+00 0.0000000e+00 
0.0000000e+00 0.0000000e+00 0.0000000e+00 
0.0000000e+00 0.0000000e+00 0.0000000e+00 
0.0000000e+00 0.0000000e+00 0.0000000e+00 
0.0000000e+00 0.0000000e+00 0.0000000e+00 
0.0000000e+00 0.0000000e+00 0.0000000e+00 
0.0000000e+00 0.0000000e+00 0.0000000e+00 
0.0000000e+00 0.0000000e+00 0.0000000e+00 
0.0000000e+00 0.0000000e+00 0.0000000e+00 
0.0000000e+00 0.0000000e+00 0.0000000e+00 
0.0000000e+00 0.0000000e+00 0.0000000e+00 
0.0000000e+00 0.0000000e+00 0.0000000e+00 
0.0000000e+00 0.0000000e+00 0.0000000e+00 
0.0000000e+00 0.0000000e+00 0.0000000e+00 
0.0000000e+00 0.0000000e+00 0.0000000e+00 
0.0000000e+00 0.0000000e+00 0.0000000e+00 
0.0000000e+00 0.0000000e+00 0.0000000e+00 
0.0000000e+00 0.0000000e+00 0.0000000e+00 
0.0000000e+00 0.0000000e+00 0.0000000e+00 
0.0000000e+00 0.0000000e+00 0.0000000e+00 
0.0000000e+00 0.0000000e+00 0.0000000e+00 
0.0000000e+00 0.0000000e+00 0.0000000e+00 
0.0000000e+00 0.0000000e+00 0.0000000e+00 
0.0000000e+00 0.0000000e+00 0.0000000e+00 
0.0000000e+00 0.0000000e+00 0.0000000e+00 
0.0000000e+00 0.0000000e+00 0.0000000e+00 
0.0000000e+00 0.0000000e+00 0.0000000e+00 
0.0000000e+00 0.0000000e+00 0.0000000e+00 
0.0000000e+00 0.0000000e+00 0.0000000e+00 
0.0000000e+00 0.0000000e+00 0.0000000e+00 
0.0000000e+00 0.0000000e+00 0.0000000e+00 
0.0000000e+00 0.0000000e+00 0.0000000e+00 
0.0000000e+00 0.0000000e+00 0.0000000e+00 
0.0000000e+00 0.0000000e+00 0.0000000e+00 
0.0000000e+00 0.0000000e+00 0.0000000e+00 
0.0000000e+00 0.0000000e+00 0.0000000e+00 
0.0000000e+00 0.0000000e+00 0.0000000e+00 
0.0000000e+00 0.0000000e+00 0.0000000e+00 
0.0000000e+00 0.0000000e+00 0.0000000e+00 
0.0000000e+00 0.0000000e+00 0.0000000e+00 
0.0000000e+00 0.0000000e+00 0.0000000e+00 
0.0000000e+00 0.0000000e+00 0.0000000e+00 
0.0000000e+00 0.0000000e+00 0.0000000e+00 
0.0000000e+00 0.0000000e+00 0.0000000e+00 
0.0000000e+00 0.0000000e+00 0.0000000e+00 
0.0000000e+00 0.0000000e+00 0.0000000e+00 
0.0000000e+00 0.0000000e+00 0.0000000e+00 
0.0000000e+00 0.0000000e+00 0.0000000e+00 
0.0000000e+00 0.0000000e+00 0.0000000e+00 
0.0000000e+00 0.0000000e+00 0.0000000e+00 
0.0000000e+00 0.0000000e+00 0.0000000e+00 
0.0000000e+00 0.0000000e+00 0.0000000e+00 
0.0000000e+00 0.0000000e+00 0.0000000e+00 
0.0000000e+00 0.0000000e+00 0.0000000e+00 
0.0000000e+00 0.0000000e+00 0.0000000e+00 
0.0000000e+00 0.0000000e+00 0.0000000e+00 
0.0000000e+00 0.0000000e+00 0.0000000e+00 
0.0000000e+00 0.0000000e+00 0.0000000e+00 
0.0000000e+00 0.0000000e+00 0.0000000e+00 
0.0000000e+00 0.0000000e+00 0.0000000e+00 
0.0000000e+00 0.0000000e+00 0.0000000e+00 
0.0000000e+00 0.0000000e+00 0.0000000e+00 
0.0000000e+00 0.0000000e+00 0.0000000e+00 
0.0000000e+00 0.0000000e+00 0.0000000e+00 
1.1883257e-07 -1.8840897e-06 -2.3642112e-07 
1.3310424e-06 7.9570555e-07 2.0597825e-07 
-1.4093154e-06 2.5214033e-06 7.8990148e-09 
-2.9599498e-06 2.6649091e-06 -5.5228379e-06 
1.4164108e-06 -4.5234128e-06 -4.2120082e-06 
-3.5920544e-07 1.5381773e-06 -4.3116602e-06 
9.2789156e-07 -4.9817841e-06 -7.5462804e-06 
5.0499420e-06 -8.8101851e-06 -1.0380213e-05 
7.4857053e-06 -3.6604363e-06 -1.6426700e-05 
1.6692566e-05 -1.6221453e-06 -1.5003187e-05 
1.7963619e-05 -6.8562445e-06 -1.3445502e-05 
2.6869491e-05 -5.3819799e-06 -1.3407487e-05 
3.0495941e-05 -4.0934419e-06 -1.0446511e-05 
3.2721651e-05 -1.3138264e-05 -3.9716774e-06 
3.7372167e-05 -1.2608795e-05 1.1051260e-06 
3.8048016e-05 -1.4879293e-05 5.8247078e-06 
3.2739685e-05 -1.1012689e-05 1.2480204e-05 
2.5249186e-05 -1.0987951e-05 1.6612055e-05 
1.7997732e-05 -9.2920318e-06 1.4245410e-05 
9.7336979e-06 -1.1629586e-06 1.6326991e-05 
4.0816403e-06 1.2577699e-06 1.5977064e-05 
-5.7331846e-07 -5.5135001e-07 1.1032159e-05 
-4.6402288e-06 -1.2877783e-06 9.5949554e-06 
-4.3089763e-06 -3.9966612e-06 2.8333832e-06 
-1.3131018e-06 -3.3493584e-06 -6.6867619e-06 
9.6640315e-07 -4.3703807e-07 -2.7635924e-06 
6.5881313e-06 -5.0196345e-06 -5.3760218e-06 
5.9693048e-06 -5.7210264e-06 -5.8791111e-06 
7.9680340e-06 -6.6638440e-06 -1.0694107e-05 
1.6957354e-05 2.5896290e-07 -1.3914414e-05 
2.0912388e-05 -7.1953896e-06 -1.7519980e-05 
3.0935105e-05 -1.1532374e-05 -1.7052094e-05 
3.4858484e-05 -1.0267479e-05 -1.6163278e-05 
3.8492348e-05 -1.0038525e-05 -9.9587824e-06 
4.4448781e-05 -1.6727638e-05 -6.6810499e-06 
4.5671368e-05 -1.3410139e-05 1.5129270e-07 
3.7558166e-05 -9.9153121e-06 9.4195711e-06 
3.1940825e-05 -1.0126832e-05 1.3720714e-05 
2.2713286e-05 -6.6450589e-06 1.5946354e-05 
1.2151377e-05 -3.1395930e-06 1.7694005e-05 
7.1434006e-06 -2.7208841e-06 1.4658110e-05 
2.9653850e-06 -2.3034422e-06 1.1082539e-05 
5.9897599e-07 -1.4789420e-06 5.3301933e-06 
-2.7189546e-07 -9.2969719e-07 1.3380383e-06 
-7.0967639e-07 -4.9006042e-07 -1.3755326e-06 
-8.3977466e-07 3.7605230e-07 -1.7167575e-06 
-5.6265992e-07 1.2501492e-06 -1.6886652e-06 
-3.1741433e-07 5.2370984e-07 -1.1123392e-06 
-5.1991293e-07 -2.8228715e-07 -4.8979734e-07 
0.0000000e+00 3.6250774e-05 0.0000000e+00 
0.0000000e+00 4.4445882e-05 0.0000000e+00 
0.0000000e+00 5.2398078e-05 0.0000000e+00 
0.0000000e+00 6.0317096e-05 0.0000000e+00 
0.0000000e+00 4.5040040e-05 0.0000000e+00 
0.0000000e+00 3.1824697e-05 0.0000000e+00 
0.0000000e+00 3.7274207e-05 0.0000000e+00 
0.0000000e+00 1.0196545e-05 0.0000000e+00 
0.0000000e+00 -1.1217296e-05 0.0000000e+00 
0.0000000e+00 1.0636008e-05 0.0000000e+00 
0.0000000e+00 -1.7330167e-05 0.0000000e+00 
0.0000000e+00 -9.9064790e-05 0.0000000e+00 
0.0000000e+00 -2.1426124e-04 0.0000000e+00 
0.0000000e+00 -3.5422354e-04 0.0000000e+00 
0.0000000e+00 -4.5216616e-04 0.0000000e+00 
0.0000000e+00 -4.6707844e-04 0.0000000e+00 
0.0000000e+00 -4.3273639e-04 0.0000000e+00 
0.0000000e+00 -2.9862527e-04 0.0000000e+00 
0.0000000e+00 -1.3248721e-04 0.0000000e+00 
0.0000000e+00 -2.6721678e-05 0.0000000e+00 
0.0000000e+00 2.4841078e-05 0.0000000e+00 
0.0000000e+00 3.1499178e-05 0.0000000e+00 
0.0000000e+00 5.1506657e-05 0.0000000e+00 
0.0000000e+00 7.6215860e-05 0.0000000e+00 
0.0000000e+00 8.6801934e-05 0.0000000e+00 
0.0000000e+00 9.9687131e-05 0.0000000e+00 
0.0000000e+00 6.2845116e-05 0.0000000e+00 
0.0000000e+00 2.3531748e-05 0.0000000e+00 
0.0000000e+00 -1.2024425e-06 0.0000000e+00 
0.0000000e+00 2.0239379e-05 0.0000000e+00 
0.0000000e+00 1.0473222e-05 0.0000000e+00 
0.0000000e+00 -1.6158016e-04 0.0000000e+00 
0.0000000e+00 -2.6162542e-04 0.0000000e+00 
0.0000000e+00 -4.6851119e-04 0.0000000e+00 
0.0000000e+00 -5.3804286e-04 0.0000000e+00 
0.0000000e+00 -5.4040446e-04 0.0000000e+00 
0.0000000e+00 -4.5610665e-04 0.0000000e+00 
0.0000000e+00 -2.5764402e-04 0.0000000e+00 
0.0000000e+00 -8.9448316e-05 0.0000000e+00 
0.0000000e+00 -4.2172320e-05 0.0000000e+00 
0.0000000e+00 -1.9175357e-05 0.0000000e+00 
0.0000000e+00 -5.7123229e-06 0.0000000e+00 
0.0000000e+00 1.5793235e-05 0.0000000e+00 
0.0000000e+00 2.2157725e-05 0.0000000e+00 
0.0000000e+00 2.0059251e-05 0.0000000e+00 
0.0000000e+00 8.5131496e-06 0.0000000e+00 
0.0000000e+00 -1.5896574e-05 0.0000000e+00 
0.0000000e+00 -1.7025353e-05 0.0000000e+00 
0.0000000e+00 -1.3319253e-07 0.0000000e+00 
-8.4146279e-08 -2.6613452e-06 1.2924555e-06 
1.0606677e-06 -2.5814254e-06 -8.5358657e-08 
-8.0169252e-07 3.8229416e-07 4.8229699e-06 
-1.6200383e-06 5.5928026e-06 5.5719156e-06 
-4.0512609e-07 6.3102749e-07 -3.5658107e-07 
-1.0310710e-06 1.2828227e-06 7.5755923e-07 
-1.6226815e-06 3.1966210e-06 1.7746524e-06 
-1.7318581e-06 7.4480258e-06 6.3726526e-07 
7.0116351e-07 -1.3341826e-08 -4.5366761e-07 
4.2163228e-06 7.5946741e-07 9.3403213e-07 
4.1134281e-06 1.8094381e-06 -2.8466120e-06 
6.6960642e-06 4.6660384e-06 -6.0970156e-06 
6.1937362e-06 -5.1091001e-06 -8.7613552e-07 
-2.4630597e-06 5.4504335e-06 -7.7514105e-06 
-1.6907454e-06 -6.3670100e-06 -1.0725163e-05 
6.2668569e-06 -9.3092385e-06 -1.5837157e-05 
1.1560758e-05 2.4904482e-06 -1.5945727e-05 
1.1887589e-05 -7.1362110e-06 -2.0755266e-05 
1.6346637e-05 -3.8622729e-06 -2.2668391e-05 
2.7443348e-05 1.6978784e-06 -1.8123565e-05 
2.8994798e-05 -4.6216751e-06 -9.3712406e-06 
3.7381633e-05 -7.5938951e-06 -2.5750942e-06 
4.1139810e-05 -8.7930530e-06 8.3855148e-06 
3.2414238e-05 -1.4814449e-05 1.0246864e-05 
2.9593739e-05 -1.2471607e-05 1.1913225e-05 
2.7036969e-05 -6.9224607e-06 1.6579674e-05 
1.7754008e-05 -9.4443785e-06 1.6690215e-05 
1.4702476e-05 -9.5780274e-07 1.5981681e-05 
1.0102470e-05 2.7909618e-06 1.6775708e-05 