# vtk DataFile Version 4.0
vtk output
ASCII
DATASET UNSTRUCTURED_GRID
POINTS 1919 float
0.0000000e+00 0.0000000e+00 0.0000000e+00 
0.0000000e+00 0.0000000e+00 5.0000000e+01 
5.0000000e+00 0.0000000e+00 0.0000000e+00 
5.0000000e+00 0.0000000e+00 5.0000000e+01 
5.0000000e+00 1.0000000e+00 0.0000000e+00 
5.0000000e+00 1.0000000e+00 5.0000000e+01 
0.0000000e+00 1.0000000e+00 0.0000000e+00 
0.0000000e+00 1.0000000e+00 5.0000000e+01 
5.0000000e+00 2.0000000e+00 0.0000000e+00 
5.0000000e+00 2.0000000e+00 5.0000000e+01 
3.0000000e+00 2.0000000e+00 0.0000000e+00 
3.0000000e+00 2.0000000e+00 5.0000000e+01 
0.0000000e+00 2.0000000e+00 0.0000000e+00 
0.0000000e+00 2.0000000e+00 5.0000000e+01 
1.5000000e+00 3.0000000e+00 0.0000000e+00 
1.5000000e+00 3.0000000e+00 5.0000000e+01 
7.5000000e-01 3.0000000e+00 0.0000000e+00 
7.5000000e-01 3.0000000e+00 5.0000000e+01 
0.0000000e+00 3.0000000e+00 0.0000000e+00 
0.0000000e+00 3.0000000e+00 5.0000000e+01 
7.5000000e-01 3.0000000e+00 5.0000000e-01 
7.5000000e-01 3.0000000e+00 1.0000000e+00 
7.5000000e-01 3.0000000e+00 1.5000000e+00 
7.5000000e-01 3.0000000e+00 2.0000000e+00 
7.5000000e-01 3.0000000e+00 2.5000000e+00 
7.5000000e-01 3.0000000e+00 3.0000000e+00 
7.5000000e-01 3.0000000e+00 3.5000000e+00 
7.5000000e-01 3.0000000e+00 4.0000000e+00 
7.5000000e-01 3.0000000e+00 4.5000000e+00 
7.5000000e-01 3.0000000e+00 5.0000000e+00 
7.5000000e-01 3.0000000e+00 5.5000000e+00 
7.5000000e-01 3.0000000e+00 6.0000000e+00 
7.5000000e-01 3.0000000e+00 6.5000000e+00 
7.5000000e-01 3.0000000e+00 7.0000000e+00 
7.5000000e-01 3.0000000e+00 7.5000000e+00 
7.5000000e-01 3.0000000e+00 8.0000000e+00 
7.5000000e-01 3.0000000e+00 8.5000000e+00 
7.5000000e-01 3.0000000e+00 9.0000000e+00 
7.5000000e-01 3.0000000e+00 9.5000000e+00 
7.5000000e-01 3.0000000e+00 1.0000000e+01 
7.5000000e-01 3.0000000e+00 1.0500000e+01 
7.5000000e-01 3.0000000e+00 1.1000000e+01 
7.5000000e-01 3.0000000e+00 1.1500000e+01 
7.5000000e-01 3.0000000e+00 1.2000000e+01 
7.5000000e-01 3.0000000e+00 1.2500000e+01 
7.5000000e-01 3.0000000e+00 1.3000000e+01 
7.5000000e-01 3.0000000e+00 1.3500000e+01 
7.5000000e-01 3.0000000e+00 1.4000000e+01 
7.5000000e-01 3.0000000e+00 1.4500000e+01 
7.5000000e-01 3.0000000e+00 1.5000000e+01 
7.5000000e-01 3.0000000e+00 1.5500000e+01 
7.5000000e-01 3.0000000e+00 1.6000000e+01 
7.5000000e-01 3.0000000e+00 1.6500000e+01 
7.5000000e-01 3.0000000e+00 1.7000000e+01 
7.5000000e-01 3.0000000e+00 1.7500000e+01 
7.5000000e-01 3.0000000e+00 1.8000000e+01 
7.5000000e-01 3.0000000e+00 1.8500000e+01 
7.5000000e-01 3.0000000e+00 1.9000000e+01 
7.5000000e-01 3.0000000e+00 1.9500000e+01 
7.5000000e-01 3.0000000e+00 2.0000000e+01 
7.5000000e-01 3.0000000e+00 2.0500000e+01 
7.5000000e-01 3.0000000e+00 2.1000000e+01 
7.5000000e-01 3.0000000e+00 2.1500000e+01 
7.5000000e-01 3.0000000e+00 2.2000000e+01 
7.5000000e-01 3.0000000e+00 2.2500000e+01 
7.5000000e-01 3.0000000e+00 2.3000000e+01 
7.5000000e-01 3.0000000e+00 2.3500000e+01 
7.5000000e-01 3.0000000e+00 2.4000000e+01 
7.5000000e-01 3.0000000e+00 2.4500000e+01 
7.5000000e-01 3.0000000e+00 2.5000000e+01 
7.5000000e-01 3.0000000e+00 2.5500000e+01 
7.5000000e-01 3.0000000e+00 2.6000000e+01 
7.5000000e-01 3.0000000e+00 2.6500000e+01 
7.5000000e-01 3.0000000e+00 2.7000000e+01 
7.5000000e-01 3.0000000e+00 2.7500000e+01 
7.5000000e-01 3.0000000e+00 2.8000000e+01 
7.5000000e-01 3.0000000e+00 2.8500000e+01 
7.5000000e-01 3.0000000e+00 2.9000000e+01 
7.5000000e-01 3.0000000e+00 2.9500000e+01 
7.5000000e-01 3.0000000e+00 3.0000000e+01 
7.5000000e-01 3.0000000e+00 3.0500000e+01 
7.5000000e-01 3.0000000e+00 3.1000000e+01 
7.5000000e-01 3.0000000e+00 3.1500000e+01 
7.5000000e-01 3.0000000e+00 3.2000000e+01 
7.5000000e-01 3.0000000e+00 3.2500000e+01 
7.5000000e-01 3.0000000e+00 3.3000000e+01 
7.5000000e-01 3.0000000e+00 3.3500000e+01 
7.5000000e-01 3.0000000e+00 3.4000000e+01 
7.5000000e-01 3.0000000e+00 3.4500000e+01 
7.5000000e-01 3.0000000e+00 3.5000000e+01 
7.5000000e-01 3.0000000e+00 3.5500000e+01 
7.5000000e-01 3.0000000e+00 3.6000000e+01 
7.5000000e-01 3.0000000e+00 3.6500000e+01 
7.5000000e-01 3.0000000e+00 3.7000000e+01 
7.5000000e-01 3.0000000e+00 3.7500000e+01 
7.5000000e-01 3.0000000e+00 3.8000000e+01 
7.5000000e-01 3.0000000e+00 3.8500000e+01 
7.5000000e-01 3.0000000e+00 3.9000000e+01 
7.5000000e-01 3.0000000e+00 3.9500000e+01 
7.5000000e-01 3.0000000e+00 4.0000000e+01 
7.5000000e-01 3.0000000e+00 4.0500000e+01 
7.5000000e-01 3.0000000e+00 4.1000000e+01 
7.5000000e-01 3.0000000e+00 4.1500000e+01 
7.5000000e-01 3.0000000e+00 4.2000000e+01 
7.5000000e-01 3.0000000e+00 4.2500000e+01 
7.5000000e-01 3.0000000e+00 4.3000000e+01 
7.5000000e-01 3.0000000e+00 4.3500000e+01 
7.5000000e-01 3.0000000e+00 4.4000000e+01 
7.5000000e-01 3.0000000e+00 4.4500000e+01 
7.5000000e-01 3.0000000e+00 4.5000000e+01 
7.5000000e-01 3.0000000e+00 4.5500000e+01 
7.5000000e-01 3.0000000e+00 4.6000000e+01 
7.5000000e-01 3.0000000e+00 4.6500000e+01 
7.5000000e-01 3.0000000e+00 4.7000000e+01 
7.5000000e-01 3.0000000e+00 4.7500000e+01 
7.5000000e-01 3.0000000e+00 4.8000000e+01 
7.5000000e-01 3.0000000e+00 4.8500000e+01 
7.5000000e-01 3.0000000e+00 4.9000000e+01 
7.5000000e-01 3.0000000e+00 4.9500000e+01 
7.5000000e-01 3.0250001e+00 0.0000000e+00 
7.5000000e-01 3.0250001e+00 5.0000000e-01 
7.5000000e-01 3.0250001e+00 1.0000000e+00 
7.5000000e-01 3.0250001e+00 1.5000000e+00 
7.5000000e-01 3.0250001e+00 2.0000000e+00 
7.5000000e-01 3.0250001e+00 2.5000000e+00 
7.5000000e-01 3.0250001e+00 3.0000000e+00 
7.5000000e-01 3.0250001e+00 3.5000000e+00 
7.5000000e-01 3.0250001e+00 4.0000000e+00 
7.5000000e-01 3.0250001e+00 4.5000000e+00 
7.5000000e-01 3.0250001e+00 5.0000000e+00 
7.5000000e-01 3.0250001e+00 5.5000000e+00 
7.5000000e-01 3.0250001e+00 6.0000000e+00 
7.5000000e-01 3.0250001e+00 6.5000000e+00 
7.5000000e-01 3.0250001e+00 7.0000000e+00 
7.5000000e-01 3.0250001e+00 7.5000000e+00 
7.5000000e-01 3.0250001e+00 8.0000000e+00 
7.5000000e-01 3.0250001e+00 8.5000000e+00 
7.5000000e-01 3.0250001e+00 9.0000000e+00 
7.5000000e-01 3.0250001e+00 9.5000000e+00 
7.5000000e-01 3.0250001e+00 1.0000000e+01 
7.5000000e-01 3.0250001e+00 1.0500000e+01 
7.5000000e-01 3.0250001e+00 1.1000000e+01 
7.5000000e-01 3.0250001e+00 1.1500000e+01 
7.5000000e-01 3.0250001e+00 1.2000000e+01 
7.5000000e-01 3.0250001e+00 1.2500000e+01 
7.5000000e-01 3.0250001e+00 1.3000000e+01 
7.5000000e-01 3.0250001e+00 1.3500000e+01 
7.5000000e-01 3.0250001e+00 1.4000000e+01 
7.5000000e-01 3.0250001e+00 1.4500000e+01 
7.5000000e-01 3.0250001e+00 1.5000000e+01 
7.5000000e-01 3.0250001e+00 1.5500000e+01 
7.5000000e-01 3.0250001e+00 1.6000000e+01 
7.5000000e-01 3.0250001e+00 1.6500000e+01 
7.5000000e-01 3.0250001e+00 1.7000000e+01 
7.5000000e-01 3.0250001e+00 1.7500000e+01 
7.5000000e-01 3.0250001e+00 1.8000000e+01 
7.5000000e-01 3.0250001e+00 1.8500000e+01 
7.5000000e-01 3.0250001e+00 1.9000000e+01 
7.5000000e-01 3.0250001e+00 1.9500000e+01 
7.5000000e-01 3.0250001e+00 2.0000000e+01 
7.5000000e-01 3.0250001e+00 2.0500000e+01 
7.5000000e-01 3.0250001e+00 2.1000000e+01 
7.5000000e-01 3.0250001e+00 2.1500000e+01 
7.5000000e-01 3.0250001e+00 2.2000000e+01 
7.5000000e-01 3.0250001e+00 2.2500000e+01 
7.5000000e-01 3.0250001e+00 2.3000000e+01 
7.5000000e-01 3.0250001e+00 2.3500000e+01 
7.5000000e-01 3.0250001e+00 2.4000000e+01 
7.5000000e-01 3.0250001e+00 2.4500000e+01 
7.5000000e-01 3.0250001e+00 2.5000000e+01 
7.5000000e-01 3.0250001e+00 2.5500000e+01 
7.5000000e-01 3.0250001e+00 2.6000000e+01 
7.5000000e-01 3.0250001e+00 2.6500000e+01 
7.5000000e-01 3.0250001e+00 2.7000000e+01 
7.5000000e-01 3.0250001e+00 2.7500000e+01 
7.5000000e-01 3.0250001e+00 2.8000000e+01 
7.5000000e-01 3.0250001e+00 2.8500000e+01 
7.5000000e-01 3.0250001e+00 2.9000000e+01 
7.5000000e-01 3.0250001e+00 2.9500000e+01 
7.5000000e-01 3.0250001e+00 3.0000000e+01 
7.5000000e-01 3.0250001e+00 3.0500000e+01 
7.5000000e-01 3.0250001e+00 3.1000000e+01 
7.5000000e-01 3.0250001e+00 3.1500000e+01 
7.5000000e-01 3.0250001e+00 3.2000000e+01 
7.5000000e-01 3.0250001e+00 3.2500000e+01 
7.5000000e-01 3.0250001e+00 3.3000000e+01 
7.5000000e-01 3.0250001e+00 3.3500000e+01 
7.5000000e-01 3.0250001e+00 3.4000000e+01 
7.5000000e-01 3.0250001e+00 3.4500000e+01 
7.5000000e-01 3.0250001e+00 3.5000000e+01 
7.5000000e-01 3.0250001e+00 3.5500000e+01 
7.5000000e-01 3.0250001e+00 3.6000000e+01 
7.5000000e-01 3.0250001e+00 3.6500000e+01 
7.5000000e-01 3.0250001e+00 3.7000000e+01 
7.5000000e-01 3.0250001e+00 3.7500000e+01 
7.5000000e-01 3.0250001e+00 3.8000000e+01 
7.5000000e-01 3.0250001e+00 3.8500000e+01 
7.5000000e-01 3.0250001e+00 3.9000000e+01 
7.5000000e-01 3.0250001e+00 3.9500000e+01 
7.5000000e-01 3.0250001e+00 4.0000000e+01 
7.5000000e-01 3.0250001e+00 4.0500000e+01 
7.5000000e-01 3.0250001e+00 4.1000000e+01 
7.5000000e-01 3.0250001e+00 4.1500000e+01 
7.5000000e-01 3.0250001e+00 4.2000000e+01 
7.5000000e-01 3.0250001e+00 4.2500000e+01 
7.5000000e-01 3.0250001e+00 4.3000000e+01 
7.5000000e-01 3.0250001e+00 4.3500000e+01 
7.5000000e-01 3.0250001e+00 4.4000000e+01 
7.5000000e-01 3.0250001e+00 4.4500000e+01 
7.5000000e-01 3.0250001e+00 4.5000000e+01 
7.5000000e-01 3.0250001e+00 4.5500000e+01 
7.5000000e-01 3.0250001e+00 4.6000000e+01 
7.5000000e-01 3.0250001e+00 4.6500000e+01 
7.5000000e-01 3.0250001e+00 4.7000000e+01 
7.5000000e-01 3.0250001e+00 4.7500000e+01 
7.5000000e-01 3.0250001e+00 4.8000000e+01 
7.5000000e-01 3.0250001e+00 4.8500000e+01 
7.5000000e-01 3.0250001e+00 4.9000000e+01 
7.5000000e-01 3.0250001e+00 4.9500000e+01 
7.5000000e-01 3.0250001e+00 5.0000000e+01 
3.0000000e+00 2.0000000e+00 3.6000000e+01 
8.0487806e-01 3.0000000e+00 3.6000000e+01 
0.0000000e+00 0.0000000e+00 1.0000000e+00 
0.0000000e+00 0.0000000e+00 2.0000000e+00 
0.0000000e+00 0.0000000e+00 3.0000000e+00 
0.0000000e+00 0.0000000e+00 4.0000000e+00 
0.0000000e+00 0.0000000e+00 5.0000000e+00 
0.0000000e+00 0.0000000e+00 6.0000000e+00 
0.0000000e+00 0.0000000e+00 7.0000000e+00 
0.0000000e+00 0.0000000e+00 8.0000000e+00 
[...]
POINT_DATA 1919
FIELD FieldData 3
DISPLACEMENT 3 1919  float
0.0000000e+00 0.0000000e+00 0.0000000e+00 
0.0000000e+00 0.0000000e+00 0.0000000e+00 
0.0000000e+00 0.0000000e+00 0.0000000e+00 
0.0000000e+00 0.0000000e+00 0.0000000e+00 
-5.4131906e-06 -4.2404108e-06 -2.8078518e-06 
1.2065468e-08 -3.0692377e-08 1.9311003e-08 
0.0000000e+00 9.9048637e-05 0.0000000e+00 
0.0000000e+00 -1.1931459e-07 0.0000000e+00 
-1.2023049e-06 -8.9450814e-06 4.8212896e-06 
-4.9903530e-08 6.8668236e-08 -6.1304988e-08 
-2.1978526e-06 3.3000008e-05 9.6441981e-06 
4.7323212e-08 7.6711366e-08 9.6277752e-08 
0.0000000e+00 1.1111762e-04 0.0000000e+00 
0.0000000e+00 -1.8637768e-07 0.0000000e+00 
2.7799026e-05 4.5551831e-05 1.1957124e-04 
1.0950688e-07 1.7083741e-08 2.8357843e-07 
8.3234081e-05 2.5408025e-04 6.1870851e-05 
-1.3138652e-08 -1.3980371e-06 -1.3436636e-07 
0.0000000e+00 1.0184006e-04 0.0000000e+00 
0.0000000e+00 4.3736424e-07 0.0000000e+00 
8.2866092e-05 2.0247840e-04 7.7486467e-05 
3.9934308e-05 9.1467038e-05 1.4309840e-04 
7.8533958e-05 -1.2792978e-05 1.4167227e-04 
7.0762959e-05 -1.0629740e-04 1.3891993e-04 
-1.1688668e-05 -2.8040702e-04 1.8521736e-04 
-3.7474143e-05 -6.9030561e-04 1.2174638e-04 
-7.0171831e-05 -1.4725700e-03 2.0122195e-04 
-1.9661851e-04 -2.6107361e-03 7.6918659e-05 
-1.9933321e-04 -3.8958418e-03 1.4429202e-04 
-2.9214300e-04 -4.7859265e-03 -9.0791573e-06 
-3.5293365e-04 -4.8397663e-03 -4.2806325e-05 
-2.2901884e-04 -4.5050760e-03 -1.5153338e-06 
-1.6938247e-04 -4.3823728e-03 1.7889288e-05 
-2.4345909e-04 -4.5335810e-03 -7.2032679e-05 
-2.3877113e-04 -4.5828079e-03 -1.1228261e-04 
-2.1175924e-04 -3.8904424e-03 -9.1067428e-05 
-1.7198277e-04 -2.8043196e-03 -2.2519195e-04 
-1.1204500e-04 -1.7088095e-03 -7.0020913e-05 
-8.4174120e-05 -8.4795733e-04 -6.3855405e-05 
-6.8658213e-05 -2.8180386e-04 5.8888632e-05 
-8.1700819e-05 1.4349073e-05 5.0503182e-05 
-6.2976447e-05 1.2274805e-04 2.8298393e-05 
-3.8499249e-05 1.3330059e-04 -5.7011086e-05 
-1.5361195e-05 1.0018171e-04 -1.3198369e-04 
1.4998585e-05 5.4616892e-05 -1.5650781e-04 
2.2710628e-05 8.1646203e-06 -1.2474069e-04 
2.4853598e-05 -3.5594974e-05 -4.9113249e-05 
2.3461629e-05 -7.5986849e-05 4.0155815e-06 
6.2459653e-06 -1.1386490e-04 7.5071912e-05 
-3.1468713e-05 -1.4843476e-04 1.0261537e-04 
-5.2258009e-05 -1.7517958e-04 1.0173907e-04 
-6.7417772e-05 -1.8093576e-04 6.4906933e-05 
-5.2421103e-05 -1.6139643e-04 3.2339478e-05 
-3.6275338e-05 -1.3030313e-04 9.6912081e-06 
-2.0319969e-05 -1.0434665e-04 -5.7600992e-06 
-1.6316231e-06 -1.0058881e-04 -6.6558255e-06 
1.9560879e-05 -1.1248759e-04 7.1385653e-06 
4.8271279e-05 -1.1376450e-04 1.7861141e-05 
6.3117724e-05 -8.6411230e-05 4.5602243e-05 
7.0860413e-05 -3.5307043e-05 2.8839962e-05 
4.5362020e-05 5.2932464e-06 4.1787574e-05 
3.9233299e-05 -1.0196712e-05 3.4391953e-05 
1.3370127e-05 -1.0162612e-04 3.5038694e-05 
2.3294644e-05 -2.7898076e-04 4.6036330e-05 
-1.0756004e-05 -5.7098409e-04 7.7236393e-05 
-2.9359560e-05 -1.0361766e-03 3.6355294e-05 
-4.0093568e-05 -1.7658853e-03 1.3658956e-04 
-1.1379751e-04 -2.7968748e-03 3.3181274e-07 
-1.7919879e-04 -4.0025306e-03 8.1658785e-05 
-2.4956279e-04 -4.8772111e-03 -6.8375819e-05 
-2.4955638e-04 -4.9237288e-03 -1.3102051e-04 
-2.4305598e-04 -4.6270620e-03 -1.1637107e-04 
-2.2935474e-04 -4.5504537e-03 -6.2448089e-05 
-2.8887959e-04 -4.7190837e-03 -3.9516621e-05 
-3.4138720e-04 -4.7376934e-03 -2.0086854e-05 
-2.7237763e-04 -3.9064935e-03 4.5707318e-05 
-2.3652613e-04 -2.7081827e-03 -1.1112510e-04 
-1.5691949e-04 -1.5751696e-03 -4.1002524e-05 
-8.9698246e-05 -7.5052801e-04 -1.3898371e-04 
-5.4127031e-05 -2.4660726e-04 -4.1904485e-05 
-5.4604836e-05 3.8618668e-06 -3.3652115e-05 
-3.3758657e-05 1.0086878e-04 -6.3993111e-06 
-3.3303837e-05 1.2111264e-04 -3.9460228e-05 
-2.3075328e-05 9.9268756e-05 -1.0218030e-04 
1.4428874e-05 5.6854115e-05 -1.3196218e-04 
3.2438871e-05 1.5888796e-05 -1.1409917e-04 
3.9773971e-05 -8.3852387e-07 -6.1542269e-05 
2.9952349e-05 5.9560170e-06 -4.0987507e-06 
1.4197962e-05 1.8411461e-05 3.2825199e-05 
4.9620655e-07 2.2265704e-05 5.0882631e-05 
-7.7014738e-06 1.5175836e-05 3.7872876e-05 
-1.0465960e-05 5.5953933e-06 2.6794687e-05 
-9.7481206e-06 1.7458642e-06 1.4230088e-05 
-7.1499762e-06 2.2101858e-06 -5.8294683e-07 
-8.7318745e-07 1.8564992e-06 -8.2521838e-06 
6.3655523e-07 -1.1981966e-06 -8.3083942e-06 
1.1439133e-06 -4.7510985e-06 -6.8452982e-06 
1.3017072e-06 -5.9732515e-06 -4.2420802e-06 
1.1170690e-06 -4.3616010e-06 -9.4839515e-07 
9.1177969e-07 -1.8968217e-06 3.1142909e-07 
1.4561940e-07 -3.5648267e-07 1.8266289e-06 
-8.7129209e-08 2.9437922e-07 2.0170130e-06 
-5.4014743e-07 6.0895320e-07 5.8629087e-07 
-5.6348296e-07 8.9313090e-07 8.1358922e-07 
-2.3704704e-08 1.0340249e-06 -3.5666284e-07 
7.6699877e-08 9.0798119e-07 -3.3436814e-07 
1.0127194e-07 7.6246158e-07 -1.1812278e-07 
-9.5930908e-08 7.4947849e-07 -1.6995585e-09 
2.4206352e-07 6.4441355e-07 -1.9388251e-07 
9.9287689e-08 1.0239771e-07 2.8855669e-07 
1.4704525e-08 -8.5508532e-07 -3.8046090e-07 
-1.2215439e-07 -1.6209758e-06 3.1217866e-07 
-1.1878450e-07 -1.4728984e-06 7.4391302e-08 
-7.7324316e-08 -3.7111846e-07 -2.5646744e-07 
9.3971508e-08 9.8575401e-07 2.9806125e-07 
4.3856474e-08 1.7203605e-06 -1.3948298e-07 
-5.3658852e-08 1.3794596e-06 -9.2624482e-08 
1.4867162e-07 2.6402898e-07 8.7967962e-08 
-3.5838266e-08 -8.9849624e-07 8.3927603e-08 
0.0000000e+00 2.5228685e-04 0.0000000e+00 
0.0000000e+00 2.0217500e-04 0.0000000e+00 
0.0000000e+00 9.4039402e-05 0.0000000e+00 
0.0000000e+00 -8.9785844e-06 0.0000000e+00 
0.0000000e+00 -1.0371210e-04 0.0000000e+00 
0.0000000e+00 -2.8088532e-04 0.0000000e+00 
0.0000000e+00 -6.9636205e-04 0.0000000e+00 
0.0000000e+00 -1.4816752e-03 0.0000000e+00 
0.0000000e+00 -2.6283972e-03 0.0000000e+00 
0.0000000e+00 -3.9109839e-03 0.0000000e+00 
0.0000000e+00 -4.8130373e-03 0.0000000e+00 
0.0000000e+00 -4.8593245e-03 0.0000000e+00 
0.0000000e+00 -4.5335097e-03 0.0000000e+00 
0.0000000e+00 -4.4062161e-03 0.0000000e+00 
0.0000000e+00 -4.5653968e-03 0.0000000e+00 
0.0000000e+00 -4.6032653e-03 0.0000000e+00 
0.0000000e+00 -3.9145765e-03 0.0000000e+00 
0.0000000e+00 -2.8141977e-03 0.0000000e+00 
0.0000000e+00 -1.7181525e-03 0.0000000e+00 
0.0000000e+00 -8.5247494e-04 0.0000000e+00 
0.0000000e+00 -2.8404061e-04 0.0000000e+00 
0.0000000e+00 1.4695242e-05 0.0000000e+00 
0.0000000e+00 1.2490063e-04 0.0000000e+00 
0.0000000e+00 1.3435028e-04 0.0000000e+00 
0.0000000e+00 1.0078957e-04 0.0000000e+00 
0.0000000e+00 5.4875571e-05 0.0000000e+00 
0.0000000e+00 8.5465226e-06 0.0000000e+00 
0.0000000e+00 -3.5168265e-05 0.0000000e+00 
0.0000000e+00 -7.6002827e-05 0.0000000e+00 
0.0000000e+00 -1.1435003e-04 0.0000000e+00 
0.0000000e+00 -1.4926365e-04 0.0000000e+00 
0.0000000e+00 -1.7504666e-04 0.0000000e+00 
0.0000000e+00 -1.8011511e-04 0.0000000e+00 
0.0000000e+00 -1.6100540e-04 0.0000000e+00 
0.0000000e+00 -1.3001026e-04 0.0000000e+00 
0.0000000e+00 -1.0535867e-04 0.0000000e+00 
0.0000000e+00 -1.0167853e-04 0.0000000e+00 
0.0000000e+00 -1.1260093e-04 0.0000000e+00 
0.0000000e+00 -1.1309514e-04 0.0000000e+00 
0.0000000e+00 -8.4679363e-05 0.0000000e+00 
0.0000000e+00 -3.3928703e-05 0.0000000e+00 
0.0000000e+00 4.7200556e-06 0.0000000e+00 
0.0000000e+00 -1.0682976e-05 0.0000000e+00 
0.0000000e+00 -1.0152230e-04 0.0000000e+00 
0.0000000e+00 -2.7813084e-04 0.0000000e+00 
0.0000000e+00 -5.6907634e-04 0.0000000e+00 
0.0000000e+00 -1.0380095e-03 0.0000000e+00 
0.0000000e+00 -1.7736389e-03 0.0000000e+00 
0.0000000e+00 -2.8159036e-03 0.0000000e+00 
0.0000000e+00 -4.0235338e-03 0.0000000e+00 
0.0000000e+00 -4.9071256e-03 0.0000000e+00 
0.0000000e+00 -4.9414453e-03 0.0000000e+00 
0.0000000e+00 -4.6542031e-03 0.0000000e+00 
0.0000000e+00 -4.5723855e-03 0.0000000e+00 
0.0000000e+00 -4.7541815e-03 0.0000000e+00 
0.0000000e+00 -4.7592260e-03 0.0000000e+00 
0.0000000e+00 -3.9302502e-03 0.0000000e+00 
0.0000000e+00 -2.7191704e-03 0.0000000e+00 
0.0000000e+00 -1.5866485e-03 0.0000000e+00 
0.0000000e+00 -7.5414171e-04 0.0000000e+00 
0.0000000e+00 -2.4724298e-04 0.0000000e+00 
0.0000000e+00 5.3990775e-06 0.0000000e+00 
0.0000000e+00 1.0274479e-04 0.0000000e+00 
0.0000000e+00 1.2154820e-04 0.0000000e+00 
0.0000000e+00 9.9388810e-05 0.0000000e+00 
0.0000000e+00 5.7141922e-05 0.0000000e+00 
0.0000000e+00 1.7175013e-05 0.0000000e+00 
0.0000000e+00 -1.5786665e-07 0.0000000e+00 
0.0000000e+00 5.4592037e-06 0.0000000e+00 
0.0000000e+00 1.7750313e-05 0.0000000e+00 
0.0000000e+00 2.1935402e-05 0.0000000e+00 
0.0000000e+00 1.5381513e-05 0.0000000e+00 
0.0000000e+00 6.0163161e-06 0.0000000e+00 
0.0000000e+00 1.8001498e-06 0.0000000e+00 
0.0000000e+00 1.9908355e-06 0.0000000e+00 
0.0000000e+00 1.7029409e-06 0.0000000e+00 
0.0000000e+00 -1.1466819e-06 0.0000000e+00 
0.0000000e+00 -4.6208343e-06 0.0000000e+00 
0.0000000e+00 -5.9005133e-06 0.0000000e+00 
0.0000000e+00 -4.4083085e-06 0.0000000e+00 
0.0000000e+00 -1.9795102e-06 0.0000000e+00 
0.0000000e+00 -3.5876167e-07 0.0000000e+00 
0.0000000e+00 3.1431307e-07 0.0000000e+00 
0.0000000e+00 6.1727053e-07 0.0000000e+00 
0.0000000e+00 8.8374424e-07 0.0000000e+00 
0.0000000e+00 1.0189242e-06 0.0000000e+00 
0.0000000e+00 9.2107007e-07 0.0000000e+00 
0.0000000e+00 7.8327832e-07 0.0000000e+00 
0.0000000e+00 7.4900663e-07 0.0000000e+00 
0.0000000e+00 6.2163548e-07 0.0000000e+00 
0.0000000e+00 8.1775518e-08 0.0000000e+00 
0.0000000e+00 -8.4940075e-07 0.0000000e+00 
0.0000000e+00 -1.5858036e-06 0.0000000e+00 
0.0000000e+00 -1.4483857e-06 0.0000000e+00 
0.0000000e+00 -3.7979157e-07 0.0000000e+00 
0.0000000e+00 9.6042299e-07 0.0000000e+00 
0.0000000e+00 1.6974449e-06 0.0000000e+00 
0.0000000e+00 1.3769987e-06 0.0000000e+00 
0.0000000e+00 2.7364229e-07 0.0000000e+00 
0.0000000e+00 -8.9056806e-07 0.0000000e+00 
0.0000000e+00 -1.3917351e-06 0.0000000e+00 
3.1048983e-06 2.0172779e-06 2.2261466e-07 
-1.0479944e-05 8.9310242e-07 2.7406570e-05 
0.0000000e+00 0.0000000e+00 0.0000000e+00 
0.0000000e+00 0.0000000e+00 0.0000000e+00 
0.0000000e+00 0.0000000e+00 0.0000000e+00 
0.0000000e+00 0.0000000e+00 0.0000000e+00 
0.0000000e+00 0.0000000e+00 0.0000000e+00 
0.0000000e+00 0.0000000e+00 0.0000000e+00 
0.0000000e+00 0.0000000e+00 0.0000000e+00 
0.0000000e+00 0.0000000e+00 0.0000000e+00 
0.0000000e+00 0.0000000e+00 0.0000000e+00 
0.0000000e+00 0.0000000e+00 0.0000000e+00 
0.0000000e+00 0.0000000e+00 0.0000000e+00 
0.0000000e+00 0.0000000e+00 0.0000000e+00 
0.0000000e+00 0.0000000e+00 0.0000000e+00 
0.0000000e+00 0.0000000e+00 0.0000000e+00 
0.0000000e+00 0.0000000e+00 0.0000000e+00 
0.0000000e+00 0.0000000e+00 0.0000000e+00 
0.0000000e+00 0.0000000e+00 0.0000000e+00 
0.0000000e+00 0.0000000e+00 0.0000000e+00 
0.0000000e+00 0.0000000e+00 0.0000000e+00 
0.0000000e+00 0.0000000e+00 0.0000000e+00 
0.0000000e+00 0.0000000e+00 0.0000000e+00 
0.0000000e+00 0.0000000e+00 0.0000000e+00 
0.0000000e+00 0.0000000e+00 0.0000000e+00 
0.0000000e+00 0.0000000e+00 0.0000000e+00 
0.0000000e+00 0.0000000e+00 0.0000000e+00 
0.0000000e+00 0.0000000e+00 0.0000000e+00 
0.0000000e+00 0.0000000e+00 0.0000000e+00 
0.0000000e+00 0.0000000e+00 0.0000000e+00 
0.0000000e+00 0.0000000e+00 0.0000000e+00 
0.0000000e+00 0.0000000e+00 0.0000000e+00 
0.0000000e+00 0.0000000e+00 0.0000000e+00 
0.0000000e+00 0.0000000e+00 0.0000000e+00 
0.0000000e+00 0.0000000e+00 0.0000000e+00 
0.0000000e+00 0.0000000e+00 0.0000000e+00 
0.0000000e+00 0.0000000e+00 0.0000000e+00 
0.0000000e+00 0.0000000e+00 0.0000000e+00 
0.0000000e+00 0.0000000e+00 0.0000000e+00 
0.0000000e+00 0.0000000e+00 0.0000000e+00 
0.0000000e+00 0.0000000e+00 0.0000000e+00 
0.0000000e+00 0.0000000e+00 0.0000000e+00 
0.0000000e+00 0.0000000e+00 0.0000000e+00 
0.0000000e+00 0.0000000e+00 0.0000000e+00 
0.0000000e+00 0.0000000e+00 0.0000000e+00 
0.0000000e+00 0.0000000e+00 0.0000000e+00 
0.0000000e+00 0.0000000e+00 0.0000000e+00 
0.0000000e+00 0.0000000e+00 0.0000000e+00 
0.0000000e+00 0.0000000e+00 0.0000000e+00 
0.0000000e+00 0.0000000e+00 0.0000000e+00 
0.0000000e+00 0.0000000e+00 0.0000000e+00 
0.0000000e+00 0.0000000e+00 0.0000000e+00 
0.0000000e+00 0.0000000e+00 0.0000000e+00 
0.0000000e+00 0.0000000e+00 0.0000000e+00 
0.0000000e+00 0.0000000e+00 0.0000000e+00 
0.0000000e+00 0.0000000e+00 0.0000000e+00 
0.0000000e+00 0.0000000e+00 0.0000000e+00 
0.0000000e+00 0.0000000e+00 0.0000000e+00 
0.0000000e+00 0.0000000e+00 0.0000000e+00 
0.0000000e+00 0.0000000e+00 0.0000000e+00 
0.0000000e+00 0.0000000e+00 0.0000000e+00 
0.0000000e+00 0.0000000e+00 0.0000000e+00 
0.0000000e+00 0.0000000e+00 0.0000000e+00 
0.0000000e+00 0.0000000e+00 0.0000000e+00 
0.0000000e+00 0.0000000e+00 0.0000000e+00 
0.0000000e+00 0.0000000e+00 0.0000000e+00 
0.0000000e+00 0.0000000e+00 0.0000000e+00 
0.0000000e+00 0.0000000e+00 0.0000000e+00 
0.0000000e+00 0.0000000e+00 0.0000000e+00 
0.0000000e+00 0.0000000e+00 0.0000000e+00 
0.0000000e+00 0.0000000e+00 0.0000000e+00 
0.0000000e+00 0.0000000e+00 0.0000000e+00 
0.0000000e+00 0.0000000e+00 0.0000000e+00 
0.0000000e+00 0.0000000e+00 0.0000000e+00 
0.0000000e+00 0.0000000e+00 0.0000000e+00 
0.0000000e+00 0.0000000e+00 0.0000000e+00 
0.0000000e+00 0.0000000e+00 0.0000000e+00 
0.0000000e+00 0.0000000e+00 0.0000000e+00 
0.0000000e+00 0.0000000e+00 0.0000000e+00 
0.0000000e+00 0.0000000e+00 0.0000000e+00 
0.0000000e+00 0.0000000e+00 0.0000000e+00 
0.0000000e+00 0.0000000e+00 0.0000000e+00 
0.0000000e+00 0.0000000e+00 0.0000000e+00 
0.0000000e+00 0.0000000e+00 0.0000000e+00 
0.0000000e+00 0.0000000e+00 0.0000000e+00 
0.0000000e+00 0.0000000e+00 0.0000000e+00 
0.0000000e+00 0.0000000e+00 0.0000000e+00 
0.0000000e+00 0.0000000e+00 0.0000000e+00 
0.0000000e+00 0.0000000e+00 0.0000000e+00 
0.0000000e+00 0.0000000e+00 0.0000000e+00 
0.0000000e+00 0.0000000e+00 0.0000000e+00 
0.0000000e+00 0.0000000e+00 0.0000000e+00 
0.0000000e+00 0.0000000e+00 0.0000000e+00 
0.0000000e+00 0.0000000e+00 0.0000000e+00 
0.0000000e+00 0.0000000e+00 0.0000000e+00 
0.0000000e+00 0.0000000e+00 0.0000000e+00 
0.0000000e+00 0.0000000e+00 0.0000000e+00 
0.0000000e+00 0.0000000e+00 0.0000000e+00 
0.0000000e+00 0.0000000e+00 0.0000000e+00 
0.0000000e+00 0.0000000e+00 0.0000000e+00 
0.0000000e+00 0.0000000e+00 0.0000000e+00 
0.0000000e+00 0.0000000e+00 0.0000000e+00 
0.0000000e+00 0.0000000e+00 0.0000000e+00 
0.0000000e+00 0.0000000e+00 0.0000000e+00 
0.0000000e+00 0.0000000e+00 0.0000000e+00 
0.0000000e+00 0.0000000e+00 0.0000000e+00 
0.0000000e+00 0.0000000e+00 0.0000000e+00 
0.0000000e+00 0.0000000e+00 0.0000000e+00 
4.5805518e-06 -1.0594838e-07 -1.7499028e-06 
9.2642958e-06 -8.3286841e-07 -7.1834990e-07 
1.2331539e-05 -1.1921427e-05 -3.4150565e-07 
1.8628298e-05 -1.2336421e-05 -4.2745646e-06 
3.1913565e-05 -1.8336770e-05 -7.7546038e-06 
3.8557777e-05 -2.7845110e-05 -8.3886982e-07 
4.0098705e-05 -2.4075227e-05 7.1949730e-06 
4.2378000e-05 -3.7071718e-06 1.7975319e-05 
3.7659160e-05 -5.6804524e-06 2.7815278e-05 
2.3723735e-05 -1.1212916e-05 2.3256554e-05 
1.2079706e-05 -1.3458008e-05 1.1509799e-05 
1.7202551e-06 -1.8712976e-06 4.7746848e-08 
-4.4691043e-07 6.0875809e-06 -7.4545314e-06 
4.9261268e-07 -3.0941248e-08 -1.3375331e-05 
-1.4142497e-06 -1.3368682e-06 -5.4895509e-06 
-3.9611250e-06 2.6098282e-06 2.8760737e-06 
-2.5020943e-06 2.9068833e-06 3.4892275e-06 
-7.2485204e-07 -7.5094408e-06 6.8833124e-06 
-7.2615508e-06 4.5351003e-06 5.9599824e-06 
-1.0969276e-05 -5.0774238e-06 -3.3588824e-06 
-1.3682258e-05 -7.0018855e-06 -1.1289043e-05 
-4.0028026e-06 -8.6147020e-06 -1.9188523e-05 
1.8203573e-05 -1.6607450e-05 -2.2964376e-05 
2.1173426e-05 -1.8867371e-05 -2.0455849e-05 
3.4089669e-05 -1.7055696e-05 -1.5631062e-05 
4.3924589e-05 -1.8966504e-05 -1.9245792e-06 
4.5043271e-05 -1.4977201e-05 1.4583612e-05 
4.1280848e-05 -1.3086091e-05 2.8851618e-05 
3.0603664e-05 -6.1361861e-06 3.3477092e-05 
1.9721443e-05 -6.8301729e-06 2.9367549e-05 
1.0876728e-05 -5.8775258e-06 1.4905035e-05 
1.5434082e-06 -5.0007097e-06 2.1697720e-06 
-1.0517770e-06 2.6547104e-06 -3.1336519e-06 
-1.4130881e-06 4.8189449e-06 -6.4453388e-06 
-5.0481873e-07 1.8710444e-06 -4.7809403e-06 
-1.0185835e-06 -2.5324161e-07 -1.8329256e-07 
-3.5087064e-07 -7.4644691e-07 2.4679857e-06 
2.5509991e-07 -5.2401225e-07 2.0094769e-06 
3.4962358e-07 -1.0035397e-07 9.3835939e-07 
3.0810475e-07 2.3811316e-07 -1.8806739e-07 
-1.2620291e-07 -1.1428191e-07 -1.9239762e-07 
-1.0431606e-07 -1.5955968e-07 -1.0924271e-07 
-1.6944933e-08 1.5471474e-07 -8.2099501e-09 
-4.6667555e-08 1.6174830e-08 1.1213675e-07 
4.4653735e-08 -1.9037304e-07 -2.2337096e-08 
2.8480537e-08 -7.1658320e-08 -6.5700952e-08 
-5.1927501e-08 1.0274593e-07 -1.8771035e-08 
-8.6283789e-09 2.5438350e-08 1.3698769e-09 
3.2977262e-08 -5.6542749e-08 3.7598227e-08 
0.0000000e+00 -7.6216369e-05 0.0000000e+00 
0.0000000e+00 -1.3201998e-04 0.0000000e+00 
0.0000000e+00 -1.9278837e-04 0.0000000e+00 
0.0000000e+00 -3.9182685e-04 0.0000000e+00 
0.0000000e+00 -4.7226244e-04 0.0000000e+00 
0.0000000e+00 -4.7345390e-04 0.0000000e+00 
0.0000000e+00 -4.2630400e-04 0.0000000e+00 
0.0000000e+00 -3.5527576e-04 0.0000000e+00 
0.0000000e+00 -2.3449572e-04 0.0000000e+00 
0.0000000e+00 -6.7815170e-05 0.0000000e+00 
0.0000000e+00 -2.4124540e-05 0.0000000e+00 
0.0000000e+00 -3.4436005e-05 0.0000000e+00 
0.0000000e+00 -1.0185546e-05 0.0000000e+00 
0.0000000e+00 7.4920290e-06 0.0000000e+00 
0.0000000e+00 1.0381793e-06 0.0000000e+00 
0.0000000e+00 1.3088152e-05 0.0000000e+00 
0.0000000e+00 -3.6259030e-07 0.0000000e+00 
0.0000000e+00 -4.7195499e-05 0.0000000e+00 
0.0000000e+00 -9.9328237e-05 0.0000000e+00 
0.0000000e+00 -1.3166609e-04 0.0000000e+00 
0.0000000e+00 -1.9100306e-04 0.0000000e+00 
0.0000000e+00 -2.8906323e-04 0.0000000e+00 
0.0000000e+00 -3.3980320e-04 0.0000000e+00 
0.0000000e+00 -4.4770731e-04 0.0000000e+00 
0.0000000e+00 -5.3402875e-04 0.0000000e+00 
0.0000000e+00 -5.3476612e-04 0.0000000e+00 
0.0000000e+00 -4.6722274e-04 0.0000000e+00 
0.0000000e+00 -3.4837553e-04 0.0000000e+00 
0.0000000e+00 -1.6433481e-04 0.0000000e+00 
0.0000000e+00 -4.9290247e-05 0.0000000e+00 
0.0000000e+00 -4.5191315e-05 0.0000000e+00 
0.0000000e+00 -2.0260339e-05 0.0000000e+00 
0.0000000e+00 -2.3092432e-06 0.0000000e+00 
0.0000000e+00 1.0692337e-05 0.0000000e+00 
0.0000000e+00 1.4610307e-05 0.0000000e+00 
0.0000000e+00 7.9356378e-06 0.0000000e+00 
0.0000000e+00 -2.2863055e-06 0.0000000e+00 
0.0000000e+00 -4.8853944e-06 0.0000000e+00 
0.0000000e+00 -1.9227796e-06 0.0000000e+00 
0.0000000e+00 1.0539380e-06 0.0000000e+00 
0.0000000e+00 1.7567260e-06 0.0000000e+00 
0.0000000e+00 3.8711633e-07 0.0000000e+00 
0.0000000e+00 -7.1309319e-07 0.0000000e+00 
0.0000000e+00 -4.2837291e-07 0.0000000e+00 
0.0000000e+00 6.3877803e-07 0.0000000e+00 
0.0000000e+00 1.1127778e-07 0.0000000e+00 
0.0000000e+00 -4.3481649e-07 0.0000000e+00 
0.0000000e+00 1.6138551e-07 0.0000000e+00 
0.0000000e+00 1.8670605e-07 0.0000000e+00 
-8.7200442e-07 -3.0600099e-06 -2.1672703e-07 
1.5392818e-06 9.1267812e-06 -3.5419484e-06 
1.1540019e-05 2.0157484e-05 -1.0852475e-05 
-5.0615854e-06 4.9441045e-05 -1.2107564e-05 
2.4149223e-08 -5.3971516e-09 2.3455758e-08 
-2.4030525e-08 1.1565685e-07 4.6681969e-08 
1.5918916e-08 1.0180099e-07 -2.9816185e-08 
1.9178437e-08 2.7280243e-09 -1.6183483e-08 
-1.8685751e-05 1.6718444e-06 8.7516099e-07 
-2.1674427e-05 2.8747993e-06 1.8568755e-06 
-1.3452229e-05 -7.0210117e-06 -4.8672234e-07 
-9.4757770e-06 -1.2237890e-05 -6.4005885e-06 
1.2819623e-05 -2.3872977e-05 -2.2318854e-06 
2.6039947e-05 -3.7599832e-05 -1.5103907e-06 
3.1741190e-05 -3.2032640e-05 2.9326116e-06 
4.1868316e-05 -4.0681766e-06 1.1149624e-05 
4.4761604e-05 -4.5192151e-06 2.5144751e-05 
3.4884761e-05 -5.6108688e-06 3.4221128e-05 
1.8447132e-05 -9.6271569e-06 1.4016122e-05 
2.8643501e-06 -1.2039355e-06 -8.6091313e-06 
-1.7154306e-06 9.2407463e-06 -1.6879481e-05 
1.8440238e-06 -1.8929920e-06 -1.3704017e-05 
-9.2160553e-06 -5.1977322e-06 -2.8759391e-06 
-1.4922874e-05 3.5536777e-06 5.5543469e-06 
-2.8026747e-05 -2.5906843e-06 1.9012785e-05 
-4.9030841e-05 -6.1249953e-06 2.1326070e-05 
-5.8205002e-05 1.2047546e-05 1.5053778e-05 