# vtk DataFile Version 4.0
vtk output
ASCII
DATASET UNSTRUCTURED_GRID
POINTS 1919 float
0.0000000e+00 0.0000000e+00 0.0000000e+00 
0.0000000e+00 0.0000000e+00 5.0000000e+01 
5.0000000e+00 0.0000000e+00 0.0000000e+00 
5.0000000e+00 0.0000000e+00 5.0000000e+01 
5.0000000e+00 1.0000000e+00 0.0000000e+00 
5.0000000e+00 1.0000000e+00 5.0000000e+01 
0.0000000e+00 1.0000000e+00 0.0000000e+00 
0.0000000e+00 1.0000000e+00 5.0000000e+01 
5.0000000e+00 2.0000000e+00 0.0000000e+00 
5.0000000e+00 2.0000000e+00 5.0000000e+01 
3.0000000e+00 2.0000000e+00 0.0000000e+00 
3.0000000e+00 2.0000000e+00 5.0000000e+01 
0.0000000e+00 2.0000000e+00 0.0000000e+00 
0.0000000e+00 2.0000000e+00 5.0000000e+01 
1.5000000e+00 3.0000000e+00 0.0000000e+00 
1.5000000e+00 3.0000000e+00 5.0000000e+01 
7.5000000e-01 3.0000000e+00 0.0000000e+00 
7.5000000e-01 3.0000000e+00 5.0000000e+01 
0.0000000e+00 3.0000000e+00 0.0000000e+00 
0.0000000e+00 3.0000000e+00 5.0000000e+01 
7.5000000e-01 3.0000000e+00 5.0000000e-01 
7.5000000e-01 3.0000000e+00 1.0000000e+00 
7.5000000e-01 3.0000000e+00 1.5000000e+00 
7.5000000e-01 3.0000000e+00 2.0000000e+00 
7.5000000e-01 3.0000000e+00 2.5000000e+00 
7.5000000e-01 3.0000000e+00 3.0000000e+00 
7.5000000e-01 3.0000000e+00 3.5000000e+00 
7.5000000e-01 3.0000000e+00 4.0000000e+00 
7.5000000e-01 3.0000000e+00 4.5000000e+00 
7.5000000e-01 3.0000000e+00 5.0000000e+00 
7.5000000e-01 3.0000000e+00 5.5000000e+00 
7.5000000e-01 3.0000000e+00 6.0000000e+00 
7.5000000e-01 3.0000000e+00 6.5000000e+00 
7.5000000e-01 3.0000000e+00 7.0000000e+00 
7.5000000e-01 3.0000000e+00 7.5000000e+00 
7.5000000e-01 3.0000000e+00 8.0000000e+00 
7.5000000e-01 3.0000000e+00 8.5000000e+00 
7.5000000e-01 3.0000000e+00 9.0000000e+00 
7.5000000e-01 3.0000000e+00 9.5000000e+00 
7.5000000e-01 3.0000000e+00 1.0000000e+01 
7.5000000e-01 3.0000000e+00 1.0500000e+01 
7.5000000e-01 3.0000000e+00 1.1000000e+01 
7.5000000e-01 3.0000000e+00 1.1500000e+01 
7.5000000e-01 3.0000000e+00 1.2000000e+01 
7.5000000e-01 3.0000000e+00 1.2500000e+01 
7.5000000e-01 3.0000000e+00 1.3000000e+01 
7.5000000e-01 3.0000000e+00 1.3500000e+01 
7.5000000e-01 3.0000000e+00 1.4000000e+01 
7.5000000e-01 3.0000000e+00 1.4500000e+01 
7.5000000e-01 3.0000000e+00 1.5000000e+01 
7.5000000e-01 3.0000000e+00 1.5500000e+01 
7.5000000e-01 3.0000000e+00 1.6000000e+01 
7.5000000e-01 3.0000000e+00 1.6500000e+01 
7.5000000e-01 3.0000000e+00 1.7000000e+01 
7.5000000e-01 3.0000000e+00 1.7500000e+01 
7.5000000e-01 3.0000000e+00 1.8000000e+01 
7.5000000e-01 3.0000000e+00 1.8500000e+01 
7.5000000e-01 3.0000000e+00 1.9000000e+01 
7.5000000e-01 3.0000000e+00 1.9500000e+01 
7.5000000e-01 3.0000000e+00 2.0000000e+01 
7.5000000e-01 3.0000000e+00 2.0500000e+01 
7.5000000e-01 3.0000000e+00 2.1000000e+01 
7.5000000e-01 3.0000000e+00 2.1500000e+01 
7.5000000e-01 3.0000000e+00 2.2000000e+01 
7.5000000e-01 3.0000000e+00 2.2500000e+01 
7.5000000e-01 3.0000000e+00 2.3000000e+01 
7.5000000e-01 3.0000000e+00 2.3500000e+01 
7.5000000e-01 3.0000000e+00 2.4000000e+01 
7.5000000e-01 3.0000000e+00 2.4500000e+01 
7.5000000e-01 3.0000000e+00 2.5000000e+01 
7.5000000e-01 3.0000000e+00 2.5500000e+01 
7.5000000e-01 3.0000000e+00 2.6000000e+01 
7.5000000e-01 3.0000000e+00 2.6500000e+01 
7.5000000e-01 3.0000000e+00 2.7000000e+01 
7.5000000e-01 3.0000000e+00 2.7500000e+01 
7.5000000e-01 3.0000000e+00 2.8000000e+01 
7.5000000e-01 3.0000000e+00 2.8500000e+01 
7.5000000e-01 3.0000000e+00 2.9000000e+01 
7.5000000e-01 3.0000000e+00 2.9500000e+01 
7.5000000e-01 3.0000000e+00 3.0000000e+01 
7.5000000e-01 3.0000000e+00 3.0500000e+01 
7.5000000e-01 3.0000000e+00 3.1000000e+01 
7.5000000e-01 3.0000000e+00 3.1500000e+01 
7.5000000e-01 3.0000000e+00 3.2000000e+01 
7.5000000e-01 3.0000000e+00 3.2500000e+01 
7.5000000e-01 3.0000000e+00 3.3000000e+01 
7.5000000e-01 3.0000000e+00 3.3500000e+01 
7.5000000e-01 3.0000000e+00 3.4000000e+01 
7.5000000e-01 3.0000000e+00 3.4500000e+01 
7.5000000e-01 3.0000000e+00 3.5000000e+01 
7.5000000e-01 3.0000000e+00 3.5500000e+01 
7.5000000e-01 3.0000000e+00 3.6000000e+01 
7.5000000e-01 3.0000000e+00 3.6500000e+01 
7.5000000e-01 3.0000000e+00 3.7000000e+01 
7.5000000e-01 3.0000000e+00 3.7500000e+01 
7.5000000e-01 3.0000000e+00 3.8000000e+01 
7.5000000e-01 3.0000000e+00 3.8500000e+01 
7.5000000e-01 3.0000000e+00 3.9000000e+01 
7.5000000e-01 3.0000000e+00 3.9500000e+01 
7.5000000e-01 3.0000000e+00 4.0000000e+01 
7.5000000e-01 3.0000000e+00 4.0500000e+01 
7.5000000e-01 3.0000000e+00 4.1000000e+01 
7.5000000e-01 3.0000000e+00 4.1500000e+01 
7.5000000e-01 3.0000000e+00 4.2000000e+01 
7.5000000e-01 3.0000000e+00 4.2500000e+01 
7.5000000e-01 3.0000000e+00 4.3000000e+01 
7.5000000e-01 3.0000000e+00 4.3500000e+01 
7.5000000e-01 3.0000000e+00 4.4000000e+01 
7.5000000e-01 3.0000000e+00 4.4500000e+01 
7.5000000e-01 3.0000000e+00 4.5000000e+01 
7.5000000e-01 3.0000000e+00 4.5500000e+01 
7.5000000e-01 3.0000000e+00 4.6000000e+01 
7.5000000e-01 3.0000000e+00 4.6500000e+01 
7.5000000e-01 3.0000000e+00 4.7000000e+01 
7.5000000e-01 3.0000000e+00 4.7500000e+01 
7.5000000e-01 3.0000000e+00 4.8000000e+01 
7.5000000e-01 3.0000000e+00 4.8500000e+01 
7.5000000e-01 3.0000000e+00 4.9000000e+01 
7.5000000e-01 3.0000000e+00 4.9500000e+01 
7.5000000e-01 3.0250001e+00 0.0000000e+00 
7.5000000e-01 3.0250001e+00 5.0000000e-01 
7.5000000e-01 3.0250001e+00 1.0000000e+00 
7.5000000e-01 3.0250001e+00 1.5000000e+00 
7.5000000e-01 3.0250001e+00 2.0000000e+00 
7.5000000e-01 3.0250001e+00 2.5000000e+00 
7.5000000e-01 3.0250001e+00 3.0000000e+00 
7.5000000e-01 3.0250001e+00 3.5000000e+00 
7.5000000e-01 3.0250001e+00 4.0000000e+00 
7.5000000e-01 3.0250001e+00 4.5000000e+00 
7.5000000e-01 3.0250001e+00 5.0000000e+00 
7.5000000e-01 3.0250001e+00 5.5000000e+00 
7.5000000e-01 3.0250001e+00 6.0000000e+00 
7.5000000e-01 3.0250001e+00 6.5000000e+00 
7.5000000e-01 3.0250001e+00 7.0000000e+00 
7.5000000e-01 3.0250001e+00 7.5000000e+00 
7.5000000e-01 3.0250001e+00 8.0000000e+00 
7.5000000e-01 3.0250001e+00 8.5000000e+00 
7.5000000e-01 3.0250001e+00 9.0000000e+00 
7.5000000e-01 3.0250001e+00 9.5000000e+00 
7.5000000e-01 3.0250001e+00 1.0000000e+01 
7.5000000e-01 3.0250001e+00 1.0500000e+01 
7.5000000e-01 3.0250001e+00 1.1000000e+01 
7.5000000e-01 3.0250001e+00 1.1500000e+01 
7.5000000e-01 3.0250001e+00 1.2000000e+01 
7.5000000e-01 3.0250001e+00 1.2500000e+01 
7.5000000e-01 3.0250001e+00 1.3000000e+01 
7.5000000e-01 3.0250001e+00 1.3500000e+01 
7.5000000e-01 3.0250001e+00 1.4000000e+01 
7.5000000e-01 3.0250001e+00 1.4500000e+01 
7.5000000e-01 3.0250001e+00 1.5000000e+01 
7.5000000e-01 3.0250001e+00 1.5500000e+01 
7.5000000e-01 3.0250001e+00 1.6000000e+01 
7.5000000e-01 3.0250001e+00 1.6500000e+01 
7.5000000e-01 3.0250001e+00 1.7000000e+01 
7.5000000e-01 3.0250001e+00 1.7500000e+01 
7.5000000e-01 3.0250001e+00 1.8000000e+01 
7.5000000e-01 3.0250001e+00 1.8500000e+01 
7.5000000e-01 3.0250001e+00 1.9000000e+01 
7.5000000e-01 3.0250001e+00 1.9500000e+01 
7.5000000e-01 3.0250001e+00 2.0000000e+01 
7.5000000e-01 3.0250001e+00 2.0500000e+01 
7.5000000e-01 3.0250001e+00 2.1000000e+01 
7.5000000e-01 3.0250001e+00 2.1500000e+01 
7.5000000e-01 3.0250001e+00 2.2000000e+01 
7.5000000e-01 3.0250001e+00 2.2500000e+01 
7.5000000e-01 3.0250001e+00 2.3000000e+01 
7.5000000e-01 3.0250001e+00 2.3500000e+01 
7.5000000e-01 3.0250001e+00 2.4000000e+01 
7.5000000e-01 3.0250001e+00 2.4500000e+01 
7.5000000e-01 3.0250001e+00 2.5000000e+01 
7.5000000e-01 3.0250001e+00 2.5500000e+01 
7.5000000e-01 3.0250001e+00 2.6000000e+01 
7.5000000e-01 3.0250001e+00 2.6500000e+01 
7.5000000e-01 3.0250001e+00 2.7000000e+01 
7.5000000e-01 3.0250001e+00 2.7500000e+01 
7.5000000e-01 3.0250001e+00 2.8000000e+01 
7.5000000e-01 3.0250001e+00 2.8500000e+01 
7.5000000e-01 3.0250001e+00 2.9000000e+01 
7.5000000e-01 3.0250001e+00 2.9500000e+01 
7.5000000e-01 3.0250001e+00 3.0000000e+01 
7.5000000e-01 3.0250001e+00 3.0500000e+01 
7.5000000e-01 3.0250001e+00 3.1000000e+01 
7.5000000e-01 3.0250001e+00 3.1500000e+01 
7.5000000e-01 3.0250001e+00 3.2000000e+01 
7.5000000e-01 3.0250001e+00 3.2500000e+01 
7.5000000e-01 3.0250001e+00 3.3000000e+01 
7.5000000e-01 3.0250001e+00 3.3500000e+01 
7.5000000e-01 3.0250001e+00 3.4000000e+01 
7.5000000e-01 3.0250001e+00 3.4500000e+01 
7.5000000e-01 3.0250001e+00 3.5000000e+01 
7.5000000e-01 3.0250001e+00 3.5500000e+01 
7.5000000e-01 3.0250001e+00 3.6000000e+01 
7.5000000e-01 3.0250001e+00 3.6500000e+01 
7.5000000e-01 3.0250001e+00 3.7000000e+01 
7.5000000e-01 3.0250001e+00 3.7500000e+01 
7.5000000e-01 3.0250001e+00 3.8000000e+01 
7.5000000e-01 3.0250001e+00 3.8500000e+01 
7.5000000e-01 3.0250001e+00 3.9000000e+01 
7.5000000e-01 3.0250001e+00 3.9500000e+01 
7.5000000e-01 3.0250001e+00 4.0000000e+01 
7.5000000e-01 3.0250001e+00 4.0500000e+01 
7.5000000e-01 3.0250001e+00 4.1000000e+01 
7.5000000e-01 3.0250001e+00 4.1500000e+01 
7.5000000e-01 3.0250001e+00 4.2000000e+01 
7.5000000e-01 3.0250001e+00 4.2500000e+01 
7.5000000e-01 3.0250001e+00 4.3000000e+01 
7.5000000e-01 3.0250001e+00 4.3500000e+01 
7.5000000e-01 3.0250001e+00 4.4000000e+01 
7.5000000e-01 3.0250001e+00 4.4500000e+01 
7.5000000e-01 3.0250001e+00 4.5000000e+01 
7.5000000e-01 3.0250001e+00 4.5500000e+01 
7.5000000e-01 3.0250001e+00 4.6000000e+01 
7.5000000e-01 3.0250001e+00 4.6500000e+01 
7.5000000e-01 3.0250001e+00 4.7000000e+01 
7.5000000e-01 3.0250001e+00 4.7500000e+01 
7.5000000e-01 3.0250001e+00 4.8000000e+01 
7.5000000e-01 3.0250001e+00 4.8500000e+01 
7.5000000e-01 3.0250001e+00 4.9000000e+01 
7.5000000e-01 3.0250001e+00 4.9500000e+01 
7.5000000e-01 3.0250001e+00 5.0000000e+01 
3.0000000e+00 2.0000000e+00 3.6000000e+01 
8.0487806e-01 3.0000000e+00 3.6000000e+01 
0.0000000e+00 0.0000000e+00 1.0000000e+00 
0.0000000e+00 0.0000000e+00 2.0000000e+00 
0.0000000e+00 0.0000000e+00 3.0000000e+00 
0.0000000e+00 0.0000000e+00 4.0000000e+00 
0.0000000e+00 0.0000000e+00 5.0000000e+00 
0.0000000e+00 0.0000000e+00 6.0000000e+00 
0.0000000e+00 0.0000000e+00 7.0000000e+00 
0.0000000e+00 0.0000000e+00 8.0000000e+00 
[...]
POINT_DATA 1919
FIELD FieldData 3
DISPLACEMENT 3 1919  float
0.0000000e+00 0.0000000e+00 0.0000000e+00 
0.0000000e+00 0.0000000e+00 0.0000000e+00 
0.0000000e+00 0.0000000e+00 0.0000000e+00 
0.0000000e+00 0.0000000e+00 0.0000000e+00 
-9.7029726e-07 3.1564130e-07 2.2927593e-06 
-9.5682054e-08 2.5009442e-07 -2.5461574e-07 
0.0000000e+00 6.7375313e-06 0.0000000e+00 
0.0000000e+00 -2.9005714e-06 0.0000000e+00 
1.8743634e-06 -5.9445047e-06 -1.3121277e-06 
-1.2066754e-06 4.8842634e-07 -9.2964729e-07 
-1.4811098e-06 -6.3403451e-07 -2.7763674e-06 
-1.5148819e-06 -1.6783230e-06 -3.6259098e-06 
0.0000000e+00 3.0752006e-05 0.0000000e+00 
0.0000000e+00 -2.8446041e-06 0.0000000e+00 
3.2812077e-05 3.0168192e-05 -4.1121621e-05 
-5.8428877e-06 -4.5441820e-06 -3.5273028e-05 
1.6221204e-05 1.0549647e-04 -1.5104378e-05 
2.5433106e-05 -7.1037502e-05 -2.7202492e-05 
0.0000000e+00 5.8043101e-05 0.0000000e+00 
0.0000000e+00 1.0007769e-05 0.0000000e+00 
1.6347201e-05 1.1199566e-04 -2.4925834e-05 
1.6395699e-05 1.2462949e-04 -2.7166734e-05 
2.2393599e-05 1.3009038e-04 -1.6315596e-05 
2.6955940e-05 1.2282774e-04 1.5726857e-06 
1.8371442e-05 1.0936100e-04 9.9809731e-06 
1.7971093e-05 1.0611138e-04 1.8274031e-05 
2.1916278e-05 1.2346248e-04 9.5439345e-06 
3.1756779e-05 1.5239493e-04 -1.6224176e-06 
4.3112876e-05 1.7479819e-04 -9.4938478e-06 
5.6588084e-05 1.7845498e-04 -6.9206967e-06 
4.5188230e-05 1.6801542e-04 2.1068513e-07 
3.3407112e-05 1.6053060e-04 2.0816518e-05 
1.7825610e-05 1.6981180e-04 1.6334914e-05 
3.6500609e-05 1.9254617e-04 6.7781648e-06 
4.5016077e-05 2.0776417e-04 1.1367834e-05 
3.9973456e-05 1.9520012e-04 1.2381592e-05 
3.1569572e-05 1.5386763e-04 1.3705457e-05 
1.2860803e-05 1.0821172e-04 2.8068256e-05 
1.6895177e-05 8.9119385e-05 3.7959140e-05 
2.0481768e-05 1.1377494e-04 4.1421172e-05 
5.3687099e-06 1.5969132e-04 5.3852957e-05 
-1.0065292e-05 1.6618858e-04 7.2309747e-05 
-1.5042852e-05 7.9495549e-05 9.2824455e-05 
-3.4811324e-05 -1.3195473e-04 9.2105351e-05 
-3.2717784e-05 -4.8525332e-04 1.4154657e-04 
-5.9601447e-05 -1.0092574e-03 1.1749818e-04 
-7.0788563e-05 -1.7742043e-03 2.4957079e-04 
-1.1448452e-04 -2.7917067e-03 1.0826117e-04 
-1.6507228e-04 -3.9280513e-03 1.8811483e-04 
-2.0270968e-04 -4.7106538e-03 3.7294434e-05 
-2.1942616e-04 -4.6949438e-03 -5.5736308e-07 
-2.0358191e-04 -4.3935417e-03 -3.7805443e-05 
-1.8134159e-04 -4.3202806e-03 -1.1139848e-05 
-2.0526475e-04 -4.4798544e-03 -8.3373496e-05 
-2.5380027e-04 -4.4568763e-03 -1.2178185e-04 
-2.1915497e-04 -3.6448308e-03 -1.1272017e-04 
-1.7780687e-04 -2.5117618e-03 -2.4956680e-04 
-1.1808950e-04 -1.4776241e-03 -1.8011082e-04 
-7.7391611e-05 -7.3088758e-04 -2.3198884e-04 
-3.7841924e-05 -2.6756569e-04 -1.5023444e-04 
-3.1745947e-07 -1.2965442e-05 -1.3700279e-04 
2.5632735e-05 1.1371777e-04 -9.3170929e-05 
4.2188520e-05 1.6589624e-04 -7.0848502e-05 
3.6548805e-05 1.7065997e-04 -4.8788024e-05 
2.8681463e-05 1.5161060e-04 -3.4734792e-05 
2.3882192e-05 1.3476044e-04 -1.5071887e-05 
1.1666299e-05 1.3966537e-04 -2.2670001e-06 
2.7702526e-05 1.7090363e-04 -4.6997624e-07 
2.9264234e-05 2.1670669e-04 -1.2690144e-05 
5.5337016e-05 2.5926094e-04 -1.4169883e-05 
7.9206700e-05 2.8760781e-04 -1.4084648e-05 
8.2065410e-05 3.0009818e-04 1.1957073e-05 
7.4035604e-05 3.0471475e-04 4.5142089e-05 
5.9245598e-05 3.1165764e-04 6.9873546e-05 
4.8937327e-05 3.1204947e-04 9.1728922e-05 
3.4771874e-05 2.9264347e-04 8.2333070e-05 
3.0282819e-05 2.4593630e-04 7.4172145e-05 
2.9736246e-05 1.8102773e-04 6.0734917e-05 
3.4119646e-05 1.3034377e-04 4.4823646e-05 
2.7686332e-05 1.2548160e-04 4.7881105e-05 
2.5822070e-05 1.6897818e-04 7.8681798e-05 
1.9039331e-05 2.1454410e-04 1.0292848e-04 
2.3835057e-05 1.7292010e-04 1.6300092e-04 
4.9774235e-06 -5.4517961e-05 1.7284173e-04 
-3.2769971e-05 -5.1733153e-04 2.1609395e-04 
-9.6984928e-05 -1.2148872e-03 1.7227864e-04 
-1.5045011e-04 -2.1481023e-03 2.5858881e-04 
-2.2792375e-04 -3.2523167e-03 8.8077533e-05 
-2.5466175e-04 -4.3644402e-03 1.1145644e-04 
-1.3706532e-05 -5.0486950e-03 1.1264314e-04 
-2.3419647e-04 -4.9929391e-03 1.2844025e-04 
-2.5477869e-04 -4.7906898e-03 2.7566868e-05 
-3.0233004e-04 -4.8144888e-03 -1.0352816e-05 
-2.2122983e-04 -4.9206843e-03 -1.4997370e-04 
-3.3476428e-04 -4.6770503e-03 -2.8622212e-04 
-2.3429070e-04 -3.6524751e-03 -2.4705360e-04 
-1.6134420e-04 -2.3969752e-03 -3.6092629e-04 
-1.0148362e-04 -1.3213955e-03 -2.3347016e-04 
-4.8221420e-05 -5.8401999e-04 -2.3472424e-04 
-1.9161558e-05 -1.5429952e-04 -1.2938493e-04 
8.9280193e-06 5.0323841e-05 -8.8476940e-05 
1.3818893e-05 1.1012581e-04 -2.9051358e-05 
1.5596132e-05 8.8439068e-05 5.6690910e-06 
7.4838613e-06 3.5040928e-05 1.7209539e-05 
-2.1441085e-06 -1.0695245e-05 2.7043656e-05 
2.2896525e-06 -3.1345386e-05 2.1294991e-05 
9.9125373e-06 -2.5838584e-05 2.7476082e-05 
1.6410104e-05 -5.2492987e-06 4.4627406e-05 
1.6061185e-05 2.0306101e-05 4.2413933e-05 
1.1082691e-05 4.4813929e-05 3.4087760e-05 
2.1156286e-07 6.4920212e-05 1.5470094e-05 
7.7310034e-07 7.5833297e-05 2.3557593e-06 
2.9529333e-06 7.2188283e-05 -4.7236367e-07 
-1.6921482e-06 5.3531214e-05 3.1661348e-06 
-3.2972428e-06 2.4385790e-05 1.0777014e-05 
-9.4725156e-06 -7.2929365e-06 4.0575965e-06 
-1.6383507e-05 -3.4892499e-05 -9.9578228e-06 
-1.3544945e-05 -5.5312448e-05 -3.1530570e-05 
-4.6406162e-06 -6.7230067e-05 -4.2663807e-05 
0.0000000e+00 1.0591901e-04 0.0000000e+00 
0.0000000e+00 1.1228056e-04 0.0000000e+00 
0.0000000e+00 1.2433149e-04 0.0000000e+00 
0.0000000e+00 1.2957287e-04 0.0000000e+00 
0.0000000e+00 1.2238121e-04 0.0000000e+00 
0.0000000e+00 1.0962647e-04 0.0000000e+00 
0.0000000e+00 1.0701764e-04 0.0000000e+00 
0.0000000e+00 1.2399814e-04 0.0000000e+00 
0.0000000e+00 1.5230621e-04 0.0000000e+00 
0.0000000e+00 1.7416880e-04 0.0000000e+00 
0.0000000e+00 1.7789518e-04 0.0000000e+00 
0.0000000e+00 1.6801263e-04 0.0000000e+00 
0.0000000e+00 1.6126029e-04 0.0000000e+00 
0.0000000e+00 1.7084218e-04 0.0000000e+00 
0.0000000e+00 1.9283066e-04 0.0000000e+00 
0.0000000e+00 2.0712859e-04 0.0000000e+00 
0.0000000e+00 1.9410724e-04 0.0000000e+00 
0.0000000e+00 1.5326799e-04 0.0000000e+00 
0.0000000e+00 1.0838711e-04 0.0000000e+00 
0.0000000e+00 9.0818234e-05 0.0000000e+00 
0.0000000e+00 1.1597514e-04 0.0000000e+00 
0.0000000e+00 1.6031900e-04 0.0000000e+00 
0.0000000e+00 1.6575799e-04 0.0000000e+00 
0.0000000e+00 7.8187251e-05 0.0000000e+00 
0.0000000e+00 -1.3234494e-04 0.0000000e+00 
0.0000000e+00 -4.8368998e-04 0.0000000e+00 
0.0000000e+00 -1.0118486e-03 0.0000000e+00 
0.0000000e+00 -1.7811649e-03 0.0000000e+00 
0.0000000e+00 -2.8092635e-03 0.0000000e+00 
0.0000000e+00 -3.9497684e-03 0.0000000e+00 
0.0000000e+00 -4.7415090e-03 0.0000000e+00 
0.0000000e+00 -4.7161696e-03 0.0000000e+00 
0.0000000e+00 -4.4194059e-03 0.0000000e+00 
0.0000000e+00 -4.3423418e-03 0.0000000e+00 
0.0000000e+00 -4.5102458e-03 0.0000000e+00 
0.0000000e+00 -4.4794623e-03 0.0000000e+00 
0.0000000e+00 -3.6669881e-03 0.0000000e+00 
0.0000000e+00 -2.5241578e-03 0.0000000e+00 
0.0000000e+00 -1.4868478e-03 0.0000000e+00 
0.0000000e+00 -7.3387421e-04 0.0000000e+00 
0.0000000e+00 -2.6726790e-04 0.0000000e+00 
0.0000000e+00 -1.1409206e-05 0.0000000e+00 
0.0000000e+00 1.1497875e-04 0.0000000e+00 
0.0000000e+00 1.6612301e-04 0.0000000e+00 
0.0000000e+00 1.7072729e-04 0.0000000e+00 
0.0000000e+00 1.5198276e-04 0.0000000e+00 
0.0000000e+00 1.3538123e-04 0.0000000e+00 
0.0000000e+00 1.4037528e-04 0.0000000e+00 
0.0000000e+00 1.7127959e-04 0.0000000e+00 
0.0000000e+00 2.1676063e-04 0.0000000e+00 
0.0000000e+00 2.5922948e-04 0.0000000e+00 
0.0000000e+00 2.8709177e-04 0.0000000e+00 
0.0000000e+00 2.9959067e-04 0.0000000e+00 
0.0000000e+00 3.0537366e-04 0.0000000e+00 
0.0000000e+00 3.1210075e-04 0.0000000e+00 
0.0000000e+00 3.1240066e-04 0.0000000e+00 
0.0000000e+00 2.9234719e-04 0.0000000e+00 
0.0000000e+00 2.4481214e-04 0.0000000e+00 
0.0000000e+00 1.8069650e-04 0.0000000e+00 
0.0000000e+00 1.3120755e-04 0.0000000e+00 
0.0000000e+00 1.2761190e-04 0.0000000e+00 
0.0000000e+00 1.7167517e-04 0.0000000e+00 
0.0000000e+00 2.1608945e-04 0.0000000e+00 
0.0000000e+00 1.7108169e-04 0.0000000e+00 
0.0000000e+00 -5.7417321e-05 0.0000000e+00 
0.0000000e+00 -5.1864563e-04 0.0000000e+00 
0.0000000e+00 -1.2189399e-03 0.0000000e+00 
0.0000000e+00 -2.1530925e-03 0.0000000e+00 
0.0000000e+00 -3.2708375e-03 0.0000000e+00 
0.0000000e+00 -4.3912334e-03 0.0000000e+00 
0.0000000e+00 -5.0702011e-03 0.0000000e+00 
0.0000000e+00 -5.0213425e-03 0.0000000e+00 
0.0000000e+00 -4.8174416e-03 0.0000000e+00 
0.0000000e+00 -4.8339772e-03 0.0000000e+00 
0.0000000e+00 -4.9542901e-03 0.0000000e+00 
0.0000000e+00 -4.6974551e-03 0.0000000e+00 
0.0000000e+00 -3.6758429e-03 0.0000000e+00 
0.0000000e+00 -2.4098819e-03 0.0000000e+00 
0.0000000e+00 -1.3297683e-03 0.0000000e+00 
0.0000000e+00 -5.8593549e-04 0.0000000e+00 
0.0000000e+00 -1.5394771e-04 0.0000000e+00 
0.0000000e+00 5.1069113e-05 0.0000000e+00 
0.0000000e+00 1.1084979e-04 0.0000000e+00 
0.0000000e+00 8.9180176e-05 0.0000000e+00 
0.0000000e+00 3.6266356e-05 0.0000000e+00 
0.0000000e+00 -9.9209319e-06 0.0000000e+00 
0.0000000e+00 -3.0888739e-05 0.0000000e+00 
0.0000000e+00 -2.5952178e-05 0.0000000e+00 
0.0000000e+00 -5.4322686e-06 0.0000000e+00 
0.0000000e+00 2.0238575e-05 0.0000000e+00 
0.0000000e+00 4.4879413e-05 0.0000000e+00 
0.0000000e+00 6.4881584e-05 0.0000000e+00 
0.0000000e+00 7.5555581e-05 0.0000000e+00 
0.0000000e+00 7.1992996e-05 0.0000000e+00 
0.0000000e+00 5.3454783e-05 0.0000000e+00 
0.0000000e+00 2.4500843e-05 0.0000000e+00 
0.0000000e+00 -7.1206182e-06 0.0000000e+00 
0.0000000e+00 -3.4830908e-05 0.0000000e+00 
0.0000000e+00 -5.5257387e-05 0.0000000e+00 
0.0000000e+00 -6.7252768e-05 0.0000000e+00 
0.0000000e+00 -7.1095194e-05 0.0000000e+00 
6.3189276e-05 -7.0545808e-05 -1.2353665e-05 
-2.7717699e-04 -4.3971688e-03 2.5254798e-05 
0.0000000e+00 0.0000000e+00 0.0000000e+00 
0.0000000e+00 0.0000000e+00 0.0000000e+00 
0.0000000e+00 0.0000000e+00 0.0000000e+00 
0.0000000e+00 0.0000000e+00 0.0000000e+00 
0.0000000e+00 0.0000000e+00 0.0000000e+00 
0.0000000e+00 0.0000000e+00 0.0000000e+00 
0.0000000e+00 0.0000000e+00 0.0000000e+00 
0.0000000e+00 0.0000000e+00 0.0000000e+00 
0.0000000e+00 0.0000000e+00 0.0000000e+00 
0.0000000e+00 0.0000000e+00 0.0000000e+00 
0.0000000e+00 0.0000000e+00 0.0000000e+00 
0.0000000e+00 0.0000000e+00 0.0000000e+00 
0.0000000e+00 0.0000000e+00 0.0000000e+00 
0.0000000e+00 0.0000000e+00 0.0000000e+00 
0.0000000e+00 0.0000000e+00 0.0000000e+00 
0.0000000e+00 0.0000000e+00 0.0000000e+00 
0.0000000e+00 0.0000000e+00 0.0000000e+00 
0.0000000e+00 0.0000000e+00 0.0000000e+00 
0.0000000e+00 0.0000000e+00 0.0000000e+00 
0.0000000e+00 0.0000000e+00 0.0000000e+00 
0.0000000e+00 0.0000000e+00 0.0000000e+00 
0.0000000e+00 0.0000000e+00 0.0000000e+00 
0.0000000e+00 0.0000000e+00 0.0000000e+00 
0.0000000e+00 0.0000000e+00 0.0000000e+00 
0.0000000e+00 0.0000000e+00 0.0000000e+00 
0.0000000e+00 0.0000000e+00 0.0000000e+00 
0.0000000e+00 0.0000000e+00 0.0000000e+00 
0.0000000e+00 0.0000000e+00 0.0000000e+00 
0.0000000e+00 0.0000000e+00 0.0000000e+00 
0.0000000e+00 0.0000000e+00 0.0000000e+00 
0.0000000e+00 0.0000000e+00 0.0000000e+00 
0.0000000e+00 0.0000000e+00 0.0000000e+00 
0.0000000e+00 0.0000000e+00 0.0000000e+00 
0.0000000e+00 0.0000000e+00 0.0000000e+00 
0.0000000e+00 0.0000000e+00 0.0000000e+00 
0.0000000e+00 0.0000000e+00 0.0000000e+00 
0.0000000e+00 0.0000000e+00 0.0000000e+00 
0.0000000e+00 0.0000000e+00 0.0000000e+00 
0.0000000e+00 0.0000000e+00 0.0000000e+00 
0.0000000e+00 0.0000000e+00 0.0000000e+00 
0.0000000e+00 0.0000000e+00 0.0000000e+00 
0.0000000e+00 0.0000000e+00 0.0000000e+00 
0.0000000e+00 0.0000000e+00 0.0000000e+00 
0.0000000e+00 0.0000000e+00 0.0000000e+00 
0.0000000e+00 0.0000000e+00 0.0000000e+00 
0.0000000e+00 0.0000000e+00 0.0000000e+00 
0.0000000e+00 0.0000000e+00 0.0000000e+00 
0.0000000e+00 0.0000000e+00 0.0000000e+00 
0.0000000e+00 0.0000000e+00 0.0000000e+00 
0.0000000e+00 0.0000000e+00 0.0000000e+00 
0.0000000e+00 0.0000000e+00 0.0000000e+00 
0.0000000e+00 0.0000000e+00 0.0000000e+00 
0.0000000e+00 0.0000000e+00 0.0000000e+00 
0.0000000e+00 0.0000000e+00 0.0000000e+00 
0.0000000e+00 0.0000000e+00 0.0000000e+00 
0.0000000e+00 0.0000000e+00 0.0000000e+00 
0.0000000e+00 0.0000000e+00 0.0000000e+00 
0.0000000e+00 0.0000000e+00 0.0000000e+00 
0.0000000e+00 0.0000000e+00 0.0000000e+00 
0.0000000e+00 0.0000000e+00 0.0000000e+00 
0.0000000e+00 0.0000000e+00 0.0000000e+00 
0.0000000e+00 0.0000000e+00 0.0000000e+00 
0.0000000e+00 0.0000000e+00 0.0000000e+00 
0.0000000e+00 0.0000000e+00 0.0000000e+00 
0.0000000e+00 0.0000000e+00 0.0000000e+00 
0.0000000e+00 0.0000000e+00 0.0000000e+00 
0.0000000e+00 0.0000000e+00 0.0000000e+00 
0.0000000e+00 0.0000000e+00 0.0000000e+00 
0.0000000e+00 0.0000000e+00 0.0000000e+00 
0.0000000e+00 0.0000000e+00 0.0000000e+00 
0.0000000e+00 0.0000000e+00 0.0000000e+00 
0.0000000e+00 0.0000000e+00 0.0000000e+00 
0.0000000e+00 0.0000000e+00 0.0000000e+00 
0.0000000e+00 0.0000000e+00 0.0000000e+00 
0.0000000e+00 0.0000000e+00 0.0000000e+00 
0.0000000e+00 0.0000000e+00 0.0000000e+00 
0.0000000e+00 0.0000000e+00 0.0000000e+00 
0.0000000e+00 0.0000000e+00 0.0000000e+00 
0.0000000e+00 0.0000000e+00 0.0000000e+00 
0.0000000e+00 0.0000000e+00 0.0000000e+00 
0.0000000e+00 0.0000000e+00 0.0000000e+00 
0.0000000e+00 0.0000000e+00 0.0000000e+00 
0.0000000e+00 0.0000000e+00 0.0000000e+00 
0.0000000e+00 0.0000000e+00 0.0000000e+00 
0.0000000e+00 0.0000000e+00 0.0000000e+00 
0.0000000e+00 0.0000000e+00 0.0000000e+00 
0.0000000e+00 0.0000000e+00 0.0000000e+00 
0.0000000e+00 0.0000000e+00 0.0000000e+00 
0.0000000e+00 0.0000000e+00 0.0000000e+00 
0.0000000e+00 0.0000000e+00 0.0000000e+00 
0.0000000e+00 0.0000000e+00 0.0000000e+00 
0.0000000e+00 0.0000000e+00 0.0000000e+00 
0.0000000e+00 0.0000000e+00 0.0000000e+00 
0.0000000e+00 0.0000000e+00 0.0000000e+00 
0.0000000e+00 0.0000000e+00 0.0000000e+00 
0.0000000e+00 0.0000000e+00 0.0000000e+00 
0.0000000e+00 0.0000000e+00 0.0000000e+00 
0.0000000e+00 0.0000000e+00 0.0000000e+00 
0.0000000e+00 0.0000000e+00 0.0000000e+00 
0.0000000e+00 0.0000000e+00 0.0000000e+00 
0.0000000e+00 0.0000000e+00 0.0000000e+00 
0.0000000e+00 0.0000000e+00 0.0000000e+00 
0.0000000e+00 0.0000000e+00 0.0000000e+00 
0.0000000e+00 0.0000000e+00 0.0000000e+00 
0.0000000e+00 0.0000000e+00 0.0000000e+00 
0.0000000e+00 0.0000000e+00 0.0000000e+00 
-1.7915844e-06 -9.4358342e-07 -4.3499007e-08 
-9.3425433e-07 7.3302914e-07 -1.8539217e-06 
-2.6820799e-06 1.7567598e-06 8.4431895e-07 
-4.8327479e-06 6.6624779e-07 -9.8920202e-07 
3.3559488e-07 -2.8210336e-06 -9.1841338e-07 
-2.4191633e-07 2.1247772e-06 1.7268511e-06 
1.5820970e-06 -5.3093021e-07 -8.1640673e-07 
3.9438478e-06 -8.4459607e-06 -4.4345502e-06 
4.3464074e-06 -4.0458804e-06 -1.1282333e-05 
1.0598970e-05 1.2517471e-06 -1.0966213e-05 
1.2343549e-05 -1.1994134e-05 -1.1972150e-05 
2.2858596e-05 -1.2248485e-05 -1.6813226e-05 
2.9446002e-05 -7.3941874e-06 -1.9394627e-05 
3.4708733e-05 -1.6544676e-05 -1.7576478e-05 
4.4978340e-05 -1.0205359e-05 -1.2351265e-05 
4.4605156e-05 -1.0940822e-05 -3.3943325e-06 
3.7099071e-05 -8.9408040e-06 9.0505619e-06 
2.6472911e-05 -1.0765823e-05 1.4289147e-05 
1.8227762e-05 -8.7726512e-06 9.9062281e-06 
7.6354190e-06 -4.7945896e-06 1.1222520e-05 
2.7481656e-06 -2.4478184e-06 9.3506442e-06 
7.2120054e-07 6.3551465e-07 7.6966544e-06 
-4.0400023e-06 4.5255606e-06 1.4244676e-05 
-6.2056192e-06 1.5606965e-06 1.2757711e-05 
-7.1898276e-06 -7.3338043e-07 4.9619975e-06 
-5.2302321e-06 -3.1366568e-07 3.7188206e-06 
-3.6159520e-07 -1.4153053e-07 -1.7501301e-06 
-1.5139991e-06 -1.6035391e-06 -2.1594278e-06 
1.6383628e-06 -1.0806764e-05 -6.4066257e-06 
8.7079625e-06 -3.8210892e-06 -1.0363774e-05 
1.8447185e-05 -9.2582213e-06 -1.5773401e-05 
3.2844506e-05 -1.3780166e-05 -1.6951730e-05 
3.6684392e-05 -9.5749219e-06 -1.7385541e-05 
3.9274455e-05 -1.1312755e-05 -1.2297305e-05 
4.4012038e-05 -1.7425406e-05 -1.1313872e-05 
4.4850723e-05 -1.2608648e-05 -6.4360806e-06 
3.7860565e-05 -1.1197300e-05 1.8534986e-06 
3.4188310e-05 -1.1475544e-05 5.8134469e-06 
2.4859437e-05 -7.4850823e-06 9.2571563e-06 
1.2118076e-05 -2.7079498e-06 1.0807702e-05 
7.5475405e-06 -3.3215892e-06 9.9407107e-06 
4.3900650e-06 -1.8307430e-06 1.0182969e-05 
3.0983110e-06 -9.6488532e-07 1.0095731e-05 
2.1191843e-06 -6.2761620e-07 7.4752397e-06 
1.1025029e-06 -7.1831823e-07 3.7129155e-06 
2.6734114e-07 -2.9673987e-07 1.0924640e-06 
-1.7212517e-07 -4.9448550e-07 -1.2687181e-06 
-1.8760110e-07 1.1894564e-07 -1.3116260e-06 
2.4272725e-07 3.8485328e-07 -8.3843304e-07 
0.0000000e+00 2.1030533e-05 0.0000000e+00 
0.0000000e+00 1.1762302e-05 0.0000000e+00 
0.0000000e+00 -3.7140430e-07 0.0000000e+00 
0.0000000e+00 -3.5920607e-06 0.0000000e+00 
0.0000000e+00 -8.2836659e-06 0.0000000e+00 
0.0000000e+00 -1.3974069e-05 0.0000000e+00 
0.0000000e+00 1.5198883e-05 0.0000000e+00 
0.0000000e+00 2.8954611e-05 0.0000000e+00 
0.0000000e+00 2.1941774e-05 0.0000000e+00 
0.0000000e+00 4.7803649e-05 0.0000000e+00 
0.0000000e+00 4.5717134e-05 0.0000000e+00 
0.0000000e+00 -6.5614258e-05 0.0000000e+00 
0.0000000e+00 -1.7924738e-04 0.0000000e+00 
0.0000000e+00 -3.4150458e-04 0.0000000e+00 
0.0000000e+00 -5.2325771e-04 0.0000000e+00 
0.0000000e+00 -5.3619244e-04 0.0000000e+00 
0.0000000e+00 -5.2628340e-04 0.0000000e+00 
0.0000000e+00 -4.2397680e-04 0.0000000e+00 
0.0000000e+00 -2.4446365e-04 0.0000000e+00 
0.0000000e+00 -9.9591780e-05 0.0000000e+00 
0.0000000e+00 -1.0587704e-05 0.0000000e+00 
0.0000000e+00 1.2070534e-05 0.0000000e+00 
0.0000000e+00 5.5566666e-06 0.0000000e+00 
0.0000000e+00 1.5173317e-05 0.0000000e+00 
0.0000000e+00 1.7738515e-05 0.0000000e+00 
0.0000000e+00 6.0983650e-05 0.0000000e+00 
0.0000000e+00 6.7419096e-05 0.0000000e+00 
0.0000000e+00 5.3538886e-05 0.0000000e+00 
0.0000000e+00 -1.1372123e-05 0.0000000e+00 
0.0000000e+00 5.7273382e-06 0.0000000e+00 
0.0000000e+00 7.4487645e-05 0.0000000e+00 
0.0000000e+00 -5.8264493e-05 0.0000000e+00 
0.0000000e+00 -1.6050549e-04 0.0000000e+00 
0.0000000e+00 -3.9715521e-04 0.0000000e+00 
0.0000000e+00 -5.5428909e-04 0.0000000e+00 
0.0000000e+00 -6.0250709e-04 0.0000000e+00 
0.0000000e+00 -5.8659911e-04 0.0000000e+00 
0.0000000e+00 -4.0632646e-04 0.0000000e+00 
0.0000000e+00 -1.5227281e-04 0.0000000e+00 
0.0000000e+00 -4.7291771e-05 0.0000000e+00 
0.0000000e+00 -6.2465647e-06 0.0000000e+00 
0.0000000e+00 -1.6828701e-05 0.0000000e+00 
0.0000000e+00 -1.2879352e-05 0.0000000e+00 
0.0000000e+00 9.5450332e-07 0.0000000e+00 
0.0000000e+00 1.0292032e-05 0.0000000e+00 
0.0000000e+00 1.4206688e-05 0.0000000e+00 
0.0000000e+00 1.3284765e-05 0.0000000e+00 
0.0000000e+00 -3.1215004e-06 0.0000000e+00 
0.0000000e+00 -1.4808479e-05 0.0000000e+00 
-3.0355479e-06 -8.0805705e-07 1.9701677e-06 
-2.5157271e-06 1.8308152e-06 1.0848937e-06 
-3.7187444e-06 8.1495627e-06 6.5809527e-06 
-2.1160802e-06 1.2033038e-05 8.5254551e-06 
2.8382561e-07 -2.5685020e-08 -5.8580429e-07 
1.1125101e-06 -1.1706546e-06 -3.0092963e-07 
2.2487955e-06 -2.6032053e-06 9.4125357e-07 
1.4016892e-06 -3.4283100e-06 2.6655887e-06 
-7.7880441e-07 1.9135458e-08 -9.8696296e-07 
-1.1678446e-06 6.4650408e-07 8.9476873e-07 
-2.8248319e-06 -6.0174352e-07 1.9530030e-06 
-1.4743265e-06 2.1486344e-06 -6.0238608e-07 
1.1508120e-06 -4.0229829e-06 1.8285480e-06 
-6.1790325e-07 6.1234991e-06 -1.9865208e-06 
2.9398016e-06 2.2921769e-07 -1.7866398e-06 
9.5000159e-06 -9.4152101e-06 -3.1221180e-06 
1.1106690e-05 1.7079539e-06 -5.0132849e-06 
9.4318002e-06 -6.7340920e-06 -8.5244428e-06 
1.4125289e-05 -1.2648207e-05 -1.6425904e-05 
2.6607617e-05 -8.5930069e-06 -2.3179959e-05 
2.8877423e-05 -9.9586214e-06 -2.4687470e-05 
4.0081624e-05 -1.0585360e-05 -2.6461974e-05 
4.7506524e-05 -2.9053410e-06 -1.4618927e-05 
3.2812241e-05 -8.3784953e-06 -5.3862536e-06 
2.7678194e-05 -8.9794266e-06 4.1138474e-06 
2.4619440e-05 -2.8155907e-06 1.2850135e-05 
1.0519999e-05 -6.9121479e-06 1.3762346e-05 
4.4040653e-06 -5.0144545e-06 1.3236429e-05 
-1.8137712e-06 -1.7714056e-06 8.7596027e-06 