# vtk DataFile Version 4.0
vtk output
ASCII
DATASET UNSTRUCTURED_GRID
POINTS 1919 float
0.0000000e+00 0.0000000e+00 0.0000000e+00 
0.0000000e+00 0.0000000e+00 5.0000000e+01 
5.0000000e+00 0.0000000e+00 0.0000000e+00 
5.0000000e+00 0.0000000e+00 5.0000000e+01 
5.0000000e+00 1.0000000e+00 0.0000000e+00 
5.0000000e+00 1.0000000e+00 5.0000000e+01 
0.0000000e+00 1.0000000e+00 0.0000000e+00 
0.0000000e+00 1.0000000e+00 5.0000000e+01 
5.0000000e+00 2.0000000e+00 0.0000000e+00 
5.0000000e+00 2.0000000e+00 5.0000000e+01 
3.0000000e+00 2.0000000e+00 0.0000000e+00 
3.0000000e+00 2.0000000e+00 5.0000000e+01 
0.0000000e+00 2.0000000e+00 0.0000000e+00 
0.0000000e+00 2.0000000e+00 5.0000000e+01 
1.5000000e+00 3.0000000e+00 0.0000000e+00 
1.5000000e+00 3.0000000e+00 5.0000000e+01 
7.5000000e-01 3.0000000e+00 0.0000000e+00 
7.5000000e-01 3.0000000e+00 5.0000000e+01 
0.0000000e+00 3.0000000e+00 0.0000000e+00 
0.0000000e+00 3.0000000e+00 5.0000000e+01 
7.5000000e-01 3.0000000e+00 5.0000000e-01 
7.5000000e-01 3.0000000e+00 1.0000000e+00 
7.5000000e-01 3.0000000e+00 1.5000000e+00 
7.5000000e-01 3.0000000e+00 2.0000000e+00 
7.5000000e-01 3.0000000e+00 2.5000000e+00 
7.5000000e-01 3.0000000e+00 3.0000000e+00 
7.5000000e-01 3.0000000e+00 3.5000000e+00 
7.5000000e-01 3.0000000e+00 4.0000000e+00 
7.5000000e-01 3.0000000e+00 4.5000000e+00 
7.5000000e-01 3.0000000e+00 5.0000000e+00 
7.5000000e-01 3.0000000e+00 5.5000000e+00 
7.5000000e-01 3.0000000e+00 6.0000000e+00 
7.5000000e-01 3.0000000e+00 6.5000000e+00 
7.5000000e-01 3.0000000e+00 7.0000000e+00 
7.5000000e-01 3.0000000e+00 7.5000000e+00 
7.5000000e-01 3.0000000e+00 8.0000000e+00 
7.5000000e-01 3.0000000e+00 8.5000000e+00 
7.5000000e-01 3.0000000e+00 9.0000000e+00 
7.5000000e-01 3.0000000e+00 9.5000000e+00 
7.5000000e-01 3.0000000e+00 1.0000000e+01 
7.5000000e-01 3.0000000e+00 1.0500000e+01 
7.5000000e-01 3.0000000e+00 1.1000000e+01 
7.5000000e-01 3.0000000e+00 1.1500000e+01 
7.5000000e-01 3.0000000e+00 1.2000000e+01 
7.5000000e-01 3.0000000e+00 1.2500000e+01 
7.5000000e-01 3.0000000e+00 1.3000000e+01 
7.5000000e-01 3.0000000e+00 1.3500000e+01 
7.5000000e-01 3.0000000e+00 1.4000000e+01 
7.5000000e-01 3.0000000e+00 1.4500000e+01 
7.5000000e-01 3.0000000e+00 1.5000000e+01 
7.5000000e-01 3.0000000e+00 1.5500000e+01 
7.5000000e-01 3.0000000e+00 1.6000000e+01 
7.5000000e-01 3.0000000e+00 1.6500000e+01 
7.5000000e-01 3.0000000e+00 1.7000000e+01 
7.5000000e-01 3.0000000e+00 1.7500000e+01 
7.5000000e-01 3.0000000e+00 1.8000000e+01 
7.5000000e-01 3.0000000e+00 1.8500000e+01 
7.5000000e-01 3.0000000e+00 1.9000000e+01 
7.5000000e-01 3.0000000e+00 1.9500000e+01 
7.5000000e-01 3.0000000e+00 2.0000000e+01 
7.5000000e-01 3.0000000e+00 2.0500000e+01 
7.5000000e-01 3.0000000e+00 2.1000000e+01 
7.5000000e-01 3.0000000e+00 2.1500000e+01 
7.5000000e-01 3.0000000e+00 2.2000000e+01 
7.5000000e-01 3.0000000e+00 2.2500000e+01 
7.5000000e-01 3.0000000e+00 2.3000000e+01 
7.5000000e-01 3.0000000e+00 2.3500000e+01 
7.5000000e-01 3.0000000e+00 2.4000000e+01 
7.5000000e-01 3.0000000e+00 2.4500000e+01 
7.5000000e-01 3.0000000e+00 2.5000000e+01 
7.5000000e-01 3.0000000e+00 2.5500000e+01 
7.5000000e-01 3.0000000e+00 2.6000000e+01 
7.5000000e-01 3.0000000e+00 2.6500000e+01 
7.5000000e-01 3.0000000e+00 2.7000000e+01 
7.5000000e-01 3.0000000e+00 2.7500000e+01 
7.5000000e-01 3.0000000e+00 2.8000000e+01 
7.5000000e-01 3.0000000e+00 2.8500000e+01 
7.5000000e-01 3.0000000e+00 2.9000000e+01 
7.5000000e-01 3.0000000e+00 2.9500000e+01 
7.5000000e-01 3.0000000e+00 3.0000000e+01 
7.5000000e-01 3.0000000e+00 3.0500000e+01 
7.5000000e-01 3.0000000e+00 3.1000000e+01 
7.5000000e-01 3.0000000e+00 3.1500000e+01 
7.5000000e-01 3.0000000e+00 3.2000000e+01 
7.5000000e-01 3.0000000e+00 3.2500000e+01 
7.5000000e-01 3.0000000e+00 3.3000000e+01 
7.5000000e-01 3.0000000e+00 3.3500000e+01 
7.5000000e-01 3.0000000e+00 3.4000000e+01 
7.5000000e-01 3.0000000e+00 3.4500000e+01 
7.5000000e-01 3.0000000e+00 3.5000000e+01 
7.5000000e-01 3.0000000e+00 3.5500000e+01 
7.5000000e-01 3.0000000e+00 3.6000000e+01 
7.5000000e-01 3.0000000e+00 3.6500000e+01 
7.5000000e-01 3.0000000e+00 3.7000000e+01 
7.5000000e-01 3.0000000e+00 3.7500000e+01 
7.5000000e-01 3.0000000e+00 3.8000000e+01 
7.5000000e-01 3.0000000e+00 3.8500000e+01 
7.5000000e-01 3.0000000e+00 3.9000000e+01 
7.5000000e-01 3.0000000e+00 3.9500000e+01 
7.5000000e-01 3.0000000e+00 4.0000000e+01 
7.5000000e-01 3.0000000e+00 4.0500000e+01 
7.5000000e-01 3.0000000e+00 4.1000000e+01 
7.5000000e-01 3.0000000e+00 4.1500000e+01 
7.5000000e-01 3.0000000e+00 4.2000000e+01 
7.5000000e-01 3.0000000e+00 4.2500000e+01 
7.5000000e-01 3.0000000e+00 4.3000000e+01 
7.5000000e-01 3.0000000e+00 4.3500000e+01 
7.5000000e-01 3.0000000e+00 4.4000000e+01 
7.5000000e-01 3.0000000e+00 4.4500000e+01 
7.5000000e-01 3.0000000e+00 4.5000000e+01 
7.5000000e-01 3.0000000e+00 4.5500000e+01 
7.5000000e-01 3.0000000e+00 4.6000000e+01 
7.5000000e-01 3.0000000e+00 4.6500000e+01 
7.5000000e-01 3.0000000e+00 4.7000000e+01 
7.5000000e-01 3.0000000e+00 4.7500000e+01 
7.5000000e-01 3.0000000e+00 4.8000000e+01 
7.5000000e-01 3.0000000e+00 4.8500000e+01 
7.5000000e-01 3.0000000e+00 4.9000000e+01 
7.5000000e-01 3.0000000e+00 4.9500000e+01 
7.5000000e-01 3.0250001e+00 0.0000000e+00 
7.5000000e-01 3.0250001e+00 5.0000000e-01 
7.5000000e-01 3.0250001e+00 1.0000000e+00 
7.5000000e-01 3.0250001e+00 1.5000000e+00 
7.5000000e-01 3.0250001e+00 2.0000000e+00 
7.5000000e-01 3.0250001e+00 2.5000000e+00 
7.5000000e-01 3.0250001e+00 3.0000000e+00 
7.5000000e-01 3.0250001e+00 3.5000000e+00 
7.5000000e-01 3.0250001e+00 4.0000000e+00 
7.5000000e-01 3.0250001e+00 4.5000000e+00 
7.5000000e-01 3.0250001e+00 5.0000000e+00 
7.5000000e-01 3.0250001e+00 5.5000000e+00 
7.5000000e-01 3.0250001e+00 6.0000000e+00 
7.5000000e-01 3.0250001e+00 6.5000000e+00 
7.5000000e-01 3.0250001e+00 7.0000000e+00 
7.5000000e-01 3.0250001e+00 7.5000000e+00 
7.5000000e-01 3.0250001e+00 8.0000000e+00 
7.5000000e-01 3.0250001e+00 8.5000000e+00 
7.5000000e-01 3.0250001e+00 9.0000000e+00 
7.5000000e-01 3.0250001e+00 9.5000000e+00 
7.5000000e-01 3.0250001e+00 1.0000000e+01 
7.5000000e-01 3.0250001e+00 1.0500000e+01 
7.5000000e-01 3.0250001e+00 1.1000000e+01 
7.5000000e-01 3.0250001e+00 1.1500000e+01 
7.5000000e-01 3.0250001e+00 1.2000000e+01 
7.5000000e-01 3.0250001e+00 1.2500000e+01 
7.5000000e-01 3.0250001e+00 1.3000000e+01 
7.5000000e-01 3.0250001e+00 1.3500000e+01 
7.5000000e-01 3.0250001e+00 1.4000000e+01 
7.5000000e-01 3.0250001e+00 1.4500000e+01 
7.5000000e-01 3.0250001e+00 1.5000000e+01 
7.5000000e-01 3.0250001e+00 1.5500000e+01 
7.5000000e-01 3.0250001e+00 1.6000000e+01 
7.5000000e-01 3.0250001e+00 1.6500000e+01 
7.5000000e-01 3.0250001e+00 1.7000000e+01 
7.5000000e-01 3.0250001e+00 1.7500000e+01 
7.5000000e-01 3.0250001e+00 1.8000000e+01 
7.5000000e-01 3.0250001e+00 1.8500000e+01 
7.5000000e-01 3.0250001e+00 1.9000000e+01 
7.5000000e-01 3.0250001e+00 1.9500000e+01 
7.5000000e-01 3.0250001e+00 2.0000000e+01 
7.5000000e-01 3.0250001e+00 2.0500000e+01 
7.5000000e-01 3.0250001e+00 2.1000000e+01 
7.5000000e-01 3.0250001e+00 2.1500000e+01 
7.5000000e-01 3.0250001e+00 2.2000000e+01 
7.5000000e-01 3.0250001e+00 2.2500000e+01 
7.5000000e-01 3.0250001e+00 2.3000000e+01 
7.5000000e-01 3.0250001e+00 2.3500000e+01 
7.5000000e-01 3.0250001e+00 2.4000000e+01 
7.5000000e-01 3.0250001e+00 2.4500000e+01 
7.5000000e-01 3.0250001e+00 2.5000000e+01 
7.5000000e-01 3.0250001e+00 2.5500000e+01 
7.5000000e-01 3.0250001e+00 2.6000000e+01 
7.5000000e-01 3.0250001e+00 2.6500000e+01 
7.5000000e-01 3.0250001e+00 2.7000000e+01 
7.5000000e-01 3.0250001e+00 2.7500000e+01 
7.5000000e-01 3.0250001e+00 2.8000000e+01 
7.5000000e-01 3.0250001e+00 2.8500000e+01 
7.5000000e-01 3.0250001e+00 2.9000000e+01 
7.5000000e-01 3.0250001e+00 2.9500000e+01 
7.5000000e-01 3.0250001e+00 3.0000000e+01 
7.5000000e-01 3.0250001e+00 3.0500000e+01 
7.5000000e-01 3.0250001e+00 3.1000000e+01 
7.5000000e-01 3.0250001e+00 3.1500000e+01 
7.5000000e-01 3.0250001e+00 3.2000000e+01 
7.5000000e-01 3.0250001e+00 3.2500000e+01 
7.5000000e-01 3.0250001e+00 3.3000000e+01 
7.5000000e-01 3.0250001e+00 3.3500000e+01 
7.5000000e-01 3.0250001e+00 3.4000000e+01 
7.5000000e-01 3.0250001e+00 3.4500000e+01 
7.5000000e-01 3.0250001e+00 3.5000000e+01 
7.5000000e-01 3.0250001e+00 3.5500000e+01 
7.5000000e-01 3.0250001e+00 3.6000000e+01 
7.5000000e-01 3.0250001e+00 3.6500000e+01 
7.5000000e-01 3.0250001e+00 3.7000000e+01 
7.5000000e-01 3.0250001e+00 3.7500000e+01 
7.5000000e-01 3.0250001e+00 3.8000000e+01 
7.5000000e-01 3.0250001e+00 3.8500000e+01 
7.5000000e-01 3.0250001e+00 3.9000000e+01 
7.5000000e-01 3.0250001e+00 3.9500000e+01 
7.5000000e-01 3.0250001e+00 4.0000000e+01 
7.5000000e-01 3.0250001e+00 4.0500000e+01 
7.5000000e-01 3.0250001e+00 4.1000000e+01 
7.5000000e-01 3.0250001e+00 4.1500000e+01 
7.5000000e-01 3.0250001e+00 4.2000000e+01 
7.5000000e-01 3.0250001e+00 4.2500000e+01 
7.5000000e-01 3.0250001e+00 4.3000000e+01 
7.5000000e-01 3.0250001e+00 4.3500000e+01 
7.5000000e-01 3.0250001e+00 4.4000000e+01 
7.5000000e-01 3.0250001e+00 4.4500000e+01 
7.5000000e-01 3.0250001e+00 4.5000000e+01 
7.5000000e-01 3.0250001e+00 4.5500000e+01 
7.5000000e-01 3.0250001e+00 4.6000000e+01 
7.5000000e-01 3.0250001e+00 4.6500000e+01 
7.5000000e-01 3.0250001e+00 4.7000000e+01 
7.5000000e-01 3.0250001e+00 4.7500000e+01 
7.5000000e-01 3.0250001e+00 4.8000000e+01 
7.5000000e-01 3.0250001e+00 4.8500000e+01 
7.5000000e-01 3.0250001e+00 4.9000000e+01 
7.5000000e-01 3.0250001e+00 4.9500000e+01 
7.5000000e-01 3.0250001e+00 5.0000000e+01 
3.0000000e+00 2.0000000e+00 3.6000000e+01 
8.0487806e-01 3.0000000e+00 3.6000000e+01 
0.0000000e+00 0.0000000e+00 1.0000000e+00 
0.0000000e+00 0.0000000e+00 2.0000000e+00 
0.0000000e+00 0.0000000e+00 3.0000000e+00 
0.0000000e+00 0.0000000e+00 4.0000000e+00 
0.0000000e+00 0.0000000e+00 5.0000000e+00 
0.0000000e+00 0.0000000e+00 6.0000000e+00 
0.0000000e+00 0.0000000e+00 7.0000000e+00 
0.0000000e+00 0.0000000e+00 8.0000000e+00 
[...]
POINT_DATA 1919
FIELD FieldData 3
DISPLACEMENT 3 1919  float
0.0000000e+00 0.0000000e+00 0.0000000e+00 
0.0000000e+00 0.0000000e+00 0.0000000e+00 
0.0000000e+00 0.0000000e+00 0.0000000e+00 
0.0000000e+00 0.0000000e+00 0.0000000e+00 
-1.9462678e-07 -1.8264883e-06 -2.8285706e-06 
-1.9676891e-07 -5.8168166e-07 2.9446176e-07 
0.0000000e+00 -1.1232501e-05 0.0000000e+00 
0.0000000e+00 4.9414170e-06 0.0000000e+00 
2.5610848e-07 4.3817451e-07 -2.4099711e-06 
6.8186330e-07 -1.5744832e-06 2.3412781e-06 
1.2828070e-06 -5.9489084e-06 -4.6138648e-06 
2.3995533e-06 1.5783570e-06 1.0522074e-06 
0.0000000e+00 -2.8272034e-05 0.0000000e+00 
0.0000000e+00 7.7560944e-06 0.0000000e+00 
-2.4658926e-05 -2.1280850e-05 -9.1175552e-06 
4.9364667e-06 5.0045637e-06 2.6321151e-05 
-2.0112218e-05 -6.0676386e-05 -9.0106687e-06 
-1.6499989e-05 4.4237007e-05 1.5976797e-05 
0.0000000e+00 -3.8982056e-05 0.0000000e+00 
0.0000000e+00 8.3220630e-06 0.0000000e+00 
-1.1964096e-05 -5.6307072e-05 -1.2744992e-05 
-1.4797567e-06 -4.3173382e-05 -1.4531990e-05 
6.8845493e-06 -2.1087058e-05 -1.8708286e-05 
1.1455219e-06 7.6444339e-06 -1.2593326e-05 
8.3312407e-06 3.5383062e-05 -4.1821622e-06 
5.2340515e-06 5.3414798e-05 2.6009948e-07 
1.5553114e-05 5.1971077e-05 7.7133727e-06 
1.4748255e-05 2.7958402e-05 1.8918156e-05 
4.5908828e-06 -1.0869029e-05 3.4842895e-05 
-6.8383197e-06 -4.7501686e-05 4.6367739e-05 
-1.2965752e-05 -7.2514726e-05 5.0708226e-05 
-2.1051210e-05 -8.5275104e-05 2.9936728e-05 
-2.2774999e-05 -9.7184828e-05 2.0598131e-05 
-2.3020451e-05 -1.2027071e-04 1.0932824e-05 
-2.6128941e-05 -1.4966479e-04 6.5002209e-06 
-3.0123911e-05 -1.6438322e-04 1.6028052e-05 
-2.4773339e-05 -1.3666248e-04 -4.5862021e-06 
-2.4054310e-05 -5.2089330e-05 -2.4260675e-05 
-1.6869790e-05 6.3866013e-05 -3.8301318e-05 
-1.3120099e-05 1.4611980e-04 -4.7012818e-05 
9.4558718e-06 1.3780453e-04 -4.2224488e-05 
2.3302313e-05 -9.2999983e-07 2.2693396e-06 
-5.6901813e-06 -2.9086744e-04 5.2362135e-05 
-4.4004581e-05 -7.5988652e-04 2.5241834e-05 
-5.1934428e-05 -1.4783428e-03 1.5197250e-04 
-9.6990501e-05 -2.4667096e-03 5.2243715e-05 
-1.7718408e-04 -3.6163100e-03 1.6000248e-04 
-2.2588667e-04 -4.4706450e-03 5.3207888e-05 
-2.2962631e-04 -4.5889076e-03 6.3749234e-05 
-2.4620598e-04 -4.4443514e-03 3.5651305e-05 
-2.5346264e-04 -4.5137345e-03 7.7619276e-05 
-2.9257650e-04 -4.7778701e-03 -2.0961019e-05 
-3.1090263e-04 -4.8014228e-03 -9.9106437e-05 
-2.4609911e-04 -3.9641587e-03 -1.3451120e-04 
-1.7751697e-04 -2.7566319e-03 -2.8116122e-04 
-1.1042240e-04 -1.6273018e-03 -1.7445890e-04 
-4.4044162e-05 -7.8695128e-04 -1.9947981e-04 
-1.2387099e-05 -2.4729979e-04 -8.9351721e-05 
1.2255325e-05 5.5137174e-05 -6.2421132e-05 
6.4714873e-06 2.0191434e-04 -1.9549921e-05 
4.7674284e-06 2.5288240e-04 -9.9857357e-07 
1.2501105e-05 2.4364905e-04 3.6649935e-06 
2.1749796e-05 2.0453190e-04 2.1513688e-05 
2.1487160e-05 1.6518084e-04 3.5944980e-05 
4.2074240e-05 1.4618141e-04 4.7186797e-05 
2.8924789e-05 1.5209925e-04 5.0358129e-05 
3.5168523e-05 1.6670184e-04 4.9484956e-05 
2.9153311e-05 1.6485019e-04 4.1330495e-05 
1.9622254e-05 1.2849299e-04 5.6581230e-05 
-4.3885202e-06 6.0229573e-05 7.4349504e-05 
-2.8667244e-05 -1.9345520e-05 8.1371589e-05 
-4.5028264e-05 -7.8148187e-05 7.2860181e-05 
-4.5291232e-05 -1.0601805e-04 6.6654757e-05 
-2.8587627e-05 -1.1480255e-04 3.1691565e-05 
1.7910146e-07 -1.1966796e-04 4.7677040e-06 
2.0600019e-06 -1.2478564e-04 8.2362176e-06 
-8.7405087e-06 -1.1077494e-04 1.3119893e-05 
-1.5823140e-05 -5.7092377e-05 2.9057255e-05 
-1.8607820e-05 3.0570071e-05 2.5721487e-05 
-1.5377496e-05 1.0828621e-04 2.6778935e-05 
-1.6574215e-05 9.8215278e-05 3.5230987e-05 
-2.9014969e-05 -8.9617424e-05 2.7275153e-05 
-5.3166990e-05 -5.0118577e-04 6.3119718e-05 
-9.6542528e-05 -1.1425124e-03 3.0229405e-05 
-1.4340103e-04 -2.0194431e-03 1.4084940e-04 
-2.2942096e-04 -3.0795627e-03 6.6733010e-06 
-2.7152363e-04 -4.1755927e-03 1.1157017e-04 
-3.1971734e-04 -4.8687425e-03 -5.2386554e-06 
-3.2778419e-04 -4.9511832e-03 -9.7405660e-05 
-5.8195608e-05 -4.8742727e-03 -7.6362921e-06 
-2.1648644e-04 -4.9155178e-03 5.6926041e-05 
-2.2657309e-04 -5.0048507e-03 -1.0369391e-04 
-2.3203187e-04 -4.6925596e-03 -1.8335940e-04 
-1.0615334e-04 -3.6275228e-03 -1.4154339e-04 
-1.6525335e-04 -2.4026907e-03 -2.6966073e-04 
-9.3519673e-05 -1.3709672e-03 -1.2303681e-04 
-3.7852569e-05 -6.6479068e-04 -1.2325545e-04 
-4.6294590e-06 -2.3853373e-04 -2.6570553e-05 
1.1475941e-05 -9.3311173e-06 -1.9802774e-06 
7.3321471e-06 9.3017945e-05 2.8814729e-05 
-3.8570624e-06 1.2229661e-04 2.5027446e-05 
-1.9970694e-06 1.1903743e-04 1.9196377e-05 
2.2943611e-06 1.1252212e-04 1.4870481e-05 
4.9303790e-06 1.0933710e-04 7.9842421e-06 
1.0005499e-05 1.0454691e-04 5.4673787e-06 
3.7935115e-06 9.3693816e-05 -4.9224445e-06 
-1.0307795e-05 7.5881449e-05 -2.2600185e-05 
-1.3279248e-05 5.2791387e-05 -4.0100807e-05 
-3.6191223e-06 2.6367878e-05 -2.2289221e-05 
-5.3040035e-06 -1.4405955e-06 -1.0207665e-05 
-7.0033789e-06 -2.8326553e-05 4.4952644e-06 
-7.0274082e-06 -4.9673825e-05 7.9194825e-07 
-1.1825284e-05 -6.0190705e-05 -9.2058199e-06 
-4.2609840e-06 -5.6982171e-05 -1.8326053e-05 
6.7254814e-06 -4.0253890e-05 -2.3112772e-05 
9.0899957e-06 -1.6081056e-05 -1.2177708e-05 
1.3670337e-05 8.4995418e-06 2.8866275e-06 
1.2820378e-05 2.8305656e-05 1.6421858e-05 
6.0656753e-06 4.0307310e-05 2.0888399e-05 
0.0000000e+00 -6.0548733e-05 0.0000000e+00 
0.0000000e+00 -5.6259480e-05 0.0000000e+00 
0.0000000e+00 -4.3188356e-05 0.0000000e+00 
0.0000000e+00 -2.1110522e-05 0.0000000e+00 
0.0000000e+00 7.4728523e-06 0.0000000e+00 
0.0000000e+00 3.5537763e-05 0.0000000e+00 
0.0000000e+00 5.3477397e-05 0.0000000e+00 
0.0000000e+00 5.1608924e-05 0.0000000e+00 
0.0000000e+00 2.7296699e-05 0.0000000e+00 
0.0000000e+00 -1.0912521e-05 0.0000000e+00 
0.0000000e+00 -4.7344383e-05 0.0000000e+00 
0.0000000e+00 -7.1857146e-05 0.0000000e+00 
0.0000000e+00 -8.4931853e-05 0.0000000e+00 
0.0000000e+00 -9.7742675e-05 0.0000000e+00 
0.0000000e+00 -1.2106444e-04 0.0000000e+00 
0.0000000e+00 -1.5043450e-04 0.0000000e+00 
0.0000000e+00 -1.6434418e-04 0.0000000e+00 
0.0000000e+00 -1.3489049e-04 0.0000000e+00 
0.0000000e+00 -4.9714428e-05 0.0000000e+00 
0.0000000e+00 6.4420288e-05 0.0000000e+00 
0.0000000e+00 1.4591019e-04 0.0000000e+00 
0.0000000e+00 1.3635472e-04 0.0000000e+00 
0.0000000e+00 -1.4482451e-06 0.0000000e+00 
0.0000000e+00 -2.8906830e-04 0.0000000e+00 
0.0000000e+00 -7.6181843e-04 0.0000000e+00 
0.0000000e+00 -1.4844167e-03 0.0000000e+00 
0.0000000e+00 -2.4847712e-03 0.0000000e+00 
0.0000000e+00 -3.6378819e-03 0.0000000e+00 
0.0000000e+00 -4.5007342e-03 0.0000000e+00 
0.0000000e+00 -4.6092849e-03 0.0000000e+00 
0.0000000e+00 -4.4696890e-03 0.0000000e+00 
0.0000000e+00 -4.5358404e-03 0.0000000e+00 
0.0000000e+00 -4.8088119e-03 0.0000000e+00 
0.0000000e+00 -4.8246044e-03 0.0000000e+00 
0.0000000e+00 -3.9866827e-03 0.0000000e+00 
0.0000000e+00 -2.7694453e-03 0.0000000e+00 
0.0000000e+00 -1.6369577e-03 0.0000000e+00 
0.0000000e+00 -7.9025939e-04 0.0000000e+00 
0.0000000e+00 -2.4767171e-04 0.0000000e+00 
0.0000000e+00 5.6353903e-05 0.0000000e+00 
0.0000000e+00 2.0307492e-04 0.0000000e+00 
0.0000000e+00 2.5320693e-04 0.0000000e+00 
0.0000000e+00 2.4386322e-04 0.0000000e+00 
0.0000000e+00 2.0500133e-04 0.0000000e+00 
0.0000000e+00 1.6577222e-04 0.0000000e+00 
0.0000000e+00 1.4698935e-04 0.0000000e+00 
0.0000000e+00 1.5250787e-04 0.0000000e+00 
0.0000000e+00 1.6656631e-04 0.0000000e+00 
0.0000000e+00 1.6405123e-04 0.0000000e+00 
0.0000000e+00 1.2740793e-04 0.0000000e+00 
0.0000000e+00 5.9228212e-05 0.0000000e+00 
0.0000000e+00 -1.8578636e-05 0.0000000e+00 
0.0000000e+00 -7.6934281e-05 0.0000000e+00 
0.0000000e+00 -1.0539294e-04 0.0000000e+00 
0.0000000e+00 -1.1507709e-04 0.0000000e+00 
0.0000000e+00 -1.2104137e-04 0.0000000e+00 
0.0000000e+00 -1.2536121e-04 0.0000000e+00 
0.0000000e+00 -1.1000720e-04 0.0000000e+00 
0.0000000e+00 -5.5342465e-05 0.0000000e+00 
0.0000000e+00 3.2849381e-05 0.0000000e+00 
0.0000000e+00 1.0982387e-04 0.0000000e+00 
0.0000000e+00 9.6568197e-05 0.0000000e+00 
0.0000000e+00 -9.1941198e-05 0.0000000e+00 
0.0000000e+00 -5.0241116e-04 0.0000000e+00 
0.0000000e+00 -1.1461213e-03 0.0000000e+00 
0.0000000e+00 -2.0245146e-03 0.0000000e+00 
0.0000000e+00 -3.0982753e-03 0.0000000e+00 
0.0000000e+00 -4.1972608e-03 0.0000000e+00 
0.0000000e+00 -4.9032364e-03 0.0000000e+00 
0.0000000e+00 -4.9772179e-03 0.0000000e+00 
0.0000000e+00 -4.8918109e-03 0.0000000e+00 
0.0000000e+00 -4.9396181e-03 0.0000000e+00 
0.0000000e+00 -5.0345119e-03 0.0000000e+00 
0.0000000e+00 -4.7155642e-03 0.0000000e+00 
0.0000000e+00 -3.6563436e-03 0.0000000e+00 
0.0000000e+00 -2.4137478e-03 0.0000000e+00 
0.0000000e+00 -1.3783586e-03 0.0000000e+00 
0.0000000e+00 -6.6610170e-04 0.0000000e+00 
0.0000000e+00 -2.3787083e-04 0.0000000e+00 
0.0000000e+00 -8.6696191e-06 0.0000000e+00 
0.0000000e+00 9.3849092e-05 0.0000000e+00 
0.0000000e+00 1.2317419e-04 0.0000000e+00 
0.0000000e+00 1.2023764e-04 0.0000000e+00 
0.0000000e+00 1.1298110e-04 0.0000000e+00 
0.0000000e+00 1.0921181e-04 0.0000000e+00 
0.0000000e+00 1.0438924e-04 0.0000000e+00 
0.0000000e+00 9.3628551e-05 0.0000000e+00 
0.0000000e+00 7.5916003e-05 0.0000000e+00 
0.0000000e+00 5.2811352e-05 0.0000000e+00 
0.0000000e+00 2.6308917e-05 0.0000000e+00 
0.0000000e+00 -1.6135278e-06 0.0000000e+00 
0.0000000e+00 -2.8357741e-05 0.0000000e+00 
0.0000000e+00 -4.9501930e-05 0.0000000e+00 
0.0000000e+00 -6.0004964e-05 0.0000000e+00 
0.0000000e+00 -5.6710531e-05 0.0000000e+00 
0.0000000e+00 -4.0254981e-05 0.0000000e+00 
0.0000000e+00 -1.6227128e-05 0.0000000e+00 
0.0000000e+00 8.3853374e-06 0.0000000e+00 
0.0000000e+00 2.8193819e-05 0.0000000e+00 
0.0000000e+00 4.0307546e-05 0.0000000e+00 
0.0000000e+00 4.4267596e-05 0.0000000e+00 
4.9471102e-05 -9.5659496e-05 -8.6687132e-06 
-2.5115450e-04 -4.5708222e-03 -9.7840842e-05 
0.0000000e+00 0.0000000e+00 0.0000000e+00 
0.0000000e+00 0.0000000e+00 0.0000000e+00 
0.0000000e+00 0.0000000e+00 0.0000000e+00 
0.0000000e+00 0.0000000e+00 0.0000000e+00 
0.0000000e+00 0.0000000e+00 0.0000000e+00 
0.0000000e+00 0.0000000e+00 0.0000000e+00 
0.0000000e+00 0.0000000e+00 0.0000000e+00 
0.0000000e+00 0.0000000e+00 0.0000000e+00 
0.0000000e+00 0.0000000e+00 0.0000000e+00 
0.0000000e+00 0.0000000e+00 0.0000000e+00 
0.0000000e+00 0.0000000e+00 0.0000000e+00 
0.0000000e+00 0.0000000e+00 0.0000000e+00 
0.0000000e+00 0.0000000e+00 0.0000000e+00 
0.0000000e+00 0.0000000e+00 0.0000000e+00 
0.0000000e+00 0.0000000e+00 0.0000000e+00 
0.0000000e+00 0.0000000e+00 0.0000000e+00 
0.0000000e+00 0.0000000e+00 0.0000000e+00 
0.0000000e+00 0.0000000e+00 0.0000000e+00 
0.0000000e+00 0.0000000e+00 0.0000000e+00 
0.0000000e+00 0.0000000e+00 0.0000000e+00 
0.0000000e+00 0.0000000e+00 0.0000000e+00 
0.0000000e+00 0.0000000e+00 0.0000000e+00 
0.0000000e+00 0.0000000e+00 0.0000000e+00 
0.0000000e+00 0.0000000e+00 0.0000000e+00 
0.0000000e+00 0.0000000e+00 0.0000000e+00 
0.0000000e+00 0.0000000e+00 0.0000000e+00 
0.0000000e+00 0.0000000e+00 0.0000000e+00 
0.0000000e+00 0.0000000e+00 0.0000000e+00 
0.0000000e+00 0.0000000e+00 0.0000000e+00 
0.0000000e+00 0.0000000e+00 0.0000000e+00 
0.0000000e+00 0.0000000e+00 0.0000000e+00 
0.0000000e+00 0.0000000e+00 0.0000000e+00 
0.0000000e+00 0.0000000e+00 0.0000000e+00 
0.0000000e+00 0.0000000e+00 0.0000000e+00 
0.0000000e+00 0.0000000e+00 0.0000000e+00 
0.0000000e+00 0.0000000e+00 0.0000000e+00 
0.0000000e+00 0.0000000e+00 0.0000000e+00 
0.0000000e+00 0.0000000e+00 0.0000000e+00 
0.0000000e+00 0.0000000e+00 0.0000000e+00 
0.0000000e+00 0.0000000e+00 0.0000000e+00 
0.0000000e+00 0.0000000e+00 0.0000000e+00 
0.0000000e+00 0.0000000e+00 0.0000000e+00 
0.0000000e+00 0.0000000e+00 0.0000000e+00 
0.0000000e+00 0.0000000e+00 0.0000000e+00 
0.0000000e+00 0.0000000e+00 0.0000000e+00 
0.0000000e+00 0.0000000e+00 0.0000000e+00 
0.0000000e+00 0.0000000e+00 0.0000000e+00 
0.0000000e+00 0.0000000e+00 0.0000000e+00 
0.0000000e+00 0.0000000e+00 0.0000000e+00 
0.0000000e+00 0.0000000e+00 0.0000000e+00 
0.0000000e+00 0.0000000e+00 0.0000000e+00 
0.0000000e+00 0.0000000e+00 0.0000000e+00 
0.0000000e+00 0.0000000e+00 0.0000000e+00 
0.0000000e+00 0.0000000e+00 0.0000000e+00 
0.0000000e+00 0.0000000e+00 0.0000000e+00 
0.0000000e+00 0.0000000e+00 0.0000000e+00 
0.0000000e+00 0.0000000e+00 0.0000000e+00 
0.0000000e+00 0.0000000e+00 0.0000000e+00 
0.0000000e+00 0.0000000e+00 0.0000000e+00 
0.0000000e+00 0.0000000e+00 0.0000000e+00 
0.0000000e+00 0.0000000e+00 0.0000000e+00 
0.0000000e+00 0.0000000e+00 0.0000000e+00 
0.0000000e+00 0.0000000e+00 0.0000000e+00 
0.0000000e+00 0.0000000e+00 0.0000000e+00 
0.0000000e+00 0.0000000e+00 0.0000000e+00 
0.0000000e+00 0.0000000e+00 0.0000000e+00 
0.0000000e+00 0.0000000e+00 0.0000000e+00 
0.0000000e+00 0.0000000e+00 0.0000000e+00 
0.0000000e+00 0.0000000e+00 0.0000000e+00 
0.0000000e+00 0.0000000e+00 0.0000000e+00 
0.0000000e+00 0.0000000e+00 0.0000000e+00 
0.0000000e+00 0.0000000e+00 0.0000000e+00 
0.0000000e+00 0.0000000e+00 0.0000000e+00 
0.0000000e+00 0.0000000e+00 0.0000000e+00 
0.0000000e+00 0.0000000e+00 0.0000000e+00 
0.0000000e+00 0.0000000e+00 0.0000000e+00 
0.0000000e+00 0.0000000e+00 0.0000000e+00 
0.0000000e+00 0.0000000e+00 0.0000000e+00 
0.0000000e+00 0.0000000e+00 0.0000000e+00 
0.0000000e+00 0.0000000e+00 0.0000000e+00 
0.0000000e+00 0.0000000e+00 0.0000000e+00 
0.0000000e+00 0.0000000e+00 0.0000000e+00 
0.0000000e+00 0.0000000e+00 0.0000000e+00 
0.0000000e+00 0.0000000e+00 0.0000000e+00 
0.0000000e+00 0.0000000e+00 0.0000000e+00 
0.0000000e+00 0.0000000e+00 0.0000000e+00 
0.0000000e+00 0.0000000e+00 0.0000000e+00 
0.0000000e+00 0.0000000e+00 0.0000000e+00 
0.0000000e+00 0.0000000e+00 0.0000000e+00 
0.0000000e+00 0.0000000e+00 0.0000000e+00 
0.0000000e+00 0.0000000e+00 0.0000000e+00 
0.0000000e+00 0.0000000e+00 0.0000000e+00 
0.0000000e+00 0.0000000e+00 0.0000000e+00 
0.0000000e+00 0.0000000e+00 0.0000000e+00 
0.0000000e+00 0.0000000e+00 0.0000000e+00 
0.0000000e+00 0.0000000e+00 0.0000000e+00 
0.0000000e+00 0.0000000e+00 0.0000000e+00 
0.0000000e+00 0.0000000e+00 0.0000000e+00 
0.0000000e+00 0.0000000e+00 0.0000000e+00 
0.0000000e+00 0.0000000e+00 0.0000000e+00 
0.0000000e+00 0.0000000e+00 0.0000000e+00 
0.0000000e+00 0.0000000e+00 0.0000000e+00 
0.0000000e+00 0.0000000e+00 0.0000000e+00 
0.0000000e+00 0.0000000e+00 0.0000000e+00 
0.0000000e+00 0.0000000e+00 0.0000000e+00 
0.0000000e+00 0.0000000e+00 0.0000000e+00 
1.9559282e-06 -3.2886325e-07 -3.3987783e-06 
-9.6709152e-07 4.6024377e-07 1.8183902e-06 
-3.1520633e-06 -2.0319351e-06 -3.5702797e-07 
1.0772876e-06 -7.8651738e-07 -1.4167895e-06 
-1.5307421e-08 -1.8262150e-06 -5.2556697e-07 
4.8097409e-06 1.2479409e-06 -8.5188931e-06 
4.0755494e-06 -6.3361449e-06 -6.0642092e-06 
6.4457463e-06 2.2056809e-06 -2.3310279e-06 
8.3301047e-06 1.0107309e-06 -2.3904020e-06 
9.3810168e-06 -1.1859648e-05 -1.0497043e-05 
1.9332465e-05 2.0891064e-06 -1.4042442e-05 
2.6561025e-05 -3.5408991e-06 -1.1929748e-05 
3.1599022e-05 -1.1644363e-05 -9.4679936e-06 
4.0210543e-05 -8.1165508e-06 -5.2390947e-06 
4.4541976e-05 -1.4874958e-05 2.1595042e-06 
3.9937055e-05 -1.5172160e-05 1.0799559e-05 
3.2477139e-05 -1.2164454e-05 1.2748729e-05 
2.8122266e-05 -8.6724549e-06 1.6949283e-05 
1.7037106e-05 -7.1751647e-06 1.9709829e-05 
4.8309766e-06 -2.2228517e-07 1.7464239e-05 
-7.2611095e-07 -3.3851622e-06 1.0457420e-05 
-2.7658205e-06 -4.3870050e-06 4.8346183e-06 
-5.8231905e-07 -4.1621415e-06 -2.6178905e-06 
1.9247227e-06 -3.1922732e-06 -6.3341981e-06 
6.0224293e-06 -1.6566579e-06 -3.7067655e-06 
4.2916367e-06 -6.8883304e-07 -2.7708240e-06 
7.2914272e-06 -7.3074307e-06 -6.3097186e-06 
1.2769106e-05 -5.4237194e-06 -1.1808698e-05 
1.1132979e-05 7.3281453e-06 -8.1669377e-06 
1.5062577e-05 -2.7421884e-06 -1.1354826e-05 
1.6561287e-05 -7.3567812e-06 -1.5549573e-05 
2.4539839e-05 -3.2783196e-06 -1.4724787e-05 
3.5352863e-05 -1.5077161e-05 -1.5579331e-05 
4.1198538e-05 -1.4914972e-05 -9.6609501e-06 
4.4961373e-05 -1.6680300e-05 -2.9555741e-07 
4.2401571e-05 -1.6925367e-05 8.0139025e-06 
3.7327780e-05 -9.7340335e-06 1.5157766e-05 
3.0540152e-05 -7.8044395e-06 2.0202615e-05 
1.9704190e-05 -6.3730795e-06 1.9709925e-05 
8.2104034e-06 -3.8884946e-06 1.7629331e-05 
3.6679889e-06 -2.6677246e-06 1.1565396e-05 
5.8526967e-07 -1.3312906e-06 4.7294420e-06 
-6.7821759e-07 -9.5375037e-07 -2.6314677e-07 
-9.9782562e-07 3.8228205e-07 -1.6890860e-06 
-9.6675603e-07 1.8485257e-06 -2.1748704e-06 
-5.8076790e-07 8.5593820e-07 -2.2187246e-06 
-4.4738866e-07 -3.7059851e-07 -1.8305481e-06 
-4.5549390e-07 -1.5869584e-07 -1.4211214e-06 
-3.7452855e-07 7.8227811e-07 -1.0039121e-06 
0.0000000e+00 1.2135564e-05 0.0000000e+00 
0.0000000e+00 2.9673161e-05 0.0000000e+00 
0.0000000e+00 5.4336619e-05 0.0000000e+00 
0.0000000e+00 6.3540982e-05 0.0000000e+00 
0.0000000e+00 4.3062013e-05 0.0000000e+00 
0.0000000e+00 3.9617222e-05 0.0000000e+00 
0.0000000e+00 1.9121970e-05 0.0000000e+00 
0.0000000e+00 -2.8436143e-05 0.0000000e+00 
0.0000000e+00 -2.9713316e-05 0.0000000e+00 
0.0000000e+00 -3.6536218e-05 0.0000000e+00 
0.0000000e+00 -1.3721806e-04 0.0000000e+00 
0.0000000e+00 -1.5068038e-04 0.0000000e+00 
0.0000000e+00 -2.9270555e-04 0.0000000e+00 
0.0000000e+00 -4.4496445e-04 0.0000000e+00 
0.0000000e+00 -4.6648283e-04 0.0000000e+00 
0.0000000e+00 -4.8529371e-04 0.0000000e+00 
0.0000000e+00 -3.7081973e-04 0.0000000e+00 
0.0000000e+00 -2.0562367e-04 0.0000000e+00 
0.0000000e+00 -2.2109367e-05 0.0000000e+00 
0.0000000e+00 7.9684556e-05 0.0000000e+00 
0.0000000e+00 1.1921747e-04 0.0000000e+00 
0.0000000e+00 1.1026351e-04 0.0000000e+00 
0.0000000e+00 1.4177508e-04 0.0000000e+00 
0.0000000e+00 1.3290558e-04 0.0000000e+00 
0.0000000e+00 8.9495297e-05 0.0000000e+00 
0.0000000e+00 3.3876993e-05 0.0000000e+00 
0.0000000e+00 2.4685125e-05 0.0000000e+00 
0.0000000e+00 -5.6194567e-05 0.0000000e+00 
0.0000000e+00 -3.5331283e-05 0.0000000e+00 
0.0000000e+00 -2.4178380e-05 0.0000000e+00 
0.0000000e+00 -1.2577583e-04 0.0000000e+00 
0.0000000e+00 -1.8846132e-04 0.0000000e+00 
0.0000000e+00 -3.1784130e-04 0.0000000e+00 
0.0000000e+00 -5.4291665e-04 0.0000000e+00 
0.0000000e+00 -5.4811098e-04 0.0000000e+00 
0.0000000e+00 -5.1029050e-04 0.0000000e+00 
0.0000000e+00 -3.9139509e-04 0.0000000e+00 
0.0000000e+00 -2.1605458e-04 0.0000000e+00 
0.0000000e+00 -6.5474778e-05 0.0000000e+00 
0.0000000e+00 -3.2103697e-05 0.0000000e+00 
0.0000000e+00 -2.2198716e-07 0.0000000e+00 
0.0000000e+00 2.2469065e-05 0.0000000e+00 
0.0000000e+00 2.8715835e-05 0.0000000e+00 
0.0000000e+00 2.0250314e-05 0.0000000e+00 
0.0000000e+00 5.7496472e-06 0.0000000e+00 
0.0000000e+00 -1.5624499e-05 0.0000000e+00 
0.0000000e+00 -2.1178141e-05 0.0000000e+00 
0.0000000e+00 -3.6318643e-06 0.0000000e+00 
0.0000000e+00 9.4316692e-06 0.0000000e+00 
3.9139086e-06 -1.2293615e-06 -3.6457607e-06 
1.3638081e-06 -2.5008251e-06 -2.0899708e-06 
1.6346909e-06 -9.4009347e-06 -2.0223977e-06 
-6.6734498e-07 -1.0359741e-05 -5.7986213e-06 
-3.2079228e-08 3.9630316e-07 -8.9204985e-07 
-1.2833343e-07 2.1637143e-06 -1.3766837e-06 
-6.1471223e-07 4.0179966e-06 -1.2416534e-06 
-3.9927968e-07 4.6076766e-06 -1.0035898e-06 
9.0099655e-07 -6.6405693e-07 -1.3178499e-06 
2.0281159e-06 -1.8984283e-06 -8.2316930e-08 
1.7803949e-06 -2.6422965e-06 -2.4529877e-06 
-6.0287863e-07 -5.0020117e-06 -9.2084548e-07 
1.4994948e-06 -6.0022887e-07 -2.8888435e-06 
-4.5899674e-07 -2.2242950e-06 -6.2550380e-06 
3.4778473e-06 -8.5189649e-06 -4.1338403e-06 
1.4476507e-06 2.2839472e-06 -5.4076236e-06 
4.5213560e-06 -4.4276089e-06 -9.6467065e-06 
1.5108729e-05 -7.6547622e-06 -2.2208165e-05 
2.5126672e-05 7.8626335e-06 -2.0785694e-05 
3.0272002e-05 -1.5919828e-06 -1.1735637e-05 
3.4516757e-05 -6.5361678e-06 -6.4254768e-06 
3.4385401e-05 -4.4352182e-06 -6.6948684e-07 
3.5008121e-05 -1.7524118e-05 5.6591784e-06 
4.1569747e-05 -1.3043562e-05 1.3868186e-05 
3.3254870e-05 -1.0407565e-05 1.4712519e-05 
2.3638609e-05 -9.0064505e-06 1.5744185e-05 
2.2221086e-05 -3.8803892e-06 2.0578400e-05 