# vtk DataFile Version 4.0
vtk output
ASCII
DATASET UNSTRUCTURED_GRID
POINTS 1919 float
0.0000000e+00 0.0000000e+00 0.0000000e+00 
0.0000000e+00 0.0000000e+00 5.0000000e+01 
5.0000000e+00 0.0000000e+00 0.0000000e+00 
5.0000000e+00 0.0000000e+00 5.0000000e+01 
5.0000000e+00 1.0000000e+00 0.0000000e+00 
5.0000000e+00 1.0000000e+00 5.0000000e+01 
0.0000000e+00 1.0000000e+00 0.0000000e+00 
0.0000000e+00 1.0000000e+00 5.0000000e+01 
5.0000000e+00 2.0000000e+00 0.0000000e+00 
5.0000000e+00 2.0000000e+00 5.0000000e+01 
3.0000000e+00 2.0000000e+00 0.0000000e+00 
3.0000000e+00 2.0000000e+00 5.0000000e+01 
0.0000000e+00 2.0000000e+00 0.0000000e+00 
0.0000000e+00 2.0000000e+00 5.0000000e+01 
1.5000000e+00 3.0000000e+00 0.0000000e+00 
1.5000000e+00 3.0000000e+00 5.0000000e+01 
7.5000000e-01 3.0000000e+00 0.0000000e+00 
7.5000000e-01 3.0000000e+00 5.0000000e+01 
0.0000000e+00 3.0000000e+00 0.0000000e+00 
0.0000000e+00 3.0000000e+00 5.0000000e+01 
7.5000000e-01 3.0000000e+00 5.0000000e-01 
7.5000000e-01 3.0000000e+00 1.0000000e+00 
7.5000000e-01 3.0000000e+00 1.5000000e+00 
7.5000000e-01 3.0000000e+00 2.0000000e+00 
7.5000000e-01 3.0000000e+00 2.5000000e+00 
7.5000000e-01 3.0000000e+00 3.0000000e+00 
7.5000000e-01 3.0000000e+00 3.5000000e+00 
7.5000000e-01 3.0000000e+00 4.0000000e+00 
7.5000000e-01 3.0000000e+00 4.5000000e+00 
7.5000000e-01 3.0000000e+00 5.0000000e+00 
7.5000000e-01 3.0000000e+00 5.5000000e+00 
7.5000000e-01 3.0000000e+00 6.0000000e+00 
7.5000000e-01 3.0000000e+00 6.5000000e+00 
7.5000000e-01 3.0000000e+00 7.0000000e+00 
7.5000000e-01 3.0000000e+00 7.5000000e+00 
7.5000000e-01 3.0000000e+00 8.0000000e+00 
7.5000000e-01 3.0000000e+00 8.5000000e+00 
7.5000000e-01 3.0000000e+00 9.0000000e+00 
7.5000000e-01 3.0000000e+00 9.5000000e+00 
7.5000000e-01 3.0000000e+00 1.0000000e+01 
7.5000000e-01 3.0000000e+00 1.0500000e+01 
7.5000000e-01 3.0000000e+00 1.1000000e+01 
7.5000000e-01 3.0000000e+00 1.1500000e+01 
7.5000000e-01 3.0000000e+00 1.2000000e+01 
7.5000000e-01 3.0000000e+00 1.2500000e+01 
7.5000000e-01 3.0000000e+00 1.3000000e+01 
7.5000000e-01 3.0000000e+00 1.3500000e+01 
7.5000000e-01 3.0000000e+00 1.4000000e+01 
7.5000000e-01 3.0000000e+00 1.4500000e+01 
7.5000000e-01 3.0000000e+00 1.5000000e+01 
7.5000000e-01 3.0000000e+00 1.5500000e+01 
7.5000000e-01 3.0000000e+00 1.6000000e+01 
7.5000000e-01 3.0000000e+00 1.6500000e+01 
7.5000000e-01 3.0000000e+00 1.7000000e+01 
7.5000000e-01 3.0000000e+00 1.7500000e+01 
7.5000000e-01 3.0000000e+00 1.8000000e+01 
7.5000000e-01 3.0000000e+00 1.8500000e+01 
7.5000000e-01 3.0000000e+00 1.9000000e+01 
7.5000000e-01 3.0000000e+00 1.9500000e+01 
7.5000000e-01 3.0000000e+00 2.0000000e+01 
7.5000000e-01 3.0000000e+00 2.0500000e+01 
7.5000000e-01 3.0000000e+00 2.1000000e+01 
7.5000000e-01 3.0000000e+00 2.1500000e+01 
7.5000000e-01 3.0000000e+00 2.2000000e+01 
7.5000000e-01 3.0000000e+00 2.2500000e+01 
7.5000000e-01 3.0000000e+00 2.3000000e+01 
7.5000000e-01 3.0000000e+00 2.3500000e+01 
7.5000000e-01 3.0000000e+00 2.4000000e+01 
7.5000000e-01 3.0000000e+00 2.4500000e+01 
7.5000000e-01 3.0000000e+00 2.5000000e+01 
7.5000000e-01 3.0000000e+00 2.5500000e+01 
7.5000000e-01 3.0000000e+00 2.6000000e+01 
7.5000000e-01 3.0000000e+00 2.6500000e+01 
7.5000000e-01 3.0000000e+00 2.7000000e+01 
7.5000000e-01 3.0000000e+00 2.7500000e+01 
7.5000000e-01 3.0000000e+00 2.8000000e+01 
7.5000000e-01 3.0000000e+00 2.8500000e+01 
7.5000000e-01 3.0000000e+00 2.9000000e+01 
7.5000000e-01 3.0000000e+00 2.9500000e+01 
7.5000000e-01 3.0000000e+00 3.0000000e+01 
7.5000000e-01 3.0000000e+00 3.0500000e+01 
7.5000000e-01 3.0000000e+00 3.1000000e+01 
7.5000000e-01 3.0000000e+00 3.1500000e+01 
7.5000000e-01 3.0000000e+00 3.2000000e+01 
7.5000000e-01 3.0000000e+00 3.2500000e+01 
7.5000000e-01 3.0000000e+00 3.3000000e+01 
7.5000000e-01 3.0000000e+00 3.3500000e+01 
7.5000000e-01 3.0000000e+00 3.4000000e+01 
7.5000000e-01 3.0000000e+00 3.4500000e+01 
7.5000000e-01 3.0000000e+00 3.5000000e+01 
7.5000000e-01 3.0000000e+00 3.5500000e+01 
7.5000000e-01 3.0000000e+00 3.6000000e+01 
7.5000000e-01 3.0000000e+00 3.6500000e+01 
7.5000000e-01 3.0000000e+00 3.7000000e+01 
7.5000000e-01 3.0000000e+00 3.7500000e+01 
7.5000000e-01 3.0000000e+00 3.8000000e+01 
7.5000000e-01 3.0000000e+00 3.8500000e+01 
7.5000000e-01 3.0000000e+00 3.9000000e+01 
7.5000000e-01 3.0000000e+00 3.9500000e+01 
7.5000000e-01 3.0000000e+00 4.0000000e+01 
7.5000000e-01 3.0000000e+00 4.0500000e+01 
7.5000000e-01 3.0000000e+00 4.1000000e+01 
7.5000000e-01 3.0000000e+00 4.1500000e+01 
7.5000000e-01 3.0000000e+00 4.2000000e+01 
7.5000000e-01 3.0000000e+00 4.2500000e+01 
7.5000000e-01 3.0000000e+00 4.3000000e+01 
7.5000000e-01 3.0000000e+00 4.3500000e+01 
7.5000000e-01 3.0000000e+00 4.4000000e+01 
7.5000000e-01 3.0000000e+00 4.4500000e+01 
7.5000000e-01 3.0000000e+00 4.5000000e+01 
7.5000000e-01 3.0000000e+00 4.5500000e+01 
7.5000000e-01 3.0000000e+00 4.6000000e+01 
7.5000000e-01 3.0000000e+00 4.6500000e+01 
7.5000000e-01 3.0000000e+00 4.7000000e+01 
7.5000000e-01 3.0000000e+00 4.7500000e+01 
7.5000000e-01 3.0000000e+00 4.8000000e+01 
7.5000000e-01 3.0000000e+00 4.8500000e+01 
7.5000000e-01 3.0000000e+00 4.9000000e+01 
7.5000000e-01 3.0000000e+00 4.9500000e+01 
7.5000000e-01 3.0250001e+00 0.0000000e+00 
7.5000000e-01 3.0250001e+00 5.0000000e-01 
7.5000000e-01 3.0250001e+00 1.0000000e+00 
7.5000000e-01 3.0250001e+00 1.5000000e+00 
7.5000000e-01 3.0250001e+00 2.0000000e+00 
7.5000000e-01 3.0250001e+00 2.5000000e+00 
7.5000000e-01 3.0250001e+00 3.0000000e+00 
7.5000000e-01 3.0250001e+00 3.5000000e+00 
7.5000000e-01 3.0250001e+00 4.0000000e+00 
7.5000000e-01 3.0250001e+00 4.5000000e+00 
7.5000000e-01 3.0250001e+00 5.0000000e+00 
7.5000000e-01 3.0250001e+00 5.5000000e+00 
7.5000000e-01 3.0250001e+00 6.0000000e+00 
7.5000000e-01 3.0250001e+00 6.5000000e+00 
7.5000000e-01 3.0250001e+00 7.0000000e+00 
7.5000000e-01 3.0250001e+00 7.5000000e+00 
7.5000000e-01 3.0250001e+00 8.0000000e+00 
7.5000000e-01 3.0250001e+00 8.5000000e+00 
7.5000000e-01 3.0250001e+00 9.0000000e+00 
7.5000000e-01 3.0250001e+00 9.5000000e+00 
7.5000000e-01 3.0250001e+00 1.0000000e+01 
7.5000000e-01 3.0250001e+00 1.0500000e+01 
7.5000000e-01 3.0250001e+00 1.1000000e+01 
7.5000000e-01 3.0250001e+00 1.1500000e+01 
7.5000000e-01 3.0250001e+00 1.2000000e+01 
7.5000000e-01 3.0250001e+00 1.2500000e+01 
7.5000000e-01 3.0250001e+00 1.3000000e+01 
7.5000000e-01 3.0250001e+00 1.3500000e+01 
7.5000000e-01 3.0250001e+00 1.4000000e+01 
7.5000000e-01 3.0250001e+00 1.4500000e+01 
7.5000000e-01 3.0250001e+00 1.5000000e+01 
7.5000000e-01 3.0250001e+00 1.5500000e+01 
7.5000000e-01 3.0250001e+00 1.6000000e+01 
7.5000000e-01 3.0250001e+00 1.6500000e+01 
7.5000000e-01 3.0250001e+00 1.7000000e+01 
7.5000000e-01 3.0250001e+00 1.7500000e+01 
7.5000000e-01 3.0250001e+00 1.8000000e+01 
7.5000000e-01 3.0250001e+00 1.8500000e+01 
7.5000000e-01 3.0250001e+00 1.9000000e+01 
7.5000000e-01 3.0250001e+00 1.9500000e+01 
7.5000000e-01 3.0250001e+00 2.0000000e+01 
7.5000000e-01 3.0250001e+00 2.0500000e+01 
7.5000000e-01 3.0250001e+00 2.1000000e+01 
7.5000000e-01 3.0250001e+00 2.1500000e+01 
7.5000000e-01 3.0250001e+00 2.2000000e+01 
7.5000000e-01 3.0250001e+00 2.2500000e+01 
7.5000000e-01 3.0250001e+00 2.3000000e+01 
7.5000000e-01 3.0250001e+00 2.3500000e+01 
7.5000000e-01 3.0250001e+00 2.4000000e+01 
7.5000000e-01 3.0250001e+00 2.4500000e+01 
7.5000000e-01 3.0250001e+00 2.5000000e+01 
7.5000000e-01 3.0250001e+00 2.5500000e+01 
7.5000000e-01 3.0250001e+00 2.6000000e+01 
7.5000000e-01 3.0250001e+00 2.6500000e+01 
7.5000000e-01 3.0250001e+00 2.7000000e+01 
7.5000000e-01 3.0250001e+00 2.7500000e+01 
7.5000000e-01 3.0250001e+00 2.8000000e+01 
7.5000000e-01 3.0250001e+00 2.8500000e+01 
7.5000000e-01 3.0250001e+00 2.9000000e+01 
7.5000000e-01 3.0250001e+00 2.9500000e+01 
7.5000000e-01 3.0250001e+00 3.0000000e+01 
7.5000000e-01 3.0250001e+00 3.0500000e+01 
7.5000000e-01 3.0250001e+00 3.1000000e+01 
7.5000000e-01 3.0250001e+00 3.1500000e+01 
7.5000000e-01 3.0250001e+00 3.2000000e+01 
7.5000000e-01 3.0250001e+00 3.2500000e+01 
7.5000000e-01 3.0250001e+00 3.3000000e+01 
7.5000000e-01 3.0250001e+00 3.3500000e+01 
7.5000000e-01 3.0250001e+00 3.4000000e+01 
7.5000000e-01 3.0250001e+00 3.4500000e+01 
7.5000000e-01 3.0250001e+00 3.5000000e+01 
7.5000000e-01 3.0250001e+00 3.5500000e+01 
7.5000000e-01 3.0250001e+00 3.6000000e+01 
7.5000000e-01 3.0250001e+00 3.6500000e+01 
7.5000000e-01 3.0250001e+00 3.7000000e+01 
7.5000000e-01 3.0250001e+00 3.7500000e+01 
7.5000000e-01 3.0250001e+00 3.8000000e+01 
7.5000000e-01 3.0250001e+00 3.8500000e+01 
7.5000000e-01 3.0250001e+00 3.9000000e+01 
7.5000000e-01 3.0250001e+00 3.9500000e+01 
7.5000000e-01 3.0250001e+00 4.0000000e+01 
7.5000000e-01 3.0250001e+00 4.0500000e+01 
7.5000000e-01 3.0250001e+00 4.1000000e+01 
7.5000000e-01 3.0250001e+00 4.1500000e+01 
7.5000000e-01 3.0250001e+00 4.2000000e+01 
7.5000000e-01 3.0250001e+00 4.2500000e+01 
7.5000000e-01 3.0250001e+00 4.3000000e+01 
7.5000000e-01 3.0250001e+00 4.3500000e+01 
7.5000000e-01 3.0250001e+00 4.4000000e+01 
7.5000000e-01 3.0250001e+00 4.4500000e+01 
7.5000000e-01 3.0250001e+00 4.5000000e+01 
7.5000000e-01 3.0250001e+00 4.5500000e+01 
7.5000000e-01 3.0250001e+00 4.6000000e+01 
7.5000000e-01 3.0250001e+00 4.6500000e+01 
7.5000000e-01 3.0250001e+00 4.7000000e+01 
7.5000000e-01 3.0250001e+00 4.7500000e+01 
7.5000000e-01 3.0250001e+00 4.8000000e+01 
7.5000000e-01 3.0250001e+00 4.8500000e+01 
7.5000000e-01 3.0250001e+00 4.9000000e+01 
7.5000000e-01 3.0250001e+00 4.9500000e+01 
7.5000000e-01 3.0250001e+00 5.0000000e+01 
3.0000000e+00 2.0000000e+00 3.6000000e+01 
8.0487806e-01 3.0000000e+00 3.6000000e+01 
0.0000000e+00 0.0000000e+00 1.0000000e+00 
0.0000000e+00 0.0000000e+00 2.0000000e+00 
0.0000000e+00 0.0000000e+00 3.0000000e+00 
0.0000000e+00 0.0000000e+00 4.0000000e+00 
0.0000000e+00 0.0000000e+00 5.0000000e+00 
0.0000000e+00 0.0000000e+00 6.0000000e+00 
0.0000000e+00 0.0000000e+00 7.0000000e+00 
0.0000000e+00 0.0000000e+00 8.0000000e+00 
[...]
POINT_DATA 1919
FIELD FieldData 3
DISPLACEMENT 3 1919  float
0.0000000e+00 0.0000000e+00 0.0000000e+00 
0.0000000e+00 0.0000000e+00 0.0000000e+00 
0.0000000e+00 0.0000000e+00 0.0000000e+00 
0.0000000e+00 0.0000000e+00 0.0000000e+00 
-1.4690216e-06 -6.0525485e-06 -6.7838810e-06 
-2.0990404e-08 6.3129647e-08 -5.1510289e-09 
0.0000000e+00 -5.5286742e-05 0.0000000e+00 
0.0000000e+00 -3.0770053e-08 0.0000000e+00 
1.5526266e-05 -4.4477547e-06 -1.0034443e-05 
-7.9637260e-08 9.6735683e-08 -2.6042370e-08 
1.1478368e-05 9.1376178e-06 6.2489121e-06 
1.0450543e-08 -1.9395785e-08 8.6440409e-08 
0.0000000e+00 -1.0670695e-04 0.0000000e+00 
0.0000000e+00 -2.1838041e-07 0.0000000e+00 
5.7410554e-05 9.3872732e-05 9.6985241e-05 
1.7275872e-07 -9.2902167e-07 3.7556765e-07 
3.9945175e-05 1.8959002e-04 9.2508868e-05 
4.4684480e-08 4.0159264e-07 -9.9047440e-08 
0.0000000e+00 -5.6565823e-05 0.0000000e+00 
0.0000000e+00 -8.5696121e-07 0.0000000e+00 
-2.9421884e-05 1.3632575e-04 1.0580312e-04 
-3.7456441e-05 2.6184322e-05 4.3621327e-05 
-7.5819276e-05 -5.9458383e-05 2.4619152e-05 
-4.7328307e-05 -8.9292909e-05 5.8617021e-05 
-8.4454849e-05 -1.1885669e-04 1.1494183e-04 
-6.5114495e-05 -2.9103464e-04 1.0673135e-04 
-1.3896883e-04 -7.5340696e-04 1.7923836e-04 
-1.4032124e-04 -1.5637174e-03 1.2109476e-04 
-2.2670222e-04 -2.6608242e-03 2.0531740e-04 
-3.1061837e-04 -3.8248089e-03 5.5003453e-05 
-2.8552377e-04 -4.7273594e-03 8.7744273e-05 
-3.2043489e-04 -4.9305730e-03 -4.5505320e-05 
-3.4618605e-04 -4.7272081e-03 -1.0805640e-04 
-3.3005764e-04 -4.5926995e-03 -1.3483599e-04 
-2.7697443e-04 -4.6806065e-03 -1.3368810e-04 
-2.9395148e-04 -4.6328115e-03 -1.9765682e-04 
-2.3912378e-04 -4.0221140e-03 -2.9520178e-04 
-1.1418279e-04 -2.9117761e-03 -1.9927855e-04 
-2.8262426e-05 -1.7975798e-03 -2.7901787e-04 
1.5868320e-05 -9.1137516e-04 -1.3354467e-04 
5.1919811e-05 -3.1428316e-04 -6.2279316e-05 
3.3138869e-05 1.6416589e-05 9.3162460e-05 
-2.9501258e-05 1.3022849e-04 1.6936629e-04 
-5.8288559e-05 1.1135012e-04 1.8128891e-04 
-8.3466162e-05 4.4994573e-05 1.2997829e-04 
-7.5363532e-05 -1.3766553e-05 2.5150821e-05 
-4.1839496e-05 -3.8758972e-05 -6.5608619e-05 
-2.3565677e-05 -3.9816790e-05 -9.1139533e-05 
8.8682973e-06 -2.7128101e-05 -1.1342994e-04 
4.0667401e-05 -4.5805500e-06 -9.2009934e-05 
5.2740063e-05 3.1322717e-05 -4.7014200e-05 
5.2202267e-05 8.1558734e-05 -1.1402074e-05 
4.2305888e-05 1.3038627e-04 1.1801575e-05 
4.2455857e-05 1.5869454e-04 4.1341194e-05 
5.6017845e-05 1.5465544e-04 6.3634296e-05 
3.2733937e-05 1.1950912e-04 6.3087005e-05 
3.0972125e-05 7.3491887e-05 4.7228623e-05 
-4.1482454e-07 4.5248085e-05 4.5837118e-05 
-4.7721449e-05 4.7266665e-05 4.5393081e-05 
-3.5725439e-05 6.8582616e-05 5.5778495e-05 
-5.2705451e-05 8.0601007e-05 7.3514086e-05 
-4.4764220e-05 5.3917694e-05 7.7035838e-05 
-7.1900504e-05 -1.2459045e-05 8.7971610e-05 
-6.3148858e-05 -1.1701547e-04 1.1739979e-04 
-1.1092715e-04 -2.7289300e-04 1.4054442e-04 
-1.2599207e-04 -5.3011603e-04 1.2246521e-04 
-1.6857641e-04 -9.8629203e-04 2.0766283e-04 
-1.8194880e-04 -1.7561874e-03 1.0344326e-04 
-2.4405964e-04 -2.8667934e-03 1.6333346e-04 
-3.5373270e-04 -4.1129133e-03 -3.3290453e-05 
-3.7688951e-04 -5.0410042e-03 -4.4686582e-05 
-3.9611492e-04 -5.1059374e-03 -1.6731925e-04 
-3.5453436e-04 -4.8331986e-03 -2.5134557e-04 
-2.8990165e-04 -4.7143125e-03 -2.7110628e-04 
-2.3014883e-04 -4.8815068e-03 -2.5677416e-04 
-2.6000376e-04 -4.8527876e-03 -2.2345403e-04 
-2.3779344e-04 -4.1083945e-03 -2.5559697e-04 
-1.3610131e-04 -2.9218241e-03 -7.2444003e-05 
-1.1169707e-04 -1.7716674e-03 -1.4602674e-04 
-4.4041004e-05 -8.5257797e-04 -2.5235830e-05 
-1.6482294e-05 -2.5165657e-04 -4.4757136e-05 
-1.6888232e-05 6.3604210e-05 2.4517802e-05 
-2.3350545e-05 1.6741248e-04 5.6781762e-05 
-2.4970332e-05 1.5775087e-04 8.1970000e-05 
-5.0199604e-05 1.1425820e-04 6.4641827e-05 
-5.3294149e-05 6.7759553e-05 -1.1397105e-05 
-2.5005167e-05 2.7739425e-05 -8.0938342e-05 
-1.4293590e-06 -2.9477358e-06 -1.1721385e-04 
2.0591935e-05 -1.5547785e-05 -1.1044872e-04 
3.6473917e-05 -1.1195874e-05 -4.6716872e-05 
3.0270698e-05 1.9126601e-07 -4.0896016e-06 
1.7576789e-05 7.0871538e-06 2.0351554e-05 
4.1885946e-06 6.9363114e-06 2.7318505e-05 
-3.6211534e-06 4.4569165e-06 3.1242300e-05 
-8.6668315e-06 4.2684919e-06 2.5983456e-05 
-7.8115763e-06 4.7137241e-06 1.1603232e-05 
-5.7173420e-06 2.6140440e-06 1.5653869e-06 
-2.9911014e-06 -1.9277863e-06 -4.4418393e-06 
-7.4133119e-08 -5.3852473e-06 -6.5123877e-06 
3.8510851e-08 -5.2921396e-06 -5.4138563e-06 
1.3200140e-06 -2.0850043e-06 -4.0935829e-06 
1.1844227e-06 1.2339657e-06 -1.2164751e-06 
9.1876348e-07 2.0699792e-06 1.8128837e-07 
6.7994523e-07 9.0469052e-07 8.9202933e-07 
-4.6354344e-08 -3.3838666e-07 1.3867021e-06 
-3.0710879e-07 -6.1937197e-07 6.1028953e-07 
-2.9470246e-07 -1.7235249e-07 1.0990071e-06 
-2.2768760e-09 2.0422901e-07 -4.8167973e-08 
-2.5074991e-07 1.7639768e-07 6.9578370e-09 
-3.3069620e-07 5.8508071e-08 -2.0721838e-07 
-2.0056219e-09 2.4421993e-07 -3.5192210e-07 
8.1879193e-08 4.7278058e-07 -3.3334371e-07 
8.4389178e-08 3.7027093e-07 1.0198050e-07 
4.6841894e-08 -3.8222307e-08 -1.2327038e-07 
1.3742976e-08 -4.7113966e-07 2.5033910e-07 
-1.7671530e-08 -5.9067304e-07 2.7732996e-08 
-2.9793499e-08 -3.4506149e-07 6.9270691e-09 
-7.9409311e-08 6.2681278e-09 1.3399450e-08 
-6.9239605e-09 2.9064506e-07 3.6585476e-08 
0.0000000e+00 1.8727273e-04 0.0000000e+00 
0.0000000e+00 1.3562545e-04 0.0000000e+00 
0.0000000e+00 2.8226470e-05 0.0000000e+00 
0.0000000e+00 -5.6055043e-05 0.0000000e+00 
0.0000000e+00 -8.5554668e-05 0.0000000e+00 
0.0000000e+00 -1.1781669e-04 0.0000000e+00 
0.0000000e+00 -2.9368827e-04 0.0000000e+00 
0.0000000e+00 -7.5888529e-04 0.0000000e+00 
0.0000000e+00 -1.5727822e-03 0.0000000e+00 
0.0000000e+00 -2.6688855e-03 0.0000000e+00 
0.0000000e+00 -3.8441881e-03 0.0000000e+00 
0.0000000e+00 -4.7471058e-03 0.0000000e+00 
0.0000000e+00 -4.9631591e-03 0.0000000e+00 
0.0000000e+00 -4.7521512e-03 0.0000000e+00 
0.0000000e+00 -4.6191574e-03 0.0000000e+00 
0.0000000e+00 -4.6976134e-03 0.0000000e+00 
0.0000000e+00 -4.6623414e-03 0.0000000e+00 
0.0000000e+00 -4.0417351e-03 0.0000000e+00 
0.0000000e+00 -2.9313730e-03 0.0000000e+00 
0.0000000e+00 -1.8055517e-03 0.0000000e+00 
0.0000000e+00 -9.1502775e-04 0.0000000e+00 
0.0000000e+00 -3.1569449e-04 0.0000000e+00 
0.0000000e+00 1.4754306e-05 0.0000000e+00 
0.0000000e+00 1.3047447e-04 0.0000000e+00 
0.0000000e+00 1.1317106e-04 0.0000000e+00 
0.0000000e+00 4.6428449e-05 0.0000000e+00 
0.0000000e+00 -1.2192607e-05 0.0000000e+00 
0.0000000e+00 -3.8699040e-05 0.0000000e+00 
0.0000000e+00 -3.9973591e-05 0.0000000e+00 
0.0000000e+00 -2.7450942e-05 0.0000000e+00 
0.0000000e+00 -4.6101982e-06 0.0000000e+00 
0.0000000e+00 3.1908101e-05 0.0000000e+00 
0.0000000e+00 8.1686478e-05 0.0000000e+00 
0.0000000e+00 1.3037020e-04 0.0000000e+00 
0.0000000e+00 1.5854910e-04 0.0000000e+00 
0.0000000e+00 1.5397077e-04 0.0000000e+00 
0.0000000e+00 1.1891604e-04 0.0000000e+00 
0.0000000e+00 7.3746276e-05 0.0000000e+00 
0.0000000e+00 4.6081896e-05 0.0000000e+00 
0.0000000e+00 4.8629779e-05 0.0000000e+00 
0.0000000e+00 6.9463502e-05 0.0000000e+00 
0.0000000e+00 7.9698722e-05 0.0000000e+00 
0.0000000e+00 5.3647200e-05 0.0000000e+00 
0.0000000e+00 -1.2382747e-05 0.0000000e+00 
0.0000000e+00 -1.1567552e-04 0.0000000e+00 
0.0000000e+00 -2.7022095e-04 0.0000000e+00 
0.0000000e+00 -5.2843755e-04 0.0000000e+00 
0.0000000e+00 -9.8982011e-04 0.0000000e+00 
0.0000000e+00 -1.7674076e-03 0.0000000e+00 
0.0000000e+00 -2.8813425e-03 0.0000000e+00 
0.0000000e+00 -4.1370392e-03 0.0000000e+00 
0.0000000e+00 -5.0591659e-03 0.0000000e+00 
0.0000000e+00 -5.1337667e-03 0.0000000e+00 
0.0000000e+00 -4.8541813e-03 0.0000000e+00 
0.0000000e+00 -4.7462159e-03 0.0000000e+00 
0.0000000e+00 -4.9036443e-03 0.0000000e+00 
0.0000000e+00 -4.8844889e-03 0.0000000e+00 
0.0000000e+00 -4.1257381e-03 0.0000000e+00 
0.0000000e+00 -2.9380270e-03 0.0000000e+00 
0.0000000e+00 -1.7775485e-03 0.0000000e+00 
0.0000000e+00 -8.5870107e-04 0.0000000e+00 
0.0000000e+00 -2.5359591e-04 0.0000000e+00 
0.0000000e+00 6.3271196e-05 0.0000000e+00 
0.0000000e+00 1.6882589e-04 0.0000000e+00 
0.0000000e+00 1.6012133e-04 0.0000000e+00 
0.0000000e+00 1.1507338e-04 0.0000000e+00 
0.0000000e+00 6.8009482e-05 0.0000000e+00 
0.0000000e+00 2.7662420e-05 0.0000000e+00 
0.0000000e+00 -2.3098587e-06 0.0000000e+00 
0.0000000e+00 -1.5197619e-05 0.0000000e+00 
0.0000000e+00 -1.1343025e-05 0.0000000e+00 
0.0000000e+00 -3.1669859e-07 0.0000000e+00 
0.0000000e+00 6.9007024e-06 0.0000000e+00 
0.0000000e+00 7.0695455e-06 0.0000000e+00 
0.0000000e+00 4.7193184e-06 0.0000000e+00 
0.0000000e+00 4.2500155e-06 0.0000000e+00 
0.0000000e+00 4.5213078e-06 0.0000000e+00 
0.0000000e+00 2.5033896e-06 0.0000000e+00 
0.0000000e+00 -1.7971701e-06 0.0000000e+00 
0.0000000e+00 -5.2316918e-06 0.0000000e+00 
0.0000000e+00 -5.2295641e-06 0.0000000e+00 
0.0000000e+00 -2.1548087e-06 0.0000000e+00 
0.0000000e+00 1.0922250e-06 0.0000000e+00 
0.0000000e+00 2.0422519e-06 0.0000000e+00 
0.0000000e+00 9.7840825e-07 0.0000000e+00 
0.0000000e+00 -2.8725836e-07 0.0000000e+00 
0.0000000e+00 -6.2344111e-07 0.0000000e+00 
0.0000000e+00 -2.0871575e-07 0.0000000e+00 
0.0000000e+00 1.7964383e-07 0.0000000e+00 
0.0000000e+00 1.8909873e-07 0.0000000e+00 
0.0000000e+00 1.0037170e-07 0.0000000e+00 
0.0000000e+00 2.4596855e-07 0.0000000e+00 
0.0000000e+00 4.4334041e-07 0.0000000e+00 
0.0000000e+00 3.5265430e-07 0.0000000e+00 
0.0000000e+00 -4.2687990e-08 0.0000000e+00 
0.0000000e+00 -4.5507778e-07 0.0000000e+00 
0.0000000e+00 -5.6892992e-07 0.0000000e+00 
0.0000000e+00 -3.4349094e-07 0.0000000e+00 
0.0000000e+00 4.6732129e-09 0.0000000e+00 
0.0000000e+00 2.8528575e-07 0.0000000e+00 
0.0000000e+00 3.9311163e-07 0.0000000e+00 
1.3000687e-06 1.0994564e-05 -1.1929264e-05 
1.8306029e-05 8.1191447e-06 2.0660988e-05 
0.0000000e+00 0.0000000e+00 0.0000000e+00 
0.0000000e+00 0.0000000e+00 0.0000000e+00 
0.0000000e+00 0.0000000e+00 0.0000000e+00 
0.0000000e+00 0.0000000e+00 0.0000000e+00 
0.0000000e+00 0.0000000e+00 0.0000000e+00 
0.0000000e+00 0.0000000e+00 0.0000000e+00 
0.0000000e+00 0.0000000e+00 0.0000000e+00 
0.0000000e+00 0.0000000e+00 0.0000000e+00 
0.0000000e+00 0.0000000e+00 0.0000000e+00 
0.0000000e+00 0.0000000e+00 0.0000000e+00 
0.0000000e+00 0.0000000e+00 0.0000000e+00 
0.0000000e+00 0.0000000e+00 0.0000000e+00 
0.0000000e+00 0.0000000e+00 0.0000000e+00 
0.0000000e+00 0.0000000e+00 0.0000000e+00 
0.0000000e+00 0.0000000e+00 0.0000000e+00 
0.0000000e+00 0.0000000e+00 0.0000000e+00 
0.0000000e+00 0.0000000e+00 0.0000000e+00 
0.0000000e+00 0.0000000e+00 0.0000000e+00 
0.0000000e+00 0.0000000e+00 0.0000000e+00 
0.0000000e+00 0.0000000e+00 0.0000000e+00 
0.0000000e+00 0.0000000e+00 0.0000000e+00 
0.0000000e+00 0.0000000e+00 0.0000000e+00 
0.0000000e+00 0.0000000e+00 0.0000000e+00 
0.0000000e+00 0.0000000e+00 0.0000000e+00 
0.0000000e+00 0.0000000e+00 0.0000000e+00 
0.0000000e+00 0.0000000e+00 0.0000000e+00 
0.0000000e+00 0.0000000e+00 0.0000000e+00 
0.0000000e+00 0.0000000e+00 0.0000000e+00 
0.0000000e+00 0.0000000e+00 0.0000000e+00 
0.0000000e+00 0.0000000e+00 0.0000000e+00 
0.0000000e+00 0.0000000e+00 0.0000000e+00 
0.0000000e+00 0.0000000e+00 0.0000000e+00 
0.0000000e+00 0.0000000e+00 0.0000000e+00 
0.0000000e+00 0.0000000e+00 0.0000000e+00 
0.0000000e+00 0.0000000e+00 0.0000000e+00 
0.0000000e+00 0.0000000e+00 0.0000000e+00 
0.0000000e+00 0.0000000e+00 0.0000000e+00 
0.0000000e+00 0.0000000e+00 0.0000000e+00 
0.0000000e+00 0.0000000e+00 0.0000000e+00 
0.0000000e+00 0.0000000e+00 0.0000000e+00 
0.0000000e+00 0.0000000e+00 0.0000000e+00 
0.0000000e+00 0.0000000e+00 0.0000000e+00 
0.0000000e+00 0.0000000e+00 0.0000000e+00 
0.0000000e+00 0.0000000e+00 0.0000000e+00 
0.0000000e+00 0.0000000e+00 0.0000000e+00 
0.0000000e+00 0.0000000e+00 0.0000000e+00 
0.0000000e+00 0.0000000e+00 0.0000000e+00 
0.0000000e+00 0.0000000e+00 0.0000000e+00 
0.0000000e+00 0.0000000e+00 0.0000000e+00 
0.0000000e+00 0.0000000e+00 0.0000000e+00 
0.0000000e+00 0.0000000e+00 0.0000000e+00 
0.0000000e+00 0.0000000e+00 0.0000000e+00 
0.0000000e+00 0.0000000e+00 0.0000000e+00 
0.0000000e+00 0.0000000e+00 0.0000000e+00 
0.0000000e+00 0.0000000e+00 0.0000000e+00 
0.0000000e+00 0.0000000e+00 0.0000000e+00 
0.0000000e+00 0.0000000e+00 0.0000000e+00 
0.0000000e+00 0.0000000e+00 0.0000000e+00 
0.0000000e+00 0.0000000e+00 0.0000000e+00 
0.0000000e+00 0.0000000e+00 0.0000000e+00 
0.0000000e+00 0.0000000e+00 0.0000000e+00 
0.0000000e+00 0.0000000e+00 0.0000000e+00 
0.0000000e+00 0.0000000e+00 0.0000000e+00 
0.0000000e+00 0.0000000e+00 0.0000000e+00 
0.0000000e+00 0.0000000e+00 0.0000000e+00 
0.0000000e+00 0.0000000e+00 0.0000000e+00 
0.0000000e+00 0.0000000e+00 0.0000000e+00 
0.0000000e+00 0.0000000e+00 0.0000000e+00 
0.0000000e+00 0.0000000e+00 0.0000000e+00 
0.0000000e+00 0.0000000e+00 0.0000000e+00 
0.0000000e+00 0.0000000e+00 0.0000000e+00 
0.0000000e+00 0.0000000e+00 0.0000000e+00 
0.0000000e+00 0.0000000e+00 0.0000000e+00 
0.0000000e+00 0.0000000e+00 0.0000000e+00 
0.0000000e+00 0.0000000e+00 0.0000000e+00 
0.0000000e+00 0.0000000e+00 0.0000000e+00 
0.0000000e+00 0.0000000e+00 0.0000000e+00 
0.0000000e+00 0.0000000e+00 0.0000000e+00 
0.0000000e+00 0.0000000e+00 0.0000000e+00 
0.0000000e+00 0.0000000e+00 0.0000000e+00 
0.0000000e+00 0.0000000e+00 0.0000000e+00 
0.0000000e+00 0.0000000e+00 0.0000000e+00 
0.0000000e+00 0.0000000e+00 0.0000000e+00 
0.0000000e+00 0.0000000e+00 0.0000000e+00 
0.0000000e+00 0.0000000e+00 0.0000000e+00 
0.0000000e+00 0.0000000e+00 0.0000000e+00 
0.0000000e+00 0.0000000e+00 0.0000000e+00 
0.0000000e+00 0.0000000e+00 0.0000000e+00 
0.0000000e+00 0.0000000e+00 0.0000000e+00 
0.0000000e+00 0.0000000e+00 0.0000000e+00 
0.0000000e+00 0.0000000e+00 0.0000000e+00 
0.0000000e+00 0.0000000e+00 0.0000000e+00 
0.0000000e+00 0.0000000e+00 0.0000000e+00 
0.0000000e+00 0.0000000e+00 0.0000000e+00 
0.0000000e+00 0.0000000e+00 0.0000000e+00 
0.0000000e+00 0.0000000e+00 0.0000000e+00 
0.0000000e+00 0.0000000e+00 0.0000000e+00 
0.0000000e+00 0.0000000e+00 0.0000000e+00 
0.0000000e+00 0.0000000e+00 0.0000000e+00 
0.0000000e+00 0.0000000e+00 0.0000000e+00 
0.0000000e+00 0.0000000e+00 0.0000000e+00 
0.0000000e+00 0.0000000e+00 0.0000000e+00 
0.0000000e+00 0.0000000e+00 0.0000000e+00 
0.0000000e+00 0.0000000e+00 0.0000000e+00 
0.0000000e+00 0.0000000e+00 0.0000000e+00 
0.0000000e+00 0.0000000e+00 0.0000000e+00 
1.0201034e-05 3.7137809e-06 -5.1846400e-06 
1.2591161e-05 4.2642937e-06 -8.2131410e-06 
1.7760496e-05 -6.5948379e-06 -1.0676846e-05 
3.0665280e-05 -4.7687149e-06 -4.9397840e-06 
3.8506685e-05 6.3238190e-06 -1.1551534e-06 
3.8226728e-05 -5.2803334e-06 3.2899256e-06 
3.7286183e-05 -1.0304618e-05 2.5786626e-06 
2.8848381e-05 -2.6790003e-05 4.1499106e-06 
2.4469495e-05 -1.8221774e-05 2.8942097e-06 
2.0217623e-05 -2.3084422e-06 8.0269165e-06 
1.5870130e-05 7.5354010e-06 1.4142388e-05 
9.3144754e-06 -5.0765793e-06 2.3495066e-05 
2.8591339e-06 -5.7320258e-06 2.7144424e-05 
-4.2749020e-06 -6.5108384e-06 1.1409191e-05 
-4.1489370e-06 -2.5380230e-06 4.2008764e-06 
-3.4038428e-06 6.2253307e-06 1.9332235e-07 
-1.3448904e-06 2.0067323e-06 -6.3674997e-06 
3.1356483e-06 1.0102325e-06 -1.0478414e-05 
3.4369050e-06 1.3043889e-05 -1.0028603e-05 
1.6173981e-05 1.6992515e-05 -7.2836042e-06 
1.9893450e-05 1.4896776e-05 -7.8807670e-06 
2.2732433e-05 1.5413227e-05 -8.8366596e-06 
2.9576704e-05 4.5621173e-06 -1.3741114e-05 
3.0971041e-05 -1.5368591e-06 -1.2705736e-05 
3.8381142e-05 -5.1697816e-06 -8.5124984e-06 
3.6952220e-05 -1.1138965e-05 -3.1173531e-06 
3.4175086e-05 -1.0605407e-05 1.0332793e-06 
3.1377753e-05 -1.4418054e-05 3.6706922e-06 
2.9997484e-05 -1.1954473e-05 1.0795488e-05 
2.3460780e-05 -7.2015191e-06 2.0240837e-05 
1.5349675e-05 -2.7892397e-06 1.9524297e-05 
9.7411494e-06 -3.5281680e-06 1.6528887e-05 
4.7076132e-06 -4.7938552e-06 1.1981576e-05 
2.2620918e-07 -2.3897476e-06 2.2162710e-06 
-1.4185262e-06 1.6201066e-06 -2.3009218e-06 
-1.5749451e-06 2.9002788e-06 -4.2640368e-06 
-7.4224360e-08 2.5103645e-07 -3.0533515e-06 
-8.2666659e-08 -1.9982522e-07 -7.3444357e-07 
6.0893896e-08 -3.0450596e-07 6.8913914e-07 
-4.9070984e-08 2.1605884e-07 1.2674456e-06 
9.5248559e-08 -2.7781465e-07 4.7957570e-07 
1.9428467e-07 -6.9893069e-08 -1.4517127e-07 
2.7301040e-08 1.7501340e-07 3.9597460e-08 
-8.3336488e-08 -1.2369921e-07 3.6037076e-08 
-3.3762546e-09 -1.3056679e-07 -1.1374010e-07 
5.4096518e-09 1.0213606e-07 3.3795891e-09 
-4.5661036e-08 1.1055428e-07 7.1189021e-08 
-2.7582738e-08 -1.0414696e-07 -2.0066775e-08 
-7.4614794e-09 -9.9041280e-08 -5.6008520e-08 
0.0000000e+00 -1.1657843e-04 0.0000000e+00 
0.0000000e+00 -1.2030327e-04 0.0000000e+00 
0.0000000e+00 -1.6059601e-04 0.0000000e+00 
0.0000000e+00 -3.7248142e-04 0.0000000e+00 
0.0000000e+00 -5.6333665e-04 0.0000000e+00 
0.0000000e+00 -6.6720217e-04 0.0000000e+00 
0.0000000e+00 -6.4345734e-04 0.0000000e+00 
0.0000000e+00 -4.6400598e-04 0.0000000e+00 
0.0000000e+00 -2.9712150e-04 0.0000000e+00 
0.0000000e+00 -1.1786260e-04 0.0000000e+00 
0.0000000e+00 7.5054154e-06 0.0000000e+00 
0.0000000e+00 -3.3429505e-06 0.0000000e+00 
0.0000000e+00 -1.1736543e-05 0.0000000e+00 
0.0000000e+00 -1.7178556e-05 0.0000000e+00 
0.0000000e+00 -6.3690226e-05 0.0000000e+00 
0.0000000e+00 -5.0668092e-05 0.0000000e+00 
0.0000000e+00 -5.3585780e-05 0.0000000e+00 
0.0000000e+00 -5.2941079e-05 0.0000000e+00 
0.0000000e+00 -3.8348611e-05 0.0000000e+00 
0.0000000e+00 -1.2939431e-05 0.0000000e+00 
0.0000000e+00 -2.0159545e-05 0.0000000e+00 
0.0000000e+00 -1.2065156e-04 0.0000000e+00 
0.0000000e+00 -1.8885105e-04 0.0000000e+00 
0.0000000e+00 -3.5804612e-04 0.0000000e+00 
0.0000000e+00 -6.0190511e-04 0.0000000e+00 
0.0000000e+00 -7.0508383e-04 0.0000000e+00 
0.0000000e+00 -6.4804940e-04 0.0000000e+00 
0.0000000e+00 -4.9860677e-04 0.0000000e+00 
0.0000000e+00 -3.0892520e-04 0.0000000e+00 
0.0000000e+00 -8.6329354e-05 0.0000000e+00 
0.0000000e+00 1.2639167e-05 0.0000000e+00 
0.0000000e+00 5.1009060e-06 0.0000000e+00 
0.0000000e+00 -1.8925821e-05 0.0000000e+00 
0.0000000e+00 -1.1791745e-05 0.0000000e+00 
0.0000000e+00 2.5965148e-06 0.0000000e+00 
0.0000000e+00 5.7902112e-06 0.0000000e+00 
0.0000000e+00 6.2175995e-06 0.0000000e+00 
0.0000000e+00 2.4990427e-06 0.0000000e+00 
0.0000000e+00 -1.0218654e-06 0.0000000e+00 
0.0000000e+00 -2.4152878e-06 0.0000000e+00 
0.0000000e+00 -1.8647004e-06 0.0000000e+00 
0.0000000e+00 4.7295038e-07 0.0000000e+00 
0.0000000e+00 1.1824658e-06 0.0000000e+00 
0.0000000e+00 7.2411859e-07 0.0000000e+00 
0.0000000e+00 -9.5122871e-08 0.0000000e+00 
0.0000000e+00 -7.3066855e-07 0.0000000e+00 
0.0000000e+00 -1.4212860e-07 0.0000000e+00 
0.0000000e+00 6.1403892e-07 0.0000000e+00 
0.0000000e+00 2.9438161e-07 0.0000000e+00 
8.3892683e-06 1.1575601e-05 -4.9885657e-06 
3.0633028e-06 2.9628363e-06 -8.0355203e-06 
2.9446269e-06 -9.6541080e-06 -1.5917123e-05 
2.9207715e-06 -4.0754960e-05 -1.4609439e-05 
-1.2703186e-10 -7.4225085e-08 -4.7208218e-08 
-2.0042327e-08 -9.5924246e-09 -2.1349992e-08 
-1.6947443e-08 2.1472353e-07 6.1822611e-08 
8.9077467e-08 -8.3350152e-08 8.9693373e-09 
1.5563695e-05 4.2264974e-06 -7.1945146e-06 
2.1493392e-05 1.0109315e-05 -6.9282191e-06 
2.8052613e-05 7.5427596e-07 -8.1508479e-06 
2.7197189e-05 1.6339932e-07 -6.5633740e-06 
3.4263809e-05 1.6508908e-05 6.9996422e-06 
4.3290867e-05 6.8040285e-06 1.4815230e-05 
4.3738091e-05 -1.5649802e-06 2.0539954e-05 
3.0321096e-05 -2.9285138e-05 6.8110739e-06 
2.0403641e-05 -2.4292563e-05 -8.0423288e-06 
1.5311642e-05 4.9977791e-07 1.6772143e-06 
1.7349546e-05 1.2644328e-05 2.2558703e-05 
1.3943959e-05 -7.9687243e-06 3.9273258e-05 
5.2495221e-07 -7.5762941e-06 3.7690745e-05 
-1.0406102e-05 -9.1970642e-06 1.6866470e-05 
-4.5106040e-06 3.9379918e-07 -3.8884773e-06 
1.0519772e-05 1.2326883e-05 -1.3999559e-05 
1.5078352e-05 8.5061429e-06 -1.4423837e-05 
1.4961298e-05 9.4459692e-06 -1.6185561e-05 
2.7352628e-05 2.3865061e-05 -2.1147771e-05 
3.5674140e-05 2.5359011e-05 -1.6142258e-05 