# vtk DataFile Version 4.0
vtk output
ASCII
DATASET UNSTRUCTURED_GRID
POINTS 1919 float
0.0000000e+00 0.0000000e+00 0.0000000e+00 
0.0000000e+00 0.0000000e+00 5.0000000e+01 
5.0000000e+00 0.0000000e+00 0.0000000e+00 
5.0000000e+00 0.0000000e+00 5.0000000e+01 
5.0000000e+00 1.0000000e+00 0.0000000e+00 
5.0000000e+00 1.0000000e+00 5.0000000e+01 
0.0000000e+00 1.0000000e+00 0.0000000e+00 
0.0000000e+00 1.0000000e+00 5.0000000e+01 
5.0000000e+00 2.0000000e+00 0.0000000e+00 
5.0000000e+00 2.0000000e+00 5.0000000e+01 
3.0000000e+00 2.0000000e+00 0.0000000e+00 
3.0000000e+00 2.0000000e+00 5.0000000e+01 
0.0000000e+00 2.0000000e+00 0.0000000e+00 
0.0000000e+00 2.0000000e+00 5.0000000e+01 
1.5000000e+00 3.0000000e+00 0.0000000e+00 
1.5000000e+00 3.0000000e+00 5.0000000e+01 
7.5000000e-01 3.0000000e+00 0.0000000e+00 
7.5000000e-01 3.0000000e+00 5.0000000e+01 
0.0000000e+00 3.0000000e+00 0.0000000e+00 
0.0000000e+00 3.0000000e+00 5.0000000e+01 
7.5000000e-01 3.0000000e+00 5.0000000e-01 
7.5000000e-01 3.0000000e+00 1.0000000e+00 
7.5000000e-01 3.0000000e+00 1.5000000e+00 
7.5000000e-01 3.0000000e+00 2.0000000e+00 
7.5000000e-01 3.0000000e+00 2.5000000e+00 
7.5000000e-01 3.0000000e+00 3.0000000e+00 
7.5000000e-01 3.0000000e+00 3.5000000e+00 
7.5000000e-01 3.0000000e+00 4.0000000e+00 
7.5000000e-01 3.0000000e+00 4.5000000e+00 
7.5000000e-01 3.0000000e+00 5.0000000e+00 
7.5000000e-01 3.0000000e+00 5.5000000e+00 
7.5000000e-01 3.0000000e+00 6.0000000e+00 
7.5000000e-01 3.0000000e+00 6.5000000e+00 
7.5000000e-01 3.0000000e+00 7.0000000e+00 
7.5000000e-01 3.0000000e+00 7.5000000e+00 
7.5000000e-01 3.0000000e+00 8.0000000e+00 
7.5000000e-01 3.0000000e+00 8.5000000e+00 
7.5000000e-01 3.0000000e+00 9.0000000e+00 
7.5000000e-01 3.0000000e+00 9.5000000e+00 
7.5000000e-01 3.0000000e+00 1.0000000e+01 
7.5000000e-01 3.0000000e+00 1.0500000e+01 
7.5000000e-01 3.0000000e+00 1.1000000e+01 
7.5000000e-01 3.0000000e+00 1.1500000e+01 
7.5000000e-01 3.0000000e+00 1.2000000e+01 
7.5000000e-01 3.0000000e+00 1.2500000e+01 
7.5000000e-01 3.0000000e+00 1.3000000e+01 
7.5000000e-01 3.0000000e+00 1.3500000e+01 
7.5000000e-01 3.0000000e+00 1.4000000e+01 
7.5000000e-01 3.0000000e+00 1.4500000e+01 
7.5000000e-01 3.0000000e+00 1.5000000e+01 
7.5000000e-01 3.0000000e+00 1.5500000e+01 
7.5000000e-01 3.0000000e+00 1.6000000e+01 
7.5000000e-01 3.0000000e+00 1.6500000e+01 
7.5000000e-01 3.0000000e+00 1.7000000e+01 
7.5000000e-01 3.0000000e+00 1.7500000e+01 
7.5000000e-01 3.0000000e+00 1.8000000e+01 
7.5000000e-01 3.0000000e+00 1.8500000e+01 
7.5000000e-01 3.0000000e+00 1.9000000e+01 
7.5000000e-01 3.0000000e+00 1.9500000e+01 
7.5000000e-01 3.0000000e+00 2.0000000e+01 
7.5000000e-01 3.0000000e+00 2.0500000e+01 
7.5000000e-01 3.0000000e+00 2.1000000e+01 
7.5000000e-01 3.0000000e+00 2.1500000e+01 
7.5000000e-01 3.0000000e+00 2.2000000e+01 
7.5000000e-01 3.0000000e+00 2.2500000e+01 
7.5000000e-01 3.0000000e+00 2.3000000e+01 
7.5000000e-01 3.0000000e+00 2.3500000e+01 
7.5000000e-01 3.0000000e+00 2.4000000e+01 
7.5000000e-01 3.0000000e+00 2.4500000e+01 
7.5000000e-01 3.0000000e+00 2.5000000e+01 
7.5000000e-01 3.0000000e+00 2.5500000e+01 
7.5000000e-01 3.0000000e+00 2.6000000e+01 
7.5000000e-01 3.0000000e+00 2.6500000e+01 
7.5000000e-01 3.0000000e+00 2.7000000e+01 
7.5000000e-01 3.0000000e+00 2.7500000e+01 
7.5000000e-01 3.0000000e+00 2.8000000e+01 
7.5000000e-01 3.0000000e+00 2.8500000e+01 
7.5000000e-01 3.0000000e+00 2.9000000e+01 
7.5000000e-01 3.0000000e+00 2.9500000e+01 
7.5000000e-01 3.0000000e+00 3.0000000e+01 
7.5000000e-01 3.0000000e+00 3.0500000e+01 
7.5000000e-01 3.0000000e+00 3.1000000e+01 
7.5000000e-01 3.0000000e+00 3.1500000e+01 
7.5000000e-01 3.0000000e+00 3.2000000e+01 
7.5000000e-01 3.0000000e+00 3.2500000e+01 
7.5000000e-01 3.0000000e+00 3.3000000e+01 
7.5000000e-01 3.0000000e+00 3.3500000e+01 
7.5000000e-01 3.0000000e+00 3.4000000e+01 
7.5000000e-01 3.0000000e+00 3.4500000e+01 
7.5000000e-01 3.0000000e+00 3.5000000e+01 
7.5000000e-01 3.0000000e+00 3.5500000e+01 
7.5000000e-01 3.0000000e+00 3.6000000e+01 
7.5000000e-01 3.0000000e+00 3.6500000e+01 
7.5000000e-01 3.0000000e+00 3.7000000e+01 
7.5000000e-01 3.0000000e+00 3.7500000e+01 
7.5000000e-01 3.0000000e+00 3.8000000e+01 
7.5000000e-01 3.0000000e+00 3.8500000e+01 
7.5000000e-01 3.0000000e+00 3.9000000e+01 
7.5000000e-01 3.0000000e+00 3.9500000e+01 
7.5000000e-01 3.0000000e+00 4.0000000e+01 
7.5000000e-01 3.0000000e+00 4.0500000e+01 
7.5000000e-01 3.0000000e+00 4.1000000e+01 
7.5000000e-01 3.0000000e+00 4.1500000e+01 
7.5000000e-01 3.0000000e+00 4.2000000e+01 
7.5000000e-01 3.0000000e+00 4.2500000e+01 
7.5000000e-01 3.0000000e+00 4.3000000e+01 
7.5000000e-01 3.0000000e+00 4.3500000e+01 
7.5000000e-01 3.0000000e+00 4.4000000e+01 
7.5000000e-01 3.0000000e+00 4.4500000e+01 
7.5000000e-01 3.0000000e+00 4.5000000e+01 
7.5000000e-01 3.0000000e+00 4.5500000e+01 
7.5000000e-01 3.0000000e+00 4.6000000e+01 
7.5000000e-01 3.0000000e+00 4.6500000e+01 
7.5000000e-01 3.0000000e+00 4.7000000e+01 
7.5000000e-01 3.0000000e+00 4.7500000e+01 
7.5000000e-01 3.0000000e+00 4.8000000e+01 
7.5000000e-01 3.0000000e+00 4.8500000e+01 
7.5000000e-01 3.0000000e+00 4.9000000e+01 
7.5000000e-01 3.0000000e+00 4.9500000e+01 
7.5000000e-01 3.0250001e+00 0.0000000e+00 
7.5000000e-01 3.0250001e+00 5.0000000e-01 
7.5000000e-01 3.0250001e+00 1.0000000e+00 
7.5000000e-01 3.0250001e+00 1.5000000e+00 
7.5000000e-01 3.0250001e+00 2.0000000e+00 
7.5000000e-01 3.0250001e+00 2.5000000e+00 
7.5000000e-01 3.0250001e+00 3.0000000e+00 
7.5000000e-01 3.0250001e+00 3.5000000e+00 
7.5000000e-01 3.0250001e+00 4.0000000e+00 
7.5000000e-01 3.0250001e+00 4.5000000e+00 
7.5000000e-01 3.0250001e+00 5.0000000e+00 
7.5000000e-01 3.0250001e+00 5.5000000e+00 
7.5000000e-01 3.0250001e+00 6.0000000e+00 
7.5000000e-01 3.0250001e+00 6.5000000e+00 
7.5000000e-01 3.0250001e+00 7.0000000e+00 
7.5000000e-01 3.0250001e+00 7.5000000e+00 
7.5000000e-01 3.0250001e+00 8.0000000e+00 
7.5000000e-01 3.0250001e+00 8.5000000e+00 
7.5000000e-01 3.0250001e+00 9.0000000e+00 
7.5000000e-01 3.0250001e+00 9.5000000e+00 
7.5000000e-01 3.0250001e+00 1.0000000e+01 
7.5000000e-01 3.0250001e+00 1.0500000e+01 
7.5000000e-01 3.0250001e+00 1.1000000e+01 
7.5000000e-01 3.0250001e+00 1.1500000e+01 
7.5000000e-01 3.0250001e+00 1.2000000e+01 
7.5000000e-01 3.0250001e+00 1.2500000e+01 
7.5000000e-01 3.0250001e+00 1.3000000e+01 
7.5000000e-01 3.0250001e+00 1.3500000e+01 
7.5000000e-01 3.0250001e+00 1.4000000e+01 
7.5000000e-01 3.0250001e+00 1.4500000e+01 
7.5000000e-01 3.0250001e+00 1.5000000e+01 
7.5000000e-01 3.0250001e+00 1.5500000e+01 
7.5000000e-01 3.0250001e+00 1.6000000e+01 
7.5000000e-01 3.0250001e+00 1.6500000e+01 
7.5000000e-01 3.0250001e+00 1.7000000e+01 
7.5000000e-01 3.0250001e+00 1.7500000e+01 
7.5000000e-01 3.0250001e+00 1.8000000e+01 
7.5000000e-01 3.0250001e+00 1.8500000e+01 
7.5000000e-01 3.0250001e+00 1.9000000e+01 
7.5000000e-01 3.0250001e+00 1.9500000e+01 
7.5000000e-01 3.0250001e+00 2.0000000e+01 
7.5000000e-01 3.0250001e+00 2.0500000e+01 
7.5000000e-01 3.0250001e+00 2.1000000e+01 
7.5000000e-01 3.0250001e+00 2.1500000e+01 
7.5000000e-01 3.0250001e+00 2.2000000e+01 
7.5000000e-01 3.0250001e+00 2.2500000e+01 
7.5000000e-01 3.0250001e+00 2.3000000e+01 
7.5000000e-01 3.0250001e+00 2.3500000e+01 
7.5000000e-01 3.0250001e+00 2.4000000e+01 
7.5000000e-01 3.0250001e+00 2.4500000e+01 
7.5000000e-01 3.0250001e+00 2.5000000e+01 
7.5000000e-01 3.0250001e+00 2.5500000e+01 
7.5000000e-01 3.0250001e+00 2.6000000e+01 
7.5000000e-01 3.0250001e+00 2.6500000e+01 
7.5000000e-01 3.0250001e+00 2.7000000e+01 
7.5000000e-01 3.0250001e+00 2.7500000e+01 
7.5000000e-01 3.0250001e+00 2.8000000e+01 
7.5000000e-01 3.0250001e+00 2.8500000e+01 
7.5000000e-01 3.0250001e+00 2.9000000e+01 
7.5000000e-01 3.0250001e+00 2.9500000e+01 
7.5000000e-01 3.0250001e+00 3.0000000e+01 
7.5000000e-01 3.0250001e+00 3.0500000e+01 
7.5000000e-01 3.0250001e+00 3.1000000e+01 
7.5000000e-01 3.0250001e+00 3.1500000e+01 
7.5000000e-01 3.0250001e+00 3.2000000e+01 
7.5000000e-01 3.0250001e+00 3.2500000e+01 
7.5000000e-01 3.0250001e+00 3.3000000e+01 
7.5000000e-01 3.0250001e+00 3.3500000e+01 
7.5000000e-01 3.0250001e+00 3.4000000e+01 
7.5000000e-01 3.0250001e+00 3.4500000e+01 
7.5000000e-01 3.0250001e+00 3.5000000e+01 
7.5000000e-01 3.0250001e+00 3.5500000e+01 
7.5000000e-01 3.0250001e+00 3.6000000e+01 
7.5000000e-01 3.0250001e+00 3.6500000e+01 
7.5000000e-01 3.0250001e+00 3.7000000e+01 
7.5000000e-01 3.0250001e+00 3.7500000e+01 
7.5000000e-01 3.0250001e+00 3.8000000e+01 
7.5000000e-01 3.0250001e+00 3.8500000e+01 
7.5000000e-01 3.0250001e+00 3.9000000e+01 
7.5000000e-01 3.0250001e+00 3.9500000e+01 
7.5000000e-01 3.0250001e+00 4.0000000e+01 
7.5000000e-01 3.0250001e+00 4.0500000e+01 
7.5000000e-01 3.0250001e+00 4.1000000e+01 
7.5000000e-01 3.0250001e+00 4.1500000e+01 
7.5000000e-01 3.0250001e+00 4.2000000e+01 
7.5000000e-01 3.0250001e+00 4.2500000e+01 
7.5000000e-01 3.0250001e+00 4.3000000e+01 
7.5000000e-01 3.0250001e+00 4.3500000e+01 
7.5000000e-01 3.0250001e+00 4.4000000e+01 
7.5000000e-01 3.0250001e+00 4.4500000e+01 
7.5000000e-01 3.0250001e+00 4.5000000e+01 
7.5000000e-01 3.0250001e+00 4.5500000e+01 
7.5000000e-01 3.0250001e+00 4.6000000e+01 
7.5000000e-01 3.0250001e+00 4.6500000e+01 
7.5000000e-01 3.0250001e+00 4.7000000e+01 
7.5000000e-01 3.0250001e+00 4.7500000e+01 
7.5000000e-01 3.0250001e+00 4.8000000e+01 
7.5000000e-01 3.0250001e+00 4.8500000e+01 
7.5000000e-01 3.0250001e+00 4.9000000e+01 
7.5000000e-01 3.0250001e+00 4.9500000e+01 
7.5000000e-01 3.0250001e+00 5.0000000e+01 
3.0000000e+00 2.0000000e+00 3.6000000e+01 
8.0487806e-01 3.0000000e+00 3.6000000e+01 
0.0000000e+00 0.0000000e+00 1.0000000e+00 
0.0000000e+00 0.0000000e+00 2.0000000e+00 
0.0000000e+00 0.0000000e+00 3.0000000e+00 
0.0000000e+00 0.0000000e+00 4.0000000e+00 
0.0000000e+00 0.0000000e+00 5.0000000e+00 
0.0000000e+00 0.0000000e+00 6.0000000e+00 
0.0000000e+00 0.0000000e+00 7.0000000e+00 
0.0000000e+00 0.0000000e+00 8.0000000e+00 
[...]
POINT_DATA 1919
FIELD FieldData 3
DISPLACEMENT 3 1919  float
0.0000000e+00 0.0000000e+00 0.0000000e+00 
0.0000000e+00 0.0000000e+00 0.0000000e+00 
0.0000000e+00 0.0000000e+00 0.0000000e+00 
0.0000000e+00 0.0000000e+00 0.0000000e+00 
1.5486557e-07 -1.5539911e-08 -8.8499507e-07 
1.1584939e-07 7.0587771e-07 -6.1792235e-07 
0.0000000e+00 1.3541451e-05 0.0000000e+00 
0.0000000e+00 -3.2358182e-06 0.0000000e+00 
-1.8372289e-06 5.3827312e-06 2.4195240e-06 
-7.4262653e-07 1.5673691e-06 -2.3632049e-06 
-1.0630176e-06 7.1197087e-06 5.5958167e-06 
-1.6728662e-06 5.8728041e-08 -6.8240604e-07 
0.0000000e+00 -3.8197886e-06 0.0000000e+00 
0.0000000e+00 -6.6681091e-06 0.0000000e+00 
-2.1618664e-05 -2.0014480e-05 4.3983968e-05 
-5.2144645e-07 -6.9587359e-06 -1.2690999e-05 
6.7642264e-07 -4.8538415e-05 1.4853697e-05 
6.0364732e-06 -2.3582748e-05 -2.3573825e-06 
0.0000000e+00 -2.7898059e-05 0.0000000e+00 
0.0000000e+00 -1.4653132e-05 0.0000000e+00 
-1.2316143e-05 -6.2142026e-05 3.9566283e-05 
-1.6407195e-05 -9.2604285e-05 4.4523415e-05 
-2.3992656e-05 -1.1854510e-04 2.7611923e-05 
-3.5195644e-05 -1.2754231e-04 6.9360126e-06 
-2.5306053e-05 -1.2425777e-04 -1.0809612e-06 
-1.6529457e-05 -1.3057570e-04 -2.1078982e-05 
-3.0772982e-05 -1.5835969e-04 -2.0678784e-05 
-2.7857450e-05 -1.9095850e-04 -1.8948374e-05 
-4.3654360e-05 -2.0074077e-04 -1.7086073e-05 
-4.7903581e-05 -1.7901759e-04 -2.4275210e-05 
-4.2332023e-05 -1.3886891e-04 -2.9937723e-05 
-3.0005760e-05 -1.0508188e-04 -3.9232891e-05 
-1.4096908e-05 -9.1694077e-05 -3.4665711e-05 
-9.8816990e-06 -8.9148809e-05 -2.9025150e-05 
-3.2574942e-05 -6.5032997e-05 -4.1079271e-05 
-2.5233692e-05 9.4240331e-06 -3.3382323e-05 
3.2742541e-06 1.2459217e-04 -2.8398308e-05 
-3.0349827e-06 2.1592971e-04 -1.2302098e-05 
1.0765187e-05 2.0800423e-04 2.1078877e-05 
2.7742756e-06 3.6825124e-05 5.0873685e-05 
-1.2810286e-05 -3.2914651e-04 1.2369090e-04 
-4.7046004e-05 -9.0079423e-04 1.1797894e-04 
-8.2998078e-05 -1.7203495e-03 2.6634091e-04 
-1.8337085e-04 -2.7824740e-03 1.7302735e-04 
-2.2726103e-04 -3.9626518e-03 3.0888943e-04 
-2.4762374e-04 -4.7922609e-03 2.0779266e-04 
-2.7361809e-04 -4.9011689e-03 1.7096625e-04 
-2.8782207e-04 -4.7602328e-03 1.0279872e-04 
-2.8852551e-04 -4.8119351e-03 9.3686809e-05 
-2.9558872e-04 -4.9989703e-03 -4.4911503e-05 
-2.9155755e-04 -4.8831021e-03 -1.4124712e-04 
-2.5734465e-04 -3.9345315e-03 -1.2939717e-04 
-1.9869914e-04 -2.6702860e-03 -2.4811950e-04 
-1.1752506e-04 -1.5322270e-03 -1.3390393e-04 
-6.0348426e-05 -7.1363989e-04 -1.7864024e-04 
-3.3515909e-05 -2.0708561e-04 -8.9882851e-05 
-1.9014116e-05 6.7116001e-05 -7.5055919e-05 
8.1415492e-06 1.9516333e-04 -3.0887397e-05 
3.4677912e-05 2.3375009e-04 -1.4725849e-05 
4.4646407e-05 2.1295609e-04 2.5425184e-06 
2.2234510e-05 1.5768841e-04 2.1432446e-05 
5.2867613e-06 9.0170492e-05 2.7796184e-05 
-2.5678635e-05 2.7236489e-05 3.2028900e-05 
-3.6581703e-05 -2.7670361e-05 1.0227233e-05 
-4.2172520e-05 -8.1382466e-05 6.6915054e-06 
-3.6457655e-05 -1.4226201e-04 -8.0449047e-07 
-4.2290278e-05 -2.1046137e-04 1.3561275e-05 
-2.7096217e-05 -2.7739297e-04 1.5407317e-05 
-2.5387717e-05 -3.2165594e-04 3.9979432e-06 
-2.5661766e-05 -3.2480355e-04 -2.0917243e-05 
-2.7473367e-05 -2.8683309e-04 -3.9016322e-05 
-2.4944091e-05 -2.2801963e-04 -5.5964858e-05 
-2.8167042e-05 -1.7263062e-04 -6.7852809e-05 
-3.7845613e-05 -1.3690640e-04 -6.6950481e-05 
-5.5724744e-05 -1.0696909e-04 -7.9938240e-05 
-3.9223331e-05 -5.7932877e-05 -7.0877322e-05 
-2.2709764e-05 2.4422448e-05 -8.3044666e-05 
-9.9842846e-06 1.1918202e-04 -7.7784949e-05 
6.6495600e-06 1.5130485e-04 -4.9420261e-05 
-1.0821194e-05 3.2688961e-06 -1.8363231e-05 
-2.8722978e-05 -4.1034061e-04 7.7037083e-05 
-7.1997769e-05 -1.1108354e-03 9.0354297e-05 
-1.2305893e-04 -2.0791083e-03 2.2815727e-04 
-2.1792584e-04 -3.2026935e-03 1.1179854e-04 
-2.7896790e-04 -4.2844117e-03 2.3392217e-04 
-3.2728957e-04 -4.8791836e-03 1.0749602e-04 
-3.1828298e-04 -4.9134232e-03 3.8702430e-05 
-2.9984821e-04 -4.8444099e-03 1.1468345e-05 
-2.7811559e-04 -4.9941037e-03 -4.8598031e-05 
7.1070594e-05 -5.1360857e-03 4.7811965e-05 
-1.6034811e-04 -4.7285054e-03 4.1046067e-05 
-1.3741675e-04 -3.6348226e-03 -4.7722739e-07 
-1.1999941e-04 -2.3906322e-03 -1.5953802e-04 
-5.4350552e-05 -1.3400522e-03 -7.1235932e-05 
-5.9927297e-05 -5.9947144e-04 -1.4503018e-04 
-3.9692568e-05 -1.2871125e-04 -8.4608750e-05 
-3.0266556e-05 1.3175796e-04 -1.0106155e-04 
-1.6007849e-05 2.4331396e-04 -8.1157377e-05 
-3.8477194e-07 2.6231975e-04 -7.8642610e-05 
3.5948415e-06 2.3401564e-04 -6.9739734e-05 
1.6290967e-05 1.8887418e-04 -4.8618127e-05 
1.6762018e-05 1.3882344e-04 -3.9338054e-05 
5.4195484e-06 8.5361287e-05 -2.9333187e-05 
1.6467413e-07 3.1539370e-05 -2.6063573e-05 
6.3356342e-06 -1.6084121e-05 -5.1687884e-06 
4.9196656e-06 -5.0421673e-05 9.0426347e-06 
2.2882659e-06 -6.8453475e-05 2.6071453e-05 
3.0813035e-06 -7.1362323e-05 3.0791995e-05 
-3.6285928e-06 -6.1761020e-05 4.5713105e-06 
-1.5545337e-06 -4.1922794e-05 -2.9090334e-06 
7.2144871e-06 -1.4987570e-05 -8.3264194e-06 
7.0687997e-06 1.2365491e-05 -2.4848109e-06 
4.5055167e-06 3.2334367e-05 4.3174309e-06 
7.2403913e-07 4.0414405e-05 1.0972632e-05 
-6.1186511e-06 3.5756744e-05 1.1065186e-05 
-7.6967181e-06 2.2419770e-05 7.4562790e-06 
-6.8175382e-06 5.6846343e-06 1.9595332e-06 
-4.8823081e-06 -9.5968071e-06 -5.1583606e-06 
-4.3371222e-07 -1.9940569e-05 -8.2166071e-06 
0.0000000e+00 -4.9158629e-05 0.0000000e+00 
0.0000000e+00 -6.2605737e-05 0.0000000e+00 
0.0000000e+00 -9.2239701e-05 0.0000000e+00 
0.0000000e+00 -1.1773867e-04 0.0000000e+00 
0.0000000e+00 -1.2666149e-04 0.0000000e+00 
0.0000000e+00 -1.2464958e-04 0.0000000e+00 
0.0000000e+00 -1.3198778e-04 0.0000000e+00 
0.0000000e+00 -1.5908132e-04 0.0000000e+00 
0.0000000e+00 -1.9021702e-04 0.0000000e+00 
0.0000000e+00 -1.9971345e-04 0.0000000e+00 
0.0000000e+00 -1.7834919e-04 0.0000000e+00 
0.0000000e+00 -1.3916509e-04 0.0000000e+00 
0.0000000e+00 -1.0614980e-04 0.0000000e+00 
0.0000000e+00 -9.3037837e-05 0.0000000e+00 
0.0000000e+00 -8.9382957e-05 0.0000000e+00 
0.0000000e+00 -6.3500462e-05 0.0000000e+00 
0.0000000e+00 1.2141551e-05 0.0000000e+00 
0.0000000e+00 1.2596051e-04 0.0000000e+00 
0.0000000e+00 2.1626889e-04 0.0000000e+00 
0.0000000e+00 2.0636372e-04 0.0000000e+00 
0.0000000e+00 3.5056019e-05 0.0000000e+00 
0.0000000e+00 -3.2850893e-04 0.0000000e+00 
0.0000000e+00 -9.0325548e-04 0.0000000e+00 
0.0000000e+00 -1.7262652e-03 0.0000000e+00 
0.0000000e+00 -2.8013720e-03 0.0000000e+00 
0.0000000e+00 -3.9830641e-03 0.0000000e+00 
0.0000000e+00 -4.8225522e-03 0.0000000e+00 
0.0000000e+00 -4.9223229e-03 0.0000000e+00 
0.0000000e+00 -4.7859885e-03 0.0000000e+00 
0.0000000e+00 -4.8333937e-03 0.0000000e+00 
0.0000000e+00 -5.0286134e-03 0.0000000e+00 
0.0000000e+00 -4.9064034e-03 0.0000000e+00 
0.0000000e+00 -3.9575645e-03 0.0000000e+00 
0.0000000e+00 -2.6833215e-03 0.0000000e+00 
0.0000000e+00 -1.5415710e-03 0.0000000e+00 
0.0000000e+00 -7.1659975e-04 0.0000000e+00 
0.0000000e+00 -2.0696684e-04 0.0000000e+00 
0.0000000e+00 6.8556576e-05 0.0000000e+00 
0.0000000e+00 1.9642514e-04 0.0000000e+00 
0.0000000e+00 2.3426471e-04 0.0000000e+00 
0.0000000e+00 2.1347152e-04 0.0000000e+00 
0.0000000e+00 1.5807131e-04 0.0000000e+00 
0.0000000e+00 9.0653884e-05 0.0000000e+00 
0.0000000e+00 2.7528886e-05 0.0000000e+00 
0.0000000e+00 -2.7637439e-05 0.0000000e+00 
0.0000000e+00 -8.1477629e-05 0.0000000e+00 
0.0000000e+00 -1.4233042e-04 0.0000000e+00 
0.0000000e+00 -2.1107461e-04 0.0000000e+00 
0.0000000e+00 -2.7758861e-04 0.0000000e+00 
0.0000000e+00 -3.2119526e-04 0.0000000e+00 
0.0000000e+00 -3.2400194e-04 0.0000000e+00 
0.0000000e+00 -2.8630259e-04 0.0000000e+00 
0.0000000e+00 -2.2801696e-04 0.0000000e+00 
0.0000000e+00 -1.7403382e-04 0.0000000e+00 
0.0000000e+00 -1.3777635e-04 0.0000000e+00 
0.0000000e+00 -1.0697584e-04 0.0000000e+00 
0.0000000e+00 -5.6596338e-05 0.0000000e+00 
0.0000000e+00 2.7285461e-05 0.0000000e+00 
0.0000000e+00 1.2206782e-04 0.0000000e+00 
0.0000000e+00 1.5075218e-04 0.0000000e+00 
0.0000000e+00 4.0670113e-07 0.0000000e+00 
0.0000000e+00 -4.1358054e-04 0.0000000e+00 
0.0000000e+00 -1.1168282e-03 0.0000000e+00 
0.0000000e+00 -2.0843963e-03 0.0000000e+00 
0.0000000e+00 -3.2214897e-03 0.0000000e+00 
0.0000000e+00 -4.3058642e-03 0.0000000e+00 
0.0000000e+00 -4.9140747e-03 0.0000000e+00 
0.0000000e+00 -4.9358066e-03 0.0000000e+00 
0.0000000e+00 -4.8730010e-03 0.0000000e+00 
0.0000000e+00 -5.0170128e-03 0.0000000e+00 
0.0000000e+00 -5.1547317e-03 0.0000000e+00 
0.0000000e+00 -4.7559966e-03 0.0000000e+00 
0.0000000e+00 -3.6585240e-03 0.0000000e+00 
0.0000000e+00 -2.4015876e-03 0.0000000e+00 
0.0000000e+00 -1.3469490e-03 0.0000000e+00 
0.0000000e+00 -6.0019008e-04 0.0000000e+00 
0.0000000e+00 -1.2873468e-04 0.0000000e+00 
0.0000000e+00 1.3206023e-04 0.0000000e+00 
0.0000000e+00 2.4419680e-04 0.0000000e+00 
0.0000000e+00 2.6332808e-04 0.0000000e+00 
0.0000000e+00 2.3494783e-04 0.0000000e+00 
0.0000000e+00 1.8926406e-04 0.0000000e+00 
0.0000000e+00 1.3866459e-04 0.0000000e+00 
0.0000000e+00 8.5255226e-05 0.0000000e+00 
0.0000000e+00 3.1656618e-05 0.0000000e+00 
0.0000000e+00 -1.5846952e-05 0.0000000e+00 
0.0000000e+00 -5.0302981e-05 0.0000000e+00 
0.0000000e+00 -6.8474335e-05 0.0000000e+00 
0.0000000e+00 -7.1385577e-05 0.0000000e+00 
0.0000000e+00 -6.1654551e-05 0.0000000e+00 
0.0000000e+00 -4.1715059e-05 0.0000000e+00 
0.0000000e+00 -1.4978260e-05 0.0000000e+00 
0.0000000e+00 1.2126365e-05 0.0000000e+00 
0.0000000e+00 3.2131007e-05 0.0000000e+00 
0.0000000e+00 4.0218576e-05 0.0000000e+00 
0.0000000e+00 3.5749850e-05 0.0000000e+00 
0.0000000e+00 2.2468246e-05 0.0000000e+00 
0.0000000e+00 5.7372754e-06 0.0000000e+00 
0.0000000e+00 -9.5356345e-06 0.0000000e+00 
0.0000000e+00 -1.9896062e-05 0.0000000e+00 
0.0000000e+00 -2.3542496e-05 0.0000000e+00 
5.1949872e-05 -7.3560353e-05 4.3101340e-05 
-1.5271384e-04 -3.2665133e-03 -8.6452343e-07 
0.0000000e+00 0.0000000e+00 0.0000000e+00 
0.0000000e+00 0.0000000e+00 0.0000000e+00 
0.0000000e+00 0.0000000e+00 0.0000000e+00 
0.0000000e+00 0.0000000e+00 0.0000000e+00 
0.0000000e+00 0.0000000e+00 0.0000000e+00 
0.0000000e+00 0.0000000e+00 0.0000000e+00 
0.0000000e+00 0.0000000e+00 0.0000000e+00 
0.0000000e+00 0.0000000e+00 0.0000000e+00 
0.0000000e+00 0.0000000e+00 0.0000000e+00 
0.0000000e+00 0.0000000e+00 0.0000000e+00 
0.0000000e+00 0.0000000e+00 0.0000000e+00 
0.0000000e+00 0.0000000e+00 0.0000000e+00 
0.0000000e+00 0.0000000e+00 0.0000000e+00 
0.0000000e+00 0.0000000e+00 0.0000000e+00 
0.0000000e+00 0.0000000e+00 0.0000000e+00 
0.0000000e+00 0.0000000e+00 0.0000000e+00 
0.0000000e+00 0.0000000e+00 0.0000000e+00 
0.0000000e+00 0.0000000e+00 0.0000000e+00 
0.0000000e+00 0.0000000e+00 0.0000000e+00 
0.0000000e+00 0.0000000e+00 0.0000000e+00 
0.0000000e+00 0.0000000e+00 0.0000000e+00 
0.0000000e+00 0.0000000e+00 0.0000000e+00 
0.0000000e+00 0.0000000e+00 0.0000000e+00 
0.0000000e+00 0.0000000e+00 0.0000000e+00 
0.0000000e+00 0.0000000e+00 0.0000000e+00 
0.0000000e+00 0.0000000e+00 0.0000000e+00 
0.0000000e+00 0.0000000e+00 0.0000000e+00 
0.0000000e+00 0.0000000e+00 0.0000000e+00 
0.0000000e+00 0.0000000e+00 0.0000000e+00 
0.0000000e+00 0.0000000e+00 0.0000000e+00 
0.0000000e+00 0.0000000e+00 0.0000000e+00 
0.0000000e+00 0.0000000e+00 0.0000000e+00 
0.0000000e+00 0.0000000e+00 0.0000000e+00 
0.0000000e+00 0.0000000e+00 0.0000000e+00 
0.0000000e+00 0.0000000e+00 0.0000000e+00 
0.0000000e+00 0.0000000e+00 0.0000000e+00 
0.0000000e+00 0.0000000e+00 0.0000000e+00 
0.0000000e+00 0.0000000e+00 0.0000000e+00 
0.0000000e+00 0.0000000e+00 0.0000000e+00 
0.0000000e+00 0.0000000e+00 0.0000000e+00 
0.0000000e+00 0.0000000e+00 0.0000000e+00 
0.0000000e+00 0.0000000e+00 0.0000000e+00 
0.0000000e+00 0.0000000e+00 0.0000000e+00 
0.0000000e+00 0.0000000e+00 0.0000000e+00 
0.0000000e+00 0.0000000e+00 0.0000000e+00 
0.0000000e+00 0.0000000e+00 0.0000000e+00 
0.0000000e+00 0.0000000e+00 0.0000000e+00 
0.0000000e+00 0.0000000e+00 0.0000000e+00 
0.0000000e+00 0.0000000e+00 0.0000000e+00 
0.0000000e+00 0.0000000e+00 0.0000000e+00 
0.0000000e+00 0.0000000e+00 0.0000000e+00 
0.0000000e+00 0.0000000e+00 0.0000000e+00 
0.0000000e+00 0.0000000e+00 0.0000000e+00 
0.0000000e+00 0.0000000e+00 0.0000000e+00 
0.0000000e+00 0.0000000e+00 0.0000000e+00 
0.0000000e+00 0.0000000e+00 0.0000000e+00 
0.0000000e+00 0.0000000e+00 0.0000000e+00 
0.0000000e+00 0.0000000e+00 0.0000000e+00 
0.0000000e+00 0.0000000e+00 0.0000000e+00 
0.0000000e+00 0.0000000e+00 0.0000000e+00 
0.0000000e+00 0.0000000e+00 0.0000000e+00 
0.0000000e+00 0.0000000e+00 0.0000000e+00 
0.0000000e+00 0.0000000e+00 0.0000000e+00 
0.0000000e+00 0.0000000e+00 0.0000000e+00 
0.0000000e+00 0.0000000e+00 0.0000000e+00 
0.0000000e+00 0.0000000e+00 0.0000000e+00 
0.0000000e+00 0.0000000e+00 0.0000000e+00 
0.0000000e+00 0.0000000e+00 0.0000000e+00 
0.0000000e+00 0.0000000e+00 0.0000000e+00 
0.0000000e+00 0.0000000e+00 0.0000000e+00 
0.0000000e+00 0.0000000e+00 0.0000000e+00 
0.0000000e+00 0.0000000e+00 0.0000000e+00 
0.0000000e+00 0.0000000e+00 0.0000000e+00 
0.0000000e+00 0.0000000e+00 0.0000000e+00 
0.0000000e+00 0.0000000e+00 0.0000000e+00 
0.0000000e+00 0.0000000e+00 0.0000000e+00 
0.0000000e+00 0.0000000e+00 0.0000000e+00 
0.0000000e+00 0.0000000e+00 0.0000000e+00 
0.0000000e+00 0.0000000e+00 0.0000000e+00 
0.0000000e+00 0.0000000e+00 0.0000000e+00 
0.0000000e+00 0.0000000e+00 0.0000000e+00 
0.0000000e+00 0.0000000e+00 0.0000000e+00 
0.0000000e+00 0.0000000e+00 0.0000000e+00 
0.0000000e+00 0.0000000e+00 0.0000000e+00 
0.0000000e+00 0.0000000e+00 0.0000000e+00 
0.0000000e+00 0.0000000e+00 0.0000000e+00 
0.0000000e+00 0.0000000e+00 0.0000000e+00 
0.0000000e+00 0.0000000e+00 0.0000000e+00 
0.0000000e+00 0.0000000e+00 0.0000000e+00 
0.0000000e+00 0.0000000e+00 0.0000000e+00 
0.0000000e+00 0.0000000e+00 0.0000000e+00 
0.0000000e+00 0.0000000e+00 0.0000000e+00 
0.0000000e+00 0.0000000e+00 0.0000000e+00 
0.0000000e+00 0.0000000e+00 0.0000000e+00 
0.0000000e+00 0.0000000e+00 0.0000000e+00 
0.0000000e+00 0.0000000e+00 0.0000000e+00 
0.0000000e+00 0.0000000e+00 0.0000000e+00 
0.0000000e+00 0.0000000e+00 0.0000000e+00 
0.0000000e+00 0.0000000e+00 0.0000000e+00 
0.0000000e+00 0.0000000e+00 0.0000000e+00 
0.0000000e+00 0.0000000e+00 0.0000000e+00 
0.0000000e+00 0.0000000e+00 0.0000000e+00 
0.0000000e+00 0.0000000e+00 0.0000000e+00 
0.0000000e+00 0.0000000e+00 0.0000000e+00 
0.0000000e+00 0.0000000e+00 0.0000000e+00 
0.0000000e+00 0.0000000e+00 0.0000000e+00 
3.9641222e-07 2.5080215e-06 3.2054722e-06 
4.2006178e-07 -4.7444840e-07 1.1645860e-06 
4.0782566e-06 -2.3110977e-06 -1.2261597e-06 
6.7626875e-06 -1.4803879e-06 1.5838121e-06 
1.5100817e-06 7.9142501e-06 -2.7775752e-06 
-1.5501055e-06 -3.0763465e-06 -1.7775773e-06 
-6.0036555e-06 3.3430995e-06 -3.2327418e-06 
-3.6517883e-06 5.8476003e-06 -8.5959700e-06 
3.2350861e-06 -1.8148606e-06 -7.0054084e-06 
7.3311671e-06 -5.2479031e-06 -1.0621531e-05 
2.5289679e-05 -8.4088024e-06 -1.2645949e-05 
4.1150335e-05 -1.1243692e-05 -9.4825946e-06 
5.2342981e-05 -1.6633772e-05 1.3028334e-06 
5.5263874e-05 -1.8451772e-05 1.0314264e-05 
5.1848470e-05 -1.7410186e-05 1.9723981e-05 
3.5090739e-05 -1.2013088e-05 2.5062469e-05 
2.4686107e-05 -4.0668606e-06 1.8111619e-05 
1.5349575e-05 -1.6831067e-06 1.3571183e-05 
8.1452763e-06 -1.0368226e-06 7.6350652e-06 
4.4498338e-06 -3.4759744e-06 -1.4427112e-06 
3.9939664e-06 8.0517071e-07 -4.6746404e-06 
4.4102007e-06 5.0365652e-06 -3.2123066e-06 
4.7029789e-06 1.7389111e-06 -4.1042567e-06 
2.7205554e-06 2.0127563e-06 -1.7416672e-06 
-3.7945861e-07 3.2139305e-06 -1.9515976e-06 
9.8366036e-07 -2.9457467e-06 -8.1253329e-06 
-4.4903422e-06 1.9093932e-06 -6.8316926e-06 
-8.6944914e-07 1.0304396e-06 -9.0417971e-06 
8.0719456e-06 -3.6961882e-07 -1.0934228e-05 
1.4065689e-05 -7.4525760e-06 -1.5554151e-05 
2.9880846e-05 -8.2204106e-06 -1.3126119e-05 
4.1801384e-05 -1.4396672e-05 -1.0072962e-05 
4.8765382e-05 -1.4103482e-05 6.1491512e-08 
5.2591771e-05 -1.6815173e-05 1.2832198e-05 
4.8941030e-05 -1.4724558e-05 1.9880099e-05 
3.7589703e-05 -1.3834797e-05 2.5863950e-05 
2.5505482e-05 -9.7636375e-06 2.3400982e-05 
1.6649576e-05 -8.1648204e-06 1.7130887e-05 
7.1068293e-06 -3.3710598e-06 8.8672123e-06 
1.2458362e-06 1.4740708e-06 -1.7935920e-07 
-6.4253180e-07 3.1810123e-06 -2.4177521e-06 
-2.5230622e-06 3.0487843e-06 -4.3884793e-06 
-2.5666964e-06 1.1501888e-06 -4.1127732e-06 
-9.4571817e-07 -9.6206509e-07 -2.1736339e-06 
4.7418476e-07 -1.3366736e-06 8.2605652e-07 
7.4694231e-07 -1.2546622e-07 2.3697235e-06 
9.3657115e-07 6.9529233e-07 3.1750913e-06 
7.3574597e-07 -3.2807046e-07 2.2449522e-06 
3.5117125e-07 -1.1464837e-06 1.0652973e-06 
0.0000000e+00 -3.4844339e-05 0.0000000e+00 
0.0000000e+00 -4.8423310e-05 0.0000000e+00 
0.0000000e+00 -5.6420435e-05 0.0000000e+00 
0.0000000e+00 -6.2529398e-05 0.0000000e+00 
0.0000000e+00 -4.0980220e-05 0.0000000e+00 
0.0000000e+00 -1.8636323e-05 0.0000000e+00 
0.0000000e+00 -3.1370859e-05 0.0000000e+00 
0.0000000e+00 -9.0504745e-06 0.0000000e+00 
0.0000000e+00 3.6219881e-05 0.0000000e+00 
0.0000000e+00 -2.2388394e-05 0.0000000e+00 
0.0000000e+00 -1.1286167e-04 0.0000000e+00 
0.0000000e+00 -3.1746028e-04 0.0000000e+00 
0.0000000e+00 -5.0318066e-04 0.0000000e+00 
0.0000000e+00 -5.6735758e-04 0.0000000e+00 
0.0000000e+00 -5.7188520e-04 0.0000000e+00 
0.0000000e+00 -4.3071268e-04 0.0000000e+00 
0.0000000e+00 -2.2250852e-04 0.0000000e+00 
0.0000000e+00 -8.7172681e-05 0.0000000e+00 
0.0000000e+00 -2.4112589e-05 0.0000000e+00 
0.0000000e+00 -4.4275163e-05 0.0000000e+00 
0.0000000e+00 -6.9315116e-05 0.0000000e+00 
0.0000000e+00 -7.7091339e-05 0.0000000e+00 
0.0000000e+00 -1.0926951e-04 0.0000000e+00 
0.0000000e+00 -1.3786399e-04 0.0000000e+00 
0.0000000e+00 -1.1311018e-04 0.0000000e+00 
0.0000000e+00 -9.3523879e-05 0.0000000e+00 
0.0000000e+00 -5.0982842e-05 0.0000000e+00 
0.0000000e+00 -2.7016335e-06 0.0000000e+00 
0.0000000e+00 4.4027813e-05 0.0000000e+00 
0.0000000e+00 -3.4972672e-05 0.0000000e+00 
0.0000000e+00 -1.8148420e-04 0.0000000e+00 
0.0000000e+00 -3.0196251e-04 0.0000000e+00 
0.0000000e+00 -4.9797806e-04 0.0000000e+00 
0.0000000e+00 -5.6496920e-04 0.0000000e+00 
0.0000000e+00 -5.4059026e-04 0.0000000e+00 
0.0000000e+00 -4.2315820e-04 0.0000000e+00 
0.0000000e+00 -2.1918137e-04 0.0000000e+00 
0.0000000e+00 -6.2733059e-05 0.0000000e+00 
0.0000000e+00 3.1278840e-05 0.0000000e+00 
0.0000000e+00 4.4600220e-05 0.0000000e+00 
0.0000000e+00 2.9870327e-05 0.0000000e+00 
0.0000000e+00 6.2525633e-06 0.0000000e+00 
0.0000000e+00 -1.2543603e-05 0.0000000e+00 
0.0000000e+00 -2.0523248e-05 0.0000000e+00 
0.0000000e+00 -1.2178972e-05 0.0000000e+00 
0.0000000e+00 9.3169674e-06 0.0000000e+00 
0.0000000e+00 1.4414458e-05 0.0000000e+00 
0.0000000e+00 3.5437542e-06 0.0000000e+00 
0.0000000e+00 -3.5731393e-06 0.0000000e+00 
5.1455686e-07 3.1589998e-06 9.0254912e-07 
6.0303641e-08 1.4639648e-06 9.3728534e-07 
1.4552643e-06 -6.4869846e-07 -5.0430513e-06 
1.1667721e-06 -1.0963576e-06 -5.4785328e-06 
-2.7184035e-08 -1.5620520e-07 5.6644262e-07 
-3.2701698e-07 -1.1892806e-06 1.1027655e-06 
-8.1177666e-07 -2.7286906e-06 8.4722245e-07 
-3.2633596e-07 -2.8634142e-06 4.2865412e-07 
-5.7125294e-07 1.2850855e-06 2.2049642e-06 
-1.9700260e-06 1.6483510e-06 -2.1496214e-06 
1.1380173e-06 1.6024221e-06 -2.4216113e-06 
4.7732065e-08 7.5579879e-07 -1.5838958e-06 
-1.4639323e-06 9.8842538e-06 -6.4528554e-06 
-2.9103103e-07 -8.7340559e-06 -2.2435750e-06 
-2.5296654e-06 7.8999647e-06 -9.1742995e-06 
-3.9489892e-06 6.8069080e-06 -1.0361214e-05 
4.3428518e-06 -6.5525628e-06 -1.3139979e-05 
1.7846311e-05 -1.0512880e-06 -5.2654245e-06 
2.6476726e-05 -1.2011501e-05 -3.8883777e-06 
3.9644514e-05 -1.4059991e-05 -3.9121246e-06 
5.2318948e-05 -1.2051240e-05 6.9528646e-06 
4.8677226e-05 -1.7482835e-05 1.5689255e-05 
3.7656515e-05 -1.4899073e-05 1.9870271e-05 
3.2504246e-05 -5.1947923e-06 2.3182571e-05 
2.4044555e-05 3.9090587e-06 2.3169807e-05 
1.3953341e-05 3.8589383e-06 1.8797175e-05 
6.4024593e-06 3.4311013e-06 9.7895809e-06 