# vtk DataFile Version 4.0
vtk output
ASCII
DATASET UNSTRUCTURED_GRID
POINTS 1919 float
0.0000000e+00 0.0000000e+00 0.0000000e+00 
0.0000000e+00 0.0000000e+00 5.0000000e+01 
5.0000000e+00 0.0000000e+00 0.0000000e+00 
5.0000000e+00 0.0000000e+00 5.0000000e+01 
5.0000000e+00 1.0000000e+00 0.0000000e+00 
5.0000000e+00 1.0000000e+00 5.0000000e+01 
0.0000000e+00 1.0000000e+00 0.0000000e+00 
0.0000000e+00 1.0000000e+00 5.0000000e+01 
5.0000000e+00 2.0000000e+00 0.0000000e+00 
5.0000000e+00 2.0000000e+00 5.0000000e+01 
3.0000000e+00 2.0000000e+00 0.0000000e+00 
3.0000000e+00 2.0000000e+00 5.0000000e+01 
0.0000000e+00 2.0000000e+00 0.0000000e+00 
0.0000000e+00 2.0000000e+00 5.0000000e+01 
1.5000000e+00 3.0000000e+00 0.0000000e+00 
1.5000000e+00 3.0000000e+00 5.0000000e+01 
7.5000000e-01 3.0000000e+00 0.0000000e+00 
7.5000000e-01 3.0000000e+00 5.0000000e+01 
0.0000000e+00 3.0000000e+00 0.0000000e+00 
0.0000000e+00 3.0000000e+00 5.0000000e+01 
7.5000000e-01 3.0000000e+00 5.0000000e-01 
7.5000000e-01 3.0000000e+00 1.0000000e+00 
7.5000000e-01 3.0000000e+00 1.5000000e+00 
7.5000000e-01 3.0000000e+00 2.0000000e+00 
7.5000000e-01 3.0000000e+00 2.5000000e+00 
7.5000000e-01 3.0000000e+00 3.0000000e+00 
7.5000000e-01 3.0000000e+00 3.5000000e+00 
7.5000000e-01 3.0000000e+00 4.0000000e+00 
7.5000000e-01 3.0000000e+00 4.5000000e+00 
7.5000000e-01 3.0000000e+00 5.0000000e+00 
7.5000000e-01 3.0000000e+00 5.5000000e+00 
7.5000000e-01 3.0000000e+00 6.0000000e+00 
7.5000000e-01 3.0000000e+00 6.5000000e+00 
7.5000000e-01 3.0000000e+00 7.0000000e+00 
7.5000000e-01 3.0000000e+00 7.5000000e+00 
7.5000000e-01 3.0000000e+00 8.0000000e+00 
7.5000000e-01 3.0000000e+00 8.5000000e+00 
7.5000000e-01 3.0000000e+00 9.0000000e+00 
7.5000000e-01 3.0000000e+00 9.5000000e+00 
7.5000000e-01 3.0000000e+00 1.0000000e+01 
7.5000000e-01 3.0000000e+00 1.0500000e+01 
7.5000000e-01 3.0000000e+00 1.1000000e+01 
7.5000000e-01 3.0000000e+00 1.1500000e+01 
7.5000000e-01 3.0000000e+00 1.2000000e+01 
7.5000000e-01 3.0000000e+00 1.2500000e+01 
7.5000000e-01 3.0000000e+00 1.3000000e+01 
7.5000000e-01 3.0000000e+00 1.3500000e+01 
7.5000000e-01 3.0000000e+00 1.4000000e+01 
7.5000000e-01 3.0000000e+00 1.4500000e+01 
7.5000000e-01 3.0000000e+00 1.5000000e+01 
7.5000000e-01 3.0000000e+00 1.5500000e+01 
7.5000000e-01 3.0000000e+00 1.6000000e+01 
7.5000000e-01 3.0000000e+00 1.6500000e+01 
7.5000000e-01 3.0000000e+00 1.7000000e+01 
7.5000000e-01 3.0000000e+00 1.7500000e+01 
7.5000000e-01 3.0000000e+00 1.8000000e+01 
7.5000000e-01 3.0000000e+00 1.8500000e+01 
7.5000000e-01 3.0000000e+00 1.9000000e+01 
7.5000000e-01 3.0000000e+00 1.9500000e+01 
7.5000000e-01 3.0000000e+00 2.0000000e+01 
7.5000000e-01 3.0000000e+00 2.0500000e+01 
7.5000000e-01 3.0000000e+00 2.1000000e+01 
7.5000000e-01 3.0000000e+00 2.1500000e+01 
7.5000000e-01 3.0000000e+00 2.2000000e+01 
7.5000000e-01 3.0000000e+00 2.2500000e+01 
7.5000000e-01 3.0000000e+00 2.3000000e+01 
7.5000000e-01 3.0000000e+00 2.3500000e+01 
7.5000000e-01 3.0000000e+00 2.4000000e+01 
7.5000000e-01 3.0000000e+00 2.4500000e+01 
7.5000000e-01 3.0000000e+00 2.5000000e+01 
7.5000000e-01 3.0000000e+00 2.5500000e+01 
7.5000000e-01 3.0000000e+00 2.6000000e+01 
7.5000000e-01 3.0000000e+00 2.6500000e+01 
7.5000000e-01 3.0000000e+00 2.7000000e+01 
7.5000000e-01 3.0000000e+00 2.7500000e+01 
7.5000000e-01 3.0000000e+00 2.8000000e+01 
7.5000000e-01 3.0000000e+00 2.8500000e+01 
7.5000000e-01 3.0000000e+00 2.9000000e+01 
7.5000000e-01 3.0000000e+00 2.9500000e+01 
7.5000000e-01 3.0000000e+00 3.0000000e+01 
7.5000000e-01 3.0000000e+00 3.0500000e+01 
7.5000000e-01 3.0000000e+00 3.1000000e+01 
7.5000000e-01 3.0000000e+00 3.1500000e+01 
7.5000000e-01 3.0000000e+00 3.2000000e+01 
7.5000000e-01 3.0000000e+00 3.2500000e+01 
7.5000000e-01 3.0000000e+00 3.3000000e+01 
7.5000000e-01 3.0000000e+00 3.3500000e+01 
7.5000000e-01 3.0000000e+00 3.4000000e+01 
7.5000000e-01 3.0000000e+00 3.4500000e+01 
7.5000000e-01 3.0000000e+00 3.5000000e+01 
7.5000000e-01 3.0000000e+00 3.5500000e+01 
7.5000000e-01 3.0000000e+00 3.6000000e+01 
7.5000000e-01 3.0000000e+00 3.6500000e+01 
7.5000000e-01 3.0000000e+00 3.7000000e+01 
7.5000000e-01 3.0000000e+00 3.7500000e+01 
7.5000000e-01 3.0000000e+00 3.8000000e+01 
7.5000000e-01 3.0000000e+00 3.8500000e+01 
7.5000000e-01 3.0000000e+00 3.9000000e+01 
7.5000000e-01 3.0000000e+00 3.9500000e+01 
7.5000000e-01 3.0000000e+00 4.0000000e+01 
7.5000000e-01 3.0000000e+00 4.0500000e+01 
7.5000000e-01 3.0000000e+00 4.1000000e+01 
7.5000000e-01 3.0000000e+00 4.1500000e+01 
7.5000000e-01 3.0000000e+00 4.2000000e+01 
7.5000000e-01 3.0000000e+00 4.2500000e+01 
7.5000000e-01 3.0000000e+00 4.3000000e+01 
7.5000000e-01 3.0000000e+00 4.3500000e+01 
7.5000000e-01 3.0000000e+00 4.4000000e+01 
7.5000000e-01 3.0000000e+00 4.4500000e+01 
7.5000000e-01 3.0000000e+00 4.5000000e+01 
7.5000000e-01 3.0000000e+00 4.5500000e+01 
7.5000000e-01 3.0000000e+00 4.6000000e+01 
7.5000000e-01 3.0000000e+00 4.6500000e+01 
7.5000000e-01 3.0000000e+00 4.7000000e+01 
7.5000000e-01 3.0000000e+00 4.7500000e+01 
7.5000000e-01 3.0000000e+00 4.8000000e+01 
7.5000000e-01 3.0000000e+00 4.8500000e+01 
7.5000000e-01 3.0000000e+00 4.9000000e+01 
7.5000000e-01 3.0000000e+00 4.9500000e+01 
7.5000000e-01 3.0250001e+00 0.0000000e+00 
7.5000000e-01 3.0250001e+00 5.0000000e-01 
7.5000000e-01 3.0250001e+00 1.0000000e+00 
7.5000000e-01 3.0250001e+00 1.5000000e+00 
7.5000000e-01 3.0250001e+00 2.0000000e+00 
7.5000000e-01 3.0250001e+00 2.5000000e+00 
7.5000000e-01 3.0250001e+00 3.0000000e+00 
7.5000000e-01 3.0250001e+00 3.5000000e+00 
7.5000000e-01 3.0250001e+00 4.0000000e+00 
7.5000000e-01 3.0250001e+00 4.5000000e+00 
7.5000000e-01 3.0250001e+00 5.0000000e+00 
7.5000000e-01 3.0250001e+00 5.5000000e+00 
7.5000000e-01 3.0250001e+00 6.0000000e+00 
7.5000000e-01 3.0250001e+00 6.5000000e+00 
7.5000000e-01 3.0250001e+00 7.0000000e+00 
7.5000000e-01 3.0250001e+00 7.5000000e+00 
7.5000000e-01 3.0250001e+00 8.0000000e+00 
7.5000000e-01 3.0250001e+00 8.5000000e+00 
7.5000000e-01 3.0250001e+00 9.0000000e+00 
7.5000000e-01 3.0250001e+00 9.5000000e+00 
7.5000000e-01 3.0250001e+00 1.0000000e+01 
7.5000000e-01 3.0250001e+00 1.0500000e+01 
7.5000000e-01 3.0250001e+00 1.1000000e+01 
7.5000000e-01 3.0250001e+00 1.1500000e+01 
7.5000000e-01 3.0250001e+00 1.2000000e+01 
7.5000000e-01 3.0250001e+00 1.2500000e+01 
7.5000000e-01 3.0250001e+00 1.3000000e+01 
7.5000000e-01 3.0250001e+00 1.3500000e+01 
7.5000000e-01 3.0250001e+00 1.4000000e+01 
7.5000000e-01 3.0250001e+00 1.4500000e+01 
7.5000000e-01 3.0250001e+00 1.5000000e+01 
7.5000000e-01 3.0250001e+00 1.5500000e+01 
7.5000000e-01 3.0250001e+00 1.6000000e+01 
7.5000000e-01 3.0250001e+00 1.6500000e+01 
7.5000000e-01 3.0250001e+00 1.7000000e+01 
7.5000000e-01 3.0250001e+00 1.7500000e+01 
7.5000000e-01 3.0250001e+00 1.8000000e+01 
7.5000000e-01 3.0250001e+00 1.8500000e+01 
7.5000000e-01 3.0250001e+00 1.9000000e+01 
7.5000000e-01 3.0250001e+00 1.9500000e+01 
7.5000000e-01 3.0250001e+00 2.0000000e+01 
7.5000000e-01 3.0250001e+00 2.0500000e+01 
7.5000000e-01 3.0250001e+00 2.1000000e+01 
7.5000000e-01 3.0250001e+00 2.1500000e+01 
7.5000000e-01 3.0250001e+00 2.2000000e+01 
7.5000000e-01 3.0250001e+00 2.2500000e+01 
7.5000000e-01 3.0250001e+00 2.3000000e+01 
7.5000000e-01 3.0250001e+00 2.3500000e+01 
7.5000000e-01 3.0250001e+00 2.4000000e+01 
7.5000000e-01 3.0250001e+00 2.4500000e+01 
7.5000000e-01 3.0250001e+00 2.5000000e+01 
7.5000000e-01 3.0250001e+00 2.5500000e+01 
7.5000000e-01 3.0250001e+00 2.6000000e+01 
7.5000000e-01 3.0250001e+00 2.6500000e+01 
7.5000000e-01 3.0250001e+00 2.7000000e+01 
7.5000000e-01 3.0250001e+00 2.7500000e+01 
7.5000000e-01 3.0250001e+00 2.8000000e+01 
7.5000000e-01 3.0250001e+00 2.8500000e+01 
7.5000000e-01 3.0250001e+00 2.9000000e+01 
7.5000000e-01 3.0250001e+00 2.9500000e+01 
7.5000000e-01 3.0250001e+00 3.0000000e+01 
7.5000000e-01 3.0250001e+00 3.0500000e+01 
7.5000000e-01 3.0250001e+00 3.1000000e+01 
7.5000000e-01 3.0250001e+00 3.1500000e+01 
7.5000000e-01 3.0250001e+00 3.2000000e+01 
7.5000000e-01 3.0250001e+00 3.2500000e+01 
7.5000000e-01 3.0250001e+00 3.3000000e+01 
7.5000000e-01 3.0250001e+00 3.3500000e+01 
7.5000000e-01 3.0250001e+00 3.4000000e+01 
7.5000000e-01 3.0250001e+00 3.4500000e+01 
7.5000000e-01 3.0250001e+00 3.5000000e+01 
7.5000000e-01 3.0250001e+00 3.5500000e+01 
7.5000000e-01 3.0250001e+00 3.6000000e+01 
7.5000000e-01 3.0250001e+00 3.6500000e+01 
7.5000000e-01 3.0250001e+00 3.7000000e+01 
7.5000000e-01 3.0250001e+00 3.7500000e+01 
7.5000000e-01 3.0250001e+00 3.8000000e+01 
7.5000000e-01 3.0250001e+00 3.8500000e+01 
7.5000000e-01 3.0250001e+00 3.9000000e+01 
7.5000000e-01 3.0250001e+00 3.9500000e+01 
7.5000000e-01 3.0250001e+00 4.0000000e+01 
7.5000000e-01 3.0250001e+00 4.0500000e+01 
7.5000000e-01 3.0250001e+00 4.1000000e+01 
7.5000000e-01 3.0250001e+00 4.1500000e+01 
7.5000000e-01 3.0250001e+00 4.2000000e+01 
7.5000000e-01 3.0250001e+00 4.2500000e+01 
7.5000000e-01 3.0250001e+00 4.3000000e+01 
7.5000000e-01 3.0250001e+00 4.3500000e+01 
7.5000000e-01 3.0250001e+00 4.4000000e+01 
7.5000000e-01 3.0250001e+00 4.4500000e+01 
7.5000000e-01 3.0250001e+00 4.5000000e+01 
7.5000000e-01 3.0250001e+00 4.5500000e+01 
7.5000000e-01 3.0250001e+00 4.6000000e+01 
7.5000000e-01 3.0250001e+00 4.6500000e+01 
7.5000000e-01 3.0250001e+00 4.7000000e+01 
7.5000000e-01 3.0250001e+00 4.7500000e+01 
7.5000000e-01 3.0250001e+00 4.8000000e+01 
7.5000000e-01 3.0250001e+00 4.8500000e+01 
7.5000000e-01 3.0250001e+00 4.9000000e+01 
7.5000000e-01 3.0250001e+00 4.9500000e+01 
7.5000000e-01 3.0250001e+00 5.0000000e+01 
3.0000000e+00 2.0000000e+00 3.6000000e+01 
8.0487806e-01 3.0000000e+00 3.6000000e+01 
0.0000000e+00 0.0000000e+00 1.0000000e+00 
0.0000000e+00 0.0000000e+00 2.0000000e+00 
0.0000000e+00 0.0000000e+00 3.0000000e+00 
0.0000000e+00 0.0000000e+00 4.0000000e+00 
0.0000000e+00 0.0000000e+00 5.0000000e+00 
0.0000000e+00 0.0000000e+00 6.0000000e+00 
0.0000000e+00 0.0000000e+00 7.0000000e+00 
0.0000000e+00 0.0000000e+00 8.0000000e+00 
[...]
POINT_DATA 1919
FIELD FieldData 3
DISPLACEMENT 3 1919  float
0.0000000e+00 0.0000000e+00 0.0000000e+00 
0.0000000e+00 0.0000000e+00 0.0000000e+00 
0.0000000e+00 0.0000000e+00 0.0000000e+00 
0.0000000e+00 0.0000000e+00 0.0000000e+00 
-7.7030785e-07 -2.2581114e-06 -5.5774018e-07 
-1.2300194e-07 6.8587985e-07 -6.6194252e-07 
0.0000000e+00 2.3016750e-05 0.0000000e+00 
0.0000000e+00 -1.1973508e-05 0.0000000e+00 
9.6097074e-07 6.4315066e-07 -1.0297633e-07 
-1.3910756e-06 7.8442952e-07 -1.1794219e-06 
1.6877165e-06 3.9710444e-06 -1.8184301e-06 
-1.7949505e-06 -4.7813677e-07 -5.0642470e-06 
0.0000000e+00 3.5324119e-05 0.0000000e+00 
0.0000000e+00 -2.6664920e-05 0.0000000e+00 
1.7566239e-05 5.5318505e-05 -2.9033970e-05 
-1.1083420e-05 -2.0168020e-05 -3.0507941e-05 
1.9445964e-05 9.9172976e-05 -3.9216225e-06 
1.8898239e-05 -7.3950971e-05 -4.1323732e-05 
0.0000000e+00 7.4190430e-05 0.0000000e+00 
0.0000000e+00 -4.6308291e-05 0.0000000e+00 
6.1437022e-06 8.9104411e-05 -1.3498661e-06 
8.0629334e-06 6.7258763e-05 -8.6507216e-06 
1.2004948e-05 4.9361497e-05 -2.9360742e-06 
9.3789986e-06 4.5686738e-05 1.4104099e-06 
7.9725714e-06 5.4019732e-05 6.0242842e-06 
7.7109416e-06 6.0586204e-05 -4.0736995e-06 
1.2908271e-05 5.5728673e-05 -1.4663122e-05 
2.1065835e-05 4.5764795e-05 -2.1113023e-05 
2.8556280e-05 4.6178746e-05 -2.2521208e-05 
1.8440805e-05 6.6022825e-05 -1.2530058e-05 
8.8989691e-06 1.0110246e-04 -7.8769344e-06 
9.6588692e-06 1.3623535e-04 -1.4492617e-05 
1.5057327e-05 1.5434049e-04 -1.5172213e-05 
2.4950086e-05 1.4947077e-04 -3.5674625e-06 
2.8373146e-05 1.3547945e-04 -1.8086496e-06 
1.8231547e-05 1.3735074e-04 1.0312388e-05 
1.7357355e-05 1.6378349e-04 2.7770100e-05 
3.1580203e-05 1.9854716e-04 2.8219258e-05 
3.9958275e-05 2.1684372e-04 3.5109570e-05 
3.8358816e-05 2.0587140e-04 5.2884083e-05 
3.9615257e-05 1.7618905e-04 7.5452568e-05 
2.2849674e-05 1.4860020e-04 1.0394338e-04 
-8.6901055e-06 1.2517882e-04 1.2072652e-04 
-1.7549957e-05 6.6557128e-05 1.2513288e-04 
-2.0359957e-05 -1.2083028e-04 1.7669596e-04 
-4.4904296e-05 -5.6584826e-04 1.4569939e-04 
-7.4522897e-05 -1.3393508e-03 2.3510956e-04 
-1.2177184e-04 -2.3912298e-03 1.5295483e-04 
-1.4901481e-04 -3.5672092e-03 2.6812340e-04 
-2.0751311e-04 -4.4942242e-03 5.4229713e-05 
-2.3146909e-04 -4.7843214e-03 4.3399978e-05 
-2.2685999e-04 -4.5893402e-03 -6.0950738e-06 
-2.2923089e-04 -4.4804579e-03 -4.1101019e-05 
-2.2699519e-04 -4.5872210e-03 -9.4337680e-05 
-2.4347968e-04 -4.6572019e-03 -7.8241210e-05 
-2.3591521e-04 -4.1536652e-03 -1.0647161e-04 
-2.1846413e-04 -3.1444139e-03 -2.2853493e-04 
-1.6827608e-04 -2.0586122e-03 -1.4532232e-04 
-1.3505647e-04 -1.1803354e-03 -2.2161509e-04 
-1.0683966e-04 -5.6777988e-04 -1.5225413e-04 
-5.6406843e-05 -2.0358253e-04 -1.6003000e-04 
-2.6890093e-05 -3.3518561e-05 -1.2234588e-04 
-2.2496758e-06 1.2220044e-05 -1.0287992e-04 
-4.3472569e-06 3.4398693e-06 -7.6197444e-05 
-3.5958703e-06 -9.1466154e-06 -4.6311725e-05 
-2.1399510e-05 -1.0262502e-05 -2.7928023e-05 
-2.1972945e-05 -5.5273849e-06 -2.2561537e-05 
-1.1548918e-05 -2.9167297e-06 -2.7957500e-05 
3.6873989e-06 4.7690401e-06 -3.6070931e-05 
1.0349880e-05 3.3803699e-05 -3.8034832e-05 
1.6219692e-05 9.1570189e-05 -4.1740172e-05 
2.7867025e-05 1.6858392e-04 -1.8065815e-05 
4.5787136e-05 2.3975644e-04 1.5626656e-06 
6.0507606e-05 2.7804542e-04 2.6138336e-05 
6.8888519e-05 2.7529083e-04 4.3265263e-05 
5.5460932e-05 2.4865565e-04 6.9508409e-05 
2.7795826e-05 2.2589644e-04 8.7009001e-05 
2.0944133e-05 2.3223521e-04 7.1271978e-05 
2.4609293e-05 2.5915616e-04 6.1162027e-05 
3.6629281e-05 2.7495253e-04 3.9985713e-05 
4.7585676e-05 2.6307217e-04 3.4252429e-05 
3.8862803e-05 2.2142126e-04 7.2476192e-05 
3.1344865e-05 1.5756389e-04 1.0892912e-04 
1.2013600e-05 5.1473689e-05 1.4369242e-04 
-9.3702874e-06 -1.7423391e-04 2.2716302e-04 
-6.1234474e-05 -6.3953258e-04 1.8024034e-04 
-8.1887367e-05 -1.4571835e-03 2.9017954e-04 
-1.6548811e-04 -2.6314370e-03 1.6044889e-04 
-1.7993328e-04 -3.9752605e-03 1.6568968e-04 
2.6130187e-05 -4.9641090e-03 2.7530271e-04 
-2.2128198e-04 -5.0615971e-03 2.2924470e-04 
-2.5359727e-04 -4.7863638e-03 7.6261844e-05 
-2.9163453e-04 -4.7128564e-03 1.3741897e-05 
-2.3881208e-04 -4.8926068e-03 -1.0110690e-04 
-3.6095499e-04 -4.9699214e-03 -1.7633810e-04 
-2.8138619e-04 -4.2667375e-03 -2.0378236e-04 
-2.1832714e-04 -3.1057985e-03 -3.5838716e-04 
-1.3938903e-04 -1.9208103e-03 -2.5207529e-04 
-7.2793882e-05 -9.6508901e-04 -2.9340753e-04 
-3.7924518e-05 -3.1299729e-04 -1.7444325e-04 
-3.8795724e-06 3.8076305e-05 -1.3872146e-04 
1.0670983e-05 1.5993348e-04 -7.7426055e-05 
1.9538917e-05 1.4624577e-04 -3.5593956e-05 
1.3511598e-05 7.9043850e-05 -9.6908270e-06 
9.0520753e-06 1.2591021e-05 8.5881065e-06 
2.7388928e-06 -3.3285596e-05 1.0502132e-05 
-4.4520129e-06 -5.3767901e-05 1.7071165e-05 
2.7720151e-07 -5.1091141e-05 1.5833481e-05 
1.9856850e-05 -2.9959150e-05 3.6174915e-05 
1.5570031e-05 1.7582208e-06 4.2609583e-05 
6.6231300e-06 3.3927739e-05 3.2893247e-05 
4.6422028e-06 5.8572507e-05 2.3247383e-05 
1.9666408e-07 7.1312206e-05 6.6639686e-06 
2.9112757e-06 7.0931150e-05 1.9936281e-06 
5.4447260e-06 5.6787299e-05 9.8580058e-06 
-4.7688659e-06 3.0787807e-05 1.3568129e-05 
-1.3918118e-05 -3.4149361e-06 1.3614070e-05 
-1.3397159e-05 -3.8124799e-05 -1.4554358e-06 
-9.9424660e-06 -6.4289619e-05 -2.3617165e-05 
0.0000000e+00 9.8751130e-05 0.0000000e+00 
0.0000000e+00 8.8852910e-05 0.0000000e+00 
0.0000000e+00 6.7460511e-05 0.0000000e+00 
0.0000000e+00 4.9915190e-05 0.0000000e+00 
0.0000000e+00 4.6278881e-05 0.0000000e+00 
0.0000000e+00 5.3951502e-05 0.0000000e+00 
0.0000000e+00 5.9926155e-05 0.0000000e+00 
0.0000000e+00 5.5262553e-05 0.0000000e+00 
0.0000000e+00 4.5986402e-05 0.0000000e+00 
0.0000000e+00 4.6729016e-05 0.0000000e+00 
0.0000000e+00 6.6532099e-05 0.0000000e+00 
0.0000000e+00 1.0139211e-04 0.0000000e+00 
0.0000000e+00 1.3600418e-04 0.0000000e+00 
0.0000000e+00 1.5348243e-04 0.0000000e+00 
0.0000000e+00 1.4872767e-04 0.0000000e+00 
0.0000000e+00 1.3588618e-04 0.0000000e+00 
0.0000000e+00 1.3841351e-04 0.0000000e+00 
0.0000000e+00 1.6462516e-04 0.0000000e+00 
0.0000000e+00 1.9853961e-04 0.0000000e+00 
0.0000000e+00 2.1592548e-04 0.0000000e+00 
0.0000000e+00 2.0519531e-04 0.0000000e+00 
0.0000000e+00 1.7656574e-04 0.0000000e+00 
0.0000000e+00 1.5019157e-04 0.0000000e+00 
0.0000000e+00 1.2820547e-04 0.0000000e+00 
0.0000000e+00 6.9335380e-05 0.0000000e+00 
0.0000000e+00 -1.2261719e-04 0.0000000e+00 
0.0000000e+00 -5.7169684e-04 0.0000000e+00 
0.0000000e+00 -1.3463402e-03 0.0000000e+00 
0.0000000e+00 -2.4041864e-03 0.0000000e+00 
0.0000000e+00 -3.5803870e-03 0.0000000e+00 
0.0000000e+00 -4.5201341e-03 0.0000000e+00 
0.0000000e+00 -4.8108222e-03 0.0000000e+00 
0.0000000e+00 -4.6211318e-03 0.0000000e+00 
0.0000000e+00 -4.5011891e-03 0.0000000e+00 
0.0000000e+00 -4.6132361e-03 0.0000000e+00 
0.0000000e+00 -4.6793721e-03 0.0000000e+00 
0.0000000e+00 -4.1805389e-03 0.0000000e+00 
0.0000000e+00 -3.1601219e-03 0.0000000e+00 
0.0000000e+00 -2.0689229e-03 0.0000000e+00 
0.0000000e+00 -1.1838267e-03 0.0000000e+00 
0.0000000e+00 -5.6963420e-04 0.0000000e+00 
0.0000000e+00 -2.0436117e-04 0.0000000e+00 
0.0000000e+00 -3.3250493e-05 0.0000000e+00 
0.0000000e+00 1.3354945e-05 0.0000000e+00 
0.0000000e+00 5.1535912e-06 0.0000000e+00 
0.0000000e+00 -8.1553053e-06 0.0000000e+00 
0.0000000e+00 -1.0150075e-05 0.0000000e+00 
0.0000000e+00 -6.2417721e-06 0.0000000e+00 
0.0000000e+00 -3.3871554e-06 0.0000000e+00 
0.0000000e+00 5.0053372e-06 0.0000000e+00 
0.0000000e+00 3.4414399e-05 0.0000000e+00 
0.0000000e+00 9.2401242e-05 0.0000000e+00 
0.0000000e+00 1.6899720e-04 0.0000000e+00 
0.0000000e+00 2.3919351e-04 0.0000000e+00 
0.0000000e+00 2.7691590e-04 0.0000000e+00 
0.0000000e+00 2.7437901e-04 0.0000000e+00 
0.0000000e+00 2.4827154e-04 0.0000000e+00 
0.0000000e+00 2.2754290e-04 0.0000000e+00 
0.0000000e+00 2.3401772e-04 0.0000000e+00 
0.0000000e+00 2.5925008e-04 0.0000000e+00 
0.0000000e+00 2.7452601e-04 0.0000000e+00 
0.0000000e+00 2.6218098e-04 0.0000000e+00 
0.0000000e+00 2.2217000e-04 0.0000000e+00 
0.0000000e+00 1.6015036e-04 0.0000000e+00 
0.0000000e+00 5.3927070e-05 0.0000000e+00 
0.0000000e+00 -1.7363024e-04 0.0000000e+00 
0.0000000e+00 -6.4374937e-04 0.0000000e+00 
0.0000000e+00 -1.4670137e-03 0.0000000e+00 
0.0000000e+00 -2.6509652e-03 0.0000000e+00 
0.0000000e+00 -3.9947960e-03 0.0000000e+00 
0.0000000e+00 -4.9799755e-03 0.0000000e+00 
0.0000000e+00 -5.0884113e-03 0.0000000e+00 
0.0000000e+00 -4.8160097e-03 0.0000000e+00 
0.0000000e+00 -4.7354731e-03 0.0000000e+00 
0.0000000e+00 -4.9279351e-03 0.0000000e+00 
0.0000000e+00 -4.9909446e-03 0.0000000e+00 
0.0000000e+00 -4.2907903e-03 0.0000000e+00 
0.0000000e+00 -3.1184012e-03 0.0000000e+00 
0.0000000e+00 -1.9298526e-03 0.0000000e+00 
0.0000000e+00 -9.6932956e-04 0.0000000e+00 
0.0000000e+00 -3.1623870e-04 0.0000000e+00 
0.0000000e+00 3.7528800e-05 0.0000000e+00 
0.0000000e+00 1.6113644e-04 0.0000000e+00 
0.0000000e+00 1.4784174e-04 0.0000000e+00 
0.0000000e+00 8.0584432e-05 0.0000000e+00 
0.0000000e+00 1.3145426e-05 0.0000000e+00 
0.0000000e+00 -3.2968372e-05 0.0000000e+00 
0.0000000e+00 -5.3548178e-05 0.0000000e+00 
0.0000000e+00 -5.0912455e-05 0.0000000e+00 
0.0000000e+00 -2.9946110e-05 0.0000000e+00 
0.0000000e+00 1.5599596e-06 0.0000000e+00 
0.0000000e+00 3.3763339e-05 0.0000000e+00 
0.0000000e+00 5.8510799e-05 0.0000000e+00 
0.0000000e+00 7.1337090e-05 0.0000000e+00 
0.0000000e+00 7.0775779e-05 0.0000000e+00 
0.0000000e+00 5.6640594e-05 0.0000000e+00 
0.0000000e+00 3.0601383e-05 0.0000000e+00 
0.0000000e+00 -3.4037439e-06 0.0000000e+00 
0.0000000e+00 -3.8002217e-05 0.0000000e+00 
0.0000000e+00 -6.4109117e-05 0.0000000e+00 
0.0000000e+00 -7.3874413e-05 0.0000000e+00 
5.6246252e-05 -1.1081829e-04 -1.1023069e-05 
-2.7746565e-04 -4.3797260e-03 8.2079889e-05 
0.0000000e+00 0.0000000e+00 0.0000000e+00 
0.0000000e+00 0.0000000e+00 0.0000000e+00 
0.0000000e+00 0.0000000e+00 0.0000000e+00 
0.0000000e+00 0.0000000e+00 0.0000000e+00 
0.0000000e+00 0.0000000e+00 0.0000000e+00 
0.0000000e+00 0.0000000e+00 0.0000000e+00 
0.0000000e+00 0.0000000e+00 0.0000000e+00 
0.0000000e+00 0.0000000e+00 0.0000000e+00 
0.0000000e+00 0.0000000e+00 0.0000000e+00 
0.0000000e+00 0.0000000e+00 0.0000000e+00 
0.0000000e+00 0.0000000e+00 0.0000000e+00 
0.0000000e+00 0.0000000e+00 0.0000000e+00 
0.0000000e+00 0.0000000e+00 0.0000000e+00 
0.0000000e+00 0.0000000e+00 0.0000000e+00 
0.0000000e+00 0.0000000e+00 0.0000000e+00 
0.0000000e+00 0.0000000e+00 0.0000000e+00 
0.0000000e+00 0.0000000e+00 0.0000000e+00 
0.0000000e+00 0.0000000e+00 0.0000000e+00 
0.0000000e+00 0.0000000e+00 0.0000000e+00 
0.0000000e+00 0.0000000e+00 0.0000000e+00 
0.0000000e+00 0.0000000e+00 0.0000000e+00 
0.0000000e+00 0.0000000e+00 0.0000000e+00 
0.0000000e+00 0.0000000e+00 0.0000000e+00 
0.0000000e+00 0.0000000e+00 0.0000000e+00 
0.0000000e+00 0.0000000e+00 0.0000000e+00 
0.0000000e+00 0.0000000e+00 0.0000000e+00 
0.0000000e+00 0.0000000e+00 0.0000000e+00 
0.0000000e+00 0.0000000e+00 0.0000000e+00 
0.0000000e+00 0.0000000e+00 0.0000000e+00 
0.0000000e+00 0.0000000e+00 0.0000000e+00 
0.0000000e+00 0.0000000e+00 0.0000000e+00 
0.0000000e+00 0.0000000e+00 0.0000000e+00 
0.0000000e+00 0.0000000e+00 0.0000000e+00 
0.0000000e+00 0.0000000e+00 0.0000000e+00 
0.0000000e+00 0.0000000e+00 0.0000000e+00 
0.0000000e+00 0.0000000e+00 0.0000000e+00 
0.0000000e+00 0.0000000e+00 0.0000000e+00 
0.0000000e+00 0.0000000e+00 0.0000000e+00 
0.0000000e+00 0.0000000e+00 0.0000000e+00 
0.0000000e+00 0.0000000e+00 0.0000000e+00 
0.0000000e+00 0.0000000e+00 0.0000000e+00 
0.0000000e+00 0.0000000e+00 0.0000000e+00 
0.0000000e+00 0.0000000e+00 0.0000000e+00 
0.0000000e+00 0.0000000e+00 0.0000000e+00 
0.0000000e+00 0.0000000e+00 0.0000000e+00 
0.0000000e+00 0.0000000e+00 0.0000000e+00 
0.0000000e+00 0.0000000e+00 0.0000000e+00 
0.0000000e+00 0.0000000e+00 0.0000000e+00 
0.0000000e+00 0.0000000e+00 0.0000000e+00 
0.0000000e+00 0.0000000e+00 0.0000000e+00 
0.0000000e+00 0.0000000e+00 0.0000000e+00 
0.0000000e+00 0.0000000e+00 0.0000000e+00 
0.0000000e+00 0.0000000e+00 0.0000000e+00 
0.0000000e+00 0.0000000e+00 0.0000000e+00 
0.0000000e+00 0.0000000e+00 0.0000000e+00 
0.0000000e+00 0.0000000e+00 0.0000000e+00 
0.0000000e+00 0.0000000e+00 0.0000000e+00 
0.0000000e+00 0.0000000e+00 0.0000000e+00 
0.0000000e+00 0.0000000e+00 0.0000000e+00 
0.0000000e+00 0.0000000e+00 0.0000000e+00 
0.0000000e+00 0.0000000e+00 0.0000000e+00 
0.0000000e+00 0.0000000e+00 0.0000000e+00 
0.0000000e+00 0.0000000e+00 0.0000000e+00 
0.0000000e+00 0.0000000e+00 0.0000000e+00 
0.0000000e+00 0.0000000e+00 0.0000000e+00 
0.0000000e+00 0.0000000e+00 0.0000000e+00 
0.0000000e+00 0.0000000e+00 0.0000000e+00 
0.0000000e+00 0.0000000e+00 0.0000000e+00 
0.0000000e+00 0.0000000e+00 0.0000000e+00 
0.0000000e+00 0.0000000e+00 0.0000000e+00 
0.0000000e+00 0.0000000e+00 0.0000000e+00 
0.0000000e+00 0.0000000e+00 0.0000000e+00 
0.0000000e+00 0.0000000e+00 0.0000000e+00 
0.0000000e+00 0.0000000e+00 0.0000000e+00 
0.0000000e+00 0.0000000e+00 0.0000000e+00 
0.0000000e+00 0.0000000e+00 0.0000000e+00 
0.0000000e+00 0.0000000e+00 0.0000000e+00 
0.0000000e+00 0.0000000e+00 0.0000000e+00 
0.0000000e+00 0.0000000e+00 0.0000000e+00 
0.0000000e+00 0.0000000e+00 0.0000000e+00 
0.0000000e+00 0.0000000e+00 0.0000000e+00 
0.0000000e+00 0.0000000e+00 0.0000000e+00 
0.0000000e+00 0.0000000e+00 0.0000000e+00 
0.0000000e+00 0.0000000e+00 0.0000000e+00 
0.0000000e+00 0.0000000e+00 0.0000000e+00 
0.0000000e+00 0.0000000e+00 0.0000000e+00 
0.0000000e+00 0.0000000e+00 0.0000000e+00 
0.0000000e+00 0.0000000e+00 0.0000000e+00 
0.0000000e+00 0.0000000e+00 0.0000000e+00 
0.0000000e+00 0.0000000e+00 0.0000000e+00 
0.0000000e+00 0.0000000e+00 0.0000000e+00 
0.0000000e+00 0.0000000e+00 0.0000000e+00 
0.0000000e+00 0.0000000e+00 0.0000000e+00 
0.0000000e+00 0.0000000e+00 0.0000000e+00 
0.0000000e+00 0.0000000e+00 0.0000000e+00 
0.0000000e+00 0.0000000e+00 0.0000000e+00 
0.0000000e+00 0.0000000e+00 0.0000000e+00 
0.0000000e+00 0.0000000e+00 0.0000000e+00 
0.0000000e+00 0.0000000e+00 0.0000000e+00 
0.0000000e+00 0.0000000e+00 0.0000000e+00 
0.0000000e+00 0.0000000e+00 0.0000000e+00 
0.0000000e+00 0.0000000e+00 0.0000000e+00 
0.0000000e+00 0.0000000e+00 0.0000000e+00 
0.0000000e+00 0.0000000e+00 0.0000000e+00 
0.0000000e+00 0.0000000e+00 0.0000000e+00 
0.0000000e+00 0.0000000e+00 0.0000000e+00 
-1.7870609e-06 1.5691348e-06 3.4613595e-07 
-4.3259279e-06 1.5572765e-06 2.2273553e-06 
-2.9742559e-06 -3.0790306e-07 9.7217253e-07 
-4.7380243e-07 -7.6588424e-07 3.6909755e-06 
-3.7816985e-06 1.8771707e-06 3.6855397e-06 
3.1260021e-07 -2.1872702e-06 -8.5907976e-07 
-4.9346932e-07 4.8108319e-08 1.6893458e-06 
-1.1873362e-06 5.4790653e-06 1.5361022e-06 
1.3923569e-06 -2.5104718e-08 1.6147189e-06 
-5.3195670e-08 -9.6853082e-06 -5.2328542e-06 
8.9743680e-06 -1.8747248e-06 -1.4363300e-05 
1.8851077e-05 -9.0032991e-06 -1.9024203e-05 
2.8134558e-05 -1.7118162e-05 -2.1724343e-05 
4.0584193e-05 -5.2495689e-06 -2.2050048e-05 
5.0890838e-05 -1.3651993e-05 -1.5447276e-05 
4.4689594e-05 -1.4287756e-05 -3.5332400e-06 
3.8012797e-05 -1.1224085e-05 -4.2744935e-07 
3.4072731e-05 -9.4878342e-06 5.3010076e-06 
2.3937951e-05 -7.0329656e-06 1.0828553e-05 
9.8975133e-06 -3.8777130e-06 9.4542374e-06 
2.6551388e-06 -2.9910316e-06 7.0005312e-06 
-4.5755917e-07 3.4035392e-07 7.9985939e-06 
-1.4109880e-06 1.3673541e-06 6.4238757e-06 
-4.0728282e-06 5.5958408e-06 9.4935904e-06 
-6.5982308e-06 2.9398607e-06 1.7096429e-05 
-8.4654621e-06 -6.4511238e-07 9.3789868e-06 
-8.4489875e-06 -6.9328536e-07 3.7004797e-06 
-7.7822682e-07 -2.0846228e-06 -3.9017887e-06 
9.0717901e-07 2.9741655e-06 -3.1934378e-06 
4.3484993e-06 -8.3962768e-06 -5.0578310e-06 
1.2344445e-05 -7.9355541e-06 -8.4719886e-06 
2.0038491e-05 -4.9441974e-06 -1.1709501e-05 
3.4683242e-05 -1.6759444e-05 -1.5893926e-05 
4.2748252e-05 -1.7085367e-05 -1.4682896e-05 
4.6997477e-05 -1.6202310e-05 -9.5103533e-06 
4.4935048e-05 -2.0157282e-05 -4.0303826e-06 
4.2391606e-05 -1.2416762e-05 -1.6647653e-07 
3.6522819e-05 -1.2065639e-05 5.3176818e-06 
2.6074937e-05 -8.9477471e-06 6.0561320e-06 
1.2572043e-05 -3.5933979e-06 6.9947314e-06 
6.9761268e-06 -1.0821184e-06 7.4252762e-06 
4.2015699e-06 -1.7572872e-06 6.1537357e-06 
3.0829499e-06 -1.6058265e-06 7.0423916e-06 
2.1881435e-06 -3.9578617e-07 7.3201859e-06 
1.3931960e-06 -3.6749292e-08 6.8485792e-06 
8.6172025e-07 -3.6657678e-07 4.0202003e-06 
7.7316173e-07 -1.5723776e-06 7.1731500e-07 
3.7291471e-07 -7.8345016e-07 -5.4511651e-07 
1.9404402e-07 3.1176040e-07 -1.1678324e-06 
0.0000000e+00 1.0306676e-05 0.0000000e+00 
0.0000000e+00 7.1707341e-06 0.0000000e+00 
0.0000000e+00 7.4362920e-06 0.0000000e+00 
0.0000000e+00 6.2572981e-06 0.0000000e+00 
0.0000000e+00 1.9516450e-05 0.0000000e+00 
0.0000000e+00 4.1933814e-05 0.0000000e+00 
0.0000000e+00 4.2891519e-05 0.0000000e+00 
0.0000000e+00 4.6867328e-05 0.0000000e+00 
0.0000000e+00 5.6939909e-05 0.0000000e+00 
0.0000000e+00 2.2255943e-05 0.0000000e+00 
0.0000000e+00 -4.2953845e-05 0.0000000e+00 
0.0000000e+00 -5.0901257e-05 0.0000000e+00 
0.0000000e+00 -1.7043401e-04 0.0000000e+00 
0.0000000e+00 -3.6311583e-04 0.0000000e+00 
0.0000000e+00 -4.6527165e-04 0.0000000e+00 
0.0000000e+00 -5.5516890e-04 0.0000000e+00 
0.0000000e+00 -4.9957965e-04 0.0000000e+00 
0.0000000e+00 -4.2644181e-04 0.0000000e+00 
0.0000000e+00 -2.5596659e-04 0.0000000e+00 
0.0000000e+00 -1.1685773e-04 0.0000000e+00 
0.0000000e+00 -8.4086469e-06 0.0000000e+00 
0.0000000e+00 2.8452167e-05 0.0000000e+00 
0.0000000e+00 4.2069707e-05 0.0000000e+00 
0.0000000e+00 3.2416108e-05 0.0000000e+00 
0.0000000e+00 4.2074666e-05 0.0000000e+00 
0.0000000e+00 4.2976484e-05 0.0000000e+00 
0.0000000e+00 7.9977828e-05 0.0000000e+00 
0.0000000e+00 5.4157063e-05 0.0000000e+00 
0.0000000e+00 5.0112219e-05 0.0000000e+00 
0.0000000e+00 2.7452877e-05 0.0000000e+00 
0.0000000e+00 -2.9086828e-05 0.0000000e+00 
0.0000000e+00 2.0388481e-05 0.0000000e+00 
0.0000000e+00 -1.1057349e-04 0.0000000e+00 
0.0000000e+00 -3.8012932e-04 0.0000000e+00 
0.0000000e+00 -5.2059878e-04 0.0000000e+00 
0.0000000e+00 -5.7477364e-04 0.0000000e+00 
0.0000000e+00 -5.9407024e-04 0.0000000e+00 
0.0000000e+00 -4.7953895e-04 0.0000000e+00 
0.0000000e+00 -2.2675637e-04 0.0000000e+00 
0.0000000e+00 -7.7150777e-05 0.0000000e+00 
0.0000000e+00 3.3329641e-06 0.0000000e+00 
0.0000000e+00 -1.4244117e-06 0.0000000e+00 
0.0000000e+00 -1.9682089e-05 0.0000000e+00 
0.0000000e+00 -1.2377173e-05 0.0000000e+00 
0.0000000e+00 6.0631405e-06 0.0000000e+00 
0.0000000e+00 1.4153560e-05 0.0000000e+00 
0.0000000e+00 1.6918562e-05 0.0000000e+00 
0.0000000e+00 8.0222735e-06 0.0000000e+00 
0.0000000e+00 -1.0769815e-05 0.0000000e+00 
-1.3357965e-06 1.3954923e-06 -5.4930854e-07 
-4.6851383e-06 4.4239673e-06 3.3741287e-06 
-4.7575595e-06 8.5818747e-06 3.3013046e-06 
-2.7431674e-06 1.4934396e-05 2.4192022e-06 
-4.1211279e-09 3.4162150e-07 -1.3655364e-06 
9.0962283e-07 -6.9781146e-07 -2.2582417e-06 
2.8288296e-06 -3.4473705e-06 -2.2672330e-06 
2.7665280e-06 -8.6157424e-06 8.6083979e-08 
8.1849942e-07 -9.2874444e-08 -1.0468182e-07 
-1.6991105e-06 1.0356536e-06 7.7314087e-07 
-1.2084931e-06 6.7811044e-07 2.8761146e-06 
-3.2789087e-06 -4.4198955e-06 5.6874678e-06 
-1.0680303e-06 1.6694137e-06 1.0215804e-06 
7.5364837e-06 -6.4118362e-06 3.6423769e-06 
8.2745128e-06 -1.7428079e-06 5.6164513e-06 
3.7172510e-06 4.9820737e-06 4.3028049e-06 
4.5521142e-06 -8.2418082e-06 -1.4112064e-06 
1.1766922e-05 -5.4090970e-06 -1.0313287e-05 
1.7974195e-05 -2.5203983e-06 -1.2954300e-05 
2.2109300e-05 -1.3512045e-05 -1.6577624e-05 
3.1195686e-05 -1.3657317e-05 -2.6151731e-05 
3.1377516e-05 -4.4881131e-06 -2.7390815e-05 
3.6664838e-05 -1.3730879e-05 -2.5022073e-05 
4.6198849e-05 -6.3094540e-06 -9.9496365e-06 
3.7089547e-05 -2.6488044e-06 -4.3930376e-07 
2.2019742e-05 -7.4380091e-06 1.1266665e-06 
1.9429694e-05 -8.0737647e-07 9.4557763e-06 
5.8520159e-06 -4.9185303e-07 9.5636788e-06 
2.0185450e-06 -3.1830348e-06 8.2354054e-06 