# vtk DataFile Version 4.0
vtk output
ASCII
DATASET UNSTRUCTURED_GRID
POINTS 1919 float
0.0000000e+00 0.0000000e+00 0.0000000e+00 
0.0000000e+00 0.0000000e+00 5.0000000e+01 
5.0000000e+00 0.0000000e+00 0.0000000e+00 
5.0000000e+00 0.0000000e+00 5.0000000e+01 
5.0000000e+00 1.0000000e+00 0.0000000e+00 
5.0000000e+00 1.0000000e+00 5.0000000e+01 
0.0000000e+00 1.0000000e+00 0.0000000e+00 
0.0000000e+00 1.0000000e+00 5.0000000e+01 
5.0000000e+00 2.0000000e+00 0.0000000e+00 
5.0000000e+00 2.0000000e+00 5.0000000e+01 
3.0000000e+00 2.0000000e+00 0.0000000e+00 
3.0000000e+00 2.0000000e+00 5.0000000e+01 
0.0000000e+00 2.0000000e+00 0.0000000e+00 
0.0000000e+00 2.0000000e+00 5.0000000e+01 
1.5000000e+00 3.0000000e+00 0.0000000e+00 
1.5000000e+00 3.0000000e+00 5.0000000e+01 
7.5000000e-01 3.0000000e+00 0.0000000e+00 
7.5000000e-01 3.0000000e+00 5.0000000e+01 
0.0000000e+00 3.0000000e+00 0.0000000e+00 
0.0000000e+00 3.0000000e+00 5.0000000e+01 
7.5000000e-01 3.0000000e+00 5.0000000e-01 
7.5000000e-01 3.0000000e+00 1.0000000e+00 
7.5000000e-01 3.0000000e+00 1.5000000e+00 
7.5000000e-01 3.0000000e+00 2.0000000e+00 
7.5000000e-01 3.0000000e+00 2.5000000e+00 
7.5000000e-01 3.0000000e+00 3.0000000e+00 
7.5000000e-01 3.0000000e+00 3.5000000e+00 
7.5000000e-01 3.0000000e+00 4.0000000e+00 
7.5000000e-01 3.0000000e+00 4.5000000e+00 
7.5000000e-01 3.0000000e+00 5.0000000e+00 
7.5000000e-01 3.0000000e+00 5.5000000e+00 
7.5000000e-01 3.0000000e+00 6.0000000e+00 
7.5000000e-01 3.0000000e+00 6.5000000e+00 
7.5000000e-01 3.0000000e+00 7.0000000e+00 
7.5000000e-01 3.0000000e+00 7.5000000e+00 
7.5000000e-01 3.0000000e+00 8.0000000e+00 
7.5000000e-01 3.0000000e+00 8.5000000e+00 
7.5000000e-01 3.0000000e+00 9.0000000e+00 
7.5000000e-01 3.0000000e+00 9.5000000e+00 
7.5000000e-01 3.0000000e+00 1.0000000e+01 
7.5000000e-01 3.0000000e+00 1.0500000e+01 
7.5000000e-01 3.0000000e+00 1.1000000e+01 
7.5000000e-01 3.0000000e+00 1.1500000e+01 
7.5000000e-01 3.0000000e+00 1.2000000e+01 
7.5000000e-01 3.0000000e+00 1.2500000e+01 
7.5000000e-01 3.0000000e+00 1.3000000e+01 
7.5000000e-01 3.0000000e+00 1.3500000e+01 
7.5000000e-01 3.0000000e+00 1.4000000e+01 
7.5000000e-01 3.0000000e+00 1.4500000e+01 
7.5000000e-01 3.0000000e+00 1.5000000e+01 
7.5000000e-01 3.0000000e+00 1.5500000e+01 
7.5000000e-01 3.0000000e+00 1.6000000e+01 
7.5000000e-01 3.0000000e+00 1.6500000e+01 
7.5000000e-01 3.0000000e+00 1.7000000e+01 
7.5000000e-01 3.0000000e+00 1.7500000e+01 
7.5000000e-01 3.0000000e+00 1.8000000e+01 
7.5000000e-01 3.0000000e+00 1.8500000e+01 
7.5000000e-01 3.0000000e+00 1.9000000e+01 
7.5000000e-01 3.0000000e+00 1.9500000e+01 
7.5000000e-01 3.0000000e+00 2.0000000e+01 
7.5000000e-01 3.0000000e+00 2.0500000e+01 
7.5000000e-01 3.0000000e+00 2.1000000e+01 
7.5000000e-01 3.0000000e+00 2.1500000e+01 
7.5000000e-01 3.0000000e+00 2.2000000e+01 
7.5000000e-01 3.0000000e+00 2.2500000e+01 
7.5000000e-01 3.0000000e+00 2.3000000e+01 
7.5000000e-01 3.0000000e+00 2.3500000e+01 
7.5000000e-01 3.0000000e+00 2.4000000e+01 
7.5000000e-01 3.0000000e+00 2.4500000e+01 
7.5000000e-01 3.0000000e+00 2.5000000e+01 
7.5000000e-01 3.0000000e+00 2.5500000e+01 
7.5000000e-01 3.0000000e+00 2.6000000e+01 
7.5000000e-01 3.0000000e+00 2.6500000e+01 
7.5000000e-01 3.0000000e+00 2.7000000e+01 
7.5000000e-01 3.0000000e+00 2.7500000e+01 
7.5000000e-01 3.0000000e+00 2.8000000e+01 
7.5000000e-01 3.0000000e+00 2.8500000e+01 
7.5000000e-01 3.0000000e+00 2.9000000e+01 
7.5000000e-01 3.0000000e+00 2.9500000e+01 
7.5000000e-01 3.0000000e+00 3.0000000e+01 
7.5000000e-01 3.0000000e+00 3.0500000e+01 
7.5000000e-01 3.0000000e+00 3.1000000e+01 
7.5000000e-01 3.0000000e+00 3.1500000e+01 
7.5000000e-01 3.0000000e+00 3.2000000e+01 
7.5000000e-01 3.0000000e+00 3.2500000e+01 
7.5000000e-01 3.0000000e+00 3.3000000e+01 
7.5000000e-01 3.0000000e+00 3.3500000e+01 
7.5000000e-01 3.0000000e+00 3.4000000e+01 
7.5000000e-01 3.0000000e+00 3.4500000e+01 
7.5000000e-01 3.0000000e+00 3.5000000e+01 
7.5000000e-01 3.0000000e+00 3.5500000e+01 
7.5000000e-01 3.0000000e+00 3.6000000e+01 
7.5000000e-01 3.0000000e+00 3.6500000e+01 
7.5000000e-01 3.0000000e+00 3.7000000e+01 
7.5000000e-01 3.0000000e+00 3.7500000e+01 
7.5000000e-01 3.0000000e+00 3.8000000e+01 
7.5000000e-01 3.0000000e+00 3.8500000e+01 
7.5000000e-01 3.0000000e+00 3.9000000e+01 
7.5000000e-01 3.0000000e+00 3.9500000e+01 
7.5000000e-01 3.0000000e+00 4.0000000e+01 
7.5000000e-01 3.0000000e+00 4.0500000e+01 
7.5000000e-01 3.0000000e+00 4.1000000e+01 
7.5000000e-01 3.0000000e+00 4.1500000e+01 
7.5000000e-01 3.0000000e+00 4.2000000e+01 
7.5000000e-01 3.0000000e+00 4.2500000e+01 
7.5000000e-01 3.0000000e+00 4.3000000e+01 
7.5000000e-01 3.0000000e+00 4.3500000e+01 
7.5000000e-01 3.0000000e+00 4.4000000e+01 
7.5000000e-01 3.0000000e+00 4.4500000e+01 
7.5000000e-01 3.0000000e+00 4.5000000e+01 
7.5000000e-01 3.0000000e+00 4.5500000e+01 
7.5000000e-01 3.0000000e+00 4.6000000e+01 
7.5000000e-01 3.0000000e+00 4.6500000e+01 
7.5000000e-01 3.0000000e+00 4.7000000e+01 
7.5000000e-01 3.0000000e+00 4.7500000e+01 
7.5000000e-01 3.0000000e+00 4.8000000e+01 
7.5000000e-01 3.0000000e+00 4.8500000e+01 
7.5000000e-01 3.0000000e+00 4.9000000e+01 
7.5000000e-01 3.0000000e+00 4.9500000e+01 
7.5000000e-01 3.0250001e+00 0.0000000e+00 
7.5000000e-01 3.0250001e+00 5.0000000e-01 
7.5000000e-01 3.0250001e+00 1.0000000e+00 
7.5000000e-01 3.0250001e+00 1.5000000e+00 
7.5000000e-01 3.0250001e+00 2.0000000e+00 
7.5000000e-01 3.0250001e+00 2.5000000e+00 
7.5000000e-01 3.0250001e+00 3.0000000e+00 
7.5000000e-01 3.0250001e+00 3.5000000e+00 
7.5000000e-01 3.0250001e+00 4.0000000e+00 
7.5000000e-01 3.0250001e+00 4.5000000e+00 
7.5000000e-01 3.0250001e+00 5.0000000e+00 
7.5000000e-01 3.0250001e+00 5.5000000e+00 
7.5000000e-01 3.0250001e+00 6.0000000e+00 
7.5000000e-01 3.0250001e+00 6.5000000e+00 
7.5000000e-01 3.0250001e+00 7.0000000e+00 
7.5000000e-01 3.0250001e+00 7.5000000e+00 
7.5000000e-01 3.0250001e+00 8.0000000e+00 
7.5000000e-01 3.0250001e+00 8.5000000e+00 
7.5000000e-01 3.0250001e+00 9.0000000e+00 
7.5000000e-01 3.0250001e+00 9.5000000e+00 
7.5000000e-01 3.0250001e+00 1.0000000e+01 
7.5000000e-01 3.0250001e+00 1.0500000e+01 
7.5000000e-01 3.0250001e+00 1.1000000e+01 
7.5000000e-01 3.0250001e+00 1.1500000e+01 
7.5000000e-01 3.0250001e+00 1.2000000e+01 
7.5000000e-01 3.0250001e+00 1.2500000e+01 
7.5000000e-01 3.0250001e+00 1.3000000e+01 
7.5000000e-01 3.0250001e+00 1.3500000e+01 
7.5000000e-01 3.0250001e+00 1.4000000e+01 
7.5000000e-01 3.0250001e+00 1.4500000e+01 
7.5000000e-01 3.0250001e+00 1.5000000e+01 
7.5000000e-01 3.0250001e+00 1.5500000e+01 
7.5000000e-01 3.0250001e+00 1.6000000e+01 
7.5000000e-01 3.0250001e+00 1.6500000e+01 
7.5000000e-01 3.0250001e+00 1.7000000e+01 
7.5000000e-01 3.0250001e+00 1.7500000e+01 
7.5000000e-01 3.0250001e+00 1.8000000e+01 
7.5000000e-01 3.0250001e+00 1.8500000e+01 
7.5000000e-01 3.0250001e+00 1.9000000e+01 
7.5000000e-01 3.0250001e+00 1.9500000e+01 
7.5000000e-01 3.0250001e+00 2.0000000e+01 
7.5000000e-01 3.0250001e+00 2.0500000e+01 
7.5000000e-01 3.0250001e+00 2.1000000e+01 
7.5000000e-01 3.0250001e+00 2.1500000e+01 
7.5000000e-01 3.0250001e+00 2.2000000e+01 
7.5000000e-01 3.0250001e+00 2.2500000e+01 
7.5000000e-01 3.0250001e+00 2.3000000e+01 
7.5000000e-01 3.0250001e+00 2.3500000e+01 
7.5000000e-01 3.0250001e+00 2.4000000e+01 
7.5000000e-01 3.0250001e+00 2.4500000e+01 
7.5000000e-01 3.0250001e+00 2.5000000e+01 
7.5000000e-01 3.0250001e+00 2.5500000e+01 
7.5000000e-01 3.0250001e+00 2.6000000e+01 
7.5000000e-01 3.0250001e+00 2.6500000e+01 
7.5000000e-01 3.0250001e+00 2.7000000e+01 
7.5000000e-01 3.0250001e+00 2.7500000e+01 
7.5000000e-01 3.0250001e+00 2.8000000e+01 
7.5000000e-01 3.0250001e+00 2.8500000e+01 
7.5000000e-01 3.0250001e+00 2.9000000e+01 
7.5000000e-01 3.0250001e+00 2.9500000e+01 
7.5000000e-01 3.0250001e+00 3.0000000e+01 
7.5000000e-01 3.0250001e+00 3.0500000e+01 
7.5000000e-01 3.0250001e+00 3.1000000e+01 
7.5000000e-01 3.0250001e+00 3.1500000e+01 
7.5000000e-01 3.0250001e+00 3.2000000e+01 
7.5000000e-01 3.0250001e+00 3.2500000e+01 
7.5000000e-01 3.0250001e+00 3.3000000e+01 
7.5000000e-01 3.0250001e+00 3.3500000e+01 
7.5000000e-01 3.0250001e+00 3.4000000e+01 
7.5000000e-01 3.0250001e+00 3.4500000e+01 
7.5000000e-01 3.0250001e+00 3.5000000e+01 
7.5000000e-01 3.0250001e+00 3.5500000e+01 
7.5000000e-01 3.0250001e+00 3.6000000e+01 
7.5000000e-01 3.0250001e+00 3.6500000e+01 
7.5000000e-01 3.0250001e+00 3.7000000e+01 
7.5000000e-01 3.0250001e+00 3.7500000e+01 
7.5000000e-01 3.0250001e+00 3.8000000e+01 
7.5000000e-01 3.0250001e+00 3.8500000e+01 
7.5000000e-01 3.0250001e+00 3.9000000e+01 
7.5000000e-01 3.0250001e+00 3.9500000e+01 
7.5000000e-01 3.0250001e+00 4.0000000e+01 
7.5000000e-01 3.0250001e+00 4.0500000e+01 
7.5000000e-01 3.0250001e+00 4.1000000e+01 
7.5000000e-01 3.0250001e+00 4.1500000e+01 
7.5000000e-01 3.0250001e+00 4.2000000e+01 
7.5000000e-01 3.0250001e+00 4.2500000e+01 
7.5000000e-01 3.0250001e+00 4.3000000e+01 
7.5000000e-01 3.0250001e+00 4.3500000e+01 
7.5000000e-01 3.0250001e+00 4.4000000e+01 
7.5000000e-01 3.0250001e+00 4.4500000e+01 
7.5000000e-01 3.0250001e+00 4.5000000e+01 
7.5000000e-01 3.0250001e+00 4.5500000e+01 
7.5000000e-01 3.0250001e+00 4.6000000e+01 
7.5000000e-01 3.0250001e+00 4.6500000e+01 
7.5000000e-01 3.0250001e+00 4.7000000e+01 
7.5000000e-01 3.0250001e+00 4.7500000e+01 
7.5000000e-01 3.0250001e+00 4.8000000e+01 
7.5000000e-01 3.0250001e+00 4.8500000e+01 
7.5000000e-01 3.0250001e+00 4.9000000e+01 
7.5000000e-01 3.0250001e+00 4.9500000e+01 
7.5000000e-01 3.0250001e+00 5.0000000e+01 
3.0000000e+00 2.0000000e+00 3.6000000e+01 
8.0487806e-01 3.0000000e+00 3.6000000e+01 
0.0000000e+00 0.0000000e+00 1.0000000e+00 
0.0000000e+00 0.0000000e+00 2.0000000e+00 
0.0000000e+00 0.0000000e+00 3.0000000e+00 
0.0000000e+00 0.0000000e+00 4.0000000e+00 
0.0000000e+00 0.0000000e+00 5.0000000e+00 
0.0000000e+00 0.0000000e+00 6.0000000e+00 
0.0000000e+00 0.0000000e+00 7.0000000e+00 
0.0000000e+00 0.0000000e+00 8.0000000e+00 
[...]
POINT_DATA 1919
FIELD FieldData 3
DISPLACEMENT 3 1919  float
0.0000000e+00 0.0000000e+00 0.0000000e+00 
0.0000000e+00 0.0000000e+00 0.0000000e+00 
0.0000000e+00 0.0000000e+00 0.0000000e+00 
0.0000000e+00 0.0000000e+00 0.0000000e+00 
6.9583422e-07 8.0428657e-07 -5.1395773e-07 
6.2715390e-07 -6.5521294e-07 1.7632560e-07 
0.0000000e+00 -1.5640853e-05 0.0000000e+00 
0.0000000e+00 2.8942904e-07 0.0000000e+00 
6.3595849e-07 -6.1283453e-07 -1.7257368e-06 
-1.3680109e-07 -1.6193011e-06 6.6353067e-07 
-1.7192423e-07 -1.3735910e-06 6.7988913e-07 
-3.6991122e-07 -1.0872863e-06 -6.1409878e-06 
0.0000000e+00 -2.4210096e-05 0.0000000e+00 
0.0000000e+00 -3.4399352e-07 0.0000000e+00 
-9.7940574e-06 -3.2453027e-05 -2.0694349e-06 
5.3602621e-06 -4.8478346e-06 -2.0235148e-05 
-2.1986732e-05 -2.8485800e-05 -1.7585253e-05 
1.5309499e-05 -5.6105655e-05 -1.4035134e-05 
0.0000000e+00 -5.1111245e-05 0.0000000e+00 
0.0000000e+00 3.8311514e-06 0.0000000e+00 
-5.2639152e-06 -2.2782109e-05 -1.1611003e-05 
-4.0180471e-06 -1.1374404e-05 -4.3239920e-06 
-1.1773978e-05 -4.6830010e-06 -4.9273317e-06 
-1.1023809e-05 -9.7683023e-06 -5.4494540e-06 
-4.7158419e-06 -2.5802523e-05 -2.2317172e-06 
-1.5139336e-06 -4.3628788e-05 1.0992763e-05 
-7.3898758e-07 -5.5541295e-05 2.6540896e-05 
-1.7046734e-05 -6.1250219e-05 3.4586399e-05 
-3.0377238e-05 -6.9449212e-05 4.0432795e-05 
-3.2029391e-05 -8.7116568e-05 3.4403929e-05 
-1.7984479e-05 -1.1407723e-04 2.8221402e-05 
-1.1553956e-05 -1.4267450e-04 2.5683737e-05 
-1.8076307e-05 -1.6315322e-04 2.3049610e-05 
-3.3954784e-05 -1.6828660e-04 1.6061815e-05 
-3.7680773e-05 -1.6058987e-04 1.0074911e-05 
-3.5283279e-05 -1.5121531e-04 -2.3170614e-06 
-3.3865119e-05 -1.4811481e-04 -1.8018589e-05 
-2.0279778e-05 -1.4949712e-04 -2.6144211e-05 
-2.2744320e-05 -1.4025035e-04 -5.3787840e-05 
-1.7237395e-05 -1.0317926e-04 -5.9983035e-05 
-1.3711728e-05 -3.7509690e-05 -7.1106078e-05 
6.8795302e-08 3.8086244e-05 -8.0565347e-05 
2.7348375e-05 1.0390599e-04 -8.5900574e-05 
3.4051882e-05 1.4936469e-04 -7.1734816e-05 
1.4957505e-05 1.8819951e-04 -7.1860581e-05 
1.8402208e-05 2.3951005e-04 -4.5937992e-05 
3.2624623e-05 2.9418542e-04 -8.9000896e-06 
3.2151918e-05 2.9251861e-04 1.2888539e-05 
3.9987863e-05 1.2570784e-04 1.0115709e-04 
2.8210645e-06 -3.2587608e-04 1.3736136e-04 
-3.9560804e-05 -1.1159984e-03 2.7190533e-04 
-1.1874339e-04 -2.1789125e-03 2.1327985e-04 
-1.7963325e-04 -3.3876933e-03 3.5205937e-04 
-2.7021224e-04 -4.4392371e-03 1.5409455e-04 
-3.0932855e-04 -4.9540801e-03 1.6551536e-04 
-3.0319128e-04 -4.9143732e-03 9.0526926e-05 
-3.0946729e-04 -4.8558861e-03 2.6732077e-05 
-3.0371305e-04 -4.9507590e-03 -6.1984530e-05 
-2.9207172e-04 -4.9982495e-03 -8.2504208e-05 
-2.4972032e-04 -4.4736960e-03 -1.5011292e-04 
-1.8250478e-04 -3.3431954e-03 -2.9294018e-04 
-1.0581865e-04 -2.0876681e-03 -1.6652653e-04 
-4.6875772e-05 -1.0649423e-03 -2.0932808e-04 
-1.0728676e-05 -3.5606330e-04 -7.9213991e-05 
2.8601293e-05 5.6110373e-05 -4.5828376e-05 
3.3125740e-05 2.3636546e-04 1.9788777e-05 
2.8922770e-05 2.5948446e-04 5.1836621e-05 
1.3192053e-05 2.0396533e-04 6.9838432e-05 
2.5493642e-07 1.2895379e-04 9.1056092e-05 
-1.7069337e-05 5.7498954e-05 7.7882709e-05 
-2.1733467e-05 -9.5289815e-06 6.9319416e-05 
-3.3008768e-05 -8.0091755e-05 3.8946902e-05 
-4.6641017e-05 -1.4945850e-04 2.7230544e-05 
-5.0464307e-05 -1.9853169e-04 1.6370263e-05 
-5.0096744e-05 -2.1636522e-04 1.3653450e-05 
-5.5703953e-05 -2.1170379e-04 -6.0681532e-06 
-5.1240972e-05 -2.0786596e-04 -2.3086250e-05 
-4.3696331e-05 -2.2241297e-04 -2.8409926e-05 
-4.3548167e-05 -2.4536860e-04 -6.6227818e-05 
-2.5374804e-05 -2.4446903e-04 -9.1298818e-05 
-1.4519793e-06 -1.9050164e-04 -1.2392768e-04 
1.6464332e-05 -8.5716267e-05 -1.2879043e-04 
2.1627266e-05 3.5670226e-05 -9.0787777e-05 
1.6423395e-05 1.2910241e-04 -3.8491493e-05 
1.6592838e-05 1.7760077e-04 -2.8806349e-05 
1.5688795e-05 1.8898259e-04 1.3980481e-06 
-3.7728862e-06 1.7558267e-04 -5.8891906e-06 
-1.3740249e-05 1.2628865e-04 -1.3180557e-05 
-2.5876623e-05 -3.7757298e-05 2.8317327e-05 
-5.2337040e-05 -4.6097886e-04 1.7578965e-04 
-9.2414317e-05 -1.2484750e-03 2.0554573e-04 
-1.5371725e-04 -2.3923472e-03 1.3565099e-04 
-2.1727344e-04 -3.6935748e-03 2.6826700e-04 
-1.8071766e-04 -4.6572471e-03 8.6673310e-05 
-3.2327694e-04 -4.8727915e-03 6.8085763e-05 
-2.7216278e-04 -4.6344516e-03 4.0451250e-05 
-2.5118384e-04 -4.5422656e-03 2.7903667e-05 
-2.3656819e-04 -4.6760552e-03 -3.0129559e-05 
-2.3508084e-04 -4.7150603e-03 -5.1857820e-05 
-2.0985014e-04 -4.0934407e-03 -7.4544092e-05 
-1.7796531e-04 -3.0279486e-03 -2.0201449e-04 
-1.2466378e-04 -1.9282431e-03 -1.0038470e-04 
-7.3090661e-05 -1.0391290e-03 -1.5831999e-04 
-3.1848627e-05 -4.1954571e-04 -8.9832618e-05 
2.1859637e-06 -5.7449222e-05 -9.7271419e-05 
1.3989413e-05 1.1197480e-04 -5.2817089e-05 
1.8701567e-05 1.7031391e-04 -2.6603228e-05 
2.6644537e-05 1.8195734e-04 9.6685289e-06 
1.7663964e-05 1.7831584e-04 2.5025211e-05 
1.0701712e-05 1.6545907e-04 2.5386176e-05 
6.4377650e-06 1.3545119e-04 3.2284755e-05 
-4.3754021e-06 8.9108013e-05 2.3521239e-05 
-2.0173406e-05 3.6992529e-05 9.3124354e-06 
-2.4224875e-05 -8.0007248e-06 -2.0377918e-05 
-2.0912537e-05 -3.8582501e-05 -4.6255369e-05 
-9.5846126e-06 -5.6147222e-05 -6.3619940e-05 
2.8132561e-06 -6.3165244e-05 -6.0385792e-05 
7.1203062e-06 -6.2624305e-05 -4.9632388e-05 
1.0948570e-05 -5.8472368e-05 -3.1370386e-05 
0.0000000e+00 -2.8206283e-05 0.0000000e+00 
0.0000000e+00 -2.2635839e-05 0.0000000e+00 
0.0000000e+00 -1.1493978e-05 0.0000000e+00 
0.0000000e+00 -4.9823157e-06 0.0000000e+00 
0.0000000e+00 -1.0122302e-05 0.0000000e+00 
0.0000000e+00 -2.5841331e-05 0.0000000e+00 
0.0000000e+00 -4.3459357e-05 0.0000000e+00 
0.0000000e+00 -5.5184453e-05 0.0000000e+00 
0.0000000e+00 -6.1265979e-05 0.0000000e+00 
0.0000000e+00 -6.9713053e-05 0.0000000e+00 
0.0000000e+00 -8.7475943e-05 0.0000000e+00 
0.0000000e+00 -1.1434755e-04 0.0000000e+00 
0.0000000e+00 -1.4280344e-04 0.0000000e+00 
0.0000000e+00 -1.6286805e-04 0.0000000e+00 
0.0000000e+00 -1.6788475e-04 0.0000000e+00 
0.0000000e+00 -1.6051542e-04 0.0000000e+00 
0.0000000e+00 -1.5145518e-04 0.0000000e+00 
0.0000000e+00 -1.4892577e-04 0.0000000e+00 
0.0000000e+00 -1.5004828e-04 0.0000000e+00 
0.0000000e+00 -1.3976925e-04 0.0000000e+00 
0.0000000e+00 -1.0214936e-04 0.0000000e+00 
0.0000000e+00 -3.6941969e-05 0.0000000e+00 
0.0000000e+00 3.8037469e-05 0.0000000e+00 
0.0000000e+00 1.0265892e-04 0.0000000e+00 
0.0000000e+00 1.4878539e-04 0.0000000e+00 
0.0000000e+00 1.8915271e-04 0.0000000e+00 
0.0000000e+00 2.4183279e-04 0.0000000e+00 
0.0000000e+00 2.9724336e-04 0.0000000e+00 
0.0000000e+00 2.9420017e-04 0.0000000e+00 
0.0000000e+00 1.2302202e-04 0.0000000e+00 
0.0000000e+00 -3.3221755e-04 0.0000000e+00 
0.0000000e+00 -1.1208215e-03 0.0000000e+00 
0.0000000e+00 -2.1892460e-03 0.0000000e+00 
0.0000000e+00 -3.4010361e-03 0.0000000e+00 
0.0000000e+00 -4.4664307e-03 0.0000000e+00 
0.0000000e+00 -4.9806884e-03 0.0000000e+00 
0.0000000e+00 -4.9449811e-03 0.0000000e+00 
0.0000000e+00 -4.8761680e-03 0.0000000e+00 
0.0000000e+00 -4.9764588e-03 0.0000000e+00 
0.0000000e+00 -5.0210692e-03 0.0000000e+00 
0.0000000e+00 -4.5022927e-03 0.0000000e+00 
0.0000000e+00 -3.3609364e-03 0.0000000e+00 
0.0000000e+00 -2.1003967e-03 0.0000000e+00 
0.0000000e+00 -1.0691896e-03 0.0000000e+00 
0.0000000e+00 -3.5820602e-04 0.0000000e+00 
0.0000000e+00 5.5462642e-05 0.0000000e+00 
0.0000000e+00 2.3631305e-04 0.0000000e+00 
0.0000000e+00 2.6072512e-04 0.0000000e+00 
0.0000000e+00 2.0598876e-04 0.0000000e+00 
0.0000000e+00 1.3018647e-04 0.0000000e+00 
0.0000000e+00 5.7906505e-05 0.0000000e+00 
0.0000000e+00 -1.0302649e-05 0.0000000e+00 
0.0000000e+00 -8.0985577e-05 0.0000000e+00 
0.0000000e+00 -1.4928693e-04 0.0000000e+00 
0.0000000e+00 -1.9771376e-04 0.0000000e+00 
0.0000000e+00 -2.1561654e-04 0.0000000e+00 
0.0000000e+00 -2.1184055e-04 0.0000000e+00 
0.0000000e+00 -2.0903075e-04 0.0000000e+00 
0.0000000e+00 -2.2355499e-04 0.0000000e+00 
0.0000000e+00 -2.4573779e-04 0.0000000e+00 
0.0000000e+00 -2.4344251e-04 0.0000000e+00 
0.0000000e+00 -1.8883830e-04 0.0000000e+00 
0.0000000e+00 -8.4611747e-05 0.0000000e+00 
0.0000000e+00 3.4862504e-05 0.0000000e+00 
0.0000000e+00 1.2784779e-04 0.0000000e+00 
0.0000000e+00 1.7680964e-04 0.0000000e+00 
0.0000000e+00 1.8963240e-04 0.0000000e+00 
0.0000000e+00 1.7883845e-04 0.0000000e+00 
0.0000000e+00 1.3003290e-04 0.0000000e+00 
0.0000000e+00 -3.8320286e-05 0.0000000e+00 
0.0000000e+00 -4.6547508e-04 0.0000000e+00 
0.0000000e+00 -1.2590254e-03 0.0000000e+00 
0.0000000e+00 -2.4094135e-03 0.0000000e+00 
0.0000000e+00 -3.7065896e-03 0.0000000e+00 
0.0000000e+00 -4.6861689e-03 0.0000000e+00 
0.0000000e+00 -4.8946007e-03 0.0000000e+00 
0.0000000e+00 -4.6658008e-03 0.0000000e+00 
0.0000000e+00 -4.5644981e-03 0.0000000e+00 
0.0000000e+00 -4.7040642e-03 0.0000000e+00 
0.0000000e+00 -4.7375923e-03 0.0000000e+00 
0.0000000e+00 -4.1181133e-03 0.0000000e+00 
0.0000000e+00 -3.0411924e-03 0.0000000e+00 
0.0000000e+00 -1.9371816e-03 0.0000000e+00 
0.0000000e+00 -1.0428784e-03 0.0000000e+00 
0.0000000e+00 -4.2201017e-04 0.0000000e+00 
0.0000000e+00 -5.7850353e-05 0.0000000e+00 
0.0000000e+00 1.1337235e-04 0.0000000e+00 
0.0000000e+00 1.7215563e-04 0.0000000e+00 
0.0000000e+00 1.8307946e-04 0.0000000e+00 
0.0000000e+00 1.7873615e-04 0.0000000e+00 
0.0000000e+00 1.6494584e-04 0.0000000e+00 
0.0000000e+00 1.3511720e-04 0.0000000e+00 
0.0000000e+00 8.9210946e-05 0.0000000e+00 
0.0000000e+00 3.7306992e-05 0.0000000e+00 
0.0000000e+00 -7.6916267e-06 0.0000000e+00 
0.0000000e+00 -3.8611877e-05 0.0000000e+00 
0.0000000e+00 -5.6111545e-05 0.0000000e+00 
0.0000000e+00 -6.3056890e-05 0.0000000e+00 
0.0000000e+00 -6.2529863e-05 0.0000000e+00 
0.0000000e+00 -5.8607260e-05 0.0000000e+00 
0.0000000e+00 -5.6353889e-05 0.0000000e+00 
5.5152297e-05 -6.5639510e-06 -2.4040382e-05 
-1.6728064e-04 -2.1564330e-03 1.4179887e-04 
0.0000000e+00 0.0000000e+00 0.0000000e+00 
0.0000000e+00 0.0000000e+00 0.0000000e+00 
0.0000000e+00 0.0000000e+00 0.0000000e+00 
0.0000000e+00 0.0000000e+00 0.0000000e+00 
0.0000000e+00 0.0000000e+00 0.0000000e+00 
0.0000000e+00 0.0000000e+00 0.0000000e+00 
0.0000000e+00 0.0000000e+00 0.0000000e+00 
0.0000000e+00 0.0000000e+00 0.0000000e+00 
0.0000000e+00 0.0000000e+00 0.0000000e+00 
0.0000000e+00 0.0000000e+00 0.0000000e+00 
0.0000000e+00 0.0000000e+00 0.0000000e+00 
0.0000000e+00 0.0000000e+00 0.0000000e+00 
0.0000000e+00 0.0000000e+00 0.0000000e+00 
0.0000000e+00 0.0000000e+00 0.0000000e+00 
0.0000000e+00 0.0000000e+00 0.0000000e+00 
0.0000000e+00 0.0000000e+00 0.0000000e+00 
0.0000000e+00 0.0000000e+00 0.0000000e+00 
0.0000000e+00 0.0000000e+00 0.0000000e+00 
0.0000000e+00 0.0000000e+00 0.0000000e+00 
0.0000000e+00 0.0000000e+00 0.0000000e+00 
0.0000000e+00 0.0000000e+00 0.0000000e+00 
0.0000000e+00 0.0000000e+00 0.0000000e+00 
0.0000000e+00 0.0000000e+00 0.0000000e+00 
0.0000000e+00 0.0000000e+00 0.0000000e+00 
0.0000000e+00 0.0000000e+00 0.0000000e+00 
0.0000000e+00 0.0000000e+00 0.0000000e+00 
0.0000000e+00 0.0000000e+00 0.0000000e+00 
0.0000000e+00 0.0000000e+00 0.0000000e+00 
0.0000000e+00 0.0000000e+00 0.0000000e+00 
0.0000000e+00 0.0000000e+00 0.0000000e+00 
0.0000000e+00 0.0000000e+00 0.0000000e+00 
0.0000000e+00 0.0000000e+00 0.0000000e+00 
0.0000000e+00 0.0000000e+00 0.0000000e+00 
0.0000000e+00 0.0000000e+00 0.0000000e+00 
0.0000000e+00 0.0000000e+00 0.0000000e+00 
0.0000000e+00 0.0000000e+00 0.0000000e+00 
0.0000000e+00 0.0000000e+00 0.0000000e+00 
0.0000000e+00 0.0000000e+00 0.0000000e+00 
0.0000000e+00 0.0000000e+00 0.0000000e+00 
0.0000000e+00 0.0000000e+00 0.0000000e+00 
0.0000000e+00 0.0000000e+00 0.0000000e+00 
0.0000000e+00 0.0000000e+00 0.0000000e+00 
0.0000000e+00 0.0000000e+00 0.0000000e+00 
0.0000000e+00 0.0000000e+00 0.0000000e+00 
0.0000000e+00 0.0000000e+00 0.0000000e+00 
0.0000000e+00 0.0000000e+00 0.0000000e+00 
0.0000000e+00 0.0000000e+00 0.0000000e+00 
0.0000000e+00 0.0000000e+00 0.0000000e+00 
0.0000000e+00 0.0000000e+00 0.0000000e+00 
0.0000000e+00 0.0000000e+00 0.0000000e+00 
0.0000000e+00 0.0000000e+00 0.0000000e+00 
0.0000000e+00 0.0000000e+00 0.0000000e+00 
0.0000000e+00 0.0000000e+00 0.0000000e+00 
0.0000000e+00 0.0000000e+00 0.0000000e+00 
0.0000000e+00 0.0000000e+00 0.0000000e+00 
0.0000000e+00 0.0000000e+00 0.0000000e+00 
0.0000000e+00 0.0000000e+00 0.0000000e+00 
0.0000000e+00 0.0000000e+00 0.0000000e+00 
0.0000000e+00 0.0000000e+00 0.0000000e+00 
0.0000000e+00 0.0000000e+00 0.0000000e+00 
0.0000000e+00 0.0000000e+00 0.0000000e+00 
0.0000000e+00 0.0000000e+00 0.0000000e+00 
0.0000000e+00 0.0000000e+00 0.0000000e+00 
0.0000000e+00 0.0000000e+00 0.0000000e+00 
0.0000000e+00 0.0000000e+00 0.0000000e+00 
0.0000000e+00 0.0000000e+00 0.0000000e+00 
0.0000000e+00 0.0000000e+00 0.0000000e+00 
0.0000000e+00 0.0000000e+00 0.0000000e+00 
0.0000000e+00 0.0000000e+00 0.0000000e+00 
0.0000000e+00 0.0000000e+00 0.0000000e+00 
0.0000000e+00 0.0000000e+00 0.0000000e+00 
0.0000000e+00 0.0000000e+00 0.0000000e+00 
0.0000000e+00 0.0000000e+00 0.0000000e+00 
0.0000000e+00 0.0000000e+00 0.0000000e+00 
0.0000000e+00 0.0000000e+00 0.0000000e+00 
0.0000000e+00 0.0000000e+00 0.0000000e+00 
0.0000000e+00 0.0000000e+00 0.0000000e+00 
0.0000000e+00 0.0000000e+00 0.0000000e+00 
0.0000000e+00 0.0000000e+00 0.0000000e+00 
0.0000000e+00 0.0000000e+00 0.0000000e+00 
0.0000000e+00 0.0000000e+00 0.0000000e+00 
0.0000000e+00 0.0000000e+00 0.0000000e+00 
0.0000000e+00 0.0000000e+00 0.0000000e+00 
0.0000000e+00 0.0000000e+00 0.0000000e+00 
0.0000000e+00 0.0000000e+00 0.0000000e+00 
0.0000000e+00 0.0000000e+00 0.0000000e+00 
0.0000000e+00 0.0000000e+00 0.0000000e+00 
0.0000000e+00 0.0000000e+00 0.0000000e+00 
0.0000000e+00 0.0000000e+00 0.0000000e+00 
0.0000000e+00 0.0000000e+00 0.0000000e+00 
0.0000000e+00 0.0000000e+00 0.0000000e+00 
0.0000000e+00 0.0000000e+00 0.0000000e+00 
0.0000000e+00 0.0000000e+00 0.0000000e+00 
0.0000000e+00 0.0000000e+00 0.0000000e+00 
0.0000000e+00 0.0000000e+00 0.0000000e+00 
0.0000000e+00 0.0000000e+00 0.0000000e+00 
0.0000000e+00 0.0000000e+00 0.0000000e+00 
0.0000000e+00 0.0000000e+00 0.0000000e+00 
0.0000000e+00 0.0000000e+00 0.0000000e+00 
0.0000000e+00 0.0000000e+00 0.0000000e+00 
0.0000000e+00 0.0000000e+00 0.0000000e+00 
0.0000000e+00 0.0000000e+00 0.0000000e+00 
0.0000000e+00 0.0000000e+00 0.0000000e+00 
0.0000000e+00 0.0000000e+00 0.0000000e+00 
0.0000000e+00 0.0000000e+00 0.0000000e+00 
0.0000000e+00 0.0000000e+00 0.0000000e+00 
2.1443300e-07 3.3221113e-07 1.1275338e-06 
1.7314277e-06 -3.2706669e-07 -3.3804946e-07 
1.2255351e-06 3.0681039e-07 -5.3230281e-07 
-5.4349414e-07 -2.9417873e-07 -3.1436928e-06 
1.7848744e-06 -8.9404028e-07 -5.5856044e-06 
7.3800379e-07 9.6179349e-07 -1.1508195e-06 
6.1371594e-07 5.7864247e-07 -1.3097452e-06 
1.2246763e-06 -4.3269724e-06 -2.6918392e-06 
1.1263386e-06 -4.2520260e-06 -3.0068516e-06 
1.6202889e-06 4.5348747e-06 -3.5439853e-06 
6.1164429e-10 -4.2275801e-06 -3.1564166e-06 
3.5083744e-06 -1.5270566e-06 -3.3632048e-06 
8.2501074e-06 9.2530418e-06 -5.5701653e-06 
1.3976533e-05 -1.0096598e-05 -5.7514267e-06 
2.1636512e-05 -1.0458279e-05 -7.5410958e-06 
3.9274852e-05 -1.2293933e-05 -7.2632511e-06 
4.3981825e-05 -1.4409876e-05 3.3979583e-07 
4.6367597e-05 -2.0162362e-05 4.7540393e-06 
4.7701400e-05 -1.7787832e-05 8.6170248e-06 
3.7379737e-05 -1.2087317e-05 1.8562003e-05 
2.6953461e-05 -7.2138109e-06 1.7409438e-05 
1.4813916e-05 -5.7749467e-06 1.3537771e-05 
7.9569836e-06 -3.4568804e-06 7.9954489e-06 
5.5069613e-06 -2.6215721e-06 4.3728191e-06 
4.0051118e-06 -7.7105781e-08 -4.4701983e-06 
2.7195708e-06 -2.0175028e-07 -7.4292725e-06 
2.2554364e-06 -1.3157795e-06 -7.0013475e-06 
2.7857951e-07 -6.0258168e-07 -7.5978605e-06 
3.3563801e-06 -5.6062095e-06 -1.0622593e-05 
1.3673464e-06 3.0664885e-06 -7.8813537e-06 
-5.4434639e-07 4.5501206e-06 -7.8572111e-06 
5.8528071e-06 -5.9598533e-06 -1.0158740e-05 
5.8485566e-06 7.2787179e-07 -8.8111137e-06 
1.3919917e-05 -1.0873590e-06 -1.0130211e-05 
2.2695902e-05 -5.0947078e-06 -1.3176927e-05 
3.2621225e-05 -9.1709162e-06 -1.0557148e-05 
4.2904037e-05 -1.3203648e-05 -3.5736502e-06 
4.9485334e-05 -1.8213208e-05 4.9409077e-06 
4.9331331e-05 -1.6670956e-05 1.2706828e-05 
4.1422412e-05 -1.7569073e-05 2.0607320e-05 
3.0236817e-05 -1.2883589e-05 1.9910998e-05 
1.8987657e-05 -7.0273695e-06 1.6848748e-05 
9.4208772e-06 -1.9212675e-06 1.2240959e-05 
3.4595651e-06 7.2721697e-08 6.9613679e-06 
-8.7980129e-07 5.3824920e-07 8.1678598e-07 
-1.9820041e-06 8.1994409e-07 -1.7691590e-06 
-2.4593801e-06 -1.8037929e-07 -4.1919743e-06 
-1.2157291e-06 -4.1592472e-07 -4.2063061e-06 
4.5099804e-07 7.4932551e-08 -2.3548662e-06 
0.0000000e+00 1.0233226e-05 0.0000000e+00 
0.0000000e+00 2.1173137e-05 0.0000000e+00 
0.0000000e+00 2.4466330e-05 0.0000000e+00 
0.0000000e+00 3.1867712e-05 0.0000000e+00 
0.0000000e+00 2.8390281e-05 0.0000000e+00 
0.0000000e+00 5.3037493e-06 0.0000000e+00 
0.0000000e+00 -1.4545696e-05 0.0000000e+00 
0.0000000e+00 -2.7500402e-05 0.0000000e+00 
0.0000000e+00 -5.3369578e-05 0.0000000e+00 
0.0000000e+00 -4.5820474e-05 0.0000000e+00 
0.0000000e+00 4.1086791e-06 0.0000000e+00 
0.0000000e+00 -5.4379416e-06 0.0000000e+00 
0.0000000e+00 3.0839386e-05 0.0000000e+00 
0.0000000e+00 6.6658176e-05 0.0000000e+00 
0.0000000e+00 -5.0859107e-05 0.0000000e+00 
0.0000000e+00 -2.0698654e-04 0.0000000e+00 
0.0000000e+00 -4.4329008e-04 0.0000000e+00 
0.0000000e+00 -5.4986129e-04 0.0000000e+00 
0.0000000e+00 -5.6891207e-04 0.0000000e+00 
0.0000000e+00 -4.6021759e-04 0.0000000e+00 
0.0000000e+00 -2.2086315e-04 0.0000000e+00 
0.0000000e+00 -1.6557917e-05 0.0000000e+00 
0.0000000e+00 4.5059769e-05 0.0000000e+00 
0.0000000e+00 6.3613188e-05 0.0000000e+00 
0.0000000e+00 4.3273085e-05 0.0000000e+00 
0.0000000e+00 2.4036144e-05 0.0000000e+00 
0.0000000e+00 -1.6592865e-05 0.0000000e+00 
0.0000000e+00 -6.4185360e-07 0.0000000e+00 
0.0000000e+00 -5.9856764e-05 0.0000000e+00 
0.0000000e+00 -8.3027742e-05 0.0000000e+00 
0.0000000e+00 7.3194210e-06 0.0000000e+00 
0.0000000e+00 -6.6204057e-06 0.0000000e+00 
0.0000000e+00 -2.2295299e-06 0.0000000e+00 
0.0000000e+00 1.1338528e-05 0.0000000e+00 
0.0000000e+00 -1.1639298e-04 0.0000000e+00 
0.0000000e+00 -3.1835350e-04 0.0000000e+00 
0.0000000e+00 -4.4971716e-04 0.0000000e+00 
0.0000000e+00 -5.1673019e-04 0.0000000e+00 
0.0000000e+00 -4.9489044e-04 0.0000000e+00 
0.0000000e+00 -4.2981704e-04 0.0000000e+00 
0.0000000e+00 -2.8566393e-04 0.0000000e+00 
0.0000000e+00 -1.1472266e-04 0.0000000e+00 
0.0000000e+00 -7.4475365e-06 0.0000000e+00 
0.0000000e+00 2.8785988e-05 0.0000000e+00 
0.0000000e+00 3.8592229e-05 0.0000000e+00 
0.0000000e+00 2.4566034e-05 0.0000000e+00 
0.0000000e+00 -7.0579458e-06 0.0000000e+00 
0.0000000e+00 -1.8150795e-05 0.0000000e+00 
0.0000000e+00 -1.3715221e-05 0.0000000e+00 
4.7393692e-07 4.6663678e-07 1.3188953e-06 
3.0690471e-06 -1.1455425e-06 -1.7757208e-07 
2.8311438e-06 -4.2896895e-06 1.0735978e-06 
2.5291017e-06 -1.0603180e-05 1.0303160e-06 
9.9145745e-07 -4.7177102e-07 -1.4130997e-06 
1.4014755e-06 1.4854133e-07 -8.8681332e-07 
2.9137586e-06 1.6102302e-06 9.4415844e-07 
2.0427349e-06 4.7934964e-07 1.7575247e-06 
1.4305360e-07 2.9263862e-07 -3.2365699e-07 
2.3723692e-06 7.1992451e-07 7.5112303e-07 
1.7980904e-06 -2.2603143e-07 -9.2400580e-07 
3.5895503e-06 2.7469589e-06 -4.6273626e-06 
2.0467123e-06 -1.2189487e-06 -4.4523626e-06 
-2.3512457e-06 1.8647777e-06 -5.2229493e-06 
-3.6939014e-06 2.3568048e-06 -6.1359251e-06 
-2.5709843e-07 -3.2858259e-06 -3.2695796e-06 
-2.2243642e-06 3.1279529e-07 -2.8068437e-06 
-7.2308335e-06 4.0317163e-06 1.4309300e-06 
-4.5083520e-06 -4.2064253e-06 -3.0113629e-06 
2.8092709e-06 -9.7224972e-07 -1.1299876e-05 
5.3239373e-06 1.0171442e-05 -1.0659028e-05 
2.2910683e-05 -1.4255428e-05 -4.2216602e-06 
3.3703131e-05 -1.7735703e-06 6.9908140e-07 
3.7936617e-05 -1.1772778e-05 -1.3202668e-06 
4.0751653e-05 -1.7053437e-05 6.2131053e-06 
4.5807501e-05 -1.5747393e-05 1.2754678e-05 
4.2078354e-05 -1.8191655e-05 1.0287286e-05 