# vtk DataFile Version 4.0
vtk output
ASCII
DATASET UNSTRUCTURED_GRID
POINTS 1919 float
0.0000000e+00 0.0000000e+00 0.0000000e+00 
0.0000000e+00 0.0000000e+00 5.0000000e+01 
5.0000000e+00 0.0000000e+00 0.0000000e+00 
5.0000000e+00 0.0000000e+00 5.0000000e+01 
5.0000000e+00 1.0000000e+00 0.0000000e+00 
5.0000000e+00 1.0000000e+00 5.0000000e+01 
0.0000000e+00 1.0000000e+00 0.0000000e+00 
0.0000000e+00 1.0000000e+00 5.0000000e+01 
5.0000000e+00 2.0000000e+00 0.0000000e+00 
5.0000000e+00 2.0000000e+00 5.0000000e+01 
3.0000000e+00 2.0000000e+00 0.0000000e+00 
3.0000000e+00 2.0000000e+00 5.0000000e+01 
0.0000000e+00 2.0000000e+00 0.0000000e+00 
0.0000000e+00 2.0000000e+00 5.0000000e+01 
1.5000000e+00 3.0000000e+00 0.0000000e+00 
1.5000000e+00 3.0000000e+00 5.0000000e+01 
7.5000000e-01 3.0000000e+00 0.0000000e+00 
7.5000000e-01 3.0000000e+00 5.0000000e+01 
0.0000000e+00 3.0000000e+00 0.0000000e+00 
0.0000000e+00 3.0000000e+00 5.0000000e+01 
7.5000000e-01 3.0000000e+00 5.0000000e-01 
7.5000000e-01 3.0000000e+00 1.0000000e+00 
7.5000000e-01 3.0000000e+00 1.5000000e+00 
7.5000000e-01 3.0000000e+00 2.0000000e+00 
7.5000000e-01 3.0000000e+00 2.5000000e+00 
7.5000000e-01 3.0000000e+00 3.0000000e+00 
7.5000000e-01 3.0000000e+00 3.5000000e+00 
7.5000000e-01 3.0000000e+00 4.0000000e+00 
7.5000000e-01 3.0000000e+00 4.5000000e+00 
7.5000000e-01 3.0000000e+00 5.0000000e+00 
7.5000000e-01 3.0000000e+00 5.5000000e+00 
7.5000000e-01 3.0000000e+00 6.0000000e+00 
7.5000000e-01 3.0000000e+00 6.5000000e+00 
7.5000000e-01 3.0000000e+00 7.0000000e+00 
7.5000000e-01 3.0000000e+00 7.5000000e+00 
7.5000000e-01 3.0000000e+00 8.0000000e+00 
7.5000000e-01 3.0000000e+00 8.5000000e+00 
7.5000000e-01 3.0000000e+00 9.0000000e+00 
7.5000000e-01 3.0000000e+00 9.5000000e+00 
7.5000000e-01 3.0000000e+00 1.0000000e+01 
7.5000000e-01 3.0000000e+00 1.0500000e+01 
7.5000000e-01 3.0000000e+00 1.1000000e+01 
7.5000000e-01 3.0000000e+00 1.1500000e+01 
7.5000000e-01 3.0000000e+00 1.2000000e+01 
7.5000000e-01 3.0000000e+00 1.2500000e+01 
7.5000000e-01 3.0000000e+00 1.3000000e+01 
7.5000000e-01 3.0000000e+00 1.3500000e+01 
7.5000000e-01 3.0000000e+00 1.4000000e+01 
7.5000000e-01 3.0000000e+00 1.4500000e+01 
7.5000000e-01 3.0000000e+00 1.5000000e+01 
7.5000000e-01 3.0000000e+00 1.5500000e+01 
7.5000000e-01 3.0000000e+00 1.6000000e+01 
7.5000000e-01 3.0000000e+00 1.6500000e+01 
7.5000000e-01 3.0000000e+00 1.7000000e+01 
7.5000000e-01 3.0000000e+00 1.7500000e+01 
7.5000000e-01 3.0000000e+00 1.8000000e+01 
7.5000000e-01 3.0000000e+00 1.8500000e+01 
7.5000000e-01 3.0000000e+00 1.9000000e+01 
7.5000000e-01 3.0000000e+00 1.9500000e+01 
7.5000000e-01 3.0000000e+00 2.0000000e+01 
7.5000000e-01 3.0000000e+00 2.0500000e+01 
7.5000000e-01 3.0000000e+00 2.1000000e+01 
7.5000000e-01 3.0000000e+00 2.1500000e+01 
7.5000000e-01 3.0000000e+00 2.2000000e+01 
7.5000000e-01 3.0000000e+00 2.2500000e+01 
7.5000000e-01 3.0000000e+00 2.3000000e+01 
7.5000000e-01 3.0000000e+00 2.3500000e+01 
7.5000000e-01 3.0000000e+00 2.4000000e+01 
7.5000000e-01 3.0000000e+00 2.4500000e+01 
7.5000000e-01 3.0000000e+00 2.5000000e+01 
7.5000000e-01 3.0000000e+00 2.5500000e+01 
7.5000000e-01 3.0000000e+00 2.6000000e+01 
7.5000000e-01 3.0000000e+00 2.6500000e+01 
7.5000000e-01 3.0000000e+00 2.7000000e+01 
7.5000000e-01 3.0000000e+00 2.7500000e+01 
7.5000000e-01 3.0000000e+00 2.8000000e+01 
7.5000000e-01 3.0000000e+00 2.8500000e+01 
7.5000000e-01 3.0000000e+00 2.9000000e+01 
7.5000000e-01 3.0000000e+00 2.9500000e+01 
7.5000000e-01 3.0000000e+00 3.0000000e+01 
7.5000000e-01 3.0000000e+00 3.0500000e+01 
7.5000000e-01 3.0000000e+00 3.1000000e+01 
7.5000000e-01 3.0000000e+00 3.1500000e+01 
7.5000000e-01 3.0000000e+00 3.2000000e+01 
7.5000000e-01 3.0000000e+00 3.2500000e+01 
7.5000000e-01 3.0000000e+00 3.3000000e+01 
7.5000000e-01 3.0000000e+00 3.3500000e+01 
7.5000000e-01 3.0000000e+00 3.4000000e+01 
7.5000000e-01 3.0000000e+00 3.4500000e+01 
7.5000000e-01 3.0000000e+00 3.5000000e+01 
7.5000000e-01 3.0000000e+00 3.5500000e+01 
7.5000000e-01 3.0000000e+00 3.6000000e+01 
7.5000000e-01 3.0000000e+00 3.6500000e+01 
7.5000000e-01 3.0000000e+00 3.7000000e+01 
7.5000000e-01 3.0000000e+00 3.7500000e+01 
7.5000000e-01 3.0000000e+00 3.8000000e+01 
7.5000000e-01 3.0000000e+00 3.8500000e+01 
7.5000000e-01 3.0000000e+00 3.9000000e+01 
7.5000000e-01 3.0000000e+00 3.9500000e+01 
7.5000000e-01 3.0000000e+00 4.0000000e+01 
7.5000000e-01 3.0000000e+00 4.0500000e+01 
7.5000000e-01 3.0000000e+00 4.1000000e+01 
7.5000000e-01 3.0000000e+00 4.1500000e+01 
7.5000000e-01 3.0000000e+00 4.2000000e+01 
7.5000000e-01 3.0000000e+00 4.2500000e+01 
7.5000000e-01 3.0000000e+00 4.3000000e+01 
7.5000000e-01 3.0000000e+00 4.3500000e+01 
7.5000000e-01 3.0000000e+00 4.4000000e+01 
7.5000000e-01 3.0000000e+00 4.4500000e+01 
7.5000000e-01 3.0000000e+00 4.5000000e+01 
7.5000000e-01 3.0000000e+00 4.5500000e+01 
7.5000000e-01 3.0000000e+00 4.6000000e+01 
7.5000000e-01 3.0000000e+00 4.6500000e+01 
7.5000000e-01 3.0000000e+00 4.7000000e+01 
7.5000000e-01 3.0000000e+00 4.7500000e+01 
7.5000000e-01 3.0000000e+00 4.8000000e+01 
7.5000000e-01 3.0000000e+00 4.8500000e+01 
7.5000000e-01 3.0000000e+00 4.9000000e+01 
7.5000000e-01 3.0000000e+00 4.9500000e+01 
7.5000000e-01 3.0250001e+00 0.0000000e+00 
7.5000000e-01 3.0250001e+00 5.0000000e-01 
7.5000000e-01 3.0250001e+00 1.0000000e+00 
7.5000000e-01 3.0250001e+00 1.5000000e+00 
7.5000000e-01 3.0250001e+00 2.0000000e+00 
7.5000000e-01 3.0250001e+00 2.5000000e+00 
7.5000000e-01 3.0250001e+00 3.0000000e+00 
7.5000000e-01 3.0250001e+00 3.5000000e+00 
7.5000000e-01 3.0250001e+00 4.0000000e+00 
7.5000000e-01 3.0250001e+00 4.5000000e+00 
7.5000000e-01 3.0250001e+00 5.0000000e+00 
7.5000000e-01 3.0250001e+00 5.5000000e+00 
7.5000000e-01 3.0250001e+00 6.0000000e+00 
7.5000000e-01 3.0250001e+00 6.5000000e+00 
7.5000000e-01 3.0250001e+00 7.0000000e+00 
7.5000000e-01 3.0250001e+00 7.5000000e+00 
7.5000000e-01 3.0250001e+00 8.0000000e+00 
7.5000000e-01 3.0250001e+00 8.5000000e+00 
7.5000000e-01 3.0250001e+00 9.0000000e+00 
7.5000000e-01 3.0250001e+00 9.5000000e+00 
7.5000000e-01 3.0250001e+00 1.0000000e+01 
7.5000000e-01 3.0250001e+00 1.0500000e+01 
7.5000000e-01 3.0250001e+00 1.1000000e+01 
7.5000000e-01 3.0250001e+00 1.1500000e+01 
7.5000000e-01 3.0250001e+00 1.2000000e+01 
7.5000000e-01 3.0250001e+00 1.2500000e+01 
7.5000000e-01 3.0250001e+00 1.3000000e+01 
7.5000000e-01 3.0250001e+00 1.3500000e+01 
7.5000000e-01 3.0250001e+00 1.4000000e+01 
7.5000000e-01 3.0250001e+00 1.4500000e+01 
7.5000000e-01 3.0250001e+00 1.5000000e+01 
7.5000000e-01 3.0250001e+00 1.5500000e+01 
7.5000000e-01 3.0250001e+00 1.6000000e+01 
7.5000000e-01 3.0250001e+00 1.6500000e+01 
7.5000000e-01 3.0250001e+00 1.7000000e+01 
7.5000000e-01 3.0250001e+00 1.7500000e+01 
7.5000000e-01 3.0250001e+00 1.8000000e+01 
7.5000000e-01 3.0250001e+00 1.8500000e+01 
7.5000000e-01 3.0250001e+00 1.9000000e+01 
7.5000000e-01 3.0250001e+00 1.9500000e+01 
7.5000000e-01 3.0250001e+00 2.0000000e+01 
7.5000000e-01 3.0250001e+00 2.0500000e+01 
7.5000000e-01 3.0250001e+00 2.1000000e+01 
7.5000000e-01 3.0250001e+00 2.1500000e+01 
7.5000000e-01 3.0250001e+00 2.2000000e+01 
7.5000000e-01 3.0250001e+00 2.2500000e+01 
7.5000000e-01 3.0250001e+00 2.3000000e+01 
7.5000000e-01 3.0250001e+00 2.3500000e+01 
7.5000000e-01 3.0250001e+00 2.4000000e+01 
7.5000000e-01 3.0250001e+00 2.4500000e+01 
7.5000000e-01 3.0250001e+00 2.5000000e+01 
7.5000000e-01 3.0250001e+00 2.5500000e+01 
7.5000000e-01 3.0250001e+00 2.6000000e+01 
7.5000000e-01 3.0250001e+00 2.6500000e+01 
7.5000000e-01 3.0250001e+00 2.7000000e+01 
7.5000000e-01 3.0250001e+00 2.7500000e+01 
7.5000000e-01 3.0250001e+00 2.8000000e+01 
7.5000000e-01 3.0250001e+00 2.8500000e+01 
7.5000000e-01 3.0250001e+00 2.9000000e+01 
7.5000000e-01 3.0250001e+00 2.9500000e+01 
7.5000000e-01 3.0250001e+00 3.0000000e+01 
7.5000000e-01 3.0250001e+00 3.0500000e+01 
7.5000000e-01 3.0250001e+00 3.1000000e+01 
7.5000000e-01 3.0250001e+00 3.1500000e+01 
7.5000000e-01 3.0250001e+00 3.2000000e+01 
7.5000000e-01 3.0250001e+00 3.2500000e+01 
7.5000000e-01 3.0250001e+00 3.3000000e+01 
7.5000000e-01 3.0250001e+00 3.3500000e+01 
7.5000000e-01 3.0250001e+00 3.4000000e+01 
7.5000000e-01 3.0250001e+00 3.4500000e+01 
7.5000000e-01 3.0250001e+00 3.5000000e+01 
7.5000000e-01 3.0250001e+00 3.5500000e+01 
7.5000000e-01 3.0250001e+00 3.6000000e+01 
7.5000000e-01 3.0250001e+00 3.6500000e+01 
7.5000000e-01 3.0250001e+00 3.7000000e+01 
7.5000000e-01 3.0250001e+00 3.7500000e+01 
7.5000000e-01 3.0250001e+00 3.8000000e+01 
7.5000000e-01 3.0250001e+00 3.8500000e+01 
7.5000000e-01 3.0250001e+00 3.9000000e+01 
7.5000000e-01 3.0250001e+00 3.9500000e+01 
7.5000000e-01 3.0250001e+00 4.0000000e+01 
7.5000000e-01 3.0250001e+00 4.0500000e+01 
7.5000000e-01 3.0250001e+00 4.1000000e+01 
7.5000000e-01 3.0250001e+00 4.1500000e+01 
7.5000000e-01 3.0250001e+00 4.2000000e+01 
7.5000000e-01 3.0250001e+00 4.2500000e+01 
7.5000000e-01 3.0250001e+00 4.3000000e+01 
7.5000000e-01 3.0250001e+00 4.3500000e+01 
7.5000000e-01 3.0250001e+00 4.4000000e+01 
7.5000000e-01 3.0250001e+00 4.4500000e+01 
7.5000000e-01 3.0250001e+00 4.5000000e+01 
7.5000000e-01 3.0250001e+00 4.5500000e+01 
7.5000000e-01 3.0250001e+00 4.6000000e+01 
7.5000000e-01 3.0250001e+00 4.6500000e+01 
7.5000000e-01 3.0250001e+00 4.7000000e+01 
7.5000000e-01 3.0250001e+00 4.7500000e+01 
7.5000000e-01 3.0250001e+00 4.8000000e+01 
7.5000000e-01 3.0250001e+00 4.8500000e+01 
7.5000000e-01 3.0250001e+00 4.9000000e+01 
7.5000000e-01 3.0250001e+00 4.9500000e+01 
7.5000000e-01 3.0250001e+00 5.0000000e+01 
3.0000000e+00 2.0000000e+00 3.6000000e+01 
8.0487806e-01 3.0000000e+00 3.6000000e+01 
0.0000000e+00 0.0000000e+00 1.0000000e+00 
0.0000000e+00 0.0000000e+00 2.0000000e+00 
0.0000000e+00 0.0000000e+00 3.0000000e+00 
0.0000000e+00 0.0000000e+00 4.0000000e+00 
0.0000000e+00 0.0000000e+00 5.0000000e+00 
0.0000000e+00 0.0000000e+00 6.0000000e+00 
0.0000000e+00 0.0000000e+00 7.0000000e+00 
0.0000000e+00 0.0000000e+00 8.0000000e+00 
[...]
POINT_DATA 1919
FIELD FieldData 3
DISPLACEMENT 3 1919  float
0.0000000e+00 0.0000000e+00 0.0000000e+00 
0.0000000e+00 0.0000000e+00 0.0000000e+00 
0.0000000e+00 0.0000000e+00 0.0000000e+00 
0.0000000e+00 0.0000000e+00 0.0000000e+00 
8.4733874e-05 -6.1931845e-05 -2.2442759e-05 
2.3508664e-13 -2.0029174e-11 4.2354047e-11 
0.0000000e+00 -6.5779849e-04 0.0000000e+00 
0.0000000e+00 -6.9101072e-11 0.0000000e+00 
1.1039200e-04 -4.5889527e-05 -3.9728373e-05 
-2.7161402e-12 -2.0800450e-11 6.6358301e-11 
-4.1928970e-06 -1.2373077e-04 -2.9852179e-05 
-8.7712494e-12 -6.6577928e-12 5.3306949e-11 
0.0000000e+00 -1.2865738e-03 0.0000000e+00 
0.0000000e+00 2.3339367e-10 0.0000000e+00 
-4.9087231e-04 -1.5693045e-03 -8.1202778e-04 
-6.8759547e-11 5.6049165e-10 6.2403506e-11 
-3.0123946e-04 -1.9180737e-03 -7.8871218e-04 
-1.3052157e-11 -6.3144809e-09 7.1352604e-11 
0.0000000e+00 -2.1671366e-03 0.0000000e+00 
0.0000000e+00 1.5599539e-09 0.0000000e+00 
-2.5736951e-04 -2.2022431e-03 -5.4466212e-04 
-2.6892981e-04 -3.0201983e-03 -3.0709553e-04 
-3.1936713e-04 -4.1217604e-03 -9.5149653e-06 
-3.3222319e-04 -4.9628462e-03 -1.1326398e-04 
-5.5672118e-04 -5.0724829e-03 2.6139942e-06 
-4.4932336e-04 -4.9126223e-03 -6.1434424e-05 
-4.9519655e-04 -5.0168266e-03 -1.5581698e-04 
-4.9857167e-04 -5.3092833e-03 -1.8740664e-04 
-4.7698413e-04 -5.3308755e-03 -2.7061984e-04 
-3.9377873e-04 -4.4406112e-03 -2.8891541e-04 
-3.1092518e-04 -3.1351573e-03 -4.6488689e-04 
-1.6035144e-04 -1.8700071e-03 -2.9310139e-04 
-5.7204761e-05 -9.0291997e-04 -2.6831031e-04 
4.2744300e-06 -2.6222289e-04 -8.8901957e-05 
2.7942824e-05 1.0952501e-04 -5.0382845e-05 
3.2837768e-05 2.8936021e-04 1.8014454e-05 
3.0361138e-05 3.3095738e-04 3.0759144e-05 
1.3459224e-05 2.7322333e-04 1.8147553e-05 
4.8962006e-06 1.5831315e-04 1.8105362e-05 
1.6179454e-06 4.7277539e-05 6.2103609e-06 
-2.1319108e-06 -7.3554043e-06 2.9827440e-06 
-1.9041366e-06 -3.7362868e-06 -4.4187145e-06 
-1.5730515e-06 2.0481064e-05 -3.9773513e-06 
1.7688552e-06 2.0855827e-05 -2.4176697e-06 
2.0602145e-07 -1.4173560e-05 -8.8553770e-06 
4.7680376e-07 -5.3075335e-05 -2.0399932e-06 
1.1691297e-06 -6.2127692e-05 1.3682220e-05 
-2.1887759e-06 -3.8321119e-05 7.3643173e-06 
-3.2013554e-06 -8.2538490e-06 2.2250611e-05 
-1.5190655e-05 -5.4199568e-06 1.9470932e-05 
-2.0596071e-05 -3.0486108e-05 3.6221293e-06 
-3.0175903e-05 -4.1961044e-05 2.7617732e-06 
-2.7367454e-05 6.4843475e-06 -9.9604176e-06 
-1.3195296e-05 1.2749525e-04 -1.4443274e-05 
-1.6378433e-05 2.7584613e-04 1.0062348e-05 
2.0834688e-05 3.6447949e-04 1.5995132e-05 
-1.0628507e-05 3.2662565e-04 8.6342239e-05 
3.5032084e-05 1.3814602e-04 1.2250619e-04 
-3.1454212e-05 -2.2288470e-04 1.9563604e-04 
-3.9523934e-06 -7.9009996e-04 1.6266791e-04 
-1.7336836e-04 -1.6448096e-03 3.4075571e-04 
-1.3147168e-04 -2.8025575e-03 1.8820155e-04 
-3.2547806e-04 -4.1264934e-03 2.9058038e-04 
-2.9647799e-04 -5.1049609e-03 7.3674120e-05 
-4.1321627e-04 -5.2361498e-03 -2.2527305e-05 
-3.2041917e-04 -5.0018136e-03 -5.6223307e-05 
-3.4129544e-04 -4.9248547e-03 -5.3745323e-05 
-3.1480772e-04 -5.0391667e-03 -1.2798833e-04 
-3.5605149e-04 -4.9528494e-03 -1.8390697e-04 
-3.2344431e-04 -4.0482273e-03 -2.2255763e-04 
-2.5251103e-04 -2.7949384e-03 -4.1892272e-04 
-1.2844578e-04 -1.6062624e-03 -2.5948003e-04 
-5.9816022e-05 -7.1123155e-04 -2.5463177e-04 
4.5349539e-06 -1.3388303e-04 -7.5732722e-05 
2.9499635e-05 1.7121508e-04 -3.0959207e-05 
2.6526506e-05 2.8976865e-04 1.9154606e-05 
2.8583065e-05 2.9229131e-04 3.2825839e-05 
1.5393765e-05 2.2801112e-04 1.5403934e-05 
6.5212084e-06 1.3607950e-04 1.7974204e-05 
-4.5699630e-07 5.0372641e-05 5.8306687e-06 
-4.3300834e-06 -2.4243702e-06 1.3832991e-07 
-3.2083678e-06 -2.1749280e-05 -3.3869462e-06 
-2.4007138e-06 -2.1688891e-05 -2.7532167e-06 
-2.7260347e-07 -1.6658270e-05 -1.2034528e-06 
3.8253717e-07 -1.2302088e-05 1.4044232e-06 
5.5888938e-07 -7.6424167e-06 -4.9321358e-07 
7.8213242e-07 -2.4904944e-06 3.9580065e-08 
6.8291129e-08 5.2953419e-07 2.9664460e-07 
6.5164869e-07 -8.3445798e-07 -6.2603857e-07 
-7.8249712e-07 -3.7481188e-06 4.0625591e-07 
-7.9927395e-07 -3.2962980e-06 -8.1576582e-07 
1.2585654e-07 1.5431150e-06 -8.4995003e-07 
1.9724111e-09 5.8553578e-06 1.0030207e-06 
7.6016228e-08 5.6173471e-06 -1.2303755e-07 
4.8270913e-08 6.3322932e-07 -2.5531574e-07 
-4.8354245e-08 -4.4474950e-06 3.2761824e-07 
-7.4034375e-08 -5.1248830e-06 -1.7819184e-07 
-5.5847817e-08 -1.9416900e-06 -4.2926800e-08 
4.5727386e-08 1.6079222e-06 1.4729001e-07 
6.3664288e-08 2.8778304e-06 -7.8422431e-08 
-1.1027398e-09 1.6116129e-06 3.1696221e-08 
-7.6264994e-09 -3.5741334e-07 4.8718380e-08 
-1.4049466e-08 -1.2419409e-06 -5.7723348e-08 
-1.7459451e-08 -8.7416555e-07 -3.6927577e-09 
6.0660263e-09 -4.8843759e-08 1.6922286e-08 
1.2346565e-08 4.7083617e-07 -8.4747533e-09 
4.6589674e-09 4.1618298e-07 -2.0546791e-09 
-1.2716551e-08 7.1952023e-08 -2.3899780e-09 
-1.0791451e-08 -1.8852056e-07 -4.6184638e-09 
-3.3337835e-09 -1.8294726e-07 2.4508919e-09 
1.0006590e-09 -2.8314457e-08 2.0296693e-09 
2.5715314e-09 8.3172893e-08 -2.0456785e-09 
-1.3348415e-10 6.8111241e-08 6.1992350e-10 
-6.8932543e-10 -2.2827498e-09 6.4138617e-10 
-1.4200352e-10 -3.4155129e-08 -5.9036220e-10 
1.3804299e-11 -1.7062183e-08 6.9759074e-11 
1.7153785e-10 7.8494997e-09 2.5751687e-10 
5.0482840e-11 1.2593557e-08 -2.8863210e-11 
-5.2886757e-11 1.1211614e-09 4.1436954e-12 
0.0000000e+00 -1.9184077e-03 0.0000000e+00 
0.0000000e+00 -2.2117093e-03 0.0000000e+00 
0.0000000e+00 -3.0360094e-03 0.0000000e+00 
0.0000000e+00 -4.1403011e-03 0.0000000e+00 
0.0000000e+00 -4.9941391e-03 0.0000000e+00 
0.0000000e+00 -5.0930046e-03 0.0000000e+00 
0.0000000e+00 -4.9429229e-03 0.0000000e+00 
0.0000000e+00 -5.0369538e-03 0.0000000e+00 
0.0000000e+00 -5.3385491e-03 0.0000000e+00 
0.0000000e+00 -5.3513623e-03 0.0000000e+00 
0.0000000e+00 -4.4665365e-03 0.0000000e+00 
0.0000000e+00 -3.1471353e-03 0.0000000e+00 
0.0000000e+00 -1.8811910e-03 0.0000000e+00 
0.0000000e+00 -9.0683607e-04 0.0000000e+00 
0.0000000e+00 -2.6233753e-04 0.0000000e+00 
0.0000000e+00 1.1097779e-04 0.0000000e+00 
0.0000000e+00 2.8986772e-04 0.0000000e+00 
0.0000000e+00 3.3056398e-04 0.0000000e+00 
0.0000000e+00 2.7242425e-04 0.0000000e+00 
0.0000000e+00 1.5903781e-04 0.0000000e+00 
0.0000000e+00 4.9995855e-05 0.0000000e+00 
0.0000000e+00 -5.3580111e-06 0.0000000e+00 
0.0000000e+00 -3.4781192e-06 0.0000000e+00 
0.0000000e+00 1.8824663e-05 0.0000000e+00 
0.0000000e+00 1.8709152e-05 0.0000000e+00 
0.0000000e+00 -1.4460554e-05 0.0000000e+00 
0.0000000e+00 -5.1742692e-05 0.0000000e+00 
0.0000000e+00 -6.0617298e-05 0.0000000e+00 
0.0000000e+00 -3.7751204e-05 0.0000000e+00 
0.0000000e+00 -9.5652649e-06 0.0000000e+00 
0.0000000e+00 -7.3206870e-06 0.0000000e+00 
0.0000000e+00 -3.1144999e-05 0.0000000e+00 
0.0000000e+00 -4.1124622e-05 0.0000000e+00 
0.0000000e+00 9.1047568e-06 0.0000000e+00 
0.0000000e+00 1.3019118e-04 0.0000000e+00 
0.0000000e+00 2.7583187e-04 0.0000000e+00 
0.0000000e+00 3.6289854e-04 0.0000000e+00 
0.0000000e+00 3.2587757e-04 0.0000000e+00 
0.0000000e+00 1.3782422e-04 0.0000000e+00 
0.0000000e+00 -2.2087098e-04 0.0000000e+00 
0.0000000e+00 -7.9289370e-04 0.0000000e+00 
0.0000000e+00 -1.6521013e-03 0.0000000e+00 
0.0000000e+00 -2.8214669e-03 0.0000000e+00 
0.0000000e+00 -4.1479841e-03 0.0000000e+00 
0.0000000e+00 -5.1347781e-03 0.0000000e+00 
0.0000000e+00 -5.2555865e-03 0.0000000e+00 
0.0000000e+00 -5.0267465e-03 0.0000000e+00 
0.0000000e+00 -4.9470402e-03 0.0000000e+00 
0.0000000e+00 -5.0706002e-03 0.0000000e+00 
0.0000000e+00 -4.9764602e-03 0.0000000e+00 
0.0000000e+00 -4.0713092e-03 0.0000000e+00 
0.0000000e+00 -2.8050649e-03 0.0000000e+00 
0.0000000e+00 -1.6162100e-03 0.0000000e+00 
0.0000000e+00 -7.1437890e-04 0.0000000e+00 
0.0000000e+00 -1.3511771e-04 0.0000000e+00 
0.0000000e+00 1.7219133e-04 0.0000000e+00 
0.0000000e+00 2.9065431e-04 0.0000000e+00 
0.0000000e+00 2.9272941e-04 0.0000000e+00 
0.0000000e+00 2.2858207e-04 0.0000000e+00 
0.0000000e+00 1.3676357e-04 0.0000000e+00 
0.0000000e+00 5.1704490e-05 0.0000000e+00 
0.0000000e+00 -1.9041338e-06 0.0000000e+00 
0.0000000e+00 -2.1996810e-05 0.0000000e+00 
0.0000000e+00 -2.2135535e-05 0.0000000e+00 
0.0000000e+00 -1.6793971e-05 0.0000000e+00 
0.0000000e+00 -1.2169694e-05 0.0000000e+00 
0.0000000e+00 -7.6220144e-06 0.0000000e+00 
0.0000000e+00 -2.6383921e-06 0.0000000e+00 
0.0000000e+00 3.0455502e-07 0.0000000e+00 
0.0000000e+00 -8.2522382e-07 0.0000000e+00 
0.0000000e+00 -3.4925172e-06 0.0000000e+00 
0.0000000e+00 -3.0799451e-06 0.0000000e+00 
0.0000000e+00 1.3608226e-06 0.0000000e+00 
0.0000000e+00 5.6337635e-06 0.0000000e+00 
0.0000000e+00 5.4769671e-06 0.0000000e+00 
0.0000000e+00 7.2026825e-07 0.0000000e+00 
0.0000000e+00 -4.1999451e-06 0.0000000e+00 
0.0000000e+00 -5.0377721e-06 0.0000000e+00 
0.0000000e+00 -2.0434916e-06 0.0000000e+00 
0.0000000e+00 1.4873356e-06 0.0000000e+00 
0.0000000e+00 2.8155825e-06 0.0000000e+00 
0.0000000e+00 1.6439336e-06 0.0000000e+00 
0.0000000e+00 -2.7602195e-07 0.0000000e+00 
0.0000000e+00 -1.2102063e-06 0.0000000e+00 
0.0000000e+00 -8.9209635e-07 0.0000000e+00 
0.0000000e+00 -7.6655688e-08 0.0000000e+00 
0.0000000e+00 4.5075697e-07 0.0000000e+00 
0.0000000e+00 4.1918727e-07 0.0000000e+00 
0.0000000e+00 8.4072795e-08 0.0000000e+00 
0.0000000e+00 -1.7694599e-07 0.0000000e+00 
0.0000000e+00 -1.8387216e-07 0.0000000e+00 
0.0000000e+00 -3.5150535e-08 0.0000000e+00 
0.0000000e+00 7.7733930e-08 0.0000000e+00 
0.0000000e+00 6.9094760e-08 0.0000000e+00 
0.0000000e+00 1.8882138e-09 0.0000000e+00 
0.0000000e+00 -3.2754951e-08 0.0000000e+00 
0.0000000e+00 -1.8411717e-08 0.0000000e+00 
0.0000000e+00 6.6046768e-09 0.0000000e+00 
0.0000000e+00 1.2355797e-08 0.0000000e+00 
0.0000000e+00 1.5210720e-09 0.0000000e+00 
0.0000000e+00 -5.9434635e-09 0.0000000e+00 
1.7694981e-07 3.6679131e-07 4.0491423e-07 
1.3357385e-07 4.2621969e-06 -1.0386423e-06 
0.0000000e+00 0.0000000e+00 0.0000000e+00 
0.0000000e+00 0.0000000e+00 0.0000000e+00 
0.0000000e+00 0.0000000e+00 0.0000000e+00 
0.0000000e+00 0.0000000e+00 0.0000000e+00 
0.0000000e+00 0.0000000e+00 0.0000000e+00 
0.0000000e+00 0.0000000e+00 0.0000000e+00 
0.0000000e+00 0.0000000e+00 0.0000000e+00 
0.0000000e+00 0.0000000e+00 0.0000000e+00 
0.0000000e+00 0.0000000e+00 0.0000000e+00 
0.0000000e+00 0.0000000e+00 0.0000000e+00 
0.0000000e+00 0.0000000e+00 0.0000000e+00 
0.0000000e+00 0.0000000e+00 0.0000000e+00 
0.0000000e+00 0.0000000e+00 0.0000000e+00 
0.0000000e+00 0.0000000e+00 0.0000000e+00 
0.0000000e+00 0.0000000e+00 0.0000000e+00 
0.0000000e+00 0.0000000e+00 0.0000000e+00 
0.0000000e+00 0.0000000e+00 0.0000000e+00 
0.0000000e+00 0.0000000e+00 0.0000000e+00 
0.0000000e+00 0.0000000e+00 0.0000000e+00 
0.0000000e+00 0.0000000e+00 0.0000000e+00 
0.0000000e+00 0.0000000e+00 0.0000000e+00 
0.0000000e+00 0.0000000e+00 0.0000000e+00 
0.0000000e+00 0.0000000e+00 0.0000000e+00 
0.0000000e+00 0.0000000e+00 0.0000000e+00 
0.0000000e+00 0.0000000e+00 0.0000000e+00 
0.0000000e+00 0.0000000e+00 0.0000000e+00 
0.0000000e+00 0.0000000e+00 0.0000000e+00 
0.0000000e+00 0.0000000e+00 0.0000000e+00 
0.0000000e+00 0.0000000e+00 0.0000000e+00 
0.0000000e+00 0.0000000e+00 0.0000000e+00 
0.0000000e+00 0.0000000e+00 0.0000000e+00 
0.0000000e+00 0.0000000e+00 0.0000000e+00 
0.0000000e+00 0.0000000e+00 0.0000000e+00 
0.0000000e+00 0.0000000e+00 0.0000000e+00 
0.0000000e+00 0.0000000e+00 0.0000000e+00 
0.0000000e+00 0.0000000e+00 0.0000000e+00 
0.0000000e+00 0.0000000e+00 0.0000000e+00 
0.0000000e+00 0.0000000e+00 0.0000000e+00 
0.0000000e+00 0.0000000e+00 0.0000000e+00 
0.0000000e+00 0.0000000e+00 0.0000000e+00 
0.0000000e+00 0.0000000e+00 0.0000000e+00 
0.0000000e+00 0.0000000e+00 0.0000000e+00 
0.0000000e+00 0.0000000e+00 0.0000000e+00 
0.0000000e+00 0.0000000e+00 0.0000000e+00 
0.0000000e+00 0.0000000e+00 0.0000000e+00 
0.0000000e+00 0.0000000e+00 0.0000000e+00 
0.0000000e+00 0.0000000e+00 0.0000000e+00 
0.0000000e+00 0.0000000e+00 0.0000000e+00 
0.0000000e+00 0.0000000e+00 0.0000000e+00 
0.0000000e+00 0.0000000e+00 0.0000000e+00 
0.0000000e+00 0.0000000e+00 0.0000000e+00 
0.0000000e+00 0.0000000e+00 0.0000000e+00 
0.0000000e+00 0.0000000e+00 0.0000000e+00 
0.0000000e+00 0.0000000e+00 0.0000000e+00 
0.0000000e+00 0.0000000e+00 0.0000000e+00 
0.0000000e+00 0.0000000e+00 0.0000000e+00 
0.0000000e+00 0.0000000e+00 0.0000000e+00 
0.0000000e+00 0.0000000e+00 0.0000000e+00 
0.0000000e+00 0.0000000e+00 0.0000000e+00 
0.0000000e+00 0.0000000e+00 0.0000000e+00 
0.0000000e+00 0.0000000e+00 0.0000000e+00 
0.0000000e+00 0.0000000e+00 0.0000000e+00 
0.0000000e+00 0.0000000e+00 0.0000000e+00 
0.0000000e+00 0.0000000e+00 0.0000000e+00 
0.0000000e+00 0.0000000e+00 0.0000000e+00 
0.0000000e+00 0.0000000e+00 0.0000000e+00 
0.0000000e+00 0.0000000e+00 0.0000000e+00 
0.0000000e+00 0.0000000e+00 0.0000000e+00 
0.0000000e+00 0.0000000e+00 0.0000000e+00 
0.0000000e+00 0.0000000e+00 0.0000000e+00 
0.0000000e+00 0.0000000e+00 0.0000000e+00 
0.0000000e+00 0.0000000e+00 0.0000000e+00 
0.0000000e+00 0.0000000e+00 0.0000000e+00 
0.0000000e+00 0.0000000e+00 0.0000000e+00 
0.0000000e+00 0.0000000e+00 0.0000000e+00 
0.0000000e+00 0.0000000e+00 0.0000000e+00 
0.0000000e+00 0.0000000e+00 0.0000000e+00 
0.0000000e+00 0.0000000e+00 0.0000000e+00 
0.0000000e+00 0.0000000e+00 0.0000000e+00 
0.0000000e+00 0.0000000e+00 0.0000000e+00 
0.0000000e+00 0.0000000e+00 0.0000000e+00 
0.0000000e+00 0.0000000e+00 0.0000000e+00 
0.0000000e+00 0.0000000e+00 0.0000000e+00 
0.0000000e+00 0.0000000e+00 0.0000000e+00 
0.0000000e+00 0.0000000e+00 0.0000000e+00 
0.0000000e+00 0.0000000e+00 0.0000000e+00 
0.0000000e+00 0.0000000e+00 0.0000000e+00 
0.0000000e+00 0.0000000e+00 0.0000000e+00 
0.0000000e+00 0.0000000e+00 0.0000000e+00 
0.0000000e+00 0.0000000e+00 0.0000000e+00 
0.0000000e+00 0.0000000e+00 0.0000000e+00 
0.0000000e+00 0.0000000e+00 0.0000000e+00 
0.0000000e+00 0.0000000e+00 0.0000000e+00 
0.0000000e+00 0.0000000e+00 0.0000000e+00 
0.0000000e+00 0.0000000e+00 0.0000000e+00 
0.0000000e+00 0.0000000e+00 0.0000000e+00 
0.0000000e+00 0.0000000e+00 0.0000000e+00 
0.0000000e+00 0.0000000e+00 0.0000000e+00 
0.0000000e+00 0.0000000e+00 0.0000000e+00 
0.0000000e+00 0.0000000e+00 0.0000000e+00 
0.0000000e+00 0.0000000e+00 0.0000000e+00 
0.0000000e+00 0.0000000e+00 0.0000000e+00 
0.0000000e+00 0.0000000e+00 0.0000000e+00 
0.0000000e+00 0.0000000e+00 0.0000000e+00 
0.0000000e+00 0.0000000e+00 0.0000000e+00 
0.0000000e+00 0.0000000e+00 0.0000000e+00 
8.9352441e-05 -2.0910977e-05 -9.4953421e-06 
8.7218650e-05 -7.9626525e-06 -3.5111416e-06 
8.6297230e-05 -4.0835348e-06 1.9153008e-06 
7.7739955e-05 -2.4247129e-05 1.6256829e-05 
5.1230782e-05 -1.2575983e-05 2.5891746e-05 
2.9059018e-05 -6.9373473e-06 1.1539862e-05 
1.0778028e-05 -3.7394673e-06 5.1192596e-06 
-4.5741942e-08 -3.2343733e-06 -2.6071718e-06 
-8.7182104e-07 2.0655179e-06 -2.6768598e-06 
-1.1986082e-06 1.0450957e-06 -1.5571060e-06 
-7.3608697e-07 -5.8342425e-07 2.1078068e-07 
-3.4255004e-07 -4.8990643e-07 -2.5505463e-07 
-6.7824652e-07 5.6507344e-07 1.5045529e-07 
2.7425988e-06 -2.4807462e-06 -1.5594532e-06 
4.6882942e-06 1.1264368e-06 -3.9834704e-06 
8.6314412e-06 -2.0207960e-07 -7.4372701e-06 
1.4731708e-05 -8.7784829e-06 -1.2406683e-05 
2.5833413e-05 -1.6943144e-05 -2.0820382e-05 
3.9590421e-05 -1.8014347e-05 -2.1524929e-05 
5.8772519e-05 -3.3211199e-05 -1.5972135e-05 
7.8059653e-05 -2.5408437e-05 -8.4227795e-06 
8.6149746e-05 -1.9276833e-05 9.3080826e-06 
7.7032775e-05 -2.4611389e-05 1.8393946e-05 
7.0739850e-05 -2.4937919e-05 2.1162759e-05 
4.8168848e-05 -1.3650192e-05 2.1087417e-05 
2.0047544e-05 -9.1983347e-06 1.3272045e-05 
1.6958320e-06 -6.7854858e-06 4.4333074e-06 
-3.4069274e-07 -1.6981352e-06 1.0057904e-06 
-4.0658012e-08 2.4579733e-06 3.2547675e-08 
-3.4232778e-07 5.8258320e-07 2.3298377e-07 
2.1545216e-07 -1.1308280e-06 6.8880968e-07 
-3.7606682e-08 -1.3116606e-08 3.2466338e-07 
2.5185156e-09 4.7444360e-07 3.5118887e-07 
6.0231635e-08 -2.7320510e-07 2.0085510e-07 
4.7457743e-08 -7.1936675e-08 3.5082934e-08 
-4.4958344e-09 4.6013763e-08 5.4588252e-08 
3.4780734e-09 -1.2926542e-08 3.0069536e-08 
-4.6875361e-09 -9.3606021e-09 7.3908977e-09 
-9.4466868e-10 -1.2544976e-10 7.5043012e-09 
5.2493743e-10 3.5842267e-09 5.5614837e-09 
3.7197878e-10 -2.1602624e-09 2.4458100e-09 
1.9881695e-10 6.7780870e-10 1.8090094e-09 
1.3937296e-10 -2.8572100e-10 9.2187463e-10 
9.0627846e-11 -1.3290898e-10 4.3156342e-10 
4.2240884e-11 2.6891548e-11 3.3080569e-10 
1.9682983e-11 -3.4990850e-11 1.8796688e-10 
8.5916439e-12 -2.6525273e-11 1.0565323e-10 
3.6873239e-12 -5.7571756e-12 7.2124279e-11 
7.1806103e-13 -8.0311851e-12 4.8188158e-11 
0.0000000e+00 -8.1318506e-04 0.0000000e+00 
0.0000000e+00 -8.4766553e-04 0.0000000e+00 
0.0000000e+00 -7.7061937e-04 0.0000000e+00 
0.0000000e+00 -7.3729246e-04 0.0000000e+00 
0.0000000e+00 -6.1073131e-04 0.0000000e+00 
0.0000000e+00 -3.2893175e-04 0.0000000e+00 
0.0000000e+00 -2.9951383e-05 0.0000000e+00 
0.0000000e+00 6.8966532e-05 0.0000000e+00 
0.0000000e+00 4.7890702e-05 0.0000000e+00 
0.0000000e+00 8.5486781e-06 0.0000000e+00 
0.0000000e+00 -6.7930669e-06 0.0000000e+00 
0.0000000e+00 -1.4167376e-05 0.0000000e+00 
0.0000000e+00 -8.5947122e-06 0.0000000e+00 
0.0000000e+00 1.2615243e-05 0.0000000e+00 
0.0000000e+00 -5.9524501e-07 0.0000000e+00 
0.0000000e+00 1.4759526e-05 0.0000000e+00 
0.0000000e+00 5.1690313e-05 0.0000000e+00 
0.0000000e+00 -4.6166861e-06 0.0000000e+00 
0.0000000e+00 -1.2322719e-04 0.0000000e+00 
0.0000000e+00 -2.2235893e-04 0.0000000e+00 
0.0000000e+00 -5.9779134e-04 0.0000000e+00 
0.0000000e+00 -8.7887666e-04 0.0000000e+00 
0.0000000e+00 -8.8344631e-04 0.0000000e+00 
0.0000000e+00 -8.1201881e-04 0.0000000e+00 
0.0000000e+00 -5.4577651e-04 0.0000000e+00 
0.0000000e+00 -2.6042067e-04 0.0000000e+00 
0.0000000e+00 -2.7363292e-05 0.0000000e+00 
0.0000000e+00 7.6577009e-05 0.0000000e+00 
0.0000000e+00 4.5499197e-05 0.0000000e+00 
0.0000000e+00 -4.6036712e-06 0.0000000e+00 
0.0000000e+00 -1.2077855e-05 0.0000000e+00 
0.0000000e+00 -4.3392620e-06 0.0000000e+00 
0.0000000e+00 1.2907469e-07 0.0000000e+00 
0.0000000e+00 2.7469407e-06 0.0000000e+00 
0.0000000e+00 -1.3564585e-06 0.0000000e+00 
0.0000000e+00 -2.0239227e-06 0.0000000e+00 
0.0000000e+00 8.6532253e-07 0.0000000e+00 
0.0000000e+00 7.8790748e-07 0.0000000e+00 
0.0000000e+00 -4.0392061e-07 0.0000000e+00 
0.0000000e+00 -4.1883364e-08 0.0000000e+00 
0.0000000e+00 1.6308924e-07 0.0000000e+00 
0.0000000e+00 -9.2724385e-08 0.0000000e+00 
0.0000000e+00 1.3129467e-08 0.0000000e+00 
0.0000000e+00 8.0557125e-09 0.0000000e+00 
0.0000000e+00 -7.8926661e-09 0.0000000e+00 
0.0000000e+00 -8.0041107e-10 0.0000000e+00 
0.0000000e+00 2.1946047e-09 0.0000000e+00 
0.0000000e+00 -1.2277739e-09 0.0000000e+00 
0.0000000e+00 3.5174688e-10 0.0000000e+00 
1.1708900e-04 2.3470924e-05 -2.6100892e-05 
1.7188551e-04 -9.5138334e-05 -6.8549649e-05 
1.1791467e-04 -3.6290969e-04 -1.5032270e-04 
-3.4414461e-07 -5.9085339e-04 -2.1832035e-04 
-4.6139086e-12 -2.2035880e-11 4.1913483e-11 
-6.1058767e-12 -3.3624340e-12 4.1964668e-11 
-1.6753703e-11 -4.2653266e-11 2.6740735e-11 
-3.0858652e-13 1.5377182e-11 1.3415389e-11 
9.2504451e-05 -1.5313499e-05 -3.1304804e-05 
8.2306608e-05 2.4909872e-05 -1.6726895e-05 
7.7178694e-05 3.2686250e-05 2.8132963e-06 
7.8929428e-05 -3.2690280e-06 2.8234321e-05 
4.5188575e-05 7.4609893e-06 3.6381753e-05 
2.4708670e-05 7.2718290e-06 1.9080486e-05 
4.8557440e-06 2.8597037e-06 4.0790292e-06 
9.5487451e-07 -5.1645961e-06 -1.0566124e-06 
-2.0142979e-06 1.8836264e-06 -3.0947483e-06 
-4.6201734e-07 1.7962243e-06 -1.1462124e-06 
7.1034327e-07 -1.1740528e-06 4.4030483e-07 
4.3064219e-08 -4.2195313e-07 -1.2854458e-06 
8.2895852e-08 4.5165951e-09 -4.4636820e-07 
5.7493385e-06 -2.1867438e-06 -4.0278837e-06 
7.5666694e-06 1.4086459e-06 -8.6624441e-06 
1.1478385e-05 -3.3289001e-07 -1.3438269e-05 
1.5773459e-05 -1.0963818e-05 -2.2710567e-05 
2.7743083e-05 -1.1172217e-05 -3.2650285e-05 
5.1687104e-05 -3.2113808e-06 -2.8649471e-05 
7.0434835e-05 -1.6883454e-05 -2.1491314e-05 