# vtk DataFile Version 4.0
vtk output
ASCII
DATASET UNSTRUCTURED_GRID
POINTS 1919 float
0.0000000e+00 0.0000000e+00 0.0000000e+00 
0.0000000e+00 0.0000000e+00 5.0000000e+01 
5.0000000e+00 0.0000000e+00 0.0000000e+00 
5.0000000e+00 0.0000000e+00 5.0000000e+01 
5.0000000e+00 1.0000000e+00 0.0000000e+00 
5.0000000e+00 1.0000000e+00 5.0000000e+01 
0.0000000e+00 1.0000000e+00 0.0000000e+00 
0.0000000e+00 1.0000000e+00 5.0000000e+01 
5.0000000e+00 2.0000000e+00 0.0000000e+00 
5.0000000e+00 2.0000000e+00 5.0000000e+01 
3.0000000e+00 2.0000000e+00 0.0000000e+00 
3.0000000e+00 2.0000000e+00 5.0000000e+01 
0.0000000e+00 2.0000000e+00 0.0000000e+00 
0.0000000e+00 2.0000000e+00 5.0000000e+01 
1.5000000e+00 3.0000000e+00 0.0000000e+00 
1.5000000e+00 3.0000000e+00 5.0000000e+01 
7.5000000e-01 3.0000000e+00 0.0000000e+00 
7.5000000e-01 3.0000000e+00 5.0000000e+01 
0.0000000e+00 3.0000000e+00 0.0000000e+00 
0.0000000e+00 3.0000000e+00 5.0000000e+01 
7.5000000e-01 3.0000000e+00 5.0000000e-01 
7.5000000e-01 3.0000000e+00 1.0000000e+00 
7.5000000e-01 3.0000000e+00 1.5000000e+00 
7.5000000e-01 3.0000000e+00 2.0000000e+00 
7.5000000e-01 3.0000000e+00 2.5000000e+00 
7.5000000e-01 3.0000000e+00 3.0000000e+00 
7.5000000e-01 3.0000000e+00 3.5000000e+00 
7.5000000e-01 3.0000000e+00 4.0000000e+00 
7.5000000e-01 3.0000000e+00 4.5000000e+00 
7.5000000e-01 3.0000000e+00 5.0000000e+00 
7.5000000e-01 3.0000000e+00 5.5000000e+00 
7.5000000e-01 3.0000000e+00 6.0000000e+00 
7.5000000e-01 3.0000000e+00 6.5000000e+00 
7.5000000e-01 3.0000000e+00 7.0000000e+00 
7.5000000e-01 3.0000000e+00 7.5000000e+00 
7.5000000e-01 3.0000000e+00 8.0000000e+00 
7.5000000e-01 3.0000000e+00 8.5000000e+00 
7.5000000e-01 3.0000000e+00 9.0000000e+00 
7.5000000e-01 3.0000000e+00 9.5000000e+00 
7.5000000e-01 3.0000000e+00 1.0000000e+01 
7.5000000e-01 3.0000000e+00 1.0500000e+01 
7.5000000e-01 3.0000000e+00 1.1000000e+01 
7.5000000e-01 3.0000000e+00 1.1500000e+01 
7.5000000e-01 3.0000000e+00 1.2000000e+01 
7.5000000e-01 3.0000000e+00 1.2500000e+01 
7.5000000e-01 3.0000000e+00 1.3000000e+01 
7.5000000e-01 3.0000000e+00 1.3500000e+01 
7.5000000e-01 3.0000000e+00 1.4000000e+01 
7.5000000e-01 3.0000000e+00 1.4500000e+01 
7.5000000e-01 3.0000000e+00 1.5000000e+01 
7.5000000e-01 3.0000000e+00 1.5500000e+01 
7.5000000e-01 3.0000000e+00 1.6000000e+01 
7.5000000e-01 3.0000000e+00 1.6500000e+01 
7.5000000e-01 3.0000000e+00 1.7000000e+01 
7.5000000e-01 3.0000000e+00 1.7500000e+01 
7.5000000e-01 3.0000000e+00 1.8000000e+01 
7.5000000e-01 3.0000000e+00 1.8500000e+01 
7.5000000e-01 3.0000000e+00 1.9000000e+01 
7.5000000e-01 3.0000000e+00 1.9500000e+01 
7.5000000e-01 3.0000000e+00 2.0000000e+01 
7.5000000e-01 3.0000000e+00 2.0500000e+01 
7.5000000e-01 3.0000000e+00 2.1000000e+01 
7.5000000e-01 3.0000000e+00 2.1500000e+01 
7.5000000e-01 3.0000000e+00 2.2000000e+01 
7.5000000e-01 3.0000000e+00 2.2500000e+01 
7.5000000e-01 3.0000000e+00 2.3000000e+01 
7.5000000e-01 3.0000000e+00 2.3500000e+01 
7.5000000e-01 3.0000000e+00 2.4000000e+01 
7.5000000e-01 3.0000000e+00 2.4500000e+01 
7.5000000e-01 3.0000000e+00 2.5000000e+01 
7.5000000e-01 3.0000000e+00 2.5500000e+01 
7.5000000e-01 3.0000000e+00 2.6000000e+01 
7.5000000e-01 3.0000000e+00 2.6500000e+01 
7.5000000e-01 3.0000000e+00 2.7000000e+01 
7.5000000e-01 3.0000000e+00 2.7500000e+01 
7.5000000e-01 3.0000000e+00 2.8000000e+01 
7.5000000e-01 3.0000000e+00 2.8500000e+01 
7.5000000e-01 3.0000000e+00 2.9000000e+01 
7.5000000e-01 3.0000000e+00 2.9500000e+01 
7.5000000e-01 3.0000000e+00 3.0000000e+01 
7.5000000e-01 3.0000000e+00 3.0500000e+01 
7.5000000e-01 3.0000000e+00 3.1000000e+01 
7.5000000e-01 3.0000000e+00 3.1500000e+01 
7.5000000e-01 3.0000000e+00 3.2000000e+01 
7.5000000e-01 3.0000000e+00 3.2500000e+01 
7.5000000e-01 3.0000000e+00 3.3000000e+01 
7.5000000e-01 3.0000000e+00 3.3500000e+01 
7.5000000e-01 3.0000000e+00 3.4000000e+01 
7.5000000e-01 3.0000000e+00 3.4500000e+01 
7.5000000e-01 3.0000000e+00 3.5000000e+01 
7.5000000e-01 3.0000000e+00 3.5500000e+01 
7.5000000e-01 3.0000000e+00 3.6000000e+01 
7.5000000e-01 3.0000000e+00 3.6500000e+01 
7.5000000e-01 3.0000000e+00 3.7000000e+01 
7.5000000e-01 3.0000000e+00 3.7500000e+01 
7.5000000e-01 3.0000000e+00 3.8000000e+01 
7.5000000e-01 3.0000000e+00 3.8500000e+01 
7.5000000e-01 3.0000000e+00 3.9000000e+01 
7.5000000e-01 3.0000000e+00 3.9500000e+01 
7.5000000e-01 3.0000000e+00 4.0000000e+01 
7.5000000e-01 3.0000000e+00 4.0500000e+01 
7.5000000e-01 3.0000000e+00 4.1000000e+01 
7.5000000e-01 3.0000000e+00 4.1500000e+01 
7.5000000e-01 3.0000000e+00 4.2000000e+01 
7.5000000e-01 3.0000000e+00 4.2500000e+01 
7.5000000e-01 3.0000000e+00 4.3000000e+01 
7.5000000e-01 3.0000000e+00 4.3500000e+01 
7.5000000e-01 3.0000000e+00 4.4000000e+01 
7.5000000e-01 3.0000000e+00 4.4500000e+01 
7.5000000e-01 3.0000000e+00 4.5000000e+01 
7.5000000e-01 3.0000000e+00 4.5500000e+01 
7.5000000e-01 3.0000000e+00 4.6000000e+01 
7.5000000e-01 3.0000000e+00 4.6500000e+01 
7.5000000e-01 3.0000000e+00 4.7000000e+01 
7.5000000e-01 3.0000000e+00 4.7500000e+01 
7.5000000e-01 3.0000000e+00 4.8000000e+01 
7.5000000e-01 3.0000000e+00 4.8500000e+01 
7.5000000e-01 3.0000000e+00 4.9000000e+01 
7.5000000e-01 3.0000000e+00 4.9500000e+01 
7.5000000e-01 3.0250001e+00 0.0000000e+00 
7.5000000e-01 3.0250001e+00 5.0000000e-01 
7.5000000e-01 3.0250001e+00 1.0000000e+00 
7.5000000e-01 3.0250001e+00 1.5000000e+00 
7.5000000e-01 3.0250001e+00 2.0000000e+00 
7.5000000e-01 3.0250001e+00 2.5000000e+00 
7.5000000e-01 3.0250001e+00 3.0000000e+00 
7.5000000e-01 3.0250001e+00 3.5000000e+00 
7.5000000e-01 3.0250001e+00 4.0000000e+00 
7.5000000e-01 3.0250001e+00 4.5000000e+00 
7.5000000e-01 3.0250001e+00 5.0000000e+00 
7.5000000e-01 3.0250001e+00 5.5000000e+00 
7.5000000e-01 3.0250001e+00 6.0000000e+00 
7.5000000e-01 3.0250001e+00 6.5000000e+00 
7.5000000e-01 3.0250001e+00 7.0000000e+00 
7.5000000e-01 3.0250001e+00 7.5000000e+00 
7.5000000e-01 3.0250001e+00 8.0000000e+00 
7.5000000e-01 3.0250001e+00 8.5000000e+00 
7.5000000e-01 3.0250001e+00 9.0000000e+00 
7.5000000e-01 3.0250001e+00 9.5000000e+00 
7.5000000e-01 3.0250001e+00 1.0000000e+01 
7.5000000e-01 3.0250001e+00 1.0500000e+01 
7.5000000e-01 3.0250001e+00 1.1000000e+01 
7.5000000e-01 3.0250001e+00 1.1500000e+01 
7.5000000e-01 3.0250001e+00 1.2000000e+01 
7.5000000e-01 3.0250001e+00 1.2500000e+01 
7.5000000e-01 3.0250001e+00 1.3000000e+01 
7.5000000e-01 3.0250001e+00 1.3500000e+01 
7.5000000e-01 3.0250001e+00 1.4000000e+01 
7.5000000e-01 3.0250001e+00 1.4500000e+01 
7.5000000e-01 3.0250001e+00 1.5000000e+01 
7.5000000e-01 3.0250001e+00 1.5500000e+01 
7.5000000e-01 3.0250001e+00 1.6000000e+01 
7.5000000e-01 3.0250001e+00 1.6500000e+01 
7.5000000e-01 3.0250001e+00 1.7000000e+01 
7.5000000e-01 3.0250001e+00 1.7500000e+01 
7.5000000e-01 3.0250001e+00 1.8000000e+01 
7.5000000e-01 3.0250001e+00 1.8500000e+01 
7.5000000e-01 3.0250001e+00 1.9000000e+01 
7.5000000e-01 3.0250001e+00 1.9500000e+01 
7.5000000e-01 3.0250001e+00 2.0000000e+01 
7.5000000e-01 3.0250001e+00 2.0500000e+01 
7.5000000e-01 3.0250001e+00 2.1000000e+01 
7.5000000e-01 3.0250001e+00 2.1500000e+01 
7.5000000e-01 3.0250001e+00 2.2000000e+01 
7.5000000e-01 3.0250001e+00 2.2500000e+01 
7.5000000e-01 3.0250001e+00 2.3000000e+01 
7.5000000e-01 3.0250001e+00 2.3500000e+01 
7.5000000e-01 3.0250001e+00 2.4000000e+01 
7.5000000e-01 3.0250001e+00 2.4500000e+01 
7.5000000e-01 3.0250001e+00 2.5000000e+01 
7.5000000e-01 3.0250001e+00 2.5500000e+01 
7.5000000e-01 3.0250001e+00 2.6000000e+01 
7.5000000e-01 3.0250001e+00 2.6500000e+01 
7.5000000e-01 3.0250001e+00 2.7000000e+01 
7.5000000e-01 3.0250001e+00 2.7500000e+01 
7.5000000e-01 3.0250001e+00 2.8000000e+01 
7.5000000e-01 3.0250001e+00 2.8500000e+01 
7.5000000e-01 3.0250001e+00 2.9000000e+01 
7.5000000e-01 3.0250001e+00 2.9500000e+01 
7.5000000e-01 3.0250001e+00 3.0000000e+01 
7.5000000e-01 3.0250001e+00 3.0500000e+01 
7.5000000e-01 3.0250001e+00 3.1000000e+01 
7.5000000e-01 3.0250001e+00 3.1500000e+01 
7.5000000e-01 3.0250001e+00 3.2000000e+01 
7.5000000e-01 3.0250001e+00 3.2500000e+01 
7.5000000e-01 3.0250001e+00 3.3000000e+01 
7.5000000e-01 3.0250001e+00 3.3500000e+01 
7.5000000e-01 3.0250001e+00 3.4000000e+01 
7.5000000e-01 3.0250001e+00 3.4500000e+01 
7.5000000e-01 3.0250001e+00 3.5000000e+01 
7.5000000e-01 3.0250001e+00 3.5500000e+01 
7.5000000e-01 3.0250001e+00 3.6000000e+01 
7.5000000e-01 3.0250001e+00 3.6500000e+01 
7.5000000e-01 3.0250001e+00 3.7000000e+01 
7.5000000e-01 3.0250001e+00 3.7500000e+01 
7.5000000e-01 3.0250001e+00 3.8000000e+01 
7.5000000e-01 3.0250001e+00 3.8500000e+01 
7.5000000e-01 3.0250001e+00 3.9000000e+01 
7.5000000e-01 3.0250001e+00 3.9500000e+01 
7.5000000e-01 3.0250001e+00 4.0000000e+01 
7.5000000e-01 3.0250001e+00 4.0500000e+01 
7.5000000e-01 3.0250001e+00 4.1000000e+01 
7.5000000e-01 3.0250001e+00 4.1500000e+01 
7.5000000e-01 3.0250001e+00 4.2000000e+01 
7.5000000e-01 3.0250001e+00 4.2500000e+01 
7.5000000e-01 3.0250001e+00 4.3000000e+01 
7.5000000e-01 3.0250001e+00 4.3500000e+01 
7.5000000e-01 3.0250001e+00 4.4000000e+01 
7.5000000e-01 3.0250001e+00 4.4500000e+01 
7.5000000e-01 3.0250001e+00 4.5000000e+01 
7.5000000e-01 3.0250001e+00 4.5500000e+01 
7.5000000e-01 3.0250001e+00 4.6000000e+01 
7.5000000e-01 3.0250001e+00 4.6500000e+01 
7.5000000e-01 3.0250001e+00 4.7000000e+01 
7.5000000e-01 3.0250001e+00 4.7500000e+01 
7.5000000e-01 3.0250001e+00 4.8000000e+01 
7.5000000e-01 3.0250001e+00 4.8500000e+01 
7.5000000e-01 3.0250001e+00 4.9000000e+01 
7.5000000e-01 3.0250001e+00 4.9500000e+01 
7.5000000e-01 3.0250001e+00 5.0000000e+01 
3.0000000e+00 2.0000000e+00 3.6000000e+01 
8.0487806e-01 3.0000000e+00 3.6000000e+01 
0.0000000e+00 0.0000000e+00 1.0000000e+00 
0.0000000e+00 0.0000000e+00 2.0000000e+00 
0.0000000e+00 0.0000000e+00 3.0000000e+00 
0.0000000e+00 0.0000000e+00 4.0000000e+00 
0.0000000e+00 0.0000000e+00 5.0000000e+00 
0.0000000e+00 0.0000000e+00 6.0000000e+00 
0.0000000e+00 0.0000000e+00 7.0000000e+00 
0.0000000e+00 0.0000000e+00 8.0000000e+00 
[...]
POINT_DATA 1919
FIELD FieldData 3
DISPLACEMENT 3 1919  float
0.0000000e+00 0.0000000e+00 0.0000000e+00 
0.0000000e+00 0.0000000e+00 0.0000000e+00 
0.0000000e+00 0.0000000e+00 0.0000000e+00 
0.0000000e+00 0.0000000e+00 0.0000000e+00 
-2.7951947e-07 6.4862706e-07 1.2948793e-06 
-2.1690555e-06 1.7982045e-06 -3.5306293e-06 
0.0000000e+00 6.3095672e-06 0.0000000e+00 
0.0000000e+00 -1.5366939e-05 0.0000000e+00 
1.2706392e-06 -2.4515011e-06 4.3849808e-09 
-3.3919409e-06 1.3326080e-06 -6.0081575e-06 
-1.6995892e-06 -2.8736206e-06 -3.5163885e-06 
-8.6715636e-06 1.0176910e-06 -1.3573821e-05 
0.0000000e+00 1.8016468e-05 0.0000000e+00 
0.0000000e+00 -2.9649425e-05 0.0000000e+00 
5.3218305e-06 5.1505635e-06 -2.8482078e-05 
-1.1010036e-05 -2.2274169e-05 -5.8792186e-05 
3.4638683e-07 3.9809940e-05 -1.0549695e-05 
1.1646862e-05 -6.9771377e-05 -3.7344045e-05 
0.0000000e+00 2.3054494e-05 0.0000000e+00 
0.0000000e+00 -6.0520721e-05 0.0000000e+00 
3.8818121e-06 4.6918984e-05 -2.0971600e-05 
1.0893342e-05 6.3104468e-05 -2.2429926e-05 
1.9263996e-05 7.8350597e-05 -8.9985951e-06 
2.4484092e-05 8.6252985e-05 5.8592987e-06 
2.1113081e-05 8.7525506e-05 1.1100713e-05 
1.5200159e-05 9.0548623e-05 1.5495092e-05 
1.3474670e-05 1.0068337e-04 1.0987324e-05 
2.2104268e-05 1.1257565e-04 9.8783703e-06 
3.5866098e-05 1.1624969e-04 1.3949843e-05 
4.2272524e-05 1.0654383e-04 1.9649202e-05 
2.5846099e-05 8.7352833e-05 2.7496571e-05 
1.3489194e-05 6.8301095e-05 3.2225842e-05 
4.3089467e-06 5.7863239e-05 2.6278594e-05 
1.1783482e-05 5.6057765e-05 1.7377390e-05 
1.0115239e-05 5.2232066e-05 1.6577209e-05 
9.9473882e-06 3.2023348e-05 5.6541467e-06 
5.2719656e-06 -6.3766129e-06 -2.5093939e-06 
-1.1147874e-05 -4.7775487e-05 -1.0888202e-07 
-1.9590752e-05 -7.4108400e-05 -4.4591843e-07 
-1.8146658e-05 -7.7152428e-05 -1.0429792e-05 
-2.3293318e-05 -6.4563959e-05 -2.2873648e-05 
-2.4147705e-05 -5.2012987e-05 -3.9130158e-05 
-1.8957027e-05 -4.5089309e-05 -5.1339186e-05 
-1.7924029e-05 -3.5915360e-05 -5.7302004e-05 
2.2582212e-06 -5.7512528e-07 -7.6940858e-05 
8.4205249e-06 8.5282802e-05 -6.2734296e-05 
2.1639777e-05 2.0989907e-04 -4.9269987e-05 
2.1436801e-05 3.1597971e-04 -3.6675716e-05 
4.0910094e-05 3.3018476e-04 -1.2905334e-05 
5.0452712e-05 1.8490026e-04 2.4169440e-05 
4.7822745e-05 -1.5846001e-04 1.0387300e-04 
2.4081954e-05 -7.1599503e-04 1.1958932e-04 
-1.8457630e-06 -1.5344828e-03 2.8754107e-04 
-6.6522553e-05 -2.6136269e-03 1.7570960e-04 
-1.6881674e-04 -3.8163078e-03 2.9063824e-04 
-2.4201447e-04 -4.6762289e-03 1.4059849e-04 
-2.7342438e-04 -4.8078839e-03 1.0546553e-04 
-2.7405363e-04 -4.6850611e-03 4.0319999e-05 
-2.8045970e-04 -4.7519431e-03 3.5774388e-05 
-2.9587137e-04 -4.9462095e-03 -9.8819219e-05 
-2.9806522e-04 -4.8186230e-03 -1.8150326e-04 
-2.2823988e-04 -3.8314443e-03 -1.7042074e-04 
-1.4895314e-04 -2.5163710e-03 -3.1348036e-04 
-7.1580507e-05 -1.3291049e-03 -2.0022019e-04 
2.3821208e-07 -4.7433065e-04 -2.3346984e-04 
4.5585344e-05 5.2626081e-05 -1.1201479e-04 
6.6102824e-05 3.2917407e-04 -6.9223672e-05 
6.9934111e-05 4.4608390e-04 -4.5894199e-06 
6.7071247e-05 4.6641464e-04 2.9589199e-05 
7.3200506e-05 4.2761752e-04 5.8059395e-05 
6.6508379e-05 3.5790232e-04 9.2719230e-05 
6.0783452e-05 2.7803233e-04 9.8225166e-05 
5.2700128e-05 2.0523906e-04 1.0292364e-04 
3.4788918e-05 1.4937503e-04 8.6345928e-05 
1.5622389e-05 1.0788796e-04 8.7574437e-05 
4.6397822e-06 7.2114548e-05 7.5006174e-05 
-8.2047827e-06 3.2439497e-05 7.8517362e-05 
-1.1723187e-05 -1.9975792e-05 6.2007988e-05 
-2.2138047e-05 -7.6848810e-05 5.1088107e-05 
-4.1258903e-05 -1.1657160e-04 3.3438795e-05 
-5.4256143e-05 -1.2689944e-04 1.6730672e-05 
-4.8221063e-05 -1.1176401e-04 -1.9928566e-05 
-2.3988614e-05 -8.7872279e-05 -6.9610775e-05 
-5.7488824e-06 -7.3554176e-05 -1.0788146e-04 
1.4964216e-05 -5.9945294e-05 -1.2209172e-04 
1.7221879e-05 -2.2716224e-05 -6.2988343e-05 
1.3810924e-05 5.4011041e-05 -1.9396155e-05 
2.0543155e-05 1.5588904e-04 1.8840325e-05 
-6.4845522e-06 2.0250989e-04 5.1246156e-05 
-3.9572205e-05 6.0047485e-05 1.1401851e-04 
-7.2223549e-05 -3.6146236e-04 1.2077000e-04 
-9.2861046e-05 -1.0830587e-03 8.3612045e-05 
-1.3732849e-04 -2.0615375e-03 1.9397555e-04 
-1.5711827e-04 -3.1780393e-03 3.7629437e-05 
-2.7538656e-04 -4.2350478e-03 1.4766360e-04 
-2.8106678e-04 -4.7791209e-03 4.0098810e-05 
-2.8359389e-04 -4.7442294e-03 4.1621919e-07 
-2.8310192e-04 -4.6070768e-03 -2.8094149e-05 
-2.6869410e-04 -4.6825893e-03 -8.0454065e-06 
-2.7224916e-04 -4.7678151e-03 -9.6299962e-05 
-2.4372808e-04 -4.4089560e-03 -1.6588937e-04 
-1.9008128e-04 -3.3776360e-03 -1.2760544e-04 
-1.3974788e-04 -2.2017120e-03 -2.1698404e-04 
-9.0814683e-05 -1.2282426e-03 -9.5742056e-05 
-4.6849680e-05 -5.6664483e-04 -1.1641761e-04 
-1.5701917e-05 -1.7032644e-04 -4.8660426e-05 
1.1054840e-05 3.9277063e-05 -5.5865228e-05 
4.2813204e-05 1.2966944e-04 -4.6352718e-05 
2.6361255e-05 1.5083379e-04 -1.6846077e-05 
2.6301130e-05 1.4373685e-04 -7.9608623e-07 
2.6808293e-05 1.3125398e-04 2.3903702e-05 
2.6221796e-05 1.1987917e-04 3.1627031e-05 
2.1770680e-05 1.0592837e-04 4.4718585e-05 
9.6605909e-06 8.5492982e-05 5.2645089e-05 
-1.1860582e-05 5.8274432e-05 4.9834354e-05 
-2.5310565e-05 2.6950578e-05 3.1028281e-05 
-3.2407745e-05 -6.0912848e-06 1.9663034e-06 
-2.7055332e-05 -3.7330501e-05 -3.0132034e-05 
-1.2860005e-05 -6.0801151e-05 -4.3680619e-05 
0.0000000e+00 4.0104209e-05 0.0000000e+00 
0.0000000e+00 4.7113848e-05 0.0000000e+00 
0.0000000e+00 6.2981613e-05 0.0000000e+00 
0.0000000e+00 7.8049838e-05 0.0000000e+00 
0.0000000e+00 8.5883883e-05 0.0000000e+00 
0.0000000e+00 8.7641587e-05 0.0000000e+00 
0.0000000e+00 9.1063041e-05 0.0000000e+00 
0.0000000e+00 1.0098634e-04 0.0000000e+00 
0.0000000e+00 1.1245933e-04 0.0000000e+00 
0.0000000e+00 1.1591370e-04 0.0000000e+00 
0.0000000e+00 1.0631655e-04 0.0000000e+00 
0.0000000e+00 8.7356326e-05 0.0000000e+00 
0.0000000e+00 6.8627305e-05 0.0000000e+00 
0.0000000e+00 5.8413163e-05 0.0000000e+00 
0.0000000e+00 5.6413988e-05 0.0000000e+00 
0.0000000e+00 5.1869465e-05 0.0000000e+00 
0.0000000e+00 3.1290838e-05 0.0000000e+00 
0.0000000e+00 -6.7880796e-06 0.0000000e+00 
0.0000000e+00 -4.7651120e-05 0.0000000e+00 
0.0000000e+00 -7.3404663e-05 0.0000000e+00 
0.0000000e+00 -7.6552191e-05 0.0000000e+00 
0.0000000e+00 -6.4719374e-05 0.0000000e+00 
0.0000000e+00 -5.2528572e-05 0.0000000e+00 
0.0000000e+00 -4.6151974e-05 0.0000000e+00 
0.0000000e+00 -3.6440444e-05 0.0000000e+00 
0.0000000e+00 7.5839176e-07 0.0000000e+00 
0.0000000e+00 8.7577668e-05 0.0000000e+00 
0.0000000e+00 2.1156910e-04 0.0000000e+00 
0.0000000e+00 3.1663719e-04 0.0000000e+00 
0.0000000e+00 3.2868030e-04 0.0000000e+00 
0.0000000e+00 1.8305793e-04 0.0000000e+00 
0.0000000e+00 -1.5773057e-04 0.0000000e+00 
0.0000000e+00 -7.1838615e-04 0.0000000e+00 
0.0000000e+00 -1.5410862e-03 0.0000000e+00 
0.0000000e+00 -2.6317013e-03 0.0000000e+00 
0.0000000e+00 -3.8380721e-03 0.0000000e+00 
0.0000000e+00 -4.7070161e-03 0.0000000e+00 
0.0000000e+00 -4.8292666e-03 0.0000000e+00 
0.0000000e+00 -4.7110138e-03 0.0000000e+00 
0.0000000e+00 -4.7736755e-03 0.0000000e+00 
0.0000000e+00 -4.9762060e-03 0.0000000e+00 
0.0000000e+00 -4.8423256e-03 0.0000000e+00 
0.0000000e+00 -3.8548151e-03 0.0000000e+00 
0.0000000e+00 -2.5294614e-03 0.0000000e+00 
0.0000000e+00 -1.3388209e-03 0.0000000e+00 
0.0000000e+00 -4.7728486e-04 0.0000000e+00 
0.0000000e+00 5.2491701e-05 0.0000000e+00 
0.0000000e+00 3.3063052e-04 0.0000000e+00 
0.0000000e+00 4.4742579e-04 0.0000000e+00 
0.0000000e+00 4.6724686e-04 0.0000000e+00 
0.0000000e+00 4.2843155e-04 0.0000000e+00 
0.0000000e+00 3.5815628e-04 0.0000000e+00 
0.0000000e+00 2.7814601e-04 0.0000000e+00 
0.0000000e+00 2.0562741e-04 0.0000000e+00 
0.0000000e+00 1.4974296e-04 0.0000000e+00 
0.0000000e+00 1.0834728e-04 0.0000000e+00 
0.0000000e+00 7.2489071e-05 0.0000000e+00 
0.0000000e+00 3.1594922e-05 0.0000000e+00 
0.0000000e+00 -2.1081507e-05 0.0000000e+00 
0.0000000e+00 -7.6914082e-05 0.0000000e+00 
0.0000000e+00 -1.1589837e-04 0.0000000e+00 
0.0000000e+00 -1.2588274e-04 0.0000000e+00 
0.0000000e+00 -1.1118544e-04 0.0000000e+00 
0.0000000e+00 -8.9012909e-05 0.0000000e+00 
0.0000000e+00 -7.4578988e-05 0.0000000e+00 
0.0000000e+00 -6.0182076e-05 0.0000000e+00 
0.0000000e+00 -2.1781963e-05 0.0000000e+00 
0.0000000e+00 5.7423833e-05 0.0000000e+00 
0.0000000e+00 1.5942862e-04 0.0000000e+00 
0.0000000e+00 2.0157185e-04 0.0000000e+00 
0.0000000e+00 5.6984747e-05 0.0000000e+00 
0.0000000e+00 -3.6571678e-04 0.0000000e+00 
0.0000000e+00 -1.0881176e-03 0.0000000e+00 
0.0000000e+00 -2.0664202e-03 0.0000000e+00 
0.0000000e+00 -3.1971713e-03 0.0000000e+00 
0.0000000e+00 -4.2550024e-03 0.0000000e+00 
0.0000000e+00 -4.8123174e-03 0.0000000e+00 
0.0000000e+00 -4.7677862e-03 0.0000000e+00 
0.0000000e+00 -4.6335929e-03 0.0000000e+00 
0.0000000e+00 -4.7023571e-03 0.0000000e+00 
0.0000000e+00 -4.7951168e-03 0.0000000e+00 
0.0000000e+00 -4.4314805e-03 0.0000000e+00 
0.0000000e+00 -3.4003016e-03 0.0000000e+00 
0.0000000e+00 -2.2133675e-03 0.0000000e+00 
0.0000000e+00 -1.2349535e-03 0.0000000e+00 
0.0000000e+00 -5.6776486e-04 0.0000000e+00 
0.0000000e+00 -1.6965736e-04 0.0000000e+00 
0.0000000e+00 4.0111474e-05 0.0000000e+00 
0.0000000e+00 1.3025543e-04 0.0000000e+00 
0.0000000e+00 1.5198345e-04 0.0000000e+00 
0.0000000e+00 1.4466851e-04 0.0000000e+00 
0.0000000e+00 1.3164834e-04 0.0000000e+00 
0.0000000e+00 1.1975453e-04 0.0000000e+00 
0.0000000e+00 1.0575152e-04 0.0000000e+00 
0.0000000e+00 8.5473395e-05 0.0000000e+00 
0.0000000e+00 5.8391597e-05 0.0000000e+00 
0.0000000e+00 2.6872927e-05 0.0000000e+00 
0.0000000e+00 -6.3251155e-06 0.0000000e+00 
0.0000000e+00 -3.7442023e-05 0.0000000e+00 
0.0000000e+00 -6.0652379e-05 0.0000000e+00 
0.0000000e+00 -6.9499096e-05 0.0000000e+00 
3.4487319e-05 -2.8199389e-05 -2.8015795e-05 
-9.8791905e-05 -1.0071854e-03 8.6898392e-05 
0.0000000e+00 0.0000000e+00 0.0000000e+00 
0.0000000e+00 0.0000000e+00 0.0000000e+00 
0.0000000e+00 0.0000000e+00 0.0000000e+00 
0.0000000e+00 0.0000000e+00 0.0000000e+00 
0.0000000e+00 0.0000000e+00 0.0000000e+00 
0.0000000e+00 0.0000000e+00 0.0000000e+00 
0.0000000e+00 0.0000000e+00 0.0000000e+00 
0.0000000e+00 0.0000000e+00 0.0000000e+00 
0.0000000e+00 0.0000000e+00 0.0000000e+00 
0.0000000e+00 0.0000000e+00 0.0000000e+00 
0.0000000e+00 0.0000000e+00 0.0000000e+00 
0.0000000e+00 0.0000000e+00 0.0000000e+00 
0.0000000e+00 0.0000000e+00 0.0000000e+00 
0.0000000e+00 0.0000000e+00 0.0000000e+00 
0.0000000e+00 0.0000000e+00 0.0000000e+00 
0.0000000e+00 0.0000000e+00 0.0000000e+00 
0.0000000e+00 0.0000000e+00 0.0000000e+00 
0.0000000e+00 0.0000000e+00 0.0000000e+00 
0.0000000e+00 0.0000000e+00 0.0000000e+00 
0.0000000e+00 0.0000000e+00 0.0000000e+00 
0.0000000e+00 0.0000000e+00 0.0000000e+00 
0.0000000e+00 0.0000000e+00 0.0000000e+00 
0.0000000e+00 0.0000000e+00 0.0000000e+00 
0.0000000e+00 0.0000000e+00 0.0000000e+00 
0.0000000e+00 0.0000000e+00 0.0000000e+00 
0.0000000e+00 0.0000000e+00 0.0000000e+00 
0.0000000e+00 0.0000000e+00 0.0000000e+00 
0.0000000e+00 0.0000000e+00 0.0000000e+00 
0.0000000e+00 0.0000000e+00 0.0000000e+00 
0.0000000e+00 0.0000000e+00 0.0000000e+00 
0.0000000e+00 0.0000000e+00 0.0000000e+00 
0.0000000e+00 0.0000000e+00 0.0000000e+00 
0.0000000e+00 0.0000000e+00 0.0000000e+00 
0.0000000e+00 0.0000000e+00 0.0000000e+00 
0.0000000e+00 0.0000000e+00 0.0000000e+00 
0.0000000e+00 0.0000000e+00 0.0000000e+00 
0.0000000e+00 0.0000000e+00 0.0000000e+00 
0.0000000e+00 0.0000000e+00 0.0000000e+00 
0.0000000e+00 0.0000000e+00 0.0000000e+00 
0.0000000e+00 0.0000000e+00 0.0000000e+00 
0.0000000e+00 0.0000000e+00 0.0000000e+00 
0.0000000e+00 0.0000000e+00 0.0000000e+00 
0.0000000e+00 0.0000000e+00 0.0000000e+00 
0.0000000e+00 0.0000000e+00 0.0000000e+00 
0.0000000e+00 0.0000000e+00 0.0000000e+00 
0.0000000e+00 0.0000000e+00 0.0000000e+00 
0.0000000e+00 0.0000000e+00 0.0000000e+00 
0.0000000e+00 0.0000000e+00 0.0000000e+00 
0.0000000e+00 0.0000000e+00 0.0000000e+00 
0.0000000e+00 0.0000000e+00 0.0000000e+00 
0.0000000e+00 0.0000000e+00 0.0000000e+00 
0.0000000e+00 0.0000000e+00 0.0000000e+00 
0.0000000e+00 0.0000000e+00 0.0000000e+00 
0.0000000e+00 0.0000000e+00 0.0000000e+00 
0.0000000e+00 0.0000000e+00 0.0000000e+00 
0.0000000e+00 0.0000000e+00 0.0000000e+00 
0.0000000e+00 0.0000000e+00 0.0000000e+00 
0.0000000e+00 0.0000000e+00 0.0000000e+00 
0.0000000e+00 0.0000000e+00 0.0000000e+00 
0.0000000e+00 0.0000000e+00 0.0000000e+00 
0.0000000e+00 0.0000000e+00 0.0000000e+00 
0.0000000e+00 0.0000000e+00 0.0000000e+00 
0.0000000e+00 0.0000000e+00 0.0000000e+00 
0.0000000e+00 0.0000000e+00 0.0000000e+00 
0.0000000e+00 0.0000000e+00 0.0000000e+00 
0.0000000e+00 0.0000000e+00 0.0000000e+00 
0.0000000e+00 0.0000000e+00 0.0000000e+00 
0.0000000e+00 0.0000000e+00 0.0000000e+00 
0.0000000e+00 0.0000000e+00 0.0000000e+00 
0.0000000e+00 0.0000000e+00 0.0000000e+00 
0.0000000e+00 0.0000000e+00 0.0000000e+00 
0.0000000e+00 0.0000000e+00 0.0000000e+00 
0.0000000e+00 0.0000000e+00 0.0000000e+00 
0.0000000e+00 0.0000000e+00 0.0000000e+00 
0.0000000e+00 0.0000000e+00 0.0000000e+00 
0.0000000e+00 0.0000000e+00 0.0000000e+00 
0.0000000e+00 0.0000000e+00 0.0000000e+00 
0.0000000e+00 0.0000000e+00 0.0000000e+00 
0.0000000e+00 0.0000000e+00 0.0000000e+00 
0.0000000e+00 0.0000000e+00 0.0000000e+00 
0.0000000e+00 0.0000000e+00 0.0000000e+00 
0.0000000e+00 0.0000000e+00 0.0000000e+00 
0.0000000e+00 0.0000000e+00 0.0000000e+00 
0.0000000e+00 0.0000000e+00 0.0000000e+00 
0.0000000e+00 0.0000000e+00 0.0000000e+00 
0.0000000e+00 0.0000000e+00 0.0000000e+00 
0.0000000e+00 0.0000000e+00 0.0000000e+00 
0.0000000e+00 0.0000000e+00 0.0000000e+00 
0.0000000e+00 0.0000000e+00 0.0000000e+00 
0.0000000e+00 0.0000000e+00 0.0000000e+00 
0.0000000e+00 0.0000000e+00 0.0000000e+00 
0.0000000e+00 0.0000000e+00 0.0000000e+00 
0.0000000e+00 0.0000000e+00 0.0000000e+00 
0.0000000e+00 0.0000000e+00 0.0000000e+00 
0.0000000e+00 0.0000000e+00 0.0000000e+00 
0.0000000e+00 0.0000000e+00 0.0000000e+00 
0.0000000e+00 0.0000000e+00 0.0000000e+00 
0.0000000e+00 0.0000000e+00 0.0000000e+00 
0.0000000e+00 0.0000000e+00 0.0000000e+00 
0.0000000e+00 0.0000000e+00 0.0000000e+00 
0.0000000e+00 0.0000000e+00 0.0000000e+00 
0.0000000e+00 0.0000000e+00 0.0000000e+00 
0.0000000e+00 0.0000000e+00 0.0000000e+00 
0.0000000e+00 0.0000000e+00 0.0000000e+00 
0.0000000e+00 0.0000000e+00 0.0000000e+00 
0.0000000e+00 0.0000000e+00 0.0000000e+00 
-1.1509237e-06 -2.6387866e-07 -1.1129965e-07 
-7.3523537e-08 4.7103958e-07 -2.4080448e-06 
-1.0254161e-06 1.1594710e-06 -1.6236227e-06 
-1.4235827e-06 1.0248185e-06 -1.8338006e-06 
2.9227228e-06 -1.8879076e-06 -2.5519137e-06 
3.1411016e-06 3.6802629e-07 9.9680528e-07 
3.5697435e-06 -9.0096000e-07 7.3370416e-07 
4.9640362e-06 -4.6119108e-06 -1.8642432e-06 
3.1368361e-06 -3.0385545e-06 -3.5770470e-06 
1.3086319e-06 1.3505098e-06 -5.1716979e-06 
-2.0071745e-07 -4.9462542e-06 -4.1994272e-06 
2.0597970e-07 -3.3511581e-06 -4.2842162e-06 
8.2020665e-07 6.4096971e-06 -9.3874523e-06 
4.4206904e-06 -1.3818227e-05 -1.3868396e-05 
1.2244050e-05 -7.5796411e-06 -1.7873879e-05 
3.2631782e-05 -8.4129806e-06 -1.8633869e-05 
3.9524319e-05 -1.2116796e-05 -7.9358524e-06 
4.5616609e-05 -1.5568603e-05 -2.7213332e-06 
4.9948212e-05 -1.6301501e-05 2.2063812e-06 
4.3183252e-05 -1.5291651e-05 1.5789803e-05 
3.4146124e-05 -1.0227313e-05 1.9472098e-05 
2.1698457e-05 -5.7210641e-06 2.1128899e-05 
1.2356011e-05 -3.3901010e-06 1.9683846e-05 
7.6596489e-06 -3.6098854e-06 1.6682226e-05 
4.6089858e-06 -2.2433042e-06 6.1225787e-06 
3.9517899e-06 -8.7964776e-07 2.7542303e-06 
4.0574955e-06 -1.2904608e-06 -7.3463887e-08 
-5.8016019e-07 -1.9867407e-06 -3.3189824e-06 
1.4230037e-06 -6.4815927e-06 -7.2460666e-06 
1.8287075e-06 -4.1931139e-07 -7.5620164e-06 
8.3043162e-08 -9.4924815e-07 -1.2274539e-05 
5.6530216e-06 -6.7941955e-06 -1.2640986e-05 
3.7128530e-06 -1.5753272e-07 -1.5223890e-05 
1.0754671e-05 -1.1561677e-06 -1.6744731e-05 
2.0318508e-05 -5.7559491e-06 -1.8206481e-05 
2.9666706e-05 -4.2992028e-06 -1.7372164e-05 
3.7724865e-05 -8.5709289e-06 -1.3703850e-05 
4.2262200e-05 -1.6368031e-05 -9.1352831e-06 
4.4691606e-05 -1.2456888e-05 4.8933953e-07 
4.0024810e-05 -1.5118341e-05 1.3806281e-05 
3.2277014e-05 -1.1701982e-05 1.8877154e-05 
2.2872317e-05 -9.7872153e-06 2.0207350e-05 
1.5605645e-05 -7.2978128e-06 1.8852403e-05 
1.0138966e-05 -2.9971166e-06 1.4560777e-05 
4.6391501e-06 1.5300390e-07 9.2498694e-06 
2.6091113e-06 -1.9019541e-07 7.5313860e-06 
-3.6390880e-08 -9.7107738e-07 3.0112935e-06 
-1.5078483e-06 -4.7107014e-07 -4.8828679e-07 
-2.0468574e-06 -2.8605393e-07 -2.6369635e-06 
0.0000000e+00 1.8604838e-05 0.0000000e+00 
0.0000000e+00 1.2158510e-05 0.0000000e+00 
0.0000000e+00 6.2349432e-07 0.0000000e+00 
0.0000000e+00 -9.8742930e-06 0.0000000e+00 
0.0000000e+00 -1.6895521e-05 0.0000000e+00 
0.0000000e+00 -3.1737643e-05 0.0000000e+00 
0.0000000e+00 -1.8512406e-05 0.0000000e+00 
0.0000000e+00 -3.3131817e-06 0.0000000e+00 
0.0000000e+00 -1.2783528e-05 0.0000000e+00 
0.0000000e+00 8.4317744e-06 0.0000000e+00 
0.0000000e+00 3.8840950e-05 0.0000000e+00 
0.0000000e+00 2.1871447e-05 0.0000000e+00 
0.0000000e+00 4.1208041e-05 0.0000000e+00 
0.0000000e+00 5.8574660e-05 0.0000000e+00 
0.0000000e+00 -2.3156292e-05 0.0000000e+00 
0.0000000e+00 -9.7239907e-05 0.0000000e+00 
0.0000000e+00 -3.4273588e-04 0.0000000e+00 
0.0000000e+00 -5.0794956e-04 0.0000000e+00 
0.0000000e+00 -5.9330446e-04 0.0000000e+00 
0.0000000e+00 -6.1089202e-04 0.0000000e+00 
0.0000000e+00 -4.3032109e-04 0.0000000e+00 
0.0000000e+00 -1.6951621e-04 0.0000000e+00 
0.0000000e+00 -2.7599797e-05 0.0000000e+00 
0.0000000e+00 4.2368269e-05 0.0000000e+00 
0.0000000e+00 4.1249728e-05 0.0000000e+00 
0.0000000e+00 3.3178479e-05 0.0000000e+00 
0.0000000e+00 6.8922432e-06 0.0000000e+00 
0.0000000e+00 3.4821760e-06 0.0000000e+00 
0.0000000e+00 -3.1337000e-05 0.0000000e+00 
0.0000000e+00 -2.7435231e-05 0.0000000e+00 
0.0000000e+00 1.1967851e-05 0.0000000e+00 
0.0000000e+00 -4.6985984e-05 0.0000000e+00 
0.0000000e+00 -3.2715747e-05 0.0000000e+00 
0.0000000e+00 1.4798295e-05 0.0000000e+00 
0.0000000e+00 -5.2082160e-05 0.0000000e+00 
0.0000000e+00 -2.3593579e-04 0.0000000e+00 
0.0000000e+00 -3.8374128e-04 0.0000000e+00 
0.0000000e+00 -5.4177607e-04 0.0000000e+00 
0.0000000e+00 -5.4889324e-04 0.0000000e+00 
0.0000000e+00 -4.8763433e-04 0.0000000e+00 
0.0000000e+00 -3.5324210e-04 0.0000000e+00 
0.0000000e+00 -1.7950305e-04 0.0000000e+00 
0.0000000e+00 -6.8131703e-05 0.0000000e+00 
0.0000000e+00 -2.0852884e-05 0.0000000e+00 
0.0000000e+00 9.7301845e-06 0.0000000e+00 
0.0000000e+00 3.2604657e-05 0.0000000e+00 
0.0000000e+00 2.7893417e-05 0.0000000e+00 
0.0000000e+00 2.8210575e-06 0.0000000e+00 
0.0000000e+00 -1.4065020e-05 0.0000000e+00 
-1.6157351e-06 -5.8573033e-07 7.7325330e-07 
-1.8431491e-06 -8.7050881e-07 -1.2016224e-06 
-3.2059340e-06 2.6601365e-06 1.6653842e-06 
-2.4016754e-06 6.0085076e-06 3.7156058e-06 
-3.1317261e-06 1.3301003e-06 -4.0295513e-06 
-2.6284349e-06 -1.9218884e-07 -6.0191510e-06 
3.2037866e-07 -4.1327471e-06 -8.1053913e-06 
2.8681823e-06 -1.0817830e-05 -3.9317983e-06 
-1.2822226e-06 2.1907847e-07 -1.1417275e-06 
-4.4731715e-07 9.7403699e-07 -1.7137945e-06 
-1.2335190e-06 3.7333328e-07 -1.4790525e-06 
6.2720756e-07 3.4491891e-06 -1.2792584e-06 
3.9536126e-06 -1.8483331e-06 8.5245659e-07 
1.4549001e-06 1.8472258e-06 -1.3860777e-06 
3.3491608e-06 2.3218893e-06 -1.8631762e-06 
6.3953162e-06 -3.7401030e-06 -8.2580937e-07 
3.2787657e-06 1.0725834e-07 -2.2750353e-06 
4.9509822e-07 -1.9635952e-06 -6.9850955e-07 
5.2893641e-09 -6.2243635e-06 -4.6084442e-06 
3.6089541e-06 -4.1592007e-06 -1.3025387e-05 
-1.4322334e-06 4.6901609e-06 -1.7791128e-05 
1.5331039e-05 -1.6130245e-05 -2.0867601e-05 
2.8239543e-05 1.2976654e-06 -1.7171114e-05 
3.1164574e-05 -8.1487551e-06 -1.7467682e-05 
3.7411493e-05 -1.4075707e-05 -1.1559878e-05 
4.6879693e-05 -8.2192564e-06 2.2927316e-06 
4.4658256e-05 -1.4427033e-05 8.5421989e-06 
4.0999028e-05 -1.3627756e-05 1.7261809e-05 