# vtk DataFile Version 4.0
vtk output
ASCII
DATASET UNSTRUCTURED_GRID
POINTS 1919 float
0.0000000e+00 0.0000000e+00 0.0000000e+00 
0.0000000e+00 0.0000000e+00 5.0000000e+01 
5.0000000e+00 0.0000000e+00 0.0000000e+00 
5.0000000e+00 0.0000000e+00 5.0000000e+01 
5.0000000e+00 1.0000000e+00 0.0000000e+00 
5.0000000e+00 1.0000000e+00 5.0000000e+01 
0.0000000e+00 1.0000000e+00 0.0000000e+00 
0.0000000e+00 1.0000000e+00 5.0000000e+01 
5.0000000e+00 2.0000000e+00 0.0000000e+00 
5.0000000e+00 2.0000000e+00 5.0000000e+01 
3.0000000e+00 2.0000000e+00 0.0000000e+00 
3.0000000e+00 2.0000000e+00 5.0000000e+01 
0.0000000e+00 2.0000000e+00 0.0000000e+00 
0.0000000e+00 2.0000000e+00 5.0000000e+01 
1.5000000e+00 3.0000000e+00 0.0000000e+00 
1.5000000e+00 3.0000000e+00 5.0000000e+01 
7.5000000e-01 3.0000000e+00 0.0000000e+00 
7.5000000e-01 3.0000000e+00 5.0000000e+01 
0.0000000e+00 3.0000000e+00 0.0000000e+00 
0.0000000e+00 3.0000000e+00 5.0000000e+01 
7.5000000e-01 3.0000000e+00 5.0000000e-01 
7.5000000e-01 3.0000000e+00 1.0000000e+00 
7.5000000e-01 3.0000000e+00 1.5000000e+00 
7.5000000e-01 3.0000000e+00 2.0000000e+00 
7.5000000e-01 3.0000000e+00 2.5000000e+00 
7.5000000e-01 3.0000000e+00 3.0000000e+00 
7.5000000e-01 3.0000000e+00 3.5000000e+00 
7.5000000e-01 3.0000000e+00 4.0000000e+00 
7.5000000e-01 3.0000000e+00 4.5000000e+00 
7.5000000e-01 3.0000000e+00 5.0000000e+00 
7.5000000e-01 3.0000000e+00 5.5000000e+00 
7.5000000e-01 3.0000000e+00 6.0000000e+00 
7.5000000e-01 3.0000000e+00 6.5000000e+00 
7.5000000e-01 3.0000000e+00 7.0000000e+00 
7.5000000e-01 3.0000000e+00 7.5000000e+00 
7.5000000e-01 3.0000000e+00 8.0000000e+00 
7.5000000e-01 3.0000000e+00 8.5000000e+00 
7.5000000e-01 3.0000000e+00 9.0000000e+00 
7.5000000e-01 3.0000000e+00 9.5000000e+00 
7.5000000e-01 3.0000000e+00 1.0000000e+01 
7.5000000e-01 3.0000000e+00 1.0500000e+01 
7.5000000e-01 3.0000000e+00 1.1000000e+01 
7.5000000e-01 3.0000000e+00 1.1500000e+01 
7.5000000e-01 3.0000000e+00 1.2000000e+01 
7.5000000e-01 3.0000000e+00 1.2500000e+01 
7.5000000e-01 3.0000000e+00 1.3000000e+01 
7.5000000e-01 3.0000000e+00 1.3500000e+01 
7.5000000e-01 3.0000000e+00 1.4000000e+01 
7.5000000e-01 3.0000000e+00 1.4500000e+01 
7.5000000e-01 3.0000000e+00 1.5000000e+01 
7.5000000e-01 3.0000000e+00 1.5500000e+01 
7.5000000e-01 3.0000000e+00 1.6000000e+01 
7.5000000e-01 3.0000000e+00 1.6500000e+01 
7.5000000e-01 3.0000000e+00 1.7000000e+01 
7.5000000e-01 3.0000000e+00 1.7500000e+01 
7.5000000e-01 3.0000000e+00 1.8000000e+01 
7.5000000e-01 3.0000000e+00 1.8500000e+01 
7.5000000e-01 3.0000000e+00 1.9000000e+01 
7.5000000e-01 3.0000000e+00 1.9500000e+01 
7.5000000e-01 3.0000000e+00 2.0000000e+01 
7.5000000e-01 3.0000000e+00 2.0500000e+01 
7.5000000e-01 3.0000000e+00 2.1000000e+01 
7.5000000e-01 3.0000000e+00 2.1500000e+01 
7.5000000e-01 3.0000000e+00 2.2000000e+01 
7.5000000e-01 3.0000000e+00 2.2500000e+01 
7.5000000e-01 3.0000000e+00 2.3000000e+01 
7.5000000e-01 3.0000000e+00 2.3500000e+01 
7.5000000e-01 3.0000000e+00 2.4000000e+01 
7.5000000e-01 3.0000000e+00 2.4500000e+01 
7.5000000e-01 3.0000000e+00 2.5000000e+01 
7.5000000e-01 3.0000000e+00 2.5500000e+01 
7.5000000e-01 3.0000000e+00 2.6000000e+01 
7.5000000e-01 3.0000000e+00 2.6500000e+01 
7.5000000e-01 3.0000000e+00 2.7000000e+01 
7.5000000e-01 3.0000000e+00 2.7500000e+01 
7.5000000e-01 3.0000000e+00 2.8000000e+01 
7.5000000e-01 3.0000000e+00 2.8500000e+01 
7.5000000e-01 3.0000000e+00 2.9000000e+01 
7.5000000e-01 3.0000000e+00 2.9500000e+01 
7.5000000e-01 3.0000000e+00 3.0000000e+01 
7.5000000e-01 3.0000000e+00 3.0500000e+01 
7.5000000e-01 3.0000000e+00 3.1000000e+01 
7.5000000e-01 3.0000000e+00 3.1500000e+01 
7.5000000e-01 3.0000000e+00 3.2000000e+01 
7.5000000e-01 3.0000000e+00 3.2500000e+01 
7.5000000e-01 3.0000000e+00 3.3000000e+01 
7.5000000e-01 3.0000000e+00 3.3500000e+01 
7.5000000e-01 3.0000000e+00 3.4000000e+01 
7.5000000e-01 3.0000000e+00 3.4500000e+01 
7.5000000e-01 3.0000000e+00 3.5000000e+01 
7.5000000e-01 3.0000000e+00 3.5500000e+01 
7.5000000e-01 3.0000000e+00 3.6000000e+01 
7.5000000e-01 3.0000000e+00 3.6500000e+01 
7.5000000e-01 3.0000000e+00 3.7000000e+01 
7.5000000e-01 3.0000000e+00 3.7500000e+01 
7.5000000e-01 3.0000000e+00 3.8000000e+01 
7.5000000e-01 3.0000000e+00 3.8500000e+01 
7.5000000e-01 3.0000000e+00 3.9000000e+01 
7.5000000e-01 3.0000000e+00 3.9500000e+01 
7.5000000e-01 3.0000000e+00 4.0000000e+01 
7.5000000e-01 3.0000000e+00 4.0500000e+01 
7.5000000e-01 3.0000000e+00 4.1000000e+01 
7.5000000e-01 3.0000000e+00 4.1500000e+01 
7.5000000e-01 3.0000000e+00 4.2000000e+01 
7.5000000e-01 3.0000000e+00 4.2500000e+01 
7.5000000e-01 3.0000000e+00 4.3000000e+01 
7.5000000e-01 3.0000000e+00 4.3500000e+01 
7.5000000e-01 3.0000000e+00 4.4000000e+01 
7.5000000e-01 3.0000000e+00 4.4500000e+01 
7.5000000e-01 3.0000000e+00 4.5000000e+01 
7.5000000e-01 3.0000000e+00 4.5500000e+01 
7.5000000e-01 3.0000000e+00 4.6000000e+01 
7.5000000e-01 3.0000000e+00 4.6500000e+01 
7.5000000e-01 3.0000000e+00 4.7000000e+01 
7.5000000e-01 3.0000000e+00 4.7500000e+01 
7.5000000e-01 3.0000000e+00 4.8000000e+01 
7.5000000e-01 3.0000000e+00 4.8500000e+01 
7.5000000e-01 3.0000000e+00 4.9000000e+01 
7.5000000e-01 3.0000000e+00 4.9500000e+01 
7.5000000e-01 3.0250001e+00 0.0000000e+00 
7.5000000e-01 3.0250001e+00 5.0000000e-01 
7.5000000e-01 3.0250001e+00 1.0000000e+00 
7.5000000e-01 3.0250001e+00 1.5000000e+00 
7.5000000e-01 3.0250001e+00 2.0000000e+00 
7.5000000e-01 3.0250001e+00 2.5000000e+00 
7.5000000e-01 3.0250001e+00 3.0000000e+00 
7.5000000e-01 3.0250001e+00 3.5000000e+00 
7.5000000e-01 3.0250001e+00 4.0000000e+00 
7.5000000e-01 3.0250001e+00 4.5000000e+00 
7.5000000e-01 3.0250001e+00 5.0000000e+00 
7.5000000e-01 3.0250001e+00 5.5000000e+00 
7.5000000e-01 3.0250001e+00 6.0000000e+00 
7.5000000e-01 3.0250001e+00 6.5000000e+00 
7.5000000e-01 3.0250001e+00 7.0000000e+00 
7.5000000e-01 3.0250001e+00 7.5000000e+00 
7.5000000e-01 3.0250001e+00 8.0000000e+00 
7.5000000e-01 3.0250001e+00 8.5000000e+00 
7.5000000e-01 3.0250001e+00 9.0000000e+00 
7.5000000e-01 3.0250001e+00 9.5000000e+00 
7.5000000e-01 3.0250001e+00 1.0000000e+01 
7.5000000e-01 3.0250001e+00 1.0500000e+01 
7.5000000e-01 3.0250001e+00 1.1000000e+01 
7.5000000e-01 3.0250001e+00 1.1500000e+01 
7.5000000e-01 3.0250001e+00 1.2000000e+01 
7.5000000e-01 3.0250001e+00 1.2500000e+01 
7.5000000e-01 3.0250001e+00 1.3000000e+01 
7.5000000e-01 3.0250001e+00 1.3500000e+01 
7.5000000e-01 3.0250001e+00 1.4000000e+01 
7.5000000e-01 3.0250001e+00 1.4500000e+01 
7.5000000e-01 3.0250001e+00 1.5000000e+01 
7.5000000e-01 3.0250001e+00 1.5500000e+01 
7.5000000e-01 3.0250001e+00 1.6000000e+01 
7.5000000e-01 3.0250001e+00 1.6500000e+01 
7.5000000e-01 3.0250001e+00 1.7000000e+01 
7.5000000e-01 3.0250001e+00 1.7500000e+01 
7.5000000e-01 3.0250001e+00 1.8000000e+01 
7.5000000e-01 3.0250001e+00 1.8500000e+01 
7.5000000e-01 3.0250001e+00 1.9000000e+01 
7.5000000e-01 3.0250001e+00 1.9500000e+01 
7.5000000e-01 3.0250001e+00 2.0000000e+01 
7.5000000e-01 3.0250001e+00 2.0500000e+01 
7.5000000e-01 3.0250001e+00 2.1000000e+01 
7.5000000e-01 3.0250001e+00 2.1500000e+01 
7.5000000e-01 3.0250001e+00 2.2000000e+01 
7.5000000e-01 3.0250001e+00 2.2500000e+01 
7.5000000e-01 3.0250001e+00 2.3000000e+01 
7.5000000e-01 3.0250001e+00 2.3500000e+01 
7.5000000e-01 3.0250001e+00 2.4000000e+01 
7.5000000e-01 3.0250001e+00 2.4500000e+01 
7.5000000e-01 3.0250001e+00 2.5000000e+01 
7.5000000e-01 3.0250001e+00 2.5500000e+01 
7.5000000e-01 3.0250001e+00 2.6000000e+01 
7.5000000e-01 3.0250001e+00 2.6500000e+01 
7.5000000e-01 3.0250001e+00 2.7000000e+01 
7.5000000e-01 3.0250001e+00 2.7500000e+01 
7.5000000e-01 3.0250001e+00 2.8000000e+01 
7.5000000e-01 3.0250001e+00 2.8500000e+01 
7.5000000e-01 3.0250001e+00 2.9000000e+01 
7.5000000e-01 3.0250001e+00 2.9500000e+01 
7.5000000e-01 3.0250001e+00 3.0000000e+01 
7.5000000e-01 3.0250001e+00 3.0500000e+01 
7.5000000e-01 3.0250001e+00 3.1000000e+01 
7.5000000e-01 3.0250001e+00 3.1500000e+01 
7.5000000e-01 3.0250001e+00 3.2000000e+01 
7.5000000e-01 3.0250001e+00 3.2500000e+01 
7.5000000e-01 3.0250001e+00 3.3000000e+01 
7.5000000e-01 3.0250001e+00 3.3500000e+01 
7.5000000e-01 3.0250001e+00 3.4000000e+01 
7.5000000e-01 3.0250001e+00 3.4500000e+01 
7.5000000e-01 3.0250001e+00 3.5000000e+01 
7.5000000e-01 3.0250001e+00 3.5500000e+01 
7.5000000e-01 3.0250001e+00 3.6000000e+01 
7.5000000e-01 3.0250001e+00 3.6500000e+01 
7.5000000e-01 3.0250001e+00 3.7000000e+01 
7.5000000e-01 3.0250001e+00 3.7500000e+01 
7.5000000e-01 3.0250001e+00 3.8000000e+01 
7.5000000e-01 3.0250001e+00 3.8500000e+01 
7.5000000e-01 3.0250001e+00 3.9000000e+01 
7.5000000e-01 3.0250001e+00 3.9500000e+01 
7.5000000e-01 3.0250001e+00 4.0000000e+01 
7.5000000e-01 3.0250001e+00 4.0500000e+01 
7.5000000e-01 3.0250001e+00 4.1000000e+01 
7.5000000e-01 3.0250001e+00 4.1500000e+01 
7.5000000e-01 3.0250001e+00 4.2000000e+01 
7.5000000e-01 3.0250001e+00 4.2500000e+01 
7.5000000e-01 3.0250001e+00 4.3000000e+01 
7.5000000e-01 3.0250001e+00 4.3500000e+01 
7.5000000e-01 3.0250001e+00 4.4000000e+01 
7.5000000e-01 3.0250001e+00 4.4500000e+01 
7.5000000e-01 3.0250001e+00 4.5000000e+01 
7.5000000e-01 3.0250001e+00 4.5500000e+01 
7.5000000e-01 3.0250001e+00 4.6000000e+01 
7.5000000e-01 3.0250001e+00 4.6500000e+01 
7.5000000e-01 3.0250001e+00 4.7000000e+01 
7.5000000e-01 3.0250001e+00 4.7500000e+01 
7.5000000e-01 3.0250001e+00 4.8000000e+01 
7.5000000e-01 3.0250001e+00 4.8500000e+01 
7.5000000e-01 3.0250001e+00 4.9000000e+01 
7.5000000e-01 3.0250001e+00 4.9500000e+01 
7.5000000e-01 3.0250001e+00 5.0000000e+01 
3.0000000e+00 2.0000000e+00 3.6000000e+01 
8.0487806e-01 3.0000000e+00 3.6000000e+01 
0.0000000e+00 0.0000000e+00 1.0000000e+00 
0.0000000e+00 0.0000000e+00 2.0000000e+00 
0.0000000e+00 0.0000000e+00 3.0000000e+00 
0.0000000e+00 0.0000000e+00 4.0000000e+00 
0.0000000e+00 0.0000000e+00 5.0000000e+00 
0.0000000e+00 0.0000000e+00 6.0000000e+00 
0.0000000e+00 0.0000000e+00 7.0000000e+00 
0.0000000e+00 0.0000000e+00 8.0000000e+00 
[...]
POINT_DATA 1919
FIELD FieldData 3
DISPLACEMENT 3 1919  float
0.0000000e+00 0.0000000e+00 0.0000000e+00 
0.0000000e+00 0.0000000e+00 0.0000000e+00 
0.0000000e+00 0.0000000e+00 0.0000000e+00 
0.0000000e+00 0.0000000e+00 0.0000000e+00 
-2.7621622e-06 2.2781057e-07 4.6397241e-07 
-1.7622222e-07 7.3355375e-07 -8.6108378e-07 
0.0000000e+00 1.7690574e-05 0.0000000e+00 
0.0000000e+00 -1.1184257e-05 0.0000000e+00 
-8.8647323e-07 -2.5626450e-06 -1.2272980e-06 
-9.6855513e-07 1.2021882e-06 -1.9395179e-06 
3.5546095e-06 3.1085276e-06 1.3639160e-06 
-1.1666008e-06 2.2750214e-06 -2.4787619e-06 
0.0000000e+00 3.7915976e-05 0.0000000e+00 
0.0000000e+00 -2.9224970e-05 0.0000000e+00 
-8.6307745e-07 3.8201913e-05 2.0038142e-05 
-1.9993834e-06 -2.2376127e-05 2.7576878e-06 
4.9703049e-06 -4.1282201e-06 1.0649151e-05 
-1.4539278e-05 1.6573089e-05 -7.0785036e-06 
0.0000000e+00 7.7695600e-05 0.0000000e+00 
0.0000000e+00 -7.5091964e-05 0.0000000e+00 
5.2805808e-06 -8.4507537e-06 2.3735569e-05 
-9.7834140e-07 -2.0829933e-05 3.2395448e-05 
-9.2024520e-06 -3.9699949e-05 2.1163265e-05 
-1.6457456e-05 -6.1623708e-05 2.9382343e-06 
-1.1069724e-05 -8.0840058e-05 -1.2558899e-05 
-1.4052297e-05 -9.0645692e-05 -2.5367526e-05 
-1.4021638e-05 -8.9183901e-05 -2.5898747e-05 
-2.1188704e-05 -8.2464408e-05 -1.8517168e-05 
-3.2561522e-05 -7.4758573e-05 -2.1660495e-05 
-3.2875116e-05 -6.4076419e-05 -2.4065232e-05 
-1.8501907e-05 -4.5918896e-05 -3.5367088e-05 
-1.1404677e-05 -1.4461646e-05 -3.7408965e-05 
2.8146594e-06 2.6445445e-05 -3.2321430e-05 
-6.6797115e-06 6.3911139e-05 -1.8836801e-05 
4.5539633e-07 8.5449690e-05 -4.1753506e-06 
1.4572810e-05 8.9706613e-05 1.9777652e-05 
2.7097018e-05 9.1573260e-05 2.0609210e-05 
2.1488171e-05 1.1824136e-04 2.5824733e-05 
1.6589875e-05 1.7139794e-04 4.9797938e-05 
1.9674146e-05 2.2410025e-04 5.6776640e-05 
3.9395767e-05 2.4515399e-04 5.9896553e-05 
5.2195093e-05 2.1875433e-04 8.6676635e-05 
2.6140910e-05 1.5860636e-04 1.1112904e-04 
1.0856411e-05 8.5877415e-05 1.2943655e-04 
-2.7432889e-05 -1.9793564e-05 1.7819468e-04 
-5.2697054e-05 -2.3952019e-04 1.5895561e-04 
-8.7389315e-05 -6.9994444e-04 2.4271096e-04 
-1.1712452e-04 -1.5103637e-03 1.8376080e-04 
-1.4862468e-04 -2.6611916e-03 2.8373295e-04 
-2.0537796e-04 -3.9159302e-03 1.2409939e-04 
-2.6511966e-04 -4.8562721e-03 1.8655925e-04 
-3.0034425e-04 -5.0014989e-03 2.6167412e-05 
-2.9099931e-04 -4.7498462e-03 -3.6234273e-05 
-2.7987166e-04 -4.6099690e-03 -7.3757299e-05 
-2.3188142e-04 -4.7311047e-03 -6.9224450e-05 
-2.4733570e-04 -4.7238721e-03 -1.2781666e-04 
-2.3352522e-04 -4.0994664e-03 -1.8947740e-04 
-2.0125409e-04 -3.0223660e-03 -1.1661352e-04 
-1.6905075e-04 -1.9494661e-03 -2.1010639e-04 
-1.2184351e-04 -1.0884388e-03 -1.2003695e-04 
-9.4900148e-05 -5.0214521e-04 -1.5549311e-04 
-7.6172197e-05 -1.7179117e-04 -1.0496726e-04 
-5.4276308e-05 -4.2714659e-05 -9.5261181e-05 
-4.4015913e-05 -3.7885184e-05 -7.2398027e-05 
-3.7679954e-05 -8.0232945e-05 -6.2081432e-05 
-3.8885591e-05 -1.1945693e-04 -6.8342051e-05 
-2.5558198e-05 -1.3758150e-04 -5.9489666e-05 
-3.2506403e-05 -1.4462996e-04 -6.2110819e-05 
-2.8088818e-05 -1.5174939e-04 -5.0508766e-05 
-3.2530752e-05 -1.6081681e-04 -3.8550537e-05 
-3.7912119e-05 -1.5814803e-04 -4.6495745e-05 
-3.1269174e-05 -1.2640575e-04 -4.9241607e-05 
-1.1984574e-05 -6.3221749e-05 -5.8474987e-05 
2.6471996e-06 1.7519249e-05 -5.1437775e-05 
2.6381715e-05 9.0882459e-05 -3.7630427e-05 
2.9512512e-05 1.3538434e-04 -2.8930144e-06 
3.3133274e-05 1.4856490e-04 2.1175872e-05 
1.6209564e-05 1.5318129e-04 4.6901783e-05 
5.2417899e-06 1.7423120e-04 5.2049156e-05 
9.0946778e-06 2.2531080e-04 5.0481452e-05 
2.0753783e-05 2.8311176e-04 4.2381689e-05 
3.6756090e-05 3.0686596e-04 3.1747189e-05 
3.1986012e-05 2.7563688e-04 3.0001465e-05 
2.8797383e-05 1.8576499e-04 7.4824042e-05 
1.3820868e-05 3.1118096e-05 1.4894652e-04 
-4.9251030e-06 -2.3425923e-04 1.7809347e-04 
-2.3952907e-05 -7.1915099e-04 2.8365132e-04 
-8.2312014e-05 -1.5374032e-03 1.9950366e-04 
-1.0017090e-04 -2.7241434e-03 2.6610142e-04 
3.4955588e-05 -4.0748166e-03 5.1199860e-04 
-1.7070814e-04 -5.0099506e-03 3.5239116e-04 
-2.2265351e-04 -5.0335308e-03 1.5173994e-04 
-2.6651952e-04 -4.7217156e-03 5.7086032e-05 
-1.9707454e-04 -4.6118833e-03 -1.7459348e-05 
-3.1018388e-04 -4.8593404e-03 -5.1969859e-05 
-2.9869057e-04 -4.9078530e-03 -1.0243027e-04 
-2.7928350e-04 -4.1556461e-03 -2.3846864e-04 
-2.1037212e-04 -2.9503657e-03 -2.1334953e-04 
-1.4115317e-04 -1.7711801e-03 -3.2606360e-04 
-8.1218692e-05 -8.3829055e-04 -2.1478538e-04 
-3.5817684e-05 -2.3233975e-04 -2.2231945e-04 
-1.1058025e-05 8.7296190e-05 -1.3137363e-04 
9.9694771e-06 2.0612222e-04 -9.6943339e-05 
1.7174003e-05 2.0954221e-04 -6.0367911e-05 
1.9192790e-05 1.5717643e-04 -2.0566906e-05 
7.8326339e-06 8.0726757e-05 -1.2663328e-05 
-4.8437510e-06 1.6172944e-06 -4.4276499e-06 
-8.6645759e-06 -5.9762024e-05 -1.1342513e-05 
-8.8235611e-06 -8.8140805e-05 -1.2038586e-05 
3.4614493e-06 -7.9521116e-05 -2.7410454e-07 
1.4589200e-05 -4.6669902e-05 1.6068961e-05 
1.2437429e-05 -8.8729357e-06 2.8453869e-05 
9.0988724e-06 1.9341258e-05 3.0275503e-05 
6.7246451e-06 3.5479126e-05 2.5069909e-05 
2.3348894e-06 4.2360407e-05 1.4824038e-05 
2.1241954e-06 4.3088170e-05 1.4909714e-05 
1.9920292e-06 3.8559971e-05 2.4824601e-05 
-2.4499989e-06 3.0068459e-05 3.4181186e-05 
-7.9875381e-06 2.0715341e-05 2.8691969e-05 
0.0000000e+00 -4.0799873e-06 0.0000000e+00 
0.0000000e+00 -8.4424628e-06 0.0000000e+00 
0.0000000e+00 -2.0981764e-05 0.0000000e+00 
0.0000000e+00 -4.0006133e-05 0.0000000e+00 
0.0000000e+00 -6.1886392e-05 0.0000000e+00 
0.0000000e+00 -8.0606442e-05 0.0000000e+00 
0.0000000e+00 -9.0054979e-05 0.0000000e+00 
0.0000000e+00 -8.9138710e-05 0.0000000e+00 
0.0000000e+00 -8.2876577e-05 0.0000000e+00 
0.0000000e+00 -7.5143078e-05 0.0000000e+00 
0.0000000e+00 -6.4377680e-05 0.0000000e+00 
0.0000000e+00 -4.5551649e-05 0.0000000e+00 
0.0000000e+00 -1.3939755e-05 0.0000000e+00 
0.0000000e+00 2.6654172e-05 0.0000000e+00 
0.0000000e+00 6.3562788e-05 0.0000000e+00 
0.0000000e+00 8.4519088e-05 0.0000000e+00 
0.0000000e+00 8.8695648e-05 0.0000000e+00 
0.0000000e+00 9.2490292e-05 0.0000000e+00 
0.0000000e+00 1.1973587e-04 0.0000000e+00 
0.0000000e+00 1.7216837e-04 0.0000000e+00 
0.0000000e+00 2.2389642e-04 0.0000000e+00 
0.0000000e+00 2.4377868e-04 0.0000000e+00 
0.0000000e+00 2.1808683e-04 0.0000000e+00 
0.0000000e+00 1.6019050e-04 0.0000000e+00 
0.0000000e+00 8.8696470e-05 0.0000000e+00 
0.0000000e+00 -1.7015684e-05 0.0000000e+00 
0.0000000e+00 -2.3932749e-04 0.0000000e+00 
0.0000000e+00 -7.0519978e-04 0.0000000e+00 
0.0000000e+00 -1.5220667e-03 0.0000000e+00 
0.0000000e+00 -2.6728760e-03 0.0000000e+00 
0.0000000e+00 -3.9361571e-03 0.0000000e+00 
0.0000000e+00 -4.8770187e-03 0.0000000e+00 
0.0000000e+00 -5.0317650e-03 0.0000000e+00 
0.0000000e+00 -4.7741225e-03 0.0000000e+00 
0.0000000e+00 -4.6383929e-03 0.0000000e+00 
0.0000000e+00 -4.7524082e-03 0.0000000e+00 
0.0000000e+00 -4.7523496e-03 0.0000000e+00 
0.0000000e+00 -4.1198931e-03 0.0000000e+00 
0.0000000e+00 -3.0394385e-03 0.0000000e+00 
0.0000000e+00 -1.9565518e-03 0.0000000e+00 
0.0000000e+00 -1.0924385e-03 0.0000000e+00 
0.0000000e+00 -5.0390355e-04 0.0000000e+00 
0.0000000e+00 -1.7249885e-04 0.0000000e+00 
0.0000000e+00 -4.2334428e-05 0.0000000e+00 
0.0000000e+00 -3.6481742e-05 0.0000000e+00 
0.0000000e+00 -7.8866891e-05 0.0000000e+00 
0.0000000e+00 -1.1836788e-04 0.0000000e+00 
0.0000000e+00 -1.3746726e-04 0.0000000e+00 
0.0000000e+00 -1.4485110e-04 0.0000000e+00 
0.0000000e+00 -1.5248742e-04 0.0000000e+00 
0.0000000e+00 -1.6127850e-04 0.0000000e+00 
0.0000000e+00 -1.5780982e-04 0.0000000e+00 
0.0000000e+00 -1.2579457e-04 0.0000000e+00 
0.0000000e+00 -6.2516418e-05 0.0000000e+00 
0.0000000e+00 1.7631533e-05 0.0000000e+00 
0.0000000e+00 9.0112349e-05 0.0000000e+00 
0.0000000e+00 1.3401944e-04 0.0000000e+00 
0.0000000e+00 1.4791185e-04 0.0000000e+00 
0.0000000e+00 1.5328049e-04 0.0000000e+00 
0.0000000e+00 1.7619277e-04 0.0000000e+00 
0.0000000e+00 2.2688528e-04 0.0000000e+00 
0.0000000e+00 2.8283606e-04 0.0000000e+00 
0.0000000e+00 3.0610658e-04 0.0000000e+00 
0.0000000e+00 2.7518175e-04 0.0000000e+00 
0.0000000e+00 1.8720530e-04 0.0000000e+00 
0.0000000e+00 3.4138531e-05 0.0000000e+00 
0.0000000e+00 -2.3351940e-04 0.0000000e+00 
0.0000000e+00 -7.2196947e-04 0.0000000e+00 
0.0000000e+00 -1.5490226e-03 0.0000000e+00 
0.0000000e+00 -2.7438488e-03 0.0000000e+00 
0.0000000e+00 -4.0914179e-03 0.0000000e+00 
0.0000000e+00 -5.0341724e-03 0.0000000e+00 
0.0000000e+00 -5.0593419e-03 0.0000000e+00 
0.0000000e+00 -4.7425418e-03 0.0000000e+00 
0.0000000e+00 -4.6480428e-03 0.0000000e+00 
0.0000000e+00 -4.8822518e-03 0.0000000e+00 
0.0000000e+00 -4.9357298e-03 0.0000000e+00 
0.0000000e+00 -4.1730367e-03 0.0000000e+00 
0.0000000e+00 -2.9650384e-03 0.0000000e+00 
0.0000000e+00 -1.7788268e-03 0.0000000e+00 
0.0000000e+00 -8.4411138e-04 0.0000000e+00 
0.0000000e+00 -2.3399247e-04 0.0000000e+00 
0.0000000e+00 8.8022010e-05 0.0000000e+00 
0.0000000e+00 2.0764228e-04 0.0000000e+00 
0.0000000e+00 2.1072359e-04 0.0000000e+00 
0.0000000e+00 1.5750309e-04 0.0000000e+00 
0.0000000e+00 8.0891878e-05 0.0000000e+00 
0.0000000e+00 2.1185449e-06 0.0000000e+00 
0.0000000e+00 -5.9098886e-05 0.0000000e+00 
0.0000000e+00 -8.7452237e-05 0.0000000e+00 
0.0000000e+00 -7.9420432e-05 0.0000000e+00 
0.0000000e+00 -4.7010963e-05 0.0000000e+00 
0.0000000e+00 -9.4072693e-06 0.0000000e+00 
0.0000000e+00 1.9168310e-05 0.0000000e+00 
0.0000000e+00 3.5496771e-05 0.0000000e+00 
0.0000000e+00 4.2418193e-05 0.0000000e+00 
0.0000000e+00 4.3020478e-05 0.0000000e+00 
0.0000000e+00 3.8478804e-05 0.0000000e+00 
0.0000000e+00 2.9966986e-05 0.0000000e+00 
0.0000000e+00 2.0864243e-05 0.0000000e+00 
0.0000000e+00 1.6771100e-05 0.0000000e+00 
6.2397681e-05 -1.0957796e-04 8.7005510e-06 
-2.4547381e-04 -4.6413857e-03 1.6380417e-04 
0.0000000e+00 0.0000000e+00 0.0000000e+00 
0.0000000e+00 0.0000000e+00 0.0000000e+00 
0.0000000e+00 0.0000000e+00 0.0000000e+00 
0.0000000e+00 0.0000000e+00 0.0000000e+00 
0.0000000e+00 0.0000000e+00 0.0000000e+00 
0.0000000e+00 0.0000000e+00 0.0000000e+00 
0.0000000e+00 0.0000000e+00 0.0000000e+00 
0.0000000e+00 0.0000000e+00 0.0000000e+00 
0.0000000e+00 0.0000000e+00 0.0000000e+00 
0.0000000e+00 0.0000000e+00 0.0000000e+00 
0.0000000e+00 0.0000000e+00 0.0000000e+00 
0.0000000e+00 0.0000000e+00 0.0000000e+00 
0.0000000e+00 0.0000000e+00 0.0000000e+00 
0.0000000e+00 0.0000000e+00 0.0000000e+00 
0.0000000e+00 0.0000000e+00 0.0000000e+00 
0.0000000e+00 0.0000000e+00 0.0000000e+00 
0.0000000e+00 0.0000000e+00 0.0000000e+00 
0.0000000e+00 0.0000000e+00 0.0000000e+00 
0.0000000e+00 0.0000000e+00 0.0000000e+00 
0.0000000e+00 0.0000000e+00 0.0000000e+00 
0.0000000e+00 0.0000000e+00 0.0000000e+00 
0.0000000e+00 0.0000000e+00 0.0000000e+00 
0.0000000e+00 0.0000000e+00 0.0000000e+00 
0.0000000e+00 0.0000000e+00 0.0000000e+00 
0.0000000e+00 0.0000000e+00 0.0000000e+00 
0.0000000e+00 0.0000000e+00 0.0000000e+00 
0.0000000e+00 0.0000000e+00 0.0000000e+00 
0.0000000e+00 0.0000000e+00 0.0000000e+00 
0.0000000e+00 0.0000000e+00 0.0000000e+00 
0.0000000e+00 0.0000000e+00 0.0000000e+00 
0.0000000e+00 0.0000000e+00 0.0000000e+00 
0.0000000e+00 0.0000000e+00 0.0000000e+00 
0.0000000e+00 0.0000000e+00 0.0000000e+00 
0.0000000e+00 0.0000000e+00 0.0000000e+00 
0.0000000e+00 0.0000000e+00 0.0000000e+00 
0.0000000e+00 0.0000000e+00 0.0000000e+00 
0.0000000e+00 0.0000000e+00 0.0000000e+00 
0.0000000e+00 0.0000000e+00 0.0000000e+00 
0.0000000e+00 0.0000000e+00 0.0000000e+00 
0.0000000e+00 0.0000000e+00 0.0000000e+00 
0.0000000e+00 0.0000000e+00 0.0000000e+00 
0.0000000e+00 0.0000000e+00 0.0000000e+00 
0.0000000e+00 0.0000000e+00 0.0000000e+00 
0.0000000e+00 0.0000000e+00 0.0000000e+00 
0.0000000e+00 0.0000000e+00 0.0000000e+00 
0.0000000e+00 0.0000000e+00 0.0000000e+00 
0.0000000e+00 0.0000000e+00 0.0000000e+00 
0.0000000e+00 0.0000000e+00 0.0000000e+00 
0.0000000e+00 0.0000000e+00 0.0000000e+00 
0.0000000e+00 0.0000000e+00 0.0000000e+00 
0.0000000e+00 0.0000000e+00 0.0000000e+00 
0.0000000e+00 0.0000000e+00 0.0000000e+00 
0.0000000e+00 0.0000000e+00 0.0000000e+00 
0.0000000e+00 0.0000000e+00 0.0000000e+00 
0.0000000e+00 0.0000000e+00 0.0000000e+00 
0.0000000e+00 0.0000000e+00 0.0000000e+00 
0.0000000e+00 0.0000000e+00 0.0000000e+00 
0.0000000e+00 0.0000000e+00 0.0000000e+00 
0.0000000e+00 0.0000000e+00 0.0000000e+00 
0.0000000e+00 0.0000000e+00 0.0000000e+00 
0.0000000e+00 0.0000000e+00 0.0000000e+00 
0.0000000e+00 0.0000000e+00 0.0000000e+00 
0.0000000e+00 0.0000000e+00 0.0000000e+00 
0.0000000e+00 0.0000000e+00 0.0000000e+00 
0.0000000e+00 0.0000000e+00 0.0000000e+00 
0.0000000e+00 0.0000000e+00 0.0000000e+00 
0.0000000e+00 0.0000000e+00 0.0000000e+00 
0.0000000e+00 0.0000000e+00 0.0000000e+00 
0.0000000e+00 0.0000000e+00 0.0000000e+00 
0.0000000e+00 0.0000000e+00 0.0000000e+00 
0.0000000e+00 0.0000000e+00 0.0000000e+00 
0.0000000e+00 0.0000000e+00 0.0000000e+00 
0.0000000e+00 0.0000000e+00 0.0000000e+00 
0.0000000e+00 0.0000000e+00 0.0000000e+00 
0.0000000e+00 0.0000000e+00 0.0000000e+00 
0.0000000e+00 0.0000000e+00 0.0000000e+00 
0.0000000e+00 0.0000000e+00 0.0000000e+00 
0.0000000e+00 0.0000000e+00 0.0000000e+00 
0.0000000e+00 0.0000000e+00 0.0000000e+00 
0.0000000e+00 0.0000000e+00 0.0000000e+00 
0.0000000e+00 0.0000000e+00 0.0000000e+00 
0.0000000e+00 0.0000000e+00 0.0000000e+00 
0.0000000e+00 0.0000000e+00 0.0000000e+00 
0.0000000e+00 0.0000000e+00 0.0000000e+00 
0.0000000e+00 0.0000000e+00 0.0000000e+00 
0.0000000e+00 0.0000000e+00 0.0000000e+00 
0.0000000e+00 0.0000000e+00 0.0000000e+00 
0.0000000e+00 0.0000000e+00 0.0000000e+00 
0.0000000e+00 0.0000000e+00 0.0000000e+00 
0.0000000e+00 0.0000000e+00 0.0000000e+00 
0.0000000e+00 0.0000000e+00 0.0000000e+00 
0.0000000e+00 0.0000000e+00 0.0000000e+00 
0.0000000e+00 0.0000000e+00 0.0000000e+00 
0.0000000e+00 0.0000000e+00 0.0000000e+00 
0.0000000e+00 0.0000000e+00 0.0000000e+00 
0.0000000e+00 0.0000000e+00 0.0000000e+00 
0.0000000e+00 0.0000000e+00 0.0000000e+00 
0.0000000e+00 0.0000000e+00 0.0000000e+00 
0.0000000e+00 0.0000000e+00 0.0000000e+00 
0.0000000e+00 0.0000000e+00 0.0000000e+00 
0.0000000e+00 0.0000000e+00 0.0000000e+00 
0.0000000e+00 0.0000000e+00 0.0000000e+00 
0.0000000e+00 0.0000000e+00 0.0000000e+00 
0.0000000e+00 0.0000000e+00 0.0000000e+00 
0.0000000e+00 0.0000000e+00 0.0000000e+00 
0.0000000e+00 0.0000000e+00 0.0000000e+00 
1.2173358e-06 -1.5639488e-07 -9.0879649e-07 
1.1764319e-06 1.4827524e-06 1.8930820e-06 
-1.3897030e-06 -5.4593428e-08 1.4726530e-06 
-3.8563758e-07 1.5616988e-06 4.9847773e-07 
1.4094093e-07 -9.0233135e-07 4.2382117e-06 
-1.1401705e-06 3.8616131e-06 2.0405785e-06 
-2.6721455e-06 -2.4497515e-06 1.8249979e-06 
-2.0547993e-06 1.1328360e-07 4.1952203e-06 
-3.0327458e-06 3.3625217e-06 3.5930762e-07 
-5.2417448e-08 -4.4696744e-06 -4.3543187e-06 
3.9560305e-06 -3.0212468e-07 -8.1475655e-06 
1.4414182e-05 -4.2803813e-06 -1.4524075e-05 
2.1662310e-05 -1.2864954e-05 -1.6663485e-05 
3.4581633e-05 -1.5045969e-05 -1.7894929e-05 
4.8542483e-05 -1.5835127e-05 -1.1849389e-05 
5.2279731e-05 -1.5995347e-05 -6.3528828e-06 
4.6861755e-05 -1.2693042e-05 -2.4889857e-06 
4.4330031e-05 -1.1352009e-05 4.5007037e-06 
3.3891742e-05 -1.1045755e-05 5.5327259e-06 
2.2276907e-05 -2.3507787e-06 8.6998743e-06 
1.0542123e-05 -1.9354425e-06 7.8273470e-06 
3.1866623e-06 -1.7822455e-06 4.5401766e-06 
2.4709124e-07 -8.2785630e-07 3.5108269e-06 
5.2083561e-07 7.8096821e-07 -5.0266829e-07 
-1.4966581e-06 5.1360144e-06 4.1807425e-06 
-7.0228652e-06 5.5274663e-06 1.5399388e-05 
-7.2092384e-06 2.5963266e-07 1.1832182e-05 
-5.1087868e-06 -1.3971381e-06 5.6673903e-06 
-4.6011010e-06 4.6363889e-06 4.5445095e-06 
-4.2641128e-07 1.8784388e-06 8.0570078e-07 
1.9378735e-06 -8.9255363e-06 -5.2775326e-06 
1.2793192e-05 -4.8927950e-06 -5.9755034e-06 
2.8328206e-05 -1.2047313e-05 -1.1826028e-05 
4.0077673e-05 -1.4088236e-05 -1.1224914e-05 
5.2313117e-05 -1.9031017e-05 -7.5676689e-06 
5.7735397e-05 -1.5034091e-05 -3.5289042e-06 
5.2073414e-05 -1.0392312e-05 4.0997725e-06 
4.8349430e-05 -1.2130019e-05 8.4516096e-06 
3.4801767e-05 -1.0303398e-05 9.2409982e-06 
1.4769502e-05 -4.1729113e-06 7.0695687e-06 
7.6439574e-06 -3.6065701e-06 3.4622547e-06 
3.0158303e-06 7.3640666e-07 1.0490171e-06 
1.1579278e-06 6.8074166e-07 1.5714510e-06 
5.3774073e-07 -9.9769704e-07 3.2763626e-06 
1.4695745e-06 -1.2329073e-06 5.4507823e-06 
1.2797489e-06 -6.2621928e-07 5.5095215e-06 
6.5661823e-07 -3.1447462e-07 4.7656913e-06 
4.6931609e-07 -8.6197048e-07 2.3054829e-06 
2.5122915e-07 -9.3229391e-07 2.0661923e-07 
0.0000000e+00 1.3948391e-05 0.0000000e+00 
0.0000000e+00 2.7320766e-06 0.0000000e+00 
0.0000000e+00 1.2658807e-05 0.0000000e+00 
0.0000000e+00 3.0131261e-05 0.0000000e+00 
0.0000000e+00 3.4818611e-05 0.0000000e+00 
0.0000000e+00 5.9138281e-05 0.0000000e+00 
0.0000000e+00 8.5000029e-05 0.0000000e+00 
0.0000000e+00 5.1002287e-05 0.0000000e+00 
0.0000000e+00 4.9302624e-05 0.0000000e+00 
0.0000000e+00 4.6734058e-05 0.0000000e+00 
0.0000000e+00 -3.2663935e-05 0.0000000e+00 
0.0000000e+00 -3.7348098e-05 0.0000000e+00 
0.0000000e+00 -1.0568034e-04 0.0000000e+00 
0.0000000e+00 -2.6602356e-04 0.0000000e+00 
0.0000000e+00 -4.2929911e-04 0.0000000e+00 
0.0000000e+00 -5.0801941e-04 0.0000000e+00 
0.0000000e+00 -5.0792348e-04 0.0000000e+00 
0.0000000e+00 -4.3076283e-04 0.0000000e+00 
0.0000000e+00 -3.2121630e-04 0.0000000e+00 
0.0000000e+00 -1.7898173e-04 0.0000000e+00 
0.0000000e+00 -6.4538144e-05 0.0000000e+00 
0.0000000e+00 -4.4364060e-05 0.0000000e+00 
0.0000000e+00 -5.9192685e-06 0.0000000e+00 
0.0000000e+00 8.9047062e-06 0.0000000e+00 
0.0000000e+00 7.8493240e-06 0.0000000e+00 
0.0000000e+00 2.3158316e-05 0.0000000e+00 
0.0000000e+00 7.5582335e-05 0.0000000e+00 
0.0000000e+00 5.8910668e-05 0.0000000e+00 
0.0000000e+00 7.7719087e-05 0.0000000e+00 
0.0000000e+00 8.6551401e-05 0.0000000e+00 
0.0000000e+00 2.7345857e-05 0.0000000e+00 
0.0000000e+00 -2.5176088e-05 0.0000000e+00 
0.0000000e+00 -3.6902395e-05 0.0000000e+00 
0.0000000e+00 -2.6463260e-04 0.0000000e+00 
0.0000000e+00 -4.2789947e-04 0.0000000e+00 
0.0000000e+00 -5.0222722e-04 0.0000000e+00 
0.0000000e+00 -5.5703649e-04 0.0000000e+00 
0.0000000e+00 -5.2288448e-04 0.0000000e+00 
0.0000000e+00 -3.3132732e-04 0.0000000e+00 
0.0000000e+00 -1.5513101e-04 0.0000000e+00 
0.0000000e+00 -1.6646060e-05 0.0000000e+00 
0.0000000e+00 1.7933300e-05 0.0000000e+00 
0.0000000e+00 -6.1649087e-07 0.0000000e+00 
0.0000000e+00 -1.8813787e-05 0.0000000e+00 
0.0000000e+00 -1.5523830e-05 0.0000000e+00 
0.0000000e+00 4.9093564e-06 0.0000000e+00 
0.0000000e+00 1.6664284e-05 0.0000000e+00 
0.0000000e+00 1.4167738e-05 0.0000000e+00 
0.0000000e+00 3.8055691e-06 0.0000000e+00 
1.2649284e-06 -2.7292099e-08 -3.9814452e-07 
4.9513108e-07 3.0126075e-06 -1.2084687e-06 
-1.4231301e-07 7.4606537e-06 -1.4100143e-06 
-3.2567473e-06 1.6946497e-05 -4.1573021e-06 
-6.3603113e-07 7.7961055e-08 -7.9285974e-07 
-1.0059341e-06 3.8453814e-07 -2.0067553e-06 
-1.3114567e-07 -1.6481597e-06 -4.0784807e-06 
1.4774258e-06 -6.3387242e-06 -3.9483371e-06 
7.6596251e-07 1.7249532e-06 1.6367263e-06 
2.0882410e-06 7.3333172e-07 2.5616409e-06 
2.0088039e-06 -1.0379714e-07 -6.4506588e-07 
2.1639426e-06 4.7765479e-07 -2.8381535e-07 
4.7103836e-06 -2.1802234e-07 4.5632269e-06 
-1.2620511e-06 4.2519778e-06 2.3191451e-06 
4.6657576e-07 -3.6479789e-06 5.8672904e-06 
-1.5224189e-06 -1.4456232e-06 5.0151052e-06 
6.5414304e-07 2.5462673e-06 3.9037591e-06 
3.0470685e-06 -8.7861099e-06 -7.9370693e-06 
3.5924816e-06 2.8795864e-06 -1.3538021e-05 
1.3937363e-05 1.0715733e-07 -1.3338201e-05 
2.2319789e-05 -1.4381372e-05 -1.2732090e-05 
3.3606058e-05 -8.9629339e-06 -1.6934464e-05 
4.6073153e-05 -1.8065217e-05 -1.4608964e-05 
4.9703274e-05 -1.2006798e-05 -1.0633753e-05 
4.9013783e-05 -7.3022225e-06 -9.2328619e-06 
4.2324420e-05 -3.6160843e-06 -7.2855016e-07 
3.2953430e-05 -4.5120678e-06 6.6020511e-06 
2.1934407e-05 2.7406957e-06 7.9345800e-06 