# vtk DataFile Version 4.0
vtk output
ASCII
DATASET UNSTRUCTURED_GRID
POINTS 1919 float
0.0000000e+00 0.0000000e+00 0.0000000e+00 
0.0000000e+00 0.0000000e+00 5.0000000e+01 
5.0000000e+00 0.0000000e+00 0.0000000e+00 
5.0000000e+00 0.0000000e+00 5.0000000e+01 
5.0000000e+00 1.0000000e+00 0.0000000e+00 
5.0000000e+00 1.0000000e+00 5.0000000e+01 
0.0000000e+00 1.0000000e+00 0.0000000e+00 
0.0000000e+00 1.0000000e+00 5.0000000e+01 
5.0000000e+00 2.0000000e+00 0.0000000e+00 
5.0000000e+00 2.0000000e+00 5.0000000e+01 
3.0000000e+00 2.0000000e+00 0.0000000e+00 
3.0000000e+00 2.0000000e+00 5.0000000e+01 
0.0000000e+00 2.0000000e+00 0.0000000e+00 
0.0000000e+00 2.0000000e+00 5.0000000e+01 
1.5000000e+00 3.0000000e+00 0.0000000e+00 
1.5000000e+00 3.0000000e+00 5.0000000e+01 
7.5000000e-01 3.0000000e+00 0.0000000e+00 
7.5000000e-01 3.0000000e+00 5.0000000e+01 
0.0000000e+00 3.0000000e+00 0.0000000e+00 
0.0000000e+00 3.0000000e+00 5.0000000e+01 
7.5000000e-01 3.0000000e+00 5.0000000e-01 
7.5000000e-01 3.0000000e+00 1.0000000e+00 
7.5000000e-01 3.0000000e+00 1.5000000e+00 
7.5000000e-01 3.0000000e+00 2.0000000e+00 
7.5000000e-01 3.0000000e+00 2.5000000e+00 
7.5000000e-01 3.0000000e+00 3.0000000e+00 
7.5000000e-01 3.0000000e+00 3.5000000e+00 
7.5000000e-01 3.0000000e+00 4.0000000e+00 
7.5000000e-01 3.0000000e+00 4.5000000e+00 
7.5000000e-01 3.0000000e+00 5.0000000e+00 
7.5000000e-01 3.0000000e+00 5.5000000e+00 
7.5000000e-01 3.0000000e+00 6.0000000e+00 
7.5000000e-01 3.0000000e+00 6.5000000e+00 
7.5000000e-01 3.0000000e+00 7.0000000e+00 
7.5000000e-01 3.0000000e+00 7.5000000e+00 
7.5000000e-01 3.0000000e+00 8.0000000e+00 
7.5000000e-01 3.0000000e+00 8.5000000e+00 
7.5000000e-01 3.0000000e+00 9.0000000e+00 
7.5000000e-01 3.0000000e+00 9.5000000e+00 
7.5000000e-01 3.0000000e+00 1.0000000e+01 
7.5000000e-01 3.0000000e+00 1.0500000e+01 
7.5000000e-01 3.0000000e+00 1.1000000e+01 
7.5000000e-01 3.0000000e+00 1.1500000e+01 
7.5000000e-01 3.0000000e+00 1.2000000e+01 
7.5000000e-01 3.0000000e+00 1.2500000e+01 
7.5000000e-01 3.0000000e+00 1.3000000e+01 
7.5000000e-01 3.0000000e+00 1.3500000e+01 
7.5000000e-01 3.0000000e+00 1.4000000e+01 
7.5000000e-01 3.0000000e+00 1.4500000e+01 
7.5000000e-01 3.0000000e+00 1.5000000e+01 
7.5000000e-01 3.0000000e+00 1.5500000e+01 
7.5000000e-01 3.0000000e+00 1.6000000e+01 
7.5000000e-01 3.0000000e+00 1.6500000e+01 
7.5000000e-01 3.0000000e+00 1.7000000e+01 
7.5000000e-01 3.0000000e+00 1.7500000e+01 
7.5000000e-01 3.0000000e+00 1.8000000e+01 
7.5000000e-01 3.0000000e+00 1.8500000e+01 
7.5000000e-01 3.0000000e+00 1.9000000e+01 
7.5000000e-01 3.0000000e+00 1.9500000e+01 
7.5000000e-01 3.0000000e+00 2.0000000e+01 
7.5000000e-01 3.0000000e+00 2.0500000e+01 
7.5000000e-01 3.0000000e+00 2.1000000e+01 
7.5000000e-01 3.0000000e+00 2.1500000e+01 
7.5000000e-01 3.0000000e+00 2.2000000e+01 
7.5000000e-01 3.0000000e+00 2.2500000e+01 
7.5000000e-01 3.0000000e+00 2.3000000e+01 
7.5000000e-01 3.0000000e+00 2.3500000e+01 
7.5000000e-01 3.0000000e+00 2.4000000e+01 
7.5000000e-01 3.0000000e+00 2.4500000e+01 
7.5000000e-01 3.0000000e+00 2.5000000e+01 
7.5000000e-01 3.0000000e+00 2.5500000e+01 
7.5000000e-01 3.0000000e+00 2.6000000e+01 
7.5000000e-01 3.0000000e+00 2.6500000e+01 
7.5000000e-01 3.0000000e+00 2.7000000e+01 
7.5000000e-01 3.0000000e+00 2.7500000e+01 
7.5000000e-01 3.0000000e+00 2.8000000e+01 
7.5000000e-01 3.0000000e+00 2.8500000e+01 
7.5000000e-01 3.0000000e+00 2.9000000e+01 
7.5000000e-01 3.0000000e+00 2.9500000e+01 
7.5000000e-01 3.0000000e+00 3.0000000e+01 
7.5000000e-01 3.0000000e+00 3.0500000e+01 
7.5000000e-01 3.0000000e+00 3.1000000e+01 
7.5000000e-01 3.0000000e+00 3.1500000e+01 
7.5000000e-01 3.0000000e+00 3.2000000e+01 
7.5000000e-01 3.0000000e+00 3.2500000e+01 
7.5000000e-01 3.0000000e+00 3.3000000e+01 
7.5000000e-01 3.0000000e+00 3.3500000e+01 
7.5000000e-01 3.0000000e+00 3.4000000e+01 
7.5000000e-01 3.0000000e+00 3.4500000e+01 
7.5000000e-01 3.0000000e+00 3.5000000e+01 
7.5000000e-01 3.0000000e+00 3.5500000e+01 
7.5000000e-01 3.0000000e+00 3.6000000e+01 
7.5000000e-01 3.0000000e+00 3.6500000e+01 
7.5000000e-01 3.0000000e+00 3.7000000e+01 
7.5000000e-01 3.0000000e+00 3.7500000e+01 
7.5000000e-01 3.0000000e+00 3.8000000e+01 
7.5000000e-01 3.0000000e+00 3.8500000e+01 
7.5000000e-01 3.0000000e+00 3.9000000e+01 
7.5000000e-01 3.0000000e+00 3.9500000e+01 
7.5000000e-01 3.0000000e+00 4.0000000e+01 
7.5000000e-01 3.0000000e+00 4.0500000e+01 
7.5000000e-01 3.0000000e+00 4.1000000e+01 
7.5000000e-01 3.0000000e+00 4.1500000e+01 
7.5000000e-01 3.0000000e+00 4.2000000e+01 
7.5000000e-01 3.0000000e+00 4.2500000e+01 
7.5000000e-01 3.0000000e+00 4.3000000e+01 
7.5000000e-01 3.0000000e+00 4.3500000e+01 
7.5000000e-01 3.0000000e+00 4.4000000e+01 
7.5000000e-01 3.0000000e+00 4.4500000e+01 
7.5000000e-01 3.0000000e+00 4.5000000e+01 
7.5000000e-01 3.0000000e+00 4.5500000e+01 
7.5000000e-01 3.0000000e+00 4.6000000e+01 
7.5000000e-01 3.0000000e+00 4.6500000e+01 
7.5000000e-01 3.0000000e+00 4.7000000e+01 
7.5000000e-01 3.0000000e+00 4.7500000e+01 
7.5000000e-01 3.0000000e+00 4.8000000e+01 
7.5000000e-01 3.0000000e+00 4.8500000e+01 
7.5000000e-01 3.0000000e+00 4.9000000e+01 
7.5000000e-01 3.0000000e+00 4.9500000e+01 
7.5000000e-01 3.0250001e+00 0.0000000e+00 
7.5000000e-01 3.0250001e+00 5.0000000e-01 
7.5000000e-01 3.0250001e+00 1.0000000e+00 
7.5000000e-01 3.0250001e+00 1.5000000e+00 
7.5000000e-01 3.0250001e+00 2.0000000e+00 
7.5000000e-01 3.0250001e+00 2.5000000e+00 
7.5000000e-01 3.0250001e+00 3.0000000e+00 
7.5000000e-01 3.0250001e+00 3.5000000e+00 
7.5000000e-01 3.0250001e+00 4.0000000e+00 
7.5000000e-01 3.0250001e+00 4.5000000e+00 
7.5000000e-01 3.0250001e+00 5.0000000e+00 
7.5000000e-01 3.0250001e+00 5.5000000e+00 
7.5000000e-01 3.0250001e+00 6.0000000e+00 
7.5000000e-01 3.0250001e+00 6.5000000e+00 
7.5000000e-01 3.0250001e+00 7.0000000e+00 
7.5000000e-01 3.0250001e+00 7.5000000e+00 
7.5000000e-01 3.0250001e+00 8.0000000e+00 
7.5000000e-01 3.0250001e+00 8.5000000e+00 
7.5000000e-01 3.0250001e+00 9.0000000e+00 
7.5000000e-01 3.0250001e+00 9.5000000e+00 
7.5000000e-01 3.0250001e+00 1.0000000e+01 
7.5000000e-01 3.0250001e+00 1.0500000e+01 
7.5000000e-01 3.0250001e+00 1.1000000e+01 
7.5000000e-01 3.0250001e+00 1.1500000e+01 
7.5000000e-01 3.0250001e+00 1.2000000e+01 
7.5000000e-01 3.0250001e+00 1.2500000e+01 
7.5000000e-01 3.0250001e+00 1.3000000e+01 
7.5000000e-01 3.0250001e+00 1.3500000e+01 
7.5000000e-01 3.0250001e+00 1.4000000e+01 
7.5000000e-01 3.0250001e+00 1.4500000e+01 
7.5000000e-01 3.0250001e+00 1.5000000e+01 
7.5000000e-01 3.0250001e+00 1.5500000e+01 
7.5000000e-01 3.0250001e+00 1.6000000e+01 
7.5000000e-01 3.0250001e+00 1.6500000e+01 
7.5000000e-01 3.0250001e+00 1.7000000e+01 
7.5000000e-01 3.0250001e+00 1.7500000e+01 
7.5000000e-01 3.0250001e+00 1.8000000e+01 
7.5000000e-01 3.0250001e+00 1.8500000e+01 
7.5000000e-01 3.0250001e+00 1.9000000e+01 
7.5000000e-01 3.0250001e+00 1.9500000e+01 
7.5000000e-01 3.0250001e+00 2.0000000e+01 
7.5000000e-01 3.0250001e+00 2.0500000e+01 
7.5000000e-01 3.0250001e+00 2.1000000e+01 
7.5000000e-01 3.0250001e+00 2.1500000e+01 
7.5000000e-01 3.0250001e+00 2.2000000e+01 
7.5000000e-01 3.0250001e+00 2.2500000e+01 
7.5000000e-01 3.0250001e+00 2.3000000e+01 
7.5000000e-01 3.0250001e+00 2.3500000e+01 
7.5000000e-01 3.0250001e+00 2.4000000e+01 
7.5000000e-01 3.0250001e+00 2.4500000e+01 
7.5000000e-01 3.0250001e+00 2.5000000e+01 
7.5000000e-01 3.0250001e+00 2.5500000e+01 
7.5000000e-01 3.0250001e+00 2.6000000e+01 
7.5000000e-01 3.0250001e+00 2.6500000e+01 
7.5000000e-01 3.0250001e+00 2.7000000e+01 
7.5000000e-01 3.0250001e+00 2.7500000e+01 
7.5000000e-01 3.0250001e+00 2.8000000e+01 
7.5000000e-01 3.0250001e+00 2.8500000e+01 
7.5000000e-01 3.0250001e+00 2.9000000e+01 
7.5000000e-01 3.0250001e+00 2.9500000e+01 
7.5000000e-01 3.0250001e+00 3.0000000e+01 
7.5000000e-01 3.0250001e+00 3.0500000e+01 
7.5000000e-01 3.0250001e+00 3.1000000e+01 
7.5000000e-01 3.0250001e+00 3.1500000e+01 
7.5000000e-01 3.0250001e+00 3.2000000e+01 
7.5000000e-01 3.0250001e+00 3.2500000e+01 
7.5000000e-01 3.0250001e+00 3.3000000e+01 
7.5000000e-01 3.0250001e+00 3.3500000e+01 
7.5000000e-01 3.0250001e+00 3.4000000e+01 
7.5000000e-01 3.0250001e+00 3.4500000e+01 
7.5000000e-01 3.0250001e+00 3.5000000e+01 
7.5000000e-01 3.0250001e+00 3.5500000e+01 
7.5000000e-01 3.0250001e+00 3.6000000e+01 
7.5000000e-01 3.0250001e+00 3.6500000e+01 
7.5000000e-01 3.0250001e+00 3.7000000e+01 
7.5000000e-01 3.0250001e+00 3.7500000e+01 
7.5000000e-01 3.0250001e+00 3.8000000e+01 
7.5000000e-01 3.0250001e+00 3.8500000e+01 
7.5000000e-01 3.0250001e+00 3.9000000e+01 
7.5000000e-01 3.0250001e+00 3.9500000e+01 
7.5000000e-01 3.0250001e+00 4.0000000e+01 
7.5000000e-01 3.0250001e+00 4.0500000e+01 
7.5000000e-01 3.0250001e+00 4.1000000e+01 
7.5000000e-01 3.0250001e+00 4.1500000e+01 
7.5000000e-01 3.0250001e+00 4.2000000e+01 
7.5000000e-01 3.0250001e+00 4.2500000e+01 
7.5000000e-01 3.0250001e+00 4.3000000e+01 
7.5000000e-01 3.0250001e+00 4.3500000e+01 
7.5000000e-01 3.0250001e+00 4.4000000e+01 
7.5000000e-01 3.0250001e+00 4.4500000e+01 
7.5000000e-01 3.0250001e+00 4.5000000e+01 
7.5000000e-01 3.0250001e+00 4.5500000e+01 
7.5000000e-01 3.0250001e+00 4.6000000e+01 
7.5000000e-01 3.0250001e+00 4.6500000e+01 
7.5000000e-01 3.0250001e+00 4.7000000e+01 
7.5000000e-01 3.0250001e+00 4.7500000e+01 
7.5000000e-01 3.0250001e+00 4.8000000e+01 
7.5000000e-01 3.0250001e+00 4.8500000e+01 
7.5000000e-01 3.0250001e+00 4.9000000e+01 
7.5000000e-01 3.0250001e+00 4.9500000e+01 
7.5000000e-01 3.0250001e+00 5.0000000e+01 
3.0000000e+00 2.0000000e+00 3.6000000e+01 
8.0487806e-01 3.0000000e+00 3.6000000e+01 
0.0000000e+00 0.0000000e+00 1.0000000e+00 
0.0000000e+00 0.0000000e+00 2.0000000e+00 
0.0000000e+00 0.0000000e+00 3.0000000e+00 
0.0000000e+00 0.0000000e+00 4.0000000e+00 
0.0000000e+00 0.0000000e+00 5.0000000e+00 
0.0000000e+00 0.0000000e+00 6.0000000e+00 
0.0000000e+00 0.0000000e+00 7.0000000e+00 
0.0000000e+00 0.0000000e+00 8.0000000e+00 
[...]
POINT_DATA 1919
FIELD FieldData 3
DISPLACEMENT 3 1919  float
0.0000000e+00 0.0000000e+00 0.0000000e+00 
0.0000000e+00 0.0000000e+00 0.0000000e+00 
0.0000000e+00 0.0000000e+00 0.0000000e+00 
0.0000000e+00 0.0000000e+00 0.0000000e+00 
6.5490487e-05 -5.7454677e-06 1.3324377e-05 
6.3803074e-11 1.0365207e-10 3.1067898e-11 
0.0000000e+00 -2.8361045e-04 0.0000000e+00 
0.0000000e+00 7.0394939e-09 0.0000000e+00 
-2.5302063e-05 2.5245945e-06 5.2818297e-05 
1.8519664e-10 2.4481391e-11 2.3154678e-10 
1.3202253e-05 -9.0166010e-05 -1.5320194e-04 
5.7147537e-10 8.6795987e-11 1.2002218e-09 
0.0000000e+00 -4.8227201e-04 0.0000000e+00 
0.0000000e+00 -3.2583348e-08 0.0000000e+00 
-1.8677335e-04 -5.7297887e-04 -2.7456079e-04 
9.4701269e-09 -3.2009073e-08 -2.1887510e-09 
-1.5646758e-04 -2.5540966e-04 1.4410666e-04 
2.3318927e-10 2.0355827e-07 -6.6229893e-09 
0.0000000e+00 -7.7970186e-04 0.0000000e+00 
0.0000000e+00 -1.1817730e-07 0.0000000e+00 
7.6468306e-05 -5.0616573e-04 5.3437205e-05 
-1.1760360e-05 -1.1853088e-03 1.3841846e-04 
-7.2238050e-05 -2.1577000e-03 2.4248785e-04 
-1.9480797e-04 -3.2859538e-03 7.5383810e-05 
-3.3934732e-04 -4.3662931e-03 1.9975097e-04 
-2.1430239e-04 -4.9761808e-03 2.2833559e-05 
-3.5512476e-04 -5.0171865e-03 -7.6866410e-05 
-3.3845342e-04 -4.9382695e-03 9.6485537e-06 
-3.2345363e-04 -5.0790785e-03 -3.2912492e-05 
-3.2960746e-04 -5.2307830e-03 -1.4523660e-04 
-3.2288599e-04 -4.9395119e-03 -2.6050856e-04 
-2.7451021e-04 -3.8832701e-03 -2.2552630e-04 
-2.2688134e-04 -2.6291546e-03 -3.8669581e-04 
-1.3858688e-04 -1.5587348e-03 -3.2048352e-04 
-7.1981398e-05 -7.8585430e-04 -3.7567754e-04 
-1.0172028e-05 -2.6630439e-04 -2.0237386e-04 
1.3765663e-05 6.6425870e-05 -1.2291425e-04 
2.9851657e-05 2.5741148e-04 -1.5401218e-05 
2.6847614e-05 3.2455812e-04 4.4067048e-05 
1.5342306e-05 2.9569087e-04 4.3183314e-05 
9.0240947e-06 2.0620991e-04 3.9550625e-05 
2.5841739e-06 9.3462921e-05 2.4149236e-05 
2.8051024e-06 -3.8428202e-06 1.3226021e-05 
-2.1929347e-07 -6.3899861e-05 1.0678667e-05 
-6.6084172e-06 -8.1929233e-05 8.6847931e-06 
-1.0213584e-05 -6.4728789e-05 3.2729708e-06 
-1.5148061e-05 -3.1811578e-05 1.9459637e-06 
-7.4240284e-06 -3.8000353e-06 -1.0459292e-05 
1.0720095e-06 1.6766351e-05 -3.4939698e-05 
1.7329625e-05 4.2663178e-05 -2.1043948e-05 
2.8986540e-05 9.0194735e-05 -3.3204629e-05 
3.7184480e-05 1.6646039e-04 -3.9612522e-05 
7.0798989e-05 2.5138567e-04 -3.2310196e-05 
7.5760974e-05 3.1125764e-04 -3.3753789e-05 
8.8531058e-05 3.3710076e-04 -5.1690540e-06 
8.8724839e-05 3.4519951e-04 -2.0668576e-05 
5.5322318e-05 3.5698502e-04 2.0943066e-06 
1.1316795e-04 3.7415346e-04 3.7098624e-05 
3.3568031e-05 3.3889437e-04 1.3937848e-04 
1.1126935e-04 1.3799904e-04 1.3917702e-04 
-1.3524548e-05 -3.4854386e-04 2.8276021e-04 
1.3317839e-05 -1.1817549e-03 2.4308043e-04 
-1.4756377e-04 -2.3272631e-03 4.1201612e-04 
-1.1738348e-04 -3.5803749e-03 2.7730025e-04 
-2.9809942e-04 -4.6268795e-03 3.4833871e-04 
-2.8680838e-04 -5.0412482e-03 1.7926085e-04 
-3.5260085e-04 -5.0187032e-03 4.1752661e-05 
-3.2325496e-04 -5.0187157e-03 -4.2114883e-05 
-3.1903622e-04 -5.2131619e-03 -1.0159368e-04 
-3.4986253e-04 -5.2658757e-03 -2.2763168e-04 
-3.4054078e-04 -4.7081099e-03 -3.2741087e-04 
-2.7171327e-04 -3.5549840e-03 -2.2956358e-04 
-2.2578750e-04 -2.3421601e-03 -3.8571388e-04 
-1.3787049e-04 -1.3291417e-03 -2.7430599e-04 
-6.6433335e-05 -5.9257797e-04 -3.2568321e-04 
2.8305808e-06 -1.0375296e-04 -1.9267331e-04 
2.6123538e-05 1.6811502e-04 -9.8225930e-05 
3.4986453e-05 2.7293133e-04 8.5046372e-07 
2.8056900e-05 2.7000456e-04 4.5652927e-05 
1.5221048e-05 2.1538045e-04 4.8096281e-05 
8.4824824e-06 1.4776744e-04 4.0235849e-05 
3.1271682e-06 8.3481660e-05 2.2355123e-05 
-6.1834976e-07 2.8672537e-05 1.3035246e-05 
-1.8716668e-06 -1.0504103e-05 -1.8548426e-06 
-3.1655343e-06 -2.6820289e-05 -4.1226726e-06 
-2.7722674e-06 -2.6027512e-05 -7.8114526e-06 
-8.5998136e-07 -1.9896159e-05 -4.6767332e-06 
3.1522779e-07 -1.5425176e-05 -6.0977260e-07 
5.8349285e-09 -1.2514121e-05 1.4375696e-07 
5.7005701e-07 -7.3196775e-06 1.5716543e-07 
1.2756452e-06 6.7288198e-07 4.1522932e-07 
4.7071259e-07 7.1140857e-06 3.2601184e-07 
3.0613089e-07 7.3128072e-06 1.9310769e-06 
5.2911162e-07 2.8672466e-06 -3.2243486e-07 
9.0775636e-09 -1.5056877e-06 -5.8917936e-07 
-3.2908872e-07 -3.3471331e-06 1.4738515e-08 
-5.5488385e-07 -2.5818260e-06 -6.1476072e-07 
-2.3313801e-08 -9.5424230e-07 3.9146374e-07 
2.9935615e-07 3.0644492e-07 2.0517166e-07 
2.3459883e-07 1.1562088e-06 -2.5383790e-07 
1.1321929e-07 1.6015671e-06 4.2671911e-07 
-6.1439657e-08 1.3140940e-06 -1.0374651e-07 
-1.2516838e-07 -3.1326794e-09 -2.7186306e-07 
-1.4352870e-08 -1.5674447e-06 2.1321331e-07 
2.3259007e-08 -1.9587665e-06 -1.6120619e-07 
-6.4577049e-10 -7.9284649e-07 -9.6994867e-08 
5.2041180e-08 1.0149820e-06 1.2132119e-07 
-3.5359442e-08 2.0092425e-06 1.3747512e-08 
7.0202276e-08 1.4626871e-06 4.5956369e-08 
9.7423403e-09 -6.1170972e-08 5.2531039e-08 
-1.9343618e-08 -1.1337745e-06 -8.7843148e-08 
-5.3051114e-08 -1.0422066e-06 2.7557753e-08 
6.4723378e-09 -1.4416098e-07 3.3710737e-08 
1.5072800e-08 6.2642539e-07 -2.5281595e-08 
2.5624411e-09 6.2168311e-07 1.8219708e-08 
6.0399925e-09 8.6816470e-08 1.6361152e-09 
-7.6021855e-09 -3.2847515e-07 -1.9849864e-08 
-6.3280177e-09 -2.9820308e-07 1.6076435e-09 
1.8911027e-10 2.0455690e-08 7.3595610e-09 
0.0000000e+00 -2.5989092e-04 0.0000000e+00 
0.0000000e+00 -5.0870050e-04 0.0000000e+00 
0.0000000e+00 -1.1854256e-03 0.0000000e+00 
0.0000000e+00 -2.1616996e-03 0.0000000e+00 
0.0000000e+00 -3.3027823e-03 0.0000000e+00 
0.0000000e+00 -4.3865363e-03 0.0000000e+00 
0.0000000e+00 -5.0120512e-03 0.0000000e+00 
0.0000000e+00 -5.0390614e-03 0.0000000e+00 
0.0000000e+00 -4.9652159e-03 0.0000000e+00 
0.0000000e+00 -5.0973347e-03 0.0000000e+00 
0.0000000e+00 -5.2606375e-03 0.0000000e+00 
0.0000000e+00 -4.9607563e-03 0.0000000e+00 
0.0000000e+00 -3.9080251e-03 0.0000000e+00 
0.0000000e+00 -2.6423063e-03 0.0000000e+00 
0.0000000e+00 -1.5645890e-03 0.0000000e+00 
0.0000000e+00 -7.8603730e-04 0.0000000e+00 
0.0000000e+00 -2.6564643e-04 0.0000000e+00 
0.0000000e+00 6.6947978e-05 0.0000000e+00 
0.0000000e+00 2.5658394e-04 0.0000000e+00 
0.0000000e+00 3.2465096e-04 0.0000000e+00 
0.0000000e+00 2.9652248e-04 0.0000000e+00 
0.0000000e+00 2.0666800e-04 0.0000000e+00 
0.0000000e+00 9.4180941e-05 0.0000000e+00 
0.0000000e+00 -3.5127778e-06 0.0000000e+00 
0.0000000e+00 -6.3877589e-05 0.0000000e+00 
0.0000000e+00 -8.1446917e-05 0.0000000e+00 
0.0000000e+00 -6.4425119e-05 0.0000000e+00 
0.0000000e+00 -3.2227930e-05 0.0000000e+00 
0.0000000e+00 -4.2127845e-06 0.0000000e+00 
0.0000000e+00 1.6242238e-05 0.0000000e+00 
0.0000000e+00 4.2436950e-05 0.0000000e+00 
0.0000000e+00 9.1388436e-05 0.0000000e+00 
0.0000000e+00 1.6761509e-04 0.0000000e+00 
0.0000000e+00 2.5088375e-04 0.0000000e+00 
0.0000000e+00 3.1043202e-04 0.0000000e+00 
0.0000000e+00 3.3661560e-04 0.0000000e+00 
0.0000000e+00 3.4566247e-04 0.0000000e+00 
0.0000000e+00 3.5950929e-04 0.0000000e+00 
0.0000000e+00 3.7699263e-04 0.0000000e+00 
0.0000000e+00 3.4028254e-04 0.0000000e+00 
0.0000000e+00 1.3636776e-04 0.0000000e+00 
0.0000000e+00 -3.5368439e-04 0.0000000e+00 
0.0000000e+00 -1.1918644e-03 0.0000000e+00 
0.0000000e+00 -2.3351265e-03 0.0000000e+00 
0.0000000e+00 -3.5982521e-03 0.0000000e+00 
0.0000000e+00 -4.6489290e-03 0.0000000e+00 
0.0000000e+00 -5.0741071e-03 0.0000000e+00 
0.0000000e+00 -5.0434843e-03 0.0000000e+00 
0.0000000e+00 -5.0452370e-03 0.0000000e+00 
0.0000000e+00 -5.2327067e-03 0.0000000e+00 
0.0000000e+00 -5.2946014e-03 0.0000000e+00 
0.0000000e+00 -4.7285324e-03 0.0000000e+00 
0.0000000e+00 -3.5768489e-03 0.0000000e+00 
0.0000000e+00 -2.3507799e-03 0.0000000e+00 
0.0000000e+00 -1.3337113e-03 0.0000000e+00 
0.0000000e+00 -5.9284281e-04 0.0000000e+00 
0.0000000e+00 -1.0472892e-04 0.0000000e+00 
0.0000000e+00 1.6789728e-04 0.0000000e+00 
0.0000000e+00 2.7361308e-04 0.0000000e+00 
0.0000000e+00 2.7108163e-04 0.0000000e+00 
0.0000000e+00 2.1631215e-04 0.0000000e+00 
0.0000000e+00 1.4812361e-04 0.0000000e+00 
0.0000000e+00 8.3559273e-05 0.0000000e+00 
0.0000000e+00 2.8772090e-05 0.0000000e+00 
0.0000000e+00 -9.8213213e-06 0.0000000e+00 
0.0000000e+00 -2.6620526e-05 0.0000000e+00 
0.0000000e+00 -2.6416516e-05 0.0000000e+00 
0.0000000e+00 -2.0251668e-05 0.0000000e+00 
0.0000000e+00 -1.5489975e-05 0.0000000e+00 
0.0000000e+00 -1.2301885e-05 0.0000000e+00 
0.0000000e+00 -7.1537534e-06 0.0000000e+00 
0.0000000e+00 5.7510914e-07 0.0000000e+00 
0.0000000e+00 6.7946621e-06 0.0000000e+00 
0.0000000e+00 7.2283501e-06 0.0000000e+00 
0.0000000e+00 3.0470019e-06 0.0000000e+00 
0.0000000e+00 -1.3923684e-06 0.0000000e+00 
0.0000000e+00 -3.3106151e-06 0.0000000e+00 
0.0000000e+00 -2.6355624e-06 0.0000000e+00 
0.0000000e+00 -9.9801719e-07 0.0000000e+00 
0.0000000e+00 3.2634375e-07 0.0000000e+00 
0.0000000e+00 1.1695735e-06 0.0000000e+00 
0.0000000e+00 1.5821905e-06 0.0000000e+00 
0.0000000e+00 1.2572629e-06 0.0000000e+00 
0.0000000e+00 -1.7990114e-08 0.0000000e+00 
0.0000000e+00 -1.4948737e-06 0.0000000e+00 
0.0000000e+00 -1.8956902e-06 0.0000000e+00 
0.0000000e+00 -7.9244484e-07 0.0000000e+00 
0.0000000e+00 9.6088058e-07 0.0000000e+00 
0.0000000e+00 1.9513075e-06 0.0000000e+00 
0.0000000e+00 1.4446894e-06 0.0000000e+00 
0.0000000e+00 -7.7383779e-09 0.0000000e+00 
0.0000000e+00 -1.0846733e-06 0.0000000e+00 
0.0000000e+00 -1.0329098e-06 0.0000000e+00 
0.0000000e+00 -1.6925866e-07 0.0000000e+00 
0.0000000e+00 5.8696344e-07 0.0000000e+00 
0.0000000e+00 6.1145380e-07 0.0000000e+00 
0.0000000e+00 1.0784003e-07 0.0000000e+00 
0.0000000e+00 -3.0715063e-07 0.0000000e+00 
0.0000000e+00 -2.8989578e-07 0.0000000e+00 
0.0000000e+00 1.2241753e-08 0.0000000e+00 
0.0000000e+00 1.9126726e-07 0.0000000e+00 
7.8770825e-07 6.8008399e-07 2.1986009e-06 
5.0005889e-07 1.0321127e-05 1.1013962e-06 
0.0000000e+00 0.0000000e+00 0.0000000e+00 
0.0000000e+00 0.0000000e+00 0.0000000e+00 
0.0000000e+00 0.0000000e+00 0.0000000e+00 
0.0000000e+00 0.0000000e+00 0.0000000e+00 
0.0000000e+00 0.0000000e+00 0.0000000e+00 
0.0000000e+00 0.0000000e+00 0.0000000e+00 
0.0000000e+00 0.0000000e+00 0.0000000e+00 
0.0000000e+00 0.0000000e+00 0.0000000e+00 
0.0000000e+00 0.0000000e+00 0.0000000e+00 
0.0000000e+00 0.0000000e+00 0.0000000e+00 
0.0000000e+00 0.0000000e+00 0.0000000e+00 
0.0000000e+00 0.0000000e+00 0.0000000e+00 
0.0000000e+00 0.0000000e+00 0.0000000e+00 
0.0000000e+00 0.0000000e+00 0.0000000e+00 
0.0000000e+00 0.0000000e+00 0.0000000e+00 
0.0000000e+00 0.0000000e+00 0.0000000e+00 
0.0000000e+00 0.0000000e+00 0.0000000e+00 
0.0000000e+00 0.0000000e+00 0.0000000e+00 
0.0000000e+00 0.0000000e+00 0.0000000e+00 
0.0000000e+00 0.0000000e+00 0.0000000e+00 
0.0000000e+00 0.0000000e+00 0.0000000e+00 
0.0000000e+00 0.0000000e+00 0.0000000e+00 
0.0000000e+00 0.0000000e+00 0.0000000e+00 
0.0000000e+00 0.0000000e+00 0.0000000e+00 
0.0000000e+00 0.0000000e+00 0.0000000e+00 
0.0000000e+00 0.0000000e+00 0.0000000e+00 
0.0000000e+00 0.0000000e+00 0.0000000e+00 
0.0000000e+00 0.0000000e+00 0.0000000e+00 
0.0000000e+00 0.0000000e+00 0.0000000e+00 
0.0000000e+00 0.0000000e+00 0.0000000e+00 
0.0000000e+00 0.0000000e+00 0.0000000e+00 
0.0000000e+00 0.0000000e+00 0.0000000e+00 
0.0000000e+00 0.0000000e+00 0.0000000e+00 
0.0000000e+00 0.0000000e+00 0.0000000e+00 
0.0000000e+00 0.0000000e+00 0.0000000e+00 
0.0000000e+00 0.0000000e+00 0.0000000e+00 
0.0000000e+00 0.0000000e+00 0.0000000e+00 
0.0000000e+00 0.0000000e+00 0.0000000e+00 
0.0000000e+00 0.0000000e+00 0.0000000e+00 
0.0000000e+00 0.0000000e+00 0.0000000e+00 
0.0000000e+00 0.0000000e+00 0.0000000e+00 
0.0000000e+00 0.0000000e+00 0.0000000e+00 
0.0000000e+00 0.0000000e+00 0.0000000e+00 
0.0000000e+00 0.0000000e+00 0.0000000e+00 
0.0000000e+00 0.0000000e+00 0.0000000e+00 
0.0000000e+00 0.0000000e+00 0.0000000e+00 
0.0000000e+00 0.0000000e+00 0.0000000e+00 
0.0000000e+00 0.0000000e+00 0.0000000e+00 
0.0000000e+00 0.0000000e+00 0.0000000e+00 
0.0000000e+00 0.0000000e+00 0.0000000e+00 
0.0000000e+00 0.0000000e+00 0.0000000e+00 
0.0000000e+00 0.0000000e+00 0.0000000e+00 
0.0000000e+00 0.0000000e+00 0.0000000e+00 
0.0000000e+00 0.0000000e+00 0.0000000e+00 
0.0000000e+00 0.0000000e+00 0.0000000e+00 
0.0000000e+00 0.0000000e+00 0.0000000e+00 
0.0000000e+00 0.0000000e+00 0.0000000e+00 
0.0000000e+00 0.0000000e+00 0.0000000e+00 
0.0000000e+00 0.0000000e+00 0.0000000e+00 
0.0000000e+00 0.0000000e+00 0.0000000e+00 
0.0000000e+00 0.0000000e+00 0.0000000e+00 
0.0000000e+00 0.0000000e+00 0.0000000e+00 
0.0000000e+00 0.0000000e+00 0.0000000e+00 
0.0000000e+00 0.0000000e+00 0.0000000e+00 
0.0000000e+00 0.0000000e+00 0.0000000e+00 
0.0000000e+00 0.0000000e+00 0.0000000e+00 
0.0000000e+00 0.0000000e+00 0.0000000e+00 
0.0000000e+00 0.0000000e+00 0.0000000e+00 
0.0000000e+00 0.0000000e+00 0.0000000e+00 
0.0000000e+00 0.0000000e+00 0.0000000e+00 
0.0000000e+00 0.0000000e+00 0.0000000e+00 
0.0000000e+00 0.0000000e+00 0.0000000e+00 
0.0000000e+00 0.0000000e+00 0.0000000e+00 
0.0000000e+00 0.0000000e+00 0.0000000e+00 
0.0000000e+00 0.0000000e+00 0.0000000e+00 
0.0000000e+00 0.0000000e+00 0.0000000e+00 
0.0000000e+00 0.0000000e+00 0.0000000e+00 
0.0000000e+00 0.0000000e+00 0.0000000e+00 
0.0000000e+00 0.0000000e+00 0.0000000e+00 
0.0000000e+00 0.0000000e+00 0.0000000e+00 
0.0000000e+00 0.0000000e+00 0.0000000e+00 
0.0000000e+00 0.0000000e+00 0.0000000e+00 
0.0000000e+00 0.0000000e+00 0.0000000e+00 
0.0000000e+00 0.0000000e+00 0.0000000e+00 
0.0000000e+00 0.0000000e+00 0.0000000e+00 
0.0000000e+00 0.0000000e+00 0.0000000e+00 
0.0000000e+00 0.0000000e+00 0.0000000e+00 
0.0000000e+00 0.0000000e+00 0.0000000e+00 
0.0000000e+00 0.0000000e+00 0.0000000e+00 
0.0000000e+00 0.0000000e+00 0.0000000e+00 
0.0000000e+00 0.0000000e+00 0.0000000e+00 
0.0000000e+00 0.0000000e+00 0.0000000e+00 
0.0000000e+00 0.0000000e+00 0.0000000e+00 
0.0000000e+00 0.0000000e+00 0.0000000e+00 
0.0000000e+00 0.0000000e+00 0.0000000e+00 
0.0000000e+00 0.0000000e+00 0.0000000e+00 
0.0000000e+00 0.0000000e+00 0.0000000e+00 
0.0000000e+00 0.0000000e+00 0.0000000e+00 
0.0000000e+00 0.0000000e+00 0.0000000e+00 
0.0000000e+00 0.0000000e+00 0.0000000e+00 
0.0000000e+00 0.0000000e+00 0.0000000e+00 
0.0000000e+00 0.0000000e+00 0.0000000e+00 
0.0000000e+00 0.0000000e+00 0.0000000e+00 
0.0000000e+00 0.0000000e+00 0.0000000e+00 
0.0000000e+00 0.0000000e+00 0.0000000e+00 
0.0000000e+00 0.0000000e+00 0.0000000e+00 
9.2258333e-06 -5.0585215e-05 -1.0336568e-05 
3.8271146e-06 -6.7941801e-05 -2.1990998e-05 
6.4592523e-06 -6.8037596e-05 -2.1663041e-05 
2.0910235e-05 -6.4088046e-05 -2.0922513e-05 
4.1272411e-05 -1.4803917e-05 -7.6662473e-06 
4.3785192e-05 -3.8847052e-06 1.6092223e-05 
3.6603047e-05 4.0195609e-06 3.0530773e-05 
2.0494112e-05 5.1048328e-06 3.5324523e-05 
1.2087835e-05 -3.0322692e-06 2.1223634e-05 
2.8211630e-06 -5.2816163e-06 7.5746311e-06 
8.3109143e-07 -5.1933789e-06 -2.3470043e-06 
6.5209213e-07 4.8882648e-06 -2.5825152e-06 
-2.4681272e-08 1.6982799e-06 -2.6500268e-06 
-1.8294522e-06 -6.4299802e-06 -1.2788129e-06 
-3.3542917e-06 4.9849773e-06 6.0871133e-07 
-4.0253649e-06 5.9127874e-06 1.5089518e-06 
-4.1211028e-06 1.4251749e-06 3.0164474e-06 
-1.3851235e-05 -2.6526243e-06 -3.8246039e-06 
-1.5993974e-05 -1.3790042e-05 -9.7183693e-06 
-2.5597701e-05 -5.3675081e-05 -2.2952700e-05 
-2.1031175e-05 -5.6195830e-05 -2.8955134e-05 
-6.9526089e-07 -6.5228662e-05 -3.0837426e-05 
3.1192300e-05 -5.3766034e-05 -2.2713533e-05 
4.1344527e-05 -3.6907950e-05 -9.2954760e-06 
4.3512973e-05 -1.2519286e-05 1.0324771e-05 
4.7093698e-05 3.8530280e-07 2.7676861e-05 
3.2570544e-05 6.0535799e-06 3.6015223e-05 
1.9991399e-05 -1.8923186e-07 3.1390526e-05 
8.3663508e-06 -2.8029363e-06 1.5538953e-05 
9.9037129e-07 -4.7166723e-06 4.2019269e-06 
-4.1106640e-07 -2.9989214e-06 -3.9681476e-07 
3.8229186e-07 2.8117954e-06 -2.1483397e-07 
-3.0129306e-07 1.8689209e-06 8.9362850e-08 
4.4935064e-08 -1.2572970e-06 2.9340953e-07 
3.5956722e-07 -1.0638861e-06 -2.3983105e-08 
-2.0289669e-08 5.0669462e-07 -2.5596705e-07 
1.3382014e-07 2.1855463e-07 1.8187090e-07 
2.2551950e-08 -1.6451779e-07 4.6410861e-08 
3.1601523e-08 -9.1775028e-08 3.8263025e-08 
-3.1484866e-08 1.6323013e-07 -3.4435413e-08 
7.4458595e-10 -2.4008637e-08 1.6964947e-08 
9.7596695e-09 -3.4780498e-08 -2.0877791e-09 
-1.2267618e-09 3.0212295e-08 5.4809646e-09 
-2.5314402e-09 -2.2787212e-09 4.0959640e-09 
4.4510254e-10 -7.5485200e-09 -1.1438209e-09 
-7.1563327e-10 1.5144689e-09 -5.6338012e-10 
3.4287867e-10 1.2617140e-09 3.2824157e-10 
9.7242575e-11 -5.4784249e-10 -1.1531867e-11 
-1.1803588e-11 -3.4672508e-11 3.6877598e-11 
0.0000000e+00 -8.9488982e-05 0.0000000e+00 
0.0000000e+00 -1.8044058e-04 0.0000000e+00 
0.0000000e+00 -4.4996364e-04 0.0000000e+00 
0.0000000e+00 -6.2040804e-04 0.0000000e+00 
0.0000000e+00 -6.1814953e-04 0.0000000e+00 
0.0000000e+00 -5.0875614e-04 0.0000000e+00 
0.0000000e+00 -2.8916338e-04 0.0000000e+00 
0.0000000e+00 -7.3861425e-05 0.0000000e+00 
0.0000000e+00 8.9572222e-06 0.0000000e+00 
0.0000000e+00 5.4300286e-05 0.0000000e+00 
0.0000000e+00 3.3112923e-05 0.0000000e+00 
0.0000000e+00 -6.0789348e-06 0.0000000e+00 
0.0000000e+00 -3.4499233e-06 0.0000000e+00 
0.0000000e+00 -5.2820533e-06 0.0000000e+00 
0.0000000e+00 -4.6016921e-05 0.0000000e+00 
0.0000000e+00 2.3332057e-05 0.0000000e+00 
0.0000000e+00 4.7217167e-05 0.0000000e+00 
0.0000000e+00 1.0088804e-04 0.0000000e+00 
0.0000000e+00 2.0488448e-04 0.0000000e+00 
0.0000000e+00 2.0843894e-04 0.0000000e+00 
0.0000000e+00 7.7582488e-05 0.0000000e+00 
0.0000000e+00 -1.5934126e-04 0.0000000e+00 
0.0000000e+00 -4.4398115e-04 0.0000000e+00 
0.0000000e+00 -5.6145445e-04 0.0000000e+00 
0.0000000e+00 -5.9495779e-04 0.0000000e+00 
0.0000000e+00 -5.0362450e-04 0.0000000e+00 
0.0000000e+00 -2.7436722e-04 0.0000000e+00 
0.0000000e+00 -7.2097653e-05 0.0000000e+00 
0.0000000e+00 3.9916231e-05 0.0000000e+00 
0.0000000e+00 4.7411635e-05 0.0000000e+00 
0.0000000e+00 1.4235675e-05 0.0000000e+00 
0.0000000e+00 7.4538855e-07 0.0000000e+00 
0.0000000e+00 -6.3334687e-06 0.0000000e+00 
0.0000000e+00 -2.5228730e-06 0.0000000e+00 
0.0000000e+00 -1.3470046e-07 0.0000000e+00 
0.0000000e+00 7.2888423e-07 0.0000000e+00 
0.0000000e+00 7.6995559e-07 0.0000000e+00 
0.0000000e+00 1.5916525e-07 0.0000000e+00 
0.0000000e+00 -3.8124347e-07 0.0000000e+00 
0.0000000e+00 -1.0463986e-06 0.0000000e+00 
0.0000000e+00 1.0615227e-06 0.0000000e+00 
0.0000000e+00 3.1270648e-07 0.0000000e+00 
0.0000000e+00 -5.0265129e-07 0.0000000e+00 
0.0000000e+00 2.3059352e-09 0.0000000e+00 
0.0000000e+00 1.3573657e-07 0.0000000e+00 
0.0000000e+00 -1.3392605e-07 0.0000000e+00 
0.0000000e+00 -3.6736967e-08 0.0000000e+00 
0.0000000e+00 5.8473248e-08 0.0000000e+00 
0.0000000e+00 -2.5413199e-08 0.0000000e+00 
4.1657633e-05 -1.0729431e-04 -4.2454452e-05 
6.3324405e-05 -9.3298018e-05 -6.8137728e-05 
8.6319335e-05 -1.4289221e-04 -9.0721165e-05 
4.8217953e-05 -2.7019280e-04 -1.2148730e-04 
-1.9890162e-11 -3.9167783e-10 3.9948819e-11 
-6.3007732e-10 -1.1689853e-10 -1.0220630e-09 
8.4447083e-10 -1.7916723e-09 3.2602128e-09 
-1.3748459e-10 4.7142148e-09 1.5955039e-11 
-4.9523263e-05 -6.3836473e-05 1.2740165e-05 
-6.9409492e-05 -9.4852250e-05 -8.0297104e-06 
-8.0359750e-05 -1.0010484e-04 -1.0301896e-05 
-8.2186198e-05 -1.0278161e-04 -3.8623191e-05 
-4.3858552e-05 -4.1113537e-05 -5.7452486e-05 
-2.4549959e-06 -1.2376923e-05 -2.4993053e-05 
2.0873276e-05 1.6999571e-05 1.7717590e-05 
3.1798198e-05 1.2994652e-05 4.2467542e-05 
2.4011661e-05 2.4689116e-06 3.4246081e-05 
9.4317656e-06 -5.5955675e-06 1.1622365e-05 
2.7370663e-07 -4.9464024e-06 -8.8529150e-06 
-3.3081596e-06 6.5423083e-06 -6.4579299e-06 
-2.1513954e-06 -1.3261138e-06 1.2325750e-06 
2.8479926e-06 -7.9038264e-06 -2.2891006e-06 
-4.6234470e-07 6.9410421e-06 4.3831710e-06 
-8.3486702e-06 1.1218634e-05 1.1697928e-05 
-2.2568374e-05 -8.1053969e-07 6.9918242e-06 
-3.9737362e-05 -1.3207251e-05 5.6081626e-06 
-6.0220482e-05 -2.8262852e-05 6.0116558e-06 
-7.5973410e-05 -8.1155522e-05 -9.4953239e-06 