# vtk DataFile Version 4.0
vtk output
ASCII
DATASET UNSTRUCTURED_GRID
POINTS 1919 float
0.0000000e+00 0.0000000e+00 0.0000000e+00 
0.0000000e+00 0.0000000e+00 5.0000000e+01 
5.0000000e+00 0.0000000e+00 0.0000000e+00 
5.0000000e+00 0.0000000e+00 5.0000000e+01 
5.0000000e+00 1.0000000e+00 0.0000000e+00 
5.0000000e+00 1.0000000e+00 5.0000000e+01 
0.0000000e+00 1.0000000e+00 0.0000000e+00 
0.0000000e+00 1.0000000e+00 5.0000000e+01 
5.0000000e+00 2.0000000e+00 0.0000000e+00 
5.0000000e+00 2.0000000e+00 5.0000000e+01 
3.0000000e+00 2.0000000e+00 0.0000000e+00 
3.0000000e+00 2.0000000e+00 5.0000000e+01 
0.0000000e+00 2.0000000e+00 0.0000000e+00 
0.0000000e+00 2.0000000e+00 5.0000000e+01 
1.5000000e+00 3.0000000e+00 0.0000000e+00 
1.5000000e+00 3.0000000e+00 5.0000000e+01 
7.5000000e-01 3.0000000e+00 0.0000000e+00 
7.5000000e-01 3.0000000e+00 5.0000000e+01 
0.0000000e+00 3.0000000e+00 0.0000000e+00 
0.0000000e+00 3.0000000e+00 5.0000000e+01 
7.5000000e-01 3.0000000e+00 5.0000000e-01 
7.5000000e-01 3.0000000e+00 1.0000000e+00 
7.5000000e-01 3.0000000e+00 1.5000000e+00 
7.5000000e-01 3.0000000e+00 2.0000000e+00 
7.5000000e-01 3.0000000e+00 2.5000000e+00 
7.5000000e-01 3.0000000e+00 3.0000000e+00 
7.5000000e-01 3.0000000e+00 3.5000000e+00 
7.5000000e-01 3.0000000e+00 4.0000000e+00 
7.5000000e-01 3.0000000e+00 4.5000000e+00 
7.5000000e-01 3.0000000e+00 5.0000000e+00 
7.5000000e-01 3.0000000e+00 5.5000000e+00 
7.5000000e-01 3.0000000e+00 6.0000000e+00 
7.5000000e-01 3.0000000e+00 6.5000000e+00 
7.5000000e-01 3.0000000e+00 7.0000000e+00 
7.5000000e-01 3.0000000e+00 7.5000000e+00 
7.5000000e-01 3.0000000e+00 8.0000000e+00 
7.5000000e-01 3.0000000e+00 8.5000000e+00 
7.5000000e-01 3.0000000e+00 9.0000000e+00 
7.5000000e-01 3.0000000e+00 9.5000000e+00 
7.5000000e-01 3.0000000e+00 1.0000000e+01 
7.5000000e-01 3.0000000e+00 1.0500000e+01 
7.5000000e-01 3.0000000e+00 1.1000000e+01 
7.5000000e-01 3.0000000e+00 1.1500000e+01 
7.5000000e-01 3.0000000e+00 1.2000000e+01 
7.5000000e-01 3.0000000e+00 1.2500000e+01 
7.5000000e-01 3.0000000e+00 1.3000000e+01 
7.5000000e-01 3.0000000e+00 1.3500000e+01 
7.5000000e-01 3.0000000e+00 1.4000000e+01 
7.5000000e-01 3.0000000e+00 1.4500000e+01 
7.5000000e-01 3.0000000e+00 1.5000000e+01 
7.5000000e-01 3.0000000e+00 1.5500000e+01 
7.5000000e-01 3.0000000e+00 1.6000000e+01 
7.5000000e-01 3.0000000e+00 1.6500000e+01 
7.5000000e-01 3.0000000e+00 1.7000000e+01 
7.5000000e-01 3.0000000e+00 1.7500000e+01 
7.5000000e-01 3.0000000e+00 1.8000000e+01 
7.5000000e-01 3.0000000e+00 1.8500000e+01 
7.5000000e-01 3.0000000e+00 1.9000000e+01 
7.5000000e-01 3.0000000e+00 1.9500000e+01 
7.5000000e-01 3.0000000e+00 2.0000000e+01 
7.5000000e-01 3.0000000e+00 2.0500000e+01 
7.5000000e-01 3.0000000e+00 2.1000000e+01 
7.5000000e-01 3.0000000e+00 2.1500000e+01 
7.5000000e-01 3.0000000e+00 2.2000000e+01 
7.5000000e-01 3.0000000e+00 2.2500000e+01 
7.5000000e-01 3.0000000e+00 2.3000000e+01 
7.5000000e-01 3.0000000e+00 2.3500000e+01 
7.5000000e-01 3.0000000e+00 2.4000000e+01 
7.5000000e-01 3.0000000e+00 2.4500000e+01 
7.5000000e-01 3.0000000e+00 2.5000000e+01 
7.5000000e-01 3.0000000e+00 2.5500000e+01 
7.5000000e-01 3.0000000e+00 2.6000000e+01 
7.5000000e-01 3.0000000e+00 2.6500000e+01 
7.5000000e-01 3.0000000e+00 2.7000000e+01 
7.5000000e-01 3.0000000e+00 2.7500000e+01 
7.5000000e-01 3.0000000e+00 2.8000000e+01 
7.5000000e-01 3.0000000e+00 2.8500000e+01 
7.5000000e-01 3.0000000e+00 2.9000000e+01 
7.5000000e-01 3.0000000e+00 2.9500000e+01 
7.5000000e-01 3.0000000e+00 3.0000000e+01 
7.5000000e-01 3.0000000e+00 3.0500000e+01 
7.5000000e-01 3.0000000e+00 3.1000000e+01 
7.5000000e-01 3.0000000e+00 3.1500000e+01 
7.5000000e-01 3.0000000e+00 3.2000000e+01 
7.5000000e-01 3.0000000e+00 3.2500000e+01 
7.5000000e-01 3.0000000e+00 3.3000000e+01 
7.5000000e-01 3.0000000e+00 3.3500000e+01 
7.5000000e-01 3.0000000e+00 3.4000000e+01 
7.5000000e-01 3.0000000e+00 3.4500000e+01 
7.5000000e-01 3.0000000e+00 3.5000000e+01 
7.5000000e-01 3.0000000e+00 3.5500000e+01 
7.5000000e-01 3.0000000e+00 3.6000000e+01 
7.5000000e-01 3.0000000e+00 3.6500000e+01 
7.5000000e-01 3.0000000e+00 3.7000000e+01 
7.5000000e-01 3.0000000e+00 3.7500000e+01 
7.5000000e-01 3.0000000e+00 3.8000000e+01 
7.5000000e-01 3.0000000e+00 3.8500000e+01 
7.5000000e-01 3.0000000e+00 3.9000000e+01 
7.5000000e-01 3.0000000e+00 3.9500000e+01 
7.5000000e-01 3.0000000e+00 4.0000000e+01 
7.5000000e-01 3.0000000e+00 4.0500000e+01 
7.5000000e-01 3.0000000e+00 4.1000000e+01 
7.5000000e-01 3.0000000e+00 4.1500000e+01 
7.5000000e-01 3.0000000e+00 4.2000000e+01 
7.5000000e-01 3.0000000e+00 4.2500000e+01 
7.5000000e-01 3.0000000e+00 4.3000000e+01 
7.5000000e-01 3.0000000e+00 4.3500000e+01 
7.5000000e-01 3.0000000e+00 4.4000000e+01 
7.5000000e-01 3.0000000e+00 4.4500000e+01 
7.5000000e-01 3.0000000e+00 4.5000000e+01 
7.5000000e-01 3.0000000e+00 4.5500000e+01 
7.5000000e-01 3.0000000e+00 4.6000000e+01 
7.5000000e-01 3.0000000e+00 4.6500000e+01 
7.5000000e-01 3.0000000e+00 4.7000000e+01 
7.5000000e-01 3.0000000e+00 4.7500000e+01 
7.5000000e-01 3.0000000e+00 4.8000000e+01 
7.5000000e-01 3.0000000e+00 4.8500000e+01 
7.5000000e-01 3.0000000e+00 4.9000000e+01 
7.5000000e-01 3.0000000e+00 4.9500000e+01 
7.5000000e-01 3.0250001e+00 0.0000000e+00 
7.5000000e-01 3.0250001e+00 5.0000000e-01 
7.5000000e-01 3.0250001e+00 1.0000000e+00 
7.5000000e-01 3.0250001e+00 1.5000000e+00 
7.5000000e-01 3.0250001e+00 2.0000000e+00 
7.5000000e-01 3.0250001e+00 2.5000000e+00 
7.5000000e-01 3.0250001e+00 3.0000000e+00 
7.5000000e-01 3.0250001e+00 3.5000000e+00 
7.5000000e-01 3.0250001e+00 4.0000000e+00 
7.5000000e-01 3.0250001e+00 4.5000000e+00 
7.5000000e-01 3.0250001e+00 5.0000000e+00 
7.5000000e-01 3.0250001e+00 5.5000000e+00 
7.5000000e-01 3.0250001e+00 6.0000000e+00 
7.5000000e-01 3.0250001e+00 6.5000000e+00 
7.5000000e-01 3.0250001e+00 7.0000000e+00 
7.5000000e-01 3.0250001e+00 7.5000000e+00 
7.5000000e-01 3.0250001e+00 8.0000000e+00 
7.5000000e-01 3.0250001e+00 8.5000000e+00 
7.5000000e-01 3.0250001e+00 9.0000000e+00 
7.5000000e-01 3.0250001e+00 9.5000000e+00 
7.5000000e-01 3.0250001e+00 1.0000000e+01 
7.5000000e-01 3.0250001e+00 1.0500000e+01 
7.5000000e-01 3.0250001e+00 1.1000000e+01 
7.5000000e-01 3.0250001e+00 1.1500000e+01 
7.5000000e-01 3.0250001e+00 1.2000000e+01 
7.5000000e-01 3.0250001e+00 1.2500000e+01 
7.5000000e-01 3.0250001e+00 1.3000000e+01 
7.5000000e-01 3.0250001e+00 1.3500000e+01 
7.5000000e-01 3.0250001e+00 1.4000000e+01 
7.5000000e-01 3.0250001e+00 1.4500000e+01 
7.5000000e-01 3.0250001e+00 1.5000000e+01 
7.5000000e-01 3.0250001e+00 1.5500000e+01 
7.5000000e-01 3.0250001e+00 1.6000000e+01 
7.5000000e-01 3.0250001e+00 1.6500000e+01 
7.5000000e-01 3.0250001e+00 1.7000000e+01 
7.5000000e-01 3.0250001e+00 1.7500000e+01 
7.5000000e-01 3.0250001e+00 1.8000000e+01 
7.5000000e-01 3.0250001e+00 1.8500000e+01 
7.5000000e-01 3.0250001e+00 1.9000000e+01 
7.5000000e-01 3.0250001e+00 1.9500000e+01 
7.5000000e-01 3.0250001e+00 2.0000000e+01 
7.5000000e-01 3.0250001e+00 2.0500000e+01 
7.5000000e-01 3.0250001e+00 2.1000000e+01 
7.5000000e-01 3.0250001e+00 2.1500000e+01 
7.5000000e-01 3.0250001e+00 2.2000000e+01 
7.5000000e-01 3.0250001e+00 2.2500000e+01 
7.5000000e-01 3.0250001e+00 2.3000000e+01 
7.5000000e-01 3.0250001e+00 2.3500000e+01 
7.5000000e-01 3.0250001e+00 2.4000000e+01 
7.5000000e-01 3.0250001e+00 2.4500000e+01 
7.5000000e-01 3.0250001e+00 2.5000000e+01 
7.5000000e-01 3.0250001e+00 2.5500000e+01 
7.5000000e-01 3.0250001e+00 2.6000000e+01 
7.5000000e-01 3.0250001e+00 2.6500000e+01 
7.5000000e-01 3.0250001e+00 2.7000000e+01 
7.5000000e-01 3.0250001e+00 2.7500000e+01 
7.5000000e-01 3.0250001e+00 2.8000000e+01 
7.5000000e-01 3.0250001e+00 2.8500000e+01 
7.5000000e-01 3.0250001e+00 2.9000000e+01 
7.5000000e-01 3.0250001e+00 2.9500000e+01 
7.5000000e-01 3.0250001e+00 3.0000000e+01 
7.5000000e-01 3.0250001e+00 3.0500000e+01 
7.5000000e-01 3.0250001e+00 3.1000000e+01 
7.5000000e-01 3.0250001e+00 3.1500000e+01 
7.5000000e-01 3.0250001e+00 3.2000000e+01 
7.5000000e-01 3.0250001e+00 3.2500000e+01 
7.5000000e-01 3.0250001e+00 3.3000000e+01 
7.5000000e-01 3.0250001e+00 3.3500000e+01 
7.5000000e-01 3.0250001e+00 3.4000000e+01 
7.5000000e-01 3.0250001e+00 3.4500000e+01 
7.5000000e-01 3.0250001e+00 3.5000000e+01 
7.5000000e-01 3.0250001e+00 3.5500000e+01 
7.5000000e-01 3.0250001e+00 3.6000000e+01 
7.5000000e-01 3.0250001e+00 3.6500000e+01 
7.5000000e-01 3.0250001e+00 3.7000000e+01 
7.5000000e-01 3.0250001e+00 3.7500000e+01 
7.5000000e-01 3.0250001e+00 3.8000000e+01 
7.5000000e-01 3.0250001e+00 3.8500000e+01 
7.5000000e-01 3.0250001e+00 3.9000000e+01 
7.5000000e-01 3.0250001e+00 3.9500000e+01 
7.5000000e-01 3.0250001e+00 4.0000000e+01 
7.5000000e-01 3.0250001e+00 4.0500000e+01 
7.5000000e-01 3.0250001e+00 4.1000000e+01 
7.5000000e-01 3.0250001e+00 4.1500000e+01 
7.5000000e-01 3.0250001e+00 4.2000000e+01 
7.5000000e-01 3.0250001e+00 4.2500000e+01 
7.5000000e-01 3.0250001e+00 4.3000000e+01 
7.5000000e-01 3.0250001e+00 4.3500000e+01 
7.5000000e-01 3.0250001e+00 4.4000000e+01 
7.5000000e-01 3.0250001e+00 4.4500000e+01 
7.5000000e-01 3.0250001e+00 4.5000000e+01 
7.5000000e-01 3.0250001e+00 4.5500000e+01 
7.5000000e-01 3.0250001e+00 4.6000000e+01 
7.5000000e-01 3.0250001e+00 4.6500000e+01 
7.5000000e-01 3.0250001e+00 4.7000000e+01 
7.5000000e-01 3.0250001e+00 4.7500000e+01 
7.5000000e-01 3.0250001e+00 4.8000000e+01 
7.5000000e-01 3.0250001e+00 4.8500000e+01 
7.5000000e-01 3.0250001e+00 4.9000000e+01 
7.5000000e-01 3.0250001e+00 4.9500000e+01 
7.5000000e-01 3.0250001e+00 5.0000000e+01 
3.0000000e+00 2.0000000e+00 3.6000000e+01 
8.0487806e-01 3.0000000e+00 3.6000000e+01 
0.0000000e+00 0.0000000e+00 1.0000000e+00 
0.0000000e+00 0.0000000e+00 2.0000000e+00 
0.0000000e+00 0.0000000e+00 3.0000000e+00 
0.0000000e+00 0.0000000e+00 4.0000000e+00 
0.0000000e+00 0.0000000e+00 5.0000000e+00 
0.0000000e+00 0.0000000e+00 6.0000000e+00 
0.0000000e+00 0.0000000e+00 7.0000000e+00 
0.0000000e+00 0.0000000e+00 8.0000000e+00 
[...]
POINT_DATA 1919
FIELD FieldData 3
DISPLACEMENT 3 1919  float
0.0000000e+00 0.0000000e+00 0.0000000e+00 
0.0000000e+00 0.0000000e+00 0.0000000e+00 
0.0000000e+00 0.0000000e+00 0.0000000e+00 
0.0000000e+00 0.0000000e+00 0.0000000e+00 
6.6208895e-06 -5.4783786e-06 -1.0524774e-05 
1.6617193e-09 7.7648243e-09 1.6603511e-08 
0.0000000e+00 5.9448888e-05 0.0000000e+00 
0.0000000e+00 2.6745332e-07 0.0000000e+00 
1.0122440e-05 2.1497776e-06 -4.2866664e-06 
6.0817648e-08 -1.6105849e-08 9.2295060e-08 
1.3760229e-05 5.5766691e-08 -1.9452400e-06 
-4.3340656e-08 -1.1323041e-07 -1.0531276e-07 
0.0000000e+00 4.0851952e-05 0.0000000e+00 
0.0000000e+00 3.2664053e-07 0.0000000e+00 
-5.0078695e-05 9.7418306e-06 1.0624246e-04 
-1.6290473e-07 -1.5712283e-07 -7.3605328e-08 
-6.5073138e-05 -8.4754036e-05 6.8679605e-05 
6.9524697e-09 5.6914956e-07 7.6722863e-08 
0.0000000e+00 3.9275346e-05 0.0000000e+00 
0.0000000e+00 -4.8384084e-07 0.0000000e+00 
-3.4649682e-05 -1.0164233e-04 2.2516280e-05 
-4.0657200e-05 -1.2976849e-04 4.5683428e-05 
-1.5906377e-05 -1.2764822e-04 3.1097174e-05 
-6.3272382e-05 -8.4681320e-05 -4.4161370e-06 
-4.1401276e-05 -4.3014999e-05 4.5608671e-05 
-8.4982836e-05 -8.8160341e-05 6.7440691e-05 
-4.7187583e-05 -3.2367150e-04 1.1393174e-04 
-1.0899457e-04 -8.2420523e-04 1.0304170e-04 
-1.5150904e-04 -1.6070732e-03 2.0497161e-04 
-2.3220616e-04 -2.6180174e-03 1.3298694e-04 
-3.3389457e-04 -3.7587122e-03 2.6863176e-04 
-3.2597210e-04 -4.7152624e-03 6.3267405e-05 
-3.8206342e-04 -5.1212776e-03 1.1353761e-05 
-4.3728351e-04 -4.9675368e-03 -1.0469207e-04 
-4.4262895e-04 -4.7992249e-03 -2.2041000e-04 
-3.8774748e-04 -4.7892025e-03 -2.2622348e-04 
-3.4095781e-04 -4.7729472e-03 -2.1311204e-04 
-2.6120376e-04 -4.2332732e-03 -1.8547956e-04 
-2.1012838e-04 -3.1545528e-03 -3.1379864e-04 
-1.2779330e-04 -1.9842279e-03 -2.1376136e-04 
-2.9321998e-05 -1.0447799e-03 -2.7818288e-04 
4.2702206e-05 -3.9714421e-04 -1.6424969e-04 
1.0079831e-04 -1.2067067e-05 -9.1449685e-05 
9.1835616e-05 1.7066544e-04 6.8265996e-05 
3.4963192e-05 2.0730119e-04 1.8407228e-04 
-5.0106346e-06 1.7166563e-04 2.2793461e-04 
-7.9353347e-05 1.2644571e-04 1.8889240e-04 
-8.3739928e-05 9.4278003e-05 6.6391141e-05 
-7.0887225e-05 7.4948141e-05 -3.8652608e-05 
-4.6744663e-05 5.5543755e-05 -1.0604730e-04 
-4.7070025e-06 3.5832283e-05 -1.4292289e-04 
9.1387228e-06 2.6824748e-05 -1.1484315e-04 
1.6951242e-05 3.2858225e-05 -6.9197231e-05 
2.1807849e-05 4.8170630e-05 -3.5025569e-05 
-1.8248278e-05 5.6674060e-05 -7.1913473e-06 
-1.4611666e-05 4.5853158e-05 1.2019941e-05 
-4.7775124e-05 2.1129270e-05 4.9003211e-06 
-3.5091809e-05 5.0444141e-06 2.3174902e-05 
-1.7521425e-05 1.2012459e-05 2.3722612e-05 
-3.5458746e-05 4.6026602e-05 2.0078491e-05 
-9.0374970e-06 8.7279695e-05 3.4435860e-05 
-3.6486537e-05 1.0861812e-04 5.2734296e-05 
-1.0442802e-05 1.0038426e-04 6.7118999e-05 
-4.9002585e-05 6.3937267e-05 1.1082930e-04 
-6.2609179e-05 -9.5014364e-08 1.6802398e-04 
-8.7622961e-05 -1.0692723e-04 1.7212812e-04 
-8.0624319e-05 -3.3161737e-04 2.4760808e-04 
-1.5527901e-04 -8.0223900e-04 2.0584559e-04 
-2.0622952e-04 -1.6251125e-03 3.2106962e-04 
-3.1063327e-04 -2.7819155e-03 1.9496365e-04 
-4.0163420e-04 -4.0847035e-03 2.7141927e-04 
-4.9477798e-04 -5.0480533e-03 4.8660870e-05 
-5.4322218e-04 -5.2614021e-03 -2.6509055e-05 
-4.8507692e-04 -5.0359126e-03 -1.1214293e-04 
-4.5743043e-04 -4.9469178e-03 -2.4830445e-04 
-3.9956576e-04 -5.0479914e-03 -3.3633786e-04 
-3.4665110e-04 -5.0301664e-03 -3.8665163e-04 
-2.7038920e-04 -4.3087369e-03 -3.3874047e-04 
-1.8103811e-04 -3.1454663e-03 -4.3182098e-04 
-7.7194025e-05 -1.9467454e-03 -1.9822505e-04 
-3.1722433e-05 -9.7454072e-04 -2.0158371e-04 
2.2864864e-05 -2.9144110e-04 -5.4524266e-05 
4.3852568e-05 8.9586967e-05 -2.7451057e-05 
3.4992143e-05 2.3255839e-04 3.9296010e-05 
2.3337945e-05 2.2686101e-04 8.7438581e-05 
6.2962495e-06 1.5983444e-04 1.2439405e-04 
-3.7726571e-05 9.1731570e-05 1.2924893e-04 
-5.4348577e-05 3.9774633e-05 6.2559302e-05 
-5.2302497e-05 3.9732754e-06 -9.3004301e-06 
-1.8454133e-05 -1.8490440e-05 -1.1870879e-04 
-5.2479209e-07 -2.4138189e-05 -9.9746270e-05 
1.8737168e-05 -1.4652468e-05 -7.3246127e-05 
2.6908014e-05 -1.8925230e-06 -3.6377907e-05 
2.5525638e-05 7.0296587e-06 -8.2731704e-06 
1.4147387e-05 8.8691568e-06 1.1719702e-05 
6.1170294e-06 7.2795119e-06 2.2412018e-05 
-1.3162033e-06 5.5797232e-06 2.4181854e-05 
-3.6084625e-06 3.9746160e-06 1.8219698e-05 
-5.2272121e-06 1.2716652e-06 8.0698710e-06 
-3.7944289e-06 -2.1371820e-06 1.3548056e-06 
-2.5747790e-06 -4.2663387e-06 -2.4707219e-06 
-1.5404491e-06 -4.2395336e-06 -4.8275920e-06 
-1.3258885e-07 -2.7281963e-06 -3.7667903e-06 
5.9004014e-07 -1.0667233e-06 -2.5295994e-06 
8.1652024e-07 5.8825513e-08 -9.0190287e-07 
7.1648344e-07 7.7593171e-07 2.8056635e-07 
5.4143823e-07 1.3199613e-06 6.3153101e-07 
2.1799710e-07 1.5439082e-06 9.3887218e-07 
2.3890228e-08 1.1357811e-06 5.1584374e-07 
2.9530480e-09 1.3072813e-07 -1.6514181e-07 
-3.0490102e-07 -7.0328929e-07 6.3046048e-07 
-2.6489022e-07 -7.8150640e-07 2.5038782e-09 
5.2328897e-08 -1.6139288e-07 -3.2740263e-07 
1.6381740e-07 4.3571418e-07 1.8146635e-07 
3.6634557e-08 3.5819176e-07 -4.3536099e-07 
-3.7568711e-08 -2.0120328e-07 -3.5184772e-08 
4.5428905e-09 -5.8075068e-07 2.8880542e-08 
-3.0899148e-08 -3.7354664e-07 -8.1073090e-08 
6.3405118e-08 2.3152030e-07 1.9071038e-08 
0.0000000e+00 -8.5440544e-05 0.0000000e+00 
0.0000000e+00 -1.0207916e-04 0.0000000e+00 
0.0000000e+00 -1.2887020e-04 0.0000000e+00 
0.0000000e+00 -1.2625595e-04 0.0000000e+00 
0.0000000e+00 -8.3576742e-05 0.0000000e+00 
0.0000000e+00 -4.1732092e-05 0.0000000e+00 
0.0000000e+00 -8.7930355e-05 0.0000000e+00 
0.0000000e+00 -3.2568103e-04 0.0000000e+00 
0.0000000e+00 -8.2841289e-04 0.0000000e+00 
0.0000000e+00 -1.6115574e-03 0.0000000e+00 
0.0000000e+00 -2.6307383e-03 0.0000000e+00 
0.0000000e+00 -3.7711118e-03 0.0000000e+00 
0.0000000e+00 -4.7425712e-03 0.0000000e+00 
0.0000000e+00 -5.1479130e-03 0.0000000e+00 
0.0000000e+00 -4.9982630e-03 0.0000000e+00 
0.0000000e+00 -4.8176674e-03 0.0000000e+00 
0.0000000e+00 -4.8157778e-03 0.0000000e+00 
0.0000000e+00 -4.7925431e-03 0.0000000e+00 
0.0000000e+00 -4.2609945e-03 0.0000000e+00 
0.0000000e+00 -3.1716158e-03 0.0000000e+00 
0.0000000e+00 -1.9960317e-03 0.0000000e+00 
0.0000000e+00 -1.0486215e-03 0.0000000e+00 
0.0000000e+00 -3.9862064e-04 0.0000000e+00 
0.0000000e+00 -1.2159472e-05 0.0000000e+00 
0.0000000e+00 1.6988680e-04 0.0000000e+00 
0.0000000e+00 2.0822063e-04 0.0000000e+00 
0.0000000e+00 1.7407388e-04 0.0000000e+00 
0.0000000e+00 1.2776950e-04 0.0000000e+00 
0.0000000e+00 9.4842217e-05 0.0000000e+00 
0.0000000e+00 7.4246738e-05 0.0000000e+00 
0.0000000e+00 5.4960856e-05 0.0000000e+00 
0.0000000e+00 3.6065961e-05 0.0000000e+00 
0.0000000e+00 2.7184638e-05 0.0000000e+00 
0.0000000e+00 3.3387809e-05 0.0000000e+00 
0.0000000e+00 4.8162499e-05 0.0000000e+00 
0.0000000e+00 5.5940171e-05 0.0000000e+00 
0.0000000e+00 4.4935390e-05 0.0000000e+00 
0.0000000e+00 2.0971309e-05 0.0000000e+00 
0.0000000e+00 4.9877585e-06 0.0000000e+00 
0.0000000e+00 1.3157507e-05 0.0000000e+00 
0.0000000e+00 4.6835874e-05 0.0000000e+00 
0.0000000e+00 8.6761320e-05 0.0000000e+00 
0.0000000e+00 1.0790677e-04 0.0000000e+00 
0.0000000e+00 9.9673554e-05 0.0000000e+00 
0.0000000e+00 6.3994310e-05 0.0000000e+00 
0.0000000e+00 2.6776395e-06 0.0000000e+00 
0.0000000e+00 -1.0389456e-04 0.0000000e+00 
0.0000000e+00 -3.3178678e-04 0.0000000e+00 
0.0000000e+00 -8.0767454e-04 0.0000000e+00 
0.0000000e+00 -1.6349851e-03 0.0000000e+00 
0.0000000e+00 -2.7990288e-03 0.0000000e+00 
0.0000000e+00 -4.0975912e-03 0.0000000e+00 
0.0000000e+00 -5.0744759e-03 0.0000000e+00 
0.0000000e+00 -5.2843215e-03 0.0000000e+00 
0.0000000e+00 -5.0672158e-03 0.0000000e+00 
0.0000000e+00 -4.9674525e-03 0.0000000e+00 
0.0000000e+00 -5.0779395e-03 0.0000000e+00 
0.0000000e+00 -5.0510964e-03 0.0000000e+00 
0.0000000e+00 -4.3362565e-03 0.0000000e+00 
0.0000000e+00 -3.1577866e-03 0.0000000e+00 
0.0000000e+00 -1.9562081e-03 0.0000000e+00 
0.0000000e+00 -9.7745121e-04 0.0000000e+00 
0.0000000e+00 -2.9525414e-04 0.0000000e+00 
0.0000000e+00 8.8714463e-05 0.0000000e+00 
0.0000000e+00 2.3349226e-04 0.0000000e+00 
0.0000000e+00 2.2856974e-04 0.0000000e+00 
0.0000000e+00 1.6173617e-04 0.0000000e+00 
0.0000000e+00 9.2282120e-05 0.0000000e+00 
0.0000000e+00 3.9871287e-05 0.0000000e+00 
0.0000000e+00 3.8641419e-06 0.0000000e+00 
0.0000000e+00 -1.8093382e-05 0.0000000e+00 
0.0000000e+00 -2.3751098e-05 0.0000000e+00 
0.0000000e+00 -1.5106284e-05 0.0000000e+00 
0.0000000e+00 -2.1648070e-06 0.0000000e+00 
0.0000000e+00 6.7970973e-06 0.0000000e+00 
0.0000000e+00 8.9562109e-06 0.0000000e+00 
0.0000000e+00 7.4189547e-06 0.0000000e+00 
0.0000000e+00 5.5869805e-06 0.0000000e+00 
0.0000000e+00 3.8778085e-06 0.0000000e+00 
0.0000000e+00 1.2325805e-06 0.0000000e+00 
0.0000000e+00 -2.0477300e-06 0.0000000e+00 
0.0000000e+00 -4.2030442e-06 0.0000000e+00 
0.0000000e+00 -4.2466759e-06 0.0000000e+00 
0.0000000e+00 -2.7730075e-06 0.0000000e+00 
0.0000000e+00 -1.0815547e-06 0.0000000e+00 
0.0000000e+00 7.9047084e-08 0.0000000e+00 
0.0000000e+00 7.8998619e-07 0.0000000e+00 
0.0000000e+00 1.3065500e-06 0.0000000e+00 
0.0000000e+00 1.5150416e-06 0.0000000e+00 
0.0000000e+00 1.1091471e-06 0.0000000e+00 
0.0000000e+00 1.5894086e-07 0.0000000e+00 
0.0000000e+00 -6.6232917e-07 0.0000000e+00 
0.0000000e+00 -7.5693555e-07 0.0000000e+00 
0.0000000e+00 -1.7740861e-07 0.0000000e+00 
0.0000000e+00 3.8993807e-07 0.0000000e+00 
0.0000000e+00 3.4081449e-07 0.0000000e+00 
0.0000000e+00 -1.8257100e-07 0.0000000e+00 
0.0000000e+00 -5.5229322e-07 0.0000000e+00 
0.0000000e+00 -3.5414476e-07 0.0000000e+00 
0.0000000e+00 2.2220411e-07 0.0000000e+00 
0.0000000e+00 5.4666100e-07 0.0000000e+00 
-8.8834058e-06 -9.6875365e-06 6.8491586e-06 
1.7132230e-05 -5.8887213e-06 -7.5615681e-05 
0.0000000e+00 0.0000000e+00 0.0000000e+00 
0.0000000e+00 0.0000000e+00 0.0000000e+00 
0.0000000e+00 0.0000000e+00 0.0000000e+00 
0.0000000e+00 0.0000000e+00 0.0000000e+00 
0.0000000e+00 0.0000000e+00 0.0000000e+00 
0.0000000e+00 0.0000000e+00 0.0000000e+00 
0.0000000e+00 0.0000000e+00 0.0000000e+00 
0.0000000e+00 0.0000000e+00 0.0000000e+00 
0.0000000e+00 0.0000000e+00 0.0000000e+00 
0.0000000e+00 0.0000000e+00 0.0000000e+00 
0.0000000e+00 0.0000000e+00 0.0000000e+00 
0.0000000e+00 0.0000000e+00 0.0000000e+00 
0.0000000e+00 0.0000000e+00 0.0000000e+00 
0.0000000e+00 0.0000000e+00 0.0000000e+00 
0.0000000e+00 0.0000000e+00 0.0000000e+00 
0.0000000e+00 0.0000000e+00 0.0000000e+00 
0.0000000e+00 0.0000000e+00 0.0000000e+00 
0.0000000e+00 0.0000000e+00 0.0000000e+00 
0.0000000e+00 0.0000000e+00 0.0000000e+00 
0.0000000e+00 0.0000000e+00 0.0000000e+00 
0.0000000e+00 0.0000000e+00 0.0000000e+00 
0.0000000e+00 0.0000000e+00 0.0000000e+00 
0.0000000e+00 0.0000000e+00 0.0000000e+00 
0.0000000e+00 0.0000000e+00 0.0000000e+00 
0.0000000e+00 0.0000000e+00 0.0000000e+00 
0.0000000e+00 0.0000000e+00 0.0000000e+00 
0.0000000e+00 0.0000000e+00 0.0000000e+00 
0.0000000e+00 0.0000000e+00 0.0000000e+00 
0.0000000e+00 0.0000000e+00 0.0000000e+00 
0.0000000e+00 0.0000000e+00 0.0000000e+00 
0.0000000e+00 0.0000000e+00 0.0000000e+00 
0.0000000e+00 0.0000000e+00 0.0000000e+00 
0.0000000e+00 0.0000000e+00 0.0000000e+00 
0.0000000e+00 0.0000000e+00 0.0000000e+00 
0.0000000e+00 0.0000000e+00 0.0000000e+00 
0.0000000e+00 0.0000000e+00 0.0000000e+00 
0.0000000e+00 0.0000000e+00 0.0000000e+00 
0.0000000e+00 0.0000000e+00 0.0000000e+00 
0.0000000e+00 0.0000000e+00 0.0000000e+00 
0.0000000e+00 0.0000000e+00 0.0000000e+00 
0.0000000e+00 0.0000000e+00 0.0000000e+00 
0.0000000e+00 0.0000000e+00 0.0000000e+00 
0.0000000e+00 0.0000000e+00 0.0000000e+00 
0.0000000e+00 0.0000000e+00 0.0000000e+00 
0.0000000e+00 0.0000000e+00 0.0000000e+00 
0.0000000e+00 0.0000000e+00 0.0000000e+00 
0.0000000e+00 0.0000000e+00 0.0000000e+00 
0.0000000e+00 0.0000000e+00 0.0000000e+00 
0.0000000e+00 0.0000000e+00 0.0000000e+00 
0.0000000e+00 0.0000000e+00 0.0000000e+00 
0.0000000e+00 0.0000000e+00 0.0000000e+00 
0.0000000e+00 0.0000000e+00 0.0000000e+00 
0.0000000e+00 0.0000000e+00 0.0000000e+00 
0.0000000e+00 0.0000000e+00 0.0000000e+00 
0.0000000e+00 0.0000000e+00 0.0000000e+00 
0.0000000e+00 0.0000000e+00 0.0000000e+00 
0.0000000e+00 0.0000000e+00 0.0000000e+00 
0.0000000e+00 0.0000000e+00 0.0000000e+00 
0.0000000e+00 0.0000000e+00 0.0000000e+00 
0.0000000e+00 0.0000000e+00 0.0000000e+00 
0.0000000e+00 0.0000000e+00 0.0000000e+00 
0.0000000e+00 0.0000000e+00 0.0000000e+00 
0.0000000e+00 0.0000000e+00 0.0000000e+00 
0.0000000e+00 0.0000000e+00 0.0000000e+00 
0.0000000e+00 0.0000000e+00 0.0000000e+00 
0.0000000e+00 0.0000000e+00 0.0000000e+00 
0.0000000e+00 0.0000000e+00 0.0000000e+00 
0.0000000e+00 0.0000000e+00 0.0000000e+00 
0.0000000e+00 0.0000000e+00 0.0000000e+00 
0.0000000e+00 0.0000000e+00 0.0000000e+00 
0.0000000e+00 0.0000000e+00 0.0000000e+00 
0.0000000e+00 0.0000000e+00 0.0000000e+00 
0.0000000e+00 0.0000000e+00 0.0000000e+00 
0.0000000e+00 0.0000000e+00 0.0000000e+00 
0.0000000e+00 0.0000000e+00 0.0000000e+00 
0.0000000e+00 0.0000000e+00 0.0000000e+00 
0.0000000e+00 0.0000000e+00 0.0000000e+00 
0.0000000e+00 0.0000000e+00 0.0000000e+00 
0.0000000e+00 0.0000000e+00 0.0000000e+00 
0.0000000e+00 0.0000000e+00 0.0000000e+00 
0.0000000e+00 0.0000000e+00 0.0000000e+00 
0.0000000e+00 0.0000000e+00 0.0000000e+00 
0.0000000e+00 0.0000000e+00 0.0000000e+00 
0.0000000e+00 0.0000000e+00 0.0000000e+00 
0.0000000e+00 0.0000000e+00 0.0000000e+00 
0.0000000e+00 0.0000000e+00 0.0000000e+00 
0.0000000e+00 0.0000000e+00 0.0000000e+00 
0.0000000e+00 0.0000000e+00 0.0000000e+00 
0.0000000e+00 0.0000000e+00 0.0000000e+00 
0.0000000e+00 0.0000000e+00 0.0000000e+00 
0.0000000e+00 0.0000000e+00 0.0000000e+00 
0.0000000e+00 0.0000000e+00 0.0000000e+00 
0.0000000e+00 0.0000000e+00 0.0000000e+00 
0.0000000e+00 0.0000000e+00 0.0000000e+00 
0.0000000e+00 0.0000000e+00 0.0000000e+00 
0.0000000e+00 0.0000000e+00 0.0000000e+00 
0.0000000e+00 0.0000000e+00 0.0000000e+00 
0.0000000e+00 0.0000000e+00 0.0000000e+00 
0.0000000e+00 0.0000000e+00 0.0000000e+00 
0.0000000e+00 0.0000000e+00 0.0000000e+00 
0.0000000e+00 0.0000000e+00 0.0000000e+00 
0.0000000e+00 0.0000000e+00 0.0000000e+00 
0.0000000e+00 0.0000000e+00 0.0000000e+00 
0.0000000e+00 0.0000000e+00 0.0000000e+00 
0.0000000e+00 0.0000000e+00 0.0000000e+00 
0.0000000e+00 0.0000000e+00 0.0000000e+00 
1.2797253e-05 -3.7922027e-06 -1.3164272e-05 
1.9317253e-05 -4.5510269e-06 -1.1937199e-05 
2.4397279e-05 -1.6711714e-05 -1.1310184e-05 
3.0315661e-05 -1.9120365e-05 -1.4198176e-05 
3.6524369e-05 -1.5065330e-05 -1.7075885e-05 
4.0296713e-05 -1.8518345e-05 -8.4524681e-06 
4.4836779e-05 -9.3267881e-06 -2.0870732e-06 
4.3093587e-05 6.4359765e-06 1.9952002e-05 
3.2716594e-05 -2.3379182e-06 2.6048363e-05 
2.1220019e-05 -1.5982312e-05 2.1407210e-05 
1.1232946e-05 -1.6150847e-05 1.3949088e-05 
8.6014943e-06 1.4586832e-06 7.7827199e-06 
5.3126892e-06 4.1512972e-06 9.9483514e-06 
6.0817856e-06 -4.7205901e-07 7.4818272e-06 
7.1622349e-06 -6.1203815e-07 7.8031981e-06 
4.5781831e-06 6.0859479e-06 2.9943269e-06 
3.9734168e-06 5.4447551e-06 -8.9086434e-06 
9.0570438e-06 -4.5011179e-06 -9.1676684e-06 
6.0897960e-06 -2.1427575e-06 -8.0390973e-06 
1.0696739e-05 -6.2302838e-06 -9.7981210e-06 
1.2349863e-05 -1.4205006e-05 -8.8101306e-06 
1.9915778e-05 -8.5164238e-06 -1.1028304e-05 
3.4807144e-05 -8.3187078e-06 -1.4547337e-05 
3.8481834e-05 -1.3862982e-05 -1.3682985e-05 
4.9867143e-05 -5.2506375e-06 -1.3862408e-05 
4.9700342e-05 -6.4577862e-06 -4.0801160e-06 
4.3799078e-05 -7.2486423e-06 3.6804820e-06 
3.8069091e-05 -7.4857430e-06 8.3226769e-06 
3.1671447e-05 -5.6718745e-06 1.2281363e-05 
2.1632790e-05 -7.5752819e-06 1.3109081e-05 
1.4822099e-05 -6.8959230e-06 1.0597184e-05 
8.6407645e-06 -4.3646351e-06 1.0856977e-05 
5.6590375e-06 -1.3523197e-06 1.2002145e-05 
3.4661127e-06 -3.7184514e-06 1.1264637e-05 
2.0602401e-06 -3.7389045e-06 8.2824099e-06 
1.1165218e-06 -2.5234979e-07 3.0038436e-06 
-1.7013339e-07 2.2831946e-06 -2.0014993e-06 
-5.6537129e-07 9.5467715e-07 -2.5918282e-06 
-4.8524470e-07 1.4125644e-07 -2.2188831e-06 
-4.5927362e-07 -4.4221005e-07 -1.0784609e-06 
2.7255352e-08 2.0056270e-07 1.9128440e-07 
3.1438077e-08 2.5912726e-07 7.7901518e-07 
7.6700545e-08 -9.8073336e-08 4.0665921e-07 
8.0237903e-08 -1.9423845e-07 -1.8280351e-08 
-5.4650648e-08 1.0725192e-07 -3.0266619e-08 
-3.2837363e-08 1.1344913e-07 2.1038215e-08 
1.0658588e-08 -9.3103090e-08 -1.9823883e-08 
-3.1072631e-08 -2.2731962e-08 -7.9665952e-08 
-3.1233121e-08 6.8123136e-08 -2.0519513e-08 
0.0000000e+00 6.7144138e-05 0.0000000e+00 
0.0000000e+00 9.2469963e-05 0.0000000e+00 
0.0000000e+00 8.6949549e-05 0.0000000e+00 
0.0000000e+00 -4.0554620e-05 0.0000000e+00 
0.0000000e+00 -2.4318437e-04 0.0000000e+00 
0.0000000e+00 -4.5587451e-04 0.0000000e+00 
0.0000000e+00 -6.3102832e-04 0.0000000e+00 
0.0000000e+00 -5.8349263e-04 0.0000000e+00 
0.0000000e+00 -4.7691260e-04 0.0000000e+00 
0.0000000e+00 -2.4974896e-04 0.0000000e+00 
0.0000000e+00 -6.1646118e-05 0.0000000e+00 
0.0000000e+00 -1.0620292e-05 0.0000000e+00 
0.0000000e+00 -1.3828222e-05 0.0000000e+00 
0.0000000e+00 -3.0733827e-05 0.0000000e+00 
0.0000000e+00 2.9143660e-06 0.0000000e+00 
0.0000000e+00 8.4664447e-05 0.0000000e+00 
0.0000000e+00 1.4464525e-04 0.0000000e+00 
0.0000000e+00 1.4509926e-04 0.0000000e+00 
0.0000000e+00 1.5079719e-04 0.0000000e+00 
0.0000000e+00 1.9418127e-04 0.0000000e+00 
0.0000000e+00 1.7851857e-04 0.0000000e+00 
0.0000000e+00 8.8643232e-05 0.0000000e+00 
0.0000000e+00 9.1267822e-05 0.0000000e+00 
0.0000000e+00 -3.7460617e-05 0.0000000e+00 
0.0000000e+00 -3.2638368e-04 0.0000000e+00 
0.0000000e+00 -5.2924198e-04 0.0000000e+00 
0.0000000e+00 -6.4297853e-04 0.0000000e+00 
0.0000000e+00 -6.1031769e-04 0.0000000e+00 
0.0000000e+00 -4.5242888e-04 0.0000000e+00 
0.0000000e+00 -2.2521439e-04 0.0000000e+00 
0.0000000e+00 -5.9518912e-05 0.0000000e+00 
0.0000000e+00 1.7044873e-05 0.0000000e+00 
0.0000000e+00 2.2607654e-05 0.0000000e+00 
0.0000000e+00 -8.1407843e-06 0.0000000e+00 
0.0000000e+00 -1.3906538e-05 0.0000000e+00 
0.0000000e+00 1.8627090e-06 0.0000000e+00 
0.0000000e+00 3.9986980e-06 0.0000000e+00 
0.0000000e+00 3.5621298e-07 0.0000000e+00 
0.0000000e+00 6.2050935e-07 0.0000000e+00 
0.0000000e+00 -4.1370549e-07 0.0000000e+00 
0.0000000e+00 -2.7313408e-07 0.0000000e+00 
0.0000000e+00 -4.4298727e-07 0.0000000e+00 
0.0000000e+00 -7.6348186e-07 0.0000000e+00 
0.0000000e+00 1.7467400e-07 0.0000000e+00 
0.0000000e+00 4.0799532e-07 0.0000000e+00 
0.0000000e+00 4.8078277e-07 0.0000000e+00 
0.0000000e+00 -2.1700812e-07 0.0000000e+00 
0.0000000e+00 -3.4340061e-07 0.0000000e+00 
0.0000000e+00 -6.5513952e-08 0.0000000e+00 
1.0604465e-05 7.3377169e-07 -1.0412906e-05 
9.8000801e-06 -1.7979285e-06 -1.8279438e-06 
1.0864194e-05 -2.7977349e-06 -8.4176481e-06 
-6.2219360e-06 2.3675128e-05 -7.4302893e-06 
-1.9309124e-10 -2.4384512e-09 2.8513400e-08 
3.2007428e-08 -1.6605092e-07 -9.1620109e-08 
-1.1222559e-07 -5.0166214e-08 1.2291200e-08 
-2.4561626e-08 -3.9726093e-08 -9.1254869e-08 
6.1162273e-06 -3.8805251e-06 -1.5397076e-05 
2.2448748e-05 -4.0772611e-06 -1.7843788e-05 
3.6488484e-05 -1.8765531e-05 -1.8111692e-05 
4.0379302e-05 -2.0966632e-05 -2.0441712e-05 
3.9497307e-05 -1.6884740e-05 -1.6448130e-05 
3.5656878e-05 -2.1320304e-05 -1.3850188e-05 
3.7312093e-05 -7.8809326e-06 -1.6273649e-06 
2.2805847e-05 1.6972046e-05 1.8849352e-05 
2.0634501e-05 4.5166285e-06 3.0463341e-05 
1.8987346e-05 -1.4106131e-05 3.2791369e-05 
1.3030523e-05 -1.3896564e-05 1.3417655e-05 
1.1981260e-05 1.4969975e-06 5.9100728e-07 
1.3807772e-05 7.7586137e-06 7.1146246e-06 
1.2213041e-05 2.9247990e-06 1.0797536e-05 
-1.4400167e-06 -1.7010357e-06 1.3725015e-05 
-2.2545917e-06 1.0354772e-05 -3.5584287e-07 
-2.0019143e-06 3.6264860e-06 -1.1156155e-05 
6.5148233e-06 -3.9396141e-06 -3.9728420e-06 
1.2575612e-05 -2.8968493e-06 -4.6934269e-06 
1.0912718e-05 -1.1749292e-05 -9.0969515e-06 