# vtk DataFile Version 4.0
vtk output
ASCII
DATASET UNSTRUCTURED_GRID
POINTS 1919 float
0.0000000e+00 0.0000000e+00 0.0000000e+00 
0.0000000e+00 0.0000000e+00 5.0000000e+01 
5.0000000e+00 0.0000000e+00 0.0000000e+00 
5.0000000e+00 0.0000000e+00 5.0000000e+01 
5.0000000e+00 1.0000000e+00 0.0000000e+00 
5.0000000e+00 1.0000000e+00 5.0000000e+01 
0.0000000e+00 1.0000000e+00 0.0000000e+00 
0.0000000e+00 1.0000000e+00 5.0000000e+01 
5.0000000e+00 2.0000000e+00 0.0000000e+00 
5.0000000e+00 2.0000000e+00 5.0000000e+01 
3.0000000e+00 2.0000000e+00 0.0000000e+00 
3.0000000e+00 2.0000000e+00 5.0000000e+01 
0.0000000e+00 2.0000000e+00 0.0000000e+00 
0.0000000e+00 2.0000000e+00 5.0000000e+01 
1.5000000e+00 3.0000000e+00 0.0000000e+00 
1.5000000e+00 3.0000000e+00 5.0000000e+01 
7.5000000e-01 3.0000000e+00 0.0000000e+00 
7.5000000e-01 3.0000000e+00 5.0000000e+01 
0.0000000e+00 3.0000000e+00 0.0000000e+00 
0.0000000e+00 3.0000000e+00 5.0000000e+01 
7.5000000e-01 3.0000000e+00 5.0000000e-01 
7.5000000e-01 3.0000000e+00 1.0000000e+00 
7.5000000e-01 3.0000000e+00 1.5000000e+00 
7.5000000e-01 3.0000000e+00 2.0000000e+00 
7.5000000e-01 3.0000000e+00 2.5000000e+00 
7.5000000e-01 3.0000000e+00 3.0000000e+00 
7.5000000e-01 3.0000000e+00 3.5000000e+00 
7.5000000e-01 3.0000000e+00 4.0000000e+00 
7.5000000e-01 3.0000000e+00 4.5000000e+00 
7.5000000e-01 3.0000000e+00 5.0000000e+00 
7.5000000e-01 3.0000000e+00 5.5000000e+00 
7.5000000e-01 3.0000000e+00 6.0000000e+00 
7.5000000e-01 3.0000000e+00 6.5000000e+00 
7.5000000e-01 3.0000000e+00 7.0000000e+00 
7.5000000e-01 3.0000000e+00 7.5000000e+00 
7.5000000e-01 3.0000000e+00 8.0000000e+00 
7.5000000e-01 3.0000000e+00 8.5000000e+00 
7.5000000e-01 3.0000000e+00 9.0000000e+00 
7.5000000e-01 3.0000000e+00 9.5000000e+00 
7.5000000e-01 3.0000000e+00 1.0000000e+01 
7.5000000e-01 3.0000000e+00 1.0500000e+01 
7.5000000e-01 3.0000000e+00 1.1000000e+01 
7.5000000e-01 3.0000000e+00 1.1500000e+01 
7.5000000e-01 3.0000000e+00 1.2000000e+01 
7.5000000e-01 3.0000000e+00 1.2500000e+01 
7.5000000e-01 3.0000000e+00 1.3000000e+01 
7.5000000e-01 3.0000000e+00 1.3500000e+01 
7.5000000e-01 3.0000000e+00 1.4000000e+01 
7.5000000e-01 3.0000000e+00 1.4500000e+01 
7.5000000e-01 3.0000000e+00 1.5000000e+01 
7.5000000e-01 3.0000000e+00 1.5500000e+01 
7.5000000e-01 3.0000000e+00 1.6000000e+01 
7.5000000e-01 3.0000000e+00 1.6500000e+01 
7.5000000e-01 3.0000000e+00 1.7000000e+01 
7.5000000e-01 3.0000000e+00 1.7500000e+01 
7.5000000e-01 3.0000000e+00 1.8000000e+01 
7.5000000e-01 3.0000000e+00 1.8500000e+01 
7.5000000e-01 3.0000000e+00 1.9000000e+01 
7.5000000e-01 3.0000000e+00 1.9500000e+01 
7.5000000e-01 3.0000000e+00 2.0000000e+01 
7.5000000e-01 3.0000000e+00 2.0500000e+01 
7.5000000e-01 3.0000000e+00 2.1000000e+01 
7.5000000e-01 3.0000000e+00 2.1500000e+01 
7.5000000e-01 3.0000000e+00 2.2000000e+01 
7.5000000e-01 3.0000000e+00 2.2500000e+01 
7.5000000e-01 3.0000000e+00 2.3000000e+01 
7.5000000e-01 3.0000000e+00 2.3500000e+01 
7.5000000e-01 3.0000000e+00 2.4000000e+01 
7.5000000e-01 3.0000000e+00 2.4500000e+01 
7.5000000e-01 3.0000000e+00 2.5000000e+01 
7.5000000e-01 3.0000000e+00 2.5500000e+01 
7.5000000e-01 3.0000000e+00 2.6000000e+01 
7.5000000e-01 3.0000000e+00 2.6500000e+01 
7.5000000e-01 3.0000000e+00 2.7000000e+01 
7.5000000e-01 3.0000000e+00 2.7500000e+01 
7.5000000e-01 3.0000000e+00 2.8000000e+01 
7.5000000e-01 3.0000000e+00 2.8500000e+01 
7.5000000e-01 3.0000000e+00 2.9000000e+01 
7.5000000e-01 3.0000000e+00 2.9500000e+01 
7.5000000e-01 3.0000000e+00 3.0000000e+01 
7.5000000e-01 3.0000000e+00 3.0500000e+01 
7.5000000e-01 3.0000000e+00 3.1000000e+01 
7.5000000e-01 3.0000000e+00 3.1500000e+01 
7.5000000e-01 3.0000000e+00 3.2000000e+01 
7.5000000e-01 3.0000000e+00 3.2500000e+01 
7.5000000e-01 3.0000000e+00 3.3000000e+01 
7.5000000e-01 3.0000000e+00 3.3500000e+01 
7.5000000e-01 3.0000000e+00 3.4000000e+01 
7.5000000e-01 3.0000000e+00 3.4500000e+01 
7.5000000e-01 3.0000000e+00 3.5000000e+01 
7.5000000e-01 3.0000000e+00 3.5500000e+01 
7.5000000e-01 3.0000000e+00 3.6000000e+01 
7.5000000e-01 3.0000000e+00 3.6500000e+01 
7.5000000e-01 3.0000000e+00 3.7000000e+01 
7.5000000e-01 3.0000000e+00 3.7500000e+01 
7.5000000e-01 3.0000000e+00 3.8000000e+01 
7.5000000e-01 3.0000000e+00 3.8500000e+01 
7.5000000e-01 3.0000000e+00 3.9000000e+01 
7.5000000e-01 3.0000000e+00 3.9500000e+01 
7.5000000e-01 3.0000000e+00 4.0000000e+01 
7.5000000e-01 3.0000000e+00 4.0500000e+01 
7.5000000e-01 3.0000000e+00 4.1000000e+01 
7.5000000e-01 3.0000000e+00 4.1500000e+01 
7.5000000e-01 3.0000000e+00 4.2000000e+01 
7.5000000e-01 3.0000000e+00 4.2500000e+01 
7.5000000e-01 3.0000000e+00 4.3000000e+01 
7.5000000e-01 3.0000000e+00 4.3500000e+01 
7.5000000e-01 3.0000000e+00 4.4000000e+01 
7.5000000e-01 3.0000000e+00 4.4500000e+01 
7.5000000e-01 3.0000000e+00 4.5000000e+01 
7.5000000e-01 3.0000000e+00 4.5500000e+01 
7.5000000e-01 3.0000000e+00 4.6000000e+01 
7.5000000e-01 3.0000000e+00 4.6500000e+01 
7.5000000e-01 3.0000000e+00 4.7000000e+01 
7.5000000e-01 3.0000000e+00 4.7500000e+01 
7.5000000e-01 3.0000000e+00 4.8000000e+01 
7.5000000e-01 3.0000000e+00 4.8500000e+01 
7.5000000e-01 3.0000000e+00 4.9000000e+01 
7.5000000e-01 3.0000000e+00 4.9500000e+01 
7.5000000e-01 3.0250001e+00 0.0000000e+00 
7.5000000e-01 3.0250001e+00 5.0000000e-01 
7.5000000e-01 3.0250001e+00 1.0000000e+00 
7.5000000e-01 3.0250001e+00 1.5000000e+00 
7.5000000e-01 3.0250001e+00 2.0000000e+00 
7.5000000e-01 3.0250001e+00 2.5000000e+00 
7.5000000e-01 3.0250001e+00 3.0000000e+00 
7.5000000e-01 3.0250001e+00 3.5000000e+00 
7.5000000e-01 3.0250001e+00 4.0000000e+00 
7.5000000e-01 3.0250001e+00 4.5000000e+00 
7.5000000e-01 3.0250001e+00 5.0000000e+00 
7.5000000e-01 3.0250001e+00 5.5000000e+00 
7.5000000e-01 3.0250001e+00 6.0000000e+00 
7.5000000e-01 3.0250001e+00 6.5000000e+00 
7.5000000e-01 3.0250001e+00 7.0000000e+00 
7.5000000e-01 3.0250001e+00 7.5000000e+00 
7.5000000e-01 3.0250001e+00 8.0000000e+00 
7.5000000e-01 3.0250001e+00 8.5000000e+00 
7.5000000e-01 3.0250001e+00 9.0000000e+00 
7.5000000e-01 3.0250001e+00 9.5000000e+00 
7.5000000e-01 3.0250001e+00 1.0000000e+01 
7.5000000e-01 3.0250001e+00 1.0500000e+01 
7.5000000e-01 3.0250001e+00 1.1000000e+01 
7.5000000e-01 3.0250001e+00 1.1500000e+01 
7.5000000e-01 3.0250001e+00 1.2000000e+01 
7.5000000e-01 3.0250001e+00 1.2500000e+01 
7.5000000e-01 3.0250001e+00 1.3000000e+01 
7.5000000e-01 3.0250001e+00 1.3500000e+01 
7.5000000e-01 3.0250001e+00 1.4000000e+01 
7.5000000e-01 3.0250001e+00 1.4500000e+01 
7.5000000e-01 3.0250001e+00 1.5000000e+01 
7.5000000e-01 3.0250001e+00 1.5500000e+01 
7.5000000e-01 3.0250001e+00 1.6000000e+01 
7.5000000e-01 3.0250001e+00 1.6500000e+01 
7.5000000e-01 3.0250001e+00 1.7000000e+01 
7.5000000e-01 3.0250001e+00 1.7500000e+01 
7.5000000e-01 3.0250001e+00 1.8000000e+01 
7.5000000e-01 3.0250001e+00 1.8500000e+01 
7.5000000e-01 3.0250001e+00 1.9000000e+01 
7.5000000e-01 3.0250001e+00 1.9500000e+01 
7.5000000e-01 3.0250001e+00 2.0000000e+01 
7.5000000e-01 3.0250001e+00 2.0500000e+01 
7.5000000e-01 3.0250001e+00 2.1000000e+01 
7.5000000e-01 3.0250001e+00 2.1500000e+01 
7.5000000e-01 3.0250001e+00 2.2000000e+01 
7.5000000e-01 3.0250001e+00 2.2500000e+01 
7.5000000e-01 3.0250001e+00 2.3000000e+01 
7.5000000e-01 3.0250001e+00 2.3500000e+01 
7.5000000e-01 3.0250001e+00 2.4000000e+01 
7.5000000e-01 3.0250001e+00 2.4500000e+01 
7.5000000e-01 3.0250001e+00 2.5000000e+01 
7.5000000e-01 3.0250001e+00 2.5500000e+01 
7.5000000e-01 3.0250001e+00 2.6000000e+01 
7.5000000e-01 3.0250001e+00 2.6500000e+01 
7.5000000e-01 3.0250001e+00 2.7000000e+01 
7.5000000e-01 3.0250001e+00 2.7500000e+01 
7.5000000e-01 3.0250001e+00 2.8000000e+01 
7.5000000e-01 3.0250001e+00 2.8500000e+01 
7.5000000e-01 3.0250001e+00 2.9000000e+01 
7.5000000e-01 3.0250001e+00 2.9500000e+01 
7.5000000e-01 3.0250001e+00 3.0000000e+01 
7.5000000e-01 3.0250001e+00 3.0500000e+01 
7.5000000e-01 3.0250001e+00 3.1000000e+01 
7.5000000e-01 3.0250001e+00 3.1500000e+01 
7.5000000e-01 3.0250001e+00 3.2000000e+01 
7.5000000e-01 3.0250001e+00 3.2500000e+01 
7.5000000e-01 3.0250001e+00 3.3000000e+01 
7.5000000e-01 3.0250001e+00 3.3500000e+01 
7.5000000e-01 3.0250001e+00 3.4000000e+01 
7.5000000e-01 3.0250001e+00 3.4500000e+01 
7.5000000e-01 3.0250001e+00 3.5000000e+01 
7.5000000e-01 3.0250001e+00 3.5500000e+01 
7.5000000e-01 3.0250001e+00 3.6000000e+01 
7.5000000e-01 3.0250001e+00 3.6500000e+01 
7.5000000e-01 3.0250001e+00 3.7000000e+01 
7.5000000e-01 3.0250001e+00 3.7500000e+01 
7.5000000e-01 3.0250001e+00 3.8000000e+01 
7.5000000e-01 3.0250001e+00 3.8500000e+01 
7.5000000e-01 3.0250001e+00 3.9000000e+01 
7.5000000e-01 3.0250001e+00 3.9500000e+01 
7.5000000e-01 3.0250001e+00 4.0000000e+01 
7.5000000e-01 3.0250001e+00 4.0500000e+01 
7.5000000e-01 3.0250001e+00 4.1000000e+01 
7.5000000e-01 3.0250001e+00 4.1500000e+01 
7.5000000e-01 3.0250001e+00 4.2000000e+01 
7.5000000e-01 3.0250001e+00 4.2500000e+01 
7.5000000e-01 3.0250001e+00 4.3000000e+01 
7.5000000e-01 3.0250001e+00 4.3500000e+01 
7.5000000e-01 3.0250001e+00 4.4000000e+01 
7.5000000e-01 3.0250001e+00 4.4500000e+01 
7.5000000e-01 3.0250001e+00 4.5000000e+01 
7.5000000e-01 3.0250001e+00 4.5500000e+01 
7.5000000e-01 3.0250001e+00 4.6000000e+01 
7.5000000e-01 3.0250001e+00 4.6500000e+01 
7.5000000e-01 3.0250001e+00 4.7000000e+01 
7.5000000e-01 3.0250001e+00 4.7500000e+01 
7.5000000e-01 3.0250001e+00 4.8000000e+01 
7.5000000e-01 3.0250001e+00 4.8500000e+01 
7.5000000e-01 3.0250001e+00 4.9000000e+01 
7.5000000e-01 3.0250001e+00 4.9500000e+01 
7.5000000e-01 3.0250001e+00 5.0000000e+01 
3.0000000e+00 2.0000000e+00 3.6000000e+01 
8.0487806e-01 3.0000000e+00 3.6000000e+01 
0.0000000e+00 0.0000000e+00 1.0000000e+00 
0.0000000e+00 0.0000000e+00 2.0000000e+00 
0.0000000e+00 0.0000000e+00 3.0000000e+00 
0.0000000e+00 0.0000000e+00 4.0000000e+00 
0.0000000e+00 0.0000000e+00 5.0000000e+00 
0.0000000e+00 0.0000000e+00 6.0000000e+00 
0.0000000e+00 0.0000000e+00 7.0000000e+00 
0.0000000e+00 0.0000000e+00 8.0000000e+00 
[...]
POINT_DATA 1919
FIELD FieldData 3
DISPLACEMENT 3 1919  float
0.0000000e+00 0.0000000e+00 0.0000000e+00 
0.0000000e+00 0.0000000e+00 0.0000000e+00 
0.0000000e+00 0.0000000e+00 0.0000000e+00 
0.0000000e+00 0.0000000e+00 0.0000000e+00 
-2.4183246e-06 -1.3883987e-05 -1.2779965e-05 
5.4396678e-09 2.4293204e-08 -4.5486601e-09 
0.0000000e+00 1.2347868e-04 0.0000000e+00 
0.0000000e+00 1.4271586e-07 0.0000000e+00 
3.2113458e-05 -3.4577442e-05 -3.1223353e-05 
2.5885745e-08 -4.7665175e-08 3.5176040e-08 
-5.2984374e-06 1.2316955e-06 2.3266984e-05 
-5.2692751e-08 -2.8026603e-08 -8.5331443e-08 
0.0000000e+00 2.3045503e-04 0.0000000e+00 
0.0000000e+00 1.4142711e-07 0.0000000e+00 
2.4524297e-05 1.3244590e-04 2.2328978e-04 
-1.4227791e-07 -2.9746746e-08 -2.9622481e-07 
2.3978897e-05 6.3533364e-05 1.3767502e-04 
3.9918313e-09 6.6694827e-07 1.0123888e-07 
0.0000000e+00 3.1582330e-04 0.0000000e+00 
0.0000000e+00 -1.6381878e-07 0.0000000e+00 
-4.3239419e-05 6.4338652e-05 1.6969322e-04 
-2.0423709e-05 5.2116775e-05 1.2016431e-04 
-2.2197984e-05 -1.9603951e-05 1.3003990e-04 
-4.0971670e-05 -2.2944571e-04 8.1279482e-05 
-8.7996479e-05 -6.6517206e-04 1.7072872e-04 
-1.2428290e-04 -1.3947599e-03 1.2004366e-04 
-1.9118523e-04 -2.4164438e-03 2.1102962e-04 
-2.2816453e-04 -3.5384083e-03 3.2233376e-05 
-2.8807507e-04 -4.4374163e-03 1.1888250e-04 
-3.1911413e-04 -4.6578683e-03 5.2072486e-05 
-2.0609879e-04 -4.4703432e-03 3.3673521e-05 
-1.8336794e-04 -4.3436978e-03 7.0887807e-05 
-1.9740006e-04 -4.4849669e-03 5.7280420e-05 
-2.8757629e-04 -4.5530424e-03 -4.4007371e-05 
-2.8910590e-04 -4.0722396e-03 -1.2602724e-04 
-2.1569306e-04 -3.0634068e-03 -2.0195857e-05 
-1.8894368e-04 -2.0037063e-03 -1.0889980e-04 
-1.2934157e-04 -1.1207304e-03 1.5570196e-05 
-1.2022819e-04 -4.9973652e-04 -2.7983375e-05 
-8.4433494e-05 -1.2399795e-04 -2.9536601e-05 
-5.5297169e-05 5.2613559e-05 -1.2871005e-04 
-1.5132970e-05 1.0010970e-04 -1.7499679e-04 
3.8712020e-05 9.9063873e-05 -1.9485591e-04 
4.9867547e-05 9.4865929e-05 -1.5967268e-04 
7.0678470e-05 9.9692093e-05 -8.9754758e-05 
5.1964802e-05 9.8250544e-05 -2.2245596e-05 
2.5451283e-05 7.3351242e-05 4.6207242e-05 
8.3104633e-06 2.7561564e-05 8.1152284e-05 
-2.1541700e-05 -2.5350055e-05 8.2308310e-05 
-1.3548495e-05 -7.3310126e-05 7.2722323e-05 
-3.3487056e-05 -1.1656915e-04 8.0788835e-05 
-5.6506975e-05 -1.6123844e-04 6.1767263e-05 
-7.8203833e-05 -2.1491801e-04 5.3230146e-05 
-8.5458902e-05 -2.8199548e-04 2.8788805e-05 
-7.7190161e-05 -3.4737276e-04 2.0554642e-05 
-1.0304260e-04 -3.8082918e-04 1.0459196e-05 
-9.3738556e-05 -3.6171961e-04 -1.3751916e-05 
-8.5032014e-05 -3.0120226e-04 -7.6590686e-06 
-9.1336631e-05 -2.3446800e-04 -2.4931929e-05 
-4.7752837e-05 -2.0411841e-04 -3.5813598e-06 
-4.5229772e-05 -2.1747519e-04 -2.5935875e-05 
-2.2926784e-05 -2.6469032e-04 -1.5809932e-05 
-7.0539099e-05 -3.4537914e-04 1.5110350e-05 
-5.2631483e-05 -5.0418387e-04 3.3024630e-06 
-6.9268594e-05 -8.5098896e-04 8.9781963e-05 
-9.1778085e-05 -1.5246131e-03 2.9091992e-05 
-1.3407010e-04 -2.5671669e-03 1.3952068e-04 
-1.6931057e-04 -3.7716317e-03 9.2378832e-06 
-2.2009663e-04 -4.6739993e-03 9.8182485e-05 
-2.7863547e-04 -4.7423849e-03 5.8560408e-06 
-2.3341441e-04 -4.4979490e-03 1.5628648e-05 
-2.9410818e-04 -4.4335267e-03 6.1424173e-05 
-3.4277138e-04 -4.6864999e-03 1.2417932e-04 
-3.6465205e-04 -4.7524092e-03 1.0081858e-04 
-3.4725337e-04 -4.0849377e-03 -4.4778924e-05 
-2.4475332e-04 -2.9515079e-03 -1.8931283e-05 
-1.7642080e-04 -1.8355786e-03 -2.0534541e-04 
-1.0494429e-04 -9.4082073e-04 -1.1524275e-04 
-7.6645076e-05 -3.5959037e-04 -1.2503305e-04 
-3.0483112e-05 -5.4316897e-05 -5.7403209e-05 
-2.5140953e-05 5.8479571e-05 -7.7799865e-05 
-1.4298015e-05 7.4389696e-05 -1.1594696e-04 
2.1744625e-05 6.8991030e-05 -1.4514133e-04 
3.3286986e-05 6.2853098e-05 -1.2721837e-04 
4.0287854e-05 5.2139905e-05 -6.8232403e-05 
3.1623258e-05 3.6852940e-05 -2.4772078e-06 
7.5829657e-06 2.5629330e-05 3.6054713e-05 
-1.1343443e-06 2.4061348e-05 4.8448335e-05 
-7.8563799e-06 2.7197129e-05 4.8645343e-05 
-7.3738147e-06 2.6159640e-05 2.8395658e-05 
-8.3018567e-06 1.7351684e-05 1.2933126e-05 
-5.4279826e-06 5.3133158e-06 -4.0812346e-08 
-9.8272403e-07 -2.7288615e-06 -9.6412896e-06 
5.3967682e-07 -6.0148409e-06 -1.0180689e-05 
1.0624454e-06 -7.3325373e-06 -5.9987547e-06 
1.6075093e-06 -7.9537531e-06 -3.5966541e-06 
5.2687113e-07 -7.2804523e-06 -9.6068231e-07 
-9.4273361e-08 -4.6998539e-06 1.5485249e-07 
-2.3663732e-08 -1.2552332e-06 1.0520939e-06 
-8.5980581e-08 1.2574410e-06 2.5957690e-06 
-2.8860558e-07 1.9727390e-06 5.3718173e-07 
-2.9728540e-07 1.7654055e-06 -2.5155040e-07 
1.1450571e-07 1.9719262e-06 2.6664881e-07 
1.8099783e-07 2.4394501e-06 -7.8827605e-07 
1.0254351e-07 1.9703023e-06 9.1272611e-08 
3.7942685e-10 1.6951078e-07 1.1007696e-07 
-2.0554434e-07 -2.0002208e-06 -1.7516774e-07 
-3.0780928e-08 -2.9726523e-06 -1.6525952e-07 
-1.5684803e-07 -2.0933344e-06 1.1353676e-07 
3.9881037e-08 -9.4646118e-08 -1.7847040e-07 
-6.1502554e-08 1.5166632e-06 3.5366546e-07 
7.2244525e-08 1.8358094e-06 -2.0271547e-07 
1.5925075e-07 9.6183157e-07 -1.4197528e-07 
9.7036782e-08 -2.6173868e-07 2.3854909e-07 
-8.6157151e-08 -1.0056908e-06 -1.7519012e-07 
-4.7023374e-08 -1.0336173e-06 9.0747584e-08 
3.6859973e-08 -5.6579142e-07 8.7506180e-08 
-1.1467757e-07 4.1644306e-08 -6.7355245e-08 
2.2345171e-08 4.9862570e-07 -7.5444198e-08 
0.0000000e+00 6.3352192e-05 0.0000000e+00 
0.0000000e+00 6.5145352e-05 0.0000000e+00 
0.0000000e+00 5.4186323e-05 0.0000000e+00 
0.0000000e+00 -1.7802016e-05 0.0000000e+00 
0.0000000e+00 -2.2896788e-04 0.0000000e+00 
0.0000000e+00 -6.6903076e-04 0.0000000e+00 
0.0000000e+00 -1.4062116e-03 0.0000000e+00 
0.0000000e+00 -2.4256057e-03 0.0000000e+00 
0.0000000e+00 -3.5577314e-03 0.0000000e+00 
0.0000000e+00 -4.4560907e-03 0.0000000e+00 
0.0000000e+00 -4.6891202e-03 0.0000000e+00 
0.0000000e+00 -4.4925087e-03 0.0000000e+00 
0.0000000e+00 -4.3725925e-03 0.0000000e+00 
0.0000000e+00 -4.5060432e-03 0.0000000e+00 
0.0000000e+00 -4.5836382e-03 0.0000000e+00 
0.0000000e+00 -4.0916284e-03 0.0000000e+00 
0.0000000e+00 -3.0823755e-03 0.0000000e+00 
0.0000000e+00 -2.0104393e-03 0.0000000e+00 
0.0000000e+00 -1.1256965e-03 0.0000000e+00 
0.0000000e+00 -5.0154427e-04 0.0000000e+00 
0.0000000e+00 -1.2502370e-04 0.0000000e+00 
0.0000000e+00 5.2545518e-05 0.0000000e+00 
0.0000000e+00 1.0235650e-04 0.0000000e+00 
0.0000000e+00 1.0082415e-04 0.0000000e+00 
0.0000000e+00 9.5936048e-05 0.0000000e+00 
0.0000000e+00 9.9773722e-05 0.0000000e+00 
0.0000000e+00 9.7502983e-05 0.0000000e+00 
0.0000000e+00 7.2890078e-05 0.0000000e+00 
0.0000000e+00 2.7556172e-05 0.0000000e+00 
0.0000000e+00 -2.4990206e-05 0.0000000e+00 
0.0000000e+00 -7.3176321e-05 0.0000000e+00 
0.0000000e+00 -1.1626643e-04 0.0000000e+00 
0.0000000e+00 -1.6105975e-04 0.0000000e+00 
0.0000000e+00 -2.1585402e-04 0.0000000e+00 
0.0000000e+00 -2.8311627e-04 0.0000000e+00 
0.0000000e+00 -3.4757637e-04 0.0000000e+00 
0.0000000e+00 -3.7974794e-04 0.0000000e+00 
0.0000000e+00 -3.6029125e-04 0.0000000e+00 
0.0000000e+00 -3.0037042e-04 0.0000000e+00 
0.0000000e+00 -2.3603271e-04 0.0000000e+00 
0.0000000e+00 -2.0527448e-04 0.0000000e+00 
0.0000000e+00 -2.1766975e-04 0.0000000e+00 
0.0000000e+00 -2.6296862e-04 0.0000000e+00 
0.0000000e+00 -3.4206544e-04 0.0000000e+00 
0.0000000e+00 -5.0217810e-04 0.0000000e+00 
0.0000000e+00 -8.5504039e-04 0.0000000e+00 
0.0000000e+00 -1.5365782e-03 0.0000000e+00 
0.0000000e+00 -2.5819342e-03 0.0000000e+00 
0.0000000e+00 -3.7946417e-03 0.0000000e+00 
0.0000000e+00 -4.6933573e-03 0.0000000e+00 
0.0000000e+00 -4.7702622e-03 0.0000000e+00 
0.0000000e+00 -4.5187892e-03 0.0000000e+00 
0.0000000e+00 -4.4666473e-03 0.0000000e+00 
0.0000000e+00 -4.7089788e-03 0.0000000e+00 
0.0000000e+00 -4.7841291e-03 0.0000000e+00 
0.0000000e+00 -4.1022701e-03 0.0000000e+00 
0.0000000e+00 -2.9677576e-03 0.0000000e+00 
0.0000000e+00 -1.8417614e-03 0.0000000e+00 
0.0000000e+00 -9.4741047e-04 0.0000000e+00 
0.0000000e+00 -3.6158465e-04 0.0000000e+00 
0.0000000e+00 -5.3916443e-05 0.0000000e+00 
0.0000000e+00 5.9989539e-05 0.0000000e+00 
0.0000000e+00 7.6954217e-05 0.0000000e+00 
0.0000000e+00 6.9884656e-05 0.0000000e+00 
0.0000000e+00 6.2508552e-05 0.0000000e+00 
0.0000000e+00 5.1883697e-05 0.0000000e+00 
0.0000000e+00 3.7246620e-05 0.0000000e+00 
0.0000000e+00 2.6127647e-05 0.0000000e+00 
0.0000000e+00 2.4022233e-05 0.0000000e+00 
0.0000000e+00 2.6828086e-05 0.0000000e+00 
0.0000000e+00 2.5861737e-05 0.0000000e+00 
0.0000000e+00 1.7387245e-05 0.0000000e+00 
0.0000000e+00 5.6509302e-06 0.0000000e+00 
0.0000000e+00 -2.6175087e-06 0.0000000e+00 
0.0000000e+00 -6.1448304e-06 0.0000000e+00 
0.0000000e+00 -7.4071500e-06 0.0000000e+00 
0.0000000e+00 -7.9056626e-06 0.0000000e+00 
0.0000000e+00 -7.1945083e-06 0.0000000e+00 
0.0000000e+00 -4.7052977e-06 0.0000000e+00 
0.0000000e+00 -1.3321471e-06 0.0000000e+00 
0.0000000e+00 1.1851048e-06 0.0000000e+00 
0.0000000e+00 1.9796651e-06 0.0000000e+00 
0.0000000e+00 1.8467076e-06 0.0000000e+00 
0.0000000e+00 2.0047380e-06 0.0000000e+00 
0.0000000e+00 2.3792436e-06 0.0000000e+00 
0.0000000e+00 1.9096717e-06 0.0000000e+00 
0.0000000e+00 1.6728256e-07 0.0000000e+00 
0.0000000e+00 -1.9408383e-06 0.0000000e+00 
0.0000000e+00 -2.9136891e-06 0.0000000e+00 
0.0000000e+00 -2.0814284e-06 0.0000000e+00 
0.0000000e+00 -1.4261262e-07 0.0000000e+00 
0.0000000e+00 1.4715016e-06 0.0000000e+00 
0.0000000e+00 1.8182790e-06 0.0000000e+00 
0.0000000e+00 9.7657426e-07 0.0000000e+00 
0.0000000e+00 -2.2986994e-07 0.0000000e+00 
0.0000000e+00 -9.9112515e-07 0.0000000e+00 
0.0000000e+00 -1.0393660e-06 0.0000000e+00 
0.0000000e+00 -5.7551068e-07 0.0000000e+00 
0.0000000e+00 3.4866648e-08 0.0000000e+00 
0.0000000e+00 4.9914826e-07 0.0000000e+00 
0.0000000e+00 6.6942664e-07 0.0000000e+00 
-9.5045067e-07 -5.1454517e-06 6.5490035e-06 
-5.6430949e-06 5.8928828e-07 -5.4783453e-07 
0.0000000e+00 0.0000000e+00 0.0000000e+00 
0.0000000e+00 0.0000000e+00 0.0000000e+00 
0.0000000e+00 0.0000000e+00 0.0000000e+00 
0.0000000e+00 0.0000000e+00 0.0000000e+00 
0.0000000e+00 0.0000000e+00 0.0000000e+00 
0.0000000e+00 0.0000000e+00 0.0000000e+00 
0.0000000e+00 0.0000000e+00 0.0000000e+00 
0.0000000e+00 0.0000000e+00 0.0000000e+00 
0.0000000e+00 0.0000000e+00 0.0000000e+00 
0.0000000e+00 0.0000000e+00 0.0000000e+00 
0.0000000e+00 0.0000000e+00 0.0000000e+00 
0.0000000e+00 0.0000000e+00 0.0000000e+00 
0.0000000e+00 0.0000000e+00 0.0000000e+00 
0.0000000e+00 0.0000000e+00 0.0000000e+00 
0.0000000e+00 0.0000000e+00 0.0000000e+00 
0.0000000e+00 0.0000000e+00 0.0000000e+00 
0.0000000e+00 0.0000000e+00 0.0000000e+00 
0.0000000e+00 0.0000000e+00 0.0000000e+00 
0.0000000e+00 0.0000000e+00 0.0000000e+00 
0.0000000e+00 0.0000000e+00 0.0000000e+00 
0.0000000e+00 0.0000000e+00 0.0000000e+00 
0.0000000e+00 0.0000000e+00 0.0000000e+00 
0.0000000e+00 0.0000000e+00 0.0000000e+00 
0.0000000e+00 0.0000000e+00 0.0000000e+00 
0.0000000e+00 0.0000000e+00 0.0000000e+00 
0.0000000e+00 0.0000000e+00 0.0000000e+00 
0.0000000e+00 0.0000000e+00 0.0000000e+00 
0.0000000e+00 0.0000000e+00 0.0000000e+00 
0.0000000e+00 0.0000000e+00 0.0000000e+00 
0.0000000e+00 0.0000000e+00 0.0000000e+00 
0.0000000e+00 0.0000000e+00 0.0000000e+00 
0.0000000e+00 0.0000000e+00 0.0000000e+00 
0.0000000e+00 0.0000000e+00 0.0000000e+00 
0.0000000e+00 0.0000000e+00 0.0000000e+00 
0.0000000e+00 0.0000000e+00 0.0000000e+00 
0.0000000e+00 0.0000000e+00 0.0000000e+00 
0.0000000e+00 0.0000000e+00 0.0000000e+00 
0.0000000e+00 0.0000000e+00 0.0000000e+00 
0.0000000e+00 0.0000000e+00 0.0000000e+00 
0.0000000e+00 0.0000000e+00 0.0000000e+00 
0.0000000e+00 0.0000000e+00 0.0000000e+00 
0.0000000e+00 0.0000000e+00 0.0000000e+00 
0.0000000e+00 0.0000000e+00 0.0000000e+00 
0.0000000e+00 0.0000000e+00 0.0000000e+00 
0.0000000e+00 0.0000000e+00 0.0000000e+00 
0.0000000e+00 0.0000000e+00 0.0000000e+00 
0.0000000e+00 0.0000000e+00 0.0000000e+00 
0.0000000e+00 0.0000000e+00 0.0000000e+00 
0.0000000e+00 0.0000000e+00 0.0000000e+00 
0.0000000e+00 0.0000000e+00 0.0000000e+00 
0.0000000e+00 0.0000000e+00 0.0000000e+00 
0.0000000e+00 0.0000000e+00 0.0000000e+00 
0.0000000e+00 0.0000000e+00 0.0000000e+00 
0.0000000e+00 0.0000000e+00 0.0000000e+00 
0.0000000e+00 0.0000000e+00 0.0000000e+00 
0.0000000e+00 0.0000000e+00 0.0000000e+00 
0.0000000e+00 0.0000000e+00 0.0000000e+00 
0.0000000e+00 0.0000000e+00 0.0000000e+00 
0.0000000e+00 0.0000000e+00 0.0000000e+00 
0.0000000e+00 0.0000000e+00 0.0000000e+00 
0.0000000e+00 0.0000000e+00 0.0000000e+00 
0.0000000e+00 0.0000000e+00 0.0000000e+00 
0.0000000e+00 0.0000000e+00 0.0000000e+00 
0.0000000e+00 0.0000000e+00 0.0000000e+00 
0.0000000e+00 0.0000000e+00 0.0000000e+00 
0.0000000e+00 0.0000000e+00 0.0000000e+00 
0.0000000e+00 0.0000000e+00 0.0000000e+00 
0.0000000e+00 0.0000000e+00 0.0000000e+00 
0.0000000e+00 0.0000000e+00 0.0000000e+00 
0.0000000e+00 0.0000000e+00 0.0000000e+00 
0.0000000e+00 0.0000000e+00 0.0000000e+00 
0.0000000e+00 0.0000000e+00 0.0000000e+00 
0.0000000e+00 0.0000000e+00 0.0000000e+00 
0.0000000e+00 0.0000000e+00 0.0000000e+00 
0.0000000e+00 0.0000000e+00 0.0000000e+00 
0.0000000e+00 0.0000000e+00 0.0000000e+00 
0.0000000e+00 0.0000000e+00 0.0000000e+00 
0.0000000e+00 0.0000000e+00 0.0000000e+00 
0.0000000e+00 0.0000000e+00 0.0000000e+00 
0.0000000e+00 0.0000000e+00 0.0000000e+00 
0.0000000e+00 0.0000000e+00 0.0000000e+00 
0.0000000e+00 0.0000000e+00 0.0000000e+00 
0.0000000e+00 0.0000000e+00 0.0000000e+00 
0.0000000e+00 0.0000000e+00 0.0000000e+00 
0.0000000e+00 0.0000000e+00 0.0000000e+00 
0.0000000e+00 0.0000000e+00 0.0000000e+00 
0.0000000e+00 0.0000000e+00 0.0000000e+00 
0.0000000e+00 0.0000000e+00 0.0000000e+00 
0.0000000e+00 0.0000000e+00 0.0000000e+00 
0.0000000e+00 0.0000000e+00 0.0000000e+00 
0.0000000e+00 0.0000000e+00 0.0000000e+00 
0.0000000e+00 0.0000000e+00 0.0000000e+00 
0.0000000e+00 0.0000000e+00 0.0000000e+00 
0.0000000e+00 0.0000000e+00 0.0000000e+00 
0.0000000e+00 0.0000000e+00 0.0000000e+00 
0.0000000e+00 0.0000000e+00 0.0000000e+00 
0.0000000e+00 0.0000000e+00 0.0000000e+00 
0.0000000e+00 0.0000000e+00 0.0000000e+00 
0.0000000e+00 0.0000000e+00 0.0000000e+00 
0.0000000e+00 0.0000000e+00 0.0000000e+00 
0.0000000e+00 0.0000000e+00 0.0000000e+00 
0.0000000e+00 0.0000000e+00 0.0000000e+00 
0.0000000e+00 0.0000000e+00 0.0000000e+00 
0.0000000e+00 0.0000000e+00 0.0000000e+00 
0.0000000e+00 0.0000000e+00 0.0000000e+00 
0.0000000e+00 0.0000000e+00 0.0000000e+00 
3.1268867e-06 -5.2735743e-07 -5.7610218e-06 
4.2619959e-06 -7.9347035e-07 -8.1691851e-06 
1.5804184e-05 -5.4701964e-06 -1.2705512e-05 
3.6276448e-05 -2.0887021e-05 -9.1814472e-06 
4.2187261e-05 -3.6004509e-05 5.1179376e-07 
4.5803870e-05 -2.9131268e-05 8.7262833e-06 
5.3658281e-05 -2.3036846e-05 1.8035666e-05 
3.7908572e-05 -1.1452283e-05 2.7293030e-05 
2.1097690e-05 -1.6913607e-06 1.9794006e-05 
1.5246435e-05 -5.2891405e-06 1.3707165e-05 
6.2588701e-06 -4.5112429e-06 4.2622673e-06 
1.6487119e-06 1.7905285e-06 -1.0358071e-05 
1.9880638e-06 3.3520680e-06 -1.7070935e-05 
4.1598387e-06 1.5241613e-06 -1.3944638e-05 
-6.8785295e-07 1.8398336e-07 -8.6861646e-06 
-6.8043204e-07 -8.9935857e-06 -3.9217762e-06 
-4.5371283e-07 -1.4757377e-05 -5.4468233e-06 
-3.7615505e-06 -4.3999503e-06 -8.1817097e-06 
-5.5071786e-07 -7.7949480e-06 -7.3281099e-06 
-5.6686044e-06 -6.8406807e-06 -7.7379345e-06 
5.8736832e-06 -4.7950539e-06 -1.4337615e-05 
1.4447111e-05 -1.4529007e-05 -1.2814413e-05 
1.9882438e-05 -1.8624100e-05 -1.3111039e-05 
3.4427845e-05 -1.4497527e-05 -7.8842113e-06 
4.5104392e-05 -2.2100507e-05 9.1966731e-06 
5.3204167e-05 -1.6016300e-05 2.4942121e-05 
5.3441174e-05 -1.1673579e-05 3.5508565e-05 
3.8445622e-05 -6.4391406e-06 3.4414970e-05 
2.4396284e-05 -6.8032523e-06 1.6754748e-05 
1.2240625e-05 -7.2227153e-06 5.0916988e-06 
2.4855221e-06 -2.5510647e-06 -2.4125270e-06 
-1.3491078e-06 2.3946213e-06 -6.3951302e-06 
-2.1014619e-06 4.5841639e-06 -6.0510406e-06 
-1.8293206e-06 1.2993645e-06 -3.4063606e-07 
-1.4858396e-06 -4.8544365e-07 3.0441349e-06 
3.1913947e-07 -1.8405779e-06 3.4896091e-06 
6.5463354e-07 -3.6128543e-07 1.4054582e-06 
3.4336946e-07 5.9366322e-08 2.6099258e-07 
-1.6188635e-07 3.2013990e-08 -3.9617558e-07 
-5.2376205e-08 -3.6510923e-07 -1.5306972e-07 
2.6741224e-08 2.8221149e-07 5.5335480e-08 
3.6951495e-09 2.5257046e-07 1.1690463e-07 
4.7267331e-08 -2.1126233e-07 5.8285558e-08 
4.9397020e-08 -3.6275583e-08 -6.0566926e-08 
-3.5342495e-08 1.6015075e-07 -9.1286880e-09 
-2.6044617e-08 8.1585043e-08 9.8437551e-09 
4.8304752e-08 -9.1012907e-08 3.7762131e-09 
2.3849022e-08 -2.6856352e-08 1.2795827e-08 
-3.3531190e-08 5.3691476e-08 -4.2926313e-08 
0.0000000e+00 1.4667465e-04 0.0000000e+00 
0.0000000e+00 9.2538969e-05 0.0000000e+00 
0.0000000e+00 -6.7843750e-05 0.0000000e+00 
0.0000000e+00 -1.9003301e-04 0.0000000e+00 
0.0000000e+00 -3.0992168e-04 0.0000000e+00 
0.0000000e+00 -4.0333517e-04 0.0000000e+00 
0.0000000e+00 -4.2713730e-04 0.0000000e+00 
0.0000000e+00 -3.4066255e-04 0.0000000e+00 
0.0000000e+00 -1.6318512e-04 0.0000000e+00 
0.0000000e+00 -6.3130523e-05 0.0000000e+00 
0.0000000e+00 -3.5828736e-05 0.0000000e+00 
0.0000000e+00 -6.3508569e-06 0.0000000e+00 
0.0000000e+00 6.0449765e-06 0.0000000e+00 
0.0000000e+00 -1.4532661e-06 0.0000000e+00 
0.0000000e+00 -2.0260173e-05 0.0000000e+00 
0.0000000e+00 6.0114118e-08 0.0000000e+00 
0.0000000e+00 -1.6633221e-05 0.0000000e+00 
0.0000000e+00 1.8067114e-05 0.0000000e+00 
0.0000000e+00 7.8999590e-05 0.0000000e+00 
0.0000000e+00 3.8466515e-05 0.0000000e+00 
0.0000000e+00 3.3412976e-05 0.0000000e+00 
0.0000000e+00 4.1531595e-05 0.0000000e+00 
0.0000000e+00 -1.2550266e-04 0.0000000e+00 
0.0000000e+00 -2.5306377e-04 0.0000000e+00 
0.0000000e+00 -3.4747523e-04 0.0000000e+00 
0.0000000e+00 -4.2875271e-04 0.0000000e+00 
0.0000000e+00 -4.0782205e-04 0.0000000e+00 
0.0000000e+00 -3.1236102e-04 0.0000000e+00 
0.0000000e+00 -1.5881579e-04 0.0000000e+00 
0.0000000e+00 -7.4530602e-05 0.0000000e+00 
0.0000000e+00 -2.2662216e-05 0.0000000e+00 
0.0000000e+00 -5.7402267e-06 0.0000000e+00 
0.0000000e+00 1.5253245e-05 0.0000000e+00 
0.0000000e+00 2.0323845e-05 0.0000000e+00 
0.0000000e+00 7.5964531e-06 0.0000000e+00 
0.0000000e+00 -3.0574222e-06 0.0000000e+00 
0.0000000e+00 -7.5280782e-06 0.0000000e+00 
0.0000000e+00 -1.9312670e-06 0.0000000e+00 
0.0000000e+00 1.8416752e-06 0.0000000e+00 
0.0000000e+00 1.6258110e-06 0.0000000e+00 
0.0000000e+00 -6.4753749e-07 0.0000000e+00 
0.0000000e+00 -5.9336310e-07 0.0000000e+00 
0.0000000e+00 3.7557152e-07 0.0000000e+00 
0.0000000e+00 7.2766122e-09 0.0000000e+00 
0.0000000e+00 -3.2159272e-07 0.0000000e+00 
0.0000000e+00 8.4996650e-08 0.0000000e+00 
0.0000000e+00 2.7280549e-07 0.0000000e+00 
0.0000000e+00 -1.9632414e-07 0.0000000e+00 
0.0000000e+00 -1.5928200e-07 0.0000000e+00 
-1.1473834e-05 1.0781620e-05 3.1439222e-06 
-2.1462783e-05 -3.7389836e-07 4.0911195e-06 
-3.6523052e-05 2.9747798e-05 -5.0788703e-06 
-2.2719827e-05 8.7473927e-05 8.5716169e-07 
-2.7759173e-08 1.8514511e-08 -2.2140519e-08 
1.1202597e-08 -9.5462234e-08 -6.8401256e-08 
-1.6671581e-08 -8.8192671e-08 6.1947794e-08 
-1.3693389e-08 -1.1698542e-08 7.4868440e-09 
2.6353615e-05 -7.2747625e-06 -9.2868750e-06 
2.4817931e-05 -5.2966188e-06 -2.5909555e-06 
3.5344427e-05 -2.3100877e-06 7.6746107e-07 
5.4582182e-05 -2.2927357e-05 6.9376074e-06 
5.6789115e-05 -4.9402508e-05 4.2269685e-06 
6.0047383e-05 -3.5176170e-05 5.9857530e-06 
6.6418535e-05 -1.9323801e-05 1.4658325e-05 
5.5368397e-05 -7.1838144e-06 2.9158371e-05 
3.2866476e-05 4.0165428e-06 3.3315413e-05 
1.5892687e-05 -3.9023275e-06 2.4586318e-05 
-2.9122916e-06 -2.1288117e-06 9.8737000e-06 
-5.1147808e-06 1.7357866e-06 -1.7645019e-05 
-4.5359993e-06 1.0343258e-05 -3.2535812e-05 
6.1894179e-06 2.5425959e-06 -1.7121509e-05 
1.2229786e-05 -2.4854305e-06 -7.3740575e-06 
8.6397795e-06 -1.7782369e-05 -4.2141487e-06 
1.8259103e-05 -1.2513191e-05 -1.0900452e-05 
2.7387225e-05 -1.0477464e-05 -1.5356962e-05 
2.4222529e-05 -1.6927695e-05 -1.1433323e-05 