# vtk DataFile Version 4.0
vtk output
ASCII
DATASET UNSTRUCTURED_GRID
POINTS 1919 float
0.0000000e+00 0.0000000e+00 0.0000000e+00 
0.0000000e+00 0.0000000e+00 5.0000000e+01 
5.0000000e+00 0.0000000e+00 0.0000000e+00 
5.0000000e+00 0.0000000e+00 5.0000000e+01 
5.0000000e+00 1.0000000e+00 0.0000000e+00 
5.0000000e+00 1.0000000e+00 5.0000000e+01 
0.0000000e+00 1.0000000e+00 0.0000000e+00 
0.0000000e+00 1.0000000e+00 5.0000000e+01 
5.0000000e+00 2.0000000e+00 0.0000000e+00 
5.0000000e+00 2.0000000e+00 5.0000000e+01 
3.0000000e+00 2.0000000e+00 0.0000000e+00 
3.0000000e+00 2.0000000e+00 5.0000000e+01 
0.0000000e+00 2.0000000e+00 0.0000000e+00 
0.0000000e+00 2.0000000e+00 5.0000000e+01 
1.5000000e+00 3.0000000e+00 0.0000000e+00 
1.5000000e+00 3.0000000e+00 5.0000000e+01 
7.5000000e-01 3.0000000e+00 0.0000000e+00 
7.5000000e-01 3.0000000e+00 5.0000000e+01 
0.0000000e+00 3.0000000e+00 0.0000000e+00 
0.0000000e+00 3.0000000e+00 5.0000000e+01 
7.5000000e-01 3.0000000e+00 5.0000000e-01 
7.5000000e-01 3.0000000e+00 1.0000000e+00 
7.5000000e-01 3.0000000e+00 1.5000000e+00 
7.5000000e-01 3.0000000e+00 2.0000000e+00 
7.5000000e-01 3.0000000e+00 2.5000000e+00 
7.5000000e-01 3.0000000e+00 3.0000000e+00 
7.5000000e-01 3.0000000e+00 3.5000000e+00 
7.5000000e-01 3.0000000e+00 4.0000000e+00 
7.5000000e-01 3.0000000e+00 4.5000000e+00 
7.5000000e-01 3.0000000e+00 5.0000000e+00 
7.5000000e-01 3.0000000e+00 5.5000000e+00 
7.5000000e-01 3.0000000e+00 6.0000000e+00 
7.5000000e-01 3.0000000e+00 6.5000000e+00 
7.5000000e-01 3.0000000e+00 7.0000000e+00 
7.5000000e-01 3.0000000e+00 7.5000000e+00 
7.5000000e-01 3.0000000e+00 8.0000000e+00 
7.5000000e-01 3.0000000e+00 8.5000000e+00 
7.5000000e-01 3.0000000e+00 9.0000000e+00 
7.5000000e-01 3.0000000e+00 9.5000000e+00 
7.5000000e-01 3.0000000e+00 1.0000000e+01 
7.5000000e-01 3.0000000e+00 1.0500000e+01 
7.5000000e-01 3.0000000e+00 1.1000000e+01 
7.5000000e-01 3.0000000e+00 1.1500000e+01 
7.5000000e-01 3.0000000e+00 1.2000000e+01 
7.5000000e-01 3.0000000e+00 1.2500000e+01 
7.5000000e-01 3.0000000e+00 1.3000000e+01 
7.5000000e-01 3.0000000e+00 1.3500000e+01 
7.5000000e-01 3.0000000e+00 1.4000000e+01 
7.5000000e-01 3.0000000e+00 1.4500000e+01 
7.5000000e-01 3.0000000e+00 1.5000000e+01 
7.5000000e-01 3.0000000e+00 1.5500000e+01 
7.5000000e-01 3.0000000e+00 1.6000000e+01 
7.5000000e-01 3.0000000e+00 1.6500000e+01 
7.5000000e-01 3.0000000e+00 1.7000000e+01 
7.5000000e-01 3.0000000e+00 1.7500000e+01 
7.5000000e-01 3.0000000e+00 1.8000000e+01 
7.5000000e-01 3.0000000e+00 1.8500000e+01 
7.5000000e-01 3.0000000e+00 1.9000000e+01 
7.5000000e-01 3.0000000e+00 1.9500000e+01 
7.5000000e-01 3.0000000e+00 2.0000000e+01 
7.5000000e-01 3.0000000e+00 2.0500000e+01 
7.5000000e-01 3.0000000e+00 2.1000000e+01 
7.5000000e-01 3.0000000e+00 2.1500000e+01 
7.5000000e-01 3.0000000e+00 2.2000000e+01 
7.5000000e-01 3.0000000e+00 2.2500000e+01 
7.5000000e-01 3.0000000e+00 2.3000000e+01 
7.5000000e-01 3.0000000e+00 2.3500000e+01 
7.5000000e-01 3.0000000e+00 2.4000000e+01 
7.5000000e-01 3.0000000e+00 2.4500000e+01 
7.5000000e-01 3.0000000e+00 2.5000000e+01 
7.5000000e-01 3.0000000e+00 2.5500000e+01 
7.5000000e-01 3.0000000e+00 2.6000000e+01 
7.5000000e-01 3.0000000e+00 2.6500000e+01 
7.5000000e-01 3.0000000e+00 2.7000000e+01 
7.5000000e-01 3.0000000e+00 2.7500000e+01 
7.5000000e-01 3.0000000e+00 2.8000000e+01 
7.5000000e-01 3.0000000e+00 2.8500000e+01 
7.5000000e-01 3.0000000e+00 2.9000000e+01 
7.5000000e-01 3.0000000e+00 2.9500000e+01 
7.5000000e-01 3.0000000e+00 3.0000000e+01 
7.5000000e-01 3.0000000e+00 3.0500000e+01 
7.5000000e-01 3.0000000e+00 3.1000000e+01 
7.5000000e-01 3.0000000e+00 3.1500000e+01 
7.5000000e-01 3.0000000e+00 3.2000000e+01 
7.5000000e-01 3.0000000e+00 3.2500000e+01 
7.5000000e-01 3.0000000e+00 3.3000000e+01 
7.5000000e-01 3.0000000e+00 3.3500000e+01 
7.5000000e-01 3.0000000e+00 3.4000000e+01 
7.5000000e-01 3.0000000e+00 3.4500000e+01 
7.5000000e-01 3.0000000e+00 3.5000000e+01 
7.5000000e-01 3.0000000e+00 3.5500000e+01 
7.5000000e-01 3.0000000e+00 3.6000000e+01 
7.5000000e-01 3.0000000e+00 3.6500000e+01 
7.5000000e-01 3.0000000e+00 3.7000000e+01 
7.5000000e-01 3.0000000e+00 3.7500000e+01 
7.5000000e-01 3.0000000e+00 3.8000000e+01 
7.5000000e-01 3.0000000e+00 3.8500000e+01 
7.5000000e-01 3.0000000e+00 3.9000000e+01 
7.5000000e-01 3.0000000e+00 3.9500000e+01 
7.5000000e-01 3.0000000e+00 4.0000000e+01 
7.5000000e-01 3.0000000e+00 4.0500000e+01 
7.5000000e-01 3.0000000e+00 4.1000000e+01 
7.5000000e-01 3.0000000e+00 4.1500000e+01 
7.5000000e-01 3.0000000e+00 4.2000000e+01 
7.5000000e-01 3.0000000e+00 4.2500000e+01 
7.5000000e-01 3.0000000e+00 4.3000000e+01 
7.5000000e-01 3.0000000e+00 4.3500000e+01 
7.5000000e-01 3.0000000e+00 4.4000000e+01 
7.5000000e-01 3.0000000e+00 4.4500000e+01 
7.5000000e-01 3.0000000e+00 4.5000000e+01 
7.5000000e-01 3.0000000e+00 4.5500000e+01 
7.5000000e-01 3.0000000e+00 4.6000000e+01 
7.5000000e-01 3.0000000e+00 4.6500000e+01 
7.5000000e-01 3.0000000e+00 4.7000000e+01 
7.5000000e-01 3.0000000e+00 4.7500000e+01 
7.5000000e-01 3.0000000e+00 4.8000000e+01 
7.5000000e-01 3.0000000e+00 4.8500000e+01 
7.5000000e-01 3.0000000e+00 4.9000000e+01 
7.5000000e-01 3.0000000e+00 4.9500000e+01 
7.5000000e-01 3.0250001e+00 0.0000000e+00 
7.5000000e-01 3.0250001e+00 5.0000000e-01 
7.5000000e-01 3.0250001e+00 1.0000000e+00 
7.5000000e-01 3.0250001e+00 1.5000000e+00 
7.5000000e-01 3.0250001e+00 2.0000000e+00 
7.5000000e-01 3.0250001e+00 2.5000000e+00 
7.5000000e-01 3.0250001e+00 3.0000000e+00 
7.5000000e-01 3.0250001e+00 3.5000000e+00 
7.5000000e-01 3.0250001e+00 4.0000000e+00 
7.5000000e-01 3.0250001e+00 4.5000000e+00 
7.5000000e-01 3.0250001e+00 5.0000000e+00 
7.5000000e-01 3.0250001e+00 5.5000000e+00 
7.5000000e-01 3.0250001e+00 6.0000000e+00 
7.5000000e-01 3.0250001e+00 6.5000000e+00 
7.5000000e-01 3.0250001e+00 7.0000000e+00 
7.5000000e-01 3.0250001e+00 7.5000000e+00 
7.5000000e-01 3.0250001e+00 8.0000000e+00 
7.5000000e-01 3.0250001e+00 8.5000000e+00 
7.5000000e-01 3.0250001e+00 9.0000000e+00 
7.5000000e-01 3.0250001e+00 9.5000000e+00 
7.5000000e-01 3.0250001e+00 1.0000000e+01 
7.5000000e-01 3.0250001e+00 1.0500000e+01 
7.5000000e-01 3.0250001e+00 1.1000000e+01 
7.5000000e-01 3.0250001e+00 1.1500000e+01 
7.5000000e-01 3.0250001e+00 1.2000000e+01 
7.5000000e-01 3.0250001e+00 1.2500000e+01 
7.5000000e-01 3.0250001e+00 1.3000000e+01 
7.5000000e-01 3.0250001e+00 1.3500000e+01 
7.5000000e-01 3.0250001e+00 1.4000000e+01 
7.5000000e-01 3.0250001e+00 1.4500000e+01 
7.5000000e-01 3.0250001e+00 1.5000000e+01 
7.5000000e-01 3.0250001e+00 1.5500000e+01 
7.5000000e-01 3.0250001e+00 1.6000000e+01 
7.5000000e-01 3.0250001e+00 1.6500000e+01 
7.5000000e-01 3.0250001e+00 1.7000000e+01 
7.5000000e-01 3.0250001e+00 1.7500000e+01 
7.5000000e-01 3.0250001e+00 1.8000000e+01 
7.5000000e-01 3.0250001e+00 1.8500000e+01 
7.5000000e-01 3.0250001e+00 1.9000000e+01 
7.5000000e-01 3.0250001e+00 1.9500000e+01 
7.5000000e-01 3.0250001e+00 2.0000000e+01 
7.5000000e-01 3.0250001e+00 2.0500000e+01 
7.5000000e-01 3.0250001e+00 2.1000000e+01 
7.5000000e-01 3.0250001e+00 2.1500000e+01 
7.5000000e-01 3.0250001e+00 2.2000000e+01 
7.5000000e-01 3.0250001e+00 2.2500000e+01 
7.5000000e-01 3.0250001e+00 2.3000000e+01 
7.5000000e-01 3.0250001e+00 2.3500000e+01 
7.5000000e-01 3.0250001e+00 2.4000000e+01 
7.5000000e-01 3.0250001e+00 2.4500000e+01 
7.5000000e-01 3.0250001e+00 2.5000000e+01 
7.5000000e-01 3.0250001e+00 2.5500000e+01 
7.5000000e-01 3.0250001e+00 2.6000000e+01 
7.5000000e-01 3.0250001e+00 2.6500000e+01 
7.5000000e-01 3.0250001e+00 2.7000000e+01 
7.5000000e-01 3.0250001e+00 2.7500000e+01 
7.5000000e-01 3.0250001e+00 2.8000000e+01 
7.5000000e-01 3.0250001e+00 2.8500000e+01 
7.5000000e-01 3.0250001e+00 2.9000000e+01 
7.5000000e-01 3.0250001e+00 2.9500000e+01 
7.5000000e-01 3.0250001e+00 3.0000000e+01 
7.5000000e-01 3.0250001e+00 3.0500000e+01 
7.5000000e-01 3.0250001e+00 3.1000000e+01 
7.5000000e-01 3.0250001e+00 3.1500000e+01 
7.5000000e-01 3.0250001e+00 3.2000000e+01 
7.5000000e-01 3.0250001e+00 3.2500000e+01 
7.5000000e-01 3.0250001e+00 3.3000000e+01 
7.5000000e-01 3.0250001e+00 3.3500000e+01 
7.5000000e-01 3.0250001e+00 3.4000000e+01 
7.5000000e-01 3.0250001e+00 3.4500000e+01 
7.5000000e-01 3.0250001e+00 3.5000000e+01 
7.5000000e-01 3.0250001e+00 3.5500000e+01 
7.5000000e-01 3.0250001e+00 3.6000000e+01 
7.5000000e-01 3.0250001e+00 3.6500000e+01 
7.5000000e-01 3.0250001e+00 3.7000000e+01 
7.5000000e-01 3.0250001e+00 3.7500000e+01 
7.5000000e-01 3.0250001e+00 3.8000000e+01 
7.5000000e-01 3.0250001e+00 3.8500000e+01 
7.5000000e-01 3.0250001e+00 3.9000000e+01 
7.5000000e-01 3.0250001e+00 3.9500000e+01 
7.5000000e-01 3.0250001e+00 4.0000000e+01 
7.5000000e-01 3.0250001e+00 4.0500000e+01 
7.5000000e-01 3.0250001e+00 4.1000000e+01 
7.5000000e-01 3.0250001e+00 4.1500000e+01 
7.5000000e-01 3.0250001e+00 4.2000000e+01 
7.5000000e-01 3.0250001e+00 4.2500000e+01 
7.5000000e-01 3.0250001e+00 4.3000000e+01 
7.5000000e-01 3.0250001e+00 4.3500000e+01 
7.5000000e-01 3.0250001e+00 4.4000000e+01 
7.5000000e-01 3.0250001e+00 4.4500000e+01 
7.5000000e-01 3.0250001e+00 4.5000000e+01 
7.5000000e-01 3.0250001e+00 4.5500000e+01 
7.5000000e-01 3.0250001e+00 4.6000000e+01 
7.5000000e-01 3.0250001e+00 4.6500000e+01 
7.5000000e-01 3.0250001e+00 4.7000000e+01 
7.5000000e-01 3.0250001e+00 4.7500000e+01 
7.5000000e-01 3.0250001e+00 4.8000000e+01 
7.5000000e-01 3.0250001e+00 4.8500000e+01 
7.5000000e-01 3.0250001e+00 4.9000000e+01 
7.5000000e-01 3.0250001e+00 4.9500000e+01 
7.5000000e-01 3.0250001e+00 5.0000000e+01 
3.0000000e+00 2.0000000e+00 3.6000000e+01 
8.0487806e-01 3.0000000e+00 3.6000000e+01 
0.0000000e+00 0.0000000e+00 1.0000000e+00 
0.0000000e+00 0.0000000e+00 2.0000000e+00 
0.0000000e+00 0.0000000e+00 3.0000000e+00 
0.0000000e+00 0.0000000e+00 4.0000000e+00 
0.0000000e+00 0.0000000e+00 5.0000000e+00 
0.0000000e+00 0.0000000e+00 6.0000000e+00 
0.0000000e+00 0.0000000e+00 7.0000000e+00 
0.0000000e+00 0.0000000e+00 8.0000000e+00 
[...]
POINT_DATA 1919
FIELD FieldData 3
DISPLACEMENT 3 1919  float
0.0000000e+00 0.0000000e+00 0.0000000e+00 
0.0000000e+00 0.0000000e+00 0.0000000e+00 
0.0000000e+00 0.0000000e+00 0.0000000e+00 
0.0000000e+00 0.0000000e+00 0.0000000e+00 
1.4751820e-08 -2.6370335e-06 -7.4090036e-07 
-2.0873161e-07 2.0766448e-07 -3.4631213e-07 
0.0000000e+00 1.8879997e-05 0.0000000e+00 
0.0000000e+00 7.3170190e-06 0.0000000e+00 
6.2122780e-07 1.1483265e-06 -7.1038551e-07 
-5.6316532e-07 4.6909329e-07 -1.7873563e-06 
6.3782281e-06 -8.2887465e-07 -4.0821565e-06 
-1.3318324e-06 -7.8970061e-08 -2.3957100e-06 
0.0000000e+00 1.1872007e-05 0.0000000e+00 
0.0000000e+00 1.8126586e-05 0.0000000e+00 
1.8056002e-05 -1.2895960e-05 -5.3808839e-05 
2.1273675e-06 1.8221524e-05 -2.0489515e-05 
7.5169180e-07 1.0257617e-04 -3.2871852e-05 
1.1887842e-05 -2.1348884e-05 2.1781900e-06 
0.0000000e+00 -6.5777895e-06 0.0000000e+00 
0.0000000e+00 4.4669054e-05 0.0000000e+00 
2.1813974e-05 9.9184326e-05 -3.6337897e-05 
2.0779375e-05 9.3743809e-05 -2.5473610e-05 
2.7199294e-05 9.7448246e-05 -1.4331708e-05 
2.7196638e-05 1.1695833e-04 -5.4599950e-06 
2.4276276e-05 1.4536793e-04 9.9496019e-06 
2.5984540e-05 1.6505492e-04 1.9157478e-05 
2.4591371e-05 1.6292914e-04 2.8756611e-05 
2.3948800e-05 1.4621159e-04 3.0487327e-05 
2.5536518e-05 1.3284999e-04 2.4528443e-05 
3.2462824e-05 1.3453791e-04 1.9248984e-05 
4.2080545e-05 1.4761018e-04 2.8870940e-05 
3.5710509e-05 1.5752314e-04 2.7316024e-05 
3.7005775e-05 1.4838215e-04 3.8249582e-05 
3.7327005e-05 1.1559654e-04 3.8855738e-05 
3.2126878e-05 7.5140248e-05 2.5946967e-05 
2.5713529e-05 5.4385360e-05 1.4056885e-05 
8.5678566e-06 6.5852211e-05 2.6520675e-05 
-2.1691178e-06 9.3758419e-05 2.1139678e-05 
4.7759215e-07 1.1063173e-04 2.5325058e-05 
-1.9354911e-05 9.7182681e-05 2.0999751e-05 
-4.0324776e-05 5.8983627e-05 9.1171905e-06 
-3.0680414e-05 5.7878801e-06 2.1900749e-05 
-3.3941320e-05 -7.8106117e-05 5.2011772e-05 
-4.4437056e-05 -2.5442548e-04 5.8763846e-05 
-5.2887008e-05 -6.3576276e-04 1.5039594e-04 
-6.9129332e-05 -1.3385814e-03 1.0331094e-04 
-8.0868573e-05 -2.3890021e-03 2.0011816e-04 
-1.2804542e-04 -3.5808736e-03 5.8757181e-05 
-1.9476280e-04 -4.4811559e-03 1.1662845e-04 
-2.3181477e-04 -4.5827446e-03 -3.8508460e-06 
-2.2040703e-04 -4.3622954e-03 -2.1500955e-05 
-2.1928755e-04 -4.3200292e-03 -3.5556139e-05 
-2.0516795e-04 -4.5706686e-03 -1.2603404e-05 
-2.4574116e-04 -4.6553626e-03 -8.7193934e-05 
-2.3649569e-04 -4.0326673e-03 -1.8711211e-04 
-1.7474573e-04 -2.9515570e-03 -1.4889920e-04 
-1.2289545e-04 -1.8654835e-03 -2.7037234e-04 
-6.5224092e-05 -9.7379467e-04 -1.8942262e-04 
-7.4479030e-06 -3.4761609e-04 -2.1271885e-04 
3.9941224e-05 2.9526602e-05 -1.2266492e-04 
6.4216365e-05 2.1344602e-04 -8.7421678e-05 
6.0614711e-05 2.7912480e-04 -4.0825093e-05 
5.3028503e-05 2.9328885e-04 -2.1123185e-05 
5.1267201e-05 2.9365349e-04 -1.0785503e-05 
4.2476502e-05 2.9325011e-04 -5.4311395e-06 
6.0349314e-05 2.9358943e-04 -4.2738702e-06 
6.5791603e-05 2.9406793e-04 4.9038117e-06 
6.3687119e-05 2.9546270e-04 2.5134303e-05 
6.6451066e-05 3.0122985e-04 2.6721156e-05 
7.4091004e-05 3.1441977e-04 3.8513532e-05 
8.7671906e-05 3.2800218e-04 4.9566570e-05 
7.7626377e-05 3.3256845e-04 5.4659322e-05 
6.0450129e-05 3.1230121e-04 7.9207210e-05 
3.1476717e-05 2.5657774e-04 8.6242508e-05 
6.4229571e-06 1.7225894e-04 8.9566471e-05 
4.5913625e-06 8.7966007e-05 6.6459950e-05 
1.0694154e-05 4.1727406e-05 5.3090786e-05 
1.4775890e-05 5.6811557e-05 3.7404639e-05 
2.3039272e-05 1.1438983e-04 5.7641279e-05 
2.4122808e-05 1.5982184e-04 8.4575673e-05 
1.7488575e-05 1.4756840e-04 1.0586806e-04 
1.2205935e-05 5.8536691e-05 1.2824341e-04 
-1.6045660e-05 -1.0709000e-04 1.5227569e-04 
-3.7979906e-05 -3.7604899e-04 1.4276177e-04 
-6.8211397e-05 -8.3626638e-04 2.3026146e-04 
-1.4292715e-04 -1.5925390e-03 1.2156359e-04 
-1.8733735e-04 -2.6990760e-03 2.2225179e-04 
-2.7636238e-04 -3.9885477e-03 4.2203694e-05 
-2.8853494e-04 -4.9960469e-03 8.7056842e-06 
-3.9546071e-06 -5.1129954e-03 2.4996272e-05 
-2.2224085e-04 -4.8246067e-03 7.0170063e-05 
-2.6640538e-04 -4.7158515e-03 -4.1565425e-05 
-2.9735104e-04 -4.9110679e-03 -7.1061928e-05 
-1.7564773e-04 -4.9039437e-03 -1.9378828e-04 
-2.7109127e-04 -4.1100420e-03 -3.4883770e-04 
-1.8853492e-04 -2.8873230e-03 -2.4935405e-04 
-1.1344841e-04 -1.7384621e-03 -3.1540971e-04 
-6.7634443e-05 -8.6334505e-04 -1.7194472e-04 
-2.3652901e-05 -3.1571582e-04 -1.5732528e-04 
2.3019679e-06 -3.5540284e-05 -6.4288106e-05 
1.6852904e-05 6.8929738e-05 -1.9017056e-05 
1.2272461e-05 8.0349258e-05 1.3762606e-05 
1.6316619e-06 5.5749315e-05 3.4496541e-05 
-5.9049793e-08 2.4908370e-05 3.3586224e-05 
-2.3706821e-06 7.3194346e-06 3.2657517e-05 
6.5031609e-06 1.0238389e-05 3.2828630e-05 
2.0504529e-05 3.1279920e-05 3.4476358e-05 
2.1283853e-05 5.7392117e-05 4.2924807e-05 
2.8725165e-06 7.4995260e-05 1.6683862e-05 
1.5595000e-06 7.6639910e-05 8.2814825e-07 
4.2959311e-07 6.4559048e-05 -7.3990104e-06 
-2.6038601e-06 4.4862012e-05 -6.0418106e-06 
-2.8742002e-07 2.1602093e-05 5.4611760e-06 
-8.0365608e-06 -2.7517315e-06 7.2785110e-06 
-1.6338578e-05 -2.5043171e-05 -2.3189307e-07 
-9.8423116e-06 -3.9879349e-05 -1.7092212e-05 
-5.2081864e-06 -4.2659125e-05 -3.4632980e-05 
-1.8902601e-06 -3.5821395e-05 -4.1301762e-05 
6.1134042e-06 -2.5868590e-05 -2.8554250e-05 
0.0000000e+00 1.0243451e-04 0.0000000e+00 
0.0000000e+00 9.8985933e-05 0.0000000e+00 
0.0000000e+00 9.3894851e-05 0.0000000e+00 
0.0000000e+00 9.8009165e-05 0.0000000e+00 
0.0000000e+00 1.1746593e-04 0.0000000e+00 
0.0000000e+00 1.4529041e-04 0.0000000e+00 
0.0000000e+00 1.6424661e-04 0.0000000e+00 
0.0000000e+00 1.6241919e-04 0.0000000e+00 
0.0000000e+00 1.4640900e-04 0.0000000e+00 
0.0000000e+00 1.3351033e-04 0.0000000e+00 
0.0000000e+00 1.3508901e-04 0.0000000e+00 
0.0000000e+00 1.4790329e-04 0.0000000e+00 
0.0000000e+00 1.5727714e-04 0.0000000e+00 
0.0000000e+00 1.4752125e-04 0.0000000e+00 
0.0000000e+00 1.1488883e-04 0.0000000e+00 
0.0000000e+00 7.5454052e-05 0.0000000e+00 
0.0000000e+00 5.5532677e-05 0.0000000e+00 
0.0000000e+00 6.6864624e-05 0.0000000e+00 
0.0000000e+00 9.4010742e-05 0.0000000e+00 
0.0000000e+00 1.0967968e-04 0.0000000e+00 
0.0000000e+00 9.6726209e-05 0.0000000e+00 
0.0000000e+00 5.9559246e-05 0.0000000e+00 
0.0000000e+00 7.5805110e-06 0.0000000e+00 
0.0000000e+00 -7.5330077e-05 0.0000000e+00 
0.0000000e+00 -2.5337178e-04 0.0000000e+00 
0.0000000e+00 -6.3936558e-04 0.0000000e+00 
0.0000000e+00 -1.3499848e-03 0.0000000e+00 
0.0000000e+00 -2.4026760e-03 0.0000000e+00 
0.0000000e+00 -3.6033446e-03 0.0000000e+00 
0.0000000e+00 -4.5007728e-03 0.0000000e+00 
0.0000000e+00 -4.6101618e-03 0.0000000e+00 
0.0000000e+00 -4.3853279e-03 0.0000000e+00 
0.0000000e+00 -4.3501500e-03 0.0000000e+00 
0.0000000e+00 -4.5936173e-03 0.0000000e+00 
0.0000000e+00 -4.6841167e-03 0.0000000e+00 
0.0000000e+00 -4.0522348e-03 0.0000000e+00 
0.0000000e+00 -2.9671905e-03 0.0000000e+00 
0.0000000e+00 -1.8721411e-03 0.0000000e+00 
0.0000000e+00 -9.7824552e-04 0.0000000e+00 
0.0000000e+00 -3.4933147e-04 0.0000000e+00 
0.0000000e+00 2.9272151e-05 0.0000000e+00 
0.0000000e+00 2.1435814e-04 0.0000000e+00 
0.0000000e+00 2.8064795e-04 0.0000000e+00 
0.0000000e+00 2.9431478e-04 0.0000000e+00 
0.0000000e+00 2.9412177e-04 0.0000000e+00 
0.0000000e+00 2.9366874e-04 0.0000000e+00 
0.0000000e+00 2.9400529e-04 0.0000000e+00 
0.0000000e+00 2.9416609e-04 0.0000000e+00 
0.0000000e+00 2.9539925e-04 0.0000000e+00 
0.0000000e+00 3.0146443e-04 0.0000000e+00 
0.0000000e+00 3.1444081e-04 0.0000000e+00 
0.0000000e+00 3.2853757e-04 0.0000000e+00 
0.0000000e+00 3.3268210e-04 0.0000000e+00 
0.0000000e+00 3.1174859e-04 0.0000000e+00 
0.0000000e+00 2.5557299e-04 0.0000000e+00 
0.0000000e+00 1.7149927e-04 0.0000000e+00 
0.0000000e+00 8.8275447e-05 0.0000000e+00 
0.0000000e+00 4.3629079e-05 0.0000000e+00 
0.0000000e+00 5.8934384e-05 0.0000000e+00 
0.0000000e+00 1.1478332e-04 0.0000000e+00 
0.0000000e+00 1.5895804e-04 0.0000000e+00 
0.0000000e+00 1.4618106e-04 0.0000000e+00 
0.0000000e+00 5.9097194e-05 0.0000000e+00 
0.0000000e+00 -1.0449049e-04 0.0000000e+00 
0.0000000e+00 -3.7484799e-04 0.0000000e+00 
0.0000000e+00 -8.3804823e-04 0.0000000e+00 
0.0000000e+00 -1.6027289e-03 0.0000000e+00 
0.0000000e+00 -2.7145909e-03 0.0000000e+00 
0.0000000e+00 -4.0170169e-03 0.0000000e+00 
0.0000000e+00 -5.0197709e-03 0.0000000e+00 
0.0000000e+00 -5.1288013e-03 0.0000000e+00 
0.0000000e+00 -4.8487699e-03 0.0000000e+00 
0.0000000e+00 -4.7476804e-03 0.0000000e+00 
0.0000000e+00 -4.9365656e-03 0.0000000e+00 
0.0000000e+00 -4.9385987e-03 0.0000000e+00 
0.0000000e+00 -4.1257325e-03 0.0000000e+00 
0.0000000e+00 -2.9031327e-03 0.0000000e+00 
0.0000000e+00 -1.7463521e-03 0.0000000e+00 
0.0000000e+00 -8.6862111e-04 0.0000000e+00 
0.0000000e+00 -3.1678274e-04 0.0000000e+00 
0.0000000e+00 -3.4606124e-05 0.0000000e+00 
0.0000000e+00 7.0284550e-05 0.0000000e+00 
0.0000000e+00 8.1557526e-05 0.0000000e+00 
0.0000000e+00 5.6265781e-05 0.0000000e+00 
0.0000000e+00 2.5713309e-05 0.0000000e+00 
0.0000000e+00 7.9460287e-06 0.0000000e+00 
0.0000000e+00 1.0652233e-05 0.0000000e+00 
0.0000000e+00 3.1116604e-05 0.0000000e+00 
0.0000000e+00 5.7002824e-05 0.0000000e+00 
0.0000000e+00 7.4609568e-05 0.0000000e+00 
0.0000000e+00 7.6601485e-05 0.0000000e+00 
0.0000000e+00 6.4717482e-05 0.0000000e+00 
0.0000000e+00 4.4874952e-05 0.0000000e+00 
0.0000000e+00 2.1506867e-05 0.0000000e+00 
0.0000000e+00 -2.8435825e-06 0.0000000e+00 
0.0000000e+00 -2.4943074e-05 0.0000000e+00 
0.0000000e+00 -3.9499355e-05 0.0000000e+00 
0.0000000e+00 -4.2472780e-05 0.0000000e+00 
0.0000000e+00 -3.5767000e-05 0.0000000e+00 
0.0000000e+00 -2.6098409e-05 0.0000000e+00 
0.0000000e+00 -2.1575501e-05 0.0000000e+00 
4.9299873e-05 -9.6101205e-05 -2.5375472e-05 
-2.9319242e-04 -4.2713895e-03 -3.5929716e-05 
0.0000000e+00 0.0000000e+00 0.0000000e+00 
0.0000000e+00 0.0000000e+00 0.0000000e+00 
0.0000000e+00 0.0000000e+00 0.0000000e+00 
0.0000000e+00 0.0000000e+00 0.0000000e+00 
0.0000000e+00 0.0000000e+00 0.0000000e+00 
0.0000000e+00 0.0000000e+00 0.0000000e+00 
0.0000000e+00 0.0000000e+00 0.0000000e+00 
0.0000000e+00 0.0000000e+00 0.0000000e+00 
0.0000000e+00 0.0000000e+00 0.0000000e+00 
0.0000000e+00 0.0000000e+00 0.0000000e+00 
0.0000000e+00 0.0000000e+00 0.0000000e+00 
0.0000000e+00 0.0000000e+00 0.0000000e+00 
0.0000000e+00 0.0000000e+00 0.0000000e+00 
0.0000000e+00 0.0000000e+00 0.0000000e+00 
0.0000000e+00 0.0000000e+00 0.0000000e+00 
0.0000000e+00 0.0000000e+00 0.0000000e+00 
0.0000000e+00 0.0000000e+00 0.0000000e+00 
0.0000000e+00 0.0000000e+00 0.0000000e+00 
0.0000000e+00 0.0000000e+00 0.0000000e+00 
0.0000000e+00 0.0000000e+00 0.0000000e+00 
0.0000000e+00 0.0000000e+00 0.0000000e+00 
0.0000000e+00 0.0000000e+00 0.0000000e+00 
0.0000000e+00 0.0000000e+00 0.0000000e+00 
0.0000000e+00 0.0000000e+00 0.0000000e+00 
0.0000000e+00 0.0000000e+00 0.0000000e+00 
0.0000000e+00 0.0000000e+00 0.0000000e+00 
0.0000000e+00 0.0000000e+00 0.0000000e+00 
0.0000000e+00 0.0000000e+00 0.0000000e+00 
0.0000000e+00 0.0000000e+00 0.0000000e+00 
0.0000000e+00 0.0000000e+00 0.0000000e+00 
0.0000000e+00 0.0000000e+00 0.0000000e+00 
0.0000000e+00 0.0000000e+00 0.0000000e+00 
0.0000000e+00 0.0000000e+00 0.0000000e+00 
0.0000000e+00 0.0000000e+00 0.0000000e+00 
0.0000000e+00 0.0000000e+00 0.0000000e+00 
0.0000000e+00 0.0000000e+00 0.0000000e+00 
0.0000000e+00 0.0000000e+00 0.0000000e+00 
0.0000000e+00 0.0000000e+00 0.0000000e+00 
0.0000000e+00 0.0000000e+00 0.0000000e+00 
0.0000000e+00 0.0000000e+00 0.0000000e+00 
0.0000000e+00 0.0000000e+00 0.0000000e+00 
0.0000000e+00 0.0000000e+00 0.0000000e+00 
0.0000000e+00 0.0000000e+00 0.0000000e+00 
0.0000000e+00 0.0000000e+00 0.0000000e+00 
0.0000000e+00 0.0000000e+00 0.0000000e+00 
0.0000000e+00 0.0000000e+00 0.0000000e+00 
0.0000000e+00 0.0000000e+00 0.0000000e+00 
0.0000000e+00 0.0000000e+00 0.0000000e+00 
0.0000000e+00 0.0000000e+00 0.0000000e+00 
0.0000000e+00 0.0000000e+00 0.0000000e+00 
0.0000000e+00 0.0000000e+00 0.0000000e+00 
0.0000000e+00 0.0000000e+00 0.0000000e+00 
0.0000000e+00 0.0000000e+00 0.0000000e+00 
0.0000000e+00 0.0000000e+00 0.0000000e+00 
0.0000000e+00 0.0000000e+00 0.0000000e+00 
0.0000000e+00 0.0000000e+00 0.0000000e+00 
0.0000000e+00 0.0000000e+00 0.0000000e+00 
0.0000000e+00 0.0000000e+00 0.0000000e+00 
0.0000000e+00 0.0000000e+00 0.0000000e+00 
0.0000000e+00 0.0000000e+00 0.0000000e+00 
0.0000000e+00 0.0000000e+00 0.0000000e+00 
0.0000000e+00 0.0000000e+00 0.0000000e+00 
0.0000000e+00 0.0000000e+00 0.0000000e+00 
0.0000000e+00 0.0000000e+00 0.0000000e+00 
0.0000000e+00 0.0000000e+00 0.0000000e+00 
0.0000000e+00 0.0000000e+00 0.0000000e+00 
0.0000000e+00 0.0000000e+00 0.0000000e+00 
0.0000000e+00 0.0000000e+00 0.0000000e+00 
0.0000000e+00 0.0000000e+00 0.0000000e+00 
0.0000000e+00 0.0000000e+00 0.0000000e+00 
0.0000000e+00 0.0000000e+00 0.0000000e+00 
0.0000000e+00 0.0000000e+00 0.0000000e+00 
0.0000000e+00 0.0000000e+00 0.0000000e+00 
0.0000000e+00 0.0000000e+00 0.0000000e+00 
0.0000000e+00 0.0000000e+00 0.0000000e+00 
0.0000000e+00 0.0000000e+00 0.0000000e+00 
0.0000000e+00 0.0000000e+00 0.0000000e+00 
0.0000000e+00 0.0000000e+00 0.0000000e+00 
0.0000000e+00 0.0000000e+00 0.0000000e+00 
0.0000000e+00 0.0000000e+00 0.0000000e+00 
0.0000000e+00 0.0000000e+00 0.0000000e+00 
0.0000000e+00 0.0000000e+00 0.0000000e+00 
0.0000000e+00 0.0000000e+00 0.0000000e+00 
0.0000000e+00 0.0000000e+00 0.0000000e+00 
0.0000000e+00 0.0000000e+00 0.0000000e+00 
0.0000000e+00 0.0000000e+00 0.0000000e+00 
0.0000000e+00 0.0000000e+00 0.0000000e+00 
0.0000000e+00 0.0000000e+00 0.0000000e+00 
0.0000000e+00 0.0000000e+00 0.0000000e+00 
0.0000000e+00 0.0000000e+00 0.0000000e+00 
0.0000000e+00 0.0000000e+00 0.0000000e+00 
0.0000000e+00 0.0000000e+00 0.0000000e+00 
0.0000000e+00 0.0000000e+00 0.0000000e+00 
0.0000000e+00 0.0000000e+00 0.0000000e+00 
0.0000000e+00 0.0000000e+00 0.0000000e+00 
0.0000000e+00 0.0000000e+00 0.0000000e+00 
0.0000000e+00 0.0000000e+00 0.0000000e+00 
0.0000000e+00 0.0000000e+00 0.0000000e+00 
0.0000000e+00 0.0000000e+00 0.0000000e+00 
0.0000000e+00 0.0000000e+00 0.0000000e+00 
0.0000000e+00 0.0000000e+00 0.0000000e+00 
0.0000000e+00 0.0000000e+00 0.0000000e+00 
0.0000000e+00 0.0000000e+00 0.0000000e+00 
0.0000000e+00 0.0000000e+00 0.0000000e+00 
0.0000000e+00 0.0000000e+00 0.0000000e+00 
0.0000000e+00 0.0000000e+00 0.0000000e+00 
-3.1683251e-07 6.7491510e-07 1.1356004e-06 
-3.7703960e-06 1.9011894e-06 1.9039215e-06 
-2.8898271e-06 1.3069537e-06 -2.6958348e-06 
1.7790828e-06 1.6476795e-06 -6.2324557e-07 
-2.4409860e-06 3.2336850e-06 -6.6041713e-07 
5.6789804e-07 -3.3576337e-06 -8.2469824e-06 
2.9046808e-07 -3.7217628e-06 -8.1059125e-06 
4.4355770e-06 4.0637697e-06 -1.0453824e-05 
9.0435624e-06 9.5809632e-08 -7.8116154e-06 
6.8654203e-06 -9.1227630e-06 -1.2367891e-05 
1.5927137e-05 -1.1806140e-06 -1.7550203e-05 
2.3732482e-05 -6.0448924e-06 -1.7164399e-05 
3.1003387e-05 -1.4681207e-05 -1.3412275e-05 
3.8106649e-05 -6.2702125e-06 -8.8831121e-06 
4.1907733e-05 -1.1076142e-05 -3.5687651e-06 
3.5516914e-05 -1.3726455e-05 6.9730804e-06 
3.2196123e-05 -1.2604616e-05 7.5937987e-06 
2.8314351e-05 -1.0937072e-05 1.2515602e-05 
1.8708688e-05 -7.6134434e-06 1.6542810e-05 
8.2312845e-06 -4.1444796e-06 1.2333425e-05 
5.1180491e-06 -6.1566448e-07 1.3119269e-05 
-4.1538282e-08 4.4702974e-06 1.6502034e-05 
-2.6067835e-06 1.7382087e-07 9.8651153e-06 
-4.7505591e-06 -1.0425659e-06 8.0835598e-06 
-3.0022404e-06 -4.2310203e-06 6.1086325e-06 
-1.3617610e-06 -1.4130239e-06 -3.8802436e-06 
7.0272483e-07 -1.9048447e-06 -6.8084682e-06 
7.1721479e-06 -6.8497420e-06 -9.3349145e-06 
1.0142106e-05 9.5385019e-07 -7.1964964e-06 
1.4863940e-05 -9.5181567e-06 -1.0779086e-05 
2.1047972e-05 -7.3891379e-06 -1.5708645e-05 
2.8074055e-05 -3.6925528e-06 -1.8512226e-05 
3.7849917e-05 -1.2519232e-05 -1.9423249e-05 
4.3195934e-05 -1.3439771e-05 -1.4835614e-05 
4.7064565e-05 -1.2335094e-05 -8.6292594e-06 
4.3525473e-05 -1.6426106e-05 -8.8918148e-07 
3.9092258e-05 -1.1899667e-05 5.8990404e-06 
3.2979413e-05 -9.6763570e-06 1.0987853e-05 
2.3451557e-05 -7.4001250e-06 1.2204470e-05 
1.2654749e-05 -3.8849266e-06 1.4439256e-05 
7.7698423e-06 -2.5388795e-06 1.4883106e-05 
4.3313062e-06 -2.3278099e-06 1.2567352e-05 
2.1458327e-06 -1.1545877e-06 8.5358088e-06 
1.0551896e-06 -1.0463449e-06 4.0069067e-06 
-2.3583479e-07 -1.0648624e-06 -8.1136172e-08 
-6.6762391e-07 1.2812099e-07 -1.1703328e-06 
-4.8225814e-07 8.2676252e-07 -1.7104992e-06 
-3.3660382e-07 7.2393334e-07 -1.2948849e-06 
-1.2665602e-07 -1.0471125e-07 -4.1962721e-07 
0.0000000e+00 1.3967060e-05 0.0000000e+00 
0.0000000e+00 2.5502282e-05 0.0000000e+00 
0.0000000e+00 3.4267890e-05 0.0000000e+00 
0.0000000e+00 1.9752137e-05 0.0000000e+00 
0.0000000e+00 7.0253209e-06 0.0000000e+00 
0.0000000e+00 8.3485447e-06 0.0000000e+00 
0.0000000e+00 -6.9169505e-06 0.0000000e+00 
0.0000000e+00 1.5135172e-06 0.0000000e+00 
0.0000000e+00 2.8052347e-05 0.0000000e+00 
0.0000000e+00 2.1069256e-05 0.0000000e+00 
0.0000000e+00 -9.7835245e-06 0.0000000e+00 
0.0000000e+00 -1.5960994e-05 0.0000000e+00 
0.0000000e+00 -1.6684066e-04 0.0000000e+00 
0.0000000e+00 -3.7833513e-04 0.0000000e+00 
0.0000000e+00 -4.6386875e-04 0.0000000e+00 
0.0000000e+00 -5.2386592e-04 0.0000000e+00 
0.0000000e+00 -4.8848684e-04 0.0000000e+00 
0.0000000e+00 -3.9070414e-04 0.0000000e+00 
0.0000000e+00 -1.9319502e-04 0.0000000e+00 
0.0000000e+00 -8.0151047e-05 0.0000000e+00 
0.0000000e+00 -1.5924064e-05 0.0000000e+00 
0.0000000e+00 -6.7553160e-06 0.0000000e+00 
0.0000000e+00 8.0116652e-06 0.0000000e+00 
0.0000000e+00 1.5852072e-05 0.0000000e+00 
0.0000000e+00 5.8632388e-05 0.0000000e+00 
0.0000000e+00 6.0646984e-05 0.0000000e+00 
0.0000000e+00 5.9528116e-05 0.0000000e+00 
0.0000000e+00 4.6555692e-06 0.0000000e+00 
0.0000000e+00 3.6099584e-05 0.0000000e+00 
0.0000000e+00 4.1610383e-05 0.0000000e+00 
0.0000000e+00 -5.6005425e-05 0.0000000e+00 
0.0000000e+00 -4.8817063e-05 0.0000000e+00 
0.0000000e+00 -2.0514635e-04 0.0000000e+00 
0.0000000e+00 -4.6934429e-04 0.0000000e+00 
0.0000000e+00 -5.5804302e-04 0.0000000e+00 
0.0000000e+00 -5.7248073e-04 0.0000000e+00 
0.0000000e+00 -5.1372679e-04 0.0000000e+00 
0.0000000e+00 -3.2537966e-04 0.0000000e+00 
0.0000000e+00 -1.0012571e-04 0.0000000e+00 
0.0000000e+00 -4.1819789e-05 0.0000000e+00 
0.0000000e+00 -1.9757170e-05 0.0000000e+00 
0.0000000e+00 -1.1702051e-05 0.0000000e+00 
0.0000000e+00 2.8734273e-06 0.0000000e+00 
0.0000000e+00 1.3620860e-05 0.0000000e+00 
0.0000000e+00 1.6837328e-05 0.0000000e+00 
0.0000000e+00 1.5313488e-05 0.0000000e+00 
0.0000000e+00 -2.1126739e-06 0.0000000e+00 
0.0000000e+00 -1.5604954e-05 0.0000000e+00 
0.0000000e+00 -8.7754006e-06 0.0000000e+00 
6.5385007e-07 -2.8448952e-07 6.5563233e-07 
-3.8773283e-06 1.9523825e-06 6.1526880e-06 
-4.9930418e-06 4.6454047e-06 8.7136332e-06 
-1.5323536e-06 9.1980828e-06 8.1285443e-06 
-1.0812152e-07 1.0119231e-07 5.1644097e-08 
1.8748775e-08 -4.8816145e-07 1.1450444e-06 
-3.0819481e-07 1.0488110e-07 2.8139493e-06 
-8.8941687e-07 4.1491799e-06 2.2789779e-06 
3.9526944e-06 -1.3085158e-06 -7.4117168e-07 
2.4355954e-06 8.2292530e-07 -3.4220147e-06 
2.7275460e-06 2.3509544e-06 -4.5940205e-06 
1.4094836e-06 -2.2173363e-06 1.8291756e-07 
2.0372463e-06 4.0320820e-06 -2.7604824e-06 
6.2907570e-06 -8.1015132e-06 -4.1374046e-06 
9.2502296e-06 -4.4269368e-06 -9.0841095e-06 
8.1401677e-06 4.5761390e-06 -1.3959600e-05 
1.1023552e-05 -7.1312015e-06 -1.7224442e-05 
1.7396136e-05 -3.1950751e-06 -1.8988658e-05 
2.2293123e-05 -1.1559223e-06 -1.7195660e-05 
2.6449296e-05 -1.0599455e-05 -1.6105190e-05 
3.7021327e-05 -1.0509578e-05 -1.7377304e-05 
3.4662171e-05 -4.8431102e-06 -1.3456020e-05 
3.3191074e-05 -1.0537676e-05 -6.5390477e-06 
3.9854458e-05 -6.7231767e-06 9.0227950e-06 
3.2193017e-05 -8.1311864e-06 1.5742935e-05 
1.8139883e-05 -1.2435385e-05 1.4460387e-05 
1.3881188e-05 -5.8273426e-06 1.7083446e-05 
3.6269780e-06 -4.0030218e-06 1.2684713e-05 
4.5988086e-06 -3.1074815e-06 1.2069372e-05 