# vtk DataFile Version 4.0
vtk output
ASCII
DATASET UNSTRUCTURED_GRID
POINTS 1919 float
0.0000000e+00 0.0000000e+00 0.0000000e+00 
0.0000000e+00 0.0000000e+00 5.0000000e+01 
5.0000000e+00 0.0000000e+00 0.0000000e+00 
5.0000000e+00 0.0000000e+00 5.0000000e+01 
5.0000000e+00 1.0000000e+00 0.0000000e+00 
5.0000000e+00 1.0000000e+00 5.0000000e+01 
0.0000000e+00 1.0000000e+00 0.0000000e+00 
0.0000000e+00 1.0000000e+00 5.0000000e+01 
5.0000000e+00 2.0000000e+00 0.0000000e+00 
5.0000000e+00 2.0000000e+00 5.0000000e+01 
3.0000000e+00 2.0000000e+00 0.0000000e+00 
3.0000000e+00 2.0000000e+00 5.0000000e+01 
0.0000000e+00 2.0000000e+00 0.0000000e+00 
0.0000000e+00 2.0000000e+00 5.0000000e+01 
1.5000000e+00 3.0000000e+00 0.0000000e+00 
1.5000000e+00 3.0000000e+00 5.0000000e+01 
7.5000000e-01 3.0000000e+00 0.0000000e+00 
7.5000000e-01 3.0000000e+00 5.0000000e+01 
0.0000000e+00 3.0000000e+00 0.0000000e+00 
0.0000000e+00 3.0000000e+00 5.0000000e+01 
7.5000000e-01 3.0000000e+00 5.0000000e-01 
7.5000000e-01 3.0000000e+00 1.0000000e+00 
7.5000000e-01 3.0000000e+00 1.5000000e+00 
7.5000000e-01 3.0000000e+00 2.0000000e+00 
7.5000000e-01 3.0000000e+00 2.5000000e+00 
7.5000000e-01 3.0000000e+00 3.0000000e+00 
7.5000000e-01 3.0000000e+00 3.5000000e+00 
7.5000000e-01 3.0000000e+00 4.0000000e+00 
7.5000000e-01 3.0000000e+00 4.5000000e+00 
7.5000000e-01 3.0000000e+00 5.0000000e+00 
7.5000000e-01 3.0000000e+00 5.5000000e+00 
7.5000000e-01 3.0000000e+00 6.0000000e+00 
7.5000000e-01 3.0000000e+00 6.5000000e+00 
7.5000000e-01 3.0000000e+00 7.0000000e+00 
7.5000000e-01 3.0000000e+00 7.5000000e+00 
7.5000000e-01 3.0000000e+00 8.0000000e+00 
7.5000000e-01 3.0000000e+00 8.5000000e+00 
7.5000000e-01 3.0000000e+00 9.0000000e+00 
7.5000000e-01 3.0000000e+00 9.5000000e+00 
7.5000000e-01 3.0000000e+00 1.0000000e+01 
7.5000000e-01 3.0000000e+00 1.0500000e+01 
7.5000000e-01 3.0000000e+00 1.1000000e+01 
7.5000000e-01 3.0000000e+00 1.1500000e+01 
7.5000000e-01 3.0000000e+00 1.2000000e+01 
7.5000000e-01 3.0000000e+00 1.2500000e+01 
7.5000000e-01 3.0000000e+00 1.3000000e+01 
7.5000000e-01 3.0000000e+00 1.3500000e+01 
7.5000000e-01 3.0000000e+00 1.4000000e+01 
7.5000000e-01 3.0000000e+00 1.4500000e+01 
7.5000000e-01 3.0000000e+00 1.5000000e+01 
7.5000000e-01 3.0000000e+00 1.5500000e+01 
7.5000000e-01 3.0000000e+00 1.6000000e+01 
7.5000000e-01 3.0000000e+00 1.6500000e+01 
7.5000000e-01 3.0000000e+00 1.7000000e+01 
7.5000000e-01 3.0000000e+00 1.7500000e+01 
7.5000000e-01 3.0000000e+00 1.8000000e+01 
7.5000000e-01 3.0000000e+00 1.8500000e+01 
7.5000000e-01 3.0000000e+00 1.9000000e+01 
7.5000000e-01 3.0000000e+00 1.9500000e+01 
7.5000000e-01 3.0000000e+00 2.0000000e+01 
7.5000000e-01 3.0000000e+00 2.0500000e+01 
7.5000000e-01 3.0000000e+00 2.1000000e+01 
7.5000000e-01 3.0000000e+00 2.1500000e+01 
7.5000000e-01 3.0000000e+00 2.2000000e+01 
7.5000000e-01 3.0000000e+00 2.2500000e+01 
7.5000000e-01 3.0000000e+00 2.3000000e+01 
7.5000000e-01 3.0000000e+00 2.3500000e+01 
7.5000000e-01 3.0000000e+00 2.4000000e+01 
7.5000000e-01 3.0000000e+00 2.4500000e+01 
7.5000000e-01 3.0000000e+00 2.5000000e+01 
7.5000000e-01 3.0000000e+00 2.5500000e+01 
7.5000000e-01 3.0000000e+00 2.6000000e+01 
7.5000000e-01 3.0000000e+00 2.6500000e+01 
7.5000000e-01 3.0000000e+00 2.7000000e+01 
7.5000000e-01 3.0000000e+00 2.7500000e+01 
7.5000000e-01 3.0000000e+00 2.8000000e+01 
7.5000000e-01 3.0000000e+00 2.8500000e+01 
7.5000000e-01 3.0000000e+00 2.9000000e+01 
7.5000000e-01 3.0000000e+00 2.9500000e+01 
7.5000000e-01 3.0000000e+00 3.0000000e+01 
7.5000000e-01 3.0000000e+00 3.0500000e+01 
7.5000000e-01 3.0000000e+00 3.1000000e+01 
7.5000000e-01 3.0000000e+00 3.1500000e+01 
7.5000000e-01 3.0000000e+00 3.2000000e+01 
7.5000000e-01 3.0000000e+00 3.2500000e+01 
7.5000000e-01 3.0000000e+00 3.3000000e+01 
7.5000000e-01 3.0000000e+00 3.3500000e+01 
7.5000000e-01 3.0000000e+00 3.4000000e+01 
7.5000000e-01 3.0000000e+00 3.4500000e+01 
7.5000000e-01 3.0000000e+00 3.5000000e+01 
7.5000000e-01 3.0000000e+00 3.5500000e+01 
7.5000000e-01 3.0000000e+00 3.6000000e+01 
7.5000000e-01 3.0000000e+00 3.6500000e+01 
7.5000000e-01 3.0000000e+00 3.7000000e+01 
7.5000000e-01 3.0000000e+00 3.7500000e+01 
7.5000000e-01 3.0000000e+00 3.8000000e+01 
7.5000000e-01 3.0000000e+00 3.8500000e+01 
7.5000000e-01 3.0000000e+00 3.9000000e+01 
7.5000000e-01 3.0000000e+00 3.9500000e+01 
7.5000000e-01 3.0000000e+00 4.0000000e+01 
7.5000000e-01 3.0000000e+00 4.0500000e+01 
7.5000000e-01 3.0000000e+00 4.1000000e+01 
7.5000000e-01 3.0000000e+00 4.1500000e+01 
7.5000000e-01 3.0000000e+00 4.2000000e+01 
7.5000000e-01 3.0000000e+00 4.2500000e+01 
7.5000000e-01 3.0000000e+00 4.3000000e+01 
7.5000000e-01 3.0000000e+00 4.3500000e+01 
7.5000000e-01 3.0000000e+00 4.4000000e+01 
7.5000000e-01 3.0000000e+00 4.4500000e+01 
7.5000000e-01 3.0000000e+00 4.5000000e+01 
7.5000000e-01 3.0000000e+00 4.5500000e+01 
7.5000000e-01 3.0000000e+00 4.6000000e+01 
7.5000000e-01 3.0000000e+00 4.6500000e+01 
7.5000000e-01 3.0000000e+00 4.7000000e+01 
7.5000000e-01 3.0000000e+00 4.7500000e+01 
7.5000000e-01 3.0000000e+00 4.8000000e+01 
7.5000000e-01 3.0000000e+00 4.8500000e+01 
7.5000000e-01 3.0000000e+00 4.9000000e+01 
7.5000000e-01 3.0000000e+00 4.9500000e+01 
7.5000000e-01 3.0250001e+00 0.0000000e+00 
7.5000000e-01 3.0250001e+00 5.0000000e-01 
7.5000000e-01 3.0250001e+00 1.0000000e+00 
7.5000000e-01 3.0250001e+00 1.5000000e+00 
7.5000000e-01 3.0250001e+00 2.0000000e+00 
7.5000000e-01 3.0250001e+00 2.5000000e+00 
7.5000000e-01 3.0250001e+00 3.0000000e+00 
7.5000000e-01 3.0250001e+00 3.5000000e+00 
7.5000000e-01 3.0250001e+00 4.0000000e+00 
7.5000000e-01 3.0250001e+00 4.5000000e+00 
7.5000000e-01 3.0250001e+00 5.0000000e+00 
7.5000000e-01 3.0250001e+00 5.5000000e+00 
7.5000000e-01 3.0250001e+00 6.0000000e+00 
7.5000000e-01 3.0250001e+00 6.5000000e+00 
7.5000000e-01 3.0250001e+00 7.0000000e+00 
7.5000000e-01 3.0250001e+00 7.5000000e+00 
7.5000000e-01 3.0250001e+00 8.0000000e+00 
7.5000000e-01 3.0250001e+00 8.5000000e+00 
7.5000000e-01 3.0250001e+00 9.0000000e+00 
7.5000000e-01 3.0250001e+00 9.5000000e+00 
7.5000000e-01 3.0250001e+00 1.0000000e+01 
7.5000000e-01 3.0250001e+00 1.0500000e+01 
7.5000000e-01 3.0250001e+00 1.1000000e+01 
7.5000000e-01 3.0250001e+00 1.1500000e+01 
7.5000000e-01 3.0250001e+00 1.2000000e+01 
7.5000000e-01 3.0250001e+00 1.2500000e+01 
7.5000000e-01 3.0250001e+00 1.3000000e+01 
7.5000000e-01 3.0250001e+00 1.3500000e+01 
7.5000000e-01 3.0250001e+00 1.4000000e+01 
7.5000000e-01 3.0250001e+00 1.4500000e+01 
7.5000000e-01 3.0250001e+00 1.5000000e+01 
7.5000000e-01 3.0250001e+00 1.5500000e+01 
7.5000000e-01 3.0250001e+00 1.6000000e+01 
7.5000000e-01 3.0250001e+00 1.6500000e+01 
7.5000000e-01 3.0250001e+00 1.7000000e+01 
7.5000000e-01 3.0250001e+00 1.7500000e+01 
7.5000000e-01 3.0250001e+00 1.8000000e+01 
7.5000000e-01 3.0250001e+00 1.8500000e+01 
7.5000000e-01 3.0250001e+00 1.9000000e+01 
7.5000000e-01 3.0250001e+00 1.9500000e+01 
7.5000000e-01 3.0250001e+00 2.0000000e+01 
7.5000000e-01 3.0250001e+00 2.0500000e+01 
7.5000000e-01 3.0250001e+00 2.1000000e+01 
7.5000000e-01 3.0250001e+00 2.1500000e+01 
7.5000000e-01 3.0250001e+00 2.2000000e+01 
7.5000000e-01 3.0250001e+00 2.2500000e+01 
7.5000000e-01 3.0250001e+00 2.3000000e+01 
7.5000000e-01 3.0250001e+00 2.3500000e+01 
7.5000000e-01 3.0250001e+00 2.4000000e+01 
7.5000000e-01 3.0250001e+00 2.4500000e+01 
7.5000000e-01 3.0250001e+00 2.5000000e+01 
7.5000000e-01 3.0250001e+00 2.5500000e+01 
7.5000000e-01 3.0250001e+00 2.6000000e+01 
7.5000000e-01 3.0250001e+00 2.6500000e+01 
7.5000000e-01 3.0250001e+00 2.7000000e+01 
7.5000000e-01 3.0250001e+00 2.7500000e+01 
7.5000000e-01 3.0250001e+00 2.8000000e+01 
7.5000000e-01 3.0250001e+00 2.8500000e+01 
7.5000000e-01 3.0250001e+00 2.9000000e+01 
7.5000000e-01 3.0250001e+00 2.9500000e+01 
7.5000000e-01 3.0250001e+00 3.0000000e+01 
7.5000000e-01 3.0250001e+00 3.0500000e+01 
7.5000000e-01 3.0250001e+00 3.1000000e+01 
7.5000000e-01 3.0250001e+00 3.1500000e+01 
7.5000000e-01 3.0250001e+00 3.2000000e+01 
7.5000000e-01 3.0250001e+00 3.2500000e+01 
7.5000000e-01 3.0250001e+00 3.3000000e+01 
7.5000000e-01 3.0250001e+00 3.3500000e+01 
7.5000000e-01 3.0250001e+00 3.4000000e+01 
7.5000000e-01 3.0250001e+00 3.4500000e+01 
7.5000000e-01 3.0250001e+00 3.5000000e+01 
7.5000000e-01 3.0250001e+00 3.5500000e+01 
7.5000000e-01 3.0250001e+00 3.6000000e+01 
7.5000000e-01 3.0250001e+00 3.6500000e+01 
7.5000000e-01 3.0250001e+00 3.7000000e+01 
7.5000000e-01 3.0250001e+00 3.7500000e+01 
7.5000000e-01 3.0250001e+00 3.8000000e+01 
7.5000000e-01 3.0250001e+00 3.8500000e+01 
7.5000000e-01 3.0250001e+00 3.9000000e+01 
7.5000000e-01 3.0250001e+00 3.9500000e+01 
7.5000000e-01 3.0250001e+00 4.0000000e+01 
7.5000000e-01 3.0250001e+00 4.0500000e+01 
7.5000000e-01 3.0250001e+00 4.1000000e+01 
7.5000000e-01 3.0250001e+00 4.1500000e+01 
7.5000000e-01 3.0250001e+00 4.2000000e+01 
7.5000000e-01 3.0250001e+00 4.2500000e+01 
7.5000000e-01 3.0250001e+00 4.3000000e+01 
7.5000000e-01 3.0250001e+00 4.3500000e+01 
7.5000000e-01 3.0250001e+00 4.4000000e+01 
7.5000000e-01 3.0250001e+00 4.4500000e+01 
7.5000000e-01 3.0250001e+00 4.5000000e+01 
7.5000000e-01 3.0250001e+00 4.5500000e+01 
7.5000000e-01 3.0250001e+00 4.6000000e+01 
7.5000000e-01 3.0250001e+00 4.6500000e+01 
7.5000000e-01 3.0250001e+00 4.7000000e+01 
7.5000000e-01 3.0250001e+00 4.7500000e+01 
7.5000000e-01 3.0250001e+00 4.8000000e+01 
7.5000000e-01 3.0250001e+00 4.8500000e+01 
7.5000000e-01 3.0250001e+00 4.9000000e+01 
7.5000000e-01 3.0250001e+00 4.9500000e+01 
7.5000000e-01 3.0250001e+00 5.0000000e+01 
3.0000000e+00 2.0000000e+00 3.6000000e+01 
8.0487806e-01 3.0000000e+00 3.6000000e+01 
0.0000000e+00 0.0000000e+00 1.0000000e+00 
0.0000000e+00 0.0000000e+00 2.0000000e+00 
0.0000000e+00 0.0000000e+00 3.0000000e+00 
0.0000000e+00 0.0000000e+00 4.0000000e+00 
0.0000000e+00 0.0000000e+00 5.0000000e+00 
0.0000000e+00 0.0000000e+00 6.0000000e+00 
0.0000000e+00 0.0000000e+00 7.0000000e+00 
0.0000000e+00 0.0000000e+00 8.0000000e+00 
[...]
POINT_DATA 1919
FIELD FieldData 3
DISPLACEMENT 3 1919  float
0.0000000e+00 0.0000000e+00 0.0000000e+00 
0.0000000e+00 0.0000000e+00 0.0000000e+00 
0.0000000e+00 0.0000000e+00 0.0000000e+00 
0.0000000e+00 0.0000000e+00 0.0000000e+00 
1.8430572e-07 1.8280383e-06 1.2443556e-06 
-3.9372108e-07 4.6369155e-07 -1.3273316e-06 
0.0000000e+00 9.0066678e-06 0.0000000e+00 
0.0000000e+00 6.4815714e-07 0.0000000e+00 
-1.2120615e-06 -1.8650778e-07 2.2258866e-06 
-2.6758741e-07 -2.9452974e-07 -1.5210686e-06 
-3.7595275e-06 5.4475468e-06 6.2621366e-06 
-7.7956167e-07 1.8109278e-06 -4.2827019e-06 
0.0000000e+00 1.9388319e-05 0.0000000e+00 
0.0000000e+00 1.8047936e-06 0.0000000e+00 
1.8938649e-06 1.3095560e-05 4.2704964e-05 
1.6547059e-06 5.6832005e-06 -6.7875881e-06 
2.2470696e-10 -4.4052926e-05 3.4151857e-05 
-3.8423686e-06 -1.7110387e-05 1.4129268e-06 
0.0000000e+00 3.0396128e-05 0.0000000e+00 
0.0000000e+00 6.2049235e-06 0.0000000e+00 
-9.7924494e-06 -5.0876257e-05 3.0712858e-05 
-1.5593621e-05 -6.7549241e-05 3.7562091e-05 
-2.8275039e-05 -8.9095651e-05 4.1961750e-05 
-3.6936690e-05 -1.1555535e-04 2.5675163e-05 
-5.3414275e-05 -1.4809187e-04 1.1546150e-05 
-4.5104269e-05 -1.8555255e-04 -7.5158505e-06 
-3.3023080e-05 -2.1825370e-04 -2.1263366e-05 
-4.2218169e-05 -2.2969034e-04 -3.9735707e-05 
-4.4335960e-05 -2.1311414e-04 -4.2638465e-05 
-4.2719705e-05 -1.7626895e-04 -4.4192897e-05 
-3.2038963e-05 -1.3201797e-04 -5.6553388e-05 
-1.8944305e-05 -9.2602255e-05 -5.2309468e-05 
2.6114876e-07 -5.1961695e-05 -7.4557414e-05 
-1.5120885e-05 1.3179676e-05 -6.2125458e-05 
-6.4452342e-06 1.1772235e-04 -4.1526411e-05 
1.1844179e-05 2.4650851e-04 -2.9961956e-07 
1.8838991e-05 3.4402678e-04 2.6729434e-05 
3.1850035e-05 3.3087537e-04 4.9590340e-05 
3.5448516e-05 1.5670131e-04 8.1637321e-05 
1.7928167e-05 -2.0447141e-04 1.3105060e-04 
-1.5969747e-05 -7.9142529e-04 2.8735420e-04 
-1.0696333e-04 -1.6365808e-03 2.3718337e-04 
-1.3875496e-04 -2.7565120e-03 4.0358043e-04 
-2.5229368e-04 -3.9832140e-03 2.3787207e-04 
-3.1832405e-04 -4.9021211e-03 2.4975502e-04 
-2.9475483e-04 -4.9982639e-03 1.6543972e-04 
-3.1192691e-04 -4.8409570e-03 1.0929446e-04 
-2.9740331e-04 -4.8330682e-03 5.6640488e-06 
-2.7949674e-04 -5.0060144e-03 -2.1495065e-05 
-2.7441228e-04 -4.8818127e-03 -1.0926672e-04 
-2.5186373e-04 -3.9696987e-03 -2.2505361e-04 
-2.0439031e-04 -2.7152067e-03 -1.4174529e-04 
-1.3457394e-04 -1.5975153e-03 -2.4367862e-04 
-9.0979251e-05 -7.8264094e-04 -1.5243888e-04 
-5.4397417e-05 -2.8039343e-04 -1.7065326e-04 
-2.8625003e-05 -1.2410410e-05 -1.0087599e-04 
-1.6067834e-06 1.0174409e-04 -5.6010031e-05 
-1.7857330e-05 1.1353745e-04 -1.4921678e-05 
-2.0708176e-05 5.5728986e-05 2.0759451e-05 
-4.0766889e-05 -4.2441930e-05 1.6934788e-05 
-5.0047300e-05 -1.4834295e-04 -2.3706562e-07 
-6.7470806e-05 -2.3903180e-04 -3.5001613e-05 
-7.1767114e-05 -3.0466836e-04 -2.4973013e-05 
-6.5104308e-05 -3.4793004e-04 -1.2398558e-05 
-6.6200468e-05 -3.7604407e-04 1.3489119e-05 
-6.3984487e-05 -3.9887865e-04 1.0651379e-05 
-4.8489852e-05 -4.1215462e-04 -1.5559041e-05 
-5.7138837e-05 -4.0297059e-04 -3.9939881e-05 
-4.7180514e-05 -3.5792639e-04 -6.1567516e-05 
-5.2000407e-05 -2.7840599e-04 -7.3980009e-05 
-5.6865632e-05 -1.8468368e-04 -7.6626166e-05 
-5.8331440e-05 -1.0668379e-04 -7.5133110e-05 
-5.1823914e-05 -5.4168751e-05 -9.7260607e-05 
-2.9406872e-05 -1.0326486e-05 -9.0500296e-05 
-2.1272833e-06 5.7149591e-05 -9.8892262e-05 
9.0590247e-06 1.6438156e-04 -6.8656154e-05 
2.2511565e-05 2.7562684e-04 -4.1958512e-05 
3.1639654e-05 2.9938977e-04 3.5761345e-06 
3.0834348e-05 1.3356231e-04 7.7188110e-05 
5.4607631e-06 -2.9811548e-04 1.0906520e-04 
-3.4941550e-05 -1.0170325e-03 2.4243734e-04 
-1.2972807e-04 -1.9850426e-03 1.9635606e-04 
-1.7521829e-04 -3.1488130e-03 3.6878686e-04 
-2.9159727e-04 -4.2650527e-03 1.8128134e-04 
-3.2925184e-04 -4.9520200e-03 1.7703846e-04 
-3.2363506e-04 -4.9613304e-03 1.2647631e-04 
-3.1959146e-04 -4.8721586e-03 5.0660386e-05 
-3.2859953e-04 -4.9414174e-03 -1.8873981e-05 
-3.2656398e-04 -5.0816122e-03 -7.1740615e-05 
1.6930520e-05 -4.7707646e-03 -1.6684789e-04 
-1.4321752e-04 -3.6944188e-03 -1.0677577e-04 
-1.0633365e-04 -2.4156664e-03 -8.5622472e-05 
-8.3969433e-05 -1.3407042e-03 -2.1623391e-04 
-5.3579755e-05 -5.6947628e-04 -1.4596993e-04 
-5.0800194e-05 -7.8559249e-05 -1.9256795e-04 
-2.8649865e-05 1.9475476e-04 -1.5022518e-04 
3.4348980e-06 3.0217454e-04 -1.3365253e-04 
1.1929832e-05 2.9632339e-04 -1.0109061e-04 
2.1412052e-05 2.3145063e-04 -6.2830477e-05 
2.3419110e-05 1.5134833e-04 -4.0416297e-05 
1.1838683e-05 7.9449135e-05 -1.6993206e-05 
3.3967531e-06 1.9898645e-05 -1.0720560e-05 
1.0017418e-05 -2.9327181e-05 1.3470054e-05 
8.5010006e-06 -6.5941604e-05 2.6954169e-05 
2.5371257e-06 -8.4404062e-05 4.1166979e-05 
2.5464095e-07 -8.2142244e-05 3.9394658e-05 
-7.1321324e-06 -6.1922387e-05 2.5024803e-05 
-2.2477566e-06 -3.1907923e-05 -5.1694060e-06 
2.9796008e-06 -6.2197347e-07 -7.9164802e-06 
2.9630214e-06 2.5109492e-05 -6.4468763e-06 
1.3963238e-06 4.0643190e-05 -1.5342173e-06 
-2.1413157e-07 4.4379158e-05 5.2814098e-06 
-4.5750476e-06 3.6695896e-05 8.2913048e-06 
-5.2447190e-06 2.1981576e-05 6.3616635e-06 
-3.9696788e-06 5.9340969e-06 2.9422299e-06 
-3.4268552e-07 -6.8113150e-06 -3.9653228e-06 
4.7349708e-06 -1.3999611e-05 -7.5110047e-06 
5.0225276e-06 -1.6801137e-05 -9.2644923e-06 
4.8649076e-06 -1.7189115e-05 -5.1477305e-06 
0.0000000e+00 -4.4538614e-05 0.0000000e+00 
0.0000000e+00 -5.1074137e-05 0.0000000e+00 
0.0000000e+00 -6.7225592e-05 0.0000000e+00 
0.0000000e+00 -8.8712099e-05 0.0000000e+00 
0.0000000e+00 -1.1535327e-04 0.0000000e+00 
0.0000000e+00 -1.4866832e-04 0.0000000e+00 
0.0000000e+00 -1.8646751e-04 0.0000000e+00 
0.0000000e+00 -2.1815252e-04 0.0000000e+00 
0.0000000e+00 -2.2888779e-04 0.0000000e+00 
0.0000000e+00 -2.1255568e-04 0.0000000e+00 
0.0000000e+00 -1.7608749e-04 0.0000000e+00 
0.0000000e+00 -1.3292253e-04 0.0000000e+00 
0.0000000e+00 -9.3761169e-05 0.0000000e+00 
0.0000000e+00 -5.2166815e-05 0.0000000e+00 
0.0000000e+00 1.4200201e-05 0.0000000e+00 
0.0000000e+00 1.2006624e-04 0.0000000e+00 
0.0000000e+00 2.4863152e-04 0.0000000e+00 
0.0000000e+00 3.4326175e-04 0.0000000e+00 
0.0000000e+00 3.2955167e-04 0.0000000e+00 
0.0000000e+00 1.5638422e-04 0.0000000e+00 
0.0000000e+00 -2.0545950e-04 0.0000000e+00 
0.0000000e+00 -7.9214119e-04 0.0000000e+00 
0.0000000e+00 -1.6450465e-03 0.0000000e+00 
0.0000000e+00 -2.7705373e-03 0.0000000e+00 
0.0000000e+00 -4.0116878e-03 0.0000000e+00 
0.0000000e+00 -4.9238922e-03 0.0000000e+00 
0.0000000e+00 -5.0262571e-03 0.0000000e+00 
0.0000000e+00 -4.8608407e-03 0.0000000e+00 
0.0000000e+00 -4.8596393e-03 0.0000000e+00 
0.0000000e+00 -5.0303466e-03 0.0000000e+00 
0.0000000e+00 -4.9110465e-03 0.0000000e+00 
0.0000000e+00 -3.9880988e-03 0.0000000e+00 
0.0000000e+00 -2.7312122e-03 0.0000000e+00 
0.0000000e+00 -1.6052023e-03 0.0000000e+00 
0.0000000e+00 -7.8625040e-04 0.0000000e+00 
0.0000000e+00 -2.8012457e-04 0.0000000e+00 
0.0000000e+00 -1.1014864e-05 0.0000000e+00 
0.0000000e+00 1.0259421e-04 0.0000000e+00 
0.0000000e+00 1.1387270e-04 0.0000000e+00 
0.0000000e+00 5.5799635e-05 0.0000000e+00 
0.0000000e+00 -4.1954037e-05 0.0000000e+00 
0.0000000e+00 -1.4800717e-04 0.0000000e+00 
0.0000000e+00 -2.3882174e-04 0.0000000e+00 
0.0000000e+00 -3.0457959e-04 0.0000000e+00 
0.0000000e+00 -3.4768655e-04 0.0000000e+00 
0.0000000e+00 -3.7655534e-04 0.0000000e+00 
0.0000000e+00 -3.9938657e-04 0.0000000e+00 
0.0000000e+00 -4.1267331e-04 0.0000000e+00 
0.0000000e+00 -4.0279806e-04 0.0000000e+00 
0.0000000e+00 -3.5711934e-04 0.0000000e+00 
0.0000000e+00 -2.7770779e-04 0.0000000e+00 
0.0000000e+00 -1.8533859e-04 0.0000000e+00 
0.0000000e+00 -1.0795242e-04 0.0000000e+00 
0.0000000e+00 -5.5289838e-05 0.0000000e+00 
0.0000000e+00 -9.9596873e-06 0.0000000e+00 
0.0000000e+00 5.9404672e-05 0.0000000e+00 
0.0000000e+00 1.6731507e-04 0.0000000e+00 
0.0000000e+00 2.7722059e-04 0.0000000e+00 
0.0000000e+00 2.9914078e-04 0.0000000e+00 
0.0000000e+00 1.3057975e-04 0.0000000e+00 
0.0000000e+00 -3.0208263e-04 0.0000000e+00 
0.0000000e+00 -1.0190042e-03 0.0000000e+00 
0.0000000e+00 -1.9947367e-03 0.0000000e+00 
0.0000000e+00 -3.1617687e-03 0.0000000e+00 
0.0000000e+00 -4.2948765e-03 0.0000000e+00 
0.0000000e+00 -4.9767736e-03 0.0000000e+00 
0.0000000e+00 -4.9933125e-03 0.0000000e+00 
0.0000000e+00 -4.8907446e-03 0.0000000e+00 
0.0000000e+00 -4.9690395e-03 0.0000000e+00 
0.0000000e+00 -5.1067444e-03 0.0000000e+00 
0.0000000e+00 -4.7895620e-03 0.0000000e+00 
0.0000000e+00 -3.7172807e-03 0.0000000e+00 
0.0000000e+00 -2.4307093e-03 0.0000000e+00 
0.0000000e+00 -1.3458611e-03 0.0000000e+00 
0.0000000e+00 -5.7093397e-04 0.0000000e+00 
0.0000000e+00 -7.8121811e-05 0.0000000e+00 
0.0000000e+00 1.9468275e-04 0.0000000e+00 
0.0000000e+00 3.0238618e-04 0.0000000e+00 
0.0000000e+00 2.9728599e-04 0.0000000e+00 
0.0000000e+00 2.3262081e-04 0.0000000e+00 
0.0000000e+00 1.5216816e-04 0.0000000e+00 
0.0000000e+00 7.9601654e-05 0.0000000e+00 
0.0000000e+00 1.9663305e-05 0.0000000e+00 
0.0000000e+00 -2.9411916e-05 0.0000000e+00 
0.0000000e+00 -6.5739609e-05 0.0000000e+00 
0.0000000e+00 -8.4177984e-05 0.0000000e+00 
0.0000000e+00 -8.1958220e-05 0.0000000e+00 
0.0000000e+00 -6.1944578e-05 0.0000000e+00 
0.0000000e+00 -3.1982196e-05 0.0000000e+00 
0.0000000e+00 -7.1327918e-07 0.0000000e+00 
0.0000000e+00 2.4946548e-05 0.0000000e+00 
0.0000000e+00 4.0517658e-05 0.0000000e+00 
0.0000000e+00 4.4179291e-05 0.0000000e+00 
0.0000000e+00 3.6664278e-05 0.0000000e+00 
0.0000000e+00 2.2085018e-05 0.0000000e+00 
0.0000000e+00 6.0790644e-06 0.0000000e+00 
0.0000000e+00 -6.6443440e-06 0.0000000e+00 
0.0000000e+00 -1.3976334e-05 0.0000000e+00 
0.0000000e+00 -1.6825372e-05 0.0000000e+00 
0.0000000e+00 -1.7256501e-05 0.0000000e+00 
0.0000000e+00 -1.7150998e-05 0.0000000e+00 
3.6221179e-05 -6.3233390e-05 3.6860980e-05 
-1.1589476e-04 -2.1937760e-03 -9.1032140e-05 
0.0000000e+00 0.0000000e+00 0.0000000e+00 
0.0000000e+00 0.0000000e+00 0.0000000e+00 
0.0000000e+00 0.0000000e+00 0.0000000e+00 
0.0000000e+00 0.0000000e+00 0.0000000e+00 
0.0000000e+00 0.0000000e+00 0.0000000e+00 
0.0000000e+00 0.0000000e+00 0.0000000e+00 
0.0000000e+00 0.0000000e+00 0.0000000e+00 
0.0000000e+00 0.0000000e+00 0.0000000e+00 
0.0000000e+00 0.0000000e+00 0.0000000e+00 
0.0000000e+00 0.0000000e+00 0.0000000e+00 
0.0000000e+00 0.0000000e+00 0.0000000e+00 
0.0000000e+00 0.0000000e+00 0.0000000e+00 
0.0000000e+00 0.0000000e+00 0.0000000e+00 
0.0000000e+00 0.0000000e+00 0.0000000e+00 
0.0000000e+00 0.0000000e+00 0.0000000e+00 
0.0000000e+00 0.0000000e+00 0.0000000e+00 
0.0000000e+00 0.0000000e+00 0.0000000e+00 
0.0000000e+00 0.0000000e+00 0.0000000e+00 
0.0000000e+00 0.0000000e+00 0.0000000e+00 
0.0000000e+00 0.0000000e+00 0.0000000e+00 
0.0000000e+00 0.0000000e+00 0.0000000e+00 
0.0000000e+00 0.0000000e+00 0.0000000e+00 
0.0000000e+00 0.0000000e+00 0.0000000e+00 
0.0000000e+00 0.0000000e+00 0.0000000e+00 
0.0000000e+00 0.0000000e+00 0.0000000e+00 
0.0000000e+00 0.0000000e+00 0.0000000e+00 
0.0000000e+00 0.0000000e+00 0.0000000e+00 
0.0000000e+00 0.0000000e+00 0.0000000e+00 
0.0000000e+00 0.0000000e+00 0.0000000e+00 
0.0000000e+00 0.0000000e+00 0.0000000e+00 
0.0000000e+00 0.0000000e+00 0.0000000e+00 
0.0000000e+00 0.0000000e+00 0.0000000e+00 
0.0000000e+00 0.0000000e+00 0.0000000e+00 
0.0000000e+00 0.0000000e+00 0.0000000e+00 
0.0000000e+00 0.0000000e+00 0.0000000e+00 
0.0000000e+00 0.0000000e+00 0.0000000e+00 
0.0000000e+00 0.0000000e+00 0.0000000e+00 
0.0000000e+00 0.0000000e+00 0.0000000e+00 
0.0000000e+00 0.0000000e+00 0.0000000e+00 
0.0000000e+00 0.0000000e+00 0.0000000e+00 
0.0000000e+00 0.0000000e+00 0.0000000e+00 
0.0000000e+00 0.0000000e+00 0.0000000e+00 
0.0000000e+00 0.0000000e+00 0.0000000e+00 
0.0000000e+00 0.0000000e+00 0.0000000e+00 
0.0000000e+00 0.0000000e+00 0.0000000e+00 
0.0000000e+00 0.0000000e+00 0.0000000e+00 
0.0000000e+00 0.0000000e+00 0.0000000e+00 
0.0000000e+00 0.0000000e+00 0.0000000e+00 
0.0000000e+00 0.0000000e+00 0.0000000e+00 
0.0000000e+00 0.0000000e+00 0.0000000e+00 
0.0000000e+00 0.0000000e+00 0.0000000e+00 
0.0000000e+00 0.0000000e+00 0.0000000e+00 
0.0000000e+00 0.0000000e+00 0.0000000e+00 
0.0000000e+00 0.0000000e+00 0.0000000e+00 
0.0000000e+00 0.0000000e+00 0.0000000e+00 
0.0000000e+00 0.0000000e+00 0.0000000e+00 
0.0000000e+00 0.0000000e+00 0.0000000e+00 
0.0000000e+00 0.0000000e+00 0.0000000e+00 
0.0000000e+00 0.0000000e+00 0.0000000e+00 
0.0000000e+00 0.0000000e+00 0.0000000e+00 
0.0000000e+00 0.0000000e+00 0.0000000e+00 
0.0000000e+00 0.0000000e+00 0.0000000e+00 
0.0000000e+00 0.0000000e+00 0.0000000e+00 
0.0000000e+00 0.0000000e+00 0.0000000e+00 
0.0000000e+00 0.0000000e+00 0.0000000e+00 
0.0000000e+00 0.0000000e+00 0.0000000e+00 
0.0000000e+00 0.0000000e+00 0.0000000e+00 
0.0000000e+00 0.0000000e+00 0.0000000e+00 
0.0000000e+00 0.0000000e+00 0.0000000e+00 
0.0000000e+00 0.0000000e+00 0.0000000e+00 
0.0000000e+00 0.0000000e+00 0.0000000e+00 
0.0000000e+00 0.0000000e+00 0.0000000e+00 
0.0000000e+00 0.0000000e+00 0.0000000e+00 
0.0000000e+00 0.0000000e+00 0.0000000e+00 
0.0000000e+00 0.0000000e+00 0.0000000e+00 
0.0000000e+00 0.0000000e+00 0.0000000e+00 
0.0000000e+00 0.0000000e+00 0.0000000e+00 
0.0000000e+00 0.0000000e+00 0.0000000e+00 
0.0000000e+00 0.0000000e+00 0.0000000e+00 
0.0000000e+00 0.0000000e+00 0.0000000e+00 
0.0000000e+00 0.0000000e+00 0.0000000e+00 
0.0000000e+00 0.0000000e+00 0.0000000e+00 
0.0000000e+00 0.0000000e+00 0.0000000e+00 
0.0000000e+00 0.0000000e+00 0.0000000e+00 
0.0000000e+00 0.0000000e+00 0.0000000e+00 
0.0000000e+00 0.0000000e+00 0.0000000e+00 
0.0000000e+00 0.0000000e+00 0.0000000e+00 
0.0000000e+00 0.0000000e+00 0.0000000e+00 
0.0000000e+00 0.0000000e+00 0.0000000e+00 
0.0000000e+00 0.0000000e+00 0.0000000e+00 
0.0000000e+00 0.0000000e+00 0.0000000e+00 
0.0000000e+00 0.0000000e+00 0.0000000e+00 
0.0000000e+00 0.0000000e+00 0.0000000e+00 
0.0000000e+00 0.0000000e+00 0.0000000e+00 
0.0000000e+00 0.0000000e+00 0.0000000e+00 
0.0000000e+00 0.0000000e+00 0.0000000e+00 
0.0000000e+00 0.0000000e+00 0.0000000e+00 
0.0000000e+00 0.0000000e+00 0.0000000e+00 
0.0000000e+00 0.0000000e+00 0.0000000e+00 
0.0000000e+00 0.0000000e+00 0.0000000e+00 
0.0000000e+00 0.0000000e+00 0.0000000e+00 
0.0000000e+00 0.0000000e+00 0.0000000e+00 
0.0000000e+00 0.0000000e+00 0.0000000e+00 
0.0000000e+00 0.0000000e+00 0.0000000e+00 
0.0000000e+00 0.0000000e+00 0.0000000e+00 
0.0000000e+00 0.0000000e+00 0.0000000e+00 
-3.7799898e-06 9.6673318e-07 3.3923234e-06 
-1.5569193e-06 -1.0391627e-06 -7.1313434e-07 
1.4195965e-06 -3.0838976e-07 3.4380955e-06 
-3.8024468e-06 -1.4638986e-06 2.8596312e-06 
-2.8351340e-06 1.9701097e-06 -1.6504695e-06 
-4.2598972e-06 -6.5290183e-06 5.5501428e-06 
-1.5981686e-06 4.9352229e-06 1.6681731e-06 
8.4766293e-07 -6.7815749e-06 -4.2414804e-06 
9.9909357e-06 -9.5421410e-06 -1.0588014e-05 
2.4055680e-05 -4.0837099e-06 -1.1173071e-05 
3.6492547e-05 -2.0253547e-05 -1.3296656e-05 
5.0481045e-05 -1.8172434e-05 -1.1699263e-05 
5.5039582e-05 -1.4201392e-05 -3.6019953e-06 
5.2194599e-05 -1.6012231e-05 6.7496621e-06 
4.6926911e-05 -1.3092040e-05 1.7445369e-05 
2.7499464e-05 -5.2154214e-06 1.5659796e-05 
1.5678890e-05 -1.8718933e-06 8.2230090e-06 
4.1448402e-06 -2.4878721e-06 2.1006670e-06 
2.1013270e-06 2.4222828e-07 -3.4972966e-06 
2.5235584e-06 1.4109222e-06 -4.5327283e-06 
-3.9299073e-07 6.8012614e-06 1.2487187e-07 
-3.6383560e-06 4.1202161e-06 2.0129420e-08 
-5.6933432e-06 -2.1661970e-06 -8.4290826e-07 
-6.7739584e-06 2.0564617e-07 -5.5499146e-07 
-5.3033132e-06 1.8199981e-06 -3.2763824e-06 
-2.3083201e-06 -2.3873397e-06 -3.2171022e-06 
-4.7182180e-06 2.3934863e-06 -8.3900562e-07 
-1.7759647e-06 1.5837105e-06 -1.0239376e-06 
1.1028081e-05 -1.2052545e-05 -1.1295183e-05 
2.3694767e-05 -6.3030802e-06 -1.2613583e-05 
4.1829117e-05 -1.0656548e-05 -4.9478122e-06 
5.1782608e-05 -2.1360443e-05 2.0505013e-06 
5.2122687e-05 -1.6377786e-05 1.0692356e-05 
4.9800361e-05 -1.8462177e-05 1.8671353e-05 
4.3304317e-05 -1.8651288e-05 1.8076244e-05 
3.2404980e-05 -1.2250631e-05 1.5854841e-05 
1.8048693e-05 -5.5211608e-06 1.0772963e-05 
1.0428087e-05 -2.0151590e-06 6.1959222e-06 
2.1452988e-06 2.4195765e-06 2.5510889e-07 
-3.1007576e-06 4.1641774e-06 -4.9376076e-06 
-4.2228030e-06 2.6161215e-06 -4.0390860e-06 
-2.3750379e-06 1.9401145e-07 -1.9837817e-06 
7.8141164e-07 -2.5426475e-06 1.2091334e-06 
1.5879385e-06 -1.1635597e-06 3.6297158e-06 
1.7798938e-06 5.7994004e-07 4.6518617e-06 
9.6341478e-07 4.9657274e-07 3.1826783e-06 
2.4864062e-07 -8.5545270e-07 8.3528698e-07 
-3.2981438e-07 -3.2145866e-07 -7.1526449e-07 
-5.5267958e-07 4.0705942e-07 -1.5997754e-06 
0.0000000e+00 1.5027671e-05 0.0000000e+00 
0.0000000e+00 1.3362284e-05 0.0000000e+00 
0.0000000e+00 -1.5483918e-05 0.0000000e+00 
0.0000000e+00 -1.6081958e-05 0.0000000e+00 
0.0000000e+00 2.3243567e-05 0.0000000e+00 
0.0000000e+00 4.2183536e-05 0.0000000e+00 
0.0000000e+00 5.9066206e-05 0.0000000e+00 
0.0000000e+00 7.5510827e-05 0.0000000e+00 
0.0000000e+00 3.8392755e-05 0.0000000e+00 
0.0000000e+00 -7.2301627e-05 0.0000000e+00 
0.0000000e+00 -2.2870532e-04 0.0000000e+00 
0.0000000e+00 -5.2308716e-04 0.0000000e+00 
0.0000000e+00 -6.4887950e-04 0.0000000e+00 
0.0000000e+00 -6.0680188e-04 0.0000000e+00 
0.0000000e+00 -5.1908189e-04 0.0000000e+00 
0.0000000e+00 -3.0521117e-04 0.0000000e+00 
0.0000000e+00 -1.0225649e-04 0.0000000e+00 
0.0000000e+00 1.1174409e-06 0.0000000e+00 
0.0000000e+00 4.5712219e-05 0.0000000e+00 
0.0000000e+00 2.7126123e-05 0.0000000e+00 
0.0000000e+00 6.3089583e-06 0.0000000e+00 
0.0000000e+00 5.7072366e-06 0.0000000e+00 
0.0000000e+00 -4.8529822e-05 0.0000000e+00 
0.0000000e+00 -4.5761131e-05 0.0000000e+00 
0.0000000e+00 5.3614585e-06 0.0000000e+00 
0.0000000e+00 2.3553599e-05 0.0000000e+00 
0.0000000e+00 -5.7444850e-06 0.0000000e+00 
0.0000000e+00 7.2069153e-05 0.0000000e+00 
0.0000000e+00 2.7662762e-05 0.0000000e+00 
0.0000000e+00 -1.1388930e-04 0.0000000e+00 
0.0000000e+00 -2.0920188e-04 0.0000000e+00 
0.0000000e+00 -4.4101125e-04 0.0000000e+00 
0.0000000e+00 -5.6100951e-04 0.0000000e+00 
0.0000000e+00 -5.4999179e-04 0.0000000e+00 
0.0000000e+00 -4.6986743e-04 0.0000000e+00 
0.0000000e+00 -3.1790350e-04 0.0000000e+00 
0.0000000e+00 -1.2226379e-04 0.0000000e+00 
0.0000000e+00 4.1981338e-07 0.0000000e+00 
0.0000000e+00 4.1448013e-05 0.0000000e+00 
0.0000000e+00 2.7553178e-05 0.0000000e+00 
0.0000000e+00 6.4612764e-06 0.0000000e+00 
0.0000000e+00 -1.1277864e-05 0.0000000e+00 
0.0000000e+00 -1.9721238e-05 0.0000000e+00 
0.0000000e+00 -8.4837466e-06 0.0000000e+00 
0.0000000e+00 8.9418645e-06 0.0000000e+00 
0.0000000e+00 1.0323338e-05 0.0000000e+00 
0.0000000e+00 6.9779963e-07 0.0000000e+00 
0.0000000e+00 -3.7577333e-06 0.0000000e+00 
0.0000000e+00 -3.4880918e-06 0.0000000e+00 
-5.5309465e-06 1.6724246e-06 3.6823997e-06 
-1.2119668e-06 1.0637335e-07 3.4055442e-06 
-1.7183918e-06 8.3786000e-07 -1.0375030e-06 
-9.4283996e-07 5.5155551e-06 1.9032045e-06 
-4.5469770e-07 8.4935022e-07 -1.6912400e-06 
-1.0467696e-07 9.7681300e-07 -1.3972020e-06 
4.5821562e-07 1.0599689e-06 -8.1174292e-08 
4.3720243e-07 5.6417463e-07 7.5438726e-07 
-3.1980826e-06 1.0875946e-06 7.0759853e-07 
-4.1582134e-06 1.2644207e-06 2.0236755e-06 
-5.4167793e-07 1.8775428e-06 7.3309925e-06 
7.4601536e-07 5.0608542e-06 2.8647110e-06 
-2.5373570e-06 -7.6199990e-07 -3.7652217e-07 
7.5754319e-06 -5.8017067e-06 2.1429146e-07 
5.9001331e-06 4.0718364e-06 -2.0668605e-07 
9.0675303e-06 -1.0580965e-05 2.9870531e-08 
1.7603747e-05 -7.1270915e-06 -2.7326159e-06 
2.5134894e-05 -5.6171252e-06 -4.2799993e-06 
3.7078069e-05 -2.2003223e-05 -1.0740197e-05 
5.0041534e-05 -1.3636608e-05 -1.2858677e-05 
4.9308437e-05 -1.0326287e-05 -2.6533678e-06 
4.5813045e-05 -1.3719071e-05 1.2333183e-05 
3.4155513e-05 -7.1326795e-06 1.4040936e-05 
1.8762219e-05 1.9736365e-06 9.7328930e-06 
1.2387099e-05 5.2365986e-06 6.6929438e-06 
7.6891702e-06 1.7593657e-06 4.8466615e-07 
-5.4771147e-07 -2.3439388e-07 -7.9057027e-06 