# vtk DataFile Version 4.0
vtk output
ASCII
DATASET UNSTRUCTURED_GRID
POINTS 1919 float
0.0000000e+00 0.0000000e+00 0.0000000e+00 
0.0000000e+00 0.0000000e+00 5.0000000e+01 
5.0000000e+00 0.0000000e+00 0.0000000e+00 
5.0000000e+00 0.0000000e+00 5.0000000e+01 
5.0000000e+00 1.0000000e+00 0.0000000e+00 
5.0000000e+00 1.0000000e+00 5.0000000e+01 
0.0000000e+00 1.0000000e+00 0.0000000e+00 
0.0000000e+00 1.0000000e+00 5.0000000e+01 
5.0000000e+00 2.0000000e+00 0.0000000e+00 
5.0000000e+00 2.0000000e+00 5.0000000e+01 
3.0000000e+00 2.0000000e+00 0.0000000e+00 
3.0000000e+00 2.0000000e+00 5.0000000e+01 
0.0000000e+00 2.0000000e+00 0.0000000e+00 
0.0000000e+00 2.0000000e+00 5.0000000e+01 
1.5000000e+00 3.0000000e+00 0.0000000e+00 
1.5000000e+00 3.0000000e+00 5.0000000e+01 
7.5000000e-01 3.0000000e+00 0.0000000e+00 
7.5000000e-01 3.0000000e+00 5.0000000e+01 
0.0000000e+00 3.0000000e+00 0.0000000e+00 
0.0000000e+00 3.0000000e+00 5.0000000e+01 
7.5000000e-01 3.0000000e+00 5.0000000e-01 
7.5000000e-01 3.0000000e+00 1.0000000e+00 
7.5000000e-01 3.0000000e+00 1.5000000e+00 
7.5000000e-01 3.0000000e+00 2.0000000e+00 
7.5000000e-01 3.0000000e+00 2.5000000e+00 
7.5000000e-01 3.0000000e+00 3.0000000e+00 
7.5000000e-01 3.0000000e+00 3.5000000e+00 
7.5000000e-01 3.0000000e+00 4.0000000e+00 
7.5000000e-01 3.0000000e+00 4.5000000e+00 
7.5000000e-01 3.0000000e+00 5.0000000e+00 
7.5000000e-01 3.0000000e+00 5.5000000e+00 
7.5000000e-01 3.0000000e+00 6.0000000e+00 
7.5000000e-01 3.0000000e+00 6.5000000e+00 
7.5000000e-01 3.0000000e+00 7.0000000e+00 
7.5000000e-01 3.0000000e+00 7.5000000e+00 
7.5000000e-01 3.0000000e+00 8.0000000e+00 
7.5000000e-01 3.0000000e+00 8.5000000e+00 
7.5000000e-01 3.0000000e+00 9.0000000e+00 
7.5000000e-01 3.0000000e+00 9.5000000e+00 
7.5000000e-01 3.0000000e+00 1.0000000e+01 
7.5000000e-01 3.0000000e+00 1.0500000e+01 
7.5000000e-01 3.0000000e+00 1.1000000e+01 
7.5000000e-01 3.0000000e+00 1.1500000e+01 
7.5000000e-01 3.0000000e+00 1.2000000e+01 
7.5000000e-01 3.0000000e+00 1.2500000e+01 
7.5000000e-01 3.0000000e+00 1.3000000e+01 
7.5000000e-01 3.0000000e+00 1.3500000e+01 
7.5000000e-01 3.0000000e+00 1.4000000e+01 
7.5000000e-01 3.0000000e+00 1.4500000e+01 
7.5000000e-01 3.0000000e+00 1.5000000e+01 
7.5000000e-01 3.0000000e+00 1.5500000e+01 
7.5000000e-01 3.0000000e+00 1.6000000e+01 
7.5000000e-01 3.0000000e+00 1.6500000e+01 
7.5000000e-01 3.0000000e+00 1.7000000e+01 
7.5000000e-01 3.0000000e+00 1.7500000e+01 
7.5000000e-01 3.0000000e+00 1.8000000e+01 
7.5000000e-01 3.0000000e+00 1.8500000e+01 
7.5000000e-01 3.0000000e+00 1.9000000e+01 
7.5000000e-01 3.0000000e+00 1.9500000e+01 
7.5000000e-01 3.0000000e+00 2.0000000e+01 
7.5000000e-01 3.0000000e+00 2.0500000e+01 
7.5000000e-01 3.0000000e+00 2.1000000e+01 
7.5000000e-01 3.0000000e+00 2.1500000e+01 
7.5000000e-01 3.0000000e+00 2.2000000e+01 
7.5000000e-01 3.0000000e+00 2.2500000e+01 
7.5000000e-01 3.0000000e+00 2.3000000e+01 
7.5000000e-01 3.0000000e+00 2.3500000e+01 
7.5000000e-01 3.0000000e+00 2.4000000e+01 
7.5000000e-01 3.0000000e+00 2.4500000e+01 
7.5000000e-01 3.0000000e+00 2.5000000e+01 
7.5000000e-01 3.0000000e+00 2.5500000e+01 
7.5000000e-01 3.0000000e+00 2.6000000e+01 
7.5000000e-01 3.0000000e+00 2.6500000e+01 
7.5000000e-01 3.0000000e+00 2.7000000e+01 
7.5000000e-01 3.0000000e+00 2.7500000e+01 
7.5000000e-01 3.0000000e+00 2.8000000e+01 
7.5000000e-01 3.0000000e+00 2.8500000e+01 
7.5000000e-01 3.0000000e+00 2.9000000e+01 
7.5000000e-01 3.0000000e+00 2.9500000e+01 
7.5000000e-01 3.0000000e+00 3.0000000e+01 
7.5000000e-01 3.0000000e+00 3.0500000e+01 
7.5000000e-01 3.0000000e+00 3.1000000e+01 
7.5000000e-01 3.0000000e+00 3.1500000e+01 
7.5000000e-01 3.0000000e+00 3.2000000e+01 
7.5000000e-01 3.0000000e+00 3.2500000e+01 
7.5000000e-01 3.0000000e+00 3.3000000e+01 
7.5000000e-01 3.0000000e+00 3.3500000e+01 
7.5000000e-01 3.0000000e+00 3.4000000e+01 
7.5000000e-01 3.0000000e+00 3.4500000e+01 
7.5000000e-01 3.0000000e+00 3.5000000e+01 
7.5000000e-01 3.0000000e+00 3.5500000e+01 
7.5000000e-01 3.0000000e+00 3.6000000e+01 
7.5000000e-01 3.0000000e+00 3.6500000e+01 
7.5000000e-01 3.0000000e+00 3.7000000e+01 
7.5000000e-01 3.0000000e+00 3.7500000e+01 
7.5000000e-01 3.0000000e+00 3.8000000e+01 
7.5000000e-01 3.0000000e+00 3.8500000e+01 
7.5000000e-01 3.0000000e+00 3.9000000e+01 
7.5000000e-01 3.0000000e+00 3.9500000e+01 
7.5000000e-01 3.0000000e+00 4.0000000e+01 
7.5000000e-01 3.0000000e+00 4.0500000e+01 
7.5000000e-01 3.0000000e+00 4.1000000e+01 
7.5000000e-01 3.0000000e+00 4.1500000e+01 
7.5000000e-01 3.0000000e+00 4.2000000e+01 
7.5000000e-01 3.0000000e+00 4.2500000e+01 
7.5000000e-01 3.0000000e+00 4.3000000e+01 
7.5000000e-01 3.0000000e+00 4.3500000e+01 
7.5000000e-01 3.0000000e+00 4.4000000e+01 
7.5000000e-01 3.0000000e+00 4.4500000e+01 
7.5000000e-01 3.0000000e+00 4.5000000e+01 
7.5000000e-01 3.0000000e+00 4.5500000e+01 
7.5000000e-01 3.0000000e+00 4.6000000e+01 
7.5000000e-01 3.0000000e+00 4.6500000e+01 
7.5000000e-01 3.0000000e+00 4.7000000e+01 
7.5000000e-01 3.0000000e+00 4.7500000e+01 
7.5000000e-01 3.0000000e+00 4.8000000e+01 
7.5000000e-01 3.0000000e+00 4.8500000e+01 
7.5000000e-01 3.0000000e+00 4.9000000e+01 
7.5000000e-01 3.0000000e+00 4.9500000e+01 
7.5000000e-01 3.0250001e+00 0.0000000e+00 
7.5000000e-01 3.0250001e+00 5.0000000e-01 
7.5000000e-01 3.0250001e+00 1.0000000e+00 
7.5000000e-01 3.0250001e+00 1.5000000e+00 
7.5000000e-01 3.0250001e+00 2.0000000e+00 
7.5000000e-01 3.0250001e+00 2.5000000e+00 
7.5000000e-01 3.0250001e+00 3.0000000e+00 
7.5000000e-01 3.0250001e+00 3.5000000e+00 
7.5000000e-01 3.0250001e+00 4.0000000e+00 
7.5000000e-01 3.0250001e+00 4.5000000e+00 
7.5000000e-01 3.0250001e+00 5.0000000e+00 
7.5000000e-01 3.0250001e+00 5.5000000e+00 
7.5000000e-01 3.0250001e+00 6.0000000e+00 
7.5000000e-01 3.0250001e+00 6.5000000e+00 
7.5000000e-01 3.0250001e+00 7.0000000e+00 
7.5000000e-01 3.0250001e+00 7.5000000e+00 
7.5000000e-01 3.0250001e+00 8.0000000e+00 
7.5000000e-01 3.0250001e+00 8.5000000e+00 
7.5000000e-01 3.0250001e+00 9.0000000e+00 
7.5000000e-01 3.0250001e+00 9.5000000e+00 
7.5000000e-01 3.0250001e+00 1.0000000e+01 
7.5000000e-01 3.0250001e+00 1.0500000e+01 
7.5000000e-01 3.0250001e+00 1.1000000e+01 
7.5000000e-01 3.0250001e+00 1.1500000e+01 
7.5000000e-01 3.0250001e+00 1.2000000e+01 
7.5000000e-01 3.0250001e+00 1.2500000e+01 
7.5000000e-01 3.0250001e+00 1.3000000e+01 
7.5000000e-01 3.0250001e+00 1.3500000e+01 
7.5000000e-01 3.0250001e+00 1.4000000e+01 
7.5000000e-01 3.0250001e+00 1.4500000e+01 
7.5000000e-01 3.0250001e+00 1.5000000e+01 
7.5000000e-01 3.0250001e+00 1.5500000e+01 
7.5000000e-01 3.0250001e+00 1.6000000e+01 
7.5000000e-01 3.0250001e+00 1.6500000e+01 
7.5000000e-01 3.0250001e+00 1.7000000e+01 
7.5000000e-01 3.0250001e+00 1.7500000e+01 
7.5000000e-01 3.0250001e+00 1.8000000e+01 
7.5000000e-01 3.0250001e+00 1.8500000e+01 
7.5000000e-01 3.0250001e+00 1.9000000e+01 
7.5000000e-01 3.0250001e+00 1.9500000e+01 
7.5000000e-01 3.0250001e+00 2.0000000e+01 
7.5000000e-01 3.0250001e+00 2.0500000e+01 
7.5000000e-01 3.0250001e+00 2.1000000e+01 
7.5000000e-01 3.0250001e+00 2.1500000e+01 
7.5000000e-01 3.0250001e+00 2.2000000e+01 
7.5000000e-01 3.0250001e+00 2.2500000e+01 
7.5000000e-01 3.0250001e+00 2.3000000e+01 
7.5000000e-01 3.0250001e+00 2.3500000e+01 
7.5000000e-01 3.0250001e+00 2.4000000e+01 
7.5000000e-01 3.0250001e+00 2.4500000e+01 
7.5000000e-01 3.0250001e+00 2.5000000e+01 
7.5000000e-01 3.0250001e+00 2.5500000e+01 
7.5000000e-01 3.0250001e+00 2.6000000e+01 
7.5000000e-01 3.0250001e+00 2.6500000e+01 
7.5000000e-01 3.0250001e+00 2.7000000e+01 
7.5000000e-01 3.0250001e+00 2.7500000e+01 
7.5000000e-01 3.0250001e+00 2.8000000e+01 
7.5000000e-01 3.0250001e+00 2.8500000e+01 
7.5000000e-01 3.0250001e+00 2.9000000e+01 
7.5000000e-01 3.0250001e+00 2.9500000e+01 
7.5000000e-01 3.0250001e+00 3.0000000e+01 
7.5000000e-01 3.0250001e+00 3.0500000e+01 
7.5000000e-01 3.0250001e+00 3.1000000e+01 
7.5000000e-01 3.0250001e+00 3.1500000e+01 
7.5000000e-01 3.0250001e+00 3.2000000e+01 
7.5000000e-01 3.0250001e+00 3.2500000e+01 
7.5000000e-01 3.0250001e+00 3.3000000e+01 
7.5000000e-01 3.0250001e+00 3.3500000e+01 
7.5000000e-01 3.0250001e+00 3.4000000e+01 
7.5000000e-01 3.0250001e+00 3.4500000e+01 
7.5000000e-01 3.0250001e+00 3.5000000e+01 
7.5000000e-01 3.0250001e+00 3.5500000e+01 
7.5000000e-01 3.0250001e+00 3.6000000e+01 
7.5000000e-01 3.0250001e+00 3.6500000e+01 
7.5000000e-01 3.0250001e+00 3.7000000e+01 
7.5000000e-01 3.0250001e+00 3.7500000e+01 
7.5000000e-01 3.0250001e+00 3.8000000e+01 
7.5000000e-01 3.0250001e+00 3.8500000e+01 
7.5000000e-01 3.0250001e+00 3.9000000e+01 
7.5000000e-01 3.0250001e+00 3.9500000e+01 
7.5000000e-01 3.0250001e+00 4.0000000e+01 
7.5000000e-01 3.0250001e+00 4.0500000e+01 
7.5000000e-01 3.0250001e+00 4.1000000e+01 
7.5000000e-01 3.0250001e+00 4.1500000e+01 
7.5000000e-01 3.0250001e+00 4.2000000e+01 
7.5000000e-01 3.0250001e+00 4.2500000e+01 
7.5000000e-01 3.0250001e+00 4.3000000e+01 
7.5000000e-01 3.0250001e+00 4.3500000e+01 
7.5000000e-01 3.0250001e+00 4.4000000e+01 
7.5000000e-01 3.0250001e+00 4.4500000e+01 
7.5000000e-01 3.0250001e+00 4.5000000e+01 
7.5000000e-01 3.0250001e+00 4.5500000e+01 
7.5000000e-01 3.0250001e+00 4.6000000e+01 
7.5000000e-01 3.0250001e+00 4.6500000e+01 
7.5000000e-01 3.0250001e+00 4.7000000e+01 
7.5000000e-01 3.0250001e+00 4.7500000e+01 
7.5000000e-01 3.0250001e+00 4.8000000e+01 
7.5000000e-01 3.0250001e+00 4.8500000e+01 
7.5000000e-01 3.0250001e+00 4.9000000e+01 
7.5000000e-01 3.0250001e+00 4.9500000e+01 
7.5000000e-01 3.0250001e+00 5.0000000e+01 
3.0000000e+00 2.0000000e+00 3.6000000e+01 
8.0487806e-01 3.0000000e+00 3.6000000e+01 
0.0000000e+00 0.0000000e+00 1.0000000e+00 
0.0000000e+00 0.0000000e+00 2.0000000e+00 
0.0000000e+00 0.0000000e+00 3.0000000e+00 
0.0000000e+00 0.0000000e+00 4.0000000e+00 
0.0000000e+00 0.0000000e+00 5.0000000e+00 
0.0000000e+00 0.0000000e+00 6.0000000e+00 
0.0000000e+00 0.0000000e+00 7.0000000e+00 
0.0000000e+00 0.0000000e+00 8.0000000e+00 
[...]
POINT_DATA 1919
FIELD FieldData 3
DISPLACEMENT 3 1919  float
0.0000000e+00 0.0000000e+00 0.0000000e+00 
0.0000000e+00 0.0000000e+00 0.0000000e+00 
0.0000000e+00 0.0000000e+00 0.0000000e+00 
0.0000000e+00 0.0000000e+00 0.0000000e+00 
1.1284266e-06 -3.9578847e-08 4.3494944e-07 
-1.3346331e-06 1.4296935e-06 -3.1355453e-06 
0.0000000e+00 7.4429681e-06 0.0000000e+00 
0.0000000e+00 -1.2495404e-05 0.0000000e+00 
1.5681101e-06 1.4344309e-06 9.4478918e-07 
-2.7037263e-06 1.8105540e-07 -5.5553510e-06 
-1.4796941e-06 -5.8276373e-07 -1.6866011e-06 
-7.9680267e-06 1.0595601e-06 -1.4826593e-05 
0.0000000e+00 8.3807427e-06 0.0000000e+00 
0.0000000e+00 -2.5837346e-05 0.0000000e+00 
2.2696922e-06 -6.8185846e-06 -2.2174296e-05 
-5.8163141e-06 -2.1569518e-05 -6.1016213e-05 
-7.8554358e-06 3.1487340e-05 -1.4372369e-05 
1.1599296e-05 -9.0983121e-05 -2.8682533e-05 
0.0000000e+00 -3.1799771e-06 0.0000000e+00 
0.0000000e+00 -4.6608384e-05 0.0000000e+00 
3.8785797e-07 3.4218931e-05 -1.8980400e-05 
6.5099052e-06 4.1162955e-05 -1.9139889e-05 
1.3473032e-05 5.0831761e-05 -9.8482933e-06 
1.4832725e-05 6.1073857e-05 1.8494464e-06 
1.7415037e-05 6.8639842e-05 1.3874593e-05 
1.4758361e-05 7.1074101e-05 2.1622836e-05 
5.6090184e-06 6.8298890e-05 2.1772399e-05 
9.4246989e-06 6.5207932e-05 1.6663704e-05 
1.9938392e-05 6.4469663e-05 2.2073893e-05 
2.5452682e-05 6.3344116e-05 2.5711466e-05 
1.8104787e-05 5.6527882e-05 3.2773783e-05 
1.2294849e-05 3.9865721e-05 3.4914578e-05 
6.0747234e-06 1.6448566e-05 3.2158645e-05 
6.9157945e-06 -5.1717802e-06 2.3334929e-05 
-2.9471753e-06 -1.8532353e-05 1.9170957e-05 
-7.9229367e-06 -2.4003220e-05 5.8720605e-07 
-9.0783115e-06 -3.1267158e-05 -3.2152604e-06 
-1.3966904e-05 -5.5742668e-05 -6.1893338e-06 
-1.5337888e-05 -9.5471471e-05 -1.6740973e-05 
-2.8881303e-05 -1.2829660e-04 -2.6113616e-05 
-4.0251871e-05 -1.2972408e-04 -3.6107631e-05 
-3.7058355e-05 -9.0895534e-05 -5.4821325e-05 
-2.1284455e-05 -2.9214854e-05 -7.1354181e-05 
-9.4102406e-06 2.6300906e-05 -6.9199799e-05 
9.5502037e-06 6.8970221e-05 -8.2365528e-05 
1.1496774e-05 1.1249381e-04 -5.8080830e-05 
2.5892494e-05 1.7714041e-04 -5.6755485e-05 
3.5294721e-05 2.5955893e-04 -3.4592471e-05 
3.7820413e-05 2.9957810e-04 1.7262442e-05 
3.4640550e-05 1.8084394e-04 3.3555083e-05 
3.7117286e-05 -2.1538141e-04 1.3209665e-04 
1.0490548e-05 -9.5431972e-04 1.5703178e-04 
-4.5806162e-05 -2.0106770e-03 3.0955762e-04 
-1.2204074e-04 -3.1997112e-03 1.7184527e-04 
-2.0852173e-04 -4.2327973e-03 2.7678479e-04 
-2.6522070e-04 -4.6927040e-03 1.2921028e-04 
-2.8364119e-04 -4.7037969e-03 8.7047905e-05 
-2.8062525e-04 -4.7203908e-03 2.3330616e-05 
-2.7835739e-04 -4.9367729e-03 5.5754026e-07 
-2.9364467e-04 -5.0281337e-03 -1.2181767e-04 
-2.5808101e-04 -4.5053316e-03 -2.1577596e-04 
-1.7872686e-04 -3.3333090e-03 -1.7269951e-04 
-1.1960199e-04 -2.0582059e-03 -3.0190396e-04 
-5.3520511e-05 -9.9621690e-04 -1.8205801e-04 
1.8364601e-05 -2.5219703e-04 -1.9008893e-04 
6.4873566e-05 1.9550729e-04 -7.4435258e-05 
8.4086561e-05 4.0324868e-04 -2.6592485e-05 
7.5424956e-05 4.5017080e-04 3.2217285e-05 
5.4888471e-05 4.1434966e-04 6.0854549e-05 
5.2281634e-05 3.5422188e-04 7.3038078e-05 
4.8685921e-05 2.9322441e-04 1.0766737e-04 
4.2649430e-05 2.2473808e-04 9.5179719e-05 
3.4239030e-05 1.4275798e-04 9.0733243e-05 
1.6047990e-05 5.7998936e-05 7.5557648e-05 
-8.0752070e-06 -6.0651305e-06 6.9824586e-05 
-1.7446564e-05 -3.6455851e-05 5.9200673e-05 
-2.7226377e-05 -4.4367436e-05 6.2468476e-05 
-3.2924669e-05 -5.6210924e-05 4.7124038e-05 
-2.9831326e-05 -9.1701055e-05 3.9232033e-05 
-3.7671372e-05 -1.4899120e-04 7.0800079e-06 
-4.3731587e-05 -1.9660422e-04 -2.9338444e-05 
-4.0326529e-05 -1.9707849e-04 -6.3889900e-05 
-2.3152421e-05 -1.3786259e-04 -9.4691735e-05 
1.9867680e-06 -4.5536322e-05 -1.1570810e-04 
1.9111996e-05 3.9941173e-05 -1.1109481e-04 
1.9060935e-05 9.0881840e-05 -5.5635413e-05 
1.2970756e-05 1.1365410e-04 -1.1131549e-05 
1.3463401e-05 1.1658919e-04 3.0427922e-05 
4.8991587e-06 7.6516881e-05 4.1446376e-05 
-4.5976361e-05 -8.0619975e-05 9.5143921e-05 
-7.5609896e-05 -4.8470820e-04 1.3713024e-04 
-1.1798232e-04 -1.2499609e-03 8.0985468e-05 
-1.5382897e-04 -2.3856026e-03 2.0025257e-04 
-1.7825171e-04 -3.6505568e-03 4.9287781e-05 
-3.0800301e-04 -4.6268296e-03 1.3814543e-04 
-2.9935699e-04 -4.7948873e-03 2.9705669e-05 
-2.8712366e-04 -4.6051592e-03 -3.5203145e-06 
-2.8164004e-04 -4.5509129e-03 -2.4119621e-05 
-2.5091093e-04 -4.7488664e-03 -7.3253609e-06 
-2.5572733e-04 -4.7684917e-03 -8.4471976e-05 
-2.3144702e-04 -4.1021453e-03 -1.8018874e-04 
-1.7566027e-04 -2.9799049e-03 -1.2519471e-04 
-1.2642353e-04 -1.8789059e-03 -2.0242039e-04 
-7.7733523e-05 -1.0056684e-03 -8.4592823e-05 
-2.8034676e-05 -4.1625000e-04 -1.0755110e-04 
5.3853717e-07 -7.4442469e-05 -4.9099643e-05 
2.2570532e-05 8.9150803e-05 -5.0938892e-05 
4.2384323e-05 1.4924994e-04 -2.5571231e-05 
2.5469619e-05 1.6048658e-04 -1.5236584e-06 
2.4648320e-05 1.5648776e-04 1.5724712e-05 
2.4575493e-05 1.4514914e-04 3.2784144e-05 
2.3227856e-05 1.2603997e-04 3.7659207e-05 
1.5345586e-05 1.0070505e-04 4.2292075e-05 
-1.9032963e-06 7.3105453e-05 4.2678646e-05 
-2.3373348e-05 4.4045388e-05 3.1157826e-05 
-2.9515946e-05 1.2769702e-05 3.1381992e-06 
-2.8450379e-05 -2.1128346e-05 -2.7743106e-05 
-1.8991565e-05 -5.4788849e-05 -5.6059016e-05 
-2.7470205e-06 -8.0794758e-05 -5.3010681e-05 
0.0000000e+00 3.1506206e-05 0.0000000e+00 
0.0000000e+00 3.4184603e-05 0.0000000e+00 
0.0000000e+00 4.1236679e-05 0.0000000e+00 
0.0000000e+00 5.0994018e-05 0.0000000e+00 
0.0000000e+00 6.1138613e-05 0.0000000e+00 
0.0000000e+00 6.8503978e-05 0.0000000e+00 
0.0000000e+00 7.0696522e-05 0.0000000e+00 
0.0000000e+00 6.8315028e-05 0.0000000e+00 
0.0000000e+00 6.5529894e-05 0.0000000e+00 
0.0000000e+00 6.4772546e-05 0.0000000e+00 
0.0000000e+00 6.3450061e-05 0.0000000e+00 
0.0000000e+00 5.6203080e-05 0.0000000e+00 
0.0000000e+00 3.9488830e-05 0.0000000e+00 
0.0000000e+00 1.6402149e-05 0.0000000e+00 
0.0000000e+00 -4.8996549e-06 0.0000000e+00 
0.0000000e+00 -1.7956580e-05 0.0000000e+00 
0.0000000e+00 -2.3495752e-05 0.0000000e+00 
0.0000000e+00 -3.1942858e-05 0.0000000e+00 
0.0000000e+00 -5.6776858e-05 0.0000000e+00 
0.0000000e+00 -9.5957119e-05 0.0000000e+00 
0.0000000e+00 -1.2794034e-04 0.0000000e+00 
0.0000000e+00 -1.2845534e-04 0.0000000e+00 
0.0000000e+00 -9.0016511e-05 0.0000000e+00 
0.0000000e+00 -2.9964674e-05 0.0000000e+00 
0.0000000e+00 2.5329622e-05 0.0000000e+00 
0.0000000e+00 6.8300076e-05 0.0000000e+00 
0.0000000e+00 1.1322309e-04 0.0000000e+00 
0.0000000e+00 1.7967356e-04 0.0000000e+00 
0.0000000e+00 2.6252892e-04 0.0000000e+00 
0.0000000e+00 3.0081387e-04 0.0000000e+00 
0.0000000e+00 1.7945992e-04 0.0000000e+00 
0.0000000e+00 -2.2039632e-04 0.0000000e+00 
0.0000000e+00 -9.6386916e-04 0.0000000e+00 
0.0000000e+00 -2.0176156e-03 0.0000000e+00 
0.0000000e+00 -3.2164378e-03 0.0000000e+00 
0.0000000e+00 -4.2545088e-03 0.0000000e+00 
0.0000000e+00 -4.7253896e-03 0.0000000e+00 
0.0000000e+00 -4.7283219e-03 0.0000000e+00 
0.0000000e+00 -4.7472073e-03 0.0000000e+00 
0.0000000e+00 -4.9566347e-03 0.0000000e+00 
0.0000000e+00 -5.0566830e-03 0.0000000e+00 
0.0000000e+00 -4.5283018e-03 0.0000000e+00 
0.0000000e+00 -3.3548251e-03 0.0000000e+00 
0.0000000e+00 -2.0681433e-03 0.0000000e+00 
0.0000000e+00 -1.0016202e-03 0.0000000e+00 
0.0000000e+00 -2.5372644e-04 0.0000000e+00 
0.0000000e+00 1.9454908e-04 0.0000000e+00 
0.0000000e+00 4.0356681e-04 0.0000000e+00 
0.0000000e+00 4.5151153e-04 0.0000000e+00 
0.0000000e+00 4.1630221e-04 0.0000000e+00 
0.0000000e+00 3.5576054e-04 0.0000000e+00 
0.0000000e+00 2.9331690e-04 0.0000000e+00 
0.0000000e+00 2.2406262e-04 0.0000000e+00 
0.0000000e+00 1.4212586e-04 0.0000000e+00 
0.0000000e+00 5.8393343e-05 0.0000000e+00 
0.0000000e+00 -5.0401977e-06 0.0000000e+00 
0.0000000e+00 -3.5777372e-05 0.0000000e+00 
0.0000000e+00 -4.4433858e-05 0.0000000e+00 
0.0000000e+00 -5.6914745e-05 0.0000000e+00 
0.0000000e+00 -9.3145973e-05 0.0000000e+00 
0.0000000e+00 -1.4972615e-04 0.0000000e+00 
0.0000000e+00 -1.9594390e-04 0.0000000e+00 
0.0000000e+00 -1.9531157e-04 0.0000000e+00 
0.0000000e+00 -1.3665289e-04 0.0000000e+00 
0.0000000e+00 -4.5520515e-05 0.0000000e+00 
0.0000000e+00 3.8426260e-05 0.0000000e+00 
0.0000000e+00 9.0429137e-05 0.0000000e+00 
0.0000000e+00 1.1443654e-04 0.0000000e+00 
0.0000000e+00 1.1862133e-04 0.0000000e+00 
0.0000000e+00 7.9718920e-05 0.0000000e+00 
0.0000000e+00 -8.0129837e-05 0.0000000e+00 
0.0000000e+00 -4.8904045e-04 0.0000000e+00 
0.0000000e+00 -1.2625013e-03 0.0000000e+00 
0.0000000e+00 -2.3971312e-03 0.0000000e+00 
0.0000000e+00 -3.6737199e-03 0.0000000e+00 
0.0000000e+00 -4.6448177e-03 0.0000000e+00 
0.0000000e+00 -4.8241587e-03 0.0000000e+00 
0.0000000e+00 -4.6288422e-03 0.0000000e+00 
0.0000000e+00 -4.5796293e-03 0.0000000e+00 
0.0000000e+00 -4.7705080e-03 0.0000000e+00 
0.0000000e+00 -4.7970344e-03 0.0000000e+00 
0.0000000e+00 -4.1224491e-03 0.0000000e+00 
0.0000000e+00 -2.9970505e-03 0.0000000e+00 
0.0000000e+00 -1.8862583e-03 0.0000000e+00 
0.0000000e+00 -1.0101501e-03 0.0000000e+00 
0.0000000e+00 -4.1784704e-04 0.0000000e+00 
0.0000000e+00 -7.4271571e-05 0.0000000e+00 
0.0000000e+00 9.0538939e-05 0.0000000e+00 
0.0000000e+00 1.5043213e-04 0.0000000e+00 
0.0000000e+00 1.6162933e-04 0.0000000e+00 
0.0000000e+00 1.5679025e-04 0.0000000e+00 
0.0000000e+00 1.4510528e-04 0.0000000e+00 
0.0000000e+00 1.2610537e-04 0.0000000e+00 
0.0000000e+00 1.0091866e-04 0.0000000e+00 
0.0000000e+00 7.3043797e-05 0.0000000e+00 
0.0000000e+00 4.3895987e-05 0.0000000e+00 
0.0000000e+00 1.2660319e-05 0.0000000e+00 
0.0000000e+00 -2.1185744e-05 0.0000000e+00 
0.0000000e+00 -5.4725799e-05 0.0000000e+00 
0.0000000e+00 -8.0727994e-05 0.0000000e+00 
0.0000000e+00 -9.0851594e-05 0.0000000e+00 
2.9137895e-05 -4.6225938e-05 -3.8457751e-05 
-1.2588277e-04 -1.1127712e-03 9.1542031e-05 
0.0000000e+00 0.0000000e+00 0.0000000e+00 
0.0000000e+00 0.0000000e+00 0.0000000e+00 
0.0000000e+00 0.0000000e+00 0.0000000e+00 
0.0000000e+00 0.0000000e+00 0.0000000e+00 
0.0000000e+00 0.0000000e+00 0.0000000e+00 
0.0000000e+00 0.0000000e+00 0.0000000e+00 
0.0000000e+00 0.0000000e+00 0.0000000e+00 
0.0000000e+00 0.0000000e+00 0.0000000e+00 
0.0000000e+00 0.0000000e+00 0.0000000e+00 
0.0000000e+00 0.0000000e+00 0.0000000e+00 
0.0000000e+00 0.0000000e+00 0.0000000e+00 
0.0000000e+00 0.0000000e+00 0.0000000e+00 
0.0000000e+00 0.0000000e+00 0.0000000e+00 
0.0000000e+00 0.0000000e+00 0.0000000e+00 
0.0000000e+00 0.0000000e+00 0.0000000e+00 
0.0000000e+00 0.0000000e+00 0.0000000e+00 
0.0000000e+00 0.0000000e+00 0.0000000e+00 
0.0000000e+00 0.0000000e+00 0.0000000e+00 
0.0000000e+00 0.0000000e+00 0.0000000e+00 
0.0000000e+00 0.0000000e+00 0.0000000e+00 
0.0000000e+00 0.0000000e+00 0.0000000e+00 
0.0000000e+00 0.0000000e+00 0.0000000e+00 
0.0000000e+00 0.0000000e+00 0.0000000e+00 
0.0000000e+00 0.0000000e+00 0.0000000e+00 
0.0000000e+00 0.0000000e+00 0.0000000e+00 
0.0000000e+00 0.0000000e+00 0.0000000e+00 
0.0000000e+00 0.0000000e+00 0.0000000e+00 
0.0000000e+00 0.0000000e+00 0.0000000e+00 
0.0000000e+00 0.0000000e+00 0.0000000e+00 
0.0000000e+00 0.0000000e+00 0.0000000e+00 
0.0000000e+00 0.0000000e+00 0.0000000e+00 
0.0000000e+00 0.0000000e+00 0.0000000e+00 
0.0000000e+00 0.0000000e+00 0.0000000e+00 
0.0000000e+00 0.0000000e+00 0.0000000e+00 
0.0000000e+00 0.0000000e+00 0.0000000e+00 
0.0000000e+00 0.0000000e+00 0.0000000e+00 
0.0000000e+00 0.0000000e+00 0.0000000e+00 
0.0000000e+00 0.0000000e+00 0.0000000e+00 
0.0000000e+00 0.0000000e+00 0.0000000e+00 
0.0000000e+00 0.0000000e+00 0.0000000e+00 
0.0000000e+00 0.0000000e+00 0.0000000e+00 
0.0000000e+00 0.0000000e+00 0.0000000e+00 
0.0000000e+00 0.0000000e+00 0.0000000e+00 
0.0000000e+00 0.0000000e+00 0.0000000e+00 
0.0000000e+00 0.0000000e+00 0.0000000e+00 
0.0000000e+00 0.0000000e+00 0.0000000e+00 
0.0000000e+00 0.0000000e+00 0.0000000e+00 
0.0000000e+00 0.0000000e+00 0.0000000e+00 
0.0000000e+00 0.0000000e+00 0.0000000e+00 
0.0000000e+00 0.0000000e+00 0.0000000e+00 
0.0000000e+00 0.0000000e+00 0.0000000e+00 
0.0000000e+00 0.0000000e+00 0.0000000e+00 
0.0000000e+00 0.0000000e+00 0.0000000e+00 
0.0000000e+00 0.0000000e+00 0.0000000e+00 
0.0000000e+00 0.0000000e+00 0.0000000e+00 
0.0000000e+00 0.0000000e+00 0.0000000e+00 
0.0000000e+00 0.0000000e+00 0.0000000e+00 
0.0000000e+00 0.0000000e+00 0.0000000e+00 
0.0000000e+00 0.0000000e+00 0.0000000e+00 
0.0000000e+00 0.0000000e+00 0.0000000e+00 
0.0000000e+00 0.0000000e+00 0.0000000e+00 
0.0000000e+00 0.0000000e+00 0.0000000e+00 
0.0000000e+00 0.0000000e+00 0.0000000e+00 
0.0000000e+00 0.0000000e+00 0.0000000e+00 
0.0000000e+00 0.0000000e+00 0.0000000e+00 
0.0000000e+00 0.0000000e+00 0.0000000e+00 
0.0000000e+00 0.0000000e+00 0.0000000e+00 
0.0000000e+00 0.0000000e+00 0.0000000e+00 
0.0000000e+00 0.0000000e+00 0.0000000e+00 
0.0000000e+00 0.0000000e+00 0.0000000e+00 
0.0000000e+00 0.0000000e+00 0.0000000e+00 
0.0000000e+00 0.0000000e+00 0.0000000e+00 
0.0000000e+00 0.0000000e+00 0.0000000e+00 
0.0000000e+00 0.0000000e+00 0.0000000e+00 
0.0000000e+00 0.0000000e+00 0.0000000e+00 
0.0000000e+00 0.0000000e+00 0.0000000e+00 
0.0000000e+00 0.0000000e+00 0.0000000e+00 
0.0000000e+00 0.0000000e+00 0.0000000e+00 
0.0000000e+00 0.0000000e+00 0.0000000e+00 
0.0000000e+00 0.0000000e+00 0.0000000e+00 
0.0000000e+00 0.0000000e+00 0.0000000e+00 
0.0000000e+00 0.0000000e+00 0.0000000e+00 
0.0000000e+00 0.0000000e+00 0.0000000e+00 
0.0000000e+00 0.0000000e+00 0.0000000e+00 
0.0000000e+00 0.0000000e+00 0.0000000e+00 
0.0000000e+00 0.0000000e+00 0.0000000e+00 
0.0000000e+00 0.0000000e+00 0.0000000e+00 
0.0000000e+00 0.0000000e+00 0.0000000e+00 
0.0000000e+00 0.0000000e+00 0.0000000e+00 
0.0000000e+00 0.0000000e+00 0.0000000e+00 
0.0000000e+00 0.0000000e+00 0.0000000e+00 
0.0000000e+00 0.0000000e+00 0.0000000e+00 
0.0000000e+00 0.0000000e+00 0.0000000e+00 
0.0000000e+00 0.0000000e+00 0.0000000e+00 
0.0000000e+00 0.0000000e+00 0.0000000e+00 
0.0000000e+00 0.0000000e+00 0.0000000e+00 
0.0000000e+00 0.0000000e+00 0.0000000e+00 
0.0000000e+00 0.0000000e+00 0.0000000e+00 
0.0000000e+00 0.0000000e+00 0.0000000e+00 
0.0000000e+00 0.0000000e+00 0.0000000e+00 
0.0000000e+00 0.0000000e+00 0.0000000e+00 
0.0000000e+00 0.0000000e+00 0.0000000e+00 
0.0000000e+00 0.0000000e+00 0.0000000e+00 
0.0000000e+00 0.0000000e+00 0.0000000e+00 
0.0000000e+00 0.0000000e+00 0.0000000e+00 
0.0000000e+00 0.0000000e+00 0.0000000e+00 
-1.4452680e-06 4.5495767e-07 1.1656736e-06 
-1.5161050e-06 2.1456943e-07 -1.3013345e-06 
4.2154835e-07 1.2824022e-06 -2.5014501e-06 
7.0664242e-08 -1.3681998e-07 -2.3281743e-06 
-5.7487853e-08 6.0103298e-07 -3.8202284e-06 
2.4183225e-06 -3.0935576e-06 -2.5899283e-06 
3.2653759e-06 3.2203664e-07 -1.2512003e-06 
2.1034446e-06 -5.5483179e-07 -3.2280850e-06 
3.8640619e-06 -3.6797210e-06 -1.5989127e-06 
1.1031211e-06 6.4436762e-07 -9.6799999e-07 
-2.3314860e-06 -3.5864055e-06 -4.9978598e-06 
-1.5058348e-06 -2.0618379e-06 -7.1246463e-06 
3.7723657e-06 8.4560742e-07 -8.8543575e-06 
8.4489666e-06 7.7365826e-07 -1.1112777e-05 
1.7371856e-05 -1.1056802e-05 -1.4573456e-05 
2.9029292e-05 -1.0551920e-05 -1.0918314e-05 
3.8268699e-05 -1.2310780e-05 -6.5787690e-06 
4.6065077e-05 -1.8112074e-05 -2.4540689e-06 
4.9877279e-05 -1.5045197e-05 7.4723325e-06 
4.0027131e-05 -1.5748456e-05 1.6695405e-05 
3.1901272e-05 -9.1321444e-06 2.0881505e-05 
2.0429667e-05 -4.8219490e-06 2.2605986e-05 
1.3434556e-05 -4.3707719e-06 1.4627295e-05 
8.1398821e-06 -2.2624465e-06 1.3932990e-05 
5.3014069e-06 -3.5427840e-06 7.9523816e-06 
4.8537372e-06 -2.4397980e-06 -4.3048722e-06 
1.8901661e-06 -5.2296531e-07 -3.6530141e-06 
1.0904589e-06 -1.9564966e-06 -5.8274923e-06 
2.4720714e-06 -3.7133141e-06 -1.2039429e-05 
2.0368675e-06 -5.1524758e-06 -1.0422733e-05 
1.4447842e-06 4.0287478e-06 -9.2588034e-06 
1.4221889e-06 -1.2127067e-06 -1.4615805e-05 
3.1703421e-06 -1.9526867e-06 -1.4326656e-05 
1.0268703e-05 -2.7836547e-06 -1.7093329e-05 
1.7962164e-05 -5.2210066e-06 -1.8183620e-05 
2.5427355e-05 -1.3829853e-05 -1.5840596e-05 
3.7772214e-05 -9.5113937e-06 -1.2295487e-05 
4.2645715e-05 -1.3962330e-05 -2.5194129e-06 
4.4945231e-05 -1.5868382e-05 4.2555807e-06 
4.1969772e-05 -1.5398002e-05 1.6645168e-05 
3.1392086e-05 -1.2337550e-05 2.0776562e-05 
2.3546760e-05 -1.1020289e-05 2.0869194e-05 
1.4693514e-05 -4.4868602e-06 1.6785894e-05 
8.9541863e-06 -1.3529957e-06 1.2206587e-05 
3.2727753e-06 1.3919417e-09 8.4448347e-06 
9.3249764e-07 -3.1691641e-07 5.1611742e-06 
-1.0535490e-06 -1.2543694e-06 5.9815463e-08 
-1.6722622e-06 -4.9688913e-07 -1.8658189e-06 
-2.0783166e-06 -1.4712001e-07 -3.4306458e-06 
0.0000000e+00 1.6110542e-05 0.0000000e+00 
0.0000000e+00 2.2059199e-05 0.0000000e+00 
0.0000000e+00 1.1424559e-05 0.0000000e+00 
0.0000000e+00 -2.3081479e-06 0.0000000e+00 
0.0000000e+00 -4.6078630e-06 0.0000000e+00 
0.0000000e+00 -2.3340033e-05 0.0000000e+00 
0.0000000e+00 -4.5905606e-05 0.0000000e+00 
0.0000000e+00 -1.8492932e-05 0.0000000e+00 
0.0000000e+00 -1.3730970e-05 0.0000000e+00 
0.0000000e+00 -1.3134949e-05 0.0000000e+00 
0.0000000e+00 4.4349094e-05 0.0000000e+00 
0.0000000e+00 3.2133594e-05 0.0000000e+00 
0.0000000e+00 4.3195494e-05 0.0000000e+00 
0.0000000e+00 6.2324485e-05 0.0000000e+00 
0.0000000e+00 2.6385853e-05 0.0000000e+00 
0.0000000e+00 -1.6794524e-04 0.0000000e+00 
0.0000000e+00 -3.5549031e-04 0.0000000e+00 
0.0000000e+00 -5.1991234e-04 0.0000000e+00 
0.0000000e+00 -6.2361843e-04 0.0000000e+00 
0.0000000e+00 -5.8744522e-04 0.0000000e+00 
0.0000000e+00 -3.9784101e-04 0.0000000e+00 
0.0000000e+00 -1.2733879e-04 0.0000000e+00 
0.0000000e+00 -1.6016982e-05 0.0000000e+00 
0.0000000e+00 2.2178090e-05 0.0000000e+00 
0.0000000e+00 4.2391981e-05 0.0000000e+00 
0.0000000e+00 2.8838169e-05 0.0000000e+00 
0.0000000e+00 -1.9222562e-05 0.0000000e+00 
0.0000000e+00 3.7115998e-07 0.0000000e+00 
0.0000000e+00 -1.1071795e-05 0.0000000e+00 
0.0000000e+00 -4.8420923e-05 0.0000000e+00 
0.0000000e+00 -2.5156331e-05 0.0000000e+00 
0.0000000e+00 1.6646885e-05 0.0000000e+00 
0.0000000e+00 -1.7237895e-05 0.0000000e+00 
0.0000000e+00 1.6913623e-07 0.0000000e+00 
0.0000000e+00 -1.0123726e-04 0.0000000e+00 
0.0000000e+00 -2.3327864e-04 0.0000000e+00 
0.0000000e+00 -4.3602393e-04 0.0000000e+00 
0.0000000e+00 -5.3139811e-04 0.0000000e+00 
0.0000000e+00 -5.3261896e-04 0.0000000e+00 
0.0000000e+00 -4.7339295e-04 0.0000000e+00 
0.0000000e+00 -3.2680124e-04 0.0000000e+00 
0.0000000e+00 -1.6863753e-04 0.0000000e+00 
0.0000000e+00 -5.9534254e-05 0.0000000e+00 
0.0000000e+00 -1.1330279e-05 0.0000000e+00 
0.0000000e+00 2.3501672e-05 0.0000000e+00 
0.0000000e+00 3.8587707e-05 0.0000000e+00 
0.0000000e+00 1.8144072e-05 0.0000000e+00 
0.0000000e+00 -5.0032995e-06 0.0000000e+00 
0.0000000e+00 -1.8360612e-05 0.0000000e+00 
-2.0008429e-06 7.8684729e-07 1.5783647e-06 
-2.3622790e-06 -6.4568906e-07 2.3424218e-06 
-4.2321490e-06 8.0136893e-08 2.4523215e-06 
-1.9279091e-06 2.9946409e-06 5.6201961e-06 
-2.7263377e-06 1.3799307e-06 -4.2851325e-06 
-1.5849731e-06 -7.3837029e-08 -6.0892385e-06 
1.4037940e-06 -4.4124326e-06 -6.2308995e-06 
2.9524765e-06 -9.6678150e-06 -2.5713393e-06 
3.4346414e-07 -8.4195887e-07 -1.6217406e-06 
-1.4641394e-07 1.1112663e-06 -3.2682490e-06 
2.0422117e-07 1.9554575e-06 -2.5195475e-06 
2.4583671e-06 1.2538321e-06 -1.4760151e-06 
2.0893663e-06 7.0417451e-07 -2.8403915e-06 
7.0994979e-06 -3.5348635e-06 -1.0837621e-06 
4.1391791e-06 -2.9983190e-07 -4.3193118e-06 
5.3909253e-06 2.1071501e-06 -4.3545074e-06 
2.7133647e-06 -2.9555852e-06 -5.7658194e-06 
-3.4495847e-06 5.5326063e-06 -2.9722144e-06 
9.8809039e-07 -3.3473677e-06 -2.9489045e-06 
1.2962049e-06 -4.7209669e-06 -6.7989376e-06 
6.2013755e-06 1.1199622e-06 -1.5448704e-05 
1.1349696e-05 -7.5497669e-06 -1.5689091e-05 
2.3057113e-05 -7.2802018e-06 -1.9063315e-05 
4.0411815e-05 -6.9454468e-06 -1.3135834e-05 
4.2406773e-05 -1.0662535e-05 1.0212575e-06 
4.0740772e-05 -1.8043791e-05 1.5474516e-06 
4.8323403e-05 -1.3384286e-05 1.0630451e-05 
4.0430168e-05 -1.5529320e-05 1.7451137e-05 