# vtk DataFile Version 4.0
vtk output
ASCII
DATASET UNSTRUCTURED_GRID
POINTS 1919 float
0.0000000e+00 0.0000000e+00 0.0000000e+00 
0.0000000e+00 0.0000000e+00 5.0000000e+01 
5.0000000e+00 0.0000000e+00 0.0000000e+00 
5.0000000e+00 0.0000000e+00 5.0000000e+01 
5.0000000e+00 1.0000000e+00 0.0000000e+00 
5.0000000e+00 1.0000000e+00 5.0000000e+01 
0.0000000e+00 1.0000000e+00 0.0000000e+00 
0.0000000e+00 1.0000000e+00 5.0000000e+01 
5.0000000e+00 2.0000000e+00 0.0000000e+00 
5.0000000e+00 2.0000000e+00 5.0000000e+01 
3.0000000e+00 2.0000000e+00 0.0000000e+00 
3.0000000e+00 2.0000000e+00 5.0000000e+01 
0.0000000e+00 2.0000000e+00 0.0000000e+00 
0.0000000e+00 2.0000000e+00 5.0000000e+01 
1.5000000e+00 3.0000000e+00 0.0000000e+00 
1.5000000e+00 3.0000000e+00 5.0000000e+01 
7.5000000e-01 3.0000000e+00 0.0000000e+00 
7.5000000e-01 3.0000000e+00 5.0000000e+01 
0.0000000e+00 3.0000000e+00 0.0000000e+00 
0.0000000e+00 3.0000000e+00 5.0000000e+01 
7.5000000e-01 3.0000000e+00 5.0000000e-01 
7.5000000e-01 3.0000000e+00 1.0000000e+00 
7.5000000e-01 3.0000000e+00 1.5000000e+00 
7.5000000e-01 3.0000000e+00 2.0000000e+00 
7.5000000e-01 3.0000000e+00 2.5000000e+00 
7.5000000e-01 3.0000000e+00 3.0000000e+00 
7.5000000e-01 3.0000000e+00 3.5000000e+00 
7.5000000e-01 3.0000000e+00 4.0000000e+00 
7.5000000e-01 3.0000000e+00 4.5000000e+00 
7.5000000e-01 3.0000000e+00 5.0000000e+00 
7.5000000e-01 3.0000000e+00 5.5000000e+00 
7.5000000e-01 3.0000000e+00 6.0000000e+00 
7.5000000e-01 3.0000000e+00 6.5000000e+00 
7.5000000e-01 3.0000000e+00 7.0000000e+00 
7.5000000e-01 3.0000000e+00 7.5000000e+00 
7.5000000e-01 3.0000000e+00 8.0000000e+00 
7.5000000e-01 3.0000000e+00 8.5000000e+00 
7.5000000e-01 3.0000000e+00 9.0000000e+00 
7.5000000e-01 3.0000000e+00 9.5000000e+00 
7.5000000e-01 3.0000000e+00 1.0000000e+01 
7.5000000e-01 3.0000000e+00 1.0500000e+01 
7.5000000e-01 3.0000000e+00 1.1000000e+01 
7.5000000e-01 3.0000000e+00 1.1500000e+01 
7.5000000e-01 3.0000000e+00 1.2000000e+01 
7.5000000e-01 3.0000000e+00 1.2500000e+01 
7.5000000e-01 3.0000000e+00 1.3000000e+01 
7.5000000e-01 3.0000000e+00 1.3500000e+01 
7.5000000e-01 3.0000000e+00 1.4000000e+01 
7.5000000e-01 3.0000000e+00 1.4500000e+01 
7.5000000e-01 3.0000000e+00 1.5000000e+01 
7.5000000e-01 3.0000000e+00 1.5500000e+01 
7.5000000e-01 3.0000000e+00 1.6000000e+01 
7.5000000e-01 3.0000000e+00 1.6500000e+01 
7.5000000e-01 3.0000000e+00 1.7000000e+01 
7.5000000e-01 3.0000000e+00 1.7500000e+01 
7.5000000e-01 3.0000000e+00 1.8000000e+01 
7.5000000e-01 3.0000000e+00 1.8500000e+01 
7.5000000e-01 3.0000000e+00 1.9000000e+01 
7.5000000e-01 3.0000000e+00 1.9500000e+01 
7.5000000e-01 3.0000000e+00 2.0000000e+01 
7.5000000e-01 3.0000000e+00 2.0500000e+01 
7.5000000e-01 3.0000000e+00 2.1000000e+01 
7.5000000e-01 3.0000000e+00 2.1500000e+01 
7.5000000e-01 3.0000000e+00 2.2000000e+01 
7.5000000e-01 3.0000000e+00 2.2500000e+01 
7.5000000e-01 3.0000000e+00 2.3000000e+01 
7.5000000e-01 3.0000000e+00 2.3500000e+01 
7.5000000e-01 3.0000000e+00 2.4000000e+01 
7.5000000e-01 3.0000000e+00 2.4500000e+01 
7.5000000e-01 3.0000000e+00 2.5000000e+01 
7.5000000e-01 3.0000000e+00 2.5500000e+01 
7.5000000e-01 3.0000000e+00 2.6000000e+01 
7.5000000e-01 3.0000000e+00 2.6500000e+01 
7.5000000e-01 3.0000000e+00 2.7000000e+01 
7.5000000e-01 3.0000000e+00 2.7500000e+01 
7.5000000e-01 3.0000000e+00 2.8000000e+01 
7.5000000e-01 3.0000000e+00 2.8500000e+01 
7.5000000e-01 3.0000000e+00 2.9000000e+01 
7.5000000e-01 3.0000000e+00 2.9500000e+01 
7.5000000e-01 3.0000000e+00 3.0000000e+01 
7.5000000e-01 3.0000000e+00 3.0500000e+01 
7.5000000e-01 3.0000000e+00 3.1000000e+01 
7.5000000e-01 3.0000000e+00 3.1500000e+01 
7.5000000e-01 3.0000000e+00 3.2000000e+01 
7.5000000e-01 3.0000000e+00 3.2500000e+01 
7.5000000e-01 3.0000000e+00 3.3000000e+01 
7.5000000e-01 3.0000000e+00 3.3500000e+01 
7.5000000e-01 3.0000000e+00 3.4000000e+01 
7.5000000e-01 3.0000000e+00 3.4500000e+01 
7.5000000e-01 3.0000000e+00 3.5000000e+01 
7.5000000e-01 3.0000000e+00 3.5500000e+01 
7.5000000e-01 3.0000000e+00 3.6000000e+01 
7.5000000e-01 3.0000000e+00 3.6500000e+01 
7.5000000e-01 3.0000000e+00 3.7000000e+01 
7.5000000e-01 3.0000000e+00 3.7500000e+01 
7.5000000e-01 3.0000000e+00 3.8000000e+01 
7.5000000e-01 3.0000000e+00 3.8500000e+01 
7.5000000e-01 3.0000000e+00 3.9000000e+01 
7.5000000e-01 3.0000000e+00 3.9500000e+01 
7.5000000e-01 3.0000000e+00 4.0000000e+01 
7.5000000e-01 3.0000000e+00 4.0500000e+01 
7.5000000e-01 3.0000000e+00 4.1000000e+01 
7.5000000e-01 3.0000000e+00 4.1500000e+01 
7.5000000e-01 3.0000000e+00 4.2000000e+01 
7.5000000e-01 3.0000000e+00 4.2500000e+01 
7.5000000e-01 3.0000000e+00 4.3000000e+01 
7.5000000e-01 3.0000000e+00 4.3500000e+01 
7.5000000e-01 3.0000000e+00 4.4000000e+01 
7.5000000e-01 3.0000000e+00 4.4500000e+01 
7.5000000e-01 3.0000000e+00 4.5000000e+01 
7.5000000e-01 3.0000000e+00 4.5500000e+01 
7.5000000e-01 3.0000000e+00 4.6000000e+01 
7.5000000e-01 3.0000000e+00 4.6500000e+01 
7.5000000e-01 3.0000000e+00 4.7000000e+01 
7.5000000e-01 3.0000000e+00 4.7500000e+01 
7.5000000e-01 3.0000000e+00 4.8000000e+01 
7.5000000e-01 3.0000000e+00 4.8500000e+01 
7.5000000e-01 3.0000000e+00 4.9000000e+01 
7.5000000e-01 3.0000000e+00 4.9500000e+01 
7.5000000e-01 3.0250001e+00 0.0000000e+00 
7.5000000e-01 3.0250001e+00 5.0000000e-01 
7.5000000e-01 3.0250001e+00 1.0000000e+00 
7.5000000e-01 3.0250001e+00 1.5000000e+00 
7.5000000e-01 3.0250001e+00 2.0000000e+00 
7.5000000e-01 3.0250001e+00 2.5000000e+00 
7.5000000e-01 3.0250001e+00 3.0000000e+00 
7.5000000e-01 3.0250001e+00 3.5000000e+00 
7.5000000e-01 3.0250001e+00 4.0000000e+00 
7.5000000e-01 3.0250001e+00 4.5000000e+00 
7.5000000e-01 3.0250001e+00 5.0000000e+00 
7.5000000e-01 3.0250001e+00 5.5000000e+00 
7.5000000e-01 3.0250001e+00 6.0000000e+00 
7.5000000e-01 3.0250001e+00 6.5000000e+00 
7.5000000e-01 3.0250001e+00 7.0000000e+00 
7.5000000e-01 3.0250001e+00 7.5000000e+00 
7.5000000e-01 3.0250001e+00 8.0000000e+00 
7.5000000e-01 3.0250001e+00 8.5000000e+00 
7.5000000e-01 3.0250001e+00 9.0000000e+00 
7.5000000e-01 3.0250001e+00 9.5000000e+00 
7.5000000e-01 3.0250001e+00 1.0000000e+01 
7.5000000e-01 3.0250001e+00 1.0500000e+01 
7.5000000e-01 3.0250001e+00 1.1000000e+01 
7.5000000e-01 3.0250001e+00 1.1500000e+01 
7.5000000e-01 3.0250001e+00 1.2000000e+01 
7.5000000e-01 3.0250001e+00 1.2500000e+01 
7.5000000e-01 3.0250001e+00 1.3000000e+01 
7.5000000e-01 3.0250001e+00 1.3500000e+01 
7.5000000e-01 3.0250001e+00 1.4000000e+01 
7.5000000e-01 3.0250001e+00 1.4500000e+01 
7.5000000e-01 3.0250001e+00 1.5000000e+01 
7.5000000e-01 3.0250001e+00 1.5500000e+01 
7.5000000e-01 3.0250001e+00 1.6000000e+01 
7.5000000e-01 3.0250001e+00 1.6500000e+01 
7.5000000e-01 3.0250001e+00 1.7000000e+01 
7.5000000e-01 3.0250001e+00 1.7500000e+01 
7.5000000e-01 3.0250001e+00 1.8000000e+01 
7.5000000e-01 3.0250001e+00 1.8500000e+01 
7.5000000e-01 3.0250001e+00 1.9000000e+01 
7.5000000e-01 3.0250001e+00 1.9500000e+01 
7.5000000e-01 3.0250001e+00 2.0000000e+01 
7.5000000e-01 3.0250001e+00 2.0500000e+01 
7.5000000e-01 3.0250001e+00 2.1000000e+01 
7.5000000e-01 3.0250001e+00 2.1500000e+01 
7.5000000e-01 3.0250001e+00 2.2000000e+01 
7.5000000e-01 3.0250001e+00 2.2500000e+01 
7.5000000e-01 3.0250001e+00 2.3000000e+01 
7.5000000e-01 3.0250001e+00 2.3500000e+01 
7.5000000e-01 3.0250001e+00 2.4000000e+01 
7.5000000e-01 3.0250001e+00 2.4500000e+01 
7.5000000e-01 3.0250001e+00 2.5000000e+01 
7.5000000e-01 3.0250001e+00 2.5500000e+01 
7.5000000e-01 3.0250001e+00 2.6000000e+01 
7.5000000e-01 3.0250001e+00 2.6500000e+01 
7.5000000e-01 3.0250001e+00 2.7000000e+01 
7.5000000e-01 3.0250001e+00 2.7500000e+01 
7.5000000e-01 3.0250001e+00 2.8000000e+01 
7.5000000e-01 3.0250001e+00 2.8500000e+01 
7.5000000e-01 3.0250001e+00 2.9000000e+01 
7.5000000e-01 3.0250001e+00 2.9500000e+01 
7.5000000e-01 3.0250001e+00 3.0000000e+01 
7.5000000e-01 3.0250001e+00 3.0500000e+01 
7.5000000e-01 3.0250001e+00 3.1000000e+01 
7.5000000e-01 3.0250001e+00 3.1500000e+01 
7.5000000e-01 3.0250001e+00 3.2000000e+01 
7.5000000e-01 3.0250001e+00 3.2500000e+01 
7.5000000e-01 3.0250001e+00 3.3000000e+01 
7.5000000e-01 3.0250001e+00 3.3500000e+01 
7.5000000e-01 3.0250001e+00 3.4000000e+01 
7.5000000e-01 3.0250001e+00 3.4500000e+01 
7.5000000e-01 3.0250001e+00 3.5000000e+01 
7.5000000e-01 3.0250001e+00 3.5500000e+01 
7.5000000e-01 3.0250001e+00 3.6000000e+01 
7.5000000e-01 3.0250001e+00 3.6500000e+01 
7.5000000e-01 3.0250001e+00 3.7000000e+01 
7.5000000e-01 3.0250001e+00 3.7500000e+01 
7.5000000e-01 3.0250001e+00 3.8000000e+01 
7.5000000e-01 3.0250001e+00 3.8500000e+01 
7.5000000e-01 3.0250001e+00 3.9000000e+01 
7.5000000e-01 3.0250001e+00 3.9500000e+01 
7.5000000e-01 3.0250001e+00 4.0000000e+01 
7.5000000e-01 3.0250001e+00 4.0500000e+01 
7.5000000e-01 3.0250001e+00 4.1000000e+01 
7.5000000e-01 3.0250001e+00 4.1500000e+01 
7.5000000e-01 3.0250001e+00 4.2000000e+01 
7.5000000e-01 3.0250001e+00 4.2500000e+01 
7.5000000e-01 3.0250001e+00 4.3000000e+01 
7.5000000e-01 3.0250001e+00 4.3500000e+01 
7.5000000e-01 3.0250001e+00 4.4000000e+01 
7.5000000e-01 3.0250001e+00 4.4500000e+01 
7.5000000e-01 3.0250001e+00 4.5000000e+01 
7.5000000e-01 3.0250001e+00 4.5500000e+01 
7.5000000e-01 3.0250001e+00 4.6000000e+01 
7.5000000e-01 3.0250001e+00 4.6500000e+01 
7.5000000e-01 3.0250001e+00 4.7000000e+01 
7.5000000e-01 3.0250001e+00 4.7500000e+01 
7.5000000e-01 3.0250001e+00 4.8000000e+01 
7.5000000e-01 3.0250001e+00 4.8500000e+01 
7.5000000e-01 3.0250001e+00 4.9000000e+01 
7.5000000e-01 3.0250001e+00 4.9500000e+01 
7.5000000e-01 3.0250001e+00 5.0000000e+01 
3.0000000e+00 2.0000000e+00 3.6000000e+01 
8.0487806e-01 3.0000000e+00 3.6000000e+01 
0.0000000e+00 0.0000000e+00 1.0000000e+00 
0.0000000e+00 0.0000000e+00 2.0000000e+00 
0.0000000e+00 0.0000000e+00 3.0000000e+00 
0.0000000e+00 0.0000000e+00 4.0000000e+00 
0.0000000e+00 0.0000000e+00 5.0000000e+00 
0.0000000e+00 0.0000000e+00 6.0000000e+00 
0.0000000e+00 0.0000000e+00 7.0000000e+00 
0.0000000e+00 0.0000000e+00 8.0000000e+00 
[...]
POINT_DATA 1919
FIELD FieldData 3
DISPLACEMENT 3 1919  float
0.0000000e+00 0.0000000e+00 0.0000000e+00 
0.0000000e+00 0.0000000e+00 0.0000000e+00 
0.0000000e+00 0.0000000e+00 0.0000000e+00 
0.0000000e+00 0.0000000e+00 0.0000000e+00 
9.3855066e-05 -4.7774287e-05 -2.8737559e-06 
5.8089803e-15 -2.0811606e-11 4.3486624e-11 
0.0000000e+00 -1.1834280e-03 0.0000000e+00 
0.0000000e+00 -5.8464154e-12 0.0000000e+00 
3.4023633e-05 -4.0912673e-05 1.3806422e-05 
-2.8226794e-12 -2.2715878e-11 6.8802117e-11 
-3.5002845e-06 -1.1604739e-04 -1.1162966e-04 
-1.0078421e-11 -1.9495084e-11 6.0139727e-11 
0.0000000e+00 -2.1159146e-03 0.0000000e+00 
0.0000000e+00 -4.1153365e-12 0.0000000e+00 
-9.5839310e-04 -1.9168219e-03 -7.6260418e-04 
-1.5257373e-11 -9.4469875e-12 4.4012426e-11 
-8.0168387e-04 -6.5626274e-03 -1.2059897e-03 
-1.4954583e-11 5.6952073e-12 2.5100361e-11 
0.0000000e+00 -3.3436103e-03 0.0000000e+00 
0.0000000e+00 -1.7670081e-12 0.0000000e+00 
-5.4471457e-04 -6.5098358e-03 -7.0421287e-04 
-3.6286569e-04 -6.4073992e-03 -6.1969226e-04 
-3.9900918e-04 -6.0552773e-03 -3.5205748e-04 
-5.5775343e-04 -5.5140890e-03 -2.9005003e-04 
-2.5902301e-04 -5.2173231e-03 -3.8813779e-04 
-3.9336595e-04 -5.1704491e-03 -2.7562439e-04 
-3.3308976e-04 -5.0999736e-03 -2.9844997e-04 
-2.9371964e-04 -4.4486532e-03 -2.5256260e-04 
-1.8742880e-04 -3.2434647e-03 -3.3765135e-04 
-9.5397925e-05 -1.9665626e-03 -1.4423416e-04 
-3.2294178e-05 -9.6944685e-04 -1.9855904e-04 
8.0816648e-07 -2.8048109e-04 -5.1234114e-05 
1.1341997e-05 1.3304685e-04 -5.0299594e-05 
2.1198593e-05 3.1806144e-04 -5.7720445e-06 
1.1968120e-05 3.1803985e-04 4.5971564e-07 
9.5452660e-06 2.1495868e-04 -1.5171713e-06 
3.0646504e-06 1.0552780e-04 1.0355576e-05 
2.0522507e-06 3.5995290e-05 -3.6206877e-06 
1.4847157e-06 6.4340684e-06 3.6328390e-06 
6.8924550e-07 -1.0417880e-05 1.6325342e-07 
-5.0436950e-07 -2.9234347e-05 -1.9645399e-06 
-1.1360833e-06 -3.7911559e-05 6.8567255e-07 
-4.4038740e-07 -2.1330750e-05 -2.0304044e-06 
6.0065975e-07 1.1231750e-05 2.8270772e-08 
9.8793487e-07 3.3239405e-05 -6.4318675e-07 
1.7237859e-06 2.6941101e-05 -6.9085422e-07 
1.3851303e-06 -1.6809814e-06 -2.4011861e-06 
1.6360980e-06 -2.2322476e-05 -3.1501165e-06 
3.4945415e-06 -7.6415245e-06 1.3941578e-06 
8.9936648e-06 3.9410377e-05 5.2225200e-06 
7.1603195e-06 8.5084088e-05 1.5213172e-05 
6.0125471e-06 8.6813779e-05 3.5754863e-05 
-1.5666117e-05 3.2069955e-05 4.7782447e-05 
-3.1248353e-05 -5.5876648e-05 6.5868786e-05 
-5.4742137e-05 -1.5354599e-04 1.2359822e-04 
-9.3903494e-05 -2.8487458e-04 9.9366676e-05 
-7.3275485e-05 -5.3563056e-04 2.3251578e-04 
-2.0876885e-04 -1.0432695e-03 1.3173326e-04 
-1.4035394e-04 -1.8990695e-03 2.4703375e-04 
-3.4041185e-04 -3.0607427e-03 1.1030016e-04 
-2.4778524e-04 -4.3205828e-03 2.2540476e-04 
-4.3227142e-04 -5.2273106e-03 -4.7486967e-05 
-2.8951021e-04 -5.3695259e-03 2.1682406e-05 
-3.9124995e-04 -5.0984053e-03 -3.4346696e-05 
-2.4335223e-04 -4.9648937e-03 -6.6664397e-05 
-3.5506714e-04 -5.0286464e-03 -1.1506140e-04 
-2.7588900e-04 -4.9506873e-03 -1.5230410e-04 
-2.4870021e-04 -4.1779559e-03 -1.8054349e-04 
-1.3255187e-04 -2.9574472e-03 -2.5728991e-04 
-8.4211060e-05 -1.7360770e-03 -1.0579533e-04 
-1.9916348e-05 -7.7845308e-04 -1.5350545e-04 
2.8119598e-06 -1.3987713e-04 -3.2024589e-05 
8.7922272e-06 1.8622007e-04 -4.0969771e-05 
1.6748003e-05 2.8201123e-04 -2.9923829e-06 
1.1529482e-05 2.4902602e-04 -1.4161469e-06 
6.3702419e-06 1.7227248e-04 -2.4563187e-06 
2.9490207e-06 1.0505693e-04 1.2249972e-05 
2.2589941e-06 5.4088268e-05 -2.3370160e-06 
1.4382662e-06 1.1072350e-05 3.6229942e-06 
2.0522116e-07 -2.3574667e-05 3.1993486e-07 
-4.8694670e-07 -3.8832222e-05 -2.2232171e-06 
-6.8913619e-07 -3.2177093e-05 1.3900440e-06 
-2.5110262e-07 -1.1968313e-05 -6.8469285e-07 
6.6807274e-08 7.0465530e-06 -2.1229263e-07 
1.1156901e-07 1.3325473e-05 8.8715598e-07 
7.8596123e-08 8.6905929e-06 -1.4935870e-07 
-7.3274933e-08 8.1155963e-07 -2.8407358e-08 
-1.4017169e-07 -4.3222585e-06 1.0555095e-07 
-3.6199410e-08 -4.2720262e-06 -7.6379379e-08 
-1.1111302e-07 -1.3368609e-06 7.7088593e-09 
1.6644783e-08 1.1912208e-06 1.3558940e-08 
-7.7720470e-09 1.5530046e-06 6.0941985e-09 
-3.1218945e-09 5.3367069e-07 9.4557970e-09 
1.1421777e-09 -4.0037472e-07 1.1383717e-08 
-4.6806896e-09 -4.4247864e-07 -1.6114406e-09 
9.4438413e-10 -5.0940567e-08 6.0366516e-09 
-5.1912842e-11 1.5256614e-07 6.8158266e-09 
-6.2964556e-10 9.0546251e-08 3.1848602e-09 
-1.2838084e-09 -1.4872563e-08 2.5010538e-09 
-1.0538959e-09 -3.8475491e-08 2.1758508e-09 
-4.9166388e-10 -1.0318655e-08 1.4682467e-09 
-3.2958150e-10 8.6358618e-09 1.1921009e-09 
-3.2225839e-10 5.6909784e-09 9.7551323e-10 
-2.4402425e-10 -9.7178487e-10 7.3634909e-10 
-1.7305866e-10 -1.6346744e-09 5.5402000e-10 
-1.2174954e-10 6.7928524e-11 4.3963780e-10 
-9.0820435e-11 4.7844351e-10 3.4722086e-10 
-6.1697945e-11 1.3139580e-10 2.6799898e-10 
-4.9911787e-11 -3.8517457e-12 2.0280953e-10 
-4.2222521e-11 7.0610809e-11 1.5559955e-10 
-3.4357007e-11 4.5873822e-11 1.2166812e-10 
-2.6131812e-11 -2.5371783e-11 9.4681721e-11 
-1.9309247e-11 -1.6201561e-11 7.6154402e-11 
-1.3089118e-11 2.9797286e-11 5.8995725e-11 
-1.1554215e-11 3.0897184e-11 4.8176373e-11 
-8.8693948e-12 -7.2998470e-13 3.9656691e-11 
-6.0442320e-12 -1.6712860e-11 3.2742364e-11 
-5.0252337e-12 -9.6769650e-12 2.8454650e-11 
-6.9832569e-12 1.6737747e-12 2.5581204e-11 
0.0000000e+00 -6.5619322e-03 0.0000000e+00 
0.0000000e+00 -6.5342057e-03 0.0000000e+00 
0.0000000e+00 -6.4422973e-03 0.0000000e+00 
0.0000000e+00 -6.0914159e-03 0.0000000e+00 
0.0000000e+00 -5.5471752e-03 0.0000000e+00 
0.0000000e+00 -5.2326191e-03 0.0000000e+00 
0.0000000e+00 -5.1943893e-03 0.0000000e+00 
0.0000000e+00 -5.1180748e-03 0.0000000e+00 
0.0000000e+00 -4.4795531e-03 0.0000000e+00 
0.0000000e+00 -3.2614933e-03 0.0000000e+00 
0.0000000e+00 -1.9807750e-03 0.0000000e+00 
0.0000000e+00 -9.7176287e-04 0.0000000e+00 
0.0000000e+00 -2.8150776e-04 0.0000000e+00 
0.0000000e+00 1.3252100e-04 0.0000000e+00 
0.0000000e+00 3.1640823e-04 0.0000000e+00 
0.0000000e+00 3.1814398e-04 0.0000000e+00 
0.0000000e+00 2.1816655e-04 0.0000000e+00 
0.0000000e+00 1.0778233e-04 0.0000000e+00 
0.0000000e+00 3.6757760e-05 0.0000000e+00 
0.0000000e+00 5.5650999e-06 0.0000000e+00 
0.0000000e+00 -1.1544642e-05 0.0000000e+00 
0.0000000e+00 -2.9183926e-05 0.0000000e+00 
0.0000000e+00 -3.6781938e-05 0.0000000e+00 
0.0000000e+00 -2.0660655e-05 0.0000000e+00 
0.0000000e+00 1.0779295e-05 0.0000000e+00 
0.0000000e+00 3.2302989e-05 0.0000000e+00 
0.0000000e+00 2.5931322e-05 0.0000000e+00 
0.0000000e+00 -1.8097614e-06 0.0000000e+00 
0.0000000e+00 -2.1323905e-05 0.0000000e+00 
0.0000000e+00 -6.1346186e-06 0.0000000e+00 
0.0000000e+00 4.0401083e-05 0.0000000e+00 
0.0000000e+00 8.4194791e-05 0.0000000e+00 
0.0000000e+00 8.5152293e-05 0.0000000e+00 
0.0000000e+00 3.1547963e-05 0.0000000e+00 
0.0000000e+00 -5.4212145e-05 0.0000000e+00 
0.0000000e+00 -1.5064319e-04 0.0000000e+00 
0.0000000e+00 -2.8179877e-04 0.0000000e+00 
0.0000000e+00 -5.3671579e-04 0.0000000e+00 
0.0000000e+00 -1.0489461e-03 0.0000000e+00 
0.0000000e+00 -1.9083509e-03 0.0000000e+00 
0.0000000e+00 -3.0752623e-03 0.0000000e+00 
0.0000000e+00 -4.3346235e-03 0.0000000e+00 
0.0000000e+00 -5.2507631e-03 0.0000000e+00 
0.0000000e+00 -5.3947740e-03 0.0000000e+00 
0.0000000e+00 -5.1283361e-03 0.0000000e+00 
0.0000000e+00 -4.9868072e-03 0.0000000e+00 
0.0000000e+00 -5.0557135e-03 0.0000000e+00 
0.0000000e+00 -4.9736015e-03 0.0000000e+00 
0.0000000e+00 -4.2029540e-03 0.0000000e+00 
0.0000000e+00 -2.9716576e-03 0.0000000e+00 
0.0000000e+00 -1.7461459e-03 0.0000000e+00 
0.0000000e+00 -7.8180485e-04 0.0000000e+00 
0.0000000e+00 -1.4356525e-04 0.0000000e+00 
0.0000000e+00 1.8568325e-04 0.0000000e+00 
0.0000000e+00 2.8371258e-04 0.0000000e+00 
0.0000000e+00 2.5097636e-04 0.0000000e+00 
0.0000000e+00 1.7432080e-04 0.0000000e+00 
0.0000000e+00 1.0550091e-04 0.0000000e+00 
0.0000000e+00 5.3599008e-05 0.0000000e+00 
0.0000000e+00 1.0769372e-05 0.0000000e+00 
0.0000000e+00 -2.2926326e-05 0.0000000e+00 
0.0000000e+00 -3.8342147e-05 0.0000000e+00 
0.0000000e+00 -3.2137923e-05 0.0000000e+00 
0.0000000e+00 -1.2283133e-05 0.0000000e+00 
0.0000000e+00 6.4223805e-06 0.0000000e+00 
0.0000000e+00 1.3148514e-05 0.0000000e+00 
0.0000000e+00 8.8899642e-06 0.0000000e+00 
0.0000000e+00 1.0131805e-06 0.0000000e+00 
0.0000000e+00 -4.1462754e-06 0.0000000e+00 
0.0000000e+00 -4.2809397e-06 0.0000000e+00 
0.0000000e+00 -1.4379042e-06 0.0000000e+00 
0.0000000e+00 1.0893441e-06 0.0000000e+00 
0.0000000e+00 1.5579624e-06 0.0000000e+00 
0.0000000e+00 5.8034152e-07 0.0000000e+00 
0.0000000e+00 -3.5457717e-07 0.0000000e+00 
0.0000000e+00 -4.4833160e-07 0.0000000e+00 
0.0000000e+00 -7.7602444e-08 0.0000000e+00 
0.0000000e+00 1.4475808e-07 0.0000000e+00 
0.0000000e+00 9.8747925e-08 0.0000000e+00 
0.0000000e+00 -8.9852223e-09 0.0000000e+00 
0.0000000e+00 -3.9186929e-08 0.0000000e+00 
0.0000000e+00 -1.2699538e-08 0.0000000e+00 
0.0000000e+00 7.9833908e-09 0.0000000e+00 
0.0000000e+00 6.3338601e-09 0.0000000e+00 
0.0000000e+00 -5.5583038e-10 0.0000000e+00 
0.0000000e+00 -1.7567764e-09 0.0000000e+00 
0.0000000e+00 -8.6730519e-11 0.0000000e+00 
0.0000000e+00 5.0044846e-10 0.0000000e+00 
0.0000000e+00 1.7055030e-10 0.0000000e+00 
0.0000000e+00 -5.3937289e-12 0.0000000e+00 
0.0000000e+00 5.5909791e-11 0.0000000e+00 
0.0000000e+00 4.8034573e-11 0.0000000e+00 
0.0000000e+00 -1.8355000e-11 0.0000000e+00 
0.0000000e+00 -1.7199594e-11 0.0000000e+00 
0.0000000e+00 2.5521045e-11 0.0000000e+00 
0.0000000e+00 3.0703631e-11 0.0000000e+00 
0.0000000e+00 1.5693133e-12 0.0000000e+00 
0.0000000e+00 -1.6188552e-11 0.0000000e+00 
0.0000000e+00 -1.0543516e-11 0.0000000e+00 
0.0000000e+00 1.2950605e-12 0.0000000e+00 
0.0000000e+00 6.0073149e-12 0.0000000e+00 
-6.3702084e-09 -5.4106977e-09 3.4696786e-08 
5.2381197e-09 1.0729970e-06 2.9194674e-11 
0.0000000e+00 0.0000000e+00 0.0000000e+00 
0.0000000e+00 0.0000000e+00 0.0000000e+00 
0.0000000e+00 0.0000000e+00 0.0000000e+00 
0.0000000e+00 0.0000000e+00 0.0000000e+00 
0.0000000e+00 0.0000000e+00 0.0000000e+00 
0.0000000e+00 0.0000000e+00 0.0000000e+00 
0.0000000e+00 0.0000000e+00 0.0000000e+00 
0.0000000e+00 0.0000000e+00 0.0000000e+00 
0.0000000e+00 0.0000000e+00 0.0000000e+00 
0.0000000e+00 0.0000000e+00 0.0000000e+00 
0.0000000e+00 0.0000000e+00 0.0000000e+00 
0.0000000e+00 0.0000000e+00 0.0000000e+00 
0.0000000e+00 0.0000000e+00 0.0000000e+00 
0.0000000e+00 0.0000000e+00 0.0000000e+00 
0.0000000e+00 0.0000000e+00 0.0000000e+00 
0.0000000e+00 0.0000000e+00 0.0000000e+00 
0.0000000e+00 0.0000000e+00 0.0000000e+00 
0.0000000e+00 0.0000000e+00 0.0000000e+00 
0.0000000e+00 0.0000000e+00 0.0000000e+00 
0.0000000e+00 0.0000000e+00 0.0000000e+00 
0.0000000e+00 0.0000000e+00 0.0000000e+00 
0.0000000e+00 0.0000000e+00 0.0000000e+00 
0.0000000e+00 0.0000000e+00 0.0000000e+00 
0.0000000e+00 0.0000000e+00 0.0000000e+00 
0.0000000e+00 0.0000000e+00 0.0000000e+00 
0.0000000e+00 0.0000000e+00 0.0000000e+00 
0.0000000e+00 0.0000000e+00 0.0000000e+00 
0.0000000e+00 0.0000000e+00 0.0000000e+00 
0.0000000e+00 0.0000000e+00 0.0000000e+00 
0.0000000e+00 0.0000000e+00 0.0000000e+00 
0.0000000e+00 0.0000000e+00 0.0000000e+00 
0.0000000e+00 0.0000000e+00 0.0000000e+00 
0.0000000e+00 0.0000000e+00 0.0000000e+00 
0.0000000e+00 0.0000000e+00 0.0000000e+00 
0.0000000e+00 0.0000000e+00 0.0000000e+00 
0.0000000e+00 0.0000000e+00 0.0000000e+00 
0.0000000e+00 0.0000000e+00 0.0000000e+00 
0.0000000e+00 0.0000000e+00 0.0000000e+00 
0.0000000e+00 0.0000000e+00 0.0000000e+00 
0.0000000e+00 0.0000000e+00 0.0000000e+00 
0.0000000e+00 0.0000000e+00 0.0000000e+00 
0.0000000e+00 0.0000000e+00 0.0000000e+00 
0.0000000e+00 0.0000000e+00 0.0000000e+00 
0.0000000e+00 0.0000000e+00 0.0000000e+00 
0.0000000e+00 0.0000000e+00 0.0000000e+00 
0.0000000e+00 0.0000000e+00 0.0000000e+00 
0.0000000e+00 0.0000000e+00 0.0000000e+00 
0.0000000e+00 0.0000000e+00 0.0000000e+00 
0.0000000e+00 0.0000000e+00 0.0000000e+00 
0.0000000e+00 0.0000000e+00 0.0000000e+00 
0.0000000e+00 0.0000000e+00 0.0000000e+00 
0.0000000e+00 0.0000000e+00 0.0000000e+00 
0.0000000e+00 0.0000000e+00 0.0000000e+00 
0.0000000e+00 0.0000000e+00 0.0000000e+00 
0.0000000e+00 0.0000000e+00 0.0000000e+00 
0.0000000e+00 0.0000000e+00 0.0000000e+00 
0.0000000e+00 0.0000000e+00 0.0000000e+00 
0.0000000e+00 0.0000000e+00 0.0000000e+00 
0.0000000e+00 0.0000000e+00 0.0000000e+00 
0.0000000e+00 0.0000000e+00 0.0000000e+00 
0.0000000e+00 0.0000000e+00 0.0000000e+00 
0.0000000e+00 0.0000000e+00 0.0000000e+00 
0.0000000e+00 0.0000000e+00 0.0000000e+00 
0.0000000e+00 0.0000000e+00 0.0000000e+00 
0.0000000e+00 0.0000000e+00 0.0000000e+00 
0.0000000e+00 0.0000000e+00 0.0000000e+00 
0.0000000e+00 0.0000000e+00 0.0000000e+00 
0.0000000e+00 0.0000000e+00 0.0000000e+00 
0.0000000e+00 0.0000000e+00 0.0000000e+00 
0.0000000e+00 0.0000000e+00 0.0000000e+00 
0.0000000e+00 0.0000000e+00 0.0000000e+00 
0.0000000e+00 0.0000000e+00 0.0000000e+00 
0.0000000e+00 0.0000000e+00 0.0000000e+00 
0.0000000e+00 0.0000000e+00 0.0000000e+00 
0.0000000e+00 0.0000000e+00 0.0000000e+00 
0.0000000e+00 0.0000000e+00 0.0000000e+00 
0.0000000e+00 0.0000000e+00 0.0000000e+00 
0.0000000e+00 0.0000000e+00 0.0000000e+00 
0.0000000e+00 0.0000000e+00 0.0000000e+00 
0.0000000e+00 0.0000000e+00 0.0000000e+00 
0.0000000e+00 0.0000000e+00 0.0000000e+00 
0.0000000e+00 0.0000000e+00 0.0000000e+00 
0.0000000e+00 0.0000000e+00 0.0000000e+00 
0.0000000e+00 0.0000000e+00 0.0000000e+00 
0.0000000e+00 0.0000000e+00 0.0000000e+00 
0.0000000e+00 0.0000000e+00 0.0000000e+00 
0.0000000e+00 0.0000000e+00 0.0000000e+00 
0.0000000e+00 0.0000000e+00 0.0000000e+00 
0.0000000e+00 0.0000000e+00 0.0000000e+00 
0.0000000e+00 0.0000000e+00 0.0000000e+00 
0.0000000e+00 0.0000000e+00 0.0000000e+00 
0.0000000e+00 0.0000000e+00 0.0000000e+00 
0.0000000e+00 0.0000000e+00 0.0000000e+00 
0.0000000e+00 0.0000000e+00 0.0000000e+00 
0.0000000e+00 0.0000000e+00 0.0000000e+00 
0.0000000e+00 0.0000000e+00 0.0000000e+00 
0.0000000e+00 0.0000000e+00 0.0000000e+00 
0.0000000e+00 0.0000000e+00 0.0000000e+00 
0.0000000e+00 0.0000000e+00 0.0000000e+00 
0.0000000e+00 0.0000000e+00 0.0000000e+00 
0.0000000e+00 0.0000000e+00 0.0000000e+00 
0.0000000e+00 0.0000000e+00 0.0000000e+00 
0.0000000e+00 0.0000000e+00 0.0000000e+00 
0.0000000e+00 0.0000000e+00 0.0000000e+00 
0.0000000e+00 0.0000000e+00 0.0000000e+00 
0.0000000e+00 0.0000000e+00 0.0000000e+00 
4.6425717e-05 -3.7005935e-05 -4.0983391e-06 
4.4471257e-05 -3.0326006e-05 -2.5175054e-06 
3.7052294e-05 -2.0414427e-05 5.8027344e-06 
2.5313229e-05 -1.7764845e-05 7.0682067e-06 
1.7481139e-05 -4.8329039e-06 8.7837689e-06 
9.5816722e-06 -2.7104156e-06 6.7596375e-06 
4.9939772e-06 -9.5639041e-07 3.9148576e-06 
1.6561759e-06 -7.8092285e-07 2.2082711e-06 
2.7186593e-07 5.3284182e-08 9.7451266e-07 
7.3687806e-10 -6.5422803e-08 2.4977709e-07 
-9.3787932e-08 -1.8445220e-07 -3.0150670e-07 
1.7723517e-08 -9.2119606e-08 -9.5505868e-07 
2.7558343e-07 -3.4487633e-07 -1.9211482e-06 
1.4546082e-06 -5.6997226e-07 -3.3384356e-06 
4.0251803e-06 -1.7940172e-06 -6.1426063e-06 
8.2999704e-06 -3.6374468e-06 -8.8392317e-06 
1.4406380e-05 -3.9678366e-06 -1.1710471e-05 
2.0334885e-05 -9.9897661e-06 -1.0911869e-05 
2.4314140e-05 -1.4348183e-05 -9.4836796e-06 
3.0618256e-05 -2.0599295e-05 -5.2522182e-06 
3.2301414e-05 -2.2284930e-05 9.2051529e-08 
2.9166311e-05 -1.8480921e-05 5.0356039e-06 
3.0092953e-05 -1.6079757e-05 9.6575695e-06 
2.4787003e-05 -1.2410594e-05 1.0112639e-05 
1.6867139e-05 -7.6246533e-06 1.1486077e-05 
8.3640816e-06 -4.4080139e-06 9.4854131e-06 
4.5172906e-06 -1.9285210e-06 6.1527476e-06 
2.0205275e-06 -8.2480329e-07 4.2814704e-06 
6.0022438e-07 -3.0431872e-07 2.2617844e-06 
1.3108655e-07 -2.1162595e-07 1.2098868e-06 
8.1822627e-08 -1.5580360e-07 6.9114952e-07 
9.6323849e-10 -3.4117946e-08 3.4873764e-07 
1.5036393e-08 -3.3515857e-08 2.1554993e-07 
8.1708853e-09 -1.6478495e-08 1.1399519e-07 
6.6734831e-09 -1.2304370e-08 6.8598446e-08 
5.0906790e-09 -6.0072822e-09 4.1061408e-08 
1.6052838e-09 -2.0852000e-09 2.2554875e-08 
5.9262067e-10 -2.1873123e-09 1.3461205e-08 
5.6231335e-12 -8.5253782e-10 8.3034228e-09 
2.3940044e-10 -4.9912641e-10 4.2796695e-09 
2.8001260e-10 -3.4864972e-10 2.7107647e-09 
1.6452545e-10 -2.3111019e-10 1.6179935e-09 
1.0566352e-10 -1.3194848e-10 9.0918112e-10 
5.4681700e-11 -9.0302585e-11 5.1579668e-10 
4.1285274e-11 -4.2069955e-11 3.1379965e-10 
1.5882436e-11 -2.4735741e-11 1.9174196e-10 
1.2021537e-11 -1.5091522e-11 1.1283732e-10 
3.8169324e-12 -9.0343670e-12 7.3261890e-11 
1.3144579e-12 -7.8778407e-12 4.9949243e-11 
0.0000000e+00 -6.9467933e-04 0.0000000e+00 
0.0000000e+00 -5.3103454e-04 0.0000000e+00 
0.0000000e+00 -5.6340592e-04 0.0000000e+00 
0.0000000e+00 -3.5964267e-04 0.0000000e+00 
0.0000000e+00 -1.4739503e-04 0.0000000e+00 
0.0000000e+00 2.1926717e-05 0.0000000e+00 
0.0000000e+00 2.4099441e-05 0.0000000e+00 
0.0000000e+00 -3.1639506e-06 0.0000000e+00 
0.0000000e+00 -9.3210429e-06 0.0000000e+00 
0.0000000e+00 5.6952008e-06 0.0000000e+00 
0.0000000e+00 2.2043864e-06 0.0000000e+00 
0.0000000e+00 1.1479525e-07 0.0000000e+00 
0.0000000e+00 3.9372685e-07 0.0000000e+00 
0.0000000e+00 6.1769733e-06 0.0000000e+00 
0.0000000e+00 7.4722416e-06 0.0000000e+00 
0.0000000e+00 -4.6728215e-05 0.0000000e+00 
0.0000000e+00 -6.5578657e-05 0.0000000e+00 
0.0000000e+00 -9.2431379e-05 0.0000000e+00 
0.0000000e+00 -1.8740160e-04 0.0000000e+00 
0.0000000e+00 -3.5125786e-04 0.0000000e+00 
0.0000000e+00 -4.7136022e-04 0.0000000e+00 
0.0000000e+00 -3.9915141e-04 0.0000000e+00 
0.0000000e+00 -3.5083052e-04 0.0000000e+00 
0.0000000e+00 -3.2887919e-04 0.0000000e+00 
0.0000000e+00 -1.2288195e-04 0.0000000e+00 
0.0000000e+00 1.9290272e-05 0.0000000e+00 
0.0000000e+00 1.4386967e-05 0.0000000e+00 
0.0000000e+00 -9.3286590e-06 0.0000000e+00 
0.0000000e+00 -1.0811381e-05 0.0000000e+00 
0.0000000e+00 7.8288294e-06 0.0000000e+00 
0.0000000e+00 5.0263986e-07 0.0000000e+00 
0.0000000e+00 -1.3791598e-06 0.0000000e+00 
0.0000000e+00 3.6392939e-07 0.0000000e+00 
0.0000000e+00 2.1955184e-07 0.0000000e+00 
0.0000000e+00 -6.8787052e-08 0.0000000e+00 
0.0000000e+00 3.7512748e-08 0.0000000e+00 
0.0000000e+00 9.1809218e-09 0.0000000e+00 
0.0000000e+00 -1.1064074e-08 0.0000000e+00 
0.0000000e+00 2.8042875e-09 0.0000000e+00 
0.0000000e+00 -1.0911057e-09 0.0000000e+00 
0.0000000e+00 1.7299281e-10 0.0000000e+00 
0.0000000e+00 -9.4597961e-11 0.0000000e+00 
0.0000000e+00 -3.6390703e-11 0.0000000e+00 
0.0000000e+00 -1.7854431e-11 0.0000000e+00 
0.0000000e+00 -5.3529347e-12 0.0000000e+00 
0.0000000e+00 -1.1311940e-11 0.0000000e+00 
0.0000000e+00 -3.7139337e-12 0.0000000e+00 
0.0000000e+00 -3.0327618e-12 0.0000000e+00 
0.0000000e+00 -3.7046529e-12 0.0000000e+00 
6.6737768e-05 -3.0399799e-05 -1.8118086e-05 
1.5671494e-04 -1.3581089e-04 -5.5726559e-05 
2.7720607e-04 -4.7066735e-04 -1.2050448e-04 
2.3206916e-04 -9.3716389e-04 -1.5832267e-04 
-3.8606345e-12 -2.0246855e-11 4.3943175e-11 
-7.9892664e-12 -1.7193710e-11 3.8819913e-11 
-1.1061344e-11 -1.4053898e-11 3.0493014e-11 
-1.0137455e-11 -9.5237377e-12 1.7603035e-11 
3.8733040e-05 -5.3250646e-05 -3.6540448e-06 
-2.3383805e-06 -1.9580475e-05 -1.4927738e-05 
6.1938572e-06 -1.9629262e-05 -8.7493308e-06 
8.7014769e-06 -2.5459953e-05 1.1061966e-06 
4.2312549e-06 -6.2008398e-06 -7.5822851e-07 
3.6008023e-06 -2.2277163e-06 1.3118446e-06 
1.4451185e-06 8.3367314e-07 3.5326032e-06 
3.0207016e-06 -7.0644569e-07 2.9063483e-06 
1.2349427e-06 -3.0268023e-08 1.6761962e-06 
5.9077172e-07 5.7513557e-08 4.5398707e-07 
4.4198976e-07 -1.8969124e-07 -5.2944301e-07 
5.5687718e-07 -9.2484569e-08 -1.6964682e-06 
1.2988443e-06 -3.8140661e-07 -2.7663818e-06 
2.3097559e-06 -8.8959581e-08 -4.0440768e-06 
1.9846907e-06 -8.4875455e-07 -6.6432222e-06 
3.1766415e-06 -2.4747319e-06 -7.8315807e-06 
3.2396142e-06 -6.7684682e-06 -6.4984752e-06 
2.7981848e-06 -1.1694935e-05 -7.9643296e-06 
1.1250947e-08 -1.4733858e-05 -1.8921291e-06 
-3.1070008e-06 -2.1293339e-05 1.5489503e-06 