# vtk DataFile Version 4.0
vtk output
ASCII
DATASET UNSTRUCTURED_GRID
POINTS 1919 float
0.0000000e+00 0.0000000e+00 0.0000000e+00 
0.0000000e+00 0.0000000e+00 5.0000000e+01 
5.0000000e+00 0.0000000e+00 0.0000000e+00 
5.0000000e+00 0.0000000e+00 5.0000000e+01 
5.0000000e+00 1.0000000e+00 0.0000000e+00 
5.0000000e+00 1.0000000e+00 5.0000000e+01 
0.0000000e+00 1.0000000e+00 0.0000000e+00 
0.0000000e+00 1.0000000e+00 5.0000000e+01 
5.0000000e+00 2.0000000e+00 0.0000000e+00 
5.0000000e+00 2.0000000e+00 5.0000000e+01 
3.0000000e+00 2.0000000e+00 0.0000000e+00 
3.0000000e+00 2.0000000e+00 5.0000000e+01 
0.0000000e+00 2.0000000e+00 0.0000000e+00 
0.0000000e+00 2.0000000e+00 5.0000000e+01 
1.5000000e+00 3.0000000e+00 0.0000000e+00 
1.5000000e+00 3.0000000e+00 5.0000000e+01 
7.5000000e-01 3.0000000e+00 0.0000000e+00 
7.5000000e-01 3.0000000e+00 5.0000000e+01 
0.0000000e+00 3.0000000e+00 0.0000000e+00 
0.0000000e+00 3.0000000e+00 5.0000000e+01 
7.5000000e-01 3.0000000e+00 5.0000000e-01 
7.5000000e-01 3.0000000e+00 1.0000000e+00 
7.5000000e-01 3.0000000e+00 1.5000000e+00 
7.5000000e-01 3.0000000e+00 2.0000000e+00 
7.5000000e-01 3.0000000e+00 2.5000000e+00 
7.5000000e-01 3.0000000e+00 3.0000000e+00 
7.5000000e-01 3.0000000e+00 3.5000000e+00 
7.5000000e-01 3.0000000e+00 4.0000000e+00 
7.5000000e-01 3.0000000e+00 4.5000000e+00 
7.5000000e-01 3.0000000e+00 5.0000000e+00 
7.5000000e-01 3.0000000e+00 5.5000000e+00 
7.5000000e-01 3.0000000e+00 6.0000000e+00 
7.5000000e-01 3.0000000e+00 6.5000000e+00 
7.5000000e-01 3.0000000e+00 7.0000000e+00 
7.5000000e-01 3.0000000e+00 7.5000000e+00 
7.5000000e-01 3.0000000e+00 8.0000000e+00 
7.5000000e-01 3.0000000e+00 8.5000000e+00 
7.5000000e-01 3.0000000e+00 9.0000000e+00 
7.5000000e-01 3.0000000e+00 9.5000000e+00 
7.5000000e-01 3.0000000e+00 1.0000000e+01 
7.5000000e-01 3.0000000e+00 1.0500000e+01 
7.5000000e-01 3.0000000e+00 1.1000000e+01 
7.5000000e-01 3.0000000e+00 1.1500000e+01 
7.5000000e-01 3.0000000e+00 1.2000000e+01 
7.5000000e-01 3.0000000e+00 1.2500000e+01 
7.5000000e-01 3.0000000e+00 1.3000000e+01 
7.5000000e-01 3.0000000e+00 1.3500000e+01 
7.5000000e-01 3.0000000e+00 1.4000000e+01 
7.5000000e-01 3.0000000e+00 1.4500000e+01 
7.5000000e-01 3.0000000e+00 1.5000000e+01 
7.5000000e-01 3.0000000e+00 1.5500000e+01 
7.5000000e-01 3.0000000e+00 1.6000000e+01 
7.5000000e-01 3.0000000e+00 1.6500000e+01 
7.5000000e-01 3.0000000e+00 1.7000000e+01 
7.5000000e-01 3.0000000e+00 1.7500000e+01 
7.5000000e-01 3.0000000e+00 1.8000000e+01 
7.5000000e-01 3.0000000e+00 1.8500000e+01 
7.5000000e-01 3.0000000e+00 1.9000000e+01 
7.5000000e-01 3.0000000e+00 1.9500000e+01 
7.5000000e-01 3.0000000e+00 2.0000000e+01 
7.5000000e-01 3.0000000e+00 2.0500000e+01 
7.5000000e-01 3.0000000e+00 2.1000000e+01 
7.5000000e-01 3.0000000e+00 2.1500000e+01 
7.5000000e-01 3.0000000e+00 2.2000000e+01 
7.5000000e-01 3.0000000e+00 2.2500000e+01 
7.5000000e-01 3.0000000e+00 2.3000000e+01 
7.5000000e-01 3.0000000e+00 2.3500000e+01 
7.5000000e-01 3.0000000e+00 2.4000000e+01 
7.5000000e-01 3.0000000e+00 2.4500000e+01 
7.5000000e-01 3.0000000e+00 2.5000000e+01 
7.5000000e-01 3.0000000e+00 2.5500000e+01 
7.5000000e-01 3.0000000e+00 2.6000000e+01 
7.5000000e-01 3.0000000e+00 2.6500000e+01 
7.5000000e-01 3.0000000e+00 2.7000000e+01 
7.5000000e-01 3.0000000e+00 2.7500000e+01 
7.5000000e-01 3.0000000e+00 2.8000000e+01 
7.5000000e-01 3.0000000e+00 2.8500000e+01 
7.5000000e-01 3.0000000e+00 2.9000000e+01 
7.5000000e-01 3.0000000e+00 2.9500000e+01 
7.5000000e-01 3.0000000e+00 3.0000000e+01 
7.5000000e-01 3.0000000e+00 3.0500000e+01 
7.5000000e-01 3.0000000e+00 3.1000000e+01 
7.5000000e-01 3.0000000e+00 3.1500000e+01 
7.5000000e-01 3.0000000e+00 3.2000000e+01 
7.5000000e-01 3.0000000e+00 3.2500000e+01 
7.5000000e-01 3.0000000e+00 3.3000000e+01 
7.5000000e-01 3.0000000e+00 3.3500000e+01 
7.5000000e-01 3.0000000e+00 3.4000000e+01 
7.5000000e-01 3.0000000e+00 3.4500000e+01 
7.5000000e-01 3.0000000e+00 3.5000000e+01 
7.5000000e-01 3.0000000e+00 3.5500000e+01 
7.5000000e-01 3.0000000e+00 3.6000000e+01 
7.5000000e-01 3.0000000e+00 3.6500000e+01 
7.5000000e-01 3.0000000e+00 3.7000000e+01 
7.5000000e-01 3.0000000e+00 3.7500000e+01 
7.5000000e-01 3.0000000e+00 3.8000000e+01 
7.5000000e-01 3.0000000e+00 3.8500000e+01 
7.5000000e-01 3.0000000e+00 3.9000000e+01 
7.5000000e-01 3.0000000e+00 3.9500000e+01 
7.5000000e-01 3.0000000e+00 4.0000000e+01 
7.5000000e-01 3.0000000e+00 4.0500000e+01 
7.5000000e-01 3.0000000e+00 4.1000000e+01 
7.5000000e-01 3.0000000e+00 4.1500000e+01 
7.5000000e-01 3.0000000e+00 4.2000000e+01 
7.5000000e-01 3.0000000e+00 4.2500000e+01 
7.5000000e-01 3.0000000e+00 4.3000000e+01 
7.5000000e-01 3.0000000e+00 4.3500000e+01 
7.5000000e-01 3.0000000e+00 4.4000000e+01 
7.5000000e-01 3.0000000e+00 4.4500000e+01 
7.5000000e-01 3.0000000e+00 4.5000000e+01 
7.5000000e-01 3.0000000e+00 4.5500000e+01 
7.5000000e-01 3.0000000e+00 4.6000000e+01 
7.5000000e-01 3.0000000e+00 4.6500000e+01 
7.5000000e-01 3.0000000e+00 4.7000000e+01 
7.5000000e-01 3.0000000e+00 4.7500000e+01 
7.5000000e-01 3.0000000e+00 4.8000000e+01 
7.5000000e-01 3.0000000e+00 4.8500000e+01 
7.5000000e-01 3.0000000e+00 4.9000000e+01 
7.5000000e-01 3.0000000e+00 4.9500000e+01 
7.5000000e-01 3.0250001e+00 0.0000000e+00 
7.5000000e-01 3.0250001e+00 5.0000000e-01 
7.5000000e-01 3.0250001e+00 1.0000000e+00 
7.5000000e-01 3.0250001e+00 1.5000000e+00 
7.5000000e-01 3.0250001e+00 2.0000000e+00 
7.5000000e-01 3.0250001e+00 2.5000000e+00 
7.5000000e-01 3.0250001e+00 3.0000000e+00 
7.5000000e-01 3.0250001e+00 3.5000000e+00 
7.5000000e-01 3.0250001e+00 4.0000000e+00 
7.5000000e-01 3.0250001e+00 4.5000000e+00 
7.5000000e-01 3.0250001e+00 5.0000000e+00 
7.5000000e-01 3.0250001e+00 5.5000000e+00 
7.5000000e-01 3.0250001e+00 6.0000000e+00 
7.5000000e-01 3.0250001e+00 6.5000000e+00 
7.5000000e-01 3.0250001e+00 7.0000000e+00 
7.5000000e-01 3.0250001e+00 7.5000000e+00 
7.5000000e-01 3.0250001e+00 8.0000000e+00 
7.5000000e-01 3.0250001e+00 8.5000000e+00 
7.5000000e-01 3.0250001e+00 9.0000000e+00 
7.5000000e-01 3.0250001e+00 9.5000000e+00 
7.5000000e-01 3.0250001e+00 1.0000000e+01 
7.5000000e-01 3.0250001e+00 1.0500000e+01 
7.5000000e-01 3.0250001e+00 1.1000000e+01 
7.5000000e-01 3.0250001e+00 1.1500000e+01 
7.5000000e-01 3.0250001e+00 1.2000000e+01 
7.5000000e-01 3.0250001e+00 1.2500000e+01 
7.5000000e-01 3.0250001e+00 1.3000000e+01 
7.5000000e-01 3.0250001e+00 1.3500000e+01 
7.5000000e-01 3.0250001e+00 1.4000000e+01 
7.5000000e-01 3.0250001e+00 1.4500000e+01 
7.5000000e-01 3.0250001e+00 1.5000000e+01 
7.5000000e-01 3.0250001e+00 1.5500000e+01 
7.5000000e-01 3.0250001e+00 1.6000000e+01 
7.5000000e-01 3.0250001e+00 1.6500000e+01 
7.5000000e-01 3.0250001e+00 1.7000000e+01 
7.5000000e-01 3.0250001e+00 1.7500000e+01 
7.5000000e-01 3.0250001e+00 1.8000000e+01 
7.5000000e-01 3.0250001e+00 1.8500000e+01 
7.5000000e-01 3.0250001e+00 1.9000000e+01 
7.5000000e-01 3.0250001e+00 1.9500000e+01 
7.5000000e-01 3.0250001e+00 2.0000000e+01 
7.5000000e-01 3.0250001e+00 2.0500000e+01 
7.5000000e-01 3.0250001e+00 2.1000000e+01 
7.5000000e-01 3.0250001e+00 2.1500000e+01 
7.5000000e-01 3.0250001e+00 2.2000000e+01 
7.5000000e-01 3.0250001e+00 2.2500000e+01 
7.5000000e-01 3.0250001e+00 2.3000000e+01 
7.5000000e-01 3.0250001e+00 2.3500000e+01 
7.5000000e-01 3.0250001e+00 2.4000000e+01 
7.5000000e-01 3.0250001e+00 2.4500000e+01 
7.5000000e-01 3.0250001e+00 2.5000000e+01 
7.5000000e-01 3.0250001e+00 2.5500000e+01 
7.5000000e-01 3.0250001e+00 2.6000000e+01 
7.5000000e-01 3.0250001e+00 2.6500000e+01 
7.5000000e-01 3.0250001e+00 2.7000000e+01 
7.5000000e-01 3.0250001e+00 2.7500000e+01 
7.5000000e-01 3.0250001e+00 2.8000000e+01 
7.5000000e-01 3.0250001e+00 2.8500000e+01 
7.5000000e-01 3.0250001e+00 2.9000000e+01 
7.5000000e-01 3.0250001e+00 2.9500000e+01 
7.5000000e-01 3.0250001e+00 3.0000000e+01 
7.5000000e-01 3.0250001e+00 3.0500000e+01 
7.5000000e-01 3.0250001e+00 3.1000000e+01 
7.5000000e-01 3.0250001e+00 3.1500000e+01 
7.5000000e-01 3.0250001e+00 3.2000000e+01 
7.5000000e-01 3.0250001e+00 3.2500000e+01 
7.5000000e-01 3.0250001e+00 3.3000000e+01 
7.5000000e-01 3.0250001e+00 3.3500000e+01 
7.5000000e-01 3.0250001e+00 3.4000000e+01 
7.5000000e-01 3.0250001e+00 3.4500000e+01 
7.5000000e-01 3.0250001e+00 3.5000000e+01 
7.5000000e-01 3.0250001e+00 3.5500000e+01 
7.5000000e-01 3.0250001e+00 3.6000000e+01 
7.5000000e-01 3.0250001e+00 3.6500000e+01 
7.5000000e-01 3.0250001e+00 3.7000000e+01 
7.5000000e-01 3.0250001e+00 3.7500000e+01 
7.5000000e-01 3.0250001e+00 3.8000000e+01 
7.5000000e-01 3.0250001e+00 3.8500000e+01 
7.5000000e-01 3.0250001e+00 3.9000000e+01 
7.5000000e-01 3.0250001e+00 3.9500000e+01 
7.5000000e-01 3.0250001e+00 4.0000000e+01 
7.5000000e-01 3.0250001e+00 4.0500000e+01 
7.5000000e-01 3.0250001e+00 4.1000000e+01 
7.5000000e-01 3.0250001e+00 4.1500000e+01 
7.5000000e-01 3.0250001e+00 4.2000000e+01 
7.5000000e-01 3.0250001e+00 4.2500000e+01 
7.5000000e-01 3.0250001e+00 4.3000000e+01 
7.5000000e-01 3.0250001e+00 4.3500000e+01 
7.5000000e-01 3.0250001e+00 4.4000000e+01 
7.5000000e-01 3.0250001e+00 4.4500000e+01 
7.5000000e-01 3.0250001e+00 4.5000000e+01 
7.5000000e-01 3.0250001e+00 4.5500000e+01 
7.5000000e-01 3.0250001e+00 4.6000000e+01 
7.5000000e-01 3.0250001e+00 4.6500000e+01 
7.5000000e-01 3.0250001e+00 4.7000000e+01 
7.5000000e-01 3.0250001e+00 4.7500000e+01 
7.5000000e-01 3.0250001e+00 4.8000000e+01 
7.5000000e-01 3.0250001e+00 4.8500000e+01 
7.5000000e-01 3.0250001e+00 4.9000000e+01 
7.5000000e-01 3.0250001e+00 4.9500000e+01 
7.5000000e-01 3.0250001e+00 5.0000000e+01 
3.0000000e+00 2.0000000e+00 3.6000000e+01 
8.0487806e-01 3.0000000e+00 3.6000000e+01 
0.0000000e+00 0.0000000e+00 1.0000000e+00 
0.0000000e+00 0.0000000e+00 2.0000000e+00 
0.0000000e+00 0.0000000e+00 3.0000000e+00 
0.0000000e+00 0.0000000e+00 4.0000000e+00 
0.0000000e+00 0.0000000e+00 5.0000000e+00 
0.0000000e+00 0.0000000e+00 6.0000000e+00 
0.0000000e+00 0.0000000e+00 7.0000000e+00 
0.0000000e+00 0.0000000e+00 8.0000000e+00 
[...]
POINT_DATA 1919
FIELD FieldData 3
DISPLACEMENT 3 1919  float
0.0000000e+00 0.0000000e+00 0.0000000e+00 
0.0000000e+00 0.0000000e+00 0.0000000e+00 
0.0000000e+00 0.0000000e+00 0.0000000e+00 
0.0000000e+00 0.0000000e+00 0.0000000e+00 
2.9809823e-06 1.4181569e-07 -6.6122211e-06 
-1.2387741e-08 3.5279605e-08 -7.3970097e-09 
0.0000000e+00 -5.4584609e-05 0.0000000e+00 
0.0000000e+00 -2.2280402e-07 0.0000000e+00 
1.2593728e-05 6.8703208e-08 -9.8783275e-06 
-9.2282285e-08 7.0704772e-08 -9.2494240e-08 
4.4735443e-06 1.7058019e-05 7.5922535e-06 
5.7911360e-09 7.6808689e-08 8.9940464e-08 
0.0000000e+00 -9.3082250e-05 0.0000000e+00 
0.0000000e+00 -2.0762623e-07 0.0000000e+00 
4.3989265e-05 5.4068725e-05 1.3119585e-04 
1.9798357e-07 -2.9528110e-07 3.9571015e-07 
8.0145192e-06 7.6180739e-05 1.0827441e-04 
-9.3606483e-09 -6.4414155e-07 -1.6762503e-07 
0.0000000e+00 -1.1390819e-04 0.0000000e+00 
0.0000000e+00 4.6029515e-07 0.0000000e+00 
-5.9289130e-05 3.8878032e-05 1.0170523e-04 
-6.5777458e-05 -3.4631274e-05 4.4531702e-05 
-8.7733235e-05 -8.1732527e-05 1.2035202e-05 
-6.1558705e-05 -8.7396467e-05 3.6220568e-05 
-1.3783143e-04 -1.1172328e-04 8.5326763e-05 
-7.0087161e-05 -2.9487672e-04 9.4173527e-05 
-1.4740785e-04 -7.4892747e-04 1.6142076e-04 
-1.7095340e-04 -1.4781518e-03 1.2071181e-04 
-2.3645624e-04 -2.4397862e-03 2.1629693e-04 
-3.2528600e-04 -3.5219782e-03 7.7194214e-05 
-3.0322940e-04 -4.5277053e-03 1.0600501e-04 
-3.2266096e-04 -5.0294148e-03 -1.0418974e-05 
-3.6102449e-04 -4.9067596e-03 -9.2073307e-05 
-3.6703260e-04 -4.6550850e-03 -1.4951725e-04 
-3.1691781e-04 -4.6274550e-03 -1.5880396e-04 
-3.1315794e-04 -4.6397881e-03 -2.1483257e-04 
-2.6265305e-04 -4.2754370e-03 -2.9463475e-04 
-1.5393901e-04 -3.2371893e-03 -2.0717026e-04 
-6.1041545e-05 -2.0540135e-03 -2.9636509e-04 
1.3059971e-05 -1.0792603e-03 -1.7223966e-04 
6.7689951e-05 -4.3008133e-04 -1.3525109e-04 
5.9782436e-05 -6.4048931e-05 4.4767065e-05 
1.2188848e-05 9.8039578e-05 1.4821859e-04 
-2.5243284e-05 1.3325806e-04 2.0860885e-04 
-6.9722169e-05 9.8990495e-05 1.9585497e-04 
-8.0888436e-05 4.0186173e-05 1.0008031e-04 
-7.8291298e-05 -5.4135771e-06 -9.4306379e-06 
-4.6763042e-05 -2.6737007e-05 -7.6087155e-05 
-8.1564858e-06 -1.9565563e-05 -1.3164151e-04 
3.3107077e-05 1.1039069e-05 -1.2838097e-04 
6.1634899e-05 5.7701185e-05 -7.5369702e-05 
4.8761998e-05 1.1284612e-04 -3.8996903e-05 
4.7064990e-05 1.5604289e-04 7.9030124e-06 
3.8446597e-05 1.6289149e-04 4.5112880e-05 
4.6120193e-05 1.2768409e-04 6.9821443e-05 
2.6178823e-06 7.5217809e-05 6.1927945e-05 
-1.2071316e-05 4.0018451e-05 5.6012268e-05 
-4.3636890e-05 4.0074246e-05 3.6593312e-05 
-9.2657370e-05 5.9204816e-05 4.6982619e-05 
-6.3282634e-05 6.0337617e-05 5.1104533e-05 
-7.4392658e-05 2.7062830e-05 6.6243781e-05 
-6.0684240e-05 -2.8888398e-05 7.1306145e-05 
-1.1632535e-04 -8.0219164e-05 1.0300793e-04 
-9.1888913e-05 -1.1782098e-04 1.2159778e-04 
-1.3507382e-04 -1.8797975e-04 1.4448429e-04 
-1.5698827e-04 -4.0286180e-04 1.4589335e-04 
-1.9310570e-04 -8.7548874e-04 2.2111474e-04 
-2.0523518e-04 -1.6689571e-03 1.4149910e-04 
-2.7524773e-04 -2.7430747e-03 1.9264310e-04 
-3.7698870e-04 -3.9008793e-03 -3.2911653e-06 
-4.0690985e-04 -4.8315581e-03 1.4600948e-05 
-4.4587074e-04 -5.1092645e-03 -1.3031790e-04 
-4.0341602e-04 -4.9601062e-03 -2.4246633e-04 
-3.2968220e-04 -4.8410078e-03 -2.6498522e-04 
-2.6718280e-04 -4.9482915e-03 -2.8956472e-04 
-2.8660698e-04 -4.9274289e-03 -2.9611541e-04 
-2.4148975e-04 -4.3362435e-03 -3.0730994e-04 
-1.4455554e-04 -3.1828587e-03 -1.2383763e-04 
-1.1421873e-04 -2.0003009e-03 -1.9409799e-04 
-3.6203648e-05 -1.0399950e-03 -3.4714732e-05 
-1.7085680e-05 -3.7931473e-04 -5.9338221e-05 
-9.5322948e-06 1.1483422e-05 1.2566496e-05 
-3.0222584e-06 1.7621838e-04 4.7429399e-05 
-8.6114023e-06 1.9172273e-04 9.0848916e-05 
-4.4074965e-05 1.3901253e-04 9.7659839e-05 
-5.3162905e-05 7.5093005e-05 3.7980582e-05 
-4.1329899e-05 3.1087373e-05 -3.5508703e-05 
-2.3756746e-05 4.2241813e-06 -1.0230863e-04 
6.0751909e-06 -1.1349055e-05 -1.1928027e-04 
3.7597500e-05 -1.7329136e-05 -8.1302358e-05 
3.2879681e-05 -1.1959900e-05 -2.8970899e-05 
2.4177869e-05 1.4201638e-07 5.1437701e-06 
1.2515730e-05 7.3414940e-06 1.9794368e-05 
2.8637771e-06 7.5948478e-06 3.0152842e-05 
-6.0023181e-06 4.4344574e-06 2.9899949e-05 
-7.3041924e-06 1.9786103e-06 1.8668869e-05 
-7.3687720e-06 1.2479007e-06 7.0924566e-06 
-4.5529719e-06 3.6339370e-07 -1.3622404e-06 
-1.3999892e-06 -1.9120112e-06 -4.6347795e-06 
-6.2840240e-07 -4.3689070e-06 -5.5486435e-06 
6.7166332e-07 -4.3203709e-06 -5.2158894e-06 
7.6616476e-07 -1.5733118e-06 -2.5303018e-06 
1.3612158e-06 1.4921377e-06 -1.0140964e-06 
1.0537735e-06 2.6230559e-06 8.7323389e-07 
2.2633785e-07 1.3669573e-06 1.1407276e-06 
-1.1074484e-07 -5.4517807e-07 8.8863652e-07 
-3.3016451e-07 -1.2237407e-06 1.2964539e-06 
-3.0271320e-07 -4.6628563e-07 1.5733231e-07 
-3.7140310e-08 6.5177971e-07 5.5856685e-08 
-1.7211764e-07 9.8755163e-07 2.2349762e-07 
-3.1536871e-09 3.6952744e-07 -7.3338299e-07 
-5.7858699e-08 -4.7526353e-07 -1.8055199e-07 
-3.7674326e-08 -7.7035804e-07 1.7261282e-08 
3.2707725e-09 -4.0228207e-07 -4.3573448e-07 
9.3944180e-08 2.5227627e-07 3.9871543e-07 
2.8880677e-08 6.7926948e-07 -2.5204569e-08 
-6.3394033e-08 5.9208003e-07 5.3275343e-08 
4.4681844e-08 1.0896922e-07 1.7484855e-07 
-6.8839960e-08 -4.1628394e-07 5.2502521e-08 
0.0000000e+00 7.3431642e-05 0.0000000e+00 
0.0000000e+00 3.7775761e-05 0.0000000e+00 
0.0000000e+00 -3.2197033e-05 0.0000000e+00 
0.0000000e+00 -7.7346951e-05 0.0000000e+00 
0.0000000e+00 -8.2481405e-05 0.0000000e+00 
0.0000000e+00 -1.1272315e-04 0.0000000e+00 
0.0000000e+00 -3.0079766e-04 0.0000000e+00 
0.0000000e+00 -7.5245980e-04 0.0000000e+00 
0.0000000e+00 -1.4820966e-03 0.0000000e+00 
0.0000000e+00 -2.4444980e-03 0.0000000e+00 
0.0000000e+00 -3.5390886e-03 0.0000000e+00 
0.0000000e+00 -4.5490856e-03 0.0000000e+00 
0.0000000e+00 -5.0630453e-03 0.0000000e+00 
0.0000000e+00 -4.9305796e-03 0.0000000e+00 
0.0000000e+00 -4.6820161e-03 0.0000000e+00 
0.0000000e+00 -4.6447795e-03 0.0000000e+00 
0.0000000e+00 -4.6677617e-03 0.0000000e+00 
0.0000000e+00 -4.2953659e-03 0.0000000e+00 
0.0000000e+00 -3.2601282e-03 0.0000000e+00 
0.0000000e+00 -2.0656546e-03 0.0000000e+00 
0.0000000e+00 -1.0858364e-03 0.0000000e+00 
0.0000000e+00 -4.3136996e-04 0.0000000e+00 
0.0000000e+00 -6.4106251e-05 0.0000000e+00 
0.0000000e+00 9.8783610e-05 0.0000000e+00 
0.0000000e+00 1.3405997e-04 0.0000000e+00 
0.0000000e+00 9.9779289e-05 0.0000000e+00 
0.0000000e+00 4.1799754e-05 0.0000000e+00 
0.0000000e+00 -5.1292077e-06 0.0000000e+00 
0.0000000e+00 -2.6598516e-05 0.0000000e+00 
0.0000000e+00 -1.9673307e-05 0.0000000e+00 
0.0000000e+00 1.1043833e-05 0.0000000e+00 
0.0000000e+00 5.8539255e-05 0.0000000e+00 
0.0000000e+00 1.1327954e-04 0.0000000e+00 
0.0000000e+00 1.5531623e-04 0.0000000e+00 
0.0000000e+00 1.6149574e-04 0.0000000e+00 
0.0000000e+00 1.2699727e-04 0.0000000e+00 
0.0000000e+00 7.5749595e-05 0.0000000e+00 
0.0000000e+00 4.1716805e-05 0.0000000e+00 
0.0000000e+00 4.1399817e-05 0.0000000e+00 
0.0000000e+00 5.8622572e-05 0.0000000e+00 
0.0000000e+00 5.9138863e-05 0.0000000e+00 
0.0000000e+00 2.6081627e-05 0.0000000e+00 
0.0000000e+00 -2.8354192e-05 0.0000000e+00 
0.0000000e+00 -7.7850695e-05 0.0000000e+00 
0.0000000e+00 -1.1462084e-04 0.0000000e+00 
0.0000000e+00 -1.8700579e-04 0.0000000e+00 
0.0000000e+00 -4.0412546e-04 0.0000000e+00 
0.0000000e+00 -8.8083773e-04 0.0000000e+00 
0.0000000e+00 -1.6782567e-03 0.0000000e+00 
0.0000000e+00 -2.7510687e-03 0.0000000e+00 
0.0000000e+00 -3.9186771e-03 0.0000000e+00 
0.0000000e+00 -4.8516029e-03 0.0000000e+00 
0.0000000e+00 -5.1432573e-03 0.0000000e+00 
0.0000000e+00 -4.9835905e-03 0.0000000e+00 
0.0000000e+00 -4.8693810e-03 0.0000000e+00 
0.0000000e+00 -4.9657193e-03 0.0000000e+00 
0.0000000e+00 -4.9581020e-03 0.0000000e+00 
0.0000000e+00 -4.3568397e-03 0.0000000e+00 
0.0000000e+00 -3.2047627e-03 0.0000000e+00 
0.0000000e+00 -2.0084013e-03 0.0000000e+00 
0.0000000e+00 -1.0447343e-03 0.0000000e+00 
0.0000000e+00 -3.8027711e-04 0.0000000e+00 
0.0000000e+00 9.8202945e-06 0.0000000e+00 
0.0000000e+00 1.7636943e-04 0.0000000e+00 
0.0000000e+00 1.9353836e-04 0.0000000e+00 
0.0000000e+00 1.4049947e-04 0.0000000e+00 
0.0000000e+00 7.6476412e-05 0.0000000e+00 
0.0000000e+00 3.1024731e-05 0.0000000e+00 
0.0000000e+00 4.0554341e-06 0.0000000e+00 
0.0000000e+00 -1.1338248e-05 0.0000000e+00 
0.0000000e+00 -1.6988088e-05 0.0000000e+00 
0.0000000e+00 -1.1790782e-05 0.0000000e+00 
0.0000000e+00 -4.6749926e-07 0.0000000e+00 
0.0000000e+00 7.0827869e-06 0.0000000e+00 
0.0000000e+00 7.7051700e-06 0.0000000e+00 
0.0000000e+00 4.6154541e-06 0.0000000e+00 
0.0000000e+00 2.0394739e-06 0.0000000e+00 
0.0000000e+00 1.1519260e-06 0.0000000e+00 
0.0000000e+00 2.5672600e-07 0.0000000e+00 
0.0000000e+00 -1.9242236e-06 0.0000000e+00 
0.0000000e+00 -4.2095862e-06 0.0000000e+00 
0.0000000e+00 -4.2161541e-06 0.0000000e+00 
0.0000000e+00 -1.6330725e-06 0.0000000e+00 
0.0000000e+00 1.3874586e-06 0.0000000e+00 
0.0000000e+00 2.5475138e-06 0.0000000e+00 
0.0000000e+00 1.3895592e-06 0.0000000e+00 
0.0000000e+00 -4.6091694e-07 0.0000000e+00 
0.0000000e+00 -1.1821334e-06 0.0000000e+00 
0.0000000e+00 -4.8020598e-07 0.0000000e+00 
0.0000000e+00 6.0915801e-07 0.0000000e+00 
0.0000000e+00 9.6234203e-07 0.0000000e+00 
0.0000000e+00 3.7430559e-07 0.0000000e+00 
0.0000000e+00 -4.5243596e-07 0.0000000e+00 
0.0000000e+00 -7.5799323e-07 0.0000000e+00 
0.0000000e+00 -3.9915633e-07 0.0000000e+00 
0.0000000e+00 2.4810413e-07 0.0000000e+00 
0.0000000e+00 6.6827903e-07 0.0000000e+00 
0.0000000e+00 5.8311815e-07 0.0000000e+00 
0.0000000e+00 1.0861208e-07 0.0000000e+00 
0.0000000e+00 -4.1164961e-07 0.0000000e+00 
0.0000000e+00 -6.3808091e-07 0.0000000e+00 
-1.4788366e-06 7.7010873e-06 -1.2035275e-05 
2.4120811e-05 1.1974461e-05 3.0883864e-06 
0.0000000e+00 0.0000000e+00 0.0000000e+00 
0.0000000e+00 0.0000000e+00 0.0000000e+00 
0.0000000e+00 0.0000000e+00 0.0000000e+00 
0.0000000e+00 0.0000000e+00 0.0000000e+00 
0.0000000e+00 0.0000000e+00 0.0000000e+00 
0.0000000e+00 0.0000000e+00 0.0000000e+00 
0.0000000e+00 0.0000000e+00 0.0000000e+00 
0.0000000e+00 0.0000000e+00 0.0000000e+00 
0.0000000e+00 0.0000000e+00 0.0000000e+00 
0.0000000e+00 0.0000000e+00 0.0000000e+00 
0.0000000e+00 0.0000000e+00 0.0000000e+00 
0.0000000e+00 0.0000000e+00 0.0000000e+00 
0.0000000e+00 0.0000000e+00 0.0000000e+00 
0.0000000e+00 0.0000000e+00 0.0000000e+00 
0.0000000e+00 0.0000000e+00 0.0000000e+00 
0.0000000e+00 0.0000000e+00 0.0000000e+00 
0.0000000e+00 0.0000000e+00 0.0000000e+00 
0.0000000e+00 0.0000000e+00 0.0000000e+00 
0.0000000e+00 0.0000000e+00 0.0000000e+00 
0.0000000e+00 0.0000000e+00 0.0000000e+00 
0.0000000e+00 0.0000000e+00 0.0000000e+00 
0.0000000e+00 0.0000000e+00 0.0000000e+00 
0.0000000e+00 0.0000000e+00 0.0000000e+00 
0.0000000e+00 0.0000000e+00 0.0000000e+00 
0.0000000e+00 0.0000000e+00 0.0000000e+00 
0.0000000e+00 0.0000000e+00 0.0000000e+00 
0.0000000e+00 0.0000000e+00 0.0000000e+00 
0.0000000e+00 0.0000000e+00 0.0000000e+00 
0.0000000e+00 0.0000000e+00 0.0000000e+00 
0.0000000e+00 0.0000000e+00 0.0000000e+00 
0.0000000e+00 0.0000000e+00 0.0000000e+00 
0.0000000e+00 0.0000000e+00 0.0000000e+00 
0.0000000e+00 0.0000000e+00 0.0000000e+00 
0.0000000e+00 0.0000000e+00 0.0000000e+00 
0.0000000e+00 0.0000000e+00 0.0000000e+00 
0.0000000e+00 0.0000000e+00 0.0000000e+00 
0.0000000e+00 0.0000000e+00 0.0000000e+00 
0.0000000e+00 0.0000000e+00 0.0000000e+00 
0.0000000e+00 0.0000000e+00 0.0000000e+00 
0.0000000e+00 0.0000000e+00 0.0000000e+00 
0.0000000e+00 0.0000000e+00 0.0000000e+00 
0.0000000e+00 0.0000000e+00 0.0000000e+00 
0.0000000e+00 0.0000000e+00 0.0000000e+00 
0.0000000e+00 0.0000000e+00 0.0000000e+00 
0.0000000e+00 0.0000000e+00 0.0000000e+00 
0.0000000e+00 0.0000000e+00 0.0000000e+00 
0.0000000e+00 0.0000000e+00 0.0000000e+00 
0.0000000e+00 0.0000000e+00 0.0000000e+00 
0.0000000e+00 0.0000000e+00 0.0000000e+00 
0.0000000e+00 0.0000000e+00 0.0000000e+00 
0.0000000e+00 0.0000000e+00 0.0000000e+00 
0.0000000e+00 0.0000000e+00 0.0000000e+00 
0.0000000e+00 0.0000000e+00 0.0000000e+00 
0.0000000e+00 0.0000000e+00 0.0000000e+00 
0.0000000e+00 0.0000000e+00 0.0000000e+00 
0.0000000e+00 0.0000000e+00 0.0000000e+00 
0.0000000e+00 0.0000000e+00 0.0000000e+00 
0.0000000e+00 0.0000000e+00 0.0000000e+00 
0.0000000e+00 0.0000000e+00 0.0000000e+00 
0.0000000e+00 0.0000000e+00 0.0000000e+00 
0.0000000e+00 0.0000000e+00 0.0000000e+00 
0.0000000e+00 0.0000000e+00 0.0000000e+00 
0.0000000e+00 0.0000000e+00 0.0000000e+00 
0.0000000e+00 0.0000000e+00 0.0000000e+00 
0.0000000e+00 0.0000000e+00 0.0000000e+00 
0.0000000e+00 0.0000000e+00 0.0000000e+00 
0.0000000e+00 0.0000000e+00 0.0000000e+00 
0.0000000e+00 0.0000000e+00 0.0000000e+00 
0.0000000e+00 0.0000000e+00 0.0000000e+00 
0.0000000e+00 0.0000000e+00 0.0000000e+00 
0.0000000e+00 0.0000000e+00 0.0000000e+00 
0.0000000e+00 0.0000000e+00 0.0000000e+00 
0.0000000e+00 0.0000000e+00 0.0000000e+00 
0.0000000e+00 0.0000000e+00 0.0000000e+00 
0.0000000e+00 0.0000000e+00 0.0000000e+00 
0.0000000e+00 0.0000000e+00 0.0000000e+00 
0.0000000e+00 0.0000000e+00 0.0000000e+00 
0.0000000e+00 0.0000000e+00 0.0000000e+00 
0.0000000e+00 0.0000000e+00 0.0000000e+00 
0.0000000e+00 0.0000000e+00 0.0000000e+00 
0.0000000e+00 0.0000000e+00 0.0000000e+00 
0.0000000e+00 0.0000000e+00 0.0000000e+00 
0.0000000e+00 0.0000000e+00 0.0000000e+00 
0.0000000e+00 0.0000000e+00 0.0000000e+00 
0.0000000e+00 0.0000000e+00 0.0000000e+00 
0.0000000e+00 0.0000000e+00 0.0000000e+00 
0.0000000e+00 0.0000000e+00 0.0000000e+00 
0.0000000e+00 0.0000000e+00 0.0000000e+00 
0.0000000e+00 0.0000000e+00 0.0000000e+00 
0.0000000e+00 0.0000000e+00 0.0000000e+00 
0.0000000e+00 0.0000000e+00 0.0000000e+00 
0.0000000e+00 0.0000000e+00 0.0000000e+00 
0.0000000e+00 0.0000000e+00 0.0000000e+00 
0.0000000e+00 0.0000000e+00 0.0000000e+00 
0.0000000e+00 0.0000000e+00 0.0000000e+00 
0.0000000e+00 0.0000000e+00 0.0000000e+00 
0.0000000e+00 0.0000000e+00 0.0000000e+00 
0.0000000e+00 0.0000000e+00 0.0000000e+00 
0.0000000e+00 0.0000000e+00 0.0000000e+00 
0.0000000e+00 0.0000000e+00 0.0000000e+00 
0.0000000e+00 0.0000000e+00 0.0000000e+00 
0.0000000e+00 0.0000000e+00 0.0000000e+00 
0.0000000e+00 0.0000000e+00 0.0000000e+00 
0.0000000e+00 0.0000000e+00 0.0000000e+00 
0.0000000e+00 0.0000000e+00 0.0000000e+00 
0.0000000e+00 0.0000000e+00 0.0000000e+00 
1.1018587e-05 5.7073894e-06 -7.5942685e-06 
1.5340014e-05 -1.0233874e-06 -1.2825560e-05 
2.4733401e-05 -6.4932028e-06 -1.3369176e-05 
3.8932601e-05 -5.0444987e-06 -7.5342959e-06 
4.4063781e-05 -2.4534603e-07 3.1313260e-07 
4.4621618e-05 -4.2951319e-06 5.0724843e-06 
4.5258894e-05 -6.6096159e-06 7.0647980e-06 
2.9450959e-05 -1.9572923e-05 5.3604376e-06 
2.2062002e-05 -1.9856296e-05 2.5918434e-06 
1.8630786e-05 -5.6212743e-06 8.2847564e-06 
1.5394844e-05 8.3592877e-06 1.4945623e-05 
7.3442934e-06 -1.4015279e-06 2.3578070e-05 
4.0134687e-06 -6.7997958e-06 2.5411713e-05 
-1.0265984e-06 -9.5012256e-06 1.2239174e-05 
-3.9917613e-06 -3.2273031e-06 4.4454650e-06 
1.1143523e-07 7.4455420e-06 -4.3962009e-06 
5.2655714e-06 4.6238515e-06 -9.0847116e-06 
6.4542623e-06 6.4550991e-06 -1.2283142e-05 
1.3163271e-05 1.4546102e-05 -1.0786256e-05 
2.1413220e-05 8.0164891e-06 -6.8473196e-06 
2.5925063e-05 1.7199680e-05 -8.9345840e-06 
3.1645548e-05 1.3097502e-05 -9.2162300e-06 
3.4848086e-05 7.5295773e-08 -1.2514419e-05 
3.9178140e-05 5.0994258e-06 -1.4332706e-05 
4.2154381e-05 -3.6916267e-06 -5.3007370e-06 
4.1079853e-05 -1.0093052e-05 -1.0104762e-06 
3.6953868e-05 -7.3715009e-06 3.5139560e-06 
3.0554304e-05 -1.1407617e-05 7.3180536e-06 
2.6368711e-05 -1.2753789e-05 8.0930395e-06 
2.1932388e-05 -7.5810326e-06 1.5531117e-05 
1.4804180e-05 -3.6737829e-06 1.8524870e-05 
9.9025565e-06 -3.0579588e-06 1.6379250e-05 
5.7967991e-06 -4.5156735e-06 1.3443678e-05 
1.7133239e-06 -3.2264181e-06 5.6902736e-06 
-5.5425591e-07 7.3596773e-08 -4.1795820e-07 
-1.6191435e-06 2.7757974e-06 -3.7006105e-06 
-4.6063178e-07 8.9155606e-07 -3.6370004e-06 
-4.5660377e-07 1.5851346e-07 -2.0381156e-06 
5.6776632e-09 -2.7068205e-07 9.0192223e-08 
1.9076914e-07 1.2440316e-07 1.3221818e-06 
-1.4496838e-09 -4.0891546e-08 8.8530544e-07 
1.1288429e-07 -2.9827862e-07 4.9526616e-08 
3.4469881e-08 2.9764818e-08 -1.3663832e-07 
-7.1754094e-08 5.3076480e-08 4.6289493e-08 
3.7900282e-08 -1.3747817e-07 -7.6519676e-08 
2.3356055e-08 -2.7594185e-08 -4.6748653e-08 
-3.9475704e-08 1.3290069e-07 5.5694741e-08 
6.9084991e-09 -2.8675727e-08 4.9880509e-08 
2.6154034e-08 -1.1901013e-07 -1.5736601e-08 
0.0000000e+00 -5.8307880e-05 0.0000000e+00 
0.0000000e+00 -4.8479564e-05 0.0000000e+00 
0.0000000e+00 -1.1847615e-04 0.0000000e+00 
0.0000000e+00 -2.9547431e-04 0.0000000e+00 
0.0000000e+00 -4.6236994e-04 0.0000000e+00 
0.0000000e+00 -6.6550786e-04 0.0000000e+00 
0.0000000e+00 -6.6776847e-04 0.0000000e+00 
0.0000000e+00 -5.0854153e-04 0.0000000e+00 
0.0000000e+00 -3.3723269e-04 0.0000000e+00 
0.0000000e+00 -1.2284266e-04 0.0000000e+00 
0.0000000e+00 -5.7195030e-07 0.0000000e+00 
0.0000000e+00 7.7865980e-06 0.0000000e+00 
0.0000000e+00 -1.6887601e-05 0.0000000e+00 
0.0000000e+00 -4.2432894e-05 0.0000000e+00 
0.0000000e+00 -6.2666753e-05 0.0000000e+00 
0.0000000e+00 -2.8791321e-05 0.0000000e+00 
0.0000000e+00 -2.5777532e-05 0.0000000e+00 
0.0000000e+00 4.7670906e-06 0.0000000e+00 
0.0000000e+00 5.5742479e-05 0.0000000e+00 
0.0000000e+00 6.2777319e-05 0.0000000e+00 
0.0000000e+00 6.0561739e-05 0.0000000e+00 
0.0000000e+00 4.9330778e-05 0.0000000e+00 
0.0000000e+00 -1.0915412e-04 0.0000000e+00 
0.0000000e+00 -2.8253964e-04 0.0000000e+00 
0.0000000e+00 -5.0319638e-04 0.0000000e+00 
0.0000000e+00 -6.9437717e-04 0.0000000e+00 
0.0000000e+00 -6.8389840e-04 0.0000000e+00 
0.0000000e+00 -5.3500856e-04 0.0000000e+00 
0.0000000e+00 -3.3579822e-04 0.0000000e+00 
0.0000000e+00 -1.1371110e-04 0.0000000e+00 
0.0000000e+00 3.4714083e-06 0.0000000e+00 
0.0000000e+00 2.0098394e-05 0.0000000e+00 
0.0000000e+00 -1.5474314e-05 0.0000000e+00 
0.0000000e+00 -1.3216473e-05 0.0000000e+00 
0.0000000e+00 3.2343081e-07 0.0000000e+00 
0.0000000e+00 5.4429111e-06 0.0000000e+00 
0.0000000e+00 5.5709042e-06 0.0000000e+00 
0.0000000e+00 2.8616878e-06 0.0000000e+00 
0.0000000e+00 2.6347186e-07 0.0000000e+00 
0.0000000e+00 -1.4174869e-06 0.0000000e+00 
0.0000000e+00 -2.2813226e-06 0.0000000e+00 
0.0000000e+00 -7.8331283e-08 0.0000000e+00 
0.0000000e+00 9.2661821e-07 0.0000000e+00 
0.0000000e+00 5.0755546e-07 0.0000000e+00 
0.0000000e+00 2.3687883e-07 0.0000000e+00 
0.0000000e+00 -6.2000754e-07 0.0000000e+00 
0.0000000e+00 -3.3229526e-07 0.0000000e+00 
0.0000000e+00 5.2566332e-07 0.0000000e+00 
0.0000000e+00 2.9864066e-07 0.0000000e+00 
5.5726641e-06 6.4033461e-06 -5.8914866e-06 
4.7304047e-06 -2.7028764e-06 -1.0178969e-05 
2.1217718e-06 -1.3348102e-05 -1.3123952e-05 
1.0676442e-05 -3.5547768e-05 -8.7615663e-06 
3.2883551e-09 -3.5807304e-08 -4.1959840e-08 
-2.3470543e-08 8.3104027e-08 5.9262817e-08 
8.1658008e-08 1.9278637e-07 -1.1668029e-08 
4.7259459e-08 -4.7635471e-08 1.4089868e-08 
1.2915335e-05 8.8866400e-06 -7.7061450e-06 
1.6696218e-05 1.4557851e-06 -9.8487644e-06 
2.7891283e-05 5.3093368e-06 -1.1568827e-05 
2.6732749e-05 4.0695213e-06 -6.4454121e-06 
2.5789239e-05 1.9982378e-06 4.8309272e-07 
3.9019222e-05 5.9242766e-06 8.1432518e-06 
4.4349923e-05 8.8205179e-06 1.7717975e-05 
3.7858179e-05 -1.7741042e-05 1.5345817e-05 
2.3361004e-05 -2.4061488e-05 6.5776676e-06 
1.1707946e-05 -9.0075209e-06 1.6085799e-06 
1.2844657e-05 1.1139784e-05 1.6067997e-05 
1.1600284e-05 -3.2087962e-06 3.3650387e-05 
1.6948596e-06 -7.6932492e-06 3.2684547e-05 
-2.8596949e-06 -1.2603565e-05 2.1339785e-05 
5.5543269e-06 3.8554467e-06 -4.6497989e-06 
1.2836060e-05 1.3704499e-05 -1.7423890e-05 
1.7021002e-05 1.7291130e-05 -1.4094584e-05 
1.4156238e-05 1.2591224e-05 -1.9909125e-05 
2.1185582e-05 2.3371094e-05 -1.9527783e-05 
2.7762449e-05 1.1772647e-05 -1.4377967e-05 
2.9866736e-05 3.3822405e-05 -7.7994291e-06 