# vtk DataFile Version 4.0
vtk output
ASCII
DATASET UNSTRUCTURED_GRID
POINTS 1919 float
0.0000000e+00 0.0000000e+00 0.0000000e+00 
0.0000000e+00 0.0000000e+00 5.0000000e+01 
5.0000000e+00 0.0000000e+00 0.0000000e+00 
5.0000000e+00 0.0000000e+00 5.0000000e+01 
5.0000000e+00 1.0000000e+00 0.0000000e+00 
5.0000000e+00 1.0000000e+00 5.0000000e+01 
0.0000000e+00 1.0000000e+00 0.0000000e+00 
0.0000000e+00 1.0000000e+00 5.0000000e+01 
5.0000000e+00 2.0000000e+00 0.0000000e+00 
5.0000000e+00 2.0000000e+00 5.0000000e+01 
3.0000000e+00 2.0000000e+00 0.0000000e+00 
3.0000000e+00 2.0000000e+00 5.0000000e+01 
0.0000000e+00 2.0000000e+00 0.0000000e+00 
0.0000000e+00 2.0000000e+00 5.0000000e+01 
1.5000000e+00 3.0000000e+00 0.0000000e+00 
1.5000000e+00 3.0000000e+00 5.0000000e+01 
7.5000000e-01 3.0000000e+00 0.0000000e+00 
7.5000000e-01 3.0000000e+00 5.0000000e+01 
0.0000000e+00 3.0000000e+00 0.0000000e+00 
0.0000000e+00 3.0000000e+00 5.0000000e+01 
7.5000000e-01 3.0000000e+00 5.0000000e-01 
7.5000000e-01 3.0000000e+00 1.0000000e+00 
7.5000000e-01 3.0000000e+00 1.5000000e+00 
7.5000000e-01 3.0000000e+00 2.0000000e+00 
7.5000000e-01 3.0000000e+00 2.5000000e+00 
7.5000000e-01 3.0000000e+00 3.0000000e+00 
7.5000000e-01 3.0000000e+00 3.5000000e+00 
7.5000000e-01 3.0000000e+00 4.0000000e+00 
7.5000000e-01 3.0000000e+00 4.5000000e+00 
7.5000000e-01 3.0000000e+00 5.0000000e+00 
7.5000000e-01 3.0000000e+00 5.5000000e+00 
7.5000000e-01 3.0000000e+00 6.0000000e+00 
7.5000000e-01 3.0000000e+00 6.5000000e+00 
7.5000000e-01 3.0000000e+00 7.0000000e+00 
7.5000000e-01 3.0000000e+00 7.5000000e+00 
7.5000000e-01 3.0000000e+00 8.0000000e+00 
7.5000000e-01 3.0000000e+00 8.5000000e+00 
7.5000000e-01 3.0000000e+00 9.0000000e+00 
7.5000000e-01 3.0000000e+00 9.5000000e+00 
7.5000000e-01 3.0000000e+00 1.0000000e+01 
7.5000000e-01 3.0000000e+00 1.0500000e+01 
7.5000000e-01 3.0000000e+00 1.1000000e+01 
7.5000000e-01 3.0000000e+00 1.1500000e+01 
7.5000000e-01 3.0000000e+00 1.2000000e+01 
7.5000000e-01 3.0000000e+00 1.2500000e+01 
7.5000000e-01 3.0000000e+00 1.3000000e+01 
7.5000000e-01 3.0000000e+00 1.3500000e+01 
7.5000000e-01 3.0000000e+00 1.4000000e+01 
7.5000000e-01 3.0000000e+00 1.4500000e+01 
7.5000000e-01 3.0000000e+00 1.5000000e+01 
7.5000000e-01 3.0000000e+00 1.5500000e+01 
7.5000000e-01 3.0000000e+00 1.6000000e+01 
7.5000000e-01 3.0000000e+00 1.6500000e+01 
7.5000000e-01 3.0000000e+00 1.7000000e+01 
7.5000000e-01 3.0000000e+00 1.7500000e+01 
7.5000000e-01 3.0000000e+00 1.8000000e+01 
7.5000000e-01 3.0000000e+00 1.8500000e+01 
7.5000000e-01 3.0000000e+00 1.9000000e+01 
7.5000000e-01 3.0000000e+00 1.9500000e+01 
7.5000000e-01 3.0000000e+00 2.0000000e+01 
7.5000000e-01 3.0000000e+00 2.0500000e+01 
7.5000000e-01 3.0000000e+00 2.1000000e+01 
7.5000000e-01 3.0000000e+00 2.1500000e+01 
7.5000000e-01 3.0000000e+00 2.2000000e+01 
7.5000000e-01 3.0000000e+00 2.2500000e+01 
7.5000000e-01 3.0000000e+00 2.3000000e+01 
7.5000000e-01 3.0000000e+00 2.3500000e+01 
7.5000000e-01 3.0000000e+00 2.4000000e+01 
7.5000000e-01 3.0000000e+00 2.4500000e+01 
7.5000000e-01 3.0000000e+00 2.5000000e+01 
7.5000000e-01 3.0000000e+00 2.5500000e+01 
7.5000000e-01 3.0000000e+00 2.6000000e+01 
7.5000000e-01 3.0000000e+00 2.6500000e+01 
7.5000000e-01 3.0000000e+00 2.7000000e+01 
7.5000000e-01 3.0000000e+00 2.7500000e+01 
7.5000000e-01 3.0000000e+00 2.8000000e+01 
7.5000000e-01 3.0000000e+00 2.8500000e+01 
7.5000000e-01 3.0000000e+00 2.9000000e+01 
7.5000000e-01 3.0000000e+00 2.9500000e+01 
7.5000000e-01 3.0000000e+00 3.0000000e+01 
7.5000000e-01 3.0000000e+00 3.0500000e+01 
7.5000000e-01 3.0000000e+00 3.1000000e+01 
7.5000000e-01 3.0000000e+00 3.1500000e+01 
7.5000000e-01 3.0000000e+00 3.2000000e+01 
7.5000000e-01 3.0000000e+00 3.2500000e+01 
7.5000000e-01 3.0000000e+00 3.3000000e+01 
7.5000000e-01 3.0000000e+00 3.3500000e+01 
7.5000000e-01 3.0000000e+00 3.4000000e+01 
7.5000000e-01 3.0000000e+00 3.4500000e+01 
7.5000000e-01 3.0000000e+00 3.5000000e+01 
7.5000000e-01 3.0000000e+00 3.5500000e+01 
7.5000000e-01 3.0000000e+00 3.6000000e+01 
7.5000000e-01 3.0000000e+00 3.6500000e+01 
7.5000000e-01 3.0000000e+00 3.7000000e+01 
7.5000000e-01 3.0000000e+00 3.7500000e+01 
7.5000000e-01 3.0000000e+00 3.8000000e+01 
7.5000000e-01 3.0000000e+00 3.8500000e+01 
7.5000000e-01 3.0000000e+00 3.9000000e+01 
7.5000000e-01 3.0000000e+00 3.9500000e+01 
7.5000000e-01 3.0000000e+00 4.0000000e+01 
7.5000000e-01 3.0000000e+00 4.0500000e+01 
7.5000000e-01 3.0000000e+00 4.1000000e+01 
7.5000000e-01 3.0000000e+00 4.1500000e+01 
7.5000000e-01 3.0000000e+00 4.2000000e+01 
7.5000000e-01 3.0000000e+00 4.2500000e+01 
7.5000000e-01 3.0000000e+00 4.3000000e+01 
7.5000000e-01 3.0000000e+00 4.3500000e+01 
7.5000000e-01 3.0000000e+00 4.4000000e+01 
7.5000000e-01 3.0000000e+00 4.4500000e+01 
7.5000000e-01 3.0000000e+00 4.5000000e+01 
7.5000000e-01 3.0000000e+00 4.5500000e+01 
7.5000000e-01 3.0000000e+00 4.6000000e+01 
7.5000000e-01 3.0000000e+00 4.6500000e+01 
7.5000000e-01 3.0000000e+00 4.7000000e+01 
7.5000000e-01 3.0000000e+00 4.7500000e+01 
7.5000000e-01 3.0000000e+00 4.8000000e+01 
7.5000000e-01 3.0000000e+00 4.8500000e+01 
7.5000000e-01 3.0000000e+00 4.9000000e+01 
7.5000000e-01 3.0000000e+00 4.9500000e+01 
7.5000000e-01 3.0250001e+00 0.0000000e+00 
7.5000000e-01 3.0250001e+00 5.0000000e-01 
7.5000000e-01 3.0250001e+00 1.0000000e+00 
7.5000000e-01 3.0250001e+00 1.5000000e+00 
7.5000000e-01 3.0250001e+00 2.0000000e+00 
7.5000000e-01 3.0250001e+00 2.5000000e+00 
7.5000000e-01 3.0250001e+00 3.0000000e+00 
7.5000000e-01 3.0250001e+00 3.5000000e+00 
7.5000000e-01 3.0250001e+00 4.0000000e+00 
7.5000000e-01 3.0250001e+00 4.5000000e+00 
7.5000000e-01 3.0250001e+00 5.0000000e+00 
7.5000000e-01 3.0250001e+00 5.5000000e+00 
7.5000000e-01 3.0250001e+00 6.0000000e+00 
7.5000000e-01 3.0250001e+00 6.5000000e+00 
7.5000000e-01 3.0250001e+00 7.0000000e+00 
7.5000000e-01 3.0250001e+00 7.5000000e+00 
7.5000000e-01 3.0250001e+00 8.0000000e+00 
7.5000000e-01 3.0250001e+00 8.5000000e+00 
7.5000000e-01 3.0250001e+00 9.0000000e+00 
7.5000000e-01 3.0250001e+00 9.5000000e+00 
7.5000000e-01 3.0250001e+00 1.0000000e+01 
7.5000000e-01 3.0250001e+00 1.0500000e+01 
7.5000000e-01 3.0250001e+00 1.1000000e+01 
7.5000000e-01 3.0250001e+00 1.1500000e+01 
7.5000000e-01 3.0250001e+00 1.2000000e+01 
7.5000000e-01 3.0250001e+00 1.2500000e+01 
7.5000000e-01 3.0250001e+00 1.3000000e+01 
7.5000000e-01 3.0250001e+00 1.3500000e+01 
7.5000000e-01 3.0250001e+00 1.4000000e+01 
7.5000000e-01 3.0250001e+00 1.4500000e+01 
7.5000000e-01 3.0250001e+00 1.5000000e+01 
7.5000000e-01 3.0250001e+00 1.5500000e+01 
7.5000000e-01 3.0250001e+00 1.6000000e+01 
7.5000000e-01 3.0250001e+00 1.6500000e+01 
7.5000000e-01 3.0250001e+00 1.7000000e+01 
7.5000000e-01 3.0250001e+00 1.7500000e+01 
7.5000000e-01 3.0250001e+00 1.8000000e+01 
7.5000000e-01 3.0250001e+00 1.8500000e+01 
7.5000000e-01 3.0250001e+00 1.9000000e+01 
7.5000000e-01 3.0250001e+00 1.9500000e+01 
7.5000000e-01 3.0250001e+00 2.0000000e+01 
7.5000000e-01 3.0250001e+00 2.0500000e+01 
7.5000000e-01 3.0250001e+00 2.1000000e+01 
7.5000000e-01 3.0250001e+00 2.1500000e+01 
7.5000000e-01 3.0250001e+00 2.2000000e+01 
7.5000000e-01 3.0250001e+00 2.2500000e+01 
7.5000000e-01 3.0250001e+00 2.3000000e+01 
7.5000000e-01 3.0250001e+00 2.3500000e+01 
7.5000000e-01 3.0250001e+00 2.4000000e+01 
7.5000000e-01 3.0250001e+00 2.4500000e+01 
7.5000000e-01 3.0250001e+00 2.5000000e+01 
7.5000000e-01 3.0250001e+00 2.5500000e+01 
7.5000000e-01 3.0250001e+00 2.6000000e+01 
7.5000000e-01 3.0250001e+00 2.6500000e+01 
7.5000000e-01 3.0250001e+00 2.7000000e+01 
7.5000000e-01 3.0250001e+00 2.7500000e+01 
7.5000000e-01 3.0250001e+00 2.8000000e+01 
7.5000000e-01 3.0250001e+00 2.8500000e+01 
7.5000000e-01 3.0250001e+00 2.9000000e+01 
7.5000000e-01 3.0250001e+00 2.9500000e+01 
7.5000000e-01 3.0250001e+00 3.0000000e+01 
7.5000000e-01 3.0250001e+00 3.0500000e+01 
7.5000000e-01 3.0250001e+00 3.1000000e+01 
7.5000000e-01 3.0250001e+00 3.1500000e+01 
7.5000000e-01 3.0250001e+00 3.2000000e+01 
7.5000000e-01 3.0250001e+00 3.2500000e+01 
7.5000000e-01 3.0250001e+00 3.3000000e+01 
7.5000000e-01 3.0250001e+00 3.3500000e+01 
7.5000000e-01 3.0250001e+00 3.4000000e+01 
7.5000000e-01 3.0250001e+00 3.4500000e+01 
7.5000000e-01 3.0250001e+00 3.5000000e+01 
7.5000000e-01 3.0250001e+00 3.5500000e+01 
7.5000000e-01 3.0250001e+00 3.6000000e+01 
7.5000000e-01 3.0250001e+00 3.6500000e+01 
7.5000000e-01 3.0250001e+00 3.7000000e+01 
7.5000000e-01 3.0250001e+00 3.7500000e+01 
7.5000000e-01 3.0250001e+00 3.8000000e+01 
7.5000000e-01 3.0250001e+00 3.8500000e+01 
7.5000000e-01 3.0250001e+00 3.9000000e+01 
7.5000000e-01 3.0250001e+00 3.9500000e+01 
7.5000000e-01 3.0250001e+00 4.0000000e+01 
7.5000000e-01 3.0250001e+00 4.0500000e+01 
7.5000000e-01 3.0250001e+00 4.1000000e+01 
7.5000000e-01 3.0250001e+00 4.1500000e+01 
7.5000000e-01 3.0250001e+00 4.2000000e+01 
7.5000000e-01 3.0250001e+00 4.2500000e+01 
7.5000000e-01 3.0250001e+00 4.3000000e+01 
7.5000000e-01 3.0250001e+00 4.3500000e+01 
7.5000000e-01 3.0250001e+00 4.4000000e+01 
7.5000000e-01 3.0250001e+00 4.4500000e+01 
7.5000000e-01 3.0250001e+00 4.5000000e+01 
7.5000000e-01 3.0250001e+00 4.5500000e+01 
7.5000000e-01 3.0250001e+00 4.6000000e+01 
7.5000000e-01 3.0250001e+00 4.6500000e+01 
7.5000000e-01 3.0250001e+00 4.7000000e+01 
7.5000000e-01 3.0250001e+00 4.7500000e+01 
7.5000000e-01 3.0250001e+00 4.8000000e+01 
7.5000000e-01 3.0250001e+00 4.8500000e+01 
7.5000000e-01 3.0250001e+00 4.9000000e+01 
7.5000000e-01 3.0250001e+00 4.9500000e+01 
7.5000000e-01 3.0250001e+00 5.0000000e+01 
3.0000000e+00 2.0000000e+00 3.6000000e+01 
8.0487806e-01 3.0000000e+00 3.6000000e+01 
0.0000000e+00 0.0000000e+00 1.0000000e+00 
0.0000000e+00 0.0000000e+00 2.0000000e+00 
0.0000000e+00 0.0000000e+00 3.0000000e+00 
0.0000000e+00 0.0000000e+00 4.0000000e+00 
0.0000000e+00 0.0000000e+00 5.0000000e+00 
0.0000000e+00 0.0000000e+00 6.0000000e+00 
0.0000000e+00 0.0000000e+00 7.0000000e+00 
0.0000000e+00 0.0000000e+00 8.0000000e+00 
[...]
POINT_DATA 1919
FIELD FieldData 3
DISPLACEMENT 3 1919  float
0.0000000e+00 0.0000000e+00 0.0000000e+00 
0.0000000e+00 0.0000000e+00 0.0000000e+00 
0.0000000e+00 0.0000000e+00 0.0000000e+00 
0.0000000e+00 0.0000000e+00 0.0000000e+00 
6.5551603e-07 -2.5469976e-06 -7.7699059e-07 
-1.9100486e-07 2.0989651e-07 -2.8105981e-07 
0.0000000e+00 1.9099229e-05 0.0000000e+00 
0.0000000e+00 6.4518745e-06 0.0000000e+00 
8.7743973e-07 1.7794071e-06 -4.3233112e-07 
-6.9485253e-07 4.9038550e-07 -1.7019585e-06 
5.4110205e-06 2.8644445e-07 -3.5331009e-06 
-1.3855228e-06 -4.1189170e-07 -2.5317290e-06 
0.0000000e+00 1.3131193e-05 0.0000000e+00 
0.0000000e+00 1.6499984e-05 0.0000000e+00 
2.2008717e-05 -9.9236804e-06 -5.3272921e-05 
1.1664033e-06 1.5786414e-05 -2.3468880e-05 
3.0595641e-06 1.1056849e-04 -3.0830528e-05 
1.4437464e-05 -2.8568464e-05 -1.2606804e-06 
0.0000000e+00 -4.6767532e-06 0.0000000e+00 
0.0000000e+00 4.2972137e-05 0.0000000e+00 
2.1639828e-05 1.0645154e-04 -3.6246751e-05 
2.0339172e-05 9.9801262e-05 -2.6435173e-05 
2.7711247e-05 1.0275868e-04 -1.4642696e-05 
2.7970544e-05 1.2145549e-04 -4.9346022e-06 
2.3483417e-05 1.4827230e-04 1.0798943e-05 
2.7155829e-05 1.6574636e-04 2.0321169e-05 
2.4554312e-05 1.6271317e-04 2.7786249e-05 
2.5191226e-05 1.4865669e-04 2.6530857e-05 
2.7912969e-05 1.4095855e-04 2.0665981e-05 
3.6362071e-05 1.4829281e-04 1.5051762e-05 
4.4613073e-05 1.6424936e-04 2.4790508e-05 
3.7842823e-05 1.7174863e-04 2.7440050e-05 
3.8919938e-05 1.5682897e-04 3.7463262e-05 
4.0988685e-05 1.2151960e-04 3.6608530e-05 
3.2530977e-05 8.6417152e-05 2.5484873e-05 
2.5419657e-05 7.6425975e-05 1.1942984e-05 
1.1145226e-05 9.3835362e-05 2.6654676e-05 
-7.7154749e-07 1.1257513e-04 2.4146661e-05 
8.5087486e-06 1.0935069e-04 2.5230576e-05 
-1.2026977e-05 8.0010221e-05 2.4868397e-05 
-4.2922551e-05 4.1619867e-05 1.7620217e-05 
-3.4450946e-05 7.4816667e-06 2.8451437e-05 
-3.2235228e-05 -4.8513459e-05 5.9982995e-05 
-4.3514370e-05 -2.0841758e-04 6.2182466e-05 
-5.1607778e-05 -5.9291360e-04 1.4821043e-04 
-6.6755223e-05 -1.3079795e-03 1.0869539e-04 
-7.8260935e-05 -2.3543998e-03 2.0354781e-04 
-1.2575857e-04 -3.5169825e-03 5.8962898e-05 
-1.9193412e-04 -4.4060419e-03 1.3003856e-04 
-2.2821849e-04 -4.5610815e-03 2.3036798e-06 
-2.1796940e-04 -4.3733548e-03 -2.5494108e-05 
-2.1292458e-04 -4.3308293e-03 -3.4817320e-05 
-1.9746351e-04 -4.5617097e-03 -1.1257132e-05 
-2.4166409e-04 -4.6484480e-03 -8.7610286e-05 
-2.3630490e-04 -4.0789652e-03 -1.7748395e-04 
-1.7560890e-04 -3.0178498e-03 -1.4060360e-04 
-1.2987640e-04 -1.9305616e-03 -2.6828150e-04 
-7.3184761e-05 -1.0319608e-03 -1.9246007e-04 
-1.5873222e-05 -3.9273594e-04 -2.1929618e-04 
3.3540775e-05 -6.0341506e-08 -1.2680684e-04 
6.0235827e-05 1.9440801e-04 -9.3222283e-05 
5.9683836e-05 2.6378551e-04 -4.6715049e-05 
5.2813954e-05 2.7876839e-04 -2.7274658e-05 
4.9780563e-05 2.8224979e-04 -1.6635009e-05 
4.1482544e-05 2.8752300e-04 -9.7553566e-06 
5.8395239e-05 2.8992188e-04 -5.7732373e-06 
6.1610139e-05 2.8604097e-04 3.8936105e-06 
6.1629071e-05 2.8232977e-04 2.3917084e-05 
6.2969215e-05 2.8977645e-04 2.1603686e-05 
7.2901545e-05 3.1350827e-04 3.0576713e-05 
8.9012559e-05 3.4068836e-04 4.3267908e-05 
8.2093975e-05 3.5282146e-04 5.0286482e-05 
6.7814421e-05 3.3106632e-04 7.5037548e-05 
3.8213326e-05 2.6854876e-04 8.6006694e-05 
1.0452045e-05 1.8086302e-04 9.2737013e-05 
5.9612767e-06 1.0421354e-04 6.9538772e-05 
1.1172462e-05 7.2297735e-05 5.6967212e-05 
1.6317690e-05 9.3734627e-05 4.0574258e-05 
2.7808170e-05 1.3939291e-04 5.5890981e-05 
2.7800197e-05 1.5965184e-04 8.1547463e-05 
1.8551022e-05 1.2980872e-04 1.0148571e-04 
1.1828443e-05 4.8192549e-05 1.2460402e-04 
-1.4464968e-05 -8.7136272e-05 1.6024262e-04 
-3.4208402e-05 -3.1963154e-04 1.4770860e-04 
-6.3092775e-05 -7.5582881e-04 2.3201198e-04 
-1.3439437e-04 -1.5131303e-03 1.3032147e-04 
-1.8438281e-04 -2.6380036e-03 2.2274583e-04 
-2.7205670e-04 -3.9403392e-03 4.5924164e-05 
-2.8762451e-04 -4.9495460e-03 2.4123141e-05 
-3.8387561e-06 -5.0811265e-03 3.1980322e-05 
-2.2786336e-04 -4.8062676e-03 7.4789961e-05 
-2.6842879e-04 -4.7155558e-03 -3.0572075e-05 
-2.9833466e-04 -4.9312226e-03 -6.2453597e-05 
-1.8166592e-04 -4.9442034e-03 -1.9089979e-04 
-2.7988577e-04 -4.1845203e-03 -3.4288596e-04 
-1.9375481e-04 -2.9766920e-03 -2.5244788e-04 
-1.1921496e-04 -1.8196326e-03 -3.2442843e-04 
-7.3332601e-05 -9.2043838e-04 -1.8164475e-04 
-2.5986499e-05 -3.4493644e-04 -1.6833974e-04 
1.3968156e-06 -4.4375138e-05 -7.1153809e-05 
1.6232008e-05 6.8370762e-05 -2.7284166e-05 
1.2400073e-05 8.0356556e-05 8.4039275e-06 
3.3375181e-06 5.5365370e-05 3.2747404e-05 
5.1121191e-07 2.5091273e-05 3.2705924e-05 
-3.0211390e-06 6.1052888e-06 3.2868011e-05 
6.0884377e-06 4.4420813e-06 3.2420918e-05 
2.0048154e-05 2.1059706e-05 3.4460147e-05 
2.2196818e-05 4.7070036e-05 4.6082645e-05 
4.4981698e-06 6.9402049e-05 2.1092266e-05 
3.1093039e-06 7.7314609e-05 4.8669922e-06 
8.4959566e-08 6.9363618e-05 -5.4283987e-06 
-2.4004389e-06 5.1024472e-05 -6.1308233e-06 
8.5089727e-07 2.7963448e-05 4.4747480e-06 
-7.2541516e-06 3.6727236e-06 7.4434538e-06 
-1.5231437e-05 -1.9330977e-05 1.9120187e-06 
-1.0154857e-05 -3.6581896e-05 -1.4470050e-05 
-7.2211355e-06 -4.3223128e-05 -3.2766919e-05 
-3.9013280e-06 -4.0083905e-05 -4.2145224e-05 
4.8041720e-06 -3.2404703e-05 -3.1942247e-05 
0.0000000e+00 1.1031610e-04 0.0000000e+00 
0.0000000e+00 1.0622632e-04 0.0000000e+00 
0.0000000e+00 1.0005515e-04 0.0000000e+00 
0.0000000e+00 1.0343779e-04 0.0000000e+00 
0.0000000e+00 1.2202891e-04 0.0000000e+00 
0.0000000e+00 1.4807521e-04 0.0000000e+00 
0.0000000e+00 1.6477276e-04 0.0000000e+00 
0.0000000e+00 1.6227199e-04 0.0000000e+00 
0.0000000e+00 1.4904578e-04 0.0000000e+00 
0.0000000e+00 1.4172046e-04 0.0000000e+00 
0.0000000e+00 1.4890594e-04 0.0000000e+00 
0.0000000e+00 1.6434875e-04 0.0000000e+00 
0.0000000e+00 1.7122595e-04 0.0000000e+00 
0.0000000e+00 1.5591379e-04 0.0000000e+00 
0.0000000e+00 1.2103756e-04 0.0000000e+00 
0.0000000e+00 8.7241424e-05 0.0000000e+00 
0.0000000e+00 7.7861107e-05 0.0000000e+00 
0.0000000e+00 9.4240408e-05 0.0000000e+00 
0.0000000e+00 1.1212818e-04 0.0000000e+00 
0.0000000e+00 1.0831279e-04 0.0000000e+00 
0.0000000e+00 7.9809470e-05 0.0000000e+00 
0.0000000e+00 4.2955220e-05 0.0000000e+00 
0.0000000e+00 9.9049903e-06 0.0000000e+00 
0.0000000e+00 -4.6084348e-05 0.0000000e+00 
0.0000000e+00 -2.0803021e-04 0.0000000e+00 
0.0000000e+00 -5.9750315e-04 0.0000000e+00 
0.0000000e+00 -1.3192728e-03 0.0000000e+00 
0.0000000e+00 -2.3657314e-03 0.0000000e+00 
0.0000000e+00 -3.5369960e-03 0.0000000e+00 
0.0000000e+00 -4.4261678e-03 0.0000000e+00 
0.0000000e+00 -4.5908294e-03 0.0000000e+00 
0.0000000e+00 -4.3974118e-03 0.0000000e+00 
0.0000000e+00 -4.3596146e-03 0.0000000e+00 
0.0000000e+00 -4.5830645e-03 0.0000000e+00 
0.0000000e+00 -4.6771076e-03 0.0000000e+00 
0.0000000e+00 -4.0997383e-03 0.0000000e+00 
0.0000000e+00 -3.0350131e-03 0.0000000e+00 
0.0000000e+00 -1.9375484e-03 0.0000000e+00 
0.0000000e+00 -1.0360447e-03 0.0000000e+00 
0.0000000e+00 -3.9445449e-04 0.0000000e+00 
0.0000000e+00 -8.1698363e-07 0.0000000e+00 
0.0000000e+00 1.9499980e-04 0.0000000e+00 
0.0000000e+00 2.6538744e-04 0.0000000e+00 
0.0000000e+00 2.8015921e-04 0.0000000e+00 
0.0000000e+00 2.8303231e-04 0.0000000e+00 
0.0000000e+00 2.8770656e-04 0.0000000e+00 
0.0000000e+00 2.8987133e-04 0.0000000e+00 
0.0000000e+00 2.8601752e-04 0.0000000e+00 
0.0000000e+00 2.8252805e-04 0.0000000e+00 
0.0000000e+00 2.9043938e-04 0.0000000e+00 
0.0000000e+00 3.1374351e-04 0.0000000e+00 
0.0000000e+00 3.4098819e-04 0.0000000e+00 
0.0000000e+00 3.5264299e-04 0.0000000e+00 
0.0000000e+00 3.3023127e-04 0.0000000e+00 
0.0000000e+00 2.6749549e-04 0.0000000e+00 
0.0000000e+00 1.8055915e-04 0.0000000e+00 
0.0000000e+00 1.0505317e-04 0.0000000e+00 
0.0000000e+00 7.4311749e-05 0.0000000e+00 
0.0000000e+00 9.5402458e-05 0.0000000e+00 
0.0000000e+00 1.3887184e-04 0.0000000e+00 
0.0000000e+00 1.5854038e-04 0.0000000e+00 
0.0000000e+00 1.2915373e-04 0.0000000e+00 
0.0000000e+00 4.9616512e-05 0.0000000e+00 
0.0000000e+00 -8.4104460e-05 0.0000000e+00 
0.0000000e+00 -3.1850470e-04 0.0000000e+00 
0.0000000e+00 -7.5849268e-04 0.0000000e+00 
0.0000000e+00 -1.5240840e-03 0.0000000e+00 
0.0000000e+00 -2.6532621e-03 0.0000000e+00 
0.0000000e+00 -3.9673303e-03 0.0000000e+00 
0.0000000e+00 -4.9723755e-03 0.0000000e+00 
0.0000000e+00 -5.0974153e-03 0.0000000e+00 
0.0000000e+00 -4.8311888e-03 0.0000000e+00 
0.0000000e+00 -4.7481623e-03 0.0000000e+00 
0.0000000e+00 -4.9560247e-03 0.0000000e+00 
0.0000000e+00 -4.9784570e-03 0.0000000e+00 
0.0000000e+00 -4.2006643e-03 0.0000000e+00 
0.0000000e+00 -2.9924868e-03 0.0000000e+00 
0.0000000e+00 -1.8273547e-03 0.0000000e+00 
0.0000000e+00 -9.2596869e-04 0.0000000e+00 
0.0000000e+00 -3.4643861e-04 0.0000000e+00 
0.0000000e+00 -4.3816657e-05 0.0000000e+00 
0.0000000e+00 6.9747308e-05 0.0000000e+00 
0.0000000e+00 8.1854159e-05 0.0000000e+00 
0.0000000e+00 5.6027657e-05 0.0000000e+00 
0.0000000e+00 2.5710498e-05 0.0000000e+00 
0.0000000e+00 6.5351096e-06 0.0000000e+00 
0.0000000e+00 4.9220948e-06 0.0000000e+00 
0.0000000e+00 2.1111653e-05 0.0000000e+00 
0.0000000e+00 4.6812889e-05 0.0000000e+00 
0.0000000e+00 6.8958259e-05 0.0000000e+00 
0.0000000e+00 7.7111530e-05 0.0000000e+00 
0.0000000e+00 6.9459820e-05 0.0000000e+00 
0.0000000e+00 5.1118124e-05 0.0000000e+00 
0.0000000e+00 2.7944523e-05 0.0000000e+00 
0.0000000e+00 3.5528592e-06 0.0000000e+00 
0.0000000e+00 -1.9303321e-05 0.0000000e+00 
0.0000000e+00 -3.6245434e-05 0.0000000e+00 
0.0000000e+00 -4.3001019e-05 0.0000000e+00 
0.0000000e+00 -3.9976869e-05 0.0000000e+00 
0.0000000e+00 -3.2624717e-05 0.0000000e+00 
0.0000000e+00 -2.8815981e-05 0.0000000e+00 
4.9634997e-05 -9.5189389e-05 -2.4967610e-05 
-2.9585999e-04 -4.2599454e-03 -3.0010064e-05 
0.0000000e+00 0.0000000e+00 0.0000000e+00 
0.0000000e+00 0.0000000e+00 0.0000000e+00 
0.0000000e+00 0.0000000e+00 0.0000000e+00 
0.0000000e+00 0.0000000e+00 0.0000000e+00 
0.0000000e+00 0.0000000e+00 0.0000000e+00 
0.0000000e+00 0.0000000e+00 0.0000000e+00 
0.0000000e+00 0.0000000e+00 0.0000000e+00 
0.0000000e+00 0.0000000e+00 0.0000000e+00 
0.0000000e+00 0.0000000e+00 0.0000000e+00 
0.0000000e+00 0.0000000e+00 0.0000000e+00 
0.0000000e+00 0.0000000e+00 0.0000000e+00 
0.0000000e+00 0.0000000e+00 0.0000000e+00 
0.0000000e+00 0.0000000e+00 0.0000000e+00 
0.0000000e+00 0.0000000e+00 0.0000000e+00 
0.0000000e+00 0.0000000e+00 0.0000000e+00 
0.0000000e+00 0.0000000e+00 0.0000000e+00 
0.0000000e+00 0.0000000e+00 0.0000000e+00 
0.0000000e+00 0.0000000e+00 0.0000000e+00 
0.0000000e+00 0.0000000e+00 0.0000000e+00 
0.0000000e+00 0.0000000e+00 0.0000000e+00 
0.0000000e+00 0.0000000e+00 0.0000000e+00 
0.0000000e+00 0.0000000e+00 0.0000000e+00 
0.0000000e+00 0.0000000e+00 0.0000000e+00 
0.0000000e+00 0.0000000e+00 0.0000000e+00 
0.0000000e+00 0.0000000e+00 0.0000000e+00 
0.0000000e+00 0.0000000e+00 0.0000000e+00 
0.0000000e+00 0.0000000e+00 0.0000000e+00 
0.0000000e+00 0.0000000e+00 0.0000000e+00 
0.0000000e+00 0.0000000e+00 0.0000000e+00 
0.0000000e+00 0.0000000e+00 0.0000000e+00 
0.0000000e+00 0.0000000e+00 0.0000000e+00 
0.0000000e+00 0.0000000e+00 0.0000000e+00 
0.0000000e+00 0.0000000e+00 0.0000000e+00 
0.0000000e+00 0.0000000e+00 0.0000000e+00 
0.0000000e+00 0.0000000e+00 0.0000000e+00 
0.0000000e+00 0.0000000e+00 0.0000000e+00 
0.0000000e+00 0.0000000e+00 0.0000000e+00 
0.0000000e+00 0.0000000e+00 0.0000000e+00 
0.0000000e+00 0.0000000e+00 0.0000000e+00 
0.0000000e+00 0.0000000e+00 0.0000000e+00 
0.0000000e+00 0.0000000e+00 0.0000000e+00 
0.0000000e+00 0.0000000e+00 0.0000000e+00 
0.0000000e+00 0.0000000e+00 0.0000000e+00 
0.0000000e+00 0.0000000e+00 0.0000000e+00 
0.0000000e+00 0.0000000e+00 0.0000000e+00 
0.0000000e+00 0.0000000e+00 0.0000000e+00 
0.0000000e+00 0.0000000e+00 0.0000000e+00 
0.0000000e+00 0.0000000e+00 0.0000000e+00 
0.0000000e+00 0.0000000e+00 0.0000000e+00 
0.0000000e+00 0.0000000e+00 0.0000000e+00 
0.0000000e+00 0.0000000e+00 0.0000000e+00 
0.0000000e+00 0.0000000e+00 0.0000000e+00 
0.0000000e+00 0.0000000e+00 0.0000000e+00 
0.0000000e+00 0.0000000e+00 0.0000000e+00 
0.0000000e+00 0.0000000e+00 0.0000000e+00 
0.0000000e+00 0.0000000e+00 0.0000000e+00 
0.0000000e+00 0.0000000e+00 0.0000000e+00 
0.0000000e+00 0.0000000e+00 0.0000000e+00 
0.0000000e+00 0.0000000e+00 0.0000000e+00 
0.0000000e+00 0.0000000e+00 0.0000000e+00 
0.0000000e+00 0.0000000e+00 0.0000000e+00 
0.0000000e+00 0.0000000e+00 0.0000000e+00 
0.0000000e+00 0.0000000e+00 0.0000000e+00 
0.0000000e+00 0.0000000e+00 0.0000000e+00 
0.0000000e+00 0.0000000e+00 0.0000000e+00 
0.0000000e+00 0.0000000e+00 0.0000000e+00 
0.0000000e+00 0.0000000e+00 0.0000000e+00 
0.0000000e+00 0.0000000e+00 0.0000000e+00 
0.0000000e+00 0.0000000e+00 0.0000000e+00 
0.0000000e+00 0.0000000e+00 0.0000000e+00 
0.0000000e+00 0.0000000e+00 0.0000000e+00 
0.0000000e+00 0.0000000e+00 0.0000000e+00 
0.0000000e+00 0.0000000e+00 0.0000000e+00 
0.0000000e+00 0.0000000e+00 0.0000000e+00 
0.0000000e+00 0.0000000e+00 0.0000000e+00 
0.0000000e+00 0.0000000e+00 0.0000000e+00 
0.0000000e+00 0.0000000e+00 0.0000000e+00 
0.0000000e+00 0.0000000e+00 0.0000000e+00 
0.0000000e+00 0.0000000e+00 0.0000000e+00 
0.0000000e+00 0.0000000e+00 0.0000000e+00 
0.0000000e+00 0.0000000e+00 0.0000000e+00 
0.0000000e+00 0.0000000e+00 0.0000000e+00 
0.0000000e+00 0.0000000e+00 0.0000000e+00 
0.0000000e+00 0.0000000e+00 0.0000000e+00 
0.0000000e+00 0.0000000e+00 0.0000000e+00 
0.0000000e+00 0.0000000e+00 0.0000000e+00 
0.0000000e+00 0.0000000e+00 0.0000000e+00 
0.0000000e+00 0.0000000e+00 0.0000000e+00 
0.0000000e+00 0.0000000e+00 0.0000000e+00 
0.0000000e+00 0.0000000e+00 0.0000000e+00 
0.0000000e+00 0.0000000e+00 0.0000000e+00 
0.0000000e+00 0.0000000e+00 0.0000000e+00 
0.0000000e+00 0.0000000e+00 0.0000000e+00 
0.0000000e+00 0.0000000e+00 0.0000000e+00 
0.0000000e+00 0.0000000e+00 0.0000000e+00 
0.0000000e+00 0.0000000e+00 0.0000000e+00 
0.0000000e+00 0.0000000e+00 0.0000000e+00 
0.0000000e+00 0.0000000e+00 0.0000000e+00 
0.0000000e+00 0.0000000e+00 0.0000000e+00 
0.0000000e+00 0.0000000e+00 0.0000000e+00 
0.0000000e+00 0.0000000e+00 0.0000000e+00 
0.0000000e+00 0.0000000e+00 0.0000000e+00 
0.0000000e+00 0.0000000e+00 0.0000000e+00 
0.0000000e+00 0.0000000e+00 0.0000000e+00 
0.0000000e+00 0.0000000e+00 0.0000000e+00 
0.0000000e+00 0.0000000e+00 0.0000000e+00 
-1.0512397e-06 1.0235743e-06 1.8932858e-06 
-4.0513437e-06 1.3944142e-06 1.2781003e-06 
-2.1274545e-06 1.3756083e-06 -2.4510994e-06 
1.5838850e-06 1.0949267e-06 2.2109396e-07 
-2.4865003e-06 4.1634808e-06 -1.4327544e-06 
2.0508821e-07 -4.5171578e-06 -6.7827991e-06 
3.2012611e-07 -1.5294792e-06 -6.9784292e-06 
3.7945476e-06 3.4600073e-06 -1.0707229e-05 
8.6672835e-06 -1.7549654e-06 -8.0727641e-06 
6.4207106e-06 -6.9311304e-06 -1.1954941e-05 
1.5245952e-05 -3.0740398e-06 -1.7484246e-05 
2.3085995e-05 -6.7206720e-06 -1.7476314e-05 
3.1468215e-05 -1.2940066e-05 -1.4322663e-05 
3.8454767e-05 -6.6292346e-06 -9.8056707e-06 
4.2832304e-05 -1.1325535e-05 -4.5565675e-06 
3.6116977e-05 -1.3497276e-05 6.2368281e-06 
3.2883530e-05 -1.2383214e-05 7.6505585e-06 
2.7685084e-05 -1.0965725e-05 1.2469572e-05 
1.8759420e-05 -6.8183763e-06 1.6208356e-05 
7.9529791e-06 -4.6976761e-06 1.2065937e-05 
4.8483457e-06 -6.5330005e-07 1.2489665e-05 
-4.4396288e-08 4.6793139e-06 1.5961605e-05 
-2.4653075e-06 6.2898556e-07 1.0007628e-05 
-5.1342340e-06 -3.0851069e-07 9.8109358e-06 
-3.6804943e-06 -3.7708112e-06 6.8576283e-06 
-6.8847294e-07 -2.3534658e-06 -5.1270017e-06 
9.7990117e-08 -6.8693259e-07 -6.6085945e-06 
5.8021233e-06 -5.2762093e-06 -8.0374884e-06 
1.0031805e-05 -1.3112048e-06 -7.4911341e-06 
1.3405319e-05 -1.0371315e-05 -1.0921945e-05 
2.1346512e-05 -6.0751736e-06 -1.4917129e-05 
2.8327475e-05 -5.4289944e-06 -1.8982368e-05 
3.7591984e-05 -1.1369147e-05 -1.9414294e-05 
4.3661261e-05 -1.3743403e-05 -1.4935507e-05 
4.7219117e-05 -1.1634672e-05 -9.5848636e-06 
4.3053467e-05 -1.6169099e-05 -1.1861792e-06 
3.8863829e-05 -1.2529875e-05 5.2661308e-06 
3.3328710e-05 -9.9084082e-06 1.0656651e-05 
2.3628434e-05 -7.3171614e-06 1.1814608e-05 
1.2675868e-05 -3.9918905e-06 1.3649093e-05 
7.7217710e-06 -2.6279772e-06 1.4488503e-05 
4.4237540e-06 -2.1710375e-06 1.2707958e-05 
2.3432140e-06 -1.0745770e-06 8.9478617e-06 
1.2735870e-06 -1.0166921e-06 4.4924095e-06 
-7.8878557e-08 -1.1252693e-06 2.7444310e-07 
-6.1572393e-07 1.0977052e-07 -1.0231067e-06 
-4.6805576e-07 7.1448591e-07 -1.6965095e-06 
-3.2575909e-07 6.9057501e-07 -1.2990887e-06 
-6.9572714e-08 -4.8540080e-08 -4.6962725e-07 
0.0000000e+00 1.2259738e-05 0.0000000e+00 
0.0000000e+00 2.4507919e-05 0.0000000e+00 
0.0000000e+00 2.7479100e-05 0.0000000e+00 
0.0000000e+00 1.1784179e-05 0.0000000e+00 
0.0000000e+00 5.3911394e-06 0.0000000e+00 
0.0000000e+00 4.4384678e-06 0.0000000e+00 
0.0000000e+00 -1.3998500e-05 0.0000000e+00 
0.0000000e+00 5.4864367e-06 0.0000000e+00 
0.0000000e+00 2.9751405e-05 0.0000000e+00 
0.0000000e+00 1.6334263e-05 0.0000000e+00 
0.0000000e+00 9.4046563e-06 0.0000000e+00 
0.0000000e+00 -2.0155318e-05 0.0000000e+00 
0.0000000e+00 -1.7110833e-04 0.0000000e+00 
0.0000000e+00 -3.7148889e-04 0.0000000e+00 
0.0000000e+00 -4.6794859e-04 0.0000000e+00 
0.0000000e+00 -5.3376757e-04 0.0000000e+00 
0.0000000e+00 -4.9687544e-04 0.0000000e+00 
0.0000000e+00 -4.0010264e-04 0.0000000e+00 
0.0000000e+00 -2.0234269e-04 0.0000000e+00 
0.0000000e+00 -8.6793465e-05 0.0000000e+00 
0.0000000e+00 -2.0248453e-05 0.0000000e+00 
0.0000000e+00 -2.1005133e-06 0.0000000e+00 
0.0000000e+00 1.3259452e-06 0.0000000e+00 
0.0000000e+00 7.9287156e-06 0.0000000e+00 
0.0000000e+00 5.4480752e-05 0.0000000e+00 
0.0000000e+00 5.7379817e-05 0.0000000e+00 
0.0000000e+00 4.8085913e-05 0.0000000e+00 
0.0000000e+00 1.7775006e-05 0.0000000e+00 
0.0000000e+00 4.0907100e-05 0.0000000e+00 
0.0000000e+00 2.9151457e-05 0.0000000e+00 
0.0000000e+00 -4.7269852e-05 0.0000000e+00 
0.0000000e+00 -3.2286287e-05 0.0000000e+00 
0.0000000e+00 -2.0693506e-04 0.0000000e+00 
0.0000000e+00 -4.5401673e-04 0.0000000e+00 
0.0000000e+00 -5.6302181e-04 0.0000000e+00 
0.0000000e+00 -5.8836461e-04 0.0000000e+00 
0.0000000e+00 -5.2548019e-04 0.0000000e+00 
0.0000000e+00 -3.3416357e-04 0.0000000e+00 
0.0000000e+00 -1.0495584e-04 0.0000000e+00 
0.0000000e+00 -4.0680541e-05 0.0000000e+00 
0.0000000e+00 -2.0164041e-05 0.0000000e+00 
0.0000000e+00 -1.2392661e-05 0.0000000e+00 
0.0000000e+00 1.0642309e-06 0.0000000e+00 
0.0000000e+00 1.1681659e-05 0.0000000e+00 
0.0000000e+00 1.6054759e-05 0.0000000e+00 
0.0000000e+00 1.5763555e-05 0.0000000e+00 
0.0000000e+00 1.9126469e-07 0.0000000e+00 
0.0000000e+00 -1.4467996e-05 0.0000000e+00 
0.0000000e+00 -1.0116141e-05 0.0000000e+00 
-4.8590960e-07 2.9335195e-07 1.2512362e-06 
-4.2203369e-06 2.1276253e-06 6.6608623e-06 
-5.3370495e-06 5.1102857e-06 8.7561157e-06 
-9.8072962e-07 8.7713024e-06 9.6239864e-06 
-3.6589945e-08 1.9751411e-08 2.6614735e-08 
2.1736220e-07 -7.2008737e-07 1.0690143e-06 
4.4900602e-08 -3.2578183e-07 2.8350721e-06 
-6.4741147e-07 3.3248728e-06 2.4654255e-06 
3.6086303e-06 -1.5363602e-06 -1.1299306e-06 
1.4293141e-06 8.7682332e-07 -3.8090625e-06 
1.8974071e-06 2.4618162e-06 -3.3364904e-06 
1.2320652e-06 -1.6142860e-06 8.8460393e-07 
1.2653949e-06 4.5731254e-06 -3.5601734e-06 
8.0745695e-06 -9.1514803e-06 -3.1779573e-06 
9.7849415e-06 -1.7222628e-06 -9.0853619e-06 
9.0035583e-06 3.8289231e-06 -1.3370615e-05 
1.1370656e-05 -8.1873095e-06 -1.7176271e-05 
1.6978789e-05 -5.4442256e-07 -1.5786471e-05 
2.2349956e-05 -4.4957774e-06 -1.5479256e-05 
2.6451784e-05 -1.1929299e-05 -1.7629714e-05 
3.7588692e-05 -8.4442981e-06 -1.9348885e-05 
3.5617348e-05 -6.6499679e-06 -1.4559470e-05 
3.3366301e-05 -9.3000817e-06 -8.0965538e-06 
3.8829436e-05 -6.4288506e-06 6.6677426e-06 
3.1702089e-05 -7.7642690e-06 1.5922713e-05 
1.8373325e-05 -1.2155625e-05 1.4901671e-05 
1.2846385e-05 -5.3828271e-06 1.6335882e-05 
2.7131359e-06 -5.2836504e-06 1.2444269e-05 
3.5266705e-06 -3.1484055e-06 1.1617917e-05 
2.6601012e-06 5.9181530e-06 1.5750174e-05 