# vtk DataFile Version 4.0
vtk output
ASCII
DATASET UNSTRUCTURED_GRID
POINTS 1919 float
0.0000000e+00 0.0000000e+00 0.0000000e+00 
0.0000000e+00 0.0000000e+00 5.0000000e+01 
5.0000000e+00 0.0000000e+00 0.0000000e+00 
5.0000000e+00 0.0000000e+00 5.0000000e+01 
5.0000000e+00 1.0000000e+00 0.0000000e+00 
5.0000000e+00 1.0000000e+00 5.0000000e+01 
0.0000000e+00 1.0000000e+00 0.0000000e+00 
0.0000000e+00 1.0000000e+00 5.0000000e+01 
5.0000000e+00 2.0000000e+00 0.0000000e+00 
5.0000000e+00 2.0000000e+00 5.0000000e+01 
3.0000000e+00 2.0000000e+00 0.0000000e+00 
3.0000000e+00 2.0000000e+00 5.0000000e+01 
0.0000000e+00 2.0000000e+00 0.0000000e+00 
0.0000000e+00 2.0000000e+00 5.0000000e+01 
1.5000000e+00 3.0000000e+00 0.0000000e+00 
1.5000000e+00 3.0000000e+00 5.0000000e+01 
7.5000000e-01 3.0000000e+00 0.0000000e+00 
7.5000000e-01 3.0000000e+00 5.0000000e+01 
0.0000000e+00 3.0000000e+00 0.0000000e+00 
0.0000000e+00 3.0000000e+00 5.0000000e+01 
7.5000000e-01 3.0000000e+00 5.0000000e-01 
7.5000000e-01 3.0000000e+00 1.0000000e+00 
7.5000000e-01 3.0000000e+00 1.5000000e+00 
7.5000000e-01 3.0000000e+00 2.0000000e+00 
7.5000000e-01 3.0000000e+00 2.5000000e+00 
7.5000000e-01 3.0000000e+00 3.0000000e+00 
7.5000000e-01 3.0000000e+00 3.5000000e+00 
7.5000000e-01 3.0000000e+00 4.0000000e+00 
7.5000000e-01 3.0000000e+00 4.5000000e+00 
7.5000000e-01 3.0000000e+00 5.0000000e+00 
7.5000000e-01 3.0000000e+00 5.5000000e+00 
7.5000000e-01 3.0000000e+00 6.0000000e+00 
7.5000000e-01 3.0000000e+00 6.5000000e+00 
7.5000000e-01 3.0000000e+00 7.0000000e+00 
7.5000000e-01 3.0000000e+00 7.5000000e+00 
7.5000000e-01 3.0000000e+00 8.0000000e+00 
7.5000000e-01 3.0000000e+00 8.5000000e+00 
7.5000000e-01 3.0000000e+00 9.0000000e+00 
7.5000000e-01 3.0000000e+00 9.5000000e+00 
7.5000000e-01 3.0000000e+00 1.0000000e+01 
7.5000000e-01 3.0000000e+00 1.0500000e+01 
7.5000000e-01 3.0000000e+00 1.1000000e+01 
7.5000000e-01 3.0000000e+00 1.1500000e+01 
7.5000000e-01 3.0000000e+00 1.2000000e+01 
7.5000000e-01 3.0000000e+00 1.2500000e+01 
7.5000000e-01 3.0000000e+00 1.3000000e+01 
7.5000000e-01 3.0000000e+00 1.3500000e+01 
7.5000000e-01 3.0000000e+00 1.4000000e+01 
7.5000000e-01 3.0000000e+00 1.4500000e+01 
7.5000000e-01 3.0000000e+00 1.5000000e+01 
7.5000000e-01 3.0000000e+00 1.5500000e+01 
7.5000000e-01 3.0000000e+00 1.6000000e+01 
7.5000000e-01 3.0000000e+00 1.6500000e+01 
7.5000000e-01 3.0000000e+00 1.7000000e+01 
7.5000000e-01 3.0000000e+00 1.7500000e+01 
7.5000000e-01 3.0000000e+00 1.8000000e+01 
7.5000000e-01 3.0000000e+00 1.8500000e+01 
7.5000000e-01 3.0000000e+00 1.9000000e+01 
7.5000000e-01 3.0000000e+00 1.9500000e+01 
7.5000000e-01 3.0000000e+00 2.0000000e+01 
7.5000000e-01 3.0000000e+00 2.0500000e+01 
7.5000000e-01 3.0000000e+00 2.1000000e+01 
7.5000000e-01 3.0000000e+00 2.1500000e+01 
7.5000000e-01 3.0000000e+00 2.2000000e+01 
7.5000000e-01 3.0000000e+00 2.2500000e+01 
7.5000000e-01 3.0000000e+00 2.3000000e+01 
7.5000000e-01 3.0000000e+00 2.3500000e+01 
7.5000000e-01 3.0000000e+00 2.4000000e+01 
7.5000000e-01 3.0000000e+00 2.4500000e+01 
7.5000000e-01 3.0000000e+00 2.5000000e+01 
7.5000000e-01 3.0000000e+00 2.5500000e+01 
7.5000000e-01 3.0000000e+00 2.6000000e+01 
7.5000000e-01 3.0000000e+00 2.6500000e+01 
7.5000000e-01 3.0000000e+00 2.7000000e+01 
7.5000000e-01 3.0000000e+00 2.7500000e+01 
7.5000000e-01 3.0000000e+00 2.8000000e+01 
7.5000000e-01 3.0000000e+00 2.8500000e+01 
7.5000000e-01 3.0000000e+00 2.9000000e+01 
7.5000000e-01 3.0000000e+00 2.9500000e+01 
7.5000000e-01 3.0000000e+00 3.0000000e+01 
7.5000000e-01 3.0000000e+00 3.0500000e+01 
7.5000000e-01 3.0000000e+00 3.1000000e+01 
7.5000000e-01 3.0000000e+00 3.1500000e+01 
7.5000000e-01 3.0000000e+00 3.2000000e+01 
7.5000000e-01 3.0000000e+00 3.2500000e+01 
7.5000000e-01 3.0000000e+00 3.3000000e+01 
7.5000000e-01 3.0000000e+00 3.3500000e+01 
7.5000000e-01 3.0000000e+00 3.4000000e+01 
7.5000000e-01 3.0000000e+00 3.4500000e+01 
7.5000000e-01 3.0000000e+00 3.5000000e+01 
7.5000000e-01 3.0000000e+00 3.5500000e+01 
7.5000000e-01 3.0000000e+00 3.6000000e+01 
7.5000000e-01 3.0000000e+00 3.6500000e+01 
7.5000000e-01 3.0000000e+00 3.7000000e+01 
7.5000000e-01 3.0000000e+00 3.7500000e+01 
7.5000000e-01 3.0000000e+00 3.8000000e+01 
7.5000000e-01 3.0000000e+00 3.8500000e+01 
7.5000000e-01 3.0000000e+00 3.9000000e+01 
7.5000000e-01 3.0000000e+00 3.9500000e+01 
7.5000000e-01 3.0000000e+00 4.0000000e+01 
7.5000000e-01 3.0000000e+00 4.0500000e+01 
7.5000000e-01 3.0000000e+00 4.1000000e+01 
7.5000000e-01 3.0000000e+00 4.1500000e+01 
7.5000000e-01 3.0000000e+00 4.2000000e+01 
7.5000000e-01 3.0000000e+00 4.2500000e+01 
7.5000000e-01 3.0000000e+00 4.3000000e+01 
7.5000000e-01 3.0000000e+00 4.3500000e+01 
7.5000000e-01 3.0000000e+00 4.4000000e+01 
7.5000000e-01 3.0000000e+00 4.4500000e+01 
7.5000000e-01 3.0000000e+00 4.5000000e+01 
7.5000000e-01 3.0000000e+00 4.5500000e+01 
7.5000000e-01 3.0000000e+00 4.6000000e+01 
7.5000000e-01 3.0000000e+00 4.6500000e+01 
7.5000000e-01 3.0000000e+00 4.7000000e+01 
7.5000000e-01 3.0000000e+00 4.7500000e+01 
7.5000000e-01 3.0000000e+00 4.8000000e+01 
7.5000000e-01 3.0000000e+00 4.8500000e+01 
7.5000000e-01 3.0000000e+00 4.9000000e+01 
7.5000000e-01 3.0000000e+00 4.9500000e+01 
7.5000000e-01 3.0250001e+00 0.0000000e+00 
7.5000000e-01 3.0250001e+00 5.0000000e-01 
7.5000000e-01 3.0250001e+00 1.0000000e+00 
7.5000000e-01 3.0250001e+00 1.5000000e+00 
7.5000000e-01 3.0250001e+00 2.0000000e+00 
7.5000000e-01 3.0250001e+00 2.5000000e+00 
7.5000000e-01 3.0250001e+00 3.0000000e+00 
7.5000000e-01 3.0250001e+00 3.5000000e+00 
7.5000000e-01 3.0250001e+00 4.0000000e+00 
7.5000000e-01 3.0250001e+00 4.5000000e+00 
7.5000000e-01 3.0250001e+00 5.0000000e+00 
7.5000000e-01 3.0250001e+00 5.5000000e+00 
7.5000000e-01 3.0250001e+00 6.0000000e+00 
7.5000000e-01 3.0250001e+00 6.5000000e+00 
7.5000000e-01 3.0250001e+00 7.0000000e+00 
7.5000000e-01 3.0250001e+00 7.5000000e+00 
7.5000000e-01 3.0250001e+00 8.0000000e+00 
7.5000000e-01 3.0250001e+00 8.5000000e+00 
7.5000000e-01 3.0250001e+00 9.0000000e+00 
7.5000000e-01 3.0250001e+00 9.5000000e+00 
7.5000000e-01 3.0250001e+00 1.0000000e+01 
7.5000000e-01 3.0250001e+00 1.0500000e+01 
7.5000000e-01 3.0250001e+00 1.1000000e+01 
7.5000000e-01 3.0250001e+00 1.1500000e+01 
7.5000000e-01 3.0250001e+00 1.2000000e+01 
7.5000000e-01 3.0250001e+00 1.2500000e+01 
7.5000000e-01 3.0250001e+00 1.3000000e+01 
7.5000000e-01 3.0250001e+00 1.3500000e+01 
7.5000000e-01 3.0250001e+00 1.4000000e+01 
7.5000000e-01 3.0250001e+00 1.4500000e+01 
7.5000000e-01 3.0250001e+00 1.5000000e+01 
7.5000000e-01 3.0250001e+00 1.5500000e+01 
7.5000000e-01 3.0250001e+00 1.6000000e+01 
7.5000000e-01 3.0250001e+00 1.6500000e+01 
7.5000000e-01 3.0250001e+00 1.7000000e+01 
7.5000000e-01 3.0250001e+00 1.7500000e+01 
7.5000000e-01 3.0250001e+00 1.8000000e+01 
7.5000000e-01 3.0250001e+00 1.8500000e+01 
7.5000000e-01 3.0250001e+00 1.9000000e+01 
7.5000000e-01 3.0250001e+00 1.9500000e+01 
7.5000000e-01 3.0250001e+00 2.0000000e+01 
7.5000000e-01 3.0250001e+00 2.0500000e+01 
7.5000000e-01 3.0250001e+00 2.1000000e+01 
7.5000000e-01 3.0250001e+00 2.1500000e+01 
7.5000000e-01 3.0250001e+00 2.2000000e+01 
7.5000000e-01 3.0250001e+00 2.2500000e+01 
7.5000000e-01 3.0250001e+00 2.3000000e+01 
7.5000000e-01 3.0250001e+00 2.3500000e+01 
7.5000000e-01 3.0250001e+00 2.4000000e+01 
7.5000000e-01 3.0250001e+00 2.4500000e+01 
7.5000000e-01 3.0250001e+00 2.5000000e+01 
7.5000000e-01 3.0250001e+00 2.5500000e+01 
7.5000000e-01 3.0250001e+00 2.6000000e+01 
7.5000000e-01 3.0250001e+00 2.6500000e+01 
7.5000000e-01 3.0250001e+00 2.7000000e+01 
7.5000000e-01 3.0250001e+00 2.7500000e+01 
7.5000000e-01 3.0250001e+00 2.8000000e+01 
7.5000000e-01 3.0250001e+00 2.8500000e+01 
7.5000000e-01 3.0250001e+00 2.9000000e+01 
7.5000000e-01 3.0250001e+00 2.9500000e+01 
7.5000000e-01 3.0250001e+00 3.0000000e+01 
7.5000000e-01 3.0250001e+00 3.0500000e+01 
7.5000000e-01 3.0250001e+00 3.1000000e+01 
7.5000000e-01 3.0250001e+00 3.1500000e+01 
7.5000000e-01 3.0250001e+00 3.2000000e+01 
7.5000000e-01 3.0250001e+00 3.2500000e+01 
7.5000000e-01 3.0250001e+00 3.3000000e+01 
7.5000000e-01 3.0250001e+00 3.3500000e+01 
7.5000000e-01 3.0250001e+00 3.4000000e+01 
7.5000000e-01 3.0250001e+00 3.4500000e+01 
7.5000000e-01 3.0250001e+00 3.5000000e+01 
7.5000000e-01 3.0250001e+00 3.5500000e+01 
7.5000000e-01 3.0250001e+00 3.6000000e+01 
7.5000000e-01 3.0250001e+00 3.6500000e+01 
7.5000000e-01 3.0250001e+00 3.7000000e+01 
7.5000000e-01 3.0250001e+00 3.7500000e+01 
7.5000000e-01 3.0250001e+00 3.8000000e+01 
7.5000000e-01 3.0250001e+00 3.8500000e+01 
7.5000000e-01 3.0250001e+00 3.9000000e+01 
7.5000000e-01 3.0250001e+00 3.9500000e+01 
7.5000000e-01 3.0250001e+00 4.0000000e+01 
7.5000000e-01 3.0250001e+00 4.0500000e+01 
7.5000000e-01 3.0250001e+00 4.1000000e+01 
7.5000000e-01 3.0250001e+00 4.1500000e+01 
7.5000000e-01 3.0250001e+00 4.2000000e+01 
7.5000000e-01 3.0250001e+00 4.2500000e+01 
7.5000000e-01 3.0250001e+00 4.3000000e+01 
7.5000000e-01 3.0250001e+00 4.3500000e+01 
7.5000000e-01 3.0250001e+00 4.4000000e+01 
7.5000000e-01 3.0250001e+00 4.4500000e+01 
7.5000000e-01 3.0250001e+00 4.5000000e+01 
7.5000000e-01 3.0250001e+00 4.5500000e+01 
7.5000000e-01 3.0250001e+00 4.6000000e+01 
7.5000000e-01 3.0250001e+00 4.6500000e+01 
7.5000000e-01 3.0250001e+00 4.7000000e+01 
7.5000000e-01 3.0250001e+00 4.7500000e+01 
7.5000000e-01 3.0250001e+00 4.8000000e+01 
7.5000000e-01 3.0250001e+00 4.8500000e+01 
7.5000000e-01 3.0250001e+00 4.9000000e+01 
7.5000000e-01 3.0250001e+00 4.9500000e+01 
7.5000000e-01 3.0250001e+00 5.0000000e+01 
3.0000000e+00 2.0000000e+00 3.6000000e+01 
8.0487806e-01 3.0000000e+00 3.6000000e+01 
0.0000000e+00 0.0000000e+00 1.0000000e+00 
0.0000000e+00 0.0000000e+00 2.0000000e+00 
0.0000000e+00 0.0000000e+00 3.0000000e+00 
0.0000000e+00 0.0000000e+00 4.0000000e+00 
0.0000000e+00 0.0000000e+00 5.0000000e+00 
0.0000000e+00 0.0000000e+00 6.0000000e+00 
0.0000000e+00 0.0000000e+00 7.0000000e+00 
0.0000000e+00 0.0000000e+00 8.0000000e+00 
[...]
POINT_DATA 1919
FIELD FieldData 3
DISPLACEMENT 3 1919  float
0.0000000e+00 0.0000000e+00 0.0000000e+00 
0.0000000e+00 0.0000000e+00 0.0000000e+00 
0.0000000e+00 0.0000000e+00 0.0000000e+00 
0.0000000e+00 0.0000000e+00 0.0000000e+00 
-6.9147364e-07 2.1308460e-07 1.0400190e-06 
2.7583343e-07 -1.7285193e-07 9.2773377e-08 
0.0000000e+00 2.2507455e-05 0.0000000e+00 
0.0000000e+00 2.9944135e-07 0.0000000e+00 
6.4497050e-07 -7.2881608e-06 -5.8011378e-06 
3.4022963e-07 1.9703768e-07 -1.2580462e-07 
2.6355031e-06 -4.0164709e-06 -5.5426153e-06 
-5.3426851e-07 -3.7858797e-07 1.8103404e-06 
0.0000000e+00 5.6129724e-05 0.0000000e+00 
0.0000000e+00 5.9268172e-07 0.0000000e+00 
9.4397355e-06 -1.6124017e-05 -3.9742175e-05 
9.6517772e-07 -6.7152956e-07 7.9249372e-07 
5.7629404e-06 1.2354203e-05 -3.9758728e-05 
2.0962605e-06 8.7123253e-06 1.1068188e-06 
0.0000000e+00 4.6106790e-05 0.0000000e+00 
0.0000000e+00 -2.1200094e-06 0.0000000e+00 
2.4628414e-05 3.4620807e-05 -3.0028339e-05 
2.6711603e-05 8.5520820e-05 -1.6833479e-05 
2.5292456e-05 1.3399297e-04 -1.1391486e-05 
3.6567821e-05 1.5620072e-04 -1.2512879e-05 
3.4993773e-05 1.5136800e-04 -2.3067358e-05 
4.4923559e-05 1.4555300e-04 -1.1715318e-06 
6.1933497e-05 1.6237325e-04 1.4367488e-05 
3.8775983e-05 1.9878443e-04 3.1418080e-05 
1.9837307e-05 2.2788442e-04 4.7765287e-05 
2.3716771e-05 2.3031489e-04 4.1657080e-05 
1.8546772e-05 2.1052107e-04 3.9340011e-05 
3.2766529e-05 1.9092360e-04 4.1422012e-05 
4.4379081e-05 2.0119648e-04 3.8621583e-05 
3.1502423e-05 2.5411687e-04 5.0414645e-05 
4.0888695e-05 3.0861751e-04 8.6600674e-05 
3.2091699e-05 2.7098836e-04 1.1602198e-04 
1.5500123e-05 4.8818849e-05 1.8466616e-04 
-1.1778156e-05 -4.1471780e-04 2.0773242e-04 
-6.5938300e-05 -1.1389252e-03 3.2673616e-04 
-1.2795109e-04 -2.0978756e-03 2.2758517e-04 
-1.7046886e-04 -3.2481465e-03 3.4634693e-04 
-3.0392632e-04 -4.3753781e-03 9.0250833e-05 
-3.4414916e-04 -5.0729266e-03 3.6526377e-05 
-3.4651050e-04 -5.0196387e-03 -2.8064931e-05 
-3.2069313e-04 -4.8037078e-03 -1.0402458e-04 
-2.6522161e-04 -4.7291499e-03 -1.2482013e-04 
-2.8718688e-04 -4.7653448e-03 -1.2671197e-04 
-2.8291071e-04 -4.4306484e-03 -1.8568547e-04 
-2.2756775e-04 -3.4351773e-03 -3.3379483e-04 
-1.7204753e-04 -2.2295841e-03 -2.4186187e-04 
-1.2546864e-04 -1.2264005e-03 -2.9263634e-04 
-9.1067821e-05 -5.3377385e-04 -1.6504197e-04 
-3.3817396e-05 -1.2544799e-04 -1.5293535e-04 
-1.7735456e-05 8.1215483e-05 -9.3051072e-05 
-1.5768542e-06 1.5905315e-04 -5.8986225e-05 
1.5677912e-05 1.6078060e-04 -4.1299798e-05 
8.2254464e-06 1.2646175e-04 -3.4973957e-05 
3.3161701e-05 8.0084188e-05 -3.5421224e-05 
5.5072298e-05 3.9328101e-05 -1.0562658e-05 
5.9153532e-05 1.4857354e-05 1.8464314e-05 
4.8705188e-05 1.4124058e-05 2.8489147e-05 
2.5177784e-05 4.3266005e-05 2.5148222e-05 
-6.2676484e-08 9.8725875e-05 -4.6366904e-06 
2.1424705e-05 1.6292346e-04 -4.2614229e-05 
2.0087184e-05 2.1681581e-04 -7.3716990e-05 
4.3668908e-05 2.4699539e-04 -7.2525108e-05 
4.4568045e-05 2.5850153e-04 -6.9930444e-05 
4.4703233e-05 2.7429670e-04 -3.9010418e-05 
4.3578886e-05 3.0154950e-04 -1.1146262e-05 
5.7123161e-05 3.3060639e-04 7.9223782e-06 
6.7780209e-05 3.4606256e-04 2.9654546e-05 
6.1893217e-05 3.4029639e-04 3.6751760e-05 
5.2184296e-05 3.2713849e-04 5.2583040e-05 
4.3801974e-05 3.2542771e-04 9.1113245e-05 
3.7505604e-05 3.2517730e-04 1.4416015e-04 
1.3764529e-05 2.7260077e-04 1.7996684e-04 
1.6972097e-05 6.1876293e-05 2.5919042e-04 
-1.5352356e-05 -4.2801298e-04 2.5273077e-04 
-6.1526138e-05 -1.2534695e-03 3.5073614e-04 
-1.6771576e-04 -2.3490873e-03 2.4821496e-04 
-2.2062287e-04 -3.5723902e-03 3.6339901e-04 
-3.2054857e-04 -4.5727063e-03 1.6146696e-04 
-3.3371875e-04 -4.9859541e-03 1.2932587e-04 
-3.3060266e-04 -4.8616491e-03 5.6991885e-05 
-3.6244569e-04 -4.7722314e-03 -4.9678394e-05 
-3.7328043e-04 -4.8546186e-03 -1.1008879e-04 
-3.6029276e-04 -4.8974873e-03 -1.5996837e-04 
-3.1348105e-04 -4.3580481e-03 -2.1372086e-04 
-2.6874503e-04 -3.2829356e-03 -3.9389802e-04 
-3.5362664e-05 -2.1114678e-03 -5.1518204e-04 
-8.1788625e-05 -1.1272295e-03 -3.6681769e-04 
-4.3485816e-05 -4.3100704e-04 -2.5515963e-04 
1.0948198e-05 -1.6597125e-05 -2.0906984e-04 
4.0632345e-05 1.7147623e-04 -1.0320583e-04 
5.0804938e-05 2.0162600e-04 -3.4477722e-05 
4.2401578e-05 1.4963902e-04 1.7444558e-05 
3.1989017e-05 7.8264740e-05 4.7551806e-05 
1.2040853e-05 1.8447319e-05 5.0798568e-05 
-2.7260666e-07 -2.1435755e-05 6.4383581e-05 
2.1539618e-06 -4.3677494e-05 6.8252244e-05 
-9.1364764e-06 -4.8909580e-05 5.9450875e-05 
-1.3907929e-05 -3.7711161e-05 3.8039896e-05 
-1.4708463e-05 -1.3267968e-05 4.0051359e-06 
-1.3551585e-05 1.4218695e-05 -1.9625983e-05 
-4.1688281e-06 3.4561730e-05 -3.2739306e-05 
3.7395198e-06 4.2622029e-05 -3.0199370e-05 
4.7012063e-06 3.8461738e-05 -1.6468824e-05 
5.2194532e-06 2.6720238e-05 2.5074542e-06 
5.5592382e-06 1.1753858e-05 1.1847899e-05 
2.6839421e-06 -3.3306119e-06 9.5148935e-06 
1.3527007e-06 -1.5570144e-05 6.6207399e-06 
2.9009541e-07 -2.2042939e-05 2.3610037e-06 
-1.6317722e-06 -2.0939657e-05 -1.3359044e-06 
-2.1248136e-06 -1.4283740e-05 -2.4518872e-06 
-4.2341476e-06 -5.7426059e-06 -2.4475023e-06 
-3.0080209e-06 1.3607178e-06 -1.7689154e-06 
-2.0311695e-06 5.6415302e-06 -3.0169472e-06 
-1.1032450e-06 7.7172836e-06 -1.9900840e-06 
6.5222127e-07 8.5227439e-06 3.5036092e-09 
0.0000000e+00 1.3078160e-05 0.0000000e+00 
0.0000000e+00 3.5102101e-05 0.0000000e+00 
0.0000000e+00 8.5383013e-05 0.0000000e+00 
0.0000000e+00 1.3322907e-04 0.0000000e+00 
0.0000000e+00 1.5509409e-04 0.0000000e+00 
0.0000000e+00 1.5124281e-04 0.0000000e+00 
0.0000000e+00 1.4642547e-04 0.0000000e+00 
0.0000000e+00 1.6350340e-04 0.0000000e+00 
0.0000000e+00 1.9879491e-04 0.0000000e+00 
0.0000000e+00 2.2716861e-04 0.0000000e+00 
0.0000000e+00 2.2964466e-04 0.0000000e+00 
0.0000000e+00 2.0989278e-04 0.0000000e+00 
0.0000000e+00 1.9117857e-04 0.0000000e+00 
0.0000000e+00 2.0346430e-04 0.0000000e+00 
0.0000000e+00 2.5697282e-04 0.0000000e+00 
0.0000000e+00 3.0962777e-04 0.0000000e+00 
0.0000000e+00 2.7017129e-04 0.0000000e+00 
0.0000000e+00 4.6489909e-05 0.0000000e+00 
0.0000000e+00 -4.1806803e-04 0.0000000e+00 
0.0000000e+00 -1.1408152e-03 0.0000000e+00 
0.0000000e+00 -2.1066831e-03 0.0000000e+00 
0.0000000e+00 -3.2628512e-03 0.0000000e+00 
0.0000000e+00 -4.4046571e-03 0.0000000e+00 
0.0000000e+00 -5.0969198e-03 0.0000000e+00 
0.0000000e+00 -5.0510489e-03 0.0000000e+00 
0.0000000e+00 -4.8219161e-03 0.0000000e+00 
0.0000000e+00 -4.7558704e-03 0.0000000e+00 
0.0000000e+00 -4.7881729e-03 0.0000000e+00 
0.0000000e+00 -4.4585569e-03 0.0000000e+00 
0.0000000e+00 -3.4532365e-03 0.0000000e+00 
0.0000000e+00 -2.2443696e-03 0.0000000e+00 
0.0000000e+00 -1.2323695e-03 0.0000000e+00 
0.0000000e+00 -5.3584785e-04 0.0000000e+00 
0.0000000e+00 -1.2500513e-04 0.0000000e+00 
0.0000000e+00 8.1986822e-05 0.0000000e+00 
0.0000000e+00 1.5980269e-04 0.0000000e+00 
0.0000000e+00 1.6201141e-04 0.0000000e+00 
0.0000000e+00 1.2710327e-04 0.0000000e+00 
0.0000000e+00 8.0387057e-05 0.0000000e+00 
0.0000000e+00 3.9240364e-05 0.0000000e+00 
0.0000000e+00 1.4732610e-05 0.0000000e+00 
0.0000000e+00 1.4669577e-05 0.0000000e+00 
0.0000000e+00 4.4234199e-05 0.0000000e+00 
0.0000000e+00 9.9153382e-05 0.0000000e+00 
0.0000000e+00 1.6288814e-04 0.0000000e+00 
0.0000000e+00 2.1580394e-04 0.0000000e+00 
0.0000000e+00 2.4580414e-04 0.0000000e+00 
0.0000000e+00 2.5907767e-04 0.0000000e+00 
0.0000000e+00 2.7529959e-04 0.0000000e+00 
0.0000000e+00 3.0242646e-04 0.0000000e+00 
0.0000000e+00 3.3075956e-04 0.0000000e+00 
0.0000000e+00 3.4504835e-04 0.0000000e+00 
0.0000000e+00 3.3973251e-04 0.0000000e+00 
0.0000000e+00 3.2809033e-04 0.0000000e+00 
0.0000000e+00 3.2741603e-04 0.0000000e+00 
0.0000000e+00 3.2823277e-04 0.0000000e+00 
0.0000000e+00 2.7432202e-04 0.0000000e+00 
0.0000000e+00 5.9405687e-05 0.0000000e+00 
0.0000000e+00 -4.3422758e-04 0.0000000e+00 
0.0000000e+00 -1.2592118e-03 0.0000000e+00 
0.0000000e+00 -2.3610769e-03 0.0000000e+00 
0.0000000e+00 -3.5841493e-03 0.0000000e+00 
0.0000000e+00 -4.6010008e-03 0.0000000e+00 
0.0000000e+00 -5.0107250e-03 0.0000000e+00 
0.0000000e+00 -4.8941518e-03 0.0000000e+00 
0.0000000e+00 -4.7914754e-03 0.0000000e+00 
0.0000000e+00 -4.8815655e-03 0.0000000e+00 
0.0000000e+00 -4.9171168e-03 0.0000000e+00 
0.0000000e+00 -4.3871049e-03 0.0000000e+00 
0.0000000e+00 -3.3003599e-03 0.0000000e+00 
0.0000000e+00 -2.1193128e-03 0.0000000e+00 
0.0000000e+00 -1.1321198e-03 0.0000000e+00 
0.0000000e+00 -4.3390991e-04 0.0000000e+00 
0.0000000e+00 -1.7329710e-05 0.0000000e+00 
0.0000000e+00 1.7160582e-04 0.0000000e+00 
0.0000000e+00 2.0270092e-04 0.0000000e+00 
0.0000000e+00 1.5132694e-04 0.0000000e+00 
0.0000000e+00 7.9234895e-05 0.0000000e+00 
0.0000000e+00 1.8768193e-05 0.0000000e+00 
0.0000000e+00 -2.1536638e-05 0.0000000e+00 
0.0000000e+00 -4.3566070e-05 0.0000000e+00 
0.0000000e+00 -4.8702983e-05 0.0000000e+00 
0.0000000e+00 -3.7420781e-05 0.0000000e+00 
0.0000000e+00 -1.3362723e-05 0.0000000e+00 
0.0000000e+00 1.3937508e-05 0.0000000e+00 
0.0000000e+00 3.4356122e-05 0.0000000e+00 
0.0000000e+00 4.2449265e-05 0.0000000e+00 
0.0000000e+00 3.8479575e-05 0.0000000e+00 
0.0000000e+00 2.6760241e-05 0.0000000e+00 
0.0000000e+00 1.1746002e-05 0.0000000e+00 
0.0000000e+00 -3.3112474e-06 0.0000000e+00 
0.0000000e+00 -1.5484717e-05 0.0000000e+00 
0.0000000e+00 -2.1846514e-05 0.0000000e+00 
0.0000000e+00 -2.0880258e-05 0.0000000e+00 
0.0000000e+00 -1.4331528e-05 0.0000000e+00 
0.0000000e+00 -5.8483142e-06 0.0000000e+00 
0.0000000e+00 1.2637587e-06 0.0000000e+00 
0.0000000e+00 5.6299259e-06 0.0000000e+00 
0.0000000e+00 7.7367449e-06 0.0000000e+00 
0.0000000e+00 8.5471620e-06 0.0000000e+00 
0.0000000e+00 8.7333092e-06 0.0000000e+00 
1.4650303e-05 -1.4120883e-06 -3.6872098e-05 
-4.6852110e-05 -3.7699414e-04 -2.6956698e-04 
0.0000000e+00 0.0000000e+00 0.0000000e+00 
0.0000000e+00 0.0000000e+00 0.0000000e+00 
0.0000000e+00 0.0000000e+00 0.0000000e+00 
0.0000000e+00 0.0000000e+00 0.0000000e+00 
0.0000000e+00 0.0000000e+00 0.0000000e+00 
0.0000000e+00 0.0000000e+00 0.0000000e+00 
0.0000000e+00 0.0000000e+00 0.0000000e+00 
0.0000000e+00 0.0000000e+00 0.0000000e+00 
0.0000000e+00 0.0000000e+00 0.0000000e+00 
0.0000000e+00 0.0000000e+00 0.0000000e+00 
0.0000000e+00 0.0000000e+00 0.0000000e+00 
0.0000000e+00 0.0000000e+00 0.0000000e+00 
0.0000000e+00 0.0000000e+00 0.0000000e+00 
0.0000000e+00 0.0000000e+00 0.0000000e+00 
0.0000000e+00 0.0000000e+00 0.0000000e+00 
0.0000000e+00 0.0000000e+00 0.0000000e+00 
0.0000000e+00 0.0000000e+00 0.0000000e+00 
0.0000000e+00 0.0000000e+00 0.0000000e+00 
0.0000000e+00 0.0000000e+00 0.0000000e+00 
0.0000000e+00 0.0000000e+00 0.0000000e+00 
0.0000000e+00 0.0000000e+00 0.0000000e+00 
0.0000000e+00 0.0000000e+00 0.0000000e+00 
0.0000000e+00 0.0000000e+00 0.0000000e+00 
0.0000000e+00 0.0000000e+00 0.0000000e+00 
0.0000000e+00 0.0000000e+00 0.0000000e+00 
0.0000000e+00 0.0000000e+00 0.0000000e+00 
0.0000000e+00 0.0000000e+00 0.0000000e+00 
0.0000000e+00 0.0000000e+00 0.0000000e+00 
0.0000000e+00 0.0000000e+00 0.0000000e+00 
0.0000000e+00 0.0000000e+00 0.0000000e+00 
0.0000000e+00 0.0000000e+00 0.0000000e+00 
0.0000000e+00 0.0000000e+00 0.0000000e+00 
0.0000000e+00 0.0000000e+00 0.0000000e+00 
0.0000000e+00 0.0000000e+00 0.0000000e+00 
0.0000000e+00 0.0000000e+00 0.0000000e+00 
0.0000000e+00 0.0000000e+00 0.0000000e+00 
0.0000000e+00 0.0000000e+00 0.0000000e+00 
0.0000000e+00 0.0000000e+00 0.0000000e+00 
0.0000000e+00 0.0000000e+00 0.0000000e+00 
0.0000000e+00 0.0000000e+00 0.0000000e+00 
0.0000000e+00 0.0000000e+00 0.0000000e+00 
0.0000000e+00 0.0000000e+00 0.0000000e+00 
0.0000000e+00 0.0000000e+00 0.0000000e+00 
0.0000000e+00 0.0000000e+00 0.0000000e+00 
0.0000000e+00 0.0000000e+00 0.0000000e+00 
0.0000000e+00 0.0000000e+00 0.0000000e+00 
0.0000000e+00 0.0000000e+00 0.0000000e+00 
0.0000000e+00 0.0000000e+00 0.0000000e+00 
0.0000000e+00 0.0000000e+00 0.0000000e+00 
0.0000000e+00 0.0000000e+00 0.0000000e+00 
0.0000000e+00 0.0000000e+00 0.0000000e+00 
0.0000000e+00 0.0000000e+00 0.0000000e+00 
0.0000000e+00 0.0000000e+00 0.0000000e+00 
0.0000000e+00 0.0000000e+00 0.0000000e+00 
0.0000000e+00 0.0000000e+00 0.0000000e+00 
0.0000000e+00 0.0000000e+00 0.0000000e+00 
0.0000000e+00 0.0000000e+00 0.0000000e+00 
0.0000000e+00 0.0000000e+00 0.0000000e+00 
0.0000000e+00 0.0000000e+00 0.0000000e+00 
0.0000000e+00 0.0000000e+00 0.0000000e+00 
0.0000000e+00 0.0000000e+00 0.0000000e+00 
0.0000000e+00 0.0000000e+00 0.0000000e+00 
0.0000000e+00 0.0000000e+00 0.0000000e+00 
0.0000000e+00 0.0000000e+00 0.0000000e+00 
0.0000000e+00 0.0000000e+00 0.0000000e+00 
0.0000000e+00 0.0000000e+00 0.0000000e+00 
0.0000000e+00 0.0000000e+00 0.0000000e+00 
0.0000000e+00 0.0000000e+00 0.0000000e+00 
0.0000000e+00 0.0000000e+00 0.0000000e+00 
0.0000000e+00 0.0000000e+00 0.0000000e+00 
0.0000000e+00 0.0000000e+00 0.0000000e+00 
0.0000000e+00 0.0000000e+00 0.0000000e+00 
0.0000000e+00 0.0000000e+00 0.0000000e+00 
0.0000000e+00 0.0000000e+00 0.0000000e+00 
0.0000000e+00 0.0000000e+00 0.0000000e+00 
0.0000000e+00 0.0000000e+00 0.0000000e+00 
0.0000000e+00 0.0000000e+00 0.0000000e+00 
0.0000000e+00 0.0000000e+00 0.0000000e+00 
0.0000000e+00 0.0000000e+00 0.0000000e+00 
0.0000000e+00 0.0000000e+00 0.0000000e+00 
0.0000000e+00 0.0000000e+00 0.0000000e+00 
0.0000000e+00 0.0000000e+00 0.0000000e+00 
0.0000000e+00 0.0000000e+00 0.0000000e+00 
0.0000000e+00 0.0000000e+00 0.0000000e+00 
0.0000000e+00 0.0000000e+00 0.0000000e+00 
0.0000000e+00 0.0000000e+00 0.0000000e+00 
0.0000000e+00 0.0000000e+00 0.0000000e+00 
0.0000000e+00 0.0000000e+00 0.0000000e+00 
0.0000000e+00 0.0000000e+00 0.0000000e+00 
0.0000000e+00 0.0000000e+00 0.0000000e+00 
0.0000000e+00 0.0000000e+00 0.0000000e+00 
0.0000000e+00 0.0000000e+00 0.0000000e+00 
0.0000000e+00 0.0000000e+00 0.0000000e+00 
0.0000000e+00 0.0000000e+00 0.0000000e+00 
0.0000000e+00 0.0000000e+00 0.0000000e+00 
0.0000000e+00 0.0000000e+00 0.0000000e+00 
0.0000000e+00 0.0000000e+00 0.0000000e+00 
0.0000000e+00 0.0000000e+00 0.0000000e+00 
0.0000000e+00 0.0000000e+00 0.0000000e+00 
0.0000000e+00 0.0000000e+00 0.0000000e+00 
0.0000000e+00 0.0000000e+00 0.0000000e+00 
0.0000000e+00 0.0000000e+00 0.0000000e+00 
0.0000000e+00 0.0000000e+00 0.0000000e+00 
0.0000000e+00 0.0000000e+00 0.0000000e+00 
0.0000000e+00 0.0000000e+00 0.0000000e+00 
0.0000000e+00 0.0000000e+00 0.0000000e+00 
-1.9271447e-06 -1.8608581e-06 -2.0465020e-06 
1.3961510e-06 -6.7754149e-07 -1.5882874e-06 
1.2434385e-06 4.2155934e-06 1.7940862e-06 
-2.5945233e-06 5.7777074e-06 -4.6367177e-06 
2.7181461e-06 -6.7745841e-06 -4.6708860e-06 
4.1875696e-06 -4.0594082e-06 -6.6462057e-06 
1.0297247e-05 -4.0110849e-06 -1.1899825e-05 
2.1434353e-05 -1.4555886e-05 -1.8303097e-05 
3.4743673e-05 -1.3321842e-05 -2.1986514e-05 
4.8014248e-05 -1.0284497e-05 -1.4363985e-05 
4.8556569e-05 -1.8852614e-05 -6.8025711e-06 
4.4154844e-05 -1.7708257e-05 7.3729254e-08 
3.8893821e-05 -9.7388593e-06 -5.0409449e-07 
3.0025851e-05 -8.7990065e-06 6.4148962e-06 
1.9634039e-05 -8.3416617e-06 6.8771806e-06 
1.4550078e-05 -2.4099959e-06 4.2116758e-06 
1.1567603e-05 5.5461155e-06 7.2056569e-06 
5.5238156e-06 5.8658861e-06 8.5307756e-06 
2.6317362e-06 -3.5681924e-07 5.0426916e-06 
-1.2484443e-06 -6.0762850e-06 3.3017830e-06 
2.8155980e-06 -1.2463612e-06 2.7555222e-06 
7.0940778e-06 8.2670759e-08 4.0901928e-06 
2.0225204e-06 2.0956049e-06 9.4308398e-06 
-1.6330865e-06 3.9027923e-06 5.6182375e-06 
7.2369414e-07 -1.5615965e-06 -2.6751707e-06 
7.2806506e-06 3.6620065e-07 -4.9534297e-06 
1.5864678e-05 -1.9493614e-06 -7.0683586e-06 
2.0113521e-05 -5.2026312e-06 -4.3617956e-06 
2.6174741e-05 -1.3440524e-05 -9.7275661e-06 
4.1072177e-05 -1.1642263e-05 -1.0849235e-05 
4.8872229e-05 -1.8160503e-05 -7.8733556e-06 
5.0855066e-05 -2.4314926e-05 -2.7296437e-06 
4.4175802e-05 -1.7477352e-05 -1.5360213e-08 
3.2404208e-05 -6.8119375e-06 6.5229674e-06 
2.1886854e-05 -4.0702689e-06 7.7038812e-06 
1.1442047e-05 2.8068148e-06 6.8686586e-06 
3.2769378e-06 2.6895909e-06 6.5293730e-06 
1.4574867e-07 1.5945076e-07 4.7870130e-06 
2.1500623e-06 -2.4493045e-06 5.5346404e-06 
5.8496857e-06 -4.2120687e-06 6.7284082e-06 
4.9529390e-06 -2.2527358e-06 6.3209645e-06 
1.7388268e-06 1.0114056e-07 4.9247801e-06 
-8.1613769e-07 1.2170481e-06 4.5394776e-07 
-1.3107358e-06 5.2099824e-07 -1.7335105e-06 
-1.6120089e-06 1.1757045e-07 -2.3919720e-06 
-6.5615035e-07 -1.5304131e-07 -1.8061285e-06 
5.7897648e-07 3.0072863e-07 -3.2386242e-07 
5.3021375e-07 1.6107828e-07 1.0245794e-06 
-4.0642608e-08 -1.8220577e-07 1.2122405e-06 
0.0000000e+00 4.0055467e-05 0.0000000e+00 
0.0000000e+00 3.6627003e-05 0.0000000e+00 
0.0000000e+00 2.7419781e-05 0.0000000e+00 
0.0000000e+00 4.7052177e-05 0.0000000e+00 
0.0000000e+00 7.6333134e-05 0.0000000e+00 
0.0000000e+00 7.2473042e-05 0.0000000e+00 
0.0000000e+00 8.3833096e-05 0.0000000e+00 
0.0000000e+00 6.3963831e-05 0.0000000e+00 
0.0000000e+00 -8.5483800e-05 0.0000000e+00 
0.0000000e+00 -2.4773786e-04 0.0000000e+00 
0.0000000e+00 -4.6685562e-04 0.0000000e+00 
0.0000000e+00 -5.7796447e-04 0.0000000e+00 
0.0000000e+00 -5.5186776e-04 0.0000000e+00 
0.0000000e+00 -4.3092464e-04 0.0000000e+00 
0.0000000e+00 -2.2394698e-04 0.0000000e+00 
0.0000000e+00 -8.0351703e-05 0.0000000e+00 
0.0000000e+00 -8.2117795e-06 0.0000000e+00 
0.0000000e+00 2.8882525e-07 0.0000000e+00 
0.0000000e+00 -4.1045605e-05 0.0000000e+00 
0.0000000e+00 -7.1193492e-05 0.0000000e+00 
0.0000000e+00 -6.9436152e-05 0.0000000e+00 
0.0000000e+00 -1.3252893e-05 0.0000000e+00 
0.0000000e+00 2.8051809e-06 0.0000000e+00 
0.0000000e+00 3.0996223e-05 0.0000000e+00 
0.0000000e+00 6.4362699e-05 0.0000000e+00 
0.0000000e+00 1.0369960e-04 0.0000000e+00 
0.0000000e+00 9.4569688e-05 0.0000000e+00 
0.0000000e+00 9.8691227e-05 0.0000000e+00 
0.0000000e+00 -8.5830754e-05 0.0000000e+00 
0.0000000e+00 -2.9578659e-04 0.0000000e+00 
0.0000000e+00 -4.2766711e-04 0.0000000e+00 
0.0000000e+00 -6.0227950e-04 0.0000000e+00 
0.0000000e+00 -5.7516783e-04 0.0000000e+00 
0.0000000e+00 -4.5019697e-04 0.0000000e+00 
0.0000000e+00 -2.4288053e-04 0.0000000e+00 
0.0000000e+00 -8.3758867e-05 0.0000000e+00 
0.0000000e+00 2.6137017e-05 0.0000000e+00 
0.0000000e+00 2.3821665e-05 0.0000000e+00 
0.0000000e+00 -3.6816509e-06 0.0000000e+00 
0.0000000e+00 -2.0010539e-05 0.0000000e+00 
0.0000000e+00 -1.7247325e-05 0.0000000e+00 
0.0000000e+00 -2.4481888e-06 0.0000000e+00 
0.0000000e+00 1.4101830e-05 0.0000000e+00 
0.0000000e+00 1.1685818e-05 0.0000000e+00 
0.0000000e+00 7.4757656e-07 0.0000000e+00 
0.0000000e+00 -7.7925988e-06 0.0000000e+00 
0.0000000e+00 -3.0633257e-06 0.0000000e+00 
0.0000000e+00 1.5601853e-06 0.0000000e+00 
0.0000000e+00 1.5508256e-06 0.0000000e+00 
-4.1527505e-06 -3.6142128e-06 1.4922947e-06 
-8.9469438e-07 -1.9333879e-06 -5.5060156e-07 
-4.9862692e-06 7.7851228e-06 3.8475296e-06 
-4.3515897e-06 2.1919377e-05 9.0896528e-06 
-4.6065779e-08 -2.9857770e-07 9.9162219e-07 
-6.0086307e-07 -4.4415631e-07 1.0948415e-06 
-8.8048461e-07 -5.0270745e-07 1.6268130e-07 
-6.2083711e-07 1.5349012e-07 -6.3778867e-07 
1.6510252e-06 -7.2289765e-07 -3.9010483e-06 
3.6495107e-06 -1.4378821e-06 2.6625280e-06 
2.9950324e-06 4.1946846e-06 1.2788562e-06 
7.9054780e-06 1.0637362e-05 -5.6723379e-06 
9.9825238e-06 -8.4558924e-06 -5.3351669e-06 
1.6470050e-05 3.5424009e-06 -1.2594545e-05 
1.8568837e-05 -9.7984612e-06 -1.5733891e-05 
3.8366925e-05 -1.6633436e-05 -2.3539256e-05 
4.8244383e-05 -5.6015197e-06 -1.7844384e-05 
4.1913627e-05 -1.0419129e-05 -1.5181857e-05 
4.3573869e-05 -1.4390524e-05 -6.8915942e-06 
3.6778118e-05 -9.7755446e-06 5.5663344e-07 
2.5117803e-05 -7.0181763e-06 -1.9947495e-06 
2.3603941e-05 -7.2512316e-06 5.1454249e-06 
1.8005587e-05 -4.3446607e-06 4.5512384e-06 
1.2873476e-05 -3.3189478e-06 -2.2895224e-06 
1.5331512e-05 9.1830880e-06 3.5434571e-06 
1.5209771e-05 1.0977161e-05 1.2920939e-05 
1.2972888e-06 -1.9211575e-06 1.6454169e-05 
-3.8094208e-06 -1.0704500e-05 1.1769963e-05 
-2.9386517e-06 -3.0624569e-06 3.2581477e-06 