# vtk DataFile Version 4.0
vtk output
ASCII
DATASET UNSTRUCTURED_GRID
POINTS 1919 float
0.0000000e+00 0.0000000e+00 0.0000000e+00 
0.0000000e+00 0.0000000e+00 5.0000000e+01 
5.0000000e+00 0.0000000e+00 0.0000000e+00 
5.0000000e+00 0.0000000e+00 5.0000000e+01 
5.0000000e+00 1.0000000e+00 0.0000000e+00 
5.0000000e+00 1.0000000e+00 5.0000000e+01 
0.0000000e+00 1.0000000e+00 0.0000000e+00 
0.0000000e+00 1.0000000e+00 5.0000000e+01 
5.0000000e+00 2.0000000e+00 0.0000000e+00 
5.0000000e+00 2.0000000e+00 5.0000000e+01 
3.0000000e+00 2.0000000e+00 0.0000000e+00 
3.0000000e+00 2.0000000e+00 5.0000000e+01 
0.0000000e+00 2.0000000e+00 0.0000000e+00 
0.0000000e+00 2.0000000e+00 5.0000000e+01 
1.5000000e+00 3.0000000e+00 0.0000000e+00 
1.5000000e+00 3.0000000e+00 5.0000000e+01 
7.5000000e-01 3.0000000e+00 0.0000000e+00 
7.5000000e-01 3.0000000e+00 5.0000000e+01 
0.0000000e+00 3.0000000e+00 0.0000000e+00 
0.0000000e+00 3.0000000e+00 5.0000000e+01 
7.5000000e-01 3.0000000e+00 5.0000000e-01 
7.5000000e-01 3.0000000e+00 1.0000000e+00 
7.5000000e-01 3.0000000e+00 1.5000000e+00 
7.5000000e-01 3.0000000e+00 2.0000000e+00 
7.5000000e-01 3.0000000e+00 2.5000000e+00 
7.5000000e-01 3.0000000e+00 3.0000000e+00 
7.5000000e-01 3.0000000e+00 3.5000000e+00 
7.5000000e-01 3.0000000e+00 4.0000000e+00 
7.5000000e-01 3.0000000e+00 4.5000000e+00 
7.5000000e-01 3.0000000e+00 5.0000000e+00 
7.5000000e-01 3.0000000e+00 5.5000000e+00 
7.5000000e-01 3.0000000e+00 6.0000000e+00 
7.5000000e-01 3.0000000e+00 6.5000000e+00 
7.5000000e-01 3.0000000e+00 7.0000000e+00 
7.5000000e-01 3.0000000e+00 7.5000000e+00 
7.5000000e-01 3.0000000e+00 8.0000000e+00 
7.5000000e-01 3.0000000e+00 8.5000000e+00 
7.5000000e-01 3.0000000e+00 9.0000000e+00 
7.5000000e-01 3.0000000e+00 9.5000000e+00 
7.5000000e-01 3.0000000e+00 1.0000000e+01 
7.5000000e-01 3.0000000e+00 1.0500000e+01 
7.5000000e-01 3.0000000e+00 1.1000000e+01 
7.5000000e-01 3.0000000e+00 1.1500000e+01 
7.5000000e-01 3.0000000e+00 1.2000000e+01 
7.5000000e-01 3.0000000e+00 1.2500000e+01 
7.5000000e-01 3.0000000e+00 1.3000000e+01 
7.5000000e-01 3.0000000e+00 1.3500000e+01 
7.5000000e-01 3.0000000e+00 1.4000000e+01 
7.5000000e-01 3.0000000e+00 1.4500000e+01 
7.5000000e-01 3.0000000e+00 1.5000000e+01 
7.5000000e-01 3.0000000e+00 1.5500000e+01 
7.5000000e-01 3.0000000e+00 1.6000000e+01 
7.5000000e-01 3.0000000e+00 1.6500000e+01 
7.5000000e-01 3.0000000e+00 1.7000000e+01 
7.5000000e-01 3.0000000e+00 1.7500000e+01 
7.5000000e-01 3.0000000e+00 1.8000000e+01 
7.5000000e-01 3.0000000e+00 1.8500000e+01 
7.5000000e-01 3.0000000e+00 1.9000000e+01 
7.5000000e-01 3.0000000e+00 1.9500000e+01 
7.5000000e-01 3.0000000e+00 2.0000000e+01 
7.5000000e-01 3.0000000e+00 2.0500000e+01 
7.5000000e-01 3.0000000e+00 2.1000000e+01 
7.5000000e-01 3.0000000e+00 2.1500000e+01 
7.5000000e-01 3.0000000e+00 2.2000000e+01 
7.5000000e-01 3.0000000e+00 2.2500000e+01 
7.5000000e-01 3.0000000e+00 2.3000000e+01 
7.5000000e-01 3.0000000e+00 2.3500000e+01 
7.5000000e-01 3.0000000e+00 2.4000000e+01 
7.5000000e-01 3.0000000e+00 2.4500000e+01 
7.5000000e-01 3.0000000e+00 2.5000000e+01 
7.5000000e-01 3.0000000e+00 2.5500000e+01 
7.5000000e-01 3.0000000e+00 2.6000000e+01 
7.5000000e-01 3.0000000e+00 2.6500000e+01 
7.5000000e-01 3.0000000e+00 2.7000000e+01 
7.5000000e-01 3.0000000e+00 2.7500000e+01 
7.5000000e-01 3.0000000e+00 2.8000000e+01 
7.5000000e-01 3.0000000e+00 2.8500000e+01 
7.5000000e-01 3.0000000e+00 2.9000000e+01 
7.5000000e-01 3.0000000e+00 2.9500000e+01 
7.5000000e-01 3.0000000e+00 3.0000000e+01 
7.5000000e-01 3.0000000e+00 3.0500000e+01 
7.5000000e-01 3.0000000e+00 3.1000000e+01 
7.5000000e-01 3.0000000e+00 3.1500000e+01 
7.5000000e-01 3.0000000e+00 3.2000000e+01 
7.5000000e-01 3.0000000e+00 3.2500000e+01 
7.5000000e-01 3.0000000e+00 3.3000000e+01 
7.5000000e-01 3.0000000e+00 3.3500000e+01 
7.5000000e-01 3.0000000e+00 3.4000000e+01 
7.5000000e-01 3.0000000e+00 3.4500000e+01 
7.5000000e-01 3.0000000e+00 3.5000000e+01 
7.5000000e-01 3.0000000e+00 3.5500000e+01 
7.5000000e-01 3.0000000e+00 3.6000000e+01 
7.5000000e-01 3.0000000e+00 3.6500000e+01 
7.5000000e-01 3.0000000e+00 3.7000000e+01 
7.5000000e-01 3.0000000e+00 3.7500000e+01 
7.5000000e-01 3.0000000e+00 3.8000000e+01 
7.5000000e-01 3.0000000e+00 3.8500000e+01 
7.5000000e-01 3.0000000e+00 3.9000000e+01 
7.5000000e-01 3.0000000e+00 3.9500000e+01 
7.5000000e-01 3.0000000e+00 4.0000000e+01 
7.5000000e-01 3.0000000e+00 4.0500000e+01 
7.5000000e-01 3.0000000e+00 4.1000000e+01 
7.5000000e-01 3.0000000e+00 4.1500000e+01 
7.5000000e-01 3.0000000e+00 4.2000000e+01 
7.5000000e-01 3.0000000e+00 4.2500000e+01 
7.5000000e-01 3.0000000e+00 4.3000000e+01 
7.5000000e-01 3.0000000e+00 4.3500000e+01 
7.5000000e-01 3.0000000e+00 4.4000000e+01 
7.5000000e-01 3.0000000e+00 4.4500000e+01 
7.5000000e-01 3.0000000e+00 4.5000000e+01 
7.5000000e-01 3.0000000e+00 4.5500000e+01 
7.5000000e-01 3.0000000e+00 4.6000000e+01 
7.5000000e-01 3.0000000e+00 4.6500000e+01 
7.5000000e-01 3.0000000e+00 4.7000000e+01 
7.5000000e-01 3.0000000e+00 4.7500000e+01 
7.5000000e-01 3.0000000e+00 4.8000000e+01 
7.5000000e-01 3.0000000e+00 4.8500000e+01 
7.5000000e-01 3.0000000e+00 4.9000000e+01 
7.5000000e-01 3.0000000e+00 4.9500000e+01 
7.5000000e-01 3.0250001e+00 0.0000000e+00 
7.5000000e-01 3.0250001e+00 5.0000000e-01 
7.5000000e-01 3.0250001e+00 1.0000000e+00 
7.5000000e-01 3.0250001e+00 1.5000000e+00 
7.5000000e-01 3.0250001e+00 2.0000000e+00 
7.5000000e-01 3.0250001e+00 2.5000000e+00 
7.5000000e-01 3.0250001e+00 3.0000000e+00 
7.5000000e-01 3.0250001e+00 3.5000000e+00 
7.5000000e-01 3.0250001e+00 4.0000000e+00 
7.5000000e-01 3.0250001e+00 4.5000000e+00 
7.5000000e-01 3.0250001e+00 5.0000000e+00 
7.5000000e-01 3.0250001e+00 5.5000000e+00 
7.5000000e-01 3.0250001e+00 6.0000000e+00 
7.5000000e-01 3.0250001e+00 6.5000000e+00 
7.5000000e-01 3.0250001e+00 7.0000000e+00 
7.5000000e-01 3.0250001e+00 7.5000000e+00 
7.5000000e-01 3.0250001e+00 8.0000000e+00 
7.5000000e-01 3.0250001e+00 8.5000000e+00 
7.5000000e-01 3.0250001e+00 9.0000000e+00 
7.5000000e-01 3.0250001e+00 9.5000000e+00 
7.5000000e-01 3.0250001e+00 1.0000000e+01 
7.5000000e-01 3.0250001e+00 1.0500000e+01 
7.5000000e-01 3.0250001e+00 1.1000000e+01 
7.5000000e-01 3.0250001e+00 1.1500000e+01 
7.5000000e-01 3.0250001e+00 1.2000000e+01 
7.5000000e-01 3.0250001e+00 1.2500000e+01 
7.5000000e-01 3.0250001e+00 1.3000000e+01 
7.5000000e-01 3.0250001e+00 1.3500000e+01 
7.5000000e-01 3.0250001e+00 1.4000000e+01 
7.5000000e-01 3.0250001e+00 1.4500000e+01 
7.5000000e-01 3.0250001e+00 1.5000000e+01 
7.5000000e-01 3.0250001e+00 1.5500000e+01 
7.5000000e-01 3.0250001e+00 1.6000000e+01 
7.5000000e-01 3.0250001e+00 1.6500000e+01 
7.5000000e-01 3.0250001e+00 1.7000000e+01 
7.5000000e-01 3.0250001e+00 1.7500000e+01 
7.5000000e-01 3.0250001e+00 1.8000000e+01 
7.5000000e-01 3.0250001e+00 1.8500000e+01 
7.5000000e-01 3.0250001e+00 1.9000000e+01 
7.5000000e-01 3.0250001e+00 1.9500000e+01 
7.5000000e-01 3.0250001e+00 2.0000000e+01 
7.5000000e-01 3.0250001e+00 2.0500000e+01 
7.5000000e-01 3.0250001e+00 2.1000000e+01 
7.5000000e-01 3.0250001e+00 2.1500000e+01 
7.5000000e-01 3.0250001e+00 2.2000000e+01 
7.5000000e-01 3.0250001e+00 2.2500000e+01 
7.5000000e-01 3.0250001e+00 2.3000000e+01 
7.5000000e-01 3.0250001e+00 2.3500000e+01 
7.5000000e-01 3.0250001e+00 2.4000000e+01 
7.5000000e-01 3.0250001e+00 2.4500000e+01 
7.5000000e-01 3.0250001e+00 2.5000000e+01 
7.5000000e-01 3.0250001e+00 2.5500000e+01 
7.5000000e-01 3.0250001e+00 2.6000000e+01 
7.5000000e-01 3.0250001e+00 2.6500000e+01 
7.5000000e-01 3.0250001e+00 2.7000000e+01 
7.5000000e-01 3.0250001e+00 2.7500000e+01 
7.5000000e-01 3.0250001e+00 2.8000000e+01 
7.5000000e-01 3.0250001e+00 2.8500000e+01 
7.5000000e-01 3.0250001e+00 2.9000000e+01 
7.5000000e-01 3.0250001e+00 2.9500000e+01 
7.5000000e-01 3.0250001e+00 3.0000000e+01 
7.5000000e-01 3.0250001e+00 3.0500000e+01 
7.5000000e-01 3.0250001e+00 3.1000000e+01 
7.5000000e-01 3.0250001e+00 3.1500000e+01 
7.5000000e-01 3.0250001e+00 3.2000000e+01 
7.5000000e-01 3.0250001e+00 3.2500000e+01 
7.5000000e-01 3.0250001e+00 3.3000000e+01 
7.5000000e-01 3.0250001e+00 3.3500000e+01 
7.5000000e-01 3.0250001e+00 3.4000000e+01 
7.5000000e-01 3.0250001e+00 3.4500000e+01 
7.5000000e-01 3.0250001e+00 3.5000000e+01 
7.5000000e-01 3.0250001e+00 3.5500000e+01 
7.5000000e-01 3.0250001e+00 3.6000000e+01 
7.5000000e-01 3.0250001e+00 3.6500000e+01 
7.5000000e-01 3.0250001e+00 3.7000000e+01 
7.5000000e-01 3.0250001e+00 3.7500000e+01 
7.5000000e-01 3.0250001e+00 3.8000000e+01 
7.5000000e-01 3.0250001e+00 3.8500000e+01 
7.5000000e-01 3.0250001e+00 3.9000000e+01 
7.5000000e-01 3.0250001e+00 3.9500000e+01 
7.5000000e-01 3.0250001e+00 4.0000000e+01 
7.5000000e-01 3.0250001e+00 4.0500000e+01 
7.5000000e-01 3.0250001e+00 4.1000000e+01 
7.5000000e-01 3.0250001e+00 4.1500000e+01 
7.5000000e-01 3.0250001e+00 4.2000000e+01 
7.5000000e-01 3.0250001e+00 4.2500000e+01 
7.5000000e-01 3.0250001e+00 4.3000000e+01 
7.5000000e-01 3.0250001e+00 4.3500000e+01 
7.5000000e-01 3.0250001e+00 4.4000000e+01 
7.5000000e-01 3.0250001e+00 4.4500000e+01 
7.5000000e-01 3.0250001e+00 4.5000000e+01 
7.5000000e-01 3.0250001e+00 4.5500000e+01 
7.5000000e-01 3.0250001e+00 4.6000000e+01 
7.5000000e-01 3.0250001e+00 4.6500000e+01 
7.5000000e-01 3.0250001e+00 4.7000000e+01 
7.5000000e-01 3.0250001e+00 4.7500000e+01 
7.5000000e-01 3.0250001e+00 4.8000000e+01 
7.5000000e-01 3.0250001e+00 4.8500000e+01 
7.5000000e-01 3.0250001e+00 4.9000000e+01 
7.5000000e-01 3.0250001e+00 4.9500000e+01 
7.5000000e-01 3.0250001e+00 5.0000000e+01 
3.0000000e+00 2.0000000e+00 3.6000000e+01 
8.0487806e-01 3.0000000e+00 3.6000000e+01 
0.0000000e+00 0.0000000e+00 1.0000000e+00 
0.0000000e+00 0.0000000e+00 2.0000000e+00 
0.0000000e+00 0.0000000e+00 3.0000000e+00 
0.0000000e+00 0.0000000e+00 4.0000000e+00 
0.0000000e+00 0.0000000e+00 5.0000000e+00 
0.0000000e+00 0.0000000e+00 6.0000000e+00 
0.0000000e+00 0.0000000e+00 7.0000000e+00 
0.0000000e+00 0.0000000e+00 8.0000000e+00 
[...]
POINT_DATA 1919
FIELD FieldData 3
DISPLACEMENT 3 1919  float
0.0000000e+00 0.0000000e+00 0.0000000e+00 
0.0000000e+00 0.0000000e+00 0.0000000e+00 
0.0000000e+00 0.0000000e+00 0.0000000e+00 
0.0000000e+00 0.0000000e+00 0.0000000e+00 
1.6746519e-06 -1.2775802e-06 -2.8697248e-06 
5.6282026e-08 9.7255235e-09 7.6155416e-08 
0.0000000e+00 5.0120769e-05 0.0000000e+00 
0.0000000e+00 -2.3435354e-07 0.0000000e+00 
-1.8241312e-06 -1.7203021e-06 -6.0076691e-06 
7.9111473e-08 -3.9164640e-08 2.1054583e-07 
1.3714542e-05 1.1821802e-05 -3.5942189e-06 
-5.9235447e-08 -4.1847183e-08 1.8873544e-07 
0.0000000e+00 6.2158884e-05 0.0000000e+00 
0.0000000e+00 -1.0963645e-07 0.0000000e+00 
2.1073185e-05 -1.5573292e-05 -2.3839541e-06 
2.1123358e-07 -2.7317054e-07 -2.6910654e-09 
2.2627033e-05 3.2878906e-05 -1.9386813e-05 
6.4946249e-08 4.9317305e-07 -4.1491841e-08 
0.0000000e+00 2.1201899e-05 0.0000000e+00 
0.0000000e+00 -1.3375949e-07 0.0000000e+00 
1.4819555e-06 2.2814009e-05 -1.1649125e-05 
4.1183703e-06 1.1490610e-05 1.2061756e-05 
3.2200322e-05 3.2166183e-05 -9.5138597e-07 
1.6615459e-05 9.2207112e-05 -4.8300558e-06 
-5.7462953e-06 1.7118028e-04 -8.9729447e-06 
3.2040210e-05 2.3126618e-04 -5.0729145e-06 
4.3291642e-05 2.5388066e-04 -6.0829102e-06 
6.2232239e-06 2.5757725e-04 2.2109623e-05 
3.3833824e-06 2.6197504e-04 7.3829520e-05 
9.3775288e-06 2.3944209e-04 9.1356378e-05 
-4.3636410e-05 1.0217722e-04 1.4297315e-04 
-3.0498584e-05 -2.9134582e-04 1.3494212e-04 
-3.9317685e-05 -1.0349773e-03 2.5642355e-04 
-1.5050292e-04 -2.0828808e-03 1.9148484e-04 
-1.5506765e-04 -3.2815605e-03 3.2877727e-04 
-2.5510896e-04 -4.2587826e-03 1.6734570e-04 
-2.6025175e-04 -4.6577058e-03 1.8773488e-04 
-2.1867984e-04 -4.5965151e-03 1.5935699e-04 
-2.1755871e-04 -4.6206373e-03 1.0843618e-04 
-2.2179192e-04 -4.8322631e-03 1.1841805e-05 
-2.8903142e-04 -4.9553867e-03 -2.8206399e-05 
-3.1025888e-04 -4.4392864e-03 -1.2144239e-04 
-2.3580287e-04 -3.3785838e-03 -3.0040040e-04 
-1.4736390e-04 -2.2202227e-03 -1.9438840e-04 
-1.1770680e-04 -1.2827240e-03 -2.6715678e-04 
-7.8756348e-05 -6.1847467e-04 -1.2085348e-04 
-6.1875660e-05 -2.1690928e-04 -7.2946845e-05 
-7.1279937e-05 -2.1484337e-05 -2.2853492e-05 
-8.8151239e-05 4.0386636e-05 -7.3344920e-05 
-7.3200805e-05 4.0517527e-05 -1.3411575e-04 
-3.8673661e-05 2.9964416e-05 -1.4746281e-04 
-1.9489476e-05 1.9660027e-05 -1.1733798e-04 
2.3663079e-05 -3.9236720e-06 -4.3228814e-05 
2.3073815e-05 -5.2529416e-05 1.4436164e-05 
-6.9042621e-06 -1.1483840e-04 6.5929278e-05 
-1.5872494e-05 -1.6311879e-04 9.0309491e-05 
-6.0912156e-05 -1.7464318e-04 6.9555354e-05 
-3.0085090e-05 -1.5164813e-04 3.5540976e-05 
-4.2956355e-05 -1.1388065e-04 1.7782003e-06 
-1.1920230e-05 -8.8364686e-05 -3.4107987e-05 
3.5996616e-06 -8.2769962e-05 -5.7630419e-05 
-1.2596919e-05 -8.1664715e-05 -4.9509199e-05 
-3.6777121e-05 -5.8183665e-05 -5.3039566e-05 
-1.9087238e-05 1.5332739e-06 -5.4485965e-05 
-2.4576055e-05 8.2652965e-05 -5.3323613e-05 
-4.9457744e-06 1.4790976e-04 -5.7031819e-05 
1.0230937e-06 1.8172718e-04 -7.8160432e-05 
-1.4574011e-06 1.9141191e-04 -4.8998529e-05 
-7.0396213e-06 1.9039998e-04 -3.3669156e-05 
1.3550501e-05 1.6100849e-04 -5.7586412e-06 
1.9415629e-06 2.1650158e-05 7.2997951e-05 
-2.0183494e-05 -3.5684989e-04 5.8838585e-05 
-2.8091015e-05 -1.0940139e-03 1.8495295e-04 
-1.1065857e-04 -2.1968412e-03 1.3061096e-04 
-1.5387793e-04 -3.4886275e-03 2.8141617e-04 
-2.6099503e-04 -4.4491435e-03 1.6707380e-04 
-2.7500952e-04 -4.6561835e-03 1.9686067e-04 
-2.5548809e-04 -4.4982480e-03 1.8020679e-04 
-2.7382738e-04 -4.5373072e-03 1.3689671e-04 
-3.2056926e-04 -4.7891899e-03 7.9767400e-05 
-3.3007862e-04 -4.8910365e-03 4.6342364e-05 
-2.9516825e-04 -4.2227902e-03 2.7080077e-05 
-2.6681920e-04 -3.1190652e-03 -1.8226165e-04 
-1.8802978e-04 -1.9805564e-03 -1.4821996e-04 
-1.6502869e-04 -1.0553428e-03 -2.9396862e-04 
-1.0065093e-04 -4.0536403e-04 -2.3753237e-04 
-4.7012698e-05 -3.0246645e-05 -2.4723893e-04 
-6.5316731e-06 1.3967894e-04 -1.7966732e-04 
2.3049281e-05 1.9232897e-04 -1.6427838e-04 
9.6848214e-07 1.9382341e-04 -1.4021662e-04 
2.8025232e-05 1.7209456e-04 -1.1795568e-04 
3.1289004e-05 1.3460046e-04 -7.3529205e-05 
4.5375371e-05 8.4216292e-05 -5.8685737e-06 
3.1162181e-05 3.2967975e-05 5.4214772e-05 
2.2877199e-05 -6.3862326e-06 9.3739960e-05 
7.8644962e-06 -2.9421499e-05 9.4170224e-05 
-2.2087699e-05 -4.0015835e-05 6.5933047e-05 
-1.9880288e-05 -4.1693460e-05 2.8171302e-05 
-1.6658649e-05 -3.3849457e-05 -9.4095986e-07 
-7.9938018e-06 -1.8204564e-05 -1.5336067e-05 
2.2868248e-06 3.8862129e-07 -2.0280113e-05 
2.9586026e-06 1.4437762e-05 -1.5817737e-05 
4.5127654e-06 1.8890583e-05 -9.1821530e-06 
2.0095090e-06 1.5487542e-05 -1.7559707e-06 
-4.0651122e-07 8.9094065e-06 4.0942114e-06 
-1.0430442e-06 3.0185822e-06 4.7533899e-06 
-2.2880918e-06 -7.5293593e-07 4.4375192e-06 
-1.1370158e-06 -2.7224248e-06 7.3374304e-07 
-7.0734677e-07 -3.2570445e-06 -6.1798841e-07 
1.1922315e-07 -2.5539694e-06 -2.0851053e-06 
9.8942917e-07 -1.1957256e-06 -2.6684349e-06 
1.0946829e-06 -6.6868850e-08 -1.8483098e-06 
7.8685997e-07 2.0258221e-07 -8.5271427e-07 
1.8178424e-07 -1.8389724e-07 -1.2004833e-07 
-2.4436974e-07 -5.3679247e-07 8.7037171e-07 
-1.8976370e-07 -3.9834330e-07 6.6511836e-07 
-1.7059065e-07 7.2868708e-08 6.1567061e-07 
-5.0135787e-07 4.2109022e-07 2.9582341e-07 
-1.1440304e-07 5.0718256e-07 6.6456501e-08 
0.0000000e+00 3.1410331e-05 0.0000000e+00 
0.0000000e+00 2.2038950e-05 0.0000000e+00 
0.0000000e+00 1.2885759e-05 0.0000000e+00 
0.0000000e+00 3.4125245e-05 0.0000000e+00 
0.0000000e+00 9.3680741e-05 0.0000000e+00 
0.0000000e+00 1.7029696e-04 0.0000000e+00 
0.0000000e+00 2.2888862e-04 0.0000000e+00 
0.0000000e+00 2.5338487e-04 0.0000000e+00 
0.0000000e+00 2.5995140e-04 0.0000000e+00 
0.0000000e+00 2.6546078e-04 0.0000000e+00 
0.0000000e+00 2.4297177e-04 0.0000000e+00 
0.0000000e+00 1.0081045e-04 0.0000000e+00 
0.0000000e+00 -2.9818557e-04 0.0000000e+00 
0.0000000e+00 -1.0423142e-03 0.0000000e+00 
0.0000000e+00 -2.0957196e-03 0.0000000e+00 
0.0000000e+00 -3.2926942e-03 0.0000000e+00 
0.0000000e+00 -4.2853062e-03 0.0000000e+00 
0.0000000e+00 -4.6815723e-03 0.0000000e+00 
0.0000000e+00 -4.6279542e-03 0.0000000e+00 
0.0000000e+00 -4.6415310e-03 0.0000000e+00 
0.0000000e+00 -4.8584086e-03 0.0000000e+00 
0.0000000e+00 -4.9782065e-03 0.0000000e+00 
0.0000000e+00 -4.4688480e-03 0.0000000e+00 
0.0000000e+00 -3.3940233e-03 0.0000000e+00 
0.0000000e+00 -2.2324298e-03 0.0000000e+00 
0.0000000e+00 -1.2856505e-03 0.0000000e+00 
0.0000000e+00 -6.2075176e-04 0.0000000e+00 
0.0000000e+00 -2.1778076e-04 0.0000000e+00 
0.0000000e+00 -2.1111384e-05 0.0000000e+00 
0.0000000e+00 4.1644384e-05 0.0000000e+00 
0.0000000e+00 4.2428674e-05 0.0000000e+00 
0.0000000e+00 3.1030384e-05 0.0000000e+00 
0.0000000e+00 1.9444844e-05 0.0000000e+00 
0.0000000e+00 -5.0338263e-06 0.0000000e+00 
0.0000000e+00 -5.3250216e-05 0.0000000e+00 
0.0000000e+00 -1.1465524e-04 0.0000000e+00 
0.0000000e+00 -1.6202779e-04 0.0000000e+00 
0.0000000e+00 -1.7376558e-04 0.0000000e+00 
0.0000000e+00 -1.5115188e-04 0.0000000e+00 
0.0000000e+00 -1.1455196e-04 0.0000000e+00 
0.0000000e+00 -8.9341615e-05 0.0000000e+00 
0.0000000e+00 -8.3548890e-05 0.0000000e+00 
0.0000000e+00 -8.1404614e-05 0.0000000e+00 
0.0000000e+00 -5.6844761e-05 0.0000000e+00 
0.0000000e+00 3.0243971e-06 0.0000000e+00 
0.0000000e+00 8.2354250e-05 0.0000000e+00 
0.0000000e+00 1.4725096e-04 0.0000000e+00 
0.0000000e+00 1.8119258e-04 0.0000000e+00 
0.0000000e+00 1.9244477e-04 0.0000000e+00 
0.0000000e+00 1.9329961e-04 0.0000000e+00 
0.0000000e+00 1.6358081e-04 0.0000000e+00 
0.0000000e+00 2.2093747e-05 0.0000000e+00 
0.0000000e+00 -3.6118139e-04 0.0000000e+00 
0.0000000e+00 -1.1035125e-03 0.0000000e+00 
0.0000000e+00 -2.2156120e-03 0.0000000e+00 
0.0000000e+00 -3.5025959e-03 0.0000000e+00 
0.0000000e+00 -4.4762203e-03 0.0000000e+00 
0.0000000e+00 -4.6769339e-03 0.0000000e+00 
0.0000000e+00 -4.5281122e-03 0.0000000e+00 
0.0000000e+00 -4.5584501e-03 0.0000000e+00 
0.0000000e+00 -4.8201424e-03 0.0000000e+00 
0.0000000e+00 -4.9116737e-03 0.0000000e+00 
0.0000000e+00 -4.2480412e-03 0.0000000e+00 
0.0000000e+00 -3.1301801e-03 0.0000000e+00 
0.0000000e+00 -1.9899544e-03 0.0000000e+00 
0.0000000e+00 -1.0588453e-03 0.0000000e+00 
0.0000000e+00 -4.0834898e-04 0.0000000e+00 
0.0000000e+00 -3.0556661e-05 0.0000000e+00 
0.0000000e+00 1.4132958e-04 0.0000000e+00 
0.0000000e+00 1.9427191e-04 0.0000000e+00 
0.0000000e+00 1.9455573e-04 0.0000000e+00 
0.0000000e+00 1.7214961e-04 0.0000000e+00 
0.0000000e+00 1.3437567e-04 0.0000000e+00 
0.0000000e+00 8.4385079e-05 0.0000000e+00 
0.0000000e+00 3.3372758e-05 0.0000000e+00 
0.0000000e+00 -6.1096976e-06 0.0000000e+00 
0.0000000e+00 -2.9529312e-05 0.0000000e+00 
0.0000000e+00 -4.0172978e-05 0.0000000e+00 
0.0000000e+00 -4.1459927e-05 0.0000000e+00 
0.0000000e+00 -3.3670538e-05 0.0000000e+00 
0.0000000e+00 -1.8174966e-05 0.0000000e+00 
0.0000000e+00 1.8329929e-07 0.0000000e+00 
0.0000000e+00 1.4103743e-05 0.0000000e+00 
0.0000000e+00 1.8810084e-05 0.0000000e+00 
0.0000000e+00 1.5586347e-05 0.0000000e+00 
0.0000000e+00 9.0268386e-06 0.0000000e+00 
0.0000000e+00 3.0763533e-06 0.0000000e+00 
0.0000000e+00 -7.6122581e-07 0.0000000e+00 
0.0000000e+00 -2.7252709e-06 0.0000000e+00 
0.0000000e+00 -3.2308735e-06 0.0000000e+00 
0.0000000e+00 -2.5436593e-06 0.0000000e+00 
0.0000000e+00 -1.2206572e-06 0.0000000e+00 
0.0000000e+00 -1.1289258e-07 0.0000000e+00 
0.0000000e+00 1.8577707e-07 0.0000000e+00 
0.0000000e+00 -1.6278057e-07 0.0000000e+00 
0.0000000e+00 -5.0359108e-07 0.0000000e+00 
0.0000000e+00 -3.8787954e-07 0.0000000e+00 
0.0000000e+00 5.1169952e-08 0.0000000e+00 
0.0000000e+00 4.0337579e-07 0.0000000e+00 
0.0000000e+00 5.1015758e-07 0.0000000e+00 
0.0000000e+00 5.0533180e-07 0.0000000e+00 
1.7793539e-06 1.7369652e-05 -8.1749840e-06 
3.2702377e-05 1.2857048e-04 -7.0325557e-05 
0.0000000e+00 0.0000000e+00 0.0000000e+00 
0.0000000e+00 0.0000000e+00 0.0000000e+00 
0.0000000e+00 0.0000000e+00 0.0000000e+00 
0.0000000e+00 0.0000000e+00 0.0000000e+00 
0.0000000e+00 0.0000000e+00 0.0000000e+00 
0.0000000e+00 0.0000000e+00 0.0000000e+00 
0.0000000e+00 0.0000000e+00 0.0000000e+00 
0.0000000e+00 0.0000000e+00 0.0000000e+00 
0.0000000e+00 0.0000000e+00 0.0000000e+00 
0.0000000e+00 0.0000000e+00 0.0000000e+00 
0.0000000e+00 0.0000000e+00 0.0000000e+00 
0.0000000e+00 0.0000000e+00 0.0000000e+00 
0.0000000e+00 0.0000000e+00 0.0000000e+00 
0.0000000e+00 0.0000000e+00 0.0000000e+00 
0.0000000e+00 0.0000000e+00 0.0000000e+00 
0.0000000e+00 0.0000000e+00 0.0000000e+00 
0.0000000e+00 0.0000000e+00 0.0000000e+00 
0.0000000e+00 0.0000000e+00 0.0000000e+00 
0.0000000e+00 0.0000000e+00 0.0000000e+00 
0.0000000e+00 0.0000000e+00 0.0000000e+00 
0.0000000e+00 0.0000000e+00 0.0000000e+00 
0.0000000e+00 0.0000000e+00 0.0000000e+00 
0.0000000e+00 0.0000000e+00 0.0000000e+00 
0.0000000e+00 0.0000000e+00 0.0000000e+00 
0.0000000e+00 0.0000000e+00 0.0000000e+00 
0.0000000e+00 0.0000000e+00 0.0000000e+00 
0.0000000e+00 0.0000000e+00 0.0000000e+00 
0.0000000e+00 0.0000000e+00 0.0000000e+00 
0.0000000e+00 0.0000000e+00 0.0000000e+00 
0.0000000e+00 0.0000000e+00 0.0000000e+00 
0.0000000e+00 0.0000000e+00 0.0000000e+00 
0.0000000e+00 0.0000000e+00 0.0000000e+00 
0.0000000e+00 0.0000000e+00 0.0000000e+00 
0.0000000e+00 0.0000000e+00 0.0000000e+00 
0.0000000e+00 0.0000000e+00 0.0000000e+00 
0.0000000e+00 0.0000000e+00 0.0000000e+00 
0.0000000e+00 0.0000000e+00 0.0000000e+00 
0.0000000e+00 0.0000000e+00 0.0000000e+00 
0.0000000e+00 0.0000000e+00 0.0000000e+00 
0.0000000e+00 0.0000000e+00 0.0000000e+00 
0.0000000e+00 0.0000000e+00 0.0000000e+00 
0.0000000e+00 0.0000000e+00 0.0000000e+00 
0.0000000e+00 0.0000000e+00 0.0000000e+00 
0.0000000e+00 0.0000000e+00 0.0000000e+00 
0.0000000e+00 0.0000000e+00 0.0000000e+00 
0.0000000e+00 0.0000000e+00 0.0000000e+00 
0.0000000e+00 0.0000000e+00 0.0000000e+00 
0.0000000e+00 0.0000000e+00 0.0000000e+00 
0.0000000e+00 0.0000000e+00 0.0000000e+00 
0.0000000e+00 0.0000000e+00 0.0000000e+00 
0.0000000e+00 0.0000000e+00 0.0000000e+00 
0.0000000e+00 0.0000000e+00 0.0000000e+00 
0.0000000e+00 0.0000000e+00 0.0000000e+00 
0.0000000e+00 0.0000000e+00 0.0000000e+00 
0.0000000e+00 0.0000000e+00 0.0000000e+00 
0.0000000e+00 0.0000000e+00 0.0000000e+00 
0.0000000e+00 0.0000000e+00 0.0000000e+00 
0.0000000e+00 0.0000000e+00 0.0000000e+00 
0.0000000e+00 0.0000000e+00 0.0000000e+00 
0.0000000e+00 0.0000000e+00 0.0000000e+00 
0.0000000e+00 0.0000000e+00 0.0000000e+00 
0.0000000e+00 0.0000000e+00 0.0000000e+00 
0.0000000e+00 0.0000000e+00 0.0000000e+00 
0.0000000e+00 0.0000000e+00 0.0000000e+00 
0.0000000e+00 0.0000000e+00 0.0000000e+00 
0.0000000e+00 0.0000000e+00 0.0000000e+00 
0.0000000e+00 0.0000000e+00 0.0000000e+00 
0.0000000e+00 0.0000000e+00 0.0000000e+00 
0.0000000e+00 0.0000000e+00 0.0000000e+00 
0.0000000e+00 0.0000000e+00 0.0000000e+00 
0.0000000e+00 0.0000000e+00 0.0000000e+00 
0.0000000e+00 0.0000000e+00 0.0000000e+00 
0.0000000e+00 0.0000000e+00 0.0000000e+00 
0.0000000e+00 0.0000000e+00 0.0000000e+00 
0.0000000e+00 0.0000000e+00 0.0000000e+00 
0.0000000e+00 0.0000000e+00 0.0000000e+00 
0.0000000e+00 0.0000000e+00 0.0000000e+00 
0.0000000e+00 0.0000000e+00 0.0000000e+00 
0.0000000e+00 0.0000000e+00 0.0000000e+00 
0.0000000e+00 0.0000000e+00 0.0000000e+00 
0.0000000e+00 0.0000000e+00 0.0000000e+00 
0.0000000e+00 0.0000000e+00 0.0000000e+00 
0.0000000e+00 0.0000000e+00 0.0000000e+00 
0.0000000e+00 0.0000000e+00 0.0000000e+00 
0.0000000e+00 0.0000000e+00 0.0000000e+00 
0.0000000e+00 0.0000000e+00 0.0000000e+00 
0.0000000e+00 0.0000000e+00 0.0000000e+00 
0.0000000e+00 0.0000000e+00 0.0000000e+00 
0.0000000e+00 0.0000000e+00 0.0000000e+00 
0.0000000e+00 0.0000000e+00 0.0000000e+00 
0.0000000e+00 0.0000000e+00 0.0000000e+00 
0.0000000e+00 0.0000000e+00 0.0000000e+00 
0.0000000e+00 0.0000000e+00 0.0000000e+00 
0.0000000e+00 0.0000000e+00 0.0000000e+00 
0.0000000e+00 0.0000000e+00 0.0000000e+00 
0.0000000e+00 0.0000000e+00 0.0000000e+00 
0.0000000e+00 0.0000000e+00 0.0000000e+00 
0.0000000e+00 0.0000000e+00 0.0000000e+00 
0.0000000e+00 0.0000000e+00 0.0000000e+00 
0.0000000e+00 0.0000000e+00 0.0000000e+00 
0.0000000e+00 0.0000000e+00 0.0000000e+00 
0.0000000e+00 0.0000000e+00 0.0000000e+00 
0.0000000e+00 0.0000000e+00 0.0000000e+00 
0.0000000e+00 0.0000000e+00 0.0000000e+00 
0.0000000e+00 0.0000000e+00 0.0000000e+00 
0.0000000e+00 0.0000000e+00 0.0000000e+00 
1.0850001e-06 7.1799820e-07 -2.1128344e-06 
3.0244282e-06 -1.1670705e-06 -2.3295381e-06 
5.2434220e-06 -3.9546562e-06 -1.4951300e-07 
1.0501369e-05 -2.7395706e-06 -2.5047639e-06 
1.5667767e-05 -2.2124277e-06 -5.0482895e-06 
1.8877319e-05 -1.0750104e-05 -7.2317393e-06 
2.8216042e-05 -8.1365843e-06 -1.1696005e-05 
4.1693787e-05 -1.4917593e-05 -1.1348909e-05 
5.2807984e-05 -1.7120856e-05 -4.0453579e-06 
5.2798958e-05 -2.1318278e-05 7.4078366e-06 
4.0315455e-05 -1.5964453e-05 1.2615088e-05 
2.4537570e-05 -9.7549346e-06 9.9059962e-06 
1.7117569e-05 1.6613085e-06 8.5588199e-06 
7.3679389e-06 3.7351435e-06 9.4167917e-06 
-3.4510836e-06 3.9541769e-06 7.6059891e-06 
-2.6412417e-06 -1.3050936e-06 1.6725890e-06 
6.3952552e-06 1.0097951e-06 -5.7389971e-06 
1.1978352e-05 1.9742292e-06 -4.1314565e-06 
1.1893566e-05 4.8491747e-06 -2.8124161e-06 
7.3556403e-06 -5.5957071e-06 -2.5449356e-06 
1.7180639e-06 1.7936646e-06 2.2492515e-07 
4.7713529e-06 5.4320672e-06 3.1669981e-07 
1.0480859e-05 -1.2145176e-06 1.1809519e-06 
5.9850936e-06 4.2074980e-06 9.3017439e-07 
1.4135171e-05 1.4095734e-06 -1.2012284e-06 
2.3120801e-05 -6.2232680e-06 -5.4073853e-06 
3.0510389e-05 -7.6170813e-06 -7.7770364e-06 
4.2723921e-05 -1.5502777e-05 -5.2148871e-06 
4.8612084e-05 -2.0753232e-05 -2.8973927e-06 
5.2701031e-05 -1.6161173e-05 5.5906676e-06 
4.2794582e-05 -1.2359196e-05 1.1637164e-05 
2.5297622e-05 -1.0028530e-05 1.2223803e-05 
9.7854600e-06 -1.6625241e-06 1.1624134e-05 
2.7767655e-07 2.1021563e-06 7.9629881e-06 
-1.7581090e-06 1.6676397e-06 2.6366135e-06 
-1.4106955e-06 7.2154606e-08 2.0569892e-07 
-1.0948917e-07 -1.9335396e-06 -4.5603093e-07 
1.7290175e-06 -2.8942975e-07 5.4303860e-07 
1.7147829e-06 7.5705216e-08 5.6016802e-07 
-1.7623572e-07 -6.3109928e-07 -2.2827271e-07 
-1.6855445e-06 1.0204144e-07 7.5970883e-07 
-4.4386118e-07 2.4268459e-07 6.3665368e-07 
7.3079929e-07 -1.9460251e-07 7.2896898e-07 
4.6469967e-07 -3.2720340e-08 8.3338648e-07 
2.5021919e-07 -1.1328451e-07 2.2583504e-07 
-1.2472689e-08 -2.7500084e-08 -1.7701306e-07 
-1.3923797e-07 1.0074654e-07 -4.3420656e-07 
-5.1535274e-08 6.9345760e-09 -1.7158986e-07 
-4.0870802e-08 4.0362039e-08 -7.8246813e-09 
0.0000000e+00 -5.7377119e-06 0.0000000e+00 
0.0000000e+00 -7.9848951e-06 0.0000000e+00 
0.0000000e+00 -2.1946960e-05 0.0000000e+00 
0.0000000e+00 -1.5307580e-05 0.0000000e+00 
0.0000000e+00 4.3018619e-05 0.0000000e+00 
0.0000000e+00 -2.6858625e-05 0.0000000e+00 
0.0000000e+00 -1.8555565e-04 0.0000000e+00 
0.0000000e+00 -3.3883553e-04 0.0000000e+00 
0.0000000e+00 -5.0615554e-04 0.0000000e+00 
0.0000000e+00 -5.6401629e-04 0.0000000e+00 
0.0000000e+00 -5.0279347e-04 0.0000000e+00 
0.0000000e+00 -3.0228644e-04 0.0000000e+00 
0.0000000e+00 -1.0960435e-04 0.0000000e+00 
0.0000000e+00 -7.4568661e-06 0.0000000e+00 
0.0000000e+00 3.2652704e-05 0.0000000e+00 
0.0000000e+00 5.6742276e-05 0.0000000e+00 
0.0000000e+00 -1.6083794e-05 0.0000000e+00 
0.0000000e+00 -7.3994364e-05 0.0000000e+00 
0.0000000e+00 -1.0657696e-04 0.0000000e+00 
0.0000000e+00 -1.4499256e-04 0.0000000e+00 
0.0000000e+00 -1.4601115e-04 0.0000000e+00 
0.0000000e+00 -9.2848655e-05 0.0000000e+00 
0.0000000e+00 -1.0243014e-04 0.0000000e+00 
0.0000000e+00 -5.5659690e-05 0.0000000e+00 
0.0000000e+00 1.6700824e-05 0.0000000e+00 
0.0000000e+00 -5.6305296e-05 0.0000000e+00 
0.0000000e+00 -2.1180135e-04 0.0000000e+00 
0.0000000e+00 -3.2638625e-04 0.0000000e+00 
0.0000000e+00 -4.9158186e-04 0.0000000e+00 
0.0000000e+00 -5.1051332e-04 0.0000000e+00 
0.0000000e+00 -4.3994837e-04 0.0000000e+00 
0.0000000e+00 -3.1667593e-04 0.0000000e+00 
0.0000000e+00 -1.4165808e-04 0.0000000e+00 
0.0000000e+00 -7.1899472e-06 0.0000000e+00 
0.0000000e+00 3.1946827e-05 0.0000000e+00 
0.0000000e+00 4.3628304e-05 0.0000000e+00 
0.0000000e+00 3.1266711e-05 0.0000000e+00 
0.0000000e+00 -1.1405416e-05 0.0000000e+00 
0.0000000e+00 -2.0127260e-05 0.0000000e+00 
0.0000000e+00 -4.8964894e-06 0.0000000e+00 
0.0000000e+00 4.5021370e-06 0.0000000e+00 
0.0000000e+00 3.6056094e-06 0.0000000e+00 
0.0000000e+00 1.0208494e-06 0.0000000e+00 
0.0000000e+00 -2.4749301e-07 0.0000000e+00 
0.0000000e+00 -4.1417996e-07 0.0000000e+00 
0.0000000e+00 -7.4329881e-07 0.0000000e+00 
0.0000000e+00 -3.3562912e-07 0.0000000e+00 
0.0000000e+00 5.7472226e-07 0.0000000e+00 
0.0000000e+00 5.6002199e-07 0.0000000e+00 
-3.4044160e-06 -2.1373305e-06 7.4394978e-07 
-3.2697501e-06 3.3579403e-07 4.5693441e-06 
-9.8559194e-06 1.1148313e-05 1.9842457e-06 
-3.8685080e-06 2.6647807e-05 1.0932878e-05 
-4.1391504e-09 -2.3813778e-08 5.4869812e-08 
2.5717635e-09 -6.5798488e-08 8.1617685e-08 
9.2768538e-08 -2.0248223e-08 4.4055415e-08 
7.4867188e-09 -1.3513385e-07 7.0113941e-08 
3.0751246e-06 9.3395221e-07 -6.5190725e-06 
6.8722252e-06 -3.0310796e-06 -1.6187884e-06 
1.5760139e-05 1.5930918e-06 -2.0908772e-06 
2.1945241e-05 2.4496260e-06 -5.6500508e-06 
1.9644453e-05 -4.7130657e-06 -5.4971724e-06 
3.0815536e-05 -7.3700003e-06 -6.5819154e-06 
3.8104969e-05 -7.9375632e-06 -4.6495256e-06 
3.9553721e-05 -1.6116679e-05 -7.7363402e-06 
4.8742986e-05 -1.5384925e-05 -2.3332300e-06 
4.5436289e-05 -1.7191558e-05 7.3425417e-06 
3.0811498e-05 -1.0133037e-05 1.4754143e-05 
1.8034854e-05 -6.5949216e-06 7.8297335e-06 
6.2758891e-06 6.8047084e-06 -2.0864047e-06 
6.0098864e-06 7.1237196e-06 8.8527568e-06 
-6.7154397e-06 1.0908959e-05 1.1612840e-05 
-1.3120066e-05 6.6638842e-07 5.0602152e-06 
-4.1024623e-06 3.5017551e-06 -2.8234457e-08 
-2.9797443e-06 2.2577824e-06 -3.7271207e-06 
-3.3434844e-06 7.3067172e-06 -4.9735836e-06 
-7.5412045e-06 -1.3551585e-05 -5.4450607e-06 