# vtk DataFile Version 4.0
vtk output
ASCII
DATASET UNSTRUCTURED_GRID
POINTS 1919 float
0.0000000e+00 0.0000000e+00 0.0000000e+00 
0.0000000e+00 0.0000000e+00 5.0000000e+01 
5.0000000e+00 0.0000000e+00 0.0000000e+00 
5.0000000e+00 0.0000000e+00 5.0000000e+01 
5.0000000e+00 1.0000000e+00 0.0000000e+00 
5.0000000e+00 1.0000000e+00 5.0000000e+01 
0.0000000e+00 1.0000000e+00 0.0000000e+00 
0.0000000e+00 1.0000000e+00 5.0000000e+01 
5.0000000e+00 2.0000000e+00 0.0000000e+00 
5.0000000e+00 2.0000000e+00 5.0000000e+01 
3.0000000e+00 2.0000000e+00 0.0000000e+00 
3.0000000e+00 2.0000000e+00 5.0000000e+01 
0.0000000e+00 2.0000000e+00 0.0000000e+00 
0.0000000e+00 2.0000000e+00 5.0000000e+01 
1.5000000e+00 3.0000000e+00 0.0000000e+00 
1.5000000e+00 3.0000000e+00 5.0000000e+01 
7.5000000e-01 3.0000000e+00 0.0000000e+00 
7.5000000e-01 3.0000000e+00 5.0000000e+01 
0.0000000e+00 3.0000000e+00 0.0000000e+00 
0.0000000e+00 3.0000000e+00 5.0000000e+01 
7.5000000e-01 3.0000000e+00 5.0000000e-01 
7.5000000e-01 3.0000000e+00 1.0000000e+00 
7.5000000e-01 3.0000000e+00 1.5000000e+00 
7.5000000e-01 3.0000000e+00 2.0000000e+00 
7.5000000e-01 3.0000000e+00 2.5000000e+00 
7.5000000e-01 3.0000000e+00 3.0000000e+00 
7.5000000e-01 3.0000000e+00 3.5000000e+00 
7.5000000e-01 3.0000000e+00 4.0000000e+00 
7.5000000e-01 3.0000000e+00 4.5000000e+00 
7.5000000e-01 3.0000000e+00 5.0000000e+00 
7.5000000e-01 3.0000000e+00 5.5000000e+00 
7.5000000e-01 3.0000000e+00 6.0000000e+00 
7.5000000e-01 3.0000000e+00 6.5000000e+00 
7.5000000e-01 3.0000000e+00 7.0000000e+00 
7.5000000e-01 3.0000000e+00 7.5000000e+00 
7.5000000e-01 3.0000000e+00 8.0000000e+00 
7.5000000e-01 3.0000000e+00 8.5000000e+00 
7.5000000e-01 3.0000000e+00 9.0000000e+00 
7.5000000e-01 3.0000000e+00 9.5000000e+00 
7.5000000e-01 3.0000000e+00 1.0000000e+01 
7.5000000e-01 3.0000000e+00 1.0500000e+01 
7.5000000e-01 3.0000000e+00 1.1000000e+01 
7.5000000e-01 3.0000000e+00 1.1500000e+01 
7.5000000e-01 3.0000000e+00 1.2000000e+01 
7.5000000e-01 3.0000000e+00 1.2500000e+01 
7.5000000e-01 3.0000000e+00 1.3000000e+01 
7.5000000e-01 3.0000000e+00 1.3500000e+01 
7.5000000e-01 3.0000000e+00 1.4000000e+01 
7.5000000e-01 3.0000000e+00 1.4500000e+01 
7.5000000e-01 3.0000000e+00 1.5000000e+01 
7.5000000e-01 3.0000000e+00 1.5500000e+01 
7.5000000e-01 3.0000000e+00 1.6000000e+01 
7.5000000e-01 3.0000000e+00 1.6500000e+01 
7.5000000e-01 3.0000000e+00 1.7000000e+01 
7.5000000e-01 3.0000000e+00 1.7500000e+01 
7.5000000e-01 3.0000000e+00 1.8000000e+01 
7.5000000e-01 3.0000000e+00 1.8500000e+01 
7.5000000e-01 3.0000000e+00 1.9000000e+01 
7.5000000e-01 3.0000000e+00 1.9500000e+01 
7.5000000e-01 3.0000000e+00 2.0000000e+01 
7.5000000e-01 3.0000000e+00 2.0500000e+01 
7.5000000e-01 3.0000000e+00 2.1000000e+01 
7.5000000e-01 3.0000000e+00 2.1500000e+01 
7.5000000e-01 3.0000000e+00 2.2000000e+01 
7.5000000e-01 3.0000000e+00 2.2500000e+01 
7.5000000e-01 3.0000000e+00 2.3000000e+01 
7.5000000e-01 3.0000000e+00 2.3500000e+01 
7.5000000e-01 3.0000000e+00 2.4000000e+01 
7.5000000e-01 3.0000000e+00 2.4500000e+01 
7.5000000e-01 3.0000000e+00 2.5000000e+01 
7.5000000e-01 3.0000000e+00 2.5500000e+01 
7.5000000e-01 3.0000000e+00 2.6000000e+01 
7.5000000e-01 3.0000000e+00 2.6500000e+01 
7.5000000e-01 3.0000000e+00 2.7000000e+01 
7.5000000e-01 3.0000000e+00 2.7500000e+01 
7.5000000e-01 3.0000000e+00 2.8000000e+01 
7.5000000e-01 3.0000000e+00 2.8500000e+01 
7.5000000e-01 3.0000000e+00 2.9000000e+01 
7.5000000e-01 3.0000000e+00 2.9500000e+01 
7.5000000e-01 3.0000000e+00 3.0000000e+01 
7.5000000e-01 3.0000000e+00 3.0500000e+01 
7.5000000e-01 3.0000000e+00 3.1000000e+01 
7.5000000e-01 3.0000000e+00 3.1500000e+01 
7.5000000e-01 3.0000000e+00 3.2000000e+01 
7.5000000e-01 3.0000000e+00 3.2500000e+01 
7.5000000e-01 3.0000000e+00 3.3000000e+01 
7.5000000e-01 3.0000000e+00 3.3500000e+01 
7.5000000e-01 3.0000000e+00 3.4000000e+01 
7.5000000e-01 3.0000000e+00 3.4500000e+01 
7.5000000e-01 3.0000000e+00 3.5000000e+01 
7.5000000e-01 3.0000000e+00 3.5500000e+01 
7.5000000e-01 3.0000000e+00 3.6000000e+01 
7.5000000e-01 3.0000000e+00 3.6500000e+01 
7.5000000e-01 3.0000000e+00 3.7000000e+01 
7.5000000e-01 3.0000000e+00 3.7500000e+01 
7.5000000e-01 3.0000000e+00 3.8000000e+01 
7.5000000e-01 3.0000000e+00 3.8500000e+01 
7.5000000e-01 3.0000000e+00 3.9000000e+01 
7.5000000e-01 3.0000000e+00 3.9500000e+01 
7.5000000e-01 3.0000000e+00 4.0000000e+01 
7.5000000e-01 3.0000000e+00 4.0500000e+01 
7.5000000e-01 3.0000000e+00 4.1000000e+01 
7.5000000e-01 3.0000000e+00 4.1500000e+01 
7.5000000e-01 3.0000000e+00 4.2000000e+01 
7.5000000e-01 3.0000000e+00 4.2500000e+01 
7.5000000e-01 3.0000000e+00 4.3000000e+01 
7.5000000e-01 3.0000000e+00 4.3500000e+01 
7.5000000e-01 3.0000000e+00 4.4000000e+01 
7.5000000e-01 3.0000000e+00 4.4500000e+01 
7.5000000e-01 3.0000000e+00 4.5000000e+01 
7.5000000e-01 3.0000000e+00 4.5500000e+01 
7.5000000e-01 3.0000000e+00 4.6000000e+01 
7.5000000e-01 3.0000000e+00 4.6500000e+01 
7.5000000e-01 3.0000000e+00 4.7000000e+01 
7.5000000e-01 3.0000000e+00 4.7500000e+01 
7.5000000e-01 3.0000000e+00 4.8000000e+01 
7.5000000e-01 3.0000000e+00 4.8500000e+01 
7.5000000e-01 3.0000000e+00 4.9000000e+01 
7.5000000e-01 3.0000000e+00 4.9500000e+01 
7.5000000e-01 3.0250001e+00 0.0000000e+00 
7.5000000e-01 3.0250001e+00 5.0000000e-01 
7.5000000e-01 3.0250001e+00 1.0000000e+00 
7.5000000e-01 3.0250001e+00 1.5000000e+00 
7.5000000e-01 3.0250001e+00 2.0000000e+00 
7.5000000e-01 3.0250001e+00 2.5000000e+00 
7.5000000e-01 3.0250001e+00 3.0000000e+00 
7.5000000e-01 3.0250001e+00 3.5000000e+00 
7.5000000e-01 3.0250001e+00 4.0000000e+00 
7.5000000e-01 3.0250001e+00 4.5000000e+00 
7.5000000e-01 3.0250001e+00 5.0000000e+00 
7.5000000e-01 3.0250001e+00 5.5000000e+00 
7.5000000e-01 3.0250001e+00 6.0000000e+00 
7.5000000e-01 3.0250001e+00 6.5000000e+00 
7.5000000e-01 3.0250001e+00 7.0000000e+00 
7.5000000e-01 3.0250001e+00 7.5000000e+00 
7.5000000e-01 3.0250001e+00 8.0000000e+00 
7.5000000e-01 3.0250001e+00 8.5000000e+00 
7.5000000e-01 3.0250001e+00 9.0000000e+00 
7.5000000e-01 3.0250001e+00 9.5000000e+00 
7.5000000e-01 3.0250001e+00 1.0000000e+01 
7.5000000e-01 3.0250001e+00 1.0500000e+01 
7.5000000e-01 3.0250001e+00 1.1000000e+01 
7.5000000e-01 3.0250001e+00 1.1500000e+01 
7.5000000e-01 3.0250001e+00 1.2000000e+01 
7.5000000e-01 3.0250001e+00 1.2500000e+01 
7.5000000e-01 3.0250001e+00 1.3000000e+01 
7.5000000e-01 3.0250001e+00 1.3500000e+01 
7.5000000e-01 3.0250001e+00 1.4000000e+01 
7.5000000e-01 3.0250001e+00 1.4500000e+01 
7.5000000e-01 3.0250001e+00 1.5000000e+01 
7.5000000e-01 3.0250001e+00 1.5500000e+01 
7.5000000e-01 3.0250001e+00 1.6000000e+01 
7.5000000e-01 3.0250001e+00 1.6500000e+01 
7.5000000e-01 3.0250001e+00 1.7000000e+01 
7.5000000e-01 3.0250001e+00 1.7500000e+01 
7.5000000e-01 3.0250001e+00 1.8000000e+01 
7.5000000e-01 3.0250001e+00 1.8500000e+01 
7.5000000e-01 3.0250001e+00 1.9000000e+01 
7.5000000e-01 3.0250001e+00 1.9500000e+01 
7.5000000e-01 3.0250001e+00 2.0000000e+01 
7.5000000e-01 3.0250001e+00 2.0500000e+01 
7.5000000e-01 3.0250001e+00 2.1000000e+01 
7.5000000e-01 3.0250001e+00 2.1500000e+01 
7.5000000e-01 3.0250001e+00 2.2000000e+01 
7.5000000e-01 3.0250001e+00 2.2500000e+01 
7.5000000e-01 3.0250001e+00 2.3000000e+01 
7.5000000e-01 3.0250001e+00 2.3500000e+01 
7.5000000e-01 3.0250001e+00 2.4000000e+01 
7.5000000e-01 3.0250001e+00 2.4500000e+01 
7.5000000e-01 3.0250001e+00 2.5000000e+01 
7.5000000e-01 3.0250001e+00 2.5500000e+01 
7.5000000e-01 3.0250001e+00 2.6000000e+01 
7.5000000e-01 3.0250001e+00 2.6500000e+01 
7.5000000e-01 3.0250001e+00 2.7000000e+01 
7.5000000e-01 3.0250001e+00 2.7500000e+01 
7.5000000e-01 3.0250001e+00 2.8000000e+01 
7.5000000e-01 3.0250001e+00 2.8500000e+01 
7.5000000e-01 3.0250001e+00 2.9000000e+01 
7.5000000e-01 3.0250001e+00 2.9500000e+01 
7.5000000e-01 3.0250001e+00 3.0000000e+01 
7.5000000e-01 3.0250001e+00 3.0500000e+01 
7.5000000e-01 3.0250001e+00 3.1000000e+01 
7.5000000e-01 3.0250001e+00 3.1500000e+01 
7.5000000e-01 3.0250001e+00 3.2000000e+01 
7.5000000e-01 3.0250001e+00 3.2500000e+01 
7.5000000e-01 3.0250001e+00 3.3000000e+01 
7.5000000e-01 3.0250001e+00 3.3500000e+01 
7.5000000e-01 3.0250001e+00 3.4000000e+01 
7.5000000e-01 3.0250001e+00 3.4500000e+01 
7.5000000e-01 3.0250001e+00 3.5000000e+01 
7.5000000e-01 3.0250001e+00 3.5500000e+01 
7.5000000e-01 3.0250001e+00 3.6000000e+01 
7.5000000e-01 3.0250001e+00 3.6500000e+01 
7.5000000e-01 3.0250001e+00 3.7000000e+01 
7.5000000e-01 3.0250001e+00 3.7500000e+01 
7.5000000e-01 3.0250001e+00 3.8000000e+01 
7.5000000e-01 3.0250001e+00 3.8500000e+01 
7.5000000e-01 3.0250001e+00 3.9000000e+01 
7.5000000e-01 3.0250001e+00 3.9500000e+01 
7.5000000e-01 3.0250001e+00 4.0000000e+01 
7.5000000e-01 3.0250001e+00 4.0500000e+01 
7.5000000e-01 3.0250001e+00 4.1000000e+01 
7.5000000e-01 3.0250001e+00 4.1500000e+01 
7.5000000e-01 3.0250001e+00 4.2000000e+01 
7.5000000e-01 3.0250001e+00 4.2500000e+01 
7.5000000e-01 3.0250001e+00 4.3000000e+01 
7.5000000e-01 3.0250001e+00 4.3500000e+01 
7.5000000e-01 3.0250001e+00 4.4000000e+01 
7.5000000e-01 3.0250001e+00 4.4500000e+01 
7.5000000e-01 3.0250001e+00 4.5000000e+01 
7.5000000e-01 3.0250001e+00 4.5500000e+01 
7.5000000e-01 3.0250001e+00 4.6000000e+01 
7.5000000e-01 3.0250001e+00 4.6500000e+01 
7.5000000e-01 3.0250001e+00 4.7000000e+01 
7.5000000e-01 3.0250001e+00 4.7500000e+01 
7.5000000e-01 3.0250001e+00 4.8000000e+01 
7.5000000e-01 3.0250001e+00 4.8500000e+01 
7.5000000e-01 3.0250001e+00 4.9000000e+01 
7.5000000e-01 3.0250001e+00 4.9500000e+01 
7.5000000e-01 3.0250001e+00 5.0000000e+01 
3.0000000e+00 2.0000000e+00 3.6000000e+01 
8.0487806e-01 3.0000000e+00 3.6000000e+01 
0.0000000e+00 0.0000000e+00 1.0000000e+00 
0.0000000e+00 0.0000000e+00 2.0000000e+00 
0.0000000e+00 0.0000000e+00 3.0000000e+00 
0.0000000e+00 0.0000000e+00 4.0000000e+00 
0.0000000e+00 0.0000000e+00 5.0000000e+00 
0.0000000e+00 0.0000000e+00 6.0000000e+00 
0.0000000e+00 0.0000000e+00 7.0000000e+00 
0.0000000e+00 0.0000000e+00 8.0000000e+00 
[...]
POINT_DATA 1919
FIELD FieldData 3
DISPLACEMENT 3 1919  float
0.0000000e+00 0.0000000e+00 0.0000000e+00 
0.0000000e+00 0.0000000e+00 0.0000000e+00 
0.0000000e+00 0.0000000e+00 0.0000000e+00 
0.0000000e+00 0.0000000e+00 0.0000000e+00 
8.1667509e-05 5.9110794e-06 -1.2287061e-05 
2.8466116e-12 -1.3531987e-12 4.2494588e-11 
0.0000000e+00 -6.5823580e-04 0.0000000e+00 
0.0000000e+00 6.8930334e-11 0.0000000e+00 
1.0063880e-04 -4.3971754e-06 -1.1488342e-05 
3.1254162e-12 -1.4102728e-12 7.0643172e-11 
-5.2606774e-06 -2.9537617e-04 -1.0668848e-04 
2.7601324e-11 2.3422614e-10 1.0741146e-10 
0.0000000e+00 -1.0582304e-03 0.0000000e+00 
0.0000000e+00 -4.4901816e-09 0.0000000e+00 
-2.2656081e-04 -8.1553671e-04 -6.5456209e-04 
1.2171262e-09 6.4446198e-10 2.8106273e-10 
-2.8894725e-04 -1.0774430e-03 -4.4017081e-04 
-3.7456545e-11 -3.6021799e-08 -1.9330859e-09 
0.0000000e+00 -1.4994221e-03 0.0000000e+00 
0.0000000e+00 -4.2534816e-09 0.0000000e+00 
-1.2595090e-04 -1.2525307e-03 -2.2815277e-04 
1.1772067e-05 -1.8302669e-03 -1.3496511e-04 
3.5343306e-05 -2.8126342e-03 6.5000488e-05 
-1.7275022e-04 -3.9884304e-03 -1.3845200e-05 
-5.5513738e-05 -4.8614265e-03 -4.1923749e-06 
-2.7510541e-04 -4.9526333e-03 -1.3906243e-06 
-2.5107322e-04 -4.8316107e-03 3.7853424e-05 
-2.8837271e-04 -4.8804535e-03 -1.3027537e-04 
-3.4834060e-04 -5.1330170e-03 -1.5078297e-04 
-3.9662985e-04 -5.0367927e-03 -2.2303592e-04 
-3.6934824e-04 -4.1309940e-03 -4.4813697e-04 
-2.3791617e-04 -2.8281976e-03 -3.4367703e-04 
-1.2602314e-04 -1.6098461e-03 -3.9586323e-04 
-3.7233251e-05 -6.8074366e-04 -2.1835670e-04 
-9.6628419e-06 -1.0596342e-04 -1.6522175e-04 
1.8832910e-05 1.8022853e-04 -4.2445139e-05 
3.1747764e-05 2.7500771e-04 9.1645288e-06 
2.6779149e-05 2.7136077e-04 4.0199815e-05 
1.7118706e-05 2.3190863e-04 4.2107586e-05 
4.0374848e-06 1.7603273e-04 1.5575357e-05 
-8.7994886e-07 1.0606265e-04 9.4655343e-06 
-2.7632709e-06 3.0023446e-05 -3.1091868e-06 
-3.4562584e-06 -3.1187621e-05 -4.8581792e-06 
-4.5529928e-06 -5.6092740e-05 -6.2648282e-06 
-2.2925137e-06 -4.3126551e-05 7.9765769e-06 
-1.4790784e-06 -2.3463255e-05 6.3483008e-06 
-9.9272924e-08 -2.9213528e-05 1.2002100e-05 
-5.5810951e-06 -6.1037012e-05 2.3166824e-05 
-1.7690325e-05 -8.8239598e-05 5.1815800e-06 
-1.7891734e-05 -6.6897381e-05 -6.4015094e-06 
-1.9034962e-05 1.5449899e-05 -2.2099994e-05 
4.4100034e-06 1.2621956e-04 -3.0050815e-05 
2.4098112e-05 2.3067015e-04 -5.0210729e-05 
6.3030369e-05 3.1523817e-04 -1.9854218e-05 
9.5982839e-05 3.9588599e-04 -4.5738059e-05 
1.1261214e-04 4.9796066e-04 3.3132306e-05 
1.8741220e-04 6.0730148e-04 4.9447237e-05 
1.3766464e-04 6.4457516e-04 8.1451937e-05 
2.5733182e-04 4.9244473e-04 1.4092826e-04 
1.3200473e-04 3.7338836e-05 2.0987181e-04 
2.5460985e-04 -7.5698405e-04 3.3965742e-04 
3.5509504e-05 -1.8269034e-03 2.7906863e-04 
1.0297680e-04 -3.0642306e-03 4.0695543e-04 
-1.4568046e-04 -4.1946829e-03 1.7765959e-04 
-1.1810700e-04 -4.8303818e-03 1.7018135e-04 
-2.5006768e-04 -4.8834058e-03 8.9368159e-06 
-2.2040242e-04 -4.8772804e-03 -5.4493921e-05 
-2.6670334e-04 -5.0106021e-03 -1.6893877e-04 
-2.8318923e-04 -5.1111071e-03 -1.5987236e-04 
-3.4163345e-04 -4.6744575e-03 -2.1475706e-04 
-2.9615947e-04 -3.6064917e-03 -3.7935568e-04 
-1.9960887e-04 -2.3619086e-03 -2.8743327e-04 
-1.3767091e-04 -1.3196423e-03 -3.6982662e-04 
-3.4514873e-05 -5.5816263e-04 -2.0636826e-04 
3.5597564e-06 -6.6028872e-05 -1.5252297e-04 
2.7570979e-05 2.0542328e-04 -2.5286301e-05 
3.0768948e-05 2.9819433e-04 1.9346389e-05 
2.3734085e-05 2.7543551e-04 3.9385541e-05 
1.5203200e-05 2.0244457e-04 3.7740192e-05 
4.3110767e-06 1.2437160e-04 1.3839242e-05 
3.1659779e-06 6.2971674e-05 1.5238271e-05 
-2.5992094e-06 1.6397804e-05 -8.2945337e-07 
-3.0981610e-06 -1.7978617e-05 -4.0504106e-06 
-2.5459767e-06 -3.5896446e-05 -2.5801419e-06 
-3.0339077e-06 -3.2963293e-05 -4.7655635e-06 
-1.4657157e-06 -1.7068589e-05 -8.8512252e-07 
-1.1807265e-08 -2.1226538e-06 6.2824068e-07 
5.8869335e-07 4.3809068e-06 8.7600279e-07 
-1.9954203e-07 3.3459582e-06 5.9665456e-07 
5.0465809e-07 8.7068639e-07 -1.0844162e-08 
3.1321179e-07 1.5972014e-07 1.3132432e-06 
-2.1157368e-07 2.0003448e-07 4.0958932e-07 
-3.5101728e-08 -9.2193471e-07 -1.2167477e-06 
-1.7383597e-07 -1.9597189e-06 9.1973781e-08 
-1.6649447e-07 -4.9311177e-07 6.7609233e-07 
-3.0929797e-08 2.4966328e-06 -5.6144529e-07 
1.5411901e-07 3.7903117e-06 1.9301055e-07 
7.1673362e-08 1.9523168e-06 1.0957179e-07 
-1.0228391e-07 -1.6663896e-06 -3.5349137e-07 
-9.2667854e-08 -3.9144834e-06 2.4289128e-07 
9.9191242e-09 -2.7548381e-06 -4.7727184e-08 
4.6550719e-09 3.4571977e-07 -1.4779715e-07 
2.8578357e-08 2.4146841e-06 1.9106318e-07 
3.1656359e-08 2.1731894e-06 -8.6796765e-09 
-1.3419573e-08 3.9744785e-07 -5.6756427e-08 
-1.9135486e-08 -1.1472035e-06 5.8728947e-08 
-2.6273534e-08 -1.3102972e-06 1.0868963e-08 
4.7762608e-08 -4.7490434e-07 1.1879203e-08 
3.5763261e-08 3.9772451e-07 1.3727303e-08 
2.1749109e-08 6.2342099e-07 -1.5766414e-08 
-9.0997826e-10 2.8807116e-07 -1.6971206e-09 
-5.0481366e-09 -1.3448388e-07 8.8405612e-09 
-2.0504203e-09 -2.7317205e-07 -9.0101686e-09 
-4.0664463e-09 -1.4555634e-07 1.0040271e-09 
1.4839432e-09 3.2914713e-08 4.9209774e-09 
4.5621791e-09 1.0864229e-07 -2.9677394e-09 
-1.2685780e-09 6.9749788e-08 -6.2474175e-12 
6.6868067e-11 2.5264359e-09 -1.7120651e-10 
-6.8764416e-10 -3.0814892e-08 7.3199224e-10 
0.0000000e+00 -1.0754260e-03 0.0000000e+00 
0.0000000e+00 -1.2560409e-03 0.0000000e+00 
0.0000000e+00 -1.8400475e-03 0.0000000e+00 
0.0000000e+00 -2.8287312e-03 0.0000000e+00 
0.0000000e+00 -4.0144883e-03 0.0000000e+00 
0.0000000e+00 -4.8820507e-03 0.0000000e+00 
0.0000000e+00 -4.9811560e-03 0.0000000e+00 
0.0000000e+00 -4.8508109e-03 0.0000000e+00 
0.0000000e+00 -4.9119159e-03 0.0000000e+00 
0.0000000e+00 -5.1559452e-03 0.0000000e+00 
0.0000000e+00 -5.0648185e-03 0.0000000e+00 
0.0000000e+00 -4.1460609e-03 0.0000000e+00 
0.0000000e+00 -2.8422673e-03 0.0000000e+00 
0.0000000e+00 -1.6170194e-03 0.0000000e+00 
0.0000000e+00 -6.8669592e-04 0.0000000e+00 
0.0000000e+00 -1.0715252e-04 0.0000000e+00 
0.0000000e+00 1.8076019e-04 0.0000000e+00 
0.0000000e+00 2.7682562e-04 0.0000000e+00 
0.0000000e+00 2.7390398e-04 0.0000000e+00 
0.0000000e+00 2.3290147e-04 0.0000000e+00 
0.0000000e+00 1.7551421e-04 0.0000000e+00 
0.0000000e+00 1.0512488e-04 0.0000000e+00 
0.0000000e+00 2.9908475e-05 0.0000000e+00 
0.0000000e+00 -3.0045445e-05 0.0000000e+00 
0.0000000e+00 -5.4247404e-05 0.0000000e+00 
0.0000000e+00 -4.2887772e-05 0.0000000e+00 
0.0000000e+00 -2.5048788e-05 0.0000000e+00 
0.0000000e+00 -3.1103686e-05 0.0000000e+00 
0.0000000e+00 -6.2090876e-05 0.0000000e+00 
0.0000000e+00 -8.6825698e-05 0.0000000e+00 
0.0000000e+00 -6.4510430e-05 0.0000000e+00 
0.0000000e+00 1.5981621e-05 0.0000000e+00 
0.0000000e+00 1.2553971e-04 0.0000000e+00 
0.0000000e+00 2.2914477e-04 0.0000000e+00 
0.0000000e+00 3.1444069e-04 0.0000000e+00 
0.0000000e+00 3.9747416e-04 0.0000000e+00 
0.0000000e+00 5.0111522e-04 0.0000000e+00 
0.0000000e+00 6.1019242e-04 0.0000000e+00 
0.0000000e+00 6.4592256e-04 0.0000000e+00 
0.0000000e+00 4.8918172e-04 0.0000000e+00 
0.0000000e+00 3.1793497e-05 0.0000000e+00 
0.0000000e+00 -7.6052849e-04 0.0000000e+00 
0.0000000e+00 -1.8360753e-03 0.0000000e+00 
0.0000000e+00 -3.0776616e-03 0.0000000e+00 
0.0000000e+00 -4.2215148e-03 0.0000000e+00 
0.0000000e+00 -4.8576384e-03 0.0000000e+00 
0.0000000e+00 -4.9131843e-03 0.0000000e+00 
0.0000000e+00 -4.8970054e-03 0.0000000e+00 
0.0000000e+00 -5.0348514e-03 0.0000000e+00 
0.0000000e+00 -5.1331287e-03 0.0000000e+00 
0.0000000e+00 -4.7034682e-03 0.0000000e+00 
0.0000000e+00 -3.6230171e-03 0.0000000e+00 
0.0000000e+00 -2.3757212e-03 0.0000000e+00 
0.0000000e+00 -1.3234433e-03 0.0000000e+00 
0.0000000e+00 -5.5972411e-04 0.0000000e+00 
0.0000000e+00 -6.5939465e-05 0.0000000e+00 
0.0000000e+00 2.0442583e-04 0.0000000e+00 
0.0000000e+00 2.9842640e-04 0.0000000e+00 
0.0000000e+00 2.7686922e-04 0.0000000e+00 
0.0000000e+00 2.0367645e-04 0.0000000e+00 
0.0000000e+00 1.2529374e-04 0.0000000e+00 
0.0000000e+00 6.2908082e-05 0.0000000e+00 
0.0000000e+00 1.6180838e-05 0.0000000e+00 
0.0000000e+00 -1.7836996e-05 0.0000000e+00 
0.0000000e+00 -3.5305278e-05 0.0000000e+00 
0.0000000e+00 -3.2817996e-05 0.0000000e+00 
0.0000000e+00 -1.7531813e-05 0.0000000e+00 
0.0000000e+00 -2.5144634e-06 0.0000000e+00 
0.0000000e+00 4.2704132e-06 0.0000000e+00 
0.0000000e+00 3.5484604e-06 0.0000000e+00 
0.0000000e+00 1.0169246e-06 0.0000000e+00 
0.0000000e+00 1.2149870e-07 0.0000000e+00 
0.0000000e+00 6.5817261e-08 0.0000000e+00 
0.0000000e+00 -9.2144643e-07 0.0000000e+00 
0.0000000e+00 -1.7705432e-06 0.0000000e+00 
0.0000000e+00 -4.2554012e-07 0.0000000e+00 
0.0000000e+00 2.3496136e-06 0.0000000e+00 
0.0000000e+00 3.6562847e-06 0.0000000e+00 
0.0000000e+00 1.9295726e-06 0.0000000e+00 
0.0000000e+00 -1.5679790e-06 0.0000000e+00 
0.0000000e+00 -3.7598343e-06 0.0000000e+00 
0.0000000e+00 -2.7303140e-06 0.0000000e+00 
0.0000000e+00 2.2664226e-07 0.0000000e+00 
0.0000000e+00 2.3248051e-06 0.0000000e+00 
0.0000000e+00 2.1652581e-06 0.0000000e+00 
0.0000000e+00 4.4880363e-07 0.0000000e+00 
0.0000000e+00 -1.0822989e-06 0.0000000e+00 
0.0000000e+00 -1.3016011e-06 0.0000000e+00 
0.0000000e+00 -4.9929645e-07 0.0000000e+00 
0.0000000e+00 3.6408878e-07 0.0000000e+00 
0.0000000e+00 6.1444888e-07 0.0000000e+00 
0.0000000e+00 2.9907702e-07 0.0000000e+00 
0.0000000e+00 -1.1638353e-07 0.0000000e+00 
0.0000000e+00 -2.6740148e-07 0.0000000e+00 
0.0000000e+00 -1.5203607e-07 0.0000000e+00 
0.0000000e+00 2.5510785e-08 0.0000000e+00 
0.0000000e+00 1.0580427e-07 0.0000000e+00 
0.0000000e+00 7.2841530e-08 0.0000000e+00 
0.0000000e+00 6.4814154e-09 0.0000000e+00 
0.0000000e+00 -3.0765868e-08 0.0000000e+00 
0.0000000e+00 -3.8168015e-08 0.0000000e+00 
-5.5204458e-07 -3.6114875e-07 -9.8103806e-07 
-2.7688912e-07 1.3000246e-06 8.8249158e-07 
0.0000000e+00 0.0000000e+00 0.0000000e+00 
0.0000000e+00 0.0000000e+00 0.0000000e+00 
0.0000000e+00 0.0000000e+00 0.0000000e+00 
0.0000000e+00 0.0000000e+00 0.0000000e+00 
0.0000000e+00 0.0000000e+00 0.0000000e+00 
0.0000000e+00 0.0000000e+00 0.0000000e+00 
0.0000000e+00 0.0000000e+00 0.0000000e+00 
0.0000000e+00 0.0000000e+00 0.0000000e+00 
0.0000000e+00 0.0000000e+00 0.0000000e+00 
0.0000000e+00 0.0000000e+00 0.0000000e+00 
0.0000000e+00 0.0000000e+00 0.0000000e+00 
0.0000000e+00 0.0000000e+00 0.0000000e+00 
0.0000000e+00 0.0000000e+00 0.0000000e+00 
0.0000000e+00 0.0000000e+00 0.0000000e+00 
0.0000000e+00 0.0000000e+00 0.0000000e+00 
0.0000000e+00 0.0000000e+00 0.0000000e+00 
0.0000000e+00 0.0000000e+00 0.0000000e+00 
0.0000000e+00 0.0000000e+00 0.0000000e+00 
0.0000000e+00 0.0000000e+00 0.0000000e+00 
0.0000000e+00 0.0000000e+00 0.0000000e+00 
0.0000000e+00 0.0000000e+00 0.0000000e+00 
0.0000000e+00 0.0000000e+00 0.0000000e+00 
0.0000000e+00 0.0000000e+00 0.0000000e+00 
0.0000000e+00 0.0000000e+00 0.0000000e+00 
0.0000000e+00 0.0000000e+00 0.0000000e+00 
0.0000000e+00 0.0000000e+00 0.0000000e+00 
0.0000000e+00 0.0000000e+00 0.0000000e+00 
0.0000000e+00 0.0000000e+00 0.0000000e+00 
0.0000000e+00 0.0000000e+00 0.0000000e+00 
0.0000000e+00 0.0000000e+00 0.0000000e+00 
0.0000000e+00 0.0000000e+00 0.0000000e+00 
0.0000000e+00 0.0000000e+00 0.0000000e+00 
0.0000000e+00 0.0000000e+00 0.0000000e+00 
0.0000000e+00 0.0000000e+00 0.0000000e+00 
0.0000000e+00 0.0000000e+00 0.0000000e+00 
0.0000000e+00 0.0000000e+00 0.0000000e+00 
0.0000000e+00 0.0000000e+00 0.0000000e+00 
0.0000000e+00 0.0000000e+00 0.0000000e+00 
0.0000000e+00 0.0000000e+00 0.0000000e+00 
0.0000000e+00 0.0000000e+00 0.0000000e+00 
0.0000000e+00 0.0000000e+00 0.0000000e+00 
0.0000000e+00 0.0000000e+00 0.0000000e+00 
0.0000000e+00 0.0000000e+00 0.0000000e+00 
0.0000000e+00 0.0000000e+00 0.0000000e+00 
0.0000000e+00 0.0000000e+00 0.0000000e+00 
0.0000000e+00 0.0000000e+00 0.0000000e+00 
0.0000000e+00 0.0000000e+00 0.0000000e+00 
0.0000000e+00 0.0000000e+00 0.0000000e+00 
0.0000000e+00 0.0000000e+00 0.0000000e+00 
0.0000000e+00 0.0000000e+00 0.0000000e+00 
0.0000000e+00 0.0000000e+00 0.0000000e+00 
0.0000000e+00 0.0000000e+00 0.0000000e+00 
0.0000000e+00 0.0000000e+00 0.0000000e+00 
0.0000000e+00 0.0000000e+00 0.0000000e+00 
0.0000000e+00 0.0000000e+00 0.0000000e+00 
0.0000000e+00 0.0000000e+00 0.0000000e+00 
0.0000000e+00 0.0000000e+00 0.0000000e+00 
0.0000000e+00 0.0000000e+00 0.0000000e+00 
0.0000000e+00 0.0000000e+00 0.0000000e+00 
0.0000000e+00 0.0000000e+00 0.0000000e+00 
0.0000000e+00 0.0000000e+00 0.0000000e+00 
0.0000000e+00 0.0000000e+00 0.0000000e+00 
0.0000000e+00 0.0000000e+00 0.0000000e+00 
0.0000000e+00 0.0000000e+00 0.0000000e+00 
0.0000000e+00 0.0000000e+00 0.0000000e+00 
0.0000000e+00 0.0000000e+00 0.0000000e+00 
0.0000000e+00 0.0000000e+00 0.0000000e+00 
0.0000000e+00 0.0000000e+00 0.0000000e+00 
0.0000000e+00 0.0000000e+00 0.0000000e+00 
0.0000000e+00 0.0000000e+00 0.0000000e+00 
0.0000000e+00 0.0000000e+00 0.0000000e+00 
0.0000000e+00 0.0000000e+00 0.0000000e+00 
0.0000000e+00 0.0000000e+00 0.0000000e+00 
0.0000000e+00 0.0000000e+00 0.0000000e+00 
0.0000000e+00 0.0000000e+00 0.0000000e+00 
0.0000000e+00 0.0000000e+00 0.0000000e+00 
0.0000000e+00 0.0000000e+00 0.0000000e+00 
0.0000000e+00 0.0000000e+00 0.0000000e+00 
0.0000000e+00 0.0000000e+00 0.0000000e+00 
0.0000000e+00 0.0000000e+00 0.0000000e+00 
0.0000000e+00 0.0000000e+00 0.0000000e+00 
0.0000000e+00 0.0000000e+00 0.0000000e+00 
0.0000000e+00 0.0000000e+00 0.0000000e+00 
0.0000000e+00 0.0000000e+00 0.0000000e+00 
0.0000000e+00 0.0000000e+00 0.0000000e+00 
0.0000000e+00 0.0000000e+00 0.0000000e+00 
0.0000000e+00 0.0000000e+00 0.0000000e+00 
0.0000000e+00 0.0000000e+00 0.0000000e+00 
0.0000000e+00 0.0000000e+00 0.0000000e+00 
0.0000000e+00 0.0000000e+00 0.0000000e+00 
0.0000000e+00 0.0000000e+00 0.0000000e+00 
0.0000000e+00 0.0000000e+00 0.0000000e+00 
0.0000000e+00 0.0000000e+00 0.0000000e+00 
0.0000000e+00 0.0000000e+00 0.0000000e+00 
0.0000000e+00 0.0000000e+00 0.0000000e+00 
0.0000000e+00 0.0000000e+00 0.0000000e+00 
0.0000000e+00 0.0000000e+00 0.0000000e+00 
0.0000000e+00 0.0000000e+00 0.0000000e+00 
0.0000000e+00 0.0000000e+00 0.0000000e+00 
0.0000000e+00 0.0000000e+00 0.0000000e+00 
0.0000000e+00 0.0000000e+00 0.0000000e+00 
0.0000000e+00 0.0000000e+00 0.0000000e+00 
0.0000000e+00 0.0000000e+00 0.0000000e+00 
0.0000000e+00 0.0000000e+00 0.0000000e+00 
0.0000000e+00 0.0000000e+00 0.0000000e+00 
0.0000000e+00 0.0000000e+00 0.0000000e+00 
7.2981456e-05 4.4542521e-06 -1.5410575e-05 
7.2267270e-05 1.3740803e-06 -1.9623874e-05 
7.6145203e-05 6.0314278e-06 -8.6343125e-06 
7.4259166e-05 3.0948631e-05 1.1553114e-05 
6.7195731e-05 -1.4831062e-06 2.7429951e-05 
4.9655075e-05 -5.2410351e-06 3.6694557e-05 
3.2809545e-05 -4.5773090e-06 2.5332076e-05 
7.3750616e-06 -5.8196101e-06 9.5214100e-06 
1.2267383e-06 -3.8125993e-06 2.2394877e-06 
-3.9529226e-07 -9.3235244e-08 -5.5469576e-07 
-5.3369848e-07 3.3040521e-06 -1.9919451e-06 
2.8206426e-08 -5.8363173e-07 -6.2160649e-07 
2.1229109e-06 -3.1786149e-06 -2.6445050e-06 
2.8805925e-06 3.5364137e-06 -4.1914818e-06 
2.5805437e-06 -3.6116128e-06 -6.2146592e-06 
3.0216938e-06 -6.4722899e-06 -1.0039603e-05 
7.2016601e-06 -1.9082611e-06 -1.6738315e-05 
1.5994108e-05 1.1229728e-05 -1.8601844e-05 
2.9436616e-05 9.5554778e-06 -2.3989702e-05 
5.3713855e-05 2.7682703e-05 -2.9150429e-05 
7.4567841e-05 2.8521485e-05 -2.3126715e-05 
8.6945729e-05 1.8825554e-05 -4.0296322e-06 
9.0560250e-05 1.4219904e-05 1.0795943e-05 
8.8145156e-05 1.0241107e-05 2.4147084e-05 
6.9490205e-05 -8.9497962e-07 3.8512604e-05 
4.2252595e-05 -7.8148823e-06 3.5297999e-05 
2.1998092e-05 -4.0794148e-06 2.2820508e-05 
4.6688765e-06 -8.0449963e-06 6.9812290e-06 
-6.0603483e-08 -3.4795823e-06 1.7433401e-06 
3.0646490e-07 1.1437985e-06 6.7737147e-08 
-7.4192775e-07 2.6969083e-06 -5.5524771e-07 
-1.1016864e-07 -1.1341052e-06 7.5814356e-08 
3.4999662e-08 -8.9377062e-07 2.2252751e-08 
-1.7210191e-07 8.2998713e-07 8.0001090e-09 
-9.7407451e-08 1.4322818e-07 1.9402090e-07 
6.4996414e-08 -2.2380679e-07 4.1396234e-08 
-2.0090436e-08 5.0676984e-08 -2.3170333e-08 
1.5241859e-08 3.3582111e-08 2.7750213e-08 
3.4512826e-09 -1.6752474e-09 7.8497555e-09 
-4.1663534e-10 -2.7181791e-08 -2.6100631e-09 
-2.0131401e-09 1.2794416e-08 1.6858268e-09 
-6.6634205e-11 -4.8429678e-09 1.5024088e-09 
-1.1932491e-10 -1.1945614e-09 -8.4348258e-11 
-2.0356511e-10 8.0025297e-10 8.8027652e-10 
9.5422475e-11 -1.1234420e-10 3.5670802e-10 
1.1856168e-11 -5.8891461e-11 1.6476093e-10 
1.7593543e-11 5.5709090e-11 1.2146022e-10 
8.8348296e-12 -2.9888324e-11 6.9226382e-11 
-2.7054275e-12 -4.6277093e-11 4.1360436e-11 
0.0000000e+00 -6.1870198e-04 0.0000000e+00 
0.0000000e+00 -7.1967265e-04 0.0000000e+00 
0.0000000e+00 -8.1359642e-04 0.0000000e+00 
0.0000000e+00 -7.4226793e-04 0.0000000e+00 
0.0000000e+00 -6.2186894e-04 0.0000000e+00 
0.0000000e+00 -4.2446968e-04 0.0000000e+00 
0.0000000e+00 -1.8763446e-04 0.0000000e+00 
0.0000000e+00 2.1625803e-05 0.0000000e+00 
0.0000000e+00 8.5433952e-05 0.0000000e+00 
0.0000000e+00 2.4413044e-05 0.0000000e+00 
0.0000000e+00 -7.8972680e-06 0.0000000e+00 
0.0000000e+00 1.1085397e-07 0.0000000e+00 
0.0000000e+00 -2.3929645e-06 0.0000000e+00 
0.0000000e+00 -1.5231382e-05 0.0000000e+00 
0.0000000e+00 2.5572966e-05 0.0000000e+00 
0.0000000e+00 1.8891520e-05 0.0000000e+00 
0.0000000e+00 -1.5797501e-05 0.0000000e+00 
0.0000000e+00 -4.2967745e-06 0.0000000e+00 
0.0000000e+00 -8.5744960e-06 0.0000000e+00 
0.0000000e+00 -2.0883318e-04 0.0000000e+00 
0.0000000e+00 -4.2355465e-04 0.0000000e+00 
0.0000000e+00 -6.5266492e-04 0.0000000e+00 
0.0000000e+00 -7.9320051e-04 0.0000000e+00 
0.0000000e+00 -7.9181645e-04 0.0000000e+00 
0.0000000e+00 -6.3265115e-04 0.0000000e+00 
0.0000000e+00 -3.7726294e-04 0.0000000e+00 
0.0000000e+00 -1.5304095e-04 0.0000000e+00 
0.0000000e+00 2.5819054e-05 0.0000000e+00 
0.0000000e+00 7.0234637e-05 0.0000000e+00 
0.0000000e+00 2.2475861e-05 0.0000000e+00 
0.0000000e+00 -2.8688585e-06 0.0000000e+00 
0.0000000e+00 -9.5149499e-06 0.0000000e+00 
0.0000000e+00 -5.3818244e-06 0.0000000e+00 
0.0000000e+00 2.9027610e-06 0.0000000e+00 
0.0000000e+00 3.2278992e-06 0.0000000e+00 
0.0000000e+00 1.8203648e-06 0.0000000e+00 
0.0000000e+00 -1.5755180e-06 0.0000000e+00 
0.0000000e+00 -9.5026087e-07 0.0000000e+00 
0.0000000e+00 9.0946099e-07 0.0000000e+00 
0.0000000e+00 1.7867205e-07 0.0000000e+00 
0.0000000e+00 -6.1100013e-07 0.0000000e+00 
0.0000000e+00 2.8833452e-07 0.0000000e+00 
0.0000000e+00 8.1711526e-09 0.0000000e+00 
0.0000000e+00 -3.9693600e-08 0.0000000e+00 
0.0000000e+00 2.7289188e-08 0.0000000e+00 
0.0000000e+00 3.0419660e-08 0.0000000e+00 
0.0000000e+00 -2.0524434e-08 0.0000000e+00 
0.0000000e+00 5.1577658e-09 0.0000000e+00 
0.0000000e+00 -6.8155807e-11 0.0000000e+00 
1.0116342e-04 -2.1132957e-05 -2.3212364e-05 
6.1157523e-05 -1.6630696e-04 -7.0570641e-05 
8.7745655e-05 -3.3931856e-04 -1.5029720e-04 
7.6339129e-05 -6.1333179e-04 -1.7414620e-04 
-1.0664180e-11 -7.9850369e-11 3.2444044e-11 
-4.2466648e-11 6.1321663e-11 -1.2716789e-12 
8.2734847e-11 -1.2065761e-10 3.3958508e-10 
7.3090950e-11 2.2535224e-10 -2.4156932e-10 
1.9906283e-05 1.5662081e-05 8.6081735e-07 
-8.6039688e-07 -6.4825990e-06 -2.2936476e-05 
1.8943740e-05 5.7931657e-06 -3.8090864e-05 
4.8793921e-05 4.7619582e-05 -1.7421729e-05 
7.4321768e-05 2.0154750e-05 2.4584657e-05 
5.5567511e-05 1.1872589e-05 4.4440112e-05 
2.8517024e-05 6.3714556e-06 3.6845759e-05 
1.0493666e-05 1.0595357e-06 1.6348398e-05 
6.8300969e-09 -4.1626772e-06 -4.1746083e-07 
-3.0389185e-06 5.1676659e-07 -4.0523983e-06 
-2.7703411e-06 4.2393867e-06 -2.1997055e-06 
8.4616840e-07 -1.5693395e-06 1.8337644e-10 
5.3936606e-06 -2.0339728e-06 -5.7403936e-06 
1.0521732e-06 6.5116119e-06 -5.8842652e-06 
1.9832669e-06 -4.8692023e-06 -7.3333058e-06 
8.3592749e-06 -1.0741816e-05 -1.5177232e-05 
1.9930410e-05 2.9908285e-06 -1.5704254e-05 
2.6359925e-05 1.0480249e-05 -6.6568682e-06 
2.6974807e-05 2.9347264e-06 -1.6296810e-05 
3.9937058e-05 2.8419558e-05 -2.1709757e-05 