# vtk DataFile Version 4.0
vtk output
ASCII
DATASET UNSTRUCTURED_GRID
POINTS 1919 float
0.0000000e+00 0.0000000e+00 0.0000000e+00 
0.0000000e+00 0.0000000e+00 5.0000000e+01 
5.0000000e+00 0.0000000e+00 0.0000000e+00 
5.0000000e+00 0.0000000e+00 5.0000000e+01 
5.0000000e+00 1.0000000e+00 0.0000000e+00 
5.0000000e+00 1.0000000e+00 5.0000000e+01 
0.0000000e+00 1.0000000e+00 0.0000000e+00 
0.0000000e+00 1.0000000e+00 5.0000000e+01 
5.0000000e+00 2.0000000e+00 0.0000000e+00 
5.0000000e+00 2.0000000e+00 5.0000000e+01 
3.0000000e+00 2.0000000e+00 0.0000000e+00 
3.0000000e+00 2.0000000e+00 5.0000000e+01 
0.0000000e+00 2.0000000e+00 0.0000000e+00 
0.0000000e+00 2.0000000e+00 5.0000000e+01 
1.5000000e+00 3.0000000e+00 0.0000000e+00 
1.5000000e+00 3.0000000e+00 5.0000000e+01 
7.5000000e-01 3.0000000e+00 0.0000000e+00 
7.5000000e-01 3.0000000e+00 5.0000000e+01 
0.0000000e+00 3.0000000e+00 0.0000000e+00 
0.0000000e+00 3.0000000e+00 5.0000000e+01 
7.5000000e-01 3.0000000e+00 5.0000000e-01 
7.5000000e-01 3.0000000e+00 1.0000000e+00 
7.5000000e-01 3.0000000e+00 1.5000000e+00 
7.5000000e-01 3.0000000e+00 2.0000000e+00 
7.5000000e-01 3.0000000e+00 2.5000000e+00 
7.5000000e-01 3.0000000e+00 3.0000000e+00 
7.5000000e-01 3.0000000e+00 3.5000000e+00 
7.5000000e-01 3.0000000e+00 4.0000000e+00 
7.5000000e-01 3.0000000e+00 4.5000000e+00 
7.5000000e-01 3.0000000e+00 5.0000000e+00 
7.5000000e-01 3.0000000e+00 5.5000000e+00 
7.5000000e-01 3.0000000e+00 6.0000000e+00 
7.5000000e-01 3.0000000e+00 6.5000000e+00 
7.5000000e-01 3.0000000e+00 7.0000000e+00 
7.5000000e-01 3.0000000e+00 7.5000000e+00 
7.5000000e-01 3.0000000e+00 8.0000000e+00 
7.5000000e-01 3.0000000e+00 8.5000000e+00 
7.5000000e-01 3.0000000e+00 9.0000000e+00 
7.5000000e-01 3.0000000e+00 9.5000000e+00 
7.5000000e-01 3.0000000e+00 1.0000000e+01 
7.5000000e-01 3.0000000e+00 1.0500000e+01 
7.5000000e-01 3.0000000e+00 1.1000000e+01 
7.5000000e-01 3.0000000e+00 1.1500000e+01 
7.5000000e-01 3.0000000e+00 1.2000000e+01 
7.5000000e-01 3.0000000e+00 1.2500000e+01 
7.5000000e-01 3.0000000e+00 1.3000000e+01 
7.5000000e-01 3.0000000e+00 1.3500000e+01 
7.5000000e-01 3.0000000e+00 1.4000000e+01 
7.5000000e-01 3.0000000e+00 1.4500000e+01 
7.5000000e-01 3.0000000e+00 1.5000000e+01 
7.5000000e-01 3.0000000e+00 1.5500000e+01 
7.5000000e-01 3.0000000e+00 1.6000000e+01 
7.5000000e-01 3.0000000e+00 1.6500000e+01 
7.5000000e-01 3.0000000e+00 1.7000000e+01 
7.5000000e-01 3.0000000e+00 1.7500000e+01 
7.5000000e-01 3.0000000e+00 1.8000000e+01 
7.5000000e-01 3.0000000e+00 1.8500000e+01 
7.5000000e-01 3.0000000e+00 1.9000000e+01 
7.5000000e-01 3.0000000e+00 1.9500000e+01 
7.5000000e-01 3.0000000e+00 2.0000000e+01 
7.5000000e-01 3.0000000e+00 2.0500000e+01 
7.5000000e-01 3.0000000e+00 2.1000000e+01 
7.5000000e-01 3.0000000e+00 2.1500000e+01 
7.5000000e-01 3.0000000e+00 2.2000000e+01 
7.5000000e-01 3.0000000e+00 2.2500000e+01 
7.5000000e-01 3.0000000e+00 2.3000000e+01 
7.5000000e-01 3.0000000e+00 2.3500000e+01 
7.5000000e-01 3.0000000e+00 2.4000000e+01 
7.5000000e-01 3.0000000e+00 2.4500000e+01 
7.5000000e-01 3.0000000e+00 2.5000000e+01 
7.5000000e-01 3.0000000e+00 2.5500000e+01 
7.5000000e-01 3.0000000e+00 2.6000000e+01 
7.5000000e-01 3.0000000e+00 2.6500000e+01 
7.5000000e-01 3.0000000e+00 2.7000000e+01 
7.5000000e-01 3.0000000e+00 2.7500000e+01 
7.5000000e-01 3.0000000e+00 2.8000000e+01 
7.5000000e-01 3.0000000e+00 2.8500000e+01 
7.5000000e-01 3.0000000e+00 2.9000000e+01 
7.5000000e-01 3.0000000e+00 2.9500000e+01 
7.5000000e-01 3.0000000e+00 3.0000000e+01 
7.5000000e-01 3.0000000e+00 3.0500000e+01 
7.5000000e-01 3.0000000e+00 3.1000000e+01 
7.5000000e-01 3.0000000e+00 3.1500000e+01 
7.5000000e-01 3.0000000e+00 3.2000000e+01 
7.5000000e-01 3.0000000e+00 3.2500000e+01 
7.5000000e-01 3.0000000e+00 3.3000000e+01 
7.5000000e-01 3.0000000e+00 3.3500000e+01 
7.5000000e-01 3.0000000e+00 3.4000000e+01 
7.5000000e-01 3.0000000e+00 3.4500000e+01 
7.5000000e-01 3.0000000e+00 3.5000000e+01 
7.5000000e-01 3.0000000e+00 3.5500000e+01 
7.5000000e-01 3.0000000e+00 3.6000000e+01 
7.5000000e-01 3.0000000e+00 3.6500000e+01 
7.5000000e-01 3.0000000e+00 3.7000000e+01 
7.5000000e-01 3.0000000e+00 3.7500000e+01 
7.5000000e-01 3.0000000e+00 3.8000000e+01 
7.5000000e-01 3.0000000e+00 3.8500000e+01 
7.5000000e-01 3.0000000e+00 3.9000000e+01 
7.5000000e-01 3.0000000e+00 3.9500000e+01 
7.5000000e-01 3.0000000e+00 4.0000000e+01 
7.5000000e-01 3.0000000e+00 4.0500000e+01 
7.5000000e-01 3.0000000e+00 4.1000000e+01 
7.5000000e-01 3.0000000e+00 4.1500000e+01 
7.5000000e-01 3.0000000e+00 4.2000000e+01 
7.5000000e-01 3.0000000e+00 4.2500000e+01 
7.5000000e-01 3.0000000e+00 4.3000000e+01 
7.5000000e-01 3.0000000e+00 4.3500000e+01 
7.5000000e-01 3.0000000e+00 4.4000000e+01 
7.5000000e-01 3.0000000e+00 4.4500000e+01 
7.5000000e-01 3.0000000e+00 4.5000000e+01 
7.5000000e-01 3.0000000e+00 4.5500000e+01 
7.5000000e-01 3.0000000e+00 4.6000000e+01 
7.5000000e-01 3.0000000e+00 4.6500000e+01 
7.5000000e-01 3.0000000e+00 4.7000000e+01 
7.5000000e-01 3.0000000e+00 4.7500000e+01 
7.5000000e-01 3.0000000e+00 4.8000000e+01 
7.5000000e-01 3.0000000e+00 4.8500000e+01 
7.5000000e-01 3.0000000e+00 4.9000000e+01 
7.5000000e-01 3.0000000e+00 4.9500000e+01 
7.5000000e-01 3.0250001e+00 0.0000000e+00 
7.5000000e-01 3.0250001e+00 5.0000000e-01 
7.5000000e-01 3.0250001e+00 1.0000000e+00 
7.5000000e-01 3.0250001e+00 1.5000000e+00 
7.5000000e-01 3.0250001e+00 2.0000000e+00 
7.5000000e-01 3.0250001e+00 2.5000000e+00 
7.5000000e-01 3.0250001e+00 3.0000000e+00 
7.5000000e-01 3.0250001e+00 3.5000000e+00 
7.5000000e-01 3.0250001e+00 4.0000000e+00 
7.5000000e-01 3.0250001e+00 4.5000000e+00 
7.5000000e-01 3.0250001e+00 5.0000000e+00 
7.5000000e-01 3.0250001e+00 5.5000000e+00 
7.5000000e-01 3.0250001e+00 6.0000000e+00 
7.5000000e-01 3.0250001e+00 6.5000000e+00 
7.5000000e-01 3.0250001e+00 7.0000000e+00 
7.5000000e-01 3.0250001e+00 7.5000000e+00 
7.5000000e-01 3.0250001e+00 8.0000000e+00 
7.5000000e-01 3.0250001e+00 8.5000000e+00 
7.5000000e-01 3.0250001e+00 9.0000000e+00 
7.5000000e-01 3.0250001e+00 9.5000000e+00 
7.5000000e-01 3.0250001e+00 1.0000000e+01 
7.5000000e-01 3.0250001e+00 1.0500000e+01 
7.5000000e-01 3.0250001e+00 1.1000000e+01 
7.5000000e-01 3.0250001e+00 1.1500000e+01 
7.5000000e-01 3.0250001e+00 1.2000000e+01 
7.5000000e-01 3.0250001e+00 1.2500000e+01 
7.5000000e-01 3.0250001e+00 1.3000000e+01 
7.5000000e-01 3.0250001e+00 1.3500000e+01 
7.5000000e-01 3.0250001e+00 1.4000000e+01 
7.5000000e-01 3.0250001e+00 1.4500000e+01 
7.5000000e-01 3.0250001e+00 1.5000000e+01 
7.5000000e-01 3.0250001e+00 1.5500000e+01 
7.5000000e-01 3.0250001e+00 1.6000000e+01 
7.5000000e-01 3.0250001e+00 1.6500000e+01 
7.5000000e-01 3.0250001e+00 1.7000000e+01 
7.5000000e-01 3.0250001e+00 1.7500000e+01 
7.5000000e-01 3.0250001e+00 1.8000000e+01 
7.5000000e-01 3.0250001e+00 1.8500000e+01 
7.5000000e-01 3.0250001e+00 1.9000000e+01 
7.5000000e-01 3.0250001e+00 1.9500000e+01 
7.5000000e-01 3.0250001e+00 2.0000000e+01 
7.5000000e-01 3.0250001e+00 2.0500000e+01 
7.5000000e-01 3.0250001e+00 2.1000000e+01 
7.5000000e-01 3.0250001e+00 2.1500000e+01 
7.5000000e-01 3.0250001e+00 2.2000000e+01 
7.5000000e-01 3.0250001e+00 2.2500000e+01 
7.5000000e-01 3.0250001e+00 2.3000000e+01 
7.5000000e-01 3.0250001e+00 2.3500000e+01 
7.5000000e-01 3.0250001e+00 2.4000000e+01 
7.5000000e-01 3.0250001e+00 2.4500000e+01 
7.5000000e-01 3.0250001e+00 2.5000000e+01 
7.5000000e-01 3.0250001e+00 2.5500000e+01 
7.5000000e-01 3.0250001e+00 2.6000000e+01 
7.5000000e-01 3.0250001e+00 2.6500000e+01 
7.5000000e-01 3.0250001e+00 2.7000000e+01 
7.5000000e-01 3.0250001e+00 2.7500000e+01 
7.5000000e-01 3.0250001e+00 2.8000000e+01 
7.5000000e-01 3.0250001e+00 2.8500000e+01 
7.5000000e-01 3.0250001e+00 2.9000000e+01 
7.5000000e-01 3.0250001e+00 2.9500000e+01 
7.5000000e-01 3.0250001e+00 3.0000000e+01 
7.5000000e-01 3.0250001e+00 3.0500000e+01 
7.5000000e-01 3.0250001e+00 3.1000000e+01 
7.5000000e-01 3.0250001e+00 3.1500000e+01 
7.5000000e-01 3.0250001e+00 3.2000000e+01 
7.5000000e-01 3.0250001e+00 3.2500000e+01 
7.5000000e-01 3.0250001e+00 3.3000000e+01 
7.5000000e-01 3.0250001e+00 3.3500000e+01 
7.5000000e-01 3.0250001e+00 3.4000000e+01 
7.5000000e-01 3.0250001e+00 3.4500000e+01 
7.5000000e-01 3.0250001e+00 3.5000000e+01 
7.5000000e-01 3.0250001e+00 3.5500000e+01 
7.5000000e-01 3.0250001e+00 3.6000000e+01 
7.5000000e-01 3.0250001e+00 3.6500000e+01 
7.5000000e-01 3.0250001e+00 3.7000000e+01 
7.5000000e-01 3.0250001e+00 3.7500000e+01 
7.5000000e-01 3.0250001e+00 3.8000000e+01 
7.5000000e-01 3.0250001e+00 3.8500000e+01 
7.5000000e-01 3.0250001e+00 3.9000000e+01 
7.5000000e-01 3.0250001e+00 3.9500000e+01 
7.5000000e-01 3.0250001e+00 4.0000000e+01 
7.5000000e-01 3.0250001e+00 4.0500000e+01 
7.5000000e-01 3.0250001e+00 4.1000000e+01 
7.5000000e-01 3.0250001e+00 4.1500000e+01 
7.5000000e-01 3.0250001e+00 4.2000000e+01 
7.5000000e-01 3.0250001e+00 4.2500000e+01 
7.5000000e-01 3.0250001e+00 4.3000000e+01 
7.5000000e-01 3.0250001e+00 4.3500000e+01 
7.5000000e-01 3.0250001e+00 4.4000000e+01 
7.5000000e-01 3.0250001e+00 4.4500000e+01 
7.5000000e-01 3.0250001e+00 4.5000000e+01 
7.5000000e-01 3.0250001e+00 4.5500000e+01 
7.5000000e-01 3.0250001e+00 4.6000000e+01 
7.5000000e-01 3.0250001e+00 4.6500000e+01 
7.5000000e-01 3.0250001e+00 4.7000000e+01 
7.5000000e-01 3.0250001e+00 4.7500000e+01 
7.5000000e-01 3.0250001e+00 4.8000000e+01 
7.5000000e-01 3.0250001e+00 4.8500000e+01 
7.5000000e-01 3.0250001e+00 4.9000000e+01 
7.5000000e-01 3.0250001e+00 4.9500000e+01 
7.5000000e-01 3.0250001e+00 5.0000000e+01 
3.0000000e+00 2.0000000e+00 3.6000000e+01 
8.0487806e-01 3.0000000e+00 3.6000000e+01 
0.0000000e+00 0.0000000e+00 1.0000000e+00 
0.0000000e+00 0.0000000e+00 2.0000000e+00 
0.0000000e+00 0.0000000e+00 3.0000000e+00 
0.0000000e+00 0.0000000e+00 4.0000000e+00 
0.0000000e+00 0.0000000e+00 5.0000000e+00 
0.0000000e+00 0.0000000e+00 6.0000000e+00 
0.0000000e+00 0.0000000e+00 7.0000000e+00 
0.0000000e+00 0.0000000e+00 8.0000000e+00 
[...]
POINT_DATA 1919
FIELD FieldData 3
DISPLACEMENT 3 1919  float
0.0000000e+00 0.0000000e+00 0.0000000e+00 
0.0000000e+00 0.0000000e+00 0.0000000e+00 
0.0000000e+00 0.0000000e+00 0.0000000e+00 
0.0000000e+00 0.0000000e+00 0.0000000e+00 
8.5884931e-05 1.8629977e-05 1.2518364e-06 
-1.8313639e-11 -1.1446018e-10 3.8423584e-11 
0.0000000e+00 -5.2149332e-04 0.0000000e+00 
0.0000000e+00 -1.2866549e-09 0.0000000e+00 
7.7178065e-06 4.8505834e-05 4.2385571e-05 
-3.8656297e-11 -1.2332070e-10 4.1896132e-11 
-8.8634979e-06 -1.9079032e-04 -1.3680187e-04 
-2.5469141e-10 -1.0563750e-09 -1.9962308e-10 
0.0000000e+00 -7.8364398e-04 0.0000000e+00 
0.0000000e+00 1.5907998e-08 0.0000000e+00 
-2.7291442e-04 -5.1101315e-04 -4.0359722e-04 
-4.8271138e-09 4.1067407e-09 -9.5075803e-10 
-2.4475300e-04 -5.4213876e-04 -1.1586052e-04 
2.0840317e-11 6.2851612e-08 6.6925758e-09 
0.0000000e+00 -7.4106117e-04 0.0000000e+00 
0.0000000e+00 2.2317129e-08 0.0000000e+00 
1.0213284e-04 -7.4659364e-04 -3.6849251e-05 
8.7456116e-05 -1.3774354e-03 6.1341838e-05 
9.0732698e-05 -2.4014437e-03 1.5419566e-04 
-1.5783431e-04 -3.6243754e-03 5.7400848e-05 
-1.3064839e-04 -4.6258592e-03 7.9413490e-05 
-2.4007150e-04 -4.8671314e-03 -4.2935530e-06 
-2.7377761e-04 -4.7991714e-03 -9.5660916e-06 
-2.6108359e-04 -4.8615453e-03 -4.9611917e-05 
-2.8817714e-04 -5.1488150e-03 -8.9757690e-05 
-3.2705025e-04 -5.2023539e-03 -1.8937321e-04 
-3.5771451e-04 -4.5328890e-03 -3.3539097e-04 
-2.9014648e-04 -3.3946503e-03 -2.9571707e-04 
-2.1213418e-04 -2.2475957e-03 -4.4361173e-04 
-9.9125224e-05 -1.2657250e-03 -3.0140165e-04 
-3.4094741e-05 -5.0464604e-04 -2.7648848e-04 
1.3746389e-05 1.5604695e-05 -1.2011022e-04 
2.6663691e-05 2.8651554e-04 -3.9971463e-05 
2.6954327e-05 3.5072459e-04 2.5349997e-05 
2.1996653e-05 2.8204874e-04 3.5908462e-05 
1.5314332e-05 1.7120753e-04 4.2733747e-05 
5.9373751e-06 8.8302368e-05 3.3026641e-05 
-4.0353800e-07 5.0869054e-05 5.7419625e-06 
3.2447105e-07 3.5938428e-05 1.0874618e-05 
-1.9150953e-06 7.9832016e-06 -3.2965024e-06 
-7.4032675e-07 -4.4947872e-05 1.7466019e-07 
-3.1311117e-06 -9.7879958e-05 1.5423653e-05 
-9.2737710e-06 -1.1458067e-04 9.8866258e-06 
-1.2317411e-05 -7.7506462e-05 6.0571601e-09 
-1.7565537e-05 -2.2460829e-06 -7.5617550e-06 
-5.0852486e-06 6.9526461e-05 -2.3641534e-05 
1.3515667e-05 1.1416303e-04 -4.6361019e-05 
4.0502960e-05 1.4496649e-04 -2.6653017e-05 
5.7514764e-05 1.9845342e-04 -5.0601542e-05 
8.3622064e-05 3.0688534e-04 -3.4252564e-05 
1.2937163e-04 4.5519561e-04 -8.2899223e-06 
1.2741538e-04 5.8222003e-04 8.5570637e-06 
1.6879220e-04 6.3417834e-04 1.6290334e-05 
1.7831233e-04 5.8194587e-04 5.2837440e-05 
1.8140572e-04 4.1661243e-04 1.7326225e-04 
1.6282775e-04 1.2010865e-04 1.9258160e-04 
1.8659343e-04 -3.8965180e-04 3.3686051e-04 
8.3941202e-05 -1.2188981e-03 2.8350949e-04 
5.1201503e-05 -2.4134908e-03 4.3054938e-04 
-7.8520621e-05 -3.8034006e-03 2.7541324e-04 
-1.8541093e-04 -4.9015800e-03 2.9750259e-04 
-2.5682681e-04 -5.0863153e-03 8.8600515e-05 
-2.6512035e-04 -4.9130502e-03 -2.0395468e-05 
-2.5665291e-04 -4.8803119e-03 -1.1837359e-04 
-2.8094853e-04 -5.0985361e-03 -1.4417098e-04 
-3.2872250e-04 -5.0949031e-03 -2.2118402e-04 
-3.2014295e-04 -4.2914203e-03 -3.5325633e-04 
-2.4682938e-04 -3.0547075e-03 -2.6183247e-04 
-1.9085503e-04 -1.8708826e-03 -3.9943540e-04 
-8.7760563e-05 -9.2777162e-04 -2.7186642e-04 
-2.6448057e-05 -2.9799624e-04 -2.5391520e-04 
2.4337176e-05 6.2940977e-05 -1.1037196e-04 
3.0478273e-05 2.3194402e-04 -2.9320479e-05 
2.5662956e-05 2.8020394e-04 3.2530246e-05 
2.1892058e-05 2.5455141e-04 4.7804300e-05 
1.2583910e-05 1.8765184e-04 3.7037804e-05 
5.5617961e-06 1.0750376e-04 2.7549522e-05 
-2.3513300e-07 3.9397222e-05 7.7139521e-06 
-2.0865361e-06 3.1639619e-08 4.7827466e-06 
-3.4631344e-06 -1.6784570e-05 -7.8078647e-06 
-2.3880996e-06 -2.3738812e-05 -5.5947335e-06 
-8.8729206e-07 -2.6322112e-05 -1.5725658e-06 
-1.9400247e-06 -2.2954522e-05 -3.2856474e-06 
-1.7998076e-07 -1.2918406e-05 3.0774686e-08 
2.9749248e-07 -3.1527009e-07 9.9868282e-07 
1.8774715e-06 8.0367927e-06 -1.2635546e-07 
4.3381522e-07 8.5262909e-06 1.4554070e-07 
-5.8049505e-07 3.7193875e-06 1.0578526e-06 
-6.1081501e-08 -4.0472244e-07 -6.8367956e-07 
-6.1847977e-08 -1.7060840e-06 -1.4639711e-07 
-1.1297090e-07 -1.4440296e-06 -9.3926661e-07 
8.9381984e-08 -9.4380198e-07 4.2898358e-07 
6.9677760e-08 -2.4987031e-07 3.9250747e-07 
6.4332838e-08 9.5192803e-07 -4.7378222e-07 
8.3274621e-08 2.1687331e-06 4.1852863e-07 
6.8506050e-09 2.1292926e-06 -8.4761091e-08 
-1.2627157e-07 2.2798470e-07 -2.7809762e-07 
-4.7094129e-08 -2.0896084e-06 2.9442660e-07 
1.3568002e-08 -2.6287908e-06 -1.8399786e-07 
3.3411065e-09 -1.0716273e-06 -1.0004865e-07 
2.7508342e-08 1.0864001e-06 2.2828181e-07 
2.6595727e-08 2.0756929e-06 -7.0074016e-08 
1.9017437e-08 1.2279697e-06 -6.8496050e-08 
-9.2223374e-08 -3.8843731e-07 -4.5350387e-08 
-9.5382880e-08 -1.3476224e-06 -3.7345096e-08 
-4.0792749e-08 -1.0128092e-06 9.7222470e-09 
6.2921974e-09 -3.0649751e-08 3.5375187e-08 
1.9805855e-08 6.4720246e-07 -2.7724290e-08 
2.6425839e-09 5.7075431e-07 1.2804534e-08 
6.5939902e-09 8.6618975e-08 4.6251825e-09 
-3.4648959e-09 -2.4484808e-07 -1.7072628e-08 
-1.0965021e-08 -2.5093161e-07 7.3411672e-09 
4.8476565e-09 -8.6820656e-08 3.5442334e-09 
-6.6135632e-11 4.2792990e-08 3.2819444e-10 
1.9424882e-09 7.0493009e-08 -3.1382952e-09 
0.0000000e+00 -5.3949014e-04 0.0000000e+00 
0.0000000e+00 -7.4818311e-04 0.0000000e+00 
0.0000000e+00 -1.3859262e-03 0.0000000e+00 
0.0000000e+00 -2.4157376e-03 0.0000000e+00 
0.0000000e+00 -3.6491472e-03 0.0000000e+00 
0.0000000e+00 -4.6443837e-03 0.0000000e+00 
0.0000000e+00 -4.8948862e-03 0.0000000e+00 
0.0000000e+00 -4.8198812e-03 0.0000000e+00 
0.0000000e+00 -4.8911562e-03 0.0000000e+00 
0.0000000e+00 -5.1702601e-03 0.0000000e+00 
0.0000000e+00 -5.2347351e-03 0.0000000e+00 
0.0000000e+00 -4.5527765e-03 0.0000000e+00 
0.0000000e+00 -3.4113459e-03 0.0000000e+00 
0.0000000e+00 -2.2536714e-03 0.0000000e+00 
0.0000000e+00 -1.2679818e-03 0.0000000e+00 
0.0000000e+00 -5.0551078e-04 0.0000000e+00 
0.0000000e+00 1.3413030e-05 0.0000000e+00 
0.0000000e+00 2.8551038e-04 0.0000000e+00 
0.0000000e+00 3.5040587e-04 0.0000000e+00 
0.0000000e+00 2.8310949e-04 0.0000000e+00 
0.0000000e+00 1.7357923e-04 0.0000000e+00 
0.0000000e+00 9.0243106e-05 0.0000000e+00 
0.0000000e+00 5.1613853e-05 0.0000000e+00 
0.0000000e+00 3.4923447e-05 0.0000000e+00 
0.0000000e+00 6.1773344e-06 0.0000000e+00 
0.0000000e+00 -4.5702942e-05 0.0000000e+00 
0.0000000e+00 -9.7170079e-05 0.0000000e+00 
0.0000000e+00 -1.1300846e-04 0.0000000e+00 
0.0000000e+00 -7.6209042e-05 0.0000000e+00 
0.0000000e+00 -2.8952084e-06 0.0000000e+00 
0.0000000e+00 6.8032437e-05 0.0000000e+00 
0.0000000e+00 1.1290141e-04 0.0000000e+00 
0.0000000e+00 1.4470328e-04 0.0000000e+00 
0.0000000e+00 2.0058731e-04 0.0000000e+00 
0.0000000e+00 3.0955151e-04 0.0000000e+00 
0.0000000e+00 4.5579113e-04 0.0000000e+00 
0.0000000e+00 5.8180990e-04 0.0000000e+00 
0.0000000e+00 6.3309685e-04 0.0000000e+00 
0.0000000e+00 5.8199652e-04 0.0000000e+00 
0.0000000e+00 4.1972668e-04 0.0000000e+00 
0.0000000e+00 1.2192764e-04 0.0000000e+00 
0.0000000e+00 -3.9164512e-04 0.0000000e+00 
0.0000000e+00 -1.2285064e-03 0.0000000e+00 
0.0000000e+00 -2.4298478e-03 0.0000000e+00 
0.0000000e+00 -3.8307239e-03 0.0000000e+00 
0.0000000e+00 -4.9221111e-03 0.0000000e+00 
0.0000000e+00 -5.1106145e-03 0.0000000e+00 
0.0000000e+00 -4.9336404e-03 0.0000000e+00 
0.0000000e+00 -4.9093235e-03 0.0000000e+00 
0.0000000e+00 -5.1242202e-03 0.0000000e+00 
0.0000000e+00 -5.1249177e-03 0.0000000e+00 
0.0000000e+00 -4.3070382e-03 0.0000000e+00 
0.0000000e+00 -3.0705796e-03 0.0000000e+00 
0.0000000e+00 -1.8772520e-03 0.0000000e+00 
0.0000000e+00 -9.3311851e-04 0.0000000e+00 
0.0000000e+00 -2.9905941e-04 0.0000000e+00 
0.0000000e+00 6.3866129e-05 0.0000000e+00 
0.0000000e+00 2.3323543e-04 0.0000000e+00 
0.0000000e+00 2.8061296e-04 0.0000000e+00 
0.0000000e+00 2.5472991e-04 0.0000000e+00 
0.0000000e+00 1.8810639e-04 0.0000000e+00 
0.0000000e+00 1.0814548e-04 0.0000000e+00 
0.0000000e+00 4.0448929e-05 0.0000000e+00 
0.0000000e+00 1.9262241e-07 0.0000000e+00 
0.0000000e+00 -1.7249487e-05 0.0000000e+00 
0.0000000e+00 -2.4027240e-05 0.0000000e+00 
0.0000000e+00 -2.6143420e-05 0.0000000e+00 
0.0000000e+00 -2.2710959e-05 0.0000000e+00 
0.0000000e+00 -1.2923683e-05 0.0000000e+00 
0.0000000e+00 -5.6084781e-07 0.0000000e+00 
0.0000000e+00 7.7802924e-06 0.0000000e+00 
0.0000000e+00 8.4795774e-06 0.0000000e+00 
0.0000000e+00 3.9553206e-06 0.0000000e+00 
0.0000000e+00 -2.7152322e-07 0.0000000e+00 
0.0000000e+00 -1.7623864e-06 0.0000000e+00 
0.0000000e+00 -1.5098668e-06 0.0000000e+00 
0.0000000e+00 -9.2352207e-07 0.0000000e+00 
0.0000000e+00 -1.9479485e-07 0.0000000e+00 
0.0000000e+00 9.6021813e-07 0.0000000e+00 
0.0000000e+00 2.1078090e-06 0.0000000e+00 
0.0000000e+00 2.0411205e-06 0.0000000e+00 
0.0000000e+00 2.2905364e-07 0.0000000e+00 
0.0000000e+00 -1.9719453e-06 0.0000000e+00 
0.0000000e+00 -2.5556922e-06 0.0000000e+00 
0.0000000e+00 -1.1015725e-06 0.0000000e+00 
0.0000000e+00 1.0128626e-06 0.0000000e+00 
0.0000000e+00 2.0103173e-06 0.0000000e+00 
0.0000000e+00 1.2386510e-06 0.0000000e+00 
0.0000000e+00 -3.3784644e-07 0.0000000e+00 
0.0000000e+00 -1.2974212e-06 0.0000000e+00 
0.0000000e+00 -1.0183402e-06 0.0000000e+00 
0.0000000e+00 -6.3444652e-08 0.0000000e+00 
0.0000000e+00 6.1582790e-07 0.0000000e+00 
0.0000000e+00 5.7027285e-07 0.0000000e+00 
0.0000000e+00 1.0980946e-07 0.0000000e+00 
0.0000000e+00 -2.3104923e-07 0.0000000e+00 
0.0000000e+00 -2.5325824e-07 0.0000000e+00 
0.0000000e+00 -9.6155077e-08 0.0000000e+00 
0.0000000e+00 3.6224126e-08 0.0000000e+00 
0.0000000e+00 7.2190559e-08 0.0000000e+00 
0.0000000e+00 6.7544207e-08 0.0000000e+00 
1.9856524e-08 -1.3605974e-06 -2.9136893e-07 
-4.1299396e-07 7.1207353e-07 4.2631407e-07 
0.0000000e+00 0.0000000e+00 0.0000000e+00 
0.0000000e+00 0.0000000e+00 0.0000000e+00 
0.0000000e+00 0.0000000e+00 0.0000000e+00 
0.0000000e+00 0.0000000e+00 0.0000000e+00 
0.0000000e+00 0.0000000e+00 0.0000000e+00 
0.0000000e+00 0.0000000e+00 0.0000000e+00 
0.0000000e+00 0.0000000e+00 0.0000000e+00 
0.0000000e+00 0.0000000e+00 0.0000000e+00 
0.0000000e+00 0.0000000e+00 0.0000000e+00 
0.0000000e+00 0.0000000e+00 0.0000000e+00 
0.0000000e+00 0.0000000e+00 0.0000000e+00 
0.0000000e+00 0.0000000e+00 0.0000000e+00 
0.0000000e+00 0.0000000e+00 0.0000000e+00 
0.0000000e+00 0.0000000e+00 0.0000000e+00 
0.0000000e+00 0.0000000e+00 0.0000000e+00 
0.0000000e+00 0.0000000e+00 0.0000000e+00 
0.0000000e+00 0.0000000e+00 0.0000000e+00 
0.0000000e+00 0.0000000e+00 0.0000000e+00 
0.0000000e+00 0.0000000e+00 0.0000000e+00 
0.0000000e+00 0.0000000e+00 0.0000000e+00 
0.0000000e+00 0.0000000e+00 0.0000000e+00 
0.0000000e+00 0.0000000e+00 0.0000000e+00 
0.0000000e+00 0.0000000e+00 0.0000000e+00 
0.0000000e+00 0.0000000e+00 0.0000000e+00 
0.0000000e+00 0.0000000e+00 0.0000000e+00 
0.0000000e+00 0.0000000e+00 0.0000000e+00 
0.0000000e+00 0.0000000e+00 0.0000000e+00 
0.0000000e+00 0.0000000e+00 0.0000000e+00 
0.0000000e+00 0.0000000e+00 0.0000000e+00 
0.0000000e+00 0.0000000e+00 0.0000000e+00 
0.0000000e+00 0.0000000e+00 0.0000000e+00 
0.0000000e+00 0.0000000e+00 0.0000000e+00 
0.0000000e+00 0.0000000e+00 0.0000000e+00 
0.0000000e+00 0.0000000e+00 0.0000000e+00 
0.0000000e+00 0.0000000e+00 0.0000000e+00 
0.0000000e+00 0.0000000e+00 0.0000000e+00 
0.0000000e+00 0.0000000e+00 0.0000000e+00 
0.0000000e+00 0.0000000e+00 0.0000000e+00 
0.0000000e+00 0.0000000e+00 0.0000000e+00 
0.0000000e+00 0.0000000e+00 0.0000000e+00 
0.0000000e+00 0.0000000e+00 0.0000000e+00 
0.0000000e+00 0.0000000e+00 0.0000000e+00 
0.0000000e+00 0.0000000e+00 0.0000000e+00 
0.0000000e+00 0.0000000e+00 0.0000000e+00 
0.0000000e+00 0.0000000e+00 0.0000000e+00 
0.0000000e+00 0.0000000e+00 0.0000000e+00 
0.0000000e+00 0.0000000e+00 0.0000000e+00 
0.0000000e+00 0.0000000e+00 0.0000000e+00 
0.0000000e+00 0.0000000e+00 0.0000000e+00 
0.0000000e+00 0.0000000e+00 0.0000000e+00 
0.0000000e+00 0.0000000e+00 0.0000000e+00 
0.0000000e+00 0.0000000e+00 0.0000000e+00 
0.0000000e+00 0.0000000e+00 0.0000000e+00 
0.0000000e+00 0.0000000e+00 0.0000000e+00 
0.0000000e+00 0.0000000e+00 0.0000000e+00 
0.0000000e+00 0.0000000e+00 0.0000000e+00 
0.0000000e+00 0.0000000e+00 0.0000000e+00 
0.0000000e+00 0.0000000e+00 0.0000000e+00 
0.0000000e+00 0.0000000e+00 0.0000000e+00 
0.0000000e+00 0.0000000e+00 0.0000000e+00 
0.0000000e+00 0.0000000e+00 0.0000000e+00 
0.0000000e+00 0.0000000e+00 0.0000000e+00 
0.0000000e+00 0.0000000e+00 0.0000000e+00 
0.0000000e+00 0.0000000e+00 0.0000000e+00 
0.0000000e+00 0.0000000e+00 0.0000000e+00 
0.0000000e+00 0.0000000e+00 0.0000000e+00 
0.0000000e+00 0.0000000e+00 0.0000000e+00 
0.0000000e+00 0.0000000e+00 0.0000000e+00 
0.0000000e+00 0.0000000e+00 0.0000000e+00 
0.0000000e+00 0.0000000e+00 0.0000000e+00 
0.0000000e+00 0.0000000e+00 0.0000000e+00 
0.0000000e+00 0.0000000e+00 0.0000000e+00 
0.0000000e+00 0.0000000e+00 0.0000000e+00 
0.0000000e+00 0.0000000e+00 0.0000000e+00 
0.0000000e+00 0.0000000e+00 0.0000000e+00 
0.0000000e+00 0.0000000e+00 0.0000000e+00 
0.0000000e+00 0.0000000e+00 0.0000000e+00 
0.0000000e+00 0.0000000e+00 0.0000000e+00 
0.0000000e+00 0.0000000e+00 0.0000000e+00 
0.0000000e+00 0.0000000e+00 0.0000000e+00 
0.0000000e+00 0.0000000e+00 0.0000000e+00 
0.0000000e+00 0.0000000e+00 0.0000000e+00 
0.0000000e+00 0.0000000e+00 0.0000000e+00 
0.0000000e+00 0.0000000e+00 0.0000000e+00 
0.0000000e+00 0.0000000e+00 0.0000000e+00 
0.0000000e+00 0.0000000e+00 0.0000000e+00 
0.0000000e+00 0.0000000e+00 0.0000000e+00 
0.0000000e+00 0.0000000e+00 0.0000000e+00 
0.0000000e+00 0.0000000e+00 0.0000000e+00 
0.0000000e+00 0.0000000e+00 0.0000000e+00 
0.0000000e+00 0.0000000e+00 0.0000000e+00 
0.0000000e+00 0.0000000e+00 0.0000000e+00 
0.0000000e+00 0.0000000e+00 0.0000000e+00 
0.0000000e+00 0.0000000e+00 0.0000000e+00 
0.0000000e+00 0.0000000e+00 0.0000000e+00 
0.0000000e+00 0.0000000e+00 0.0000000e+00 
0.0000000e+00 0.0000000e+00 0.0000000e+00 
0.0000000e+00 0.0000000e+00 0.0000000e+00 
0.0000000e+00 0.0000000e+00 0.0000000e+00 
0.0000000e+00 0.0000000e+00 0.0000000e+00 
0.0000000e+00 0.0000000e+00 0.0000000e+00 
0.0000000e+00 0.0000000e+00 0.0000000e+00 
0.0000000e+00 0.0000000e+00 0.0000000e+00 
0.0000000e+00 0.0000000e+00 0.0000000e+00 
0.0000000e+00 0.0000000e+00 0.0000000e+00 
0.0000000e+00 0.0000000e+00 0.0000000e+00 
3.4896861e-05 -2.5039033e-05 -1.1209039e-05 
3.2878783e-05 -3.6797315e-05 -2.1120986e-05 
4.6565721e-05 -3.9858704e-05 -1.8492856e-05 
6.4511260e-05 -1.0313249e-05 -7.1127233e-06 
6.2658874e-05 1.4560294e-05 1.4143566e-05 
4.8545087e-05 1.3342620e-06 3.4816429e-05 
3.7545324e-05 3.0600338e-06 3.8807073e-05 
1.9733778e-05 -3.5749233e-06 2.7252734e-05 
4.7065378e-06 -5.0231893e-06 6.2956733e-06 
8.2473940e-07 -2.0409952e-06 1.8202293e-06 
1.9510107e-07 -6.6823037e-07 -6.6326402e-07 
1.3177560e-06 8.4076373e-07 -3.6441554e-06 
2.2099796e-06 3.6836877e-06 -3.1873012e-06 
2.0219481e-06 -4.6608475e-06 -4.4753288e-06 
-2.8686247e-06 -3.2642529e-06 -4.4933204e-06 
-2.4248484e-06 5.4465690e-06 -4.7936851e-06 
4.4125586e-06 1.3432310e-05 -8.1394437e-06 
7.3310889e-06 6.0044777e-06 -1.2170615e-05 
9.1986039e-06 1.3677059e-05 -1.4290025e-05 
2.3055765e-05 -9.4204773e-07 -3.2520606e-05 
2.8107588e-05 -9.6993572e-06 -2.6094878e-05 
4.6355130e-05 -1.6622273e-05 -2.2112719e-05 
7.8414610e-05 -1.1626304e-05 -8.3214618e-06 
7.5580429e-05 1.4839451e-06 1.0758933e-05 
6.3923660e-05 4.4668473e-06 2.8653278e-05 
5.1716805e-05 2.3064208e-06 4.0013150e-05 
3.1943808e-05 3.3119121e-09 3.6767884e-05 
1.4544572e-05 -3.3191930e-06 2.1136831e-05 
3.8153025e-06 -4.8839133e-06 6.9886123e-06 
3.7488465e-07 -3.4466470e-06 2.1996082e-06 
-5.9697084e-07 1.4602211e-06 -5.0401587e-07 
-2.0626510e-07 2.5706449e-06 -3.5230312e-07 
-5.7563330e-08 -1.2583896e-06 -6.6990708e-08 
2.8835026e-07 -1.3380513e-06 8.9049914e-09 
-7.1773187e-08 5.8648857e-07 -1.3608332e-07 
-1.9582188e-07 3.1695291e-07 1.6441867e-07 
1.5901550e-08 -2.8586206e-07 8.8976343e-08 
-1.8899671e-08 -4.2394085e-08 -4.2090296e-09 
-2.2807527e-08 4.0538801e-08 -6.8176482e-09 
8.7256247e-09 1.7579618e-08 2.9781672e-08 
8.3862295e-09 -3.3308581e-08 2.8514662e-09 
-1.1817077e-09 2.1457403e-08 1.6526869e-09 
7.4669382e-10 -3.1933411e-09 2.3685709e-09 
1.2191379e-09 -2.3068667e-09 -1.0317230e-09 
-2.1022528e-10 1.5516275e-09 3.1698644e-10 
1.1077354e-10 -1.0255292e-10 3.3619482e-10 
-6.8476838e-13 -4.5943485e-10 8.2437807e-11 
-2.1158448e-11 1.1865139e-10 8.4394519e-11 
2.3954600e-11 1.5950245e-10 7.6486012e-11 
0.0000000e+00 -3.6804035e-04 0.0000000e+00 
0.0000000e+00 -4.6275684e-04 0.0000000e+00 
0.0000000e+00 -6.5115734e-04 0.0000000e+00 
0.0000000e+00 -7.0217124e-04 0.0000000e+00 
0.0000000e+00 -6.5527781e-04 0.0000000e+00 
0.0000000e+00 -4.7963942e-04 0.0000000e+00 
0.0000000e+00 -2.2741960e-04 0.0000000e+00 
0.0000000e+00 -4.8065893e-05 0.0000000e+00 
0.0000000e+00 4.2485972e-05 0.0000000e+00 
0.0000000e+00 5.4432006e-05 0.0000000e+00 
0.0000000e+00 1.3513866e-05 0.0000000e+00 
0.0000000e+00 -1.4760852e-05 0.0000000e+00 
0.0000000e+00 -1.7145818e-05 0.0000000e+00 
0.0000000e+00 1.1301575e-05 0.0000000e+00 
0.0000000e+00 7.6734450e-06 0.0000000e+00 
0.0000000e+00 -2.9678062e-05 0.0000000e+00 
0.0000000e+00 1.8359857e-05 0.0000000e+00 
0.0000000e+00 5.5537374e-05 0.0000000e+00 
0.0000000e+00 8.0817099e-06 0.0000000e+00 
0.0000000e+00 2.2272992e-05 0.0000000e+00 
0.0000000e+00 -1.7054949e-04 0.0000000e+00 
0.0000000e+00 -4.9208006e-04 0.0000000e+00 
0.0000000e+00 -6.0248905e-04 0.0000000e+00 
0.0000000e+00 -6.8546331e-04 0.0000000e+00 
0.0000000e+00 -6.6356134e-04 0.0000000e+00 
0.0000000e+00 -4.6962456e-04 0.0000000e+00 
0.0000000e+00 -2.2227959e-04 0.0000000e+00 
0.0000000e+00 -2.8656530e-05 0.0000000e+00 
0.0000000e+00 5.9868140e-05 0.0000000e+00 
0.0000000e+00 4.1134350e-05 0.0000000e+00 
0.0000000e+00 8.2367151e-06 0.0000000e+00 
0.0000000e+00 -4.7645653e-06 0.0000000e+00 
0.0000000e+00 -5.3950303e-06 0.0000000e+00 
0.0000000e+00 -2.1577891e-06 0.0000000e+00 
0.0000000e+00 1.0843139e-06 0.0000000e+00 
0.0000000e+00 1.2369004e-06 0.0000000e+00 
0.0000000e+00 7.4346445e-07 0.0000000e+00 
0.0000000e+00 -6.0265938e-07 0.0000000e+00 
0.0000000e+00 -8.8989361e-07 0.0000000e+00 
0.0000000e+00 6.8654180e-07 0.0000000e+00 
0.0000000e+00 3.7968624e-07 0.0000000e+00 
0.0000000e+00 -6.9578078e-07 0.0000000e+00 
0.0000000e+00 1.9198464e-07 0.0000000e+00 
0.0000000e+00 9.5345634e-08 0.0000000e+00 
0.0000000e+00 -1.0613724e-07 0.0000000e+00 
0.0000000e+00 -3.8156880e-08 0.0000000e+00 
0.0000000e+00 5.8762211e-08 0.0000000e+00 
0.0000000e+00 -2.0617803e-08 0.0000000e+00 
0.0000000e+00 3.5291689e-10 0.0000000e+00 
5.1366369e-05 -8.7453169e-05 -2.6822423e-05 
6.1834566e-05 -1.7185217e-04 -8.8730674e-05 
1.1536869e-04 -2.3841660e-04 -1.2709244e-04 
6.5229171e-05 -4.1674086e-04 -1.3625731e-04 
5.7921730e-11 2.7331207e-10 9.3387832e-11 
8.1578480e-11 -3.7084052e-10 2.2160328e-10 
-1.9309322e-10 6.6603695e-10 -1.2651977e-09 
-5.1346699e-10 -7.7397427e-10 8.0513601e-10 
-4.2622130e-05 -2.0048994e-05 1.5750895e-05 
-8.4153624e-05 -6.5068620e-05 -1.8150047e-05 
-6.9514856e-05 -6.5240863e-05 -3.5225701e-05 
-3.5619945e-05 -3.5313180e-05 -5.4583732e-05 
2.3985038e-05 1.7406910e-05 -2.5696556e-05 
4.3190459e-05 5.1075417e-06 1.6672202e-05 
4.3387932e-05 1.4577477e-05 4.2045151e-05 
3.0359508e-05 4.1953167e-06 3.6865396e-05 
1.2767403e-05 -1.2690376e-06 1.8242334e-05 
-1.1682699e-06 -5.4720581e-06 1.5007474e-06 
-1.8068895e-06 2.3795756e-07 -6.2592026e-06 
4.9124964e-07 3.4582547e-06 -8.7521412e-06 
-7.7232713e-08 5.2864716e-06 -1.9672623e-06 
1.5003344e-06 -1.1785444e-05 6.5887423e-07 
3.3138695e-06 -5.2447249e-06 -6.3864995e-06 
4.2957568e-06 9.6587246e-06 -1.3043893e-06 
-1.1999670e-06 1.1229738e-05 7.5593775e-06 
-1.5807409e-05 7.8213616e-06 -2.6562143e-06 
-3.3406410e-05 1.2486081e-05 -8.4039484e-06 
-4.8332160e-05 -1.0127990e-06 -6.5891336e-06 