# vtk DataFile Version 4.0
vtk output
ASCII
DATASET UNSTRUCTURED_GRID
POINTS 1919 float
0.0000000e+00 0.0000000e+00 0.0000000e+00 
0.0000000e+00 0.0000000e+00 5.0000000e+01 
5.0000000e+00 0.0000000e+00 0.0000000e+00 
5.0000000e+00 0.0000000e+00 5.0000000e+01 
5.0000000e+00 1.0000000e+00 0.0000000e+00 
5.0000000e+00 1.0000000e+00 5.0000000e+01 
0.0000000e+00 1.0000000e+00 0.0000000e+00 
0.0000000e+00 1.0000000e+00 5.0000000e+01 
5.0000000e+00 2.0000000e+00 0.0000000e+00 
5.0000000e+00 2.0000000e+00 5.0000000e+01 
3.0000000e+00 2.0000000e+00 0.0000000e+00 
3.0000000e+00 2.0000000e+00 5.0000000e+01 
0.0000000e+00 2.0000000e+00 0.0000000e+00 
0.0000000e+00 2.0000000e+00 5.0000000e+01 
1.5000000e+00 3.0000000e+00 0.0000000e+00 
1.5000000e+00 3.0000000e+00 5.0000000e+01 
7.5000000e-01 3.0000000e+00 0.0000000e+00 
7.5000000e-01 3.0000000e+00 5.0000000e+01 
0.0000000e+00 3.0000000e+00 0.0000000e+00 
0.0000000e+00 3.0000000e+00 5.0000000e+01 
7.5000000e-01 3.0000000e+00 5.0000000e-01 
7.5000000e-01 3.0000000e+00 1.0000000e+00 
7.5000000e-01 3.0000000e+00 1.5000000e+00 
7.5000000e-01 3.0000000e+00 2.0000000e+00 
7.5000000e-01 3.0000000e+00 2.5000000e+00 
7.5000000e-01 3.0000000e+00 3.0000000e+00 
7.5000000e-01 3.0000000e+00 3.5000000e+00 
7.5000000e-01 3.0000000e+00 4.0000000e+00 
7.5000000e-01 3.0000000e+00 4.5000000e+00 
7.5000000e-01 3.0000000e+00 5.0000000e+00 
7.5000000e-01 3.0000000e+00 5.5000000e+00 
7.5000000e-01 3.0000000e+00 6.0000000e+00 
7.5000000e-01 3.0000000e+00 6.5000000e+00 
7.5000000e-01 3.0000000e+00 7.0000000e+00 
7.5000000e-01 3.0000000e+00 7.5000000e+00 
7.5000000e-01 3.0000000e+00 8.0000000e+00 
7.5000000e-01 3.0000000e+00 8.5000000e+00 
7.5000000e-01 3.0000000e+00 9.0000000e+00 
7.5000000e-01 3.0000000e+00 9.5000000e+00 
7.5000000e-01 3.0000000e+00 1.0000000e+01 
7.5000000e-01 3.0000000e+00 1.0500000e+01 
7.5000000e-01 3.0000000e+00 1.1000000e+01 
7.5000000e-01 3.0000000e+00 1.1500000e+01 
7.5000000e-01 3.0000000e+00 1.2000000e+01 
7.5000000e-01 3.0000000e+00 1.2500000e+01 
7.5000000e-01 3.0000000e+00 1.3000000e+01 
7.5000000e-01 3.0000000e+00 1.3500000e+01 
7.5000000e-01 3.0000000e+00 1.4000000e+01 
7.5000000e-01 3.0000000e+00 1.4500000e+01 
7.5000000e-01 3.0000000e+00 1.5000000e+01 
7.5000000e-01 3.0000000e+00 1.5500000e+01 
7.5000000e-01 3.0000000e+00 1.6000000e+01 
7.5000000e-01 3.0000000e+00 1.6500000e+01 
7.5000000e-01 3.0000000e+00 1.7000000e+01 
7.5000000e-01 3.0000000e+00 1.7500000e+01 
7.5000000e-01 3.0000000e+00 1.8000000e+01 
7.5000000e-01 3.0000000e+00 1.8500000e+01 
7.5000000e-01 3.0000000e+00 1.9000000e+01 
7.5000000e-01 3.0000000e+00 1.9500000e+01 
7.5000000e-01 3.0000000e+00 2.0000000e+01 
7.5000000e-01 3.0000000e+00 2.0500000e+01 
7.5000000e-01 3.0000000e+00 2.1000000e+01 
7.5000000e-01 3.0000000e+00 2.1500000e+01 
7.5000000e-01 3.0000000e+00 2.2000000e+01 
7.5000000e-01 3.0000000e+00 2.2500000e+01 
7.5000000e-01 3.0000000e+00 2.3000000e+01 
7.5000000e-01 3.0000000e+00 2.3500000e+01 
7.5000000e-01 3.0000000e+00 2.4000000e+01 
7.5000000e-01 3.0000000e+00 2.4500000e+01 
7.5000000e-01 3.0000000e+00 2.5000000e+01 
7.5000000e-01 3.0000000e+00 2.5500000e+01 
7.5000000e-01 3.0000000e+00 2.6000000e+01 
7.5000000e-01 3.0000000e+00 2.6500000e+01 
7.5000000e-01 3.0000000e+00 2.7000000e+01 
7.5000000e-01 3.0000000e+00 2.7500000e+01 
7.5000000e-01 3.0000000e+00 2.8000000e+01 
7.5000000e-01 3.0000000e+00 2.8500000e+01 
7.5000000e-01 3.0000000e+00 2.9000000e+01 
7.5000000e-01 3.0000000e+00 2.9500000e+01 
7.5000000e-01 3.0000000e+00 3.0000000e+01 
7.5000000e-01 3.0000000e+00 3.0500000e+01 
7.5000000e-01 3.0000000e+00 3.1000000e+01 
7.5000000e-01 3.0000000e+00 3.1500000e+01 
7.5000000e-01 3.0000000e+00 3.2000000e+01 
7.5000000e-01 3.0000000e+00 3.2500000e+01 
7.5000000e-01 3.0000000e+00 3.3000000e+01 
7.5000000e-01 3.0000000e+00 3.3500000e+01 
7.5000000e-01 3.0000000e+00 3.4000000e+01 
7.5000000e-01 3.0000000e+00 3.4500000e+01 
7.5000000e-01 3.0000000e+00 3.5000000e+01 
7.5000000e-01 3.0000000e+00 3.5500000e+01 
7.5000000e-01 3.0000000e+00 3.6000000e+01 
7.5000000e-01 3.0000000e+00 3.6500000e+01 
7.5000000e-01 3.0000000e+00 3.7000000e+01 
7.5000000e-01 3.0000000e+00 3.7500000e+01 
7.5000000e-01 3.0000000e+00 3.8000000e+01 
7.5000000e-01 3.0000000e+00 3.8500000e+01 
7.5000000e-01 3.0000000e+00 3.9000000e+01 
7.5000000e-01 3.0000000e+00 3.9500000e+01 
7.5000000e-01 3.0000000e+00 4.0000000e+01 
7.5000000e-01 3.0000000e+00 4.0500000e+01 
7.5000000e-01 3.0000000e+00 4.1000000e+01 
7.5000000e-01 3.0000000e+00 4.1500000e+01 
7.5000000e-01 3.0000000e+00 4.2000000e+01 
7.5000000e-01 3.0000000e+00 4.2500000e+01 
7.5000000e-01 3.0000000e+00 4.3000000e+01 
7.5000000e-01 3.0000000e+00 4.3500000e+01 
7.5000000e-01 3.0000000e+00 4.4000000e+01 
7.5000000e-01 3.0000000e+00 4.4500000e+01 
7.5000000e-01 3.0000000e+00 4.5000000e+01 
7.5000000e-01 3.0000000e+00 4.5500000e+01 
7.5000000e-01 3.0000000e+00 4.6000000e+01 
7.5000000e-01 3.0000000e+00 4.6500000e+01 
7.5000000e-01 3.0000000e+00 4.7000000e+01 
7.5000000e-01 3.0000000e+00 4.7500000e+01 
7.5000000e-01 3.0000000e+00 4.8000000e+01 
7.5000000e-01 3.0000000e+00 4.8500000e+01 
7.5000000e-01 3.0000000e+00 4.9000000e+01 
7.5000000e-01 3.0000000e+00 4.9500000e+01 
7.5000000e-01 3.0250001e+00 0.0000000e+00 
7.5000000e-01 3.0250001e+00 5.0000000e-01 
7.5000000e-01 3.0250001e+00 1.0000000e+00 
7.5000000e-01 3.0250001e+00 1.5000000e+00 
7.5000000e-01 3.0250001e+00 2.0000000e+00 
7.5000000e-01 3.0250001e+00 2.5000000e+00 
7.5000000e-01 3.0250001e+00 3.0000000e+00 
7.5000000e-01 3.0250001e+00 3.5000000e+00 
7.5000000e-01 3.0250001e+00 4.0000000e+00 
7.5000000e-01 3.0250001e+00 4.5000000e+00 
7.5000000e-01 3.0250001e+00 5.0000000e+00 
7.5000000e-01 3.0250001e+00 5.5000000e+00 
7.5000000e-01 3.0250001e+00 6.0000000e+00 
7.5000000e-01 3.0250001e+00 6.5000000e+00 
7.5000000e-01 3.0250001e+00 7.0000000e+00 
7.5000000e-01 3.0250001e+00 7.5000000e+00 
7.5000000e-01 3.0250001e+00 8.0000000e+00 
7.5000000e-01 3.0250001e+00 8.5000000e+00 
7.5000000e-01 3.0250001e+00 9.0000000e+00 
7.5000000e-01 3.0250001e+00 9.5000000e+00 
7.5000000e-01 3.0250001e+00 1.0000000e+01 
7.5000000e-01 3.0250001e+00 1.0500000e+01 
7.5000000e-01 3.0250001e+00 1.1000000e+01 
7.5000000e-01 3.0250001e+00 1.1500000e+01 
7.5000000e-01 3.0250001e+00 1.2000000e+01 
7.5000000e-01 3.0250001e+00 1.2500000e+01 
7.5000000e-01 3.0250001e+00 1.3000000e+01 
7.5000000e-01 3.0250001e+00 1.3500000e+01 
7.5000000e-01 3.0250001e+00 1.4000000e+01 
7.5000000e-01 3.0250001e+00 1.4500000e+01 
7.5000000e-01 3.0250001e+00 1.5000000e+01 
7.5000000e-01 3.0250001e+00 1.5500000e+01 
7.5000000e-01 3.0250001e+00 1.6000000e+01 
7.5000000e-01 3.0250001e+00 1.6500000e+01 
7.5000000e-01 3.0250001e+00 1.7000000e+01 
7.5000000e-01 3.0250001e+00 1.7500000e+01 
7.5000000e-01 3.0250001e+00 1.8000000e+01 
7.5000000e-01 3.0250001e+00 1.8500000e+01 
7.5000000e-01 3.0250001e+00 1.9000000e+01 
7.5000000e-01 3.0250001e+00 1.9500000e+01 
7.5000000e-01 3.0250001e+00 2.0000000e+01 
7.5000000e-01 3.0250001e+00 2.0500000e+01 
7.5000000e-01 3.0250001e+00 2.1000000e+01 
7.5000000e-01 3.0250001e+00 2.1500000e+01 
7.5000000e-01 3.0250001e+00 2.2000000e+01 
7.5000000e-01 3.0250001e+00 2.2500000e+01 
7.5000000e-01 3.0250001e+00 2.3000000e+01 
7.5000000e-01 3.0250001e+00 2.3500000e+01 
7.5000000e-01 3.0250001e+00 2.4000000e+01 
7.5000000e-01 3.0250001e+00 2.4500000e+01 
7.5000000e-01 3.0250001e+00 2.5000000e+01 
7.5000000e-01 3.0250001e+00 2.5500000e+01 
7.5000000e-01 3.0250001e+00 2.6000000e+01 
7.5000000e-01 3.0250001e+00 2.6500000e+01 
7.5000000e-01 3.0250001e+00 2.7000000e+01 
7.5000000e-01 3.0250001e+00 2.7500000e+01 
7.5000000e-01 3.0250001e+00 2.8000000e+01 
7.5000000e-01 3.0250001e+00 2.8500000e+01 
7.5000000e-01 3.0250001e+00 2.9000000e+01 
7.5000000e-01 3.0250001e+00 2.9500000e+01 
7.5000000e-01 3.0250001e+00 3.0000000e+01 
7.5000000e-01 3.0250001e+00 3.0500000e+01 
7.5000000e-01 3.0250001e+00 3.1000000e+01 
7.5000000e-01 3.0250001e+00 3.1500000e+01 
7.5000000e-01 3.0250001e+00 3.2000000e+01 
7.5000000e-01 3.0250001e+00 3.2500000e+01 
7.5000000e-01 3.0250001e+00 3.3000000e+01 
7.5000000e-01 3.0250001e+00 3.3500000e+01 
7.5000000e-01 3.0250001e+00 3.4000000e+01 
7.5000000e-01 3.0250001e+00 3.4500000e+01 
7.5000000e-01 3.0250001e+00 3.5000000e+01 
7.5000000e-01 3.0250001e+00 3.5500000e+01 
7.5000000e-01 3.0250001e+00 3.6000000e+01 
7.5000000e-01 3.0250001e+00 3.6500000e+01 
7.5000000e-01 3.0250001e+00 3.7000000e+01 
7.5000000e-01 3.0250001e+00 3.7500000e+01 
7.5000000e-01 3.0250001e+00 3.8000000e+01 
7.5000000e-01 3.0250001e+00 3.8500000e+01 
7.5000000e-01 3.0250001e+00 3.9000000e+01 
7.5000000e-01 3.0250001e+00 3.9500000e+01 
7.5000000e-01 3.0250001e+00 4.0000000e+01 
7.5000000e-01 3.0250001e+00 4.0500000e+01 
7.5000000e-01 3.0250001e+00 4.1000000e+01 
7.5000000e-01 3.0250001e+00 4.1500000e+01 
7.5000000e-01 3.0250001e+00 4.2000000e+01 
7.5000000e-01 3.0250001e+00 4.2500000e+01 
7.5000000e-01 3.0250001e+00 4.3000000e+01 
7.5000000e-01 3.0250001e+00 4.3500000e+01 
7.5000000e-01 3.0250001e+00 4.4000000e+01 
7.5000000e-01 3.0250001e+00 4.4500000e+01 
7.5000000e-01 3.0250001e+00 4.5000000e+01 
7.5000000e-01 3.0250001e+00 4.5500000e+01 
7.5000000e-01 3.0250001e+00 4.6000000e+01 
7.5000000e-01 3.0250001e+00 4.6500000e+01 
7.5000000e-01 3.0250001e+00 4.7000000e+01 
7.5000000e-01 3.0250001e+00 4.7500000e+01 
7.5000000e-01 3.0250001e+00 4.8000000e+01 
7.5000000e-01 3.0250001e+00 4.8500000e+01 
7.5000000e-01 3.0250001e+00 4.9000000e+01 
7.5000000e-01 3.0250001e+00 4.9500000e+01 
7.5000000e-01 3.0250001e+00 5.0000000e+01 
3.0000000e+00 2.0000000e+00 3.6000000e+01 
8.0487806e-01 3.0000000e+00 3.6000000e+01 
0.0000000e+00 0.0000000e+00 1.0000000e+00 
0.0000000e+00 0.0000000e+00 2.0000000e+00 
0.0000000e+00 0.0000000e+00 3.0000000e+00 
0.0000000e+00 0.0000000e+00 4.0000000e+00 
0.0000000e+00 0.0000000e+00 5.0000000e+00 
0.0000000e+00 0.0000000e+00 6.0000000e+00 
0.0000000e+00 0.0000000e+00 7.0000000e+00 
0.0000000e+00 0.0000000e+00 8.0000000e+00 
[...]
POINT_DATA 1919
FIELD FieldData 3
DISPLACEMENT 3 1919  float
0.0000000e+00 0.0000000e+00 0.0000000e+00 
0.0000000e+00 0.0000000e+00 0.0000000e+00 
0.0000000e+00 0.0000000e+00 0.0000000e+00 
0.0000000e+00 0.0000000e+00 0.0000000e+00 
-3.5371033e-06 -3.4988070e-06 -1.2922509e-06 
2.6409307e-07 -3.4107251e-07 5.5154993e-07 
0.0000000e+00 2.3004910e-05 0.0000000e+00 
0.0000000e+00 8.4953092e-07 0.0000000e+00 
1.3416006e-06 -5.8564096e-06 -5.0928124e-06 
4.5495167e-07 1.0394013e-08 7.7206988e-07 
2.6122625e-06 -5.7486986e-06 -4.7216436e-06 
-1.5408975e-07 -6.4177289e-07 2.3251166e-06 
0.0000000e+00 4.2733314e-05 0.0000000e+00 
0.0000000e+00 1.6187034e-06 0.0000000e+00 
1.6836962e-05 1.1713933e-05 -5.0613744e-05 
-5.2194059e-07 3.6497011e-07 1.7915254e-06 
1.6573280e-05 6.8166300e-05 -4.2150587e-05 
3.0620529e-06 1.2148845e-05 -6.2245596e-07 
0.0000000e+00 6.2236097e-05 0.0000000e+00 
0.0000000e+00 1.2995802e-06 0.0000000e+00 
2.5893769e-05 8.0494363e-05 -2.4411649e-05 
3.3031356e-05 1.0722010e-04 -1.4236353e-05 
3.4549001e-05 1.3101879e-04 -1.3446704e-05 
4.0532192e-05 1.4542622e-04 -8.0523960e-06 
3.9932820e-05 1.5484927e-04 -5.9765803e-06 
4.3846030e-05 1.7005080e-04 1.2693497e-05 
5.2758329e-05 1.9320317e-04 2.8824450e-05 
3.7898073e-05 2.1053941e-04 3.1756208e-05 
2.6793712e-05 2.1048782e-04 2.6771906e-05 
4.0042174e-05 1.9776006e-04 1.5550981e-05 
3.3417105e-05 1.9511953e-04 1.1498851e-05 
3.0184854e-05 2.3128388e-04 8.8476118e-06 
5.9777147e-05 3.0599252e-04 1.7103352e-05 
6.0184761e-05 3.7789473e-04 3.5338620e-05 
5.7064539e-05 3.9514212e-04 5.3906198e-05 
6.8059962e-05 3.1572921e-04 8.3711719e-05 
3.5371562e-05 1.1854306e-04 1.5222588e-04 
-2.5953200e-06 -2.2098141e-04 1.8805635e-04 
-4.9349288e-05 -7.7435590e-04 3.3068610e-04 
-1.2233037e-04 -1.6191215e-03 2.5400310e-04 
-1.7356510e-04 -2.7866899e-03 3.6752579e-04 
-2.8976615e-04 -4.1108411e-03 1.5244031e-04 
-3.5769673e-04 -5.1196273e-03 1.2971830e-04 
-3.8917037e-04 -5.1775929e-03 1.7763803e-05 
-3.4099241e-04 -4.8753917e-03 -6.5148364e-05 
-2.6669644e-04 -4.6952041e-03 -8.1508326e-05 
-2.6199952e-04 -4.7830213e-03 -8.0335034e-05 
-2.7538178e-04 -4.6876380e-03 -1.4656561e-04 
-2.4743131e-04 -3.8401987e-03 -2.8994089e-04 
-1.8810108e-04 -2.6274209e-03 -2.3191099e-04 
-1.2123354e-04 -1.5131821e-03 -3.1432061e-04 
-7.0392023e-05 -6.7889824e-04 -1.8908255e-04 
-1.6468486e-05 -1.6416752e-04 -1.8767144e-04 
-6.7715750e-06 9.7389457e-05 -1.0885290e-04 
1.5782174e-05 1.9645163e-04 -6.2506733e-05 
2.0557200e-05 2.0337323e-04 -3.2735617e-05 
9.8348355e-06 1.6220637e-04 -2.3361375e-05 
3.1459185e-05 9.7912147e-05 -4.1649531e-05 
4.1971532e-05 3.6372334e-05 -3.8962706e-05 
5.1905899e-05 1.3620509e-06 -1.5900749e-05 
4.9519160e-05 1.7726032e-06 2.7792847e-05 
3.5844729e-05 2.5820284e-05 4.1101335e-05 
1.4788858e-05 5.5912365e-05 1.4681618e-05 
2.7926000e-05 8.2558072e-05 -1.7800179e-05 
1.3806760e-05 1.1392373e-04 -6.5807129e-05 
3.3285229e-05 1.6429885e-04 -8.1114347e-05 
3.3472919e-05 2.3054707e-04 -8.0248370e-05 
3.9960214e-05 2.9167044e-04 -5.6367040e-05 
4.1909621e-05 3.2417863e-04 -4.1851577e-05 
5.3831336e-05 3.2129063e-04 -1.5163465e-05 
6.6988192e-05 3.0216528e-04 -1.7355349e-05 
7.2225099e-05 3.0352193e-04 5.0546396e-07 
6.2098137e-05 3.4756266e-04 2.9226108e-05 
5.7168876e-05 4.1984071e-04 5.5240766e-05 
5.2011172e-05 4.5841507e-04 1.0311206e-04 
4.1803618e-05 3.7866432e-04 1.4237243e-04 
3.1269738e-05 1.2720586e-04 2.1337770e-04 
1.7755128e-06 -3.1967074e-04 2.3672066e-04 
-4.7249301e-05 -9.8632649e-04 3.5037776e-04 
-1.4304186e-04 -1.8859978e-03 2.6926940e-04 
-1.9070366e-04 -3.0287770e-03 4.0271832e-04 
-2.8552013e-04 -4.2274981e-03 2.1066103e-04 
-3.1730885e-04 -5.0654761e-03 1.7465158e-04 
-3.4125103e-04 -5.0693918e-03 8.7909320e-05 
-3.5542840e-04 -4.8340489e-03 2.9554160e-06 
-3.6570267e-04 -4.7409837e-03 -5.2143267e-05 
-3.6065021e-04 -4.8413980e-03 -9.8214070e-05 
-3.3143430e-04 -4.6489052e-03 -1.6901299e-04 
-2.9200927e-04 -3.7319681e-03 -3.4694193e-04 
-2.4100276e-05 -2.5056021e-03 -5.0098542e-04 
-9.2862429e-05 -1.3901264e-03 -3.6043924e-04 
-6.0050716e-05 -5.8772287e-04 -2.6546087e-04 
-1.5311385e-05 -1.0080956e-04 -2.5205669e-04 
2.1788568e-05 1.4346975e-04 -1.5157390e-04 
4.6290905e-05 2.2415338e-04 -8.3721447e-05 
4.6290577e-05 2.0351107e-04 -1.7917395e-05 
4.1478550e-05 1.3047209e-04 2.7175984e-05 
1.9654819e-05 4.7065572e-05 3.6237077e-05 
7.1162631e-06 -1.5868089e-05 5.1444938e-05 
5.3301133e-06 -4.9951206e-05 5.8126228e-05 
-3.2386317e-06 -5.9921258e-05 6.5786619e-05 
-4.3140994e-06 -5.3923955e-05 5.5792218e-05 
-1.4878837e-05 -3.6204634e-05 2.5077214e-05 
-1.7907612e-05 -1.0685290e-05 -1.6846919e-07 
-7.0575088e-06 1.7485070e-05 -2.4330875e-05 
4.6933589e-08 3.9150353e-05 -3.0925497e-05 
2.5735458e-06 4.6664081e-05 -2.4434279e-05 
5.5240218e-07 3.9790637e-05 -8.7242161e-06 
4.6616710e-06 2.4145002e-05 7.4989548e-06 
2.1145602e-06 6.8381942e-06 8.8137986e-06 
3.2260270e-06 -7.3945016e-06 9.3648987e-06 
2.5058944e-06 -1.6941123e-05 4.1400399e-06 
1.2862137e-06 -2.1053525e-05 3.4584002e-07 
-2.2805632e-07 -1.9769157e-05 -1.5398425e-06 
-2.6268174e-06 -1.3688939e-05 -1.8569482e-06 
-2.4045946e-06 -5.1596339e-06 -3.8317557e-07 
-3.6404906e-06 2.8993031e-06 -1.1077848e-06 
-3.0898166e-06 8.5338734e-06 -1.1291485e-06 
-1.0874613e-06 1.1364396e-05 -6.4386063e-07 
0.0000000e+00 6.9061163e-05 0.0000000e+00 
0.0000000e+00 8.0917212e-05 0.0000000e+00 
0.0000000e+00 1.0659248e-04 0.0000000e+00 
0.0000000e+00 1.3015143e-04 0.0000000e+00 
0.0000000e+00 1.4482418e-04 0.0000000e+00 
0.0000000e+00 1.5540130e-04 0.0000000e+00 
0.0000000e+00 1.7132738e-04 0.0000000e+00 
0.0000000e+00 1.9350476e-04 0.0000000e+00 
0.0000000e+00 2.0978504e-04 0.0000000e+00 
0.0000000e+00 2.0936487e-04 0.0000000e+00 
0.0000000e+00 1.9710371e-04 0.0000000e+00 
0.0000000e+00 1.9629535e-04 0.0000000e+00 
0.0000000e+00 2.3356921e-04 0.0000000e+00 
0.0000000e+00 3.0739678e-04 0.0000000e+00 
0.0000000e+00 3.7810556e-04 0.0000000e+00 
0.0000000e+00 3.9393161e-04 0.0000000e+00 
0.0000000e+00 3.1530188e-04 0.0000000e+00 
0.0000000e+00 1.2042463e-04 0.0000000e+00 
0.0000000e+00 -2.2054312e-04 0.0000000e+00 
0.0000000e+00 -7.7608757e-04 0.0000000e+00 
0.0000000e+00 -1.6281909e-03 0.0000000e+00 
0.0000000e+00 -2.8027974e-03 0.0000000e+00 
0.0000000e+00 -4.1400506e-03 0.0000000e+00 
0.0000000e+00 -5.1398263e-03 0.0000000e+00 
0.0000000e+00 -5.2046613e-03 0.0000000e+00 
0.0000000e+00 -4.8935660e-03 0.0000000e+00 
0.0000000e+00 -4.7249114e-03 0.0000000e+00 
0.0000000e+00 -4.8090685e-03 0.0000000e+00 
0.0000000e+00 -4.7166632e-03 0.0000000e+00 
0.0000000e+00 -3.8572203e-03 0.0000000e+00 
0.0000000e+00 -2.6423666e-03 0.0000000e+00 
0.0000000e+00 -1.5207467e-03 0.0000000e+00 
0.0000000e+00 -6.8375102e-04 0.0000000e+00 
0.0000000e+00 -1.6469607e-04 0.0000000e+00 
0.0000000e+00 9.9047342e-05 0.0000000e+00 
0.0000000e+00 1.9795340e-04 0.0000000e+00 
0.0000000e+00 2.0421878e-04 0.0000000e+00 
0.0000000e+00 1.6211082e-04 0.0000000e+00 
0.0000000e+00 9.8100500e-05 0.0000000e+00 
0.0000000e+00 3.7190726e-05 0.0000000e+00 
0.0000000e+00 2.3976836e-06 0.0000000e+00 
0.0000000e+00 2.2320246e-06 0.0000000e+00 
0.0000000e+00 2.5696707e-05 0.0000000e+00 
0.0000000e+00 5.5189263e-05 0.0000000e+00 
0.0000000e+00 8.2200502e-05 0.0000000e+00 
0.0000000e+00 1.1459894e-04 0.0000000e+00 
0.0000000e+00 1.6514030e-04 0.0000000e+00 
0.0000000e+00 2.3100598e-04 0.0000000e+00 
0.0000000e+00 2.9130044e-04 0.0000000e+00 
0.0000000e+00 3.2318619e-04 0.0000000e+00 
0.0000000e+00 3.2047665e-04 0.0000000e+00 
0.0000000e+00 3.0251779e-04 0.0000000e+00 
0.0000000e+00 3.0493489e-04 0.0000000e+00 
0.0000000e+00 3.5012627e-04 0.0000000e+00 
0.0000000e+00 4.2175280e-04 0.0000000e+00 
0.0000000e+00 4.5774347e-04 0.0000000e+00 
0.0000000e+00 3.7736213e-04 0.0000000e+00 
0.0000000e+00 1.2629623e-04 0.0000000e+00 
0.0000000e+00 -3.2103620e-04 0.0000000e+00 
0.0000000e+00 -9.8683499e-04 0.0000000e+00 
0.0000000e+00 -1.8954286e-03 0.0000000e+00 
0.0000000e+00 -3.0426057e-03 0.0000000e+00 
0.0000000e+00 -4.2561051e-03 0.0000000e+00 
0.0000000e+00 -5.0884904e-03 0.0000000e+00 
0.0000000e+00 -5.0996980e-03 0.0000000e+00 
0.0000000e+00 -4.8520803e-03 0.0000000e+00 
0.0000000e+00 -4.7691809e-03 0.0000000e+00 
0.0000000e+00 -4.8633348e-03 0.0000000e+00 
0.0000000e+00 -4.6788636e-03 0.0000000e+00 
0.0000000e+00 -3.7505315e-03 0.0000000e+00 
0.0000000e+00 -2.5164713e-03 0.0000000e+00 
0.0000000e+00 -1.3994867e-03 0.0000000e+00 
0.0000000e+00 -5.9074402e-04 0.0000000e+00 
0.0000000e+00 -1.0057121e-04 0.0000000e+00 
0.0000000e+00 1.4420752e-04 0.0000000e+00 
0.0000000e+00 2.2473093e-04 0.0000000e+00 
0.0000000e+00 2.0409156e-04 0.0000000e+00 
0.0000000e+00 1.3131989e-04 0.0000000e+00 
0.0000000e+00 4.8234971e-05 0.0000000e+00 
0.0000000e+00 -1.5378502e-05 0.0000000e+00 
0.0000000e+00 -4.9970058e-05 0.0000000e+00 
0.0000000e+00 -6.0128928e-05 0.0000000e+00 
0.0000000e+00 -5.3845040e-05 0.0000000e+00 
0.0000000e+00 -3.6082522e-05 0.0000000e+00 
0.0000000e+00 -1.0528707e-05 0.0000000e+00 
0.0000000e+00 1.7342791e-05 0.0000000e+00 
0.0000000e+00 3.8754009e-05 0.0000000e+00 
0.0000000e+00 4.6420970e-05 0.0000000e+00 
0.0000000e+00 3.9779126e-05 0.0000000e+00 
0.0000000e+00 2.4277650e-05 0.0000000e+00 
0.0000000e+00 6.9614061e-06 0.0000000e+00 
0.0000000e+00 -7.3698675e-06 0.0000000e+00 
0.0000000e+00 -1.6887081e-05 0.0000000e+00 
0.0000000e+00 -2.1004644e-05 0.0000000e+00 
0.0000000e+00 -1.9691475e-05 0.0000000e+00 
0.0000000e+00 -1.3691328e-05 0.0000000e+00 
0.0000000e+00 -5.2335163e-06 0.0000000e+00 
0.0000000e+00 2.8239306e-06 0.0000000e+00 
0.0000000e+00 8.4952262e-06 0.0000000e+00 
0.0000000e+00 1.1385794e-05 0.0000000e+00 
0.0000000e+00 1.2183526e-05 0.0000000e+00 
1.5250544e-05 -1.5364214e-05 -3.0695195e-05 
-6.3239480e-05 -5.5354479e-04 -2.7947707e-04 
0.0000000e+00 0.0000000e+00 0.0000000e+00 
0.0000000e+00 0.0000000e+00 0.0000000e+00 
0.0000000e+00 0.0000000e+00 0.0000000e+00 
0.0000000e+00 0.0000000e+00 0.0000000e+00 
0.0000000e+00 0.0000000e+00 0.0000000e+00 
0.0000000e+00 0.0000000e+00 0.0000000e+00 
0.0000000e+00 0.0000000e+00 0.0000000e+00 
0.0000000e+00 0.0000000e+00 0.0000000e+00 
0.0000000e+00 0.0000000e+00 0.0000000e+00 
0.0000000e+00 0.0000000e+00 0.0000000e+00 
0.0000000e+00 0.0000000e+00 0.0000000e+00 
0.0000000e+00 0.0000000e+00 0.0000000e+00 
0.0000000e+00 0.0000000e+00 0.0000000e+00 
0.0000000e+00 0.0000000e+00 0.0000000e+00 
0.0000000e+00 0.0000000e+00 0.0000000e+00 
0.0000000e+00 0.0000000e+00 0.0000000e+00 
0.0000000e+00 0.0000000e+00 0.0000000e+00 
0.0000000e+00 0.0000000e+00 0.0000000e+00 
0.0000000e+00 0.0000000e+00 0.0000000e+00 
0.0000000e+00 0.0000000e+00 0.0000000e+00 
0.0000000e+00 0.0000000e+00 0.0000000e+00 
0.0000000e+00 0.0000000e+00 0.0000000e+00 
0.0000000e+00 0.0000000e+00 0.0000000e+00 
0.0000000e+00 0.0000000e+00 0.0000000e+00 
0.0000000e+00 0.0000000e+00 0.0000000e+00 
0.0000000e+00 0.0000000e+00 0.0000000e+00 
0.0000000e+00 0.0000000e+00 0.0000000e+00 
0.0000000e+00 0.0000000e+00 0.0000000e+00 
0.0000000e+00 0.0000000e+00 0.0000000e+00 
0.0000000e+00 0.0000000e+00 0.0000000e+00 
0.0000000e+00 0.0000000e+00 0.0000000e+00 
0.0000000e+00 0.0000000e+00 0.0000000e+00 
0.0000000e+00 0.0000000e+00 0.0000000e+00 
0.0000000e+00 0.0000000e+00 0.0000000e+00 
0.0000000e+00 0.0000000e+00 0.0000000e+00 
0.0000000e+00 0.0000000e+00 0.0000000e+00 
0.0000000e+00 0.0000000e+00 0.0000000e+00 
0.0000000e+00 0.0000000e+00 0.0000000e+00 
0.0000000e+00 0.0000000e+00 0.0000000e+00 
0.0000000e+00 0.0000000e+00 0.0000000e+00 
0.0000000e+00 0.0000000e+00 0.0000000e+00 
0.0000000e+00 0.0000000e+00 0.0000000e+00 
0.0000000e+00 0.0000000e+00 0.0000000e+00 
0.0000000e+00 0.0000000e+00 0.0000000e+00 
0.0000000e+00 0.0000000e+00 0.0000000e+00 
0.0000000e+00 0.0000000e+00 0.0000000e+00 
0.0000000e+00 0.0000000e+00 0.0000000e+00 
0.0000000e+00 0.0000000e+00 0.0000000e+00 
0.0000000e+00 0.0000000e+00 0.0000000e+00 
0.0000000e+00 0.0000000e+00 0.0000000e+00 
0.0000000e+00 0.0000000e+00 0.0000000e+00 
0.0000000e+00 0.0000000e+00 0.0000000e+00 
0.0000000e+00 0.0000000e+00 0.0000000e+00 
0.0000000e+00 0.0000000e+00 0.0000000e+00 
0.0000000e+00 0.0000000e+00 0.0000000e+00 
0.0000000e+00 0.0000000e+00 0.0000000e+00 
0.0000000e+00 0.0000000e+00 0.0000000e+00 
0.0000000e+00 0.0000000e+00 0.0000000e+00 
0.0000000e+00 0.0000000e+00 0.0000000e+00 
0.0000000e+00 0.0000000e+00 0.0000000e+00 
0.0000000e+00 0.0000000e+00 0.0000000e+00 
0.0000000e+00 0.0000000e+00 0.0000000e+00 
0.0000000e+00 0.0000000e+00 0.0000000e+00 
0.0000000e+00 0.0000000e+00 0.0000000e+00 
0.0000000e+00 0.0000000e+00 0.0000000e+00 
0.0000000e+00 0.0000000e+00 0.0000000e+00 
0.0000000e+00 0.0000000e+00 0.0000000e+00 
0.0000000e+00 0.0000000e+00 0.0000000e+00 
0.0000000e+00 0.0000000e+00 0.0000000e+00 
0.0000000e+00 0.0000000e+00 0.0000000e+00 
0.0000000e+00 0.0000000e+00 0.0000000e+00 
0.0000000e+00 0.0000000e+00 0.0000000e+00 
0.0000000e+00 0.0000000e+00 0.0000000e+00 
0.0000000e+00 0.0000000e+00 0.0000000e+00 
0.0000000e+00 0.0000000e+00 0.0000000e+00 
0.0000000e+00 0.0000000e+00 0.0000000e+00 
0.0000000e+00 0.0000000e+00 0.0000000e+00 
0.0000000e+00 0.0000000e+00 0.0000000e+00 
0.0000000e+00 0.0000000e+00 0.0000000e+00 
0.0000000e+00 0.0000000e+00 0.0000000e+00 
0.0000000e+00 0.0000000e+00 0.0000000e+00 
0.0000000e+00 0.0000000e+00 0.0000000e+00 
0.0000000e+00 0.0000000e+00 0.0000000e+00 
0.0000000e+00 0.0000000e+00 0.0000000e+00 
0.0000000e+00 0.0000000e+00 0.0000000e+00 
0.0000000e+00 0.0000000e+00 0.0000000e+00 
0.0000000e+00 0.0000000e+00 0.0000000e+00 
0.0000000e+00 0.0000000e+00 0.0000000e+00 
0.0000000e+00 0.0000000e+00 0.0000000e+00 
0.0000000e+00 0.0000000e+00 0.0000000e+00 
0.0000000e+00 0.0000000e+00 0.0000000e+00 
0.0000000e+00 0.0000000e+00 0.0000000e+00 
0.0000000e+00 0.0000000e+00 0.0000000e+00 
0.0000000e+00 0.0000000e+00 0.0000000e+00 
0.0000000e+00 0.0000000e+00 0.0000000e+00 
0.0000000e+00 0.0000000e+00 0.0000000e+00 
0.0000000e+00 0.0000000e+00 0.0000000e+00 
0.0000000e+00 0.0000000e+00 0.0000000e+00 
0.0000000e+00 0.0000000e+00 0.0000000e+00 
0.0000000e+00 0.0000000e+00 0.0000000e+00 
0.0000000e+00 0.0000000e+00 0.0000000e+00 
0.0000000e+00 0.0000000e+00 0.0000000e+00 
0.0000000e+00 0.0000000e+00 0.0000000e+00 
0.0000000e+00 0.0000000e+00 0.0000000e+00 
0.0000000e+00 0.0000000e+00 0.0000000e+00 
0.0000000e+00 0.0000000e+00 0.0000000e+00 
1.2961656e-06 -1.4196778e-06 -1.6534252e-06 
3.0431841e-07 1.9329539e-06 3.6680931e-06 
-3.0008598e-06 3.1918498e-06 -1.4893669e-08 
-6.9005824e-07 3.8602229e-06 -2.3401756e-06 
5.6787997e-07 -4.7399631e-06 -1.2933024e-06 
7.6195188e-06 2.3370394e-06 -1.2211323e-05 
7.0948458e-06 -1.0609278e-05 -1.3334481e-05 
2.2238988e-05 -5.2132978e-06 -1.8377094e-05 
3.5408229e-05 -8.8317611e-06 -1.7629427e-05 
4.1101914e-05 -1.7746981e-05 -1.6897244e-05 
5.2315132e-05 -1.3461779e-05 -9.8108248e-06 
4.8596219e-05 -1.4754664e-05 1.6776273e-06 
4.1588384e-05 -1.2734132e-05 3.3976607e-06 
3.2789056e-05 -9.3612825e-06 8.3622854e-06 
2.0865045e-05 -7.4999602e-06 6.3953021e-06 
1.3766301e-05 -4.6757441e-06 4.4187550e-06 
9.9120425e-06 2.1788860e-06 5.8386167e-06 
9.1220845e-06 3.4685788e-06 6.8462155e-06 
2.9852649e-06 -1.1350510e-06 6.0523203e-06 
-3.5290507e-06 -5.4627153e-06 3.5951778e-06 
9.5971518e-07 -7.0814403e-06 -3.9531270e-07 
3.9668803e-06 -4.9355258e-06 2.6472821e-06 
3.2346500e-06 2.2704291e-06 7.2159837e-06 
1.9540412e-06 1.2141803e-07 6.6652910e-06 
-2.8407433e-07 -1.1162596e-06 3.7413984e-06 
1.7352488e-06 2.9316736e-06 -2.7601570e-06 
1.1670676e-05 -3.9558731e-06 -8.1908074e-06 
2.2687720e-05 -7.9974698e-06 -1.2043891e-05 
2.8684142e-05 -2.3201396e-06 -5.7711686e-06 
3.8869221e-05 -1.4422943e-05 -8.6204000e-06 
4.8014277e-05 -2.0365607e-05 -7.9762412e-06 
5.2384166e-05 -1.8106377e-05 -1.7971008e-06 
4.8051239e-05 -2.2342307e-05 3.6795237e-07 
3.7296417e-05 -1.1256961e-05 4.7901185e-06 
2.5515770e-05 -5.2636860e-06 8.8662237e-06 
1.2171514e-05 1.9759038e-06 7.6868109e-06 
3.6768399e-06 4.0618147e-06 5.5285855e-06 
-1.2317957e-06 1.4560437e-06 3.2736800e-06 
-3.7248807e-07 -1.0146643e-06 3.3958136e-06 
3.8157859e-06 -4.1251028e-06 6.0577067e-06 
5.3600616e-06 -3.0931826e-06 6.3400316e-06 
3.4068823e-06 -8.8936360e-07 5.9214062e-06 
5.6594638e-07 1.1475743e-06 2.5236213e-06 
-5.4143106e-07 4.2314994e-07 -5.1266153e-07 
-1.6035533e-06 3.3981240e-09 -2.2154682e-06 
-1.0780722e-06 3.9852665e-08 -2.1646713e-06 
2.9502488e-08 3.4601345e-07 -1.3307701e-06 
4.4540946e-07 1.4619910e-07 2.6568009e-07 
6.8327161e-08 8.5491180e-08 1.2259962e-06 
0.0000000e+00 1.3663807e-05 0.0000000e+00 
0.0000000e+00 8.0492634e-07 0.0000000e+00 
0.0000000e+00 1.7191085e-05 0.0000000e+00 
0.0000000e+00 2.2619723e-05 0.0000000e+00 
0.0000000e+00 9.2510536e-06 0.0000000e+00 
0.0000000e+00 3.3310433e-05 0.0000000e+00 
0.0000000e+00 6.3599720e-05 0.0000000e+00 
0.0000000e+00 2.8649962e-05 0.0000000e+00 
0.0000000e+00 -1.6718810e-05 0.0000000e+00 
0.0000000e+00 -1.6853308e-04 0.0000000e+00 
0.0000000e+00 -4.4920421e-04 0.0000000e+00 
0.0000000e+00 -5.3171255e-04 0.0000000e+00 
0.0000000e+00 -5.5100763e-04 0.0000000e+00 
0.0000000e+00 -4.8701116e-04 0.0000000e+00 
0.0000000e+00 -3.1668533e-04 0.0000000e+00 
0.0000000e+00 -1.4376566e-04 0.0000000e+00 
0.0000000e+00 -4.4705321e-05 0.0000000e+00 
0.0000000e+00 -3.1551303e-05 0.0000000e+00 
0.0000000e+00 -6.6783461e-05 0.0000000e+00 
0.0000000e+00 -8.7128377e-05 0.0000000e+00 
0.0000000e+00 -9.5648953e-05 0.0000000e+00 
0.0000000e+00 -1.0056115e-04 0.0000000e+00 
0.0000000e+00 -3.4809833e-05 0.0000000e+00 
0.0000000e+00 -2.0751245e-06 0.0000000e+00 
0.0000000e+00 8.4825033e-06 0.0000000e+00 
0.0000000e+00 5.0714149e-05 0.0000000e+00 
0.0000000e+00 1.1723342e-04 0.0000000e+00 
0.0000000e+00 3.8422171e-05 0.0000000e+00 
0.0000000e+00 -4.9032231e-05 0.0000000e+00 
0.0000000e+00 -2.1248931e-04 0.0000000e+00 
0.0000000e+00 -4.5364254e-04 0.0000000e+00 
0.0000000e+00 -5.7173817e-04 0.0000000e+00 
0.0000000e+00 -5.6496920e-04 0.0000000e+00 
0.0000000e+00 -4.9812120e-04 0.0000000e+00 
0.0000000e+00 -2.8470508e-04 0.0000000e+00 
0.0000000e+00 -1.2023986e-04 0.0000000e+00 
0.0000000e+00 1.2770438e-05 0.0000000e+00 
0.0000000e+00 3.2167274e-05 0.0000000e+00 
0.0000000e+00 6.0549455e-06 0.0000000e+00 
0.0000000e+00 -1.3456800e-05 0.0000000e+00 
0.0000000e+00 -1.9393045e-05 0.0000000e+00 
0.0000000e+00 -9.8289966e-06 0.0000000e+00 
0.0000000e+00 1.0610792e-05 0.0000000e+00 
0.0000000e+00 1.4445625e-05 0.0000000e+00 
0.0000000e+00 5.4319030e-06 0.0000000e+00 
0.0000000e+00 -5.1641546e-06 0.0000000e+00 
0.0000000e+00 -5.7953962e-06 0.0000000e+00 
0.0000000e+00 6.6517707e-08 0.0000000e+00 
0.0000000e+00 1.5538120e-06 0.0000000e+00 
2.1018454e-06 -2.5954666e-06 -4.8467552e-07 
-2.0898308e-06 2.4399264e-06 1.6476901e-07 
-2.2689699e-06 1.1461292e-05 6.4144001e-06 
-3.2738942e-06 2.0208709e-05 2.6357093e-06 
-1.9616195e-08 -2.9741338e-07 1.2827088e-06 
-3.6195024e-07 -4.2070596e-07 1.0825524e-06 
-5.8655434e-07 -4.4646762e-07 3.2152008e-07 
-5.0782256e-07 3.5078250e-07 -3.9912038e-07 
1.9911058e-06 -2.4313497e-06 4.5885994e-07 
2.9367820e-06 1.8739363e-09 2.3747452e-06 
-2.6854234e-06 1.0864829e-06 -3.5543667e-06 
-3.1737356e-06 -1.6525889e-06 -1.9334620e-06 
8.6884766e-06 -2.0238101e-06 -3.6882668e-06 
7.4436607e-06 1.6712856e-06 -9.5245050e-06 
1.2869804e-05 -1.3321826e-05 -1.7256680e-05 
3.1830106e-05 -3.2415530e-06 -2.4037541e-05 
4.6167748e-05 -1.0895827e-05 -2.3673942e-05 
5.1443079e-05 -1.5392479e-05 -2.0460720e-05 
5.6701134e-05 -1.0406103e-05 -1.0226186e-05 
4.6403267e-05 -1.2168603e-05 3.9587785e-06 
3.5708290e-05 -8.7939143e-06 7.6356773e-06 
2.2533823e-05 -5.4349634e-06 3.3045658e-06 
1.0541748e-05 -4.6359473e-06 4.2392217e-06 
1.0450623e-05 -4.4900680e-06 1.4565488e-06 
7.8749990e-06 8.7556083e-07 2.0994189e-07 
7.1340673e-06 7.2341149e-06 7.3091624e-06 
5.4233078e-07 4.5467280e-07 1.5205424e-05 
-1.0142121e-05 -3.3789449e-06 1.3049977e-05 
-1.1613491e-05 -9.8735954e-06 1.5235780e-06 