# vtk DataFile Version 4.0
vtk output
ASCII
DATASET UNSTRUCTURED_GRID
POINTS 1919 float
0.0000000e+00 0.0000000e+00 0.0000000e+00 
0.0000000e+00 0.0000000e+00 5.0000000e+01 
5.0000000e+00 0.0000000e+00 0.0000000e+00 
5.0000000e+00 0.0000000e+00 5.0000000e+01 
5.0000000e+00 1.0000000e+00 0.0000000e+00 
5.0000000e+00 1.0000000e+00 5.0000000e+01 
0.0000000e+00 1.0000000e+00 0.0000000e+00 
0.0000000e+00 1.0000000e+00 5.0000000e+01 
5.0000000e+00 2.0000000e+00 0.0000000e+00 
5.0000000e+00 2.0000000e+00 5.0000000e+01 
3.0000000e+00 2.0000000e+00 0.0000000e+00 
3.0000000e+00 2.0000000e+00 5.0000000e+01 
0.0000000e+00 2.0000000e+00 0.0000000e+00 
0.0000000e+00 2.0000000e+00 5.0000000e+01 
1.5000000e+00 3.0000000e+00 0.0000000e+00 
1.5000000e+00 3.0000000e+00 5.0000000e+01 
7.5000000e-01 3.0000000e+00 0.0000000e+00 
7.5000000e-01 3.0000000e+00 5.0000000e+01 
0.0000000e+00 3.0000000e+00 0.0000000e+00 
0.0000000e+00 3.0000000e+00 5.0000000e+01 
7.5000000e-01 3.0000000e+00 5.0000000e-01 
7.5000000e-01 3.0000000e+00 1.0000000e+00 
7.5000000e-01 3.0000000e+00 1.5000000e+00 
7.5000000e-01 3.0000000e+00 2.0000000e+00 
7.5000000e-01 3.0000000e+00 2.5000000e+00 
7.5000000e-01 3.0000000e+00 3.0000000e+00 
7.5000000e-01 3.0000000e+00 3.5000000e+00 
7.5000000e-01 3.0000000e+00 4.0000000e+00 
7.5000000e-01 3.0000000e+00 4.5000000e+00 
7.5000000e-01 3.0000000e+00 5.0000000e+00 
7.5000000e-01 3.0000000e+00 5.5000000e+00 
7.5000000e-01 3.0000000e+00 6.0000000e+00 
7.5000000e-01 3.0000000e+00 6.5000000e+00 
7.5000000e-01 3.0000000e+00 7.0000000e+00 
7.5000000e-01 3.0000000e+00 7.5000000e+00 
7.5000000e-01 3.0000000e+00 8.0000000e+00 
7.5000000e-01 3.0000000e+00 8.5000000e+00 
7.5000000e-01 3.0000000e+00 9.0000000e+00 
7.5000000e-01 3.0000000e+00 9.5000000e+00 
7.5000000e-01 3.0000000e+00 1.0000000e+01 
7.5000000e-01 3.0000000e+00 1.0500000e+01 
7.5000000e-01 3.0000000e+00 1.1000000e+01 
7.5000000e-01 3.0000000e+00 1.1500000e+01 
7.5000000e-01 3.0000000e+00 1.2000000e+01 
7.5000000e-01 3.0000000e+00 1.2500000e+01 
7.5000000e-01 3.0000000e+00 1.3000000e+01 
7.5000000e-01 3.0000000e+00 1.3500000e+01 
7.5000000e-01 3.0000000e+00 1.4000000e+01 
7.5000000e-01 3.0000000e+00 1.4500000e+01 
7.5000000e-01 3.0000000e+00 1.5000000e+01 
7.5000000e-01 3.0000000e+00 1.5500000e+01 
7.5000000e-01 3.0000000e+00 1.6000000e+01 
7.5000000e-01 3.0000000e+00 1.6500000e+01 
7.5000000e-01 3.0000000e+00 1.7000000e+01 
7.5000000e-01 3.0000000e+00 1.7500000e+01 
7.5000000e-01 3.0000000e+00 1.8000000e+01 
7.5000000e-01 3.0000000e+00 1.8500000e+01 
7.5000000e-01 3.0000000e+00 1.9000000e+01 
7.5000000e-01 3.0000000e+00 1.9500000e+01 
7.5000000e-01 3.0000000e+00 2.0000000e+01 
7.5000000e-01 3.0000000e+00 2.0500000e+01 
7.5000000e-01 3.0000000e+00 2.1000000e+01 
7.5000000e-01 3.0000000e+00 2.1500000e+01 
7.5000000e-01 3.0000000e+00 2.2000000e+01 
7.5000000e-01 3.0000000e+00 2.2500000e+01 
7.5000000e-01 3.0000000e+00 2.3000000e+01 
7.5000000e-01 3.0000000e+00 2.3500000e+01 
7.5000000e-01 3.0000000e+00 2.4000000e+01 
7.5000000e-01 3.0000000e+00 2.4500000e+01 
7.5000000e-01 3.0000000e+00 2.5000000e+01 
7.5000000e-01 3.0000000e+00 2.5500000e+01 
7.5000000e-01 3.0000000e+00 2.6000000e+01 
7.5000000e-01 3.0000000e+00 2.6500000e+01 
7.5000000e-01 3.0000000e+00 2.7000000e+01 
7.5000000e-01 3.0000000e+00 2.7500000e+01 
7.5000000e-01 3.0000000e+00 2.8000000e+01 
7.5000000e-01 3.0000000e+00 2.8500000e+01 
7.5000000e-01 3.0000000e+00 2.9000000e+01 
7.5000000e-01 3.0000000e+00 2.9500000e+01 
7.5000000e-01 3.0000000e+00 3.0000000e+01 
7.5000000e-01 3.0000000e+00 3.0500000e+01 
7.5000000e-01 3.0000000e+00 3.1000000e+01 
7.5000000e-01 3.0000000e+00 3.1500000e+01 
7.5000000e-01 3.0000000e+00 3.2000000e+01 
7.5000000e-01 3.0000000e+00 3.2500000e+01 
7.5000000e-01 3.0000000e+00 3.3000000e+01 
7.5000000e-01 3.0000000e+00 3.3500000e+01 
7.5000000e-01 3.0000000e+00 3.4000000e+01 
7.5000000e-01 3.0000000e+00 3.4500000e+01 
7.5000000e-01 3.0000000e+00 3.5000000e+01 
7.5000000e-01 3.0000000e+00 3.5500000e+01 
7.5000000e-01 3.0000000e+00 3.6000000e+01 
7.5000000e-01 3.0000000e+00 3.6500000e+01 
7.5000000e-01 3.0000000e+00 3.7000000e+01 
7.5000000e-01 3.0000000e+00 3.7500000e+01 
7.5000000e-01 3.0000000e+00 3.8000000e+01 
7.5000000e-01 3.0000000e+00 3.8500000e+01 
7.5000000e-01 3.0000000e+00 3.9000000e+01 
7.5000000e-01 3.0000000e+00 3.9500000e+01 
7.5000000e-01 3.0000000e+00 4.0000000e+01 
7.5000000e-01 3.0000000e+00 4.0500000e+01 
7.5000000e-01 3.0000000e+00 4.1000000e+01 
7.5000000e-01 3.0000000e+00 4.1500000e+01 
7.5000000e-01 3.0000000e+00 4.2000000e+01 
7.5000000e-01 3.0000000e+00 4.2500000e+01 
7.5000000e-01 3.0000000e+00 4.3000000e+01 
7.5000000e-01 3.0000000e+00 4.3500000e+01 
7.5000000e-01 3.0000000e+00 4.4000000e+01 
7.5000000e-01 3.0000000e+00 4.4500000e+01 
7.5000000e-01 3.0000000e+00 4.5000000e+01 
7.5000000e-01 3.0000000e+00 4.5500000e+01 
7.5000000e-01 3.0000000e+00 4.6000000e+01 
7.5000000e-01 3.0000000e+00 4.6500000e+01 
7.5000000e-01 3.0000000e+00 4.7000000e+01 
7.5000000e-01 3.0000000e+00 4.7500000e+01 
7.5000000e-01 3.0000000e+00 4.8000000e+01 
7.5000000e-01 3.0000000e+00 4.8500000e+01 
7.5000000e-01 3.0000000e+00 4.9000000e+01 
7.5000000e-01 3.0000000e+00 4.9500000e+01 
7.5000000e-01 3.0250001e+00 0.0000000e+00 
7.5000000e-01 3.0250001e+00 5.0000000e-01 
7.5000000e-01 3.0250001e+00 1.0000000e+00 
7.5000000e-01 3.0250001e+00 1.5000000e+00 
7.5000000e-01 3.0250001e+00 2.0000000e+00 
7.5000000e-01 3.0250001e+00 2.5000000e+00 
7.5000000e-01 3.0250001e+00 3.0000000e+00 
7.5000000e-01 3.0250001e+00 3.5000000e+00 
7.5000000e-01 3.0250001e+00 4.0000000e+00 
7.5000000e-01 3.0250001e+00 4.5000000e+00 
7.5000000e-01 3.0250001e+00 5.0000000e+00 
7.5000000e-01 3.0250001e+00 5.5000000e+00 
7.5000000e-01 3.0250001e+00 6.0000000e+00 
7.5000000e-01 3.0250001e+00 6.5000000e+00 
7.5000000e-01 3.0250001e+00 7.0000000e+00 
7.5000000e-01 3.0250001e+00 7.5000000e+00 
7.5000000e-01 3.0250001e+00 8.0000000e+00 
7.5000000e-01 3.0250001e+00 8.5000000e+00 
7.5000000e-01 3.0250001e+00 9.0000000e+00 
7.5000000e-01 3.0250001e+00 9.5000000e+00 
7.5000000e-01 3.0250001e+00 1.0000000e+01 
7.5000000e-01 3.0250001e+00 1.0500000e+01 
7.5000000e-01 3.0250001e+00 1.1000000e+01 
7.5000000e-01 3.0250001e+00 1.1500000e+01 
7.5000000e-01 3.0250001e+00 1.2000000e+01 
7.5000000e-01 3.0250001e+00 1.2500000e+01 
7.5000000e-01 3.0250001e+00 1.3000000e+01 
7.5000000e-01 3.0250001e+00 1.3500000e+01 
7.5000000e-01 3.0250001e+00 1.4000000e+01 
7.5000000e-01 3.0250001e+00 1.4500000e+01 
7.5000000e-01 3.0250001e+00 1.5000000e+01 
7.5000000e-01 3.0250001e+00 1.5500000e+01 
7.5000000e-01 3.0250001e+00 1.6000000e+01 
7.5000000e-01 3.0250001e+00 1.6500000e+01 
7.5000000e-01 3.0250001e+00 1.7000000e+01 
7.5000000e-01 3.0250001e+00 1.7500000e+01 
7.5000000e-01 3.0250001e+00 1.8000000e+01 
7.5000000e-01 3.0250001e+00 1.8500000e+01 
7.5000000e-01 3.0250001e+00 1.9000000e+01 
7.5000000e-01 3.0250001e+00 1.9500000e+01 
7.5000000e-01 3.0250001e+00 2.0000000e+01 
7.5000000e-01 3.0250001e+00 2.0500000e+01 
7.5000000e-01 3.0250001e+00 2.1000000e+01 
7.5000000e-01 3.0250001e+00 2.1500000e+01 
7.5000000e-01 3.0250001e+00 2.2000000e+01 
7.5000000e-01 3.0250001e+00 2.2500000e+01 
7.5000000e-01 3.0250001e+00 2.3000000e+01 
7.5000000e-01 3.0250001e+00 2.3500000e+01 
7.5000000e-01 3.0250001e+00 2.4000000e+01 
7.5000000e-01 3.0250001e+00 2.4500000e+01 
7.5000000e-01 3.0250001e+00 2.5000000e+01 
7.5000000e-01 3.0250001e+00 2.5500000e+01 
7.5000000e-01 3.0250001e+00 2.6000000e+01 
7.5000000e-01 3.0250001e+00 2.6500000e+01 
7.5000000e-01 3.0250001e+00 2.7000000e+01 
7.5000000e-01 3.0250001e+00 2.7500000e+01 
7.5000000e-01 3.0250001e+00 2.8000000e+01 
7.5000000e-01 3.0250001e+00 2.8500000e+01 
7.5000000e-01 3.0250001e+00 2.9000000e+01 
7.5000000e-01 3.0250001e+00 2.9500000e+01 
7.5000000e-01 3.0250001e+00 3.0000000e+01 
7.5000000e-01 3.0250001e+00 3.0500000e+01 
7.5000000e-01 3.0250001e+00 3.1000000e+01 
7.5000000e-01 3.0250001e+00 3.1500000e+01 
7.5000000e-01 3.0250001e+00 3.2000000e+01 
7.5000000e-01 3.0250001e+00 3.2500000e+01 
7.5000000e-01 3.0250001e+00 3.3000000e+01 
7.5000000e-01 3.0250001e+00 3.3500000e+01 
7.5000000e-01 3.0250001e+00 3.4000000e+01 
7.5000000e-01 3.0250001e+00 3.4500000e+01 
7.5000000e-01 3.0250001e+00 3.5000000e+01 
7.5000000e-01 3.0250001e+00 3.5500000e+01 
7.5000000e-01 3.0250001e+00 3.6000000e+01 
7.5000000e-01 3.0250001e+00 3.6500000e+01 
7.5000000e-01 3.0250001e+00 3.7000000e+01 
7.5000000e-01 3.0250001e+00 3.7500000e+01 
7.5000000e-01 3.0250001e+00 3.8000000e+01 
7.5000000e-01 3.0250001e+00 3.8500000e+01 
7.5000000e-01 3.0250001e+00 3.9000000e+01 
7.5000000e-01 3.0250001e+00 3.9500000e+01 
7.5000000e-01 3.0250001e+00 4.0000000e+01 
7.5000000e-01 3.0250001e+00 4.0500000e+01 
7.5000000e-01 3.0250001e+00 4.1000000e+01 
7.5000000e-01 3.0250001e+00 4.1500000e+01 
7.5000000e-01 3.0250001e+00 4.2000000e+01 
7.5000000e-01 3.0250001e+00 4.2500000e+01 
7.5000000e-01 3.0250001e+00 4.3000000e+01 
7.5000000e-01 3.0250001e+00 4.3500000e+01 
7.5000000e-01 3.0250001e+00 4.4000000e+01 
7.5000000e-01 3.0250001e+00 4.4500000e+01 
7.5000000e-01 3.0250001e+00 4.5000000e+01 
7.5000000e-01 3.0250001e+00 4.5500000e+01 
7.5000000e-01 3.0250001e+00 4.6000000e+01 
7.5000000e-01 3.0250001e+00 4.6500000e+01 
7.5000000e-01 3.0250001e+00 4.7000000e+01 
7.5000000e-01 3.0250001e+00 4.7500000e+01 
7.5000000e-01 3.0250001e+00 4.8000000e+01 
7.5000000e-01 3.0250001e+00 4.8500000e+01 
7.5000000e-01 3.0250001e+00 4.9000000e+01 
7.5000000e-01 3.0250001e+00 4.9500000e+01 
7.5000000e-01 3.0250001e+00 5.0000000e+01 
3.0000000e+00 2.0000000e+00 3.6000000e+01 
8.0487806e-01 3.0000000e+00 3.6000000e+01 
0.0000000e+00 0.0000000e+00 1.0000000e+00 
0.0000000e+00 0.0000000e+00 2.0000000e+00 
0.0000000e+00 0.0000000e+00 3.0000000e+00 
0.0000000e+00 0.0000000e+00 4.0000000e+00 
0.0000000e+00 0.0000000e+00 5.0000000e+00 
0.0000000e+00 0.0000000e+00 6.0000000e+00 
0.0000000e+00 0.0000000e+00 7.0000000e+00 
0.0000000e+00 0.0000000e+00 8.0000000e+00 
[...]
POINT_DATA 1919
FIELD FieldData 3
DISPLACEMENT 3 1919  float
0.0000000e+00 0.0000000e+00 0.0000000e+00 
0.0000000e+00 0.0000000e+00 0.0000000e+00 
0.0000000e+00 0.0000000e+00 0.0000000e+00 
0.0000000e+00 0.0000000e+00 0.0000000e+00 
-2.4883432e-06 -7.4660566e-06 -9.6528647e-06 
-1.7163014e-08 6.3630971e-08 -3.0337514e-08 
0.0000000e+00 1.1033757e-04 0.0000000e+00 
0.0000000e+00 1.4156323e-07 0.0000000e+00 
2.0860321e-05 -2.5407162e-05 -2.4873991e-05 
3.3480141e-09 -1.5792526e-08 1.6404829e-08 
-1.1760324e-05 5.8151750e-07 1.7266371e-05 
-2.5381226e-08 -6.5850834e-08 -5.2630309e-08 
0.0000000e+00 2.3994138e-04 0.0000000e+00 
0.0000000e+00 1.0686304e-07 0.0000000e+00 
1.2271850e-05 1.0314277e-04 2.0716456e-04 
-3.8977618e-08 -3.9221678e-07 -1.2502197e-07 
3.5564211e-05 -2.5040054e-05 1.1440329e-04 
2.1430944e-08 1.1911366e-06 7.4151934e-08 
0.0000000e+00 3.5029426e-04 0.0000000e+00 
0.0000000e+00 -6.2337790e-07 0.0000000e+00 
-1.6604163e-05 1.3890444e-05 1.5888046e-04 
-4.7999788e-06 8.3673345e-05 1.3609990e-04 
1.2973530e-07 7.0806644e-05 1.3239055e-04 
-2.0348839e-06 -1.4564783e-04 1.0508661e-04 
-9.3228387e-05 -6.3193362e-04 1.5659230e-04 
-9.9942677e-05 -1.3714032e-03 1.2429187e-04 
-1.7883138e-04 -2.3133291e-03 2.1287508e-04 
-2.3103534e-04 -3.3444972e-03 3.2726923e-05 
-2.7286654e-04 -4.2799278e-03 1.1984562e-04 
-3.1845432e-04 -4.6967026e-03 3.5330879e-05 
-2.3185973e-04 -4.5872987e-03 7.9770405e-07 
-1.8882733e-04 -4.4053979e-03 6.4219661e-05 
-1.7892288e-04 -4.4603450e-03 6.0395541e-05 
-2.7833667e-04 -4.5350841e-03 -5.7061476e-05 
-2.8254109e-04 -4.1892403e-03 -1.2540842e-04 
-2.1991805e-04 -3.2155977e-03 -3.7955851e-05 
-1.8790795e-04 -2.1256560e-03 -1.2484346e-04 
-1.2977402e-04 -1.2132501e-03 1.6887181e-05 
-1.2327828e-04 -5.7530508e-04 -2.1492238e-05 
-8.9086876e-05 -1.7586227e-04 -3.0068393e-06 
-6.6103741e-05 3.9657483e-05 -8.9897061e-05 
-2.6805617e-05 1.2391535e-04 -1.4360294e-04 
3.1866344e-05 1.3301878e-04 -1.8328686e-04 
4.4483044e-05 1.1275244e-04 -1.7195726e-04 
7.0528986e-05 9.3807314e-05 -1.1293117e-04 
4.9927843e-05 7.3189658e-05 -4.3579643e-05 
2.5786490e-05 4.0215251e-05 2.8761415e-05 
1.5520171e-05 -3.1828104e-06 8.0235259e-05 
-2.6387957e-05 -4.9949835e-05 9.3706745e-05 
-2.6566455e-05 -9.0843743e-05 8.1588143e-05 
-4.1456133e-05 -1.2850482e-04 9.6017808e-05 
-6.8538291e-05 -1.7734291e-04 6.7652909e-05 
-7.9030811e-05 -2.4184720e-04 5.2076255e-05 
-8.8870416e-05 -3.0752618e-04 3.0657255e-05 
-7.4758784e-05 -3.4774572e-04 1.0449865e-05 
-9.8158984e-05 -3.4108135e-04 3.2375774e-06 
-8.0817845e-05 -2.9458213e-04 -9.6192553e-06 
-6.4494183e-05 -2.4341926e-04 -2.0407138e-06 
-7.4691896e-05 -2.1253369e-04 -1.6499062e-05 
-1.6305743e-05 -2.1010189e-04 1.4343950e-05 
-4.2197225e-05 -2.2040897e-04 -1.3459950e-05 
9.4564859e-07 -2.3097053e-04 -7.0293154e-06 
-7.0028553e-05 -2.6560097e-04 2.6801768e-05 
-2.8489858e-05 -4.0350357e-04 1.1057616e-05 
-6.5504573e-05 -7.6356786e-04 7.3478092e-05 
-7.4583397e-05 -1.4575358e-03 3.1435175e-05 
-1.2875811e-04 -2.4862867e-03 1.3441057e-04 
-1.5981059e-04 -3.6364873e-03 -8.5239890e-06 
-2.2110921e-04 -4.5353216e-03 9.6005002e-05 
-2.7362356e-04 -4.7352379e-03 -1.4968082e-05 
-2.1958699e-04 -4.5733750e-03 -3.4490364e-05 
-2.7696058e-04 -4.5133615e-03 2.9171712e-05 
-3.1931925e-04 -4.7211726e-03 9.7598451e-05 
-3.6783260e-04 -4.7787162e-03 7.8763078e-05 
-3.5932235e-04 -4.2074625e-03 -1.8783483e-05 
-2.5251694e-04 -3.1071426e-03 1.5180239e-05 
-1.8749046e-04 -1.9847488e-03 -1.9037633e-04 
-1.1850839e-04 -1.0676103e-03 -1.0502456e-04 
-8.2133054e-05 -4.3886015e-04 -1.3193596e-04 
-3.4288263e-05 -7.5150019e-05 -5.4629305e-05 
-3.3952037e-05 7.3461808e-05 -5.8804366e-05 
-1.9081524e-05 9.2431022e-05 -9.1557929e-05 
1.1310561e-05 7.0528775e-05 -1.3545410e-04 
2.3444802e-05 5.1233692e-05 -1.4036072e-04 
4.2015836e-05 4.4971206e-05 -9.1820031e-05 
3.7669808e-05 4.0900311e-05 -2.4985364e-05 
1.5282714e-05 3.0649728e-05 2.2618056e-05 
3.7517530e-06 2.0682659e-05 4.6824010e-05 
-6.7947353e-06 1.8292976e-05 5.1034749e-05 
-7.0488150e-06 2.0527148e-05 3.4733821e-05 
-8.1434973e-06 1.9182686e-05 1.8813911e-05 
-6.3707757e-06 1.0715645e-05 6.0550988e-06 
-2.6888790e-06 1.1369134e-06 -8.1843982e-06 
-7.2692865e-07 -5.1824986e-06 -1.0282446e-05 
1.3089157e-06 -7.1079353e-06 -7.5652392e-06 
2.1002597e-06 -6.8040767e-06 -4.7490803e-06 
8.0266216e-07 -6.0849015e-06 -1.3067837e-06 
2.1706859e-07 -4.9149626e-06 -7.3115314e-07 
-1.2028332e-08 -2.8194702e-06 9.5476878e-07 
-2.1785947e-07 -2.6288274e-07 2.5849995e-06 
-3.1045738e-07 1.4475611e-06 7.6587639e-07 
-4.4020686e-07 1.8445910e-06 6.1908958e-07 
-5.1356242e-08 1.7695709e-06 7.5544698e-08 
1.8154167e-07 1.9168053e-06 -9.9604767e-07 
2.4598128e-07 2.0470341e-06 1.8054988e-07 
4.4919481e-08 1.3646099e-06 -2.5990880e-07 
-7.5859042e-08 -3.8680585e-07 -1.6547094e-07 
-7.4591135e-08 -2.1957283e-06 -1.7036498e-07 
-3.0765599e-07 -2.7750480e-06 5.4515077e-08 
-7.3575315e-08 -1.5892158e-06 -1.3763450e-08 
-2.1513770e-08 5.1197532e-07 4.0826936e-07 
6.1863432e-08 2.0203024e-06 -2.9252078e-07 
1.4838369e-07 1.9595907e-06 -4.4461448e-08 
6.5580764e-08 6.5887644e-07 1.8170526e-07 
-6.9896792e-08 -8.4629204e-07 -1.8410938e-07 
-2.5902049e-08 -1.6167388e-06 6.7012877e-08 
2.0277968e-08 -1.2955018e-06 6.4868352e-08 
-1.5635014e-07 -2.7596343e-07 -5.0476064e-08 
1.1724127e-08 7.5520990e-07 -3.3207279e-08 
0.0000000e+00 -2.3131013e-05 0.0000000e+00 
0.0000000e+00 1.6173175e-05 0.0000000e+00 
0.0000000e+00 8.4635103e-05 0.0000000e+00 
0.0000000e+00 6.9418784e-05 0.0000000e+00 
0.0000000e+00 -1.4864464e-04 0.0000000e+00 
0.0000000e+00 -6.3455384e-04 0.0000000e+00 
0.0000000e+00 -1.3765640e-03 0.0000000e+00 
0.0000000e+00 -2.3187555e-03 0.0000000e+00 
0.0000000e+00 -3.3639797e-03 0.0000000e+00 
0.0000000e+00 -4.3010088e-03 0.0000000e+00 
0.0000000e+00 -4.7294474e-03 0.0000000e+00 
0.0000000e+00 -4.6084849e-03 0.0000000e+00 
0.0000000e+00 -4.4325492e-03 0.0000000e+00 
0.0000000e+00 -4.4805608e-03 0.0000000e+00 
0.0000000e+00 -4.5651351e-03 0.0000000e+00 
0.0000000e+00 -4.2094956e-03 0.0000000e+00 
0.0000000e+00 -3.2379932e-03 0.0000000e+00 
0.0000000e+00 -2.1350051e-03 0.0000000e+00 
0.0000000e+00 -1.2189880e-03 0.0000000e+00 
0.0000000e+00 -5.7629374e-04 0.0000000e+00 
0.0000000e+00 -1.7607541e-04 0.0000000e+00 
0.0000000e+00 3.9450744e-05 0.0000000e+00 
0.0000000e+00 1.2493024e-04 0.0000000e+00 
0.0000000e+00 1.3428745e-04 0.0000000e+00 
0.0000000e+00 1.1453982e-04 0.0000000e+00 
0.0000000e+00 9.4098163e-05 0.0000000e+00 
0.0000000e+00 7.2352013e-05 0.0000000e+00 
0.0000000e+00 3.9830848e-05 0.0000000e+00 
0.0000000e+00 -3.2505493e-06 0.0000000e+00 
0.0000000e+00 -4.9357237e-05 0.0000000e+00 
0.0000000e+00 -9.0294707e-05 0.0000000e+00 
0.0000000e+00 -1.2882278e-04 0.0000000e+00 
0.0000000e+00 -1.7810332e-04 0.0000000e+00 
0.0000000e+00 -2.4272614e-04 0.0000000e+00 
0.0000000e+00 -3.0789888e-04 0.0000000e+00 
0.0000000e+00 -3.4681030e-04 0.0000000e+00 
0.0000000e+00 -3.3967444e-04 0.0000000e+00 
0.0000000e+00 -2.9458170e-04 0.0000000e+00 
0.0000000e+00 -2.4393812e-04 0.0000000e+00 
0.0000000e+00 -2.1398759e-04 0.0000000e+00 
0.0000000e+00 -2.1054302e-04 0.0000000e+00 
0.0000000e+00 -2.1921768e-04 0.0000000e+00 
0.0000000e+00 -2.2842769e-04 0.0000000e+00 
0.0000000e+00 -2.6286082e-04 0.0000000e+00 
0.0000000e+00 -4.0261185e-04 0.0000000e+00 
0.0000000e+00 -7.6889602e-04 0.0000000e+00 
0.0000000e+00 -1.4693156e-03 0.0000000e+00 
0.0000000e+00 -2.4968025e-03 0.0000000e+00 
0.0000000e+00 -3.6550981e-03 0.0000000e+00 
0.0000000e+00 -4.5556221e-03 0.0000000e+00 
0.0000000e+00 -4.7671152e-03 0.0000000e+00 
0.0000000e+00 -4.5960336e-03 0.0000000e+00 
0.0000000e+00 -4.5439093e-03 0.0000000e+00 
0.0000000e+00 -4.7402829e-03 0.0000000e+00 
0.0000000e+00 -4.8105982e-03 0.0000000e+00 
0.0000000e+00 -4.2274399e-03 0.0000000e+00 
0.0000000e+00 -3.1266648e-03 0.0000000e+00 
0.0000000e+00 -1.9917302e-03 0.0000000e+00 
0.0000000e+00 -1.0729330e-03 0.0000000e+00 
0.0000000e+00 -4.4043019e-04 0.0000000e+00 
0.0000000e+00 -7.6413955e-05 0.0000000e+00 
0.0000000e+00 7.3924530e-05 0.0000000e+00 
0.0000000e+00 9.5132884e-05 0.0000000e+00 
0.0000000e+00 7.2117386e-05 0.0000000e+00 
0.0000000e+00 5.1813757e-05 0.0000000e+00 
0.0000000e+00 4.4675693e-05 0.0000000e+00 
0.0000000e+00 4.0403702e-05 0.0000000e+00 
0.0000000e+00 3.0834846e-05 0.0000000e+00 
0.0000000e+00 2.1150550e-05 0.0000000e+00 
0.0000000e+00 1.8367602e-05 0.0000000e+00 
0.0000000e+00 2.0197622e-05 0.0000000e+00 
0.0000000e+00 1.8815123e-05 0.0000000e+00 
0.0000000e+00 1.0947139e-05 0.0000000e+00 
0.0000000e+00 1.3442498e-06 0.0000000e+00 
0.0000000e+00 -5.0991330e-06 0.0000000e+00 
0.0000000e+00 -7.1686895e-06 0.0000000e+00 
0.0000000e+00 -6.8708882e-06 0.0000000e+00 
0.0000000e+00 -6.0655912e-06 0.0000000e+00 
0.0000000e+00 -4.8645384e-06 0.0000000e+00 
0.0000000e+00 -2.8116642e-06 0.0000000e+00 
0.0000000e+00 -3.3245422e-07 0.0000000e+00 
0.0000000e+00 1.3912979e-06 0.0000000e+00 
0.0000000e+00 1.8816667e-06 0.0000000e+00 
0.0000000e+00 1.8259556e-06 0.0000000e+00 
0.0000000e+00 1.9240945e-06 0.0000000e+00 
0.0000000e+00 2.0027021e-06 0.0000000e+00 
0.0000000e+00 1.3100449e-06 0.0000000e+00 
0.0000000e+00 -3.7856171e-07 0.0000000e+00 
0.0000000e+00 -2.1462586e-06 0.0000000e+00 
0.0000000e+00 -2.7186441e-06 0.0000000e+00 
0.0000000e+00 -1.5810017e-06 0.0000000e+00 
0.0000000e+00 4.7349499e-07 0.0000000e+00 
0.0000000e+00 1.9644476e-06 0.0000000e+00 
0.0000000e+00 1.9417066e-06 0.0000000e+00 
0.0000000e+00 6.7573416e-07 0.0000000e+00 
0.0000000e+00 -8.1985996e-07 0.0000000e+00 
0.0000000e+00 -1.5922515e-06 0.0000000e+00 
0.0000000e+00 -1.2908515e-06 0.0000000e+00 
0.0000000e+00 -2.8250170e-07 0.0000000e+00 
0.0000000e+00 7.4598546e-07 0.0000000e+00 
0.0000000e+00 1.1809851e-06 0.0000000e+00 
6.4733308e-07 -5.0687308e-06 6.6681282e-06 
-6.3632460e-06 4.5585339e-06 6.0902607e-06 
0.0000000e+00 0.0000000e+00 0.0000000e+00 
0.0000000e+00 0.0000000e+00 0.0000000e+00 
0.0000000e+00 0.0000000e+00 0.0000000e+00 
0.0000000e+00 0.0000000e+00 0.0000000e+00 
0.0000000e+00 0.0000000e+00 0.0000000e+00 
0.0000000e+00 0.0000000e+00 0.0000000e+00 
0.0000000e+00 0.0000000e+00 0.0000000e+00 
0.0000000e+00 0.0000000e+00 0.0000000e+00 
0.0000000e+00 0.0000000e+00 0.0000000e+00 
0.0000000e+00 0.0000000e+00 0.0000000e+00 
0.0000000e+00 0.0000000e+00 0.0000000e+00 
0.0000000e+00 0.0000000e+00 0.0000000e+00 
0.0000000e+00 0.0000000e+00 0.0000000e+00 
0.0000000e+00 0.0000000e+00 0.0000000e+00 
0.0000000e+00 0.0000000e+00 0.0000000e+00 
0.0000000e+00 0.0000000e+00 0.0000000e+00 
0.0000000e+00 0.0000000e+00 0.0000000e+00 
0.0000000e+00 0.0000000e+00 0.0000000e+00 
0.0000000e+00 0.0000000e+00 0.0000000e+00 
0.0000000e+00 0.0000000e+00 0.0000000e+00 
0.0000000e+00 0.0000000e+00 0.0000000e+00 
0.0000000e+00 0.0000000e+00 0.0000000e+00 
0.0000000e+00 0.0000000e+00 0.0000000e+00 
0.0000000e+00 0.0000000e+00 0.0000000e+00 
0.0000000e+00 0.0000000e+00 0.0000000e+00 
0.0000000e+00 0.0000000e+00 0.0000000e+00 
0.0000000e+00 0.0000000e+00 0.0000000e+00 
0.0000000e+00 0.0000000e+00 0.0000000e+00 
0.0000000e+00 0.0000000e+00 0.0000000e+00 
0.0000000e+00 0.0000000e+00 0.0000000e+00 
0.0000000e+00 0.0000000e+00 0.0000000e+00 
0.0000000e+00 0.0000000e+00 0.0000000e+00 
0.0000000e+00 0.0000000e+00 0.0000000e+00 
0.0000000e+00 0.0000000e+00 0.0000000e+00 
0.0000000e+00 0.0000000e+00 0.0000000e+00 
0.0000000e+00 0.0000000e+00 0.0000000e+00 
0.0000000e+00 0.0000000e+00 0.0000000e+00 
0.0000000e+00 0.0000000e+00 0.0000000e+00 
0.0000000e+00 0.0000000e+00 0.0000000e+00 
0.0000000e+00 0.0000000e+00 0.0000000e+00 
0.0000000e+00 0.0000000e+00 0.0000000e+00 
0.0000000e+00 0.0000000e+00 0.0000000e+00 
0.0000000e+00 0.0000000e+00 0.0000000e+00 
0.0000000e+00 0.0000000e+00 0.0000000e+00 
0.0000000e+00 0.0000000e+00 0.0000000e+00 
0.0000000e+00 0.0000000e+00 0.0000000e+00 
0.0000000e+00 0.0000000e+00 0.0000000e+00 
0.0000000e+00 0.0000000e+00 0.0000000e+00 
0.0000000e+00 0.0000000e+00 0.0000000e+00 
0.0000000e+00 0.0000000e+00 0.0000000e+00 
0.0000000e+00 0.0000000e+00 0.0000000e+00 
0.0000000e+00 0.0000000e+00 0.0000000e+00 
0.0000000e+00 0.0000000e+00 0.0000000e+00 
0.0000000e+00 0.0000000e+00 0.0000000e+00 
0.0000000e+00 0.0000000e+00 0.0000000e+00 
0.0000000e+00 0.0000000e+00 0.0000000e+00 
0.0000000e+00 0.0000000e+00 0.0000000e+00 
0.0000000e+00 0.0000000e+00 0.0000000e+00 
0.0000000e+00 0.0000000e+00 0.0000000e+00 
0.0000000e+00 0.0000000e+00 0.0000000e+00 
0.0000000e+00 0.0000000e+00 0.0000000e+00 
0.0000000e+00 0.0000000e+00 0.0000000e+00 
0.0000000e+00 0.0000000e+00 0.0000000e+00 
0.0000000e+00 0.0000000e+00 0.0000000e+00 
0.0000000e+00 0.0000000e+00 0.0000000e+00 
0.0000000e+00 0.0000000e+00 0.0000000e+00 
0.0000000e+00 0.0000000e+00 0.0000000e+00 
0.0000000e+00 0.0000000e+00 0.0000000e+00 
0.0000000e+00 0.0000000e+00 0.0000000e+00 
0.0000000e+00 0.0000000e+00 0.0000000e+00 
0.0000000e+00 0.0000000e+00 0.0000000e+00 
0.0000000e+00 0.0000000e+00 0.0000000e+00 
0.0000000e+00 0.0000000e+00 0.0000000e+00 
0.0000000e+00 0.0000000e+00 0.0000000e+00 
0.0000000e+00 0.0000000e+00 0.0000000e+00 
0.0000000e+00 0.0000000e+00 0.0000000e+00 
0.0000000e+00 0.0000000e+00 0.0000000e+00 
0.0000000e+00 0.0000000e+00 0.0000000e+00 
0.0000000e+00 0.0000000e+00 0.0000000e+00 
0.0000000e+00 0.0000000e+00 0.0000000e+00 
0.0000000e+00 0.0000000e+00 0.0000000e+00 
0.0000000e+00 0.0000000e+00 0.0000000e+00 
0.0000000e+00 0.0000000e+00 0.0000000e+00 
0.0000000e+00 0.0000000e+00 0.0000000e+00 
0.0000000e+00 0.0000000e+00 0.0000000e+00 
0.0000000e+00 0.0000000e+00 0.0000000e+00 
0.0000000e+00 0.0000000e+00 0.0000000e+00 
0.0000000e+00 0.0000000e+00 0.0000000e+00 
0.0000000e+00 0.0000000e+00 0.0000000e+00 
0.0000000e+00 0.0000000e+00 0.0000000e+00 
0.0000000e+00 0.0000000e+00 0.0000000e+00 
0.0000000e+00 0.0000000e+00 0.0000000e+00 
0.0000000e+00 0.0000000e+00 0.0000000e+00 
0.0000000e+00 0.0000000e+00 0.0000000e+00 
0.0000000e+00 0.0000000e+00 0.0000000e+00 
0.0000000e+00 0.0000000e+00 0.0000000e+00 
0.0000000e+00 0.0000000e+00 0.0000000e+00 
0.0000000e+00 0.0000000e+00 0.0000000e+00 
0.0000000e+00 0.0000000e+00 0.0000000e+00 
0.0000000e+00 0.0000000e+00 0.0000000e+00 
0.0000000e+00 0.0000000e+00 0.0000000e+00 
0.0000000e+00 0.0000000e+00 0.0000000e+00 
0.0000000e+00 0.0000000e+00 0.0000000e+00 
0.0000000e+00 0.0000000e+00 0.0000000e+00 
0.0000000e+00 0.0000000e+00 0.0000000e+00 
0.0000000e+00 0.0000000e+00 0.0000000e+00 
-1.0118160e-06 1.1181662e-07 -4.4957669e-06 
4.8385373e-06 2.1684455e-06 -8.4200265e-06 
1.8402034e-05 1.2170511e-06 -1.1801435e-05 
3.3613192e-05 -1.4467229e-05 -9.8959144e-06 
3.9784685e-05 -3.3237859e-05 -1.4136871e-06 
4.6530957e-05 -2.8748687e-05 8.2059851e-06 
5.3924821e-05 -2.2835298e-05 1.8618352e-05 
4.0162522e-05 -1.1417531e-05 2.8514540e-05 
2.1775051e-05 -4.7680510e-06 2.3149694e-05 
1.7742072e-05 -5.4558795e-06 1.8308312e-05 
7.9912425e-06 -7.1532008e-06 8.6126338e-06 
1.9121319e-06 1.0214385e-06 -1.0380082e-05 
9.5097050e-07 3.0208957e-06 -2.2831424e-05 
2.5046022e-06 4.2820275e-06 -1.5389496e-05 
-1.7656574e-06 -1.9355209e-06 -1.0311870e-05 
-2.6238729e-06 -8.5275151e-06 -3.2910580e-06 
-5.5333300e-07 -9.0846797e-06 -4.5670349e-06 
-1.7902307e-06 2.2374659e-06 -6.2669387e-06 
9.4660876e-08 -6.3044208e-06 -3.8504281e-06 
-4.4070594e-06 2.3090577e-06 -6.9957973e-06 
6.9888902e-06 -1.9037826e-06 -1.3945659e-05 
1.2520282e-05 -1.3884923e-05 -1.4549865e-05 
2.0216759e-05 -1.6167329e-05 -1.5326907e-05 
3.4842178e-05 -1.3054584e-05 -1.0696062e-05 
4.1756019e-05 -2.0061352e-05 5.1554930e-06 
4.9859096e-05 -1.6267084e-05 2.1726350e-05 
5.3900723e-05 -1.5560894e-05 3.3326440e-05 
3.9138424e-05 -7.2754069e-06 3.8751481e-05 
2.6125703e-05 -6.2395434e-06 2.3682736e-05 
1.3882006e-05 -8.3616451e-06 9.1908405e-06 
3.8157023e-06 -3.6072811e-06 -2.8234348e-07 
-7.2268875e-07 1.2629839e-06 -5.3913036e-06 
-1.6920371e-06 4.6568884e-06 -6.8863701e-06 
-1.6739669e-06 2.0779926e-06 -2.6350128e-06 
-1.7878990e-06 3.2607229e-08 1.8698706e-06 
-2.7806558e-07 -1.4665112e-06 3.5675348e-06 
4.7859123e-07 -6.9491591e-07 2.0067953e-06 
5.5389995e-07 -9.3204502e-09 6.8978238e-07 
-1.4049425e-07 1.3848961e-07 -2.8729960e-07 
-1.5757577e-07 -3.1184175e-07 -2.6613532e-07 
3.2254732e-08 4.6268006e-08 7.8810025e-09 
3.7526764e-08 3.8964691e-07 9.3709858e-08 
1.5706272e-08 -6.6485164e-08 1.1211761e-07 
4.1433523e-08 -1.0902216e-07 -1.1879021e-08 
-7.4670554e-09 6.9192836e-08 -3.7946101e-08 
-3.5537983e-08 1.1294904e-07 2.3444230e-08 
1.0609142e-08 2.5159936e-09 2.4089330e-08 
1.4002365e-08 -5.6224444e-08 2.2703272e-08 
-2.7557336e-08 -1.5643693e-08 -3.9633093e-08 
0.0000000e+00 1.4514255e-04 0.0000000e+00 
0.0000000e+00 5.6446021e-05 0.0000000e+00 
0.0000000e+00 -9.9732359e-05 0.0000000e+00 
0.0000000e+00 -1.9465220e-04 0.0000000e+00 
0.0000000e+00 -3.4684539e-04 0.0000000e+00 
0.0000000e+00 -3.8974514e-04 0.0000000e+00 
0.0000000e+00 -4.2356562e-04 0.0000000e+00 
0.0000000e+00 -3.4983063e-04 0.0000000e+00 
0.0000000e+00 -1.6420640e-04 0.0000000e+00 
0.0000000e+00 -6.9492962e-05 0.0000000e+00 
0.0000000e+00 -4.0265866e-05 0.0000000e+00 
0.0000000e+00 -8.2962060e-06 0.0000000e+00 
0.0000000e+00 -7.0901374e-06 0.0000000e+00 
0.0000000e+00 -6.7277911e-06 0.0000000e+00 
0.0000000e+00 5.7257535e-06 0.0000000e+00 
0.0000000e+00 -2.8386339e-06 0.0000000e+00 
0.0000000e+00 -1.1836861e-05 0.0000000e+00 
0.0000000e+00 2.8153856e-05 0.0000000e+00 
0.0000000e+00 4.8965288e-05 0.0000000e+00 
0.0000000e+00 2.6721136e-06 0.0000000e+00 
0.0000000e+00 5.9236805e-07 0.0000000e+00 
0.0000000e+00 -1.9313507e-05 0.0000000e+00 
0.0000000e+00 -1.6360715e-04 0.0000000e+00 
0.0000000e+00 -2.9404077e-04 0.0000000e+00 
0.0000000e+00 -3.8527977e-04 0.0000000e+00 
0.0000000e+00 -4.2792506e-04 0.0000000e+00 
0.0000000e+00 -4.0413800e-04 0.0000000e+00 
0.0000000e+00 -3.1212138e-04 0.0000000e+00 
0.0000000e+00 -1.5599340e-04 0.0000000e+00 
0.0000000e+00 -8.0728620e-05 0.0000000e+00 
0.0000000e+00 -2.5662957e-05 0.0000000e+00 
0.0000000e+00 -8.8454362e-06 0.0000000e+00 
0.0000000e+00 1.1612427e-05 0.0000000e+00 
0.0000000e+00 1.9714285e-05 0.0000000e+00 
0.0000000e+00 1.0304314e-05 0.0000000e+00 
0.0000000e+00 -1.0013572e-06 0.0000000e+00 
0.0000000e+00 -7.7038849e-06 0.0000000e+00 
0.0000000e+00 -3.5824662e-06 0.0000000e+00 
0.0000000e+00 1.2836853e-06 0.0000000e+00 
0.0000000e+00 1.9993067e-06 0.0000000e+00 
0.0000000e+00 -1.1500006e-07 0.0000000e+00 
0.0000000e+00 -1.1320337e-06 0.0000000e+00 
0.0000000e+00 2.6873681e-07 0.0000000e+00 
0.0000000e+00 4.0146881e-07 0.0000000e+00 
0.0000000e+00 -2.8625828e-07 0.0000000e+00 
0.0000000e+00 -1.8338336e-07 0.0000000e+00 
0.0000000e+00 2.6507499e-07 0.0000000e+00 
0.0000000e+00 3.8968505e-08 0.0000000e+00 
0.0000000e+00 -1.0848593e-07 0.0000000e+00 
-1.3770916e-05 3.9368210e-06 4.7863437e-06 
-1.6630798e-05 2.0250761e-06 2.2834893e-06 
-2.3091256e-05 3.4497520e-05 -3.2407168e-06 
-1.4547410e-05 9.1668167e-05 5.6104614e-06 
-2.7008850e-08 -3.1149387e-08 -3.8279595e-08 
1.2175523e-08 -1.0815938e-07 -5.0369810e-08 
-1.5932422e-09 -1.3368759e-08 6.1253907e-08 
1.2297768e-08 -1.3541060e-08 1.2342827e-08 
1.8694573e-05 -4.4839926e-06 -3.6386737e-06 
1.0039224e-05 4.7714201e-07 -1.2038229e-06 
1.7586352e-05 1.0315304e-06 2.6533705e-06 
3.8979524e-05 -1.7495404e-05 6.5401173e-06 
5.0013827e-05 -4.4687928e-05 8.3939636e-07 
5.4357737e-05 -3.7470014e-05 5.0774943e-06 
6.0674152e-05 -2.0668638e-05 1.2397504e-05 
5.8769219e-05 -6.2680233e-06 2.6545269e-05 
3.9491613e-05 3.3042960e-07 3.6681635e-05 
1.9929790e-05 -4.9782743e-06 2.6329737e-05 
-3.2664846e-07 -5.8599803e-06 1.0469988e-05 
-5.7004718e-06 4.5812349e-06 -1.5931233e-05 
-1.1110936e-06 7.7920286e-06 -3.2958316e-05 
7.6526248e-06 6.8140926e-06 -2.1186182e-05 
1.2423743e-05 -8.4587800e-06 -1.0780478e-05 
7.6847818e-06 -1.6987839e-05 -1.8201338e-06 
1.4751085e-05 -9.7150023e-06 -5.0431122e-06 
1.9074299e-05 -5.4641523e-06 -9.4494981e-06 
5.6508288e-06 -1.6409316e-05 -3.8782109e-06 
-2.6851105e-06 5.6934599e-08 5.3429983e-07 