# vtk DataFile Version 4.0
vtk output
ASCII
DATASET UNSTRUCTURED_GRID
POINTS 1919 float
0.0000000e+00 0.0000000e+00 0.0000000e+00 
0.0000000e+00 0.0000000e+00 5.0000000e+01 
5.0000000e+00 0.0000000e+00 0.0000000e+00 
5.0000000e+00 0.0000000e+00 5.0000000e+01 
5.0000000e+00 1.0000000e+00 0.0000000e+00 
5.0000000e+00 1.0000000e+00 5.0000000e+01 
0.0000000e+00 1.0000000e+00 0.0000000e+00 
0.0000000e+00 1.0000000e+00 5.0000000e+01 
5.0000000e+00 2.0000000e+00 0.0000000e+00 
5.0000000e+00 2.0000000e+00 5.0000000e+01 
3.0000000e+00 2.0000000e+00 0.0000000e+00 
3.0000000e+00 2.0000000e+00 5.0000000e+01 
0.0000000e+00 2.0000000e+00 0.0000000e+00 
0.0000000e+00 2.0000000e+00 5.0000000e+01 
1.5000000e+00 3.0000000e+00 0.0000000e+00 
1.5000000e+00 3.0000000e+00 5.0000000e+01 
7.5000000e-01 3.0000000e+00 0.0000000e+00 
7.5000000e-01 3.0000000e+00 5.0000000e+01 
0.0000000e+00 3.0000000e+00 0.0000000e+00 
0.0000000e+00 3.0000000e+00 5.0000000e+01 
7.5000000e-01 3.0000000e+00 5.0000000e-01 
7.5000000e-01 3.0000000e+00 1.0000000e+00 
7.5000000e-01 3.0000000e+00 1.5000000e+00 
7.5000000e-01 3.0000000e+00 2.0000000e+00 
7.5000000e-01 3.0000000e+00 2.5000000e+00 
7.5000000e-01 3.0000000e+00 3.0000000e+00 
7.5000000e-01 3.0000000e+00 3.5000000e+00 
7.5000000e-01 3.0000000e+00 4.0000000e+00 
7.5000000e-01 3.0000000e+00 4.5000000e+00 
7.5000000e-01 3.0000000e+00 5.0000000e+00 
7.5000000e-01 3.0000000e+00 5.5000000e+00 
7.5000000e-01 3.0000000e+00 6.0000000e+00 
7.5000000e-01 3.0000000e+00 6.5000000e+00 
7.5000000e-01 3.0000000e+00 7.0000000e+00 
7.5000000e-01 3.0000000e+00 7.5000000e+00 
7.5000000e-01 3.0000000e+00 8.0000000e+00 
7.5000000e-01 3.0000000e+00 8.5000000e+00 
7.5000000e-01 3.0000000e+00 9.0000000e+00 
7.5000000e-01 3.0000000e+00 9.5000000e+00 
7.5000000e-01 3.0000000e+00 1.0000000e+01 
7.5000000e-01 3.0000000e+00 1.0500000e+01 
7.5000000e-01 3.0000000e+00 1.1000000e+01 
7.5000000e-01 3.0000000e+00 1.1500000e+01 
7.5000000e-01 3.0000000e+00 1.2000000e+01 
7.5000000e-01 3.0000000e+00 1.2500000e+01 
7.5000000e-01 3.0000000e+00 1.3000000e+01 
7.5000000e-01 3.0000000e+00 1.3500000e+01 
7.5000000e-01 3.0000000e+00 1.4000000e+01 
7.5000000e-01 3.0000000e+00 1.4500000e+01 
7.5000000e-01 3.0000000e+00 1.5000000e+01 
7.5000000e-01 3.0000000e+00 1.5500000e+01 
7.5000000e-01 3.0000000e+00 1.6000000e+01 
7.5000000e-01 3.0000000e+00 1.6500000e+01 
7.5000000e-01 3.0000000e+00 1.7000000e+01 
7.5000000e-01 3.0000000e+00 1.7500000e+01 
7.5000000e-01 3.0000000e+00 1.8000000e+01 
7.5000000e-01 3.0000000e+00 1.8500000e+01 
7.5000000e-01 3.0000000e+00 1.9000000e+01 
7.5000000e-01 3.0000000e+00 1.9500000e+01 
7.5000000e-01 3.0000000e+00 2.0000000e+01 
7.5000000e-01 3.0000000e+00 2.0500000e+01 
7.5000000e-01 3.0000000e+00 2.1000000e+01 
7.5000000e-01 3.0000000e+00 2.1500000e+01 
7.5000000e-01 3.0000000e+00 2.2000000e+01 
7.5000000e-01 3.0000000e+00 2.2500000e+01 
7.5000000e-01 3.0000000e+00 2.3000000e+01 
7.5000000e-01 3.0000000e+00 2.3500000e+01 
7.5000000e-01 3.0000000e+00 2.4000000e+01 
7.5000000e-01 3.0000000e+00 2.4500000e+01 
7.5000000e-01 3.0000000e+00 2.5000000e+01 
7.5000000e-01 3.0000000e+00 2.5500000e+01 
7.5000000e-01 3.0000000e+00 2.6000000e+01 
7.5000000e-01 3.0000000e+00 2.6500000e+01 
7.5000000e-01 3.0000000e+00 2.7000000e+01 
7.5000000e-01 3.0000000e+00 2.7500000e+01 
7.5000000e-01 3.0000000e+00 2.8000000e+01 
7.5000000e-01 3.0000000e+00 2.8500000e+01 
7.5000000e-01 3.0000000e+00 2.9000000e+01 
7.5000000e-01 3.0000000e+00 2.9500000e+01 
7.5000000e-01 3.0000000e+00 3.0000000e+01 
7.5000000e-01 3.0000000e+00 3.0500000e+01 
7.5000000e-01 3.0000000e+00 3.1000000e+01 
7.5000000e-01 3.0000000e+00 3.1500000e+01 
7.5000000e-01 3.0000000e+00 3.2000000e+01 
7.5000000e-01 3.0000000e+00 3.2500000e+01 
7.5000000e-01 3.0000000e+00 3.3000000e+01 
7.5000000e-01 3.0000000e+00 3.3500000e+01 
7.5000000e-01 3.0000000e+00 3.4000000e+01 
7.5000000e-01 3.0000000e+00 3.4500000e+01 
7.5000000e-01 3.0000000e+00 3.5000000e+01 
7.5000000e-01 3.0000000e+00 3.5500000e+01 
7.5000000e-01 3.0000000e+00 3.6000000e+01 
7.5000000e-01 3.0000000e+00 3.6500000e+01 
7.5000000e-01 3.0000000e+00 3.7000000e+01 
7.5000000e-01 3.0000000e+00 3.7500000e+01 
7.5000000e-01 3.0000000e+00 3.8000000e+01 
7.5000000e-01 3.0000000e+00 3.8500000e+01 
7.5000000e-01 3.0000000e+00 3.9000000e+01 
7.5000000e-01 3.0000000e+00 3.9500000e+01 
7.5000000e-01 3.0000000e+00 4.0000000e+01 
7.5000000e-01 3.0000000e+00 4.0500000e+01 
7.5000000e-01 3.0000000e+00 4.1000000e+01 
7.5000000e-01 3.0000000e+00 4.1500000e+01 
7.5000000e-01 3.0000000e+00 4.2000000e+01 
7.5000000e-01 3.0000000e+00 4.2500000e+01 
7.5000000e-01 3.0000000e+00 4.3000000e+01 
7.5000000e-01 3.0000000e+00 4.3500000e+01 
7.5000000e-01 3.0000000e+00 4.4000000e+01 
7.5000000e-01 3.0000000e+00 4.4500000e+01 
7.5000000e-01 3.0000000e+00 4.5000000e+01 
7.5000000e-01 3.0000000e+00 4.5500000e+01 
7.5000000e-01 3.0000000e+00 4.6000000e+01 
7.5000000e-01 3.0000000e+00 4.6500000e+01 
7.5000000e-01 3.0000000e+00 4.7000000e+01 
7.5000000e-01 3.0000000e+00 4.7500000e+01 
7.5000000e-01 3.0000000e+00 4.8000000e+01 
7.5000000e-01 3.0000000e+00 4.8500000e+01 
7.5000000e-01 3.0000000e+00 4.9000000e+01 
7.5000000e-01 3.0000000e+00 4.9500000e+01 
7.5000000e-01 3.0250001e+00 0.0000000e+00 
7.5000000e-01 3.0250001e+00 5.0000000e-01 
7.5000000e-01 3.0250001e+00 1.0000000e+00 
7.5000000e-01 3.0250001e+00 1.5000000e+00 
7.5000000e-01 3.0250001e+00 2.0000000e+00 
7.5000000e-01 3.0250001e+00 2.5000000e+00 
7.5000000e-01 3.0250001e+00 3.0000000e+00 
7.5000000e-01 3.0250001e+00 3.5000000e+00 
7.5000000e-01 3.0250001e+00 4.0000000e+00 
7.5000000e-01 3.0250001e+00 4.5000000e+00 
7.5000000e-01 3.0250001e+00 5.0000000e+00 
7.5000000e-01 3.0250001e+00 5.5000000e+00 
7.5000000e-01 3.0250001e+00 6.0000000e+00 
7.5000000e-01 3.0250001e+00 6.5000000e+00 
7.5000000e-01 3.0250001e+00 7.0000000e+00 
7.5000000e-01 3.0250001e+00 7.5000000e+00 
7.5000000e-01 3.0250001e+00 8.0000000e+00 
7.5000000e-01 3.0250001e+00 8.5000000e+00 
7.5000000e-01 3.0250001e+00 9.0000000e+00 
7.5000000e-01 3.0250001e+00 9.5000000e+00 
7.5000000e-01 3.0250001e+00 1.0000000e+01 
7.5000000e-01 3.0250001e+00 1.0500000e+01 
7.5000000e-01 3.0250001e+00 1.1000000e+01 
7.5000000e-01 3.0250001e+00 1.1500000e+01 
7.5000000e-01 3.0250001e+00 1.2000000e+01 
7.5000000e-01 3.0250001e+00 1.2500000e+01 
7.5000000e-01 3.0250001e+00 1.3000000e+01 
7.5000000e-01 3.0250001e+00 1.3500000e+01 
7.5000000e-01 3.0250001e+00 1.4000000e+01 
7.5000000e-01 3.0250001e+00 1.4500000e+01 
7.5000000e-01 3.0250001e+00 1.5000000e+01 
7.5000000e-01 3.0250001e+00 1.5500000e+01 
7.5000000e-01 3.0250001e+00 1.6000000e+01 
7.5000000e-01 3.0250001e+00 1.6500000e+01 
7.5000000e-01 3.0250001e+00 1.7000000e+01 
7.5000000e-01 3.0250001e+00 1.7500000e+01 
7.5000000e-01 3.0250001e+00 1.8000000e+01 
7.5000000e-01 3.0250001e+00 1.8500000e+01 
7.5000000e-01 3.0250001e+00 1.9000000e+01 
7.5000000e-01 3.0250001e+00 1.9500000e+01 
7.5000000e-01 3.0250001e+00 2.0000000e+01 
7.5000000e-01 3.0250001e+00 2.0500000e+01 
7.5000000e-01 3.0250001e+00 2.1000000e+01 
7.5000000e-01 3.0250001e+00 2.1500000e+01 
7.5000000e-01 3.0250001e+00 2.2000000e+01 
7.5000000e-01 3.0250001e+00 2.2500000e+01 
7.5000000e-01 3.0250001e+00 2.3000000e+01 
7.5000000e-01 3.0250001e+00 2.3500000e+01 
7.5000000e-01 3.0250001e+00 2.4000000e+01 
7.5000000e-01 3.0250001e+00 2.4500000e+01 
7.5000000e-01 3.0250001e+00 2.5000000e+01 
7.5000000e-01 3.0250001e+00 2.5500000e+01 
7.5000000e-01 3.0250001e+00 2.6000000e+01 
7.5000000e-01 3.0250001e+00 2.6500000e+01 
7.5000000e-01 3.0250001e+00 2.7000000e+01 
7.5000000e-01 3.0250001e+00 2.7500000e+01 
7.5000000e-01 3.0250001e+00 2.8000000e+01 
7.5000000e-01 3.0250001e+00 2.8500000e+01 
7.5000000e-01 3.0250001e+00 2.9000000e+01 
7.5000000e-01 3.0250001e+00 2.9500000e+01 
7.5000000e-01 3.0250001e+00 3.0000000e+01 
7.5000000e-01 3.0250001e+00 3.0500000e+01 
7.5000000e-01 3.0250001e+00 3.1000000e+01 
7.5000000e-01 3.0250001e+00 3.1500000e+01 
7.5000000e-01 3.0250001e+00 3.2000000e+01 
7.5000000e-01 3.0250001e+00 3.2500000e+01 
7.5000000e-01 3.0250001e+00 3.3000000e+01 
7.5000000e-01 3.0250001e+00 3.3500000e+01 
7.5000000e-01 3.0250001e+00 3.4000000e+01 
7.5000000e-01 3.0250001e+00 3.4500000e+01 
7.5000000e-01 3.0250001e+00 3.5000000e+01 
7.5000000e-01 3.0250001e+00 3.5500000e+01 
7.5000000e-01 3.0250001e+00 3.6000000e+01 
7.5000000e-01 3.0250001e+00 3.6500000e+01 
7.5000000e-01 3.0250001e+00 3.7000000e+01 
7.5000000e-01 3.0250001e+00 3.7500000e+01 
7.5000000e-01 3.0250001e+00 3.8000000e+01 
7.5000000e-01 3.0250001e+00 3.8500000e+01 
7.5000000e-01 3.0250001e+00 3.9000000e+01 
7.5000000e-01 3.0250001e+00 3.9500000e+01 
7.5000000e-01 3.0250001e+00 4.0000000e+01 
7.5000000e-01 3.0250001e+00 4.0500000e+01 
7.5000000e-01 3.0250001e+00 4.1000000e+01 
7.5000000e-01 3.0250001e+00 4.1500000e+01 
7.5000000e-01 3.0250001e+00 4.2000000e+01 
7.5000000e-01 3.0250001e+00 4.2500000e+01 
7.5000000e-01 3.0250001e+00 4.3000000e+01 
7.5000000e-01 3.0250001e+00 4.3500000e+01 
7.5000000e-01 3.0250001e+00 4.4000000e+01 
7.5000000e-01 3.0250001e+00 4.4500000e+01 
7.5000000e-01 3.0250001e+00 4.5000000e+01 
7.5000000e-01 3.0250001e+00 4.5500000e+01 
7.5000000e-01 3.0250001e+00 4.6000000e+01 
7.5000000e-01 3.0250001e+00 4.6500000e+01 
7.5000000e-01 3.0250001e+00 4.7000000e+01 
7.5000000e-01 3.0250001e+00 4.7500000e+01 
7.5000000e-01 3.0250001e+00 4.8000000e+01 
7.5000000e-01 3.0250001e+00 4.8500000e+01 
7.5000000e-01 3.0250001e+00 4.9000000e+01 
7.5000000e-01 3.0250001e+00 4.9500000e+01 
7.5000000e-01 3.0250001e+00 5.0000000e+01 
3.0000000e+00 2.0000000e+00 3.6000000e+01 
8.0487806e-01 3.0000000e+00 3.6000000e+01 
0.0000000e+00 0.0000000e+00 1.0000000e+00 
0.0000000e+00 0.0000000e+00 2.0000000e+00 
0.0000000e+00 0.0000000e+00 3.0000000e+00 
0.0000000e+00 0.0000000e+00 4.0000000e+00 
0.0000000e+00 0.0000000e+00 5.0000000e+00 
0.0000000e+00 0.0000000e+00 6.0000000e+00 
0.0000000e+00 0.0000000e+00 7.0000000e+00 
0.0000000e+00 0.0000000e+00 8.0000000e+00 
[...]
POINT_DATA 1919
FIELD FieldData 3
DISPLACEMENT 3 1919  float
0.0000000e+00 0.0000000e+00 0.0000000e+00 
0.0000000e+00 0.0000000e+00 0.0000000e+00 
0.0000000e+00 0.0000000e+00 0.0000000e+00 
0.0000000e+00 0.0000000e+00 0.0000000e+00 
8.4909864e-08 -2.5723302e-06 -4.9737559e-06 
1.0178579e-07 8.8482707e-08 -1.8343000e-07 
0.0000000e+00 -1.6817638e-05 0.0000000e+00 
0.0000000e+00 3.7996529e-08 0.0000000e+00 
1.2800316e-08 2.2680567e-06 -6.6854983e-07 
3.1646209e-08 1.6039391e-07 -2.7588990e-07 
-6.8713775e-06 -8.0007831e-06 6.7426436e-06 
-1.5893501e-07 4.5366960e-07 -2.8696471e-07 
0.0000000e+00 -3.1061933e-05 0.0000000e+00 
0.0000000e+00 -1.3540048e-07 0.0000000e+00 
-2.4410427e-05 2.2756842e-05 5.4129418e-05 
5.3104526e-07 -4.7225129e-07 -5.6865336e-08 
-1.3327862e-05 -1.0351540e-04 3.9676106e-05 
-1.7224323e-07 2.2151880e-06 8.0107185e-07 
0.0000000e+00 2.3781298e-05 0.0000000e+00 
0.0000000e+00 -1.0174873e-06 0.0000000e+00 
-2.2999277e-05 -1.1695984e-04 3.5055378e-05 
-4.3031738e-05 -1.5250138e-04 4.7539077e-05 
-3.1601845e-05 -1.9740335e-04 3.7815495e-05 
-6.3022628e-05 -2.3432782e-04 2.8653161e-05 
-6.8734706e-05 -2.5130040e-04 3.2194213e-05 
-6.1662009e-05 -2.4701070e-04 -1.1128512e-06 
-4.7820315e-05 -2.2979807e-04 -1.7878225e-05 
-7.4063581e-05 -2.1096691e-04 -3.1258940e-05 
-3.9903822e-05 -1.8486704e-04 -4.6091234e-05 
-1.6201429e-05 -1.4819590e-04 -3.1455565e-05 
-4.3514465e-05 -1.1220611e-04 -3.5490812e-05 
-2.5586982e-05 -1.0678217e-04 -3.6984042e-05 
-1.2648256e-05 -2.1241246e-04 6.0560260e-06 
-5.8464586e-05 -5.6153507e-04 -1.3198599e-05 
-7.7615878e-05 -1.2545462e-03 7.8363351e-05 
-1.6797437e-04 -2.2678140e-03 5.4388005e-05 
-1.9368356e-04 -3.4407501e-03 2.0959975e-04 
-2.2426278e-04 -4.3416978e-03 1.0017867e-04 
-2.7584488e-04 -4.5961412e-03 1.1541474e-04 
-2.6484902e-04 -4.4839499e-03 9.0545902e-05 
-2.7419737e-04 -4.5517012e-03 9.6911426e-05 
-3.1739697e-04 -4.8475792e-03 3.4425986e-05 
-3.0846149e-04 -5.0239125e-03 4.3970111e-05 
-2.8800394e-04 -4.4695968e-03 2.1317637e-05 
-2.9525135e-04 -3.3934077e-03 -1.6370913e-04 
-1.8031363e-04 -2.2241483e-03 -8.5617539e-05 
-1.1700581e-04 -1.2479145e-03 -1.8911743e-04 
-7.1966686e-05 -5.4441224e-04 -1.0934068e-04 
-3.1687030e-06 -1.2199541e-04 -9.7055774e-05 
2.0487269e-05 6.9797272e-05 -2.8498889e-05 
2.4133249e-05 1.1181550e-04 2.5925510e-05 
-1.0917499e-05 8.7167493e-05 4.4752975e-05 
-4.5589302e-05 5.5449873e-05 2.0265181e-05 
-3.5028563e-05 3.6083446e-05 -4.6353583e-05 
-2.6843561e-05 2.3654551e-05 -7.1992225e-05 
-5.9093227e-06 2.5752749e-06 -8.3130122e-05 
1.3309018e-05 -3.4681965e-05 -5.2706255e-05 
9.2178107e-06 -8.3282830e-05 -2.3121852e-06 
-1.3491705e-05 -1.3662757e-04 6.4993677e-05 
-4.1694209e-05 -1.8492111e-04 8.1097860e-05 
-4.5421537e-05 -2.2675144e-04 8.9346904e-05 
-6.7665882e-05 -2.7088966e-04 5.7229532e-05 
-6.8713111e-05 -3.2044324e-04 3.1930394e-05 
-6.8026551e-05 -3.7198837e-04 2.2327797e-05 
-7.6778510e-05 -4.0546453e-04 1.5083836e-05 
-9.8852433e-05 -3.9261222e-04 -7.3177927e-07 
-7.5830394e-05 -3.3200264e-04 -1.4699523e-05 
-7.8292833e-05 -2.6045082e-04 -3.3817563e-05 
-7.3330048e-05 -2.1289280e-04 -4.5768797e-05 
-6.9516907e-05 -2.0846595e-04 -3.1274183e-05 
-7.6723969e-05 -2.3691909e-04 -5.3124168e-05 
-8.5632004e-05 -2.9644140e-04 -2.5871528e-05 
-9.8714845e-05 -4.3856696e-04 2.3704459e-05 
-1.3203586e-04 -7.7127211e-04 -7.5929302e-06 
-1.3415415e-04 -1.4216030e-03 8.6221393e-05 
-2.0845198e-04 -2.4279810e-03 -8.0268779e-07 
-2.4880804e-04 -3.6403092e-03 9.5084666e-05 
-3.1562767e-04 -4.5299907e-03 -2.5376190e-05 
-3.3142109e-04 -4.6435730e-03 -3.3395081e-05 
-2.9254146e-04 -4.4209110e-03 -4.0609579e-05 
-2.5291709e-04 -4.4245427e-03 -5.0836432e-05 
-2.6875903e-04 -4.6741804e-03 -7.2921874e-05 
-2.8721156e-04 -4.7857328e-03 -8.1823644e-05 
-2.4021357e-04 -4.0933001e-03 -1.9818523e-05 
-1.9549877e-04 -2.9871878e-03 -1.2907122e-04 
-1.0141874e-04 -1.8698762e-03 1.0437479e-05 
-7.2056529e-05 -9.8937971e-04 -5.2321295e-05 
-6.3949366e-05 -3.9507559e-04 7.3448628e-06 
-6.7054658e-05 -6.6305518e-05 -4.2741249e-05 
-4.7889971e-05 8.0807018e-05 -9.0665279e-05 
-2.4426265e-05 1.2944760e-04 -5.6044148e-05 
-1.9835468e-05 1.3962694e-04 -3.9501763e-05 
-1.3873924e-07 1.3151603e-04 -5.1157229e-05 
7.1984409e-06 1.1322117e-04 -8.8561799e-05 
6.4171636e-06 9.2467737e-05 -9.8285738e-05 
1.4616147e-05 7.3276053e-05 -8.3552004e-05 
2.6487658e-05 5.5771823e-05 -4.5695102e-05 
2.2301901e-05 3.5912177e-05 -2.7930803e-06 
1.9210795e-05 9.7497159e-06 3.6018981e-05 
4.7568005e-06 -1.6947664e-05 4.7573485e-05 
-1.1991934e-05 -3.5415542e-05 3.9014642e-05 
-1.1687081e-05 -4.1078831e-05 1.9498031e-05 
-1.0277165e-05 -3.4488312e-05 7.2691552e-07 
-4.9300606e-06 -2.1875081e-05 -8.0679529e-06 
7.1330328e-07 -8.8113593e-06 -1.2307353e-05 
2.9353944e-06 1.7458223e-06 -1.0072688e-05 
4.8962770e-06 8.5008405e-06 -5.4145680e-06 
6.3115390e-06 1.1450314e-05 3.0193160e-06 
2.1640899e-06 1.0848932e-05 4.9354994e-06 
6.8352733e-07 7.5799107e-06 5.3497447e-06 
-1.7732274e-06 3.4879765e-06 5.3243830e-06 
-2.2960837e-06 2.1662726e-07 3.8505405e-06 
-2.7173542e-06 -1.5095602e-06 1.7611079e-06 
-1.9670847e-06 -2.2217366e-06 -6.9433139e-07 
-9.6847270e-07 -2.5073809e-06 -1.8283205e-06 
-2.6631238e-07 -2.4278279e-06 -2.2456140e-06 
8.6533646e-07 -1.6557334e-06 -2.4257429e-06 
7.4492141e-07 -1.5586427e-07 -1.7322146e-06 
1.1690357e-06 1.4803576e-06 -4.2333036e-07 
0.0000000e+00 -1.0340947e-04 0.0000000e+00 
0.0000000e+00 -1.1709207e-04 0.0000000e+00 
0.0000000e+00 -1.5307401e-04 0.0000000e+00 
0.0000000e+00 -1.9796047e-04 0.0000000e+00 
0.0000000e+00 -2.3451919e-04 0.0000000e+00 
0.0000000e+00 -2.5058660e-04 0.0000000e+00 
0.0000000e+00 -2.4594294e-04 0.0000000e+00 
0.0000000e+00 -2.3023236e-04 0.0000000e+00 
0.0000000e+00 -2.1135155e-04 0.0000000e+00 
0.0000000e+00 -1.8493543e-04 0.0000000e+00 
0.0000000e+00 -1.4783483e-04 0.0000000e+00 
0.0000000e+00 -1.0973924e-04 0.0000000e+00 
0.0000000e+00 -1.0353098e-04 0.0000000e+00 
0.0000000e+00 -2.1279092e-04 0.0000000e+00 
0.0000000e+00 -5.6678662e-04 0.0000000e+00 
0.0000000e+00 -1.2627468e-03 0.0000000e+00 
0.0000000e+00 -2.2836735e-03 0.0000000e+00 
0.0000000e+00 -3.4528961e-03 0.0000000e+00 
0.0000000e+00 -4.3670810e-03 0.0000000e+00 
0.0000000e+00 -4.6214485e-03 0.0000000e+00 
0.0000000e+00 -4.5151291e-03 0.0000000e+00 
0.0000000e+00 -4.5735650e-03 0.0000000e+00 
0.0000000e+00 -4.8761079e-03 0.0000000e+00 
0.0000000e+00 -5.0445660e-03 0.0000000e+00 
0.0000000e+00 -4.4979099e-03 0.0000000e+00 
0.0000000e+00 -3.4069452e-03 0.0000000e+00 
0.0000000e+00 -2.2337383e-03 0.0000000e+00 
0.0000000e+00 -1.2517124e-03 0.0000000e+00 
0.0000000e+00 -5.4740009e-04 0.0000000e+00 
0.0000000e+00 -1.2318962e-04 0.0000000e+00 
0.0000000e+00 7.0308997e-05 0.0000000e+00 
0.0000000e+00 1.1325745e-04 0.0000000e+00 
0.0000000e+00 8.9011017e-05 0.0000000e+00 
0.0000000e+00 5.6525842e-05 0.0000000e+00 
0.0000000e+00 3.6617988e-05 0.0000000e+00 
0.0000000e+00 2.3439146e-05 0.0000000e+00 
0.0000000e+00 1.9618856e-06 0.0000000e+00 
0.0000000e+00 -3.5127337e-05 0.0000000e+00 
0.0000000e+00 -8.3823281e-05 0.0000000e+00 
0.0000000e+00 -1.3629967e-04 0.0000000e+00 
0.0000000e+00 -1.8421187e-04 0.0000000e+00 
0.0000000e+00 -2.2678166e-04 0.0000000e+00 
0.0000000e+00 -2.7121833e-04 0.0000000e+00 
0.0000000e+00 -3.2163723e-04 0.0000000e+00 
0.0000000e+00 -3.7300383e-04 0.0000000e+00 
0.0000000e+00 -4.0458661e-04 0.0000000e+00 
0.0000000e+00 -3.9073458e-04 0.0000000e+00 
0.0000000e+00 -3.3159953e-04 0.0000000e+00 
0.0000000e+00 -2.6088327e-04 0.0000000e+00 
0.0000000e+00 -2.1462482e-04 0.0000000e+00 
0.0000000e+00 -2.0868538e-04 0.0000000e+00 
0.0000000e+00 -2.3481195e-04 0.0000000e+00 
0.0000000e+00 -2.9367214e-04 0.0000000e+00 
0.0000000e+00 -4.3707812e-04 0.0000000e+00 
0.0000000e+00 -7.7482266e-04 0.0000000e+00 
0.0000000e+00 -1.4309494e-03 0.0000000e+00 
0.0000000e+00 -2.4477046e-03 0.0000000e+00 
0.0000000e+00 -3.6565594e-03 0.0000000e+00 
0.0000000e+00 -4.5563551e-03 0.0000000e+00 
0.0000000e+00 -4.6617202e-03 0.0000000e+00 
0.0000000e+00 -4.4491077e-03 0.0000000e+00 
0.0000000e+00 -4.4465908e-03 0.0000000e+00 
0.0000000e+00 -4.7077704e-03 0.0000000e+00 
0.0000000e+00 -4.8067677e-03 0.0000000e+00 
0.0000000e+00 -4.1169487e-03 0.0000000e+00 
0.0000000e+00 -2.9973018e-03 0.0000000e+00 
0.0000000e+00 -1.8802175e-03 0.0000000e+00 
0.0000000e+00 -9.9323492e-04 0.0000000e+00 
0.0000000e+00 -3.9747474e-04 0.0000000e+00 
0.0000000e+00 -6.5632164e-05 0.0000000e+00 
0.0000000e+00 8.2282393e-05 0.0000000e+00 
0.0000000e+00 1.3121011e-04 0.0000000e+00 
0.0000000e+00 1.3995402e-04 0.0000000e+00 
0.0000000e+00 1.3150660e-04 0.0000000e+00 
0.0000000e+00 1.1365458e-04 0.0000000e+00 
0.0000000e+00 9.2790287e-05 0.0000000e+00 
0.0000000e+00 7.3367664e-05 0.0000000e+00 
0.0000000e+00 5.5616998e-05 0.0000000e+00 
0.0000000e+00 3.5410791e-05 0.0000000e+00 
0.0000000e+00 9.6974454e-06 0.0000000e+00 
0.0000000e+00 -1.6637492e-05 0.0000000e+00 
0.0000000e+00 -3.5172103e-05 0.0000000e+00 
0.0000000e+00 -4.0879084e-05 0.0000000e+00 
0.0000000e+00 -3.4566030e-05 0.0000000e+00 
0.0000000e+00 -2.1996926e-05 0.0000000e+00 
0.0000000e+00 -8.8664574e-06 0.0000000e+00 
0.0000000e+00 1.6770086e-06 0.0000000e+00 
0.0000000e+00 8.4617213e-06 0.0000000e+00 
0.0000000e+00 1.1412554e-05 0.0000000e+00 
0.0000000e+00 1.0824147e-05 0.0000000e+00 
0.0000000e+00 7.6192869e-06 0.0000000e+00 
0.0000000e+00 3.5444314e-06 0.0000000e+00 
0.0000000e+00 2.6575916e-07 0.0000000e+00 
0.0000000e+00 -1.5206285e-06 0.0000000e+00 
0.0000000e+00 -2.2480078e-06 0.0000000e+00 
0.0000000e+00 -2.5181887e-06 0.0000000e+00 
0.0000000e+00 -2.4124784e-06 0.0000000e+00 
0.0000000e+00 -1.6330105e-06 0.0000000e+00 
0.0000000e+00 -1.4186767e-07 0.0000000e+00 
0.0000000e+00 1.4649595e-06 0.0000000e+00 
0.0000000e+00 2.1883225e-06 0.0000000e+00 
1.0510729e-06 1.6788346e-06 1.9037576e-06 
-2.1030281e-05 1.3794702e-04 -4.5687593e-05 
0.0000000e+00 0.0000000e+00 0.0000000e+00 
0.0000000e+00 0.0000000e+00 0.0000000e+00 
0.0000000e+00 0.0000000e+00 0.0000000e+00 
0.0000000e+00 0.0000000e+00 0.0000000e+00 
0.0000000e+00 0.0000000e+00 0.0000000e+00 
0.0000000e+00 0.0000000e+00 0.0000000e+00 
0.0000000e+00 0.0000000e+00 0.0000000e+00 
0.0000000e+00 0.0000000e+00 0.0000000e+00 
0.0000000e+00 0.0000000e+00 0.0000000e+00 
0.0000000e+00 0.0000000e+00 0.0000000e+00 
0.0000000e+00 0.0000000e+00 0.0000000e+00 
0.0000000e+00 0.0000000e+00 0.0000000e+00 
0.0000000e+00 0.0000000e+00 0.0000000e+00 
0.0000000e+00 0.0000000e+00 0.0000000e+00 
0.0000000e+00 0.0000000e+00 0.0000000e+00 
0.0000000e+00 0.0000000e+00 0.0000000e+00 
0.0000000e+00 0.0000000e+00 0.0000000e+00 
0.0000000e+00 0.0000000e+00 0.0000000e+00 
0.0000000e+00 0.0000000e+00 0.0000000e+00 
0.0000000e+00 0.0000000e+00 0.0000000e+00 
0.0000000e+00 0.0000000e+00 0.0000000e+00 
0.0000000e+00 0.0000000e+00 0.0000000e+00 
0.0000000e+00 0.0000000e+00 0.0000000e+00 
0.0000000e+00 0.0000000e+00 0.0000000e+00 
0.0000000e+00 0.0000000e+00 0.0000000e+00 
0.0000000e+00 0.0000000e+00 0.0000000e+00 
0.0000000e+00 0.0000000e+00 0.0000000e+00 
0.0000000e+00 0.0000000e+00 0.0000000e+00 
0.0000000e+00 0.0000000e+00 0.0000000e+00 
0.0000000e+00 0.0000000e+00 0.0000000e+00 
0.0000000e+00 0.0000000e+00 0.0000000e+00 
0.0000000e+00 0.0000000e+00 0.0000000e+00 
0.0000000e+00 0.0000000e+00 0.0000000e+00 
0.0000000e+00 0.0000000e+00 0.0000000e+00 
0.0000000e+00 0.0000000e+00 0.0000000e+00 
0.0000000e+00 0.0000000e+00 0.0000000e+00 
0.0000000e+00 0.0000000e+00 0.0000000e+00 
0.0000000e+00 0.0000000e+00 0.0000000e+00 
0.0000000e+00 0.0000000e+00 0.0000000e+00 
0.0000000e+00 0.0000000e+00 0.0000000e+00 
0.0000000e+00 0.0000000e+00 0.0000000e+00 
0.0000000e+00 0.0000000e+00 0.0000000e+00 
0.0000000e+00 0.0000000e+00 0.0000000e+00 
0.0000000e+00 0.0000000e+00 0.0000000e+00 
0.0000000e+00 0.0000000e+00 0.0000000e+00 
0.0000000e+00 0.0000000e+00 0.0000000e+00 
0.0000000e+00 0.0000000e+00 0.0000000e+00 
0.0000000e+00 0.0000000e+00 0.0000000e+00 
0.0000000e+00 0.0000000e+00 0.0000000e+00 
0.0000000e+00 0.0000000e+00 0.0000000e+00 
0.0000000e+00 0.0000000e+00 0.0000000e+00 
0.0000000e+00 0.0000000e+00 0.0000000e+00 
0.0000000e+00 0.0000000e+00 0.0000000e+00 
0.0000000e+00 0.0000000e+00 0.0000000e+00 
0.0000000e+00 0.0000000e+00 0.0000000e+00 
0.0000000e+00 0.0000000e+00 0.0000000e+00 
0.0000000e+00 0.0000000e+00 0.0000000e+00 
0.0000000e+00 0.0000000e+00 0.0000000e+00 
0.0000000e+00 0.0000000e+00 0.0000000e+00 
0.0000000e+00 0.0000000e+00 0.0000000e+00 
0.0000000e+00 0.0000000e+00 0.0000000e+00 
0.0000000e+00 0.0000000e+00 0.0000000e+00 
0.0000000e+00 0.0000000e+00 0.0000000e+00 
0.0000000e+00 0.0000000e+00 0.0000000e+00 
0.0000000e+00 0.0000000e+00 0.0000000e+00 
0.0000000e+00 0.0000000e+00 0.0000000e+00 
0.0000000e+00 0.0000000e+00 0.0000000e+00 
0.0000000e+00 0.0000000e+00 0.0000000e+00 
0.0000000e+00 0.0000000e+00 0.0000000e+00 
0.0000000e+00 0.0000000e+00 0.0000000e+00 
0.0000000e+00 0.0000000e+00 0.0000000e+00 
0.0000000e+00 0.0000000e+00 0.0000000e+00 
0.0000000e+00 0.0000000e+00 0.0000000e+00 
0.0000000e+00 0.0000000e+00 0.0000000e+00 
0.0000000e+00 0.0000000e+00 0.0000000e+00 
0.0000000e+00 0.0000000e+00 0.0000000e+00 
0.0000000e+00 0.0000000e+00 0.0000000e+00 
0.0000000e+00 0.0000000e+00 0.0000000e+00 
0.0000000e+00 0.0000000e+00 0.0000000e+00 
0.0000000e+00 0.0000000e+00 0.0000000e+00 
0.0000000e+00 0.0000000e+00 0.0000000e+00 
0.0000000e+00 0.0000000e+00 0.0000000e+00 
0.0000000e+00 0.0000000e+00 0.0000000e+00 
0.0000000e+00 0.0000000e+00 0.0000000e+00 
0.0000000e+00 0.0000000e+00 0.0000000e+00 
0.0000000e+00 0.0000000e+00 0.0000000e+00 
0.0000000e+00 0.0000000e+00 0.0000000e+00 
0.0000000e+00 0.0000000e+00 0.0000000e+00 
0.0000000e+00 0.0000000e+00 0.0000000e+00 
0.0000000e+00 0.0000000e+00 0.0000000e+00 
0.0000000e+00 0.0000000e+00 0.0000000e+00 
0.0000000e+00 0.0000000e+00 0.0000000e+00 
0.0000000e+00 0.0000000e+00 0.0000000e+00 
0.0000000e+00 0.0000000e+00 0.0000000e+00 
0.0000000e+00 0.0000000e+00 0.0000000e+00 
0.0000000e+00 0.0000000e+00 0.0000000e+00 
0.0000000e+00 0.0000000e+00 0.0000000e+00 
0.0000000e+00 0.0000000e+00 0.0000000e+00 
0.0000000e+00 0.0000000e+00 0.0000000e+00 
0.0000000e+00 0.0000000e+00 0.0000000e+00 
0.0000000e+00 0.0000000e+00 0.0000000e+00 
0.0000000e+00 0.0000000e+00 0.0000000e+00 
0.0000000e+00 0.0000000e+00 0.0000000e+00 
0.0000000e+00 0.0000000e+00 0.0000000e+00 
0.0000000e+00 0.0000000e+00 0.0000000e+00 
0.0000000e+00 0.0000000e+00 0.0000000e+00 
4.2952679e-06 -2.1911471e-06 -1.7600244e-06 
3.4348980e-06 1.0662030e-06 7.6710086e-07 
2.0082271e-06 -1.2537906e-06 -3.4745760e-06 
3.7820398e-06 -4.3242353e-06 -3.3228166e-06 
9.3450981e-06 7.8961500e-07 -7.0634187e-06 
2.4701250e-05 -4.5414768e-07 -9.3752760e-06 
2.9734862e-05 -6.1799551e-06 -8.5447027e-06 
4.5955596e-05 -1.6972389e-06 -2.9743157e-06 
4.7564918e-05 -1.0925193e-05 8.1503476e-06 
4.4635679e-05 -1.9214272e-05 7.6310998e-06 
4.5965724e-05 -2.2354006e-05 1.1016755e-05 
3.7513259e-05 -1.7465814e-05 1.3803507e-05 
2.6433294e-05 -1.2776078e-05 1.1482608e-05 
1.9937837e-05 -6.9709417e-06 9.1023057e-06 
1.7044313e-05 -1.3217593e-07 8.9263158e-06 
1.1516098e-05 5.7099905e-06 1.7872529e-06 
4.6558162e-06 9.0336180e-06 -4.1044746e-06 
3.1593777e-06 5.6391991e-06 -9.8095898e-06 
5.5701526e-06 2.5803054e-06 -7.9151214e-06 
1.4047793e-05 2.6677887e-06 -4.4585840e-06 
1.6700891e-05 -4.9322111e-06 -2.3884345e-06 
1.1538045e-05 -4.3769001e-06 -3.7086393e-06 
1.2588635e-05 3.2221953e-06 -1.1359948e-05 
1.5134606e-05 -1.3930093e-06 -1.2221812e-05 
1.6107329e-05 1.3338105e-06 -1.3145356e-05 
2.2044087e-05 1.1323641e-06 -1.1151549e-05 
3.0358111e-05 -3.9958181e-06 -7.0988958e-06 
3.8218095e-05 -8.2792394e-06 -3.0887795e-06 
4.4084147e-05 -8.3337864e-06 9.8279452e-06 
3.9107916e-05 -1.7572613e-05 1.2221864e-05 
4.0197890e-05 -1.9005014e-05 1.8058570e-05 
3.5447167e-05 -1.4310398e-05 2.2167505e-05 
3.1296731e-05 -1.3148509e-05 2.0628315e-05 
2.2477099e-05 -6.9484581e-06 1.3442811e-05 
1.2223586e-05 -3.6913159e-06 9.1036973e-06 
2.7903982e-06 1.0990068e-06 2.5772554e-06 
-2.6571263e-06 4.1633361e-06 -2.0758359e-06 
-3.6028687e-06 2.7321157e-06 -3.6235799e-06 
-1.9504439e-06 5.3087280e-07 -2.9270977e-06 
9.2512329e-07 -1.9096660e-06 -2.2683324e-07 
1.8480305e-06 -1.3139596e-07 1.5137633e-06 
8.6302390e-07 4.4777374e-07 1.1337734e-06 
-4.8350211e-07 -1.9973442e-08 4.7353684e-08 
-8.9285146e-07 1.9746723e-07 -6.7996791e-07 
-3.1909195e-07 1.1424478e-07 -5.3405790e-07 
1.7561260e-07 -1.9260716e-07 8.3481368e-08 
2.0898482e-07 -2.0371144e-07 5.7598186e-07 
2.4796886e-08 -1.5119859e-08 3.2768585e-07 
-2.8006413e-08 1.1548189e-08 9.0540965e-08 
0.0000000e+00 3.9879046e-06 0.0000000e+00 
0.0000000e+00 1.6712496e-06 0.0000000e+00 
0.0000000e+00 1.9279920e-05 0.0000000e+00 
0.0000000e+00 5.9421936e-06 0.0000000e+00 
0.0000000e+00 -4.2104035e-05 0.0000000e+00 
0.0000000e+00 -3.3462926e-05 0.0000000e+00 
0.0000000e+00 -1.2045272e-04 0.0000000e+00 
0.0000000e+00 -3.0144109e-04 0.0000000e+00 
0.0000000e+00 -3.8910619e-04 0.0000000e+00 
0.0000000e+00 -5.2570668e-04 0.0000000e+00 
0.0000000e+00 -5.4069294e-04 0.0000000e+00 
0.0000000e+00 -4.9646932e-04 0.0000000e+00 
0.0000000e+00 -3.2719309e-04 0.0000000e+00 
0.0000000e+00 -1.6277471e-04 0.0000000e+00 
0.0000000e+00 -7.0265451e-05 0.0000000e+00 
0.0000000e+00 -1.7554505e-05 0.0000000e+00 
0.0000000e+00 5.2712527e-05 0.0000000e+00 
0.0000000e+00 8.7302498e-05 0.0000000e+00 
0.0000000e+00 8.4080850e-05 0.0000000e+00 
0.0000000e+00 7.0179522e-05 0.0000000e+00 
0.0000000e+00 3.6749258e-05 0.0000000e+00 
0.0000000e+00 -1.5059146e-05 0.0000000e+00 
0.0000000e+00 3.0032650e-05 0.0000000e+00 
0.0000000e+00 1.1963625e-05 0.0000000e+00 
0.0000000e+00 -5.7927347e-05 0.0000000e+00 
0.0000000e+00 -7.8717538e-05 0.0000000e+00 
0.0000000e+00 -1.1779626e-04 0.0000000e+00 
0.0000000e+00 -3.3964551e-04 0.0000000e+00 
0.0000000e+00 -4.6978952e-04 0.0000000e+00 
0.0000000e+00 -5.1186024e-04 0.0000000e+00 
0.0000000e+00 -5.0819421e-04 0.0000000e+00 
0.0000000e+00 -4.2366007e-04 0.0000000e+00 
0.0000000e+00 -2.7052706e-04 0.0000000e+00 
0.0000000e+00 -8.4531974e-05 0.0000000e+00 
0.0000000e+00 -1.8988787e-05 0.0000000e+00 
0.0000000e+00 4.3030204e-06 0.0000000e+00 
0.0000000e+00 9.0437961e-06 0.0000000e+00 
0.0000000e+00 1.6988713e-05 0.0000000e+00 
0.0000000e+00 1.7386908e-05 0.0000000e+00 
0.0000000e+00 5.1893142e-07 0.0000000e+00 
0.0000000e+00 -1.3792779e-05 0.0000000e+00 
0.0000000e+00 -7.8140520e-06 0.0000000e+00 
0.0000000e+00 4.3347627e-06 0.0000000e+00 
0.0000000e+00 3.8878352e-06 0.0000000e+00 
0.0000000e+00 2.2454053e-07 0.0000000e+00 
0.0000000e+00 -1.4990402e-06 0.0000000e+00 
0.0000000e+00 -1.3273494e-07 0.0000000e+00 
0.0000000e+00 5.2631378e-07 0.0000000e+00 
0.0000000e+00 -3.7574960e-08 0.0000000e+00 
6.4463820e-06 2.8712395e-07 -3.2037949e-06 
1.7673577e-06 -7.0767078e-07 -3.0469741e-07 
4.4996577e-06 -6.6242460e-06 -9.4466878e-07 
-1.6103430e-06 -1.1454568e-05 -1.0224220e-05 
-5.3603777e-08 9.7926716e-08 2.9799850e-08 
-8.4372935e-08 1.9238622e-07 -4.1345867e-08 
-1.6772445e-08 1.4038818e-07 -1.0824684e-07 
-1.3817785e-08 -1.6379200e-08 -7.8306591e-08 
-9.2902064e-07 -4.0464888e-06 9.5811060e-07 
-3.7453913e-07 1.5449200e-06 -3.1548402e-06 
-5.4129659e-06 -5.8505734e-06 -3.4889933e-06 
-9.9011786e-06 -1.0833744e-05 -1.8185979e-06 
2.3202256e-06 3.8610833e-06 -6.5442287e-06 
1.1345734e-05 -3.7419679e-06 -1.1257502e-05 
3.0022589e-05 2.6342454e-06 -1.4107760e-05 
5.0864568e-05 5.3430722e-06 -9.0302080e-07 
5.7419365e-05 -1.1390549e-05 1.3484680e-05 
5.4074466e-05 -1.4903623e-05 2.2205442e-05 
5.0198127e-05 -2.4396402e-05 1.8189374e-05 
3.9559010e-05 -1.9073177e-05 1.4428021e-05 
2.6533940e-05 -1.1816869e-05 1.3522053e-05 
1.4937928e-05 -2.8631409e-06 4.2767047e-06 
1.2027921e-05 5.0369154e-06 2.9661212e-06 
1.4913120e-05 1.6592321e-05 -1.9292704e-06 
3.8140483e-06 1.5206943e-05 -1.0221768e-05 
-5.3303861e-06 1.1569512e-05 -5.0206727e-06 
-5.7753255e-06 1.4806652e-06 -1.9234906e-06 