# vtk DataFile Version 4.0
vtk output
ASCII
DATASET UNSTRUCTURED_GRID
POINTS 1919 float
0.0000000e+00 0.0000000e+00 0.0000000e+00 
0.0000000e+00 0.0000000e+00 5.0000000e+01 
5.0000000e+00 0.0000000e+00 0.0000000e+00 
5.0000000e+00 0.0000000e+00 5.0000000e+01 
5.0000000e+00 1.0000000e+00 0.0000000e+00 
5.0000000e+00 1.0000000e+00 5.0000000e+01 
0.0000000e+00 1.0000000e+00 0.0000000e+00 
0.0000000e+00 1.0000000e+00 5.0000000e+01 
5.0000000e+00 2.0000000e+00 0.0000000e+00 
5.0000000e+00 2.0000000e+00 5.0000000e+01 
3.0000000e+00 2.0000000e+00 0.0000000e+00 
3.0000000e+00 2.0000000e+00 5.0000000e+01 
0.0000000e+00 2.0000000e+00 0.0000000e+00 
0.0000000e+00 2.0000000e+00 5.0000000e+01 
1.5000000e+00 3.0000000e+00 0.0000000e+00 
1.5000000e+00 3.0000000e+00 5.0000000e+01 
7.5000000e-01 3.0000000e+00 0.0000000e+00 
7.5000000e-01 3.0000000e+00 5.0000000e+01 
0.0000000e+00 3.0000000e+00 0.0000000e+00 
0.0000000e+00 3.0000000e+00 5.0000000e+01 
7.5000000e-01 3.0000000e+00 5.0000000e-01 
7.5000000e-01 3.0000000e+00 1.0000000e+00 
7.5000000e-01 3.0000000e+00 1.5000000e+00 
7.5000000e-01 3.0000000e+00 2.0000000e+00 
7.5000000e-01 3.0000000e+00 2.5000000e+00 
7.5000000e-01 3.0000000e+00 3.0000000e+00 
7.5000000e-01 3.0000000e+00 3.5000000e+00 
7.5000000e-01 3.0000000e+00 4.0000000e+00 
7.5000000e-01 3.0000000e+00 4.5000000e+00 
7.5000000e-01 3.0000000e+00 5.0000000e+00 
7.5000000e-01 3.0000000e+00 5.5000000e+00 
7.5000000e-01 3.0000000e+00 6.0000000e+00 
7.5000000e-01 3.0000000e+00 6.5000000e+00 
7.5000000e-01 3.0000000e+00 7.0000000e+00 
7.5000000e-01 3.0000000e+00 7.5000000e+00 
7.5000000e-01 3.0000000e+00 8.0000000e+00 
7.5000000e-01 3.0000000e+00 8.5000000e+00 
7.5000000e-01 3.0000000e+00 9.0000000e+00 
7.5000000e-01 3.0000000e+00 9.5000000e+00 
7.5000000e-01 3.0000000e+00 1.0000000e+01 
7.5000000e-01 3.0000000e+00 1.0500000e+01 
7.5000000e-01 3.0000000e+00 1.1000000e+01 
7.5000000e-01 3.0000000e+00 1.1500000e+01 
7.5000000e-01 3.0000000e+00 1.2000000e+01 
7.5000000e-01 3.0000000e+00 1.2500000e+01 
7.5000000e-01 3.0000000e+00 1.3000000e+01 
7.5000000e-01 3.0000000e+00 1.3500000e+01 
7.5000000e-01 3.0000000e+00 1.4000000e+01 
7.5000000e-01 3.0000000e+00 1.4500000e+01 
7.5000000e-01 3.0000000e+00 1.5000000e+01 
7.5000000e-01 3.0000000e+00 1.5500000e+01 
7.5000000e-01 3.0000000e+00 1.6000000e+01 
7.5000000e-01 3.0000000e+00 1.6500000e+01 
7.5000000e-01 3.0000000e+00 1.7000000e+01 
7.5000000e-01 3.0000000e+00 1.7500000e+01 
7.5000000e-01 3.0000000e+00 1.8000000e+01 
7.5000000e-01 3.0000000e+00 1.8500000e+01 
7.5000000e-01 3.0000000e+00 1.9000000e+01 
7.5000000e-01 3.0000000e+00 1.9500000e+01 
7.5000000e-01 3.0000000e+00 2.0000000e+01 
7.5000000e-01 3.0000000e+00 2.0500000e+01 
7.5000000e-01 3.0000000e+00 2.1000000e+01 
7.5000000e-01 3.0000000e+00 2.1500000e+01 
7.5000000e-01 3.0000000e+00 2.2000000e+01 
7.5000000e-01 3.0000000e+00 2.2500000e+01 
7.5000000e-01 3.0000000e+00 2.3000000e+01 
7.5000000e-01 3.0000000e+00 2.3500000e+01 
7.5000000e-01 3.0000000e+00 2.4000000e+01 
7.5000000e-01 3.0000000e+00 2.4500000e+01 
7.5000000e-01 3.0000000e+00 2.5000000e+01 
7.5000000e-01 3.0000000e+00 2.5500000e+01 
7.5000000e-01 3.0000000e+00 2.6000000e+01 
7.5000000e-01 3.0000000e+00 2.6500000e+01 
7.5000000e-01 3.0000000e+00 2.7000000e+01 
7.5000000e-01 3.0000000e+00 2.7500000e+01 
7.5000000e-01 3.0000000e+00 2.8000000e+01 
7.5000000e-01 3.0000000e+00 2.8500000e+01 
7.5000000e-01 3.0000000e+00 2.9000000e+01 
7.5000000e-01 3.0000000e+00 2.9500000e+01 
7.5000000e-01 3.0000000e+00 3.0000000e+01 
7.5000000e-01 3.0000000e+00 3.0500000e+01 
7.5000000e-01 3.0000000e+00 3.1000000e+01 
7.5000000e-01 3.0000000e+00 3.1500000e+01 
7.5000000e-01 3.0000000e+00 3.2000000e+01 
7.5000000e-01 3.0000000e+00 3.2500000e+01 
7.5000000e-01 3.0000000e+00 3.3000000e+01 
7.5000000e-01 3.0000000e+00 3.3500000e+01 
7.5000000e-01 3.0000000e+00 3.4000000e+01 
7.5000000e-01 3.0000000e+00 3.4500000e+01 
7.5000000e-01 3.0000000e+00 3.5000000e+01 
7.5000000e-01 3.0000000e+00 3.5500000e+01 
7.5000000e-01 3.0000000e+00 3.6000000e+01 
7.5000000e-01 3.0000000e+00 3.6500000e+01 
7.5000000e-01 3.0000000e+00 3.7000000e+01 
7.5000000e-01 3.0000000e+00 3.7500000e+01 
7.5000000e-01 3.0000000e+00 3.8000000e+01 
7.5000000e-01 3.0000000e+00 3.8500000e+01 
7.5000000e-01 3.0000000e+00 3.9000000e+01 
7.5000000e-01 3.0000000e+00 3.9500000e+01 
7.5000000e-01 3.0000000e+00 4.0000000e+01 
7.5000000e-01 3.0000000e+00 4.0500000e+01 
7.5000000e-01 3.0000000e+00 4.1000000e+01 
7.5000000e-01 3.0000000e+00 4.1500000e+01 
7.5000000e-01 3.0000000e+00 4.2000000e+01 
7.5000000e-01 3.0000000e+00 4.2500000e+01 
7.5000000e-01 3.0000000e+00 4.3000000e+01 
7.5000000e-01 3.0000000e+00 4.3500000e+01 
7.5000000e-01 3.0000000e+00 4.4000000e+01 
7.5000000e-01 3.0000000e+00 4.4500000e+01 
7.5000000e-01 3.0000000e+00 4.5000000e+01 
7.5000000e-01 3.0000000e+00 4.5500000e+01 
7.5000000e-01 3.0000000e+00 4.6000000e+01 
7.5000000e-01 3.0000000e+00 4.6500000e+01 
7.5000000e-01 3.0000000e+00 4.7000000e+01 
7.5000000e-01 3.0000000e+00 4.7500000e+01 
7.5000000e-01 3.0000000e+00 4.8000000e+01 
7.5000000e-01 3.0000000e+00 4.8500000e+01 
7.5000000e-01 3.0000000e+00 4.9000000e+01 
7.5000000e-01 3.0000000e+00 4.9500000e+01 
7.5000000e-01 3.0250001e+00 0.0000000e+00 
7.5000000e-01 3.0250001e+00 5.0000000e-01 
7.5000000e-01 3.0250001e+00 1.0000000e+00 
7.5000000e-01 3.0250001e+00 1.5000000e+00 
7.5000000e-01 3.0250001e+00 2.0000000e+00 
7.5000000e-01 3.0250001e+00 2.5000000e+00 
7.5000000e-01 3.0250001e+00 3.0000000e+00 
7.5000000e-01 3.0250001e+00 3.5000000e+00 
7.5000000e-01 3.0250001e+00 4.0000000e+00 
7.5000000e-01 3.0250001e+00 4.5000000e+00 
7.5000000e-01 3.0250001e+00 5.0000000e+00 
7.5000000e-01 3.0250001e+00 5.5000000e+00 
7.5000000e-01 3.0250001e+00 6.0000000e+00 
7.5000000e-01 3.0250001e+00 6.5000000e+00 
7.5000000e-01 3.0250001e+00 7.0000000e+00 
7.5000000e-01 3.0250001e+00 7.5000000e+00 
7.5000000e-01 3.0250001e+00 8.0000000e+00 
7.5000000e-01 3.0250001e+00 8.5000000e+00 
7.5000000e-01 3.0250001e+00 9.0000000e+00 
7.5000000e-01 3.0250001e+00 9.5000000e+00 
7.5000000e-01 3.0250001e+00 1.0000000e+01 
7.5000000e-01 3.0250001e+00 1.0500000e+01 
7.5000000e-01 3.0250001e+00 1.1000000e+01 
7.5000000e-01 3.0250001e+00 1.1500000e+01 
7.5000000e-01 3.0250001e+00 1.2000000e+01 
7.5000000e-01 3.0250001e+00 1.2500000e+01 
7.5000000e-01 3.0250001e+00 1.3000000e+01 
7.5000000e-01 3.0250001e+00 1.3500000e+01 
7.5000000e-01 3.0250001e+00 1.4000000e+01 
7.5000000e-01 3.0250001e+00 1.4500000e+01 
7.5000000e-01 3.0250001e+00 1.5000000e+01 
7.5000000e-01 3.0250001e+00 1.5500000e+01 
7.5000000e-01 3.0250001e+00 1.6000000e+01 
7.5000000e-01 3.0250001e+00 1.6500000e+01 
7.5000000e-01 3.0250001e+00 1.7000000e+01 
7.5000000e-01 3.0250001e+00 1.7500000e+01 
7.5000000e-01 3.0250001e+00 1.8000000e+01 
7.5000000e-01 3.0250001e+00 1.8500000e+01 
7.5000000e-01 3.0250001e+00 1.9000000e+01 
7.5000000e-01 3.0250001e+00 1.9500000e+01 
7.5000000e-01 3.0250001e+00 2.0000000e+01 
7.5000000e-01 3.0250001e+00 2.0500000e+01 
7.5000000e-01 3.0250001e+00 2.1000000e+01 
7.5000000e-01 3.0250001e+00 2.1500000e+01 
7.5000000e-01 3.0250001e+00 2.2000000e+01 
7.5000000e-01 3.0250001e+00 2.2500000e+01 
7.5000000e-01 3.0250001e+00 2.3000000e+01 
7.5000000e-01 3.0250001e+00 2.3500000e+01 
7.5000000e-01 3.0250001e+00 2.4000000e+01 
7.5000000e-01 3.0250001e+00 2.4500000e+01 
7.5000000e-01 3.0250001e+00 2.5000000e+01 
7.5000000e-01 3.0250001e+00 2.5500000e+01 
7.5000000e-01 3.0250001e+00 2.6000000e+01 
7.5000000e-01 3.0250001e+00 2.6500000e+01 
7.5000000e-01 3.0250001e+00 2.7000000e+01 
7.5000000e-01 3.0250001e+00 2.7500000e+01 
7.5000000e-01 3.0250001e+00 2.8000000e+01 
7.5000000e-01 3.0250001e+00 2.8500000e+01 
7.5000000e-01 3.0250001e+00 2.9000000e+01 
7.5000000e-01 3.0250001e+00 2.9500000e+01 
7.5000000e-01 3.0250001e+00 3.0000000e+01 
7.5000000e-01 3.0250001e+00 3.0500000e+01 
7.5000000e-01 3.0250001e+00 3.1000000e+01 
7.5000000e-01 3.0250001e+00 3.1500000e+01 
7.5000000e-01 3.0250001e+00 3.2000000e+01 
7.5000000e-01 3.0250001e+00 3.2500000e+01 
7.5000000e-01 3.0250001e+00 3.3000000e+01 
7.5000000e-01 3.0250001e+00 3.3500000e+01 
7.5000000e-01 3.0250001e+00 3.4000000e+01 
7.5000000e-01 3.0250001e+00 3.4500000e+01 
7.5000000e-01 3.0250001e+00 3.5000000e+01 
7.5000000e-01 3.0250001e+00 3.5500000e+01 
7.5000000e-01 3.0250001e+00 3.6000000e+01 
7.5000000e-01 3.0250001e+00 3.6500000e+01 
7.5000000e-01 3.0250001e+00 3.7000000e+01 
7.5000000e-01 3.0250001e+00 3.7500000e+01 
7.5000000e-01 3.0250001e+00 3.8000000e+01 
7.5000000e-01 3.0250001e+00 3.8500000e+01 
7.5000000e-01 3.0250001e+00 3.9000000e+01 
7.5000000e-01 3.0250001e+00 3.9500000e+01 
7.5000000e-01 3.0250001e+00 4.0000000e+01 
7.5000000e-01 3.0250001e+00 4.0500000e+01 
7.5000000e-01 3.0250001e+00 4.1000000e+01 
7.5000000e-01 3.0250001e+00 4.1500000e+01 
7.5000000e-01 3.0250001e+00 4.2000000e+01 
7.5000000e-01 3.0250001e+00 4.2500000e+01 
7.5000000e-01 3.0250001e+00 4.3000000e+01 
7.5000000e-01 3.0250001e+00 4.3500000e+01 
7.5000000e-01 3.0250001e+00 4.4000000e+01 
7.5000000e-01 3.0250001e+00 4.4500000e+01 
7.5000000e-01 3.0250001e+00 4.5000000e+01 
7.5000000e-01 3.0250001e+00 4.5500000e+01 
7.5000000e-01 3.0250001e+00 4.6000000e+01 
7.5000000e-01 3.0250001e+00 4.6500000e+01 
7.5000000e-01 3.0250001e+00 4.7000000e+01 
7.5000000e-01 3.0250001e+00 4.7500000e+01 
7.5000000e-01 3.0250001e+00 4.8000000e+01 
7.5000000e-01 3.0250001e+00 4.8500000e+01 
7.5000000e-01 3.0250001e+00 4.9000000e+01 
7.5000000e-01 3.0250001e+00 4.9500000e+01 
7.5000000e-01 3.0250001e+00 5.0000000e+01 
3.0000000e+00 2.0000000e+00 3.6000000e+01 
8.0487806e-01 3.0000000e+00 3.6000000e+01 
0.0000000e+00 0.0000000e+00 1.0000000e+00 
0.0000000e+00 0.0000000e+00 2.0000000e+00 
0.0000000e+00 0.0000000e+00 3.0000000e+00 
0.0000000e+00 0.0000000e+00 4.0000000e+00 
0.0000000e+00 0.0000000e+00 5.0000000e+00 
0.0000000e+00 0.0000000e+00 6.0000000e+00 
0.0000000e+00 0.0000000e+00 7.0000000e+00 
0.0000000e+00 0.0000000e+00 8.0000000e+00 
[...]
POINT_DATA 1919
FIELD FieldData 3
DISPLACEMENT 3 1919  float
0.0000000e+00 0.0000000e+00 0.0000000e+00 
0.0000000e+00 0.0000000e+00 0.0000000e+00 
0.0000000e+00 0.0000000e+00 0.0000000e+00 
0.0000000e+00 0.0000000e+00 0.0000000e+00 
7.1559170e-06 -4.5226352e-06 -1.1404290e-05 
-1.9303011e-08 5.7868835e-08 2.2383448e-08 
0.0000000e+00 7.2607407e-05 0.0000000e+00 
0.0000000e+00 2.2749435e-07 0.0000000e+00 
7.3998599e-06 2.8642849e-06 -6.5558302e-06 
5.6466849e-09 2.9135780e-08 5.6379619e-08 
1.8844696e-05 1.1719439e-05 1.6653260e-06 
-6.3291623e-08 -1.7684090e-07 -2.5461016e-08 
0.0000000e+00 4.0569623e-05 0.0000000e+00 
0.0000000e+00 1.9894026e-07 0.0000000e+00 
-5.4317927e-05 -1.6041409e-05 9.9623663e-05 
-1.0220173e-08 -5.3344053e-07 2.1729176e-07 
-6.1369145e-05 -4.9507977e-05 4.5942590e-05 
2.3837169e-08 2.9069867e-07 5.6625289e-08 
0.0000000e+00 -2.7383809e-05 0.0000000e+00 
0.0000000e+00 -5.7877725e-07 0.0000000e+00 
-2.5439223e-05 -7.4548800e-05 3.8808635e-06 
-2.4151401e-05 -1.1752485e-04 3.3601686e-05 
-1.4390955e-05 -1.1492605e-04 3.0268777e-05 
-4.7091657e-05 -4.1656316e-05 3.9457632e-06 
-3.8304715e-06 5.1525058e-05 4.1697051e-05 
-6.3425781e-05 3.5698944e-05 6.1217397e-05 
-3.6035308e-05 -2.1174176e-04 1.0516512e-04 
-7.4684416e-05 -7.2049571e-04 1.0347256e-04 
-1.2567558e-04 -1.4650089e-03 2.0966127e-04 
-2.1038414e-04 -2.4023822e-03 1.4009385e-04 
-3.0414364e-04 -3.4956285e-03 2.8774183e-04 
-3.1487222e-04 -4.5356676e-03 8.5825952e-05 
-3.7204914e-04 -5.1581413e-03 3.9968178e-05 
-4.3064804e-04 -5.0819814e-03 -9.0929701e-05 
-4.4451075e-04 -4.8598964e-03 -1.9806490e-04 
-4.0268278e-04 -4.7777649e-03 -2.1116689e-04 
-3.6038613e-04 -4.7909669e-03 -1.9808004e-04 
-2.7396876e-04 -4.4093365e-03 -1.8420866e-04 
-2.2663589e-04 -3.3798029e-03 -3.0692061e-04 
-1.5883031e-04 -2.1598691e-03 -2.0783754e-04 
-6.0833416e-05 -1.1580618e-03 -2.8423601e-04 
2.3961227e-05 -4.7218899e-04 -1.8532581e-04 
8.7915039e-05 -6.5895540e-05 -1.4237367e-04 
8.9636109e-05 1.4445290e-04 9.3139706e-06 
5.6774188e-05 2.1869654e-04 1.3815910e-04 
2.0019061e-05 2.0947133e-04 2.0832066e-04 
-5.5486202e-05 1.6081483e-04 1.9390686e-04 
-7.1920425e-05 1.0419318e-04 9.8325749e-05 
-7.0730071e-05 6.1739702e-05 -5.3305139e-06 
-5.4257584e-05 3.4939389e-05 -7.9373807e-05 
-2.6125295e-05 2.1971418e-05 -1.2722035e-04 
-7.8981071e-07 2.4270263e-05 -1.2226995e-04 
1.2894327e-05 3.6897727e-05 -9.0856876e-05 
2.1782913e-05 4.7924797e-05 -5.6799785e-05 
-1.0035190e-05 4.5943147e-05 -3.1733915e-05 
-6.3212116e-07 3.1789699e-05 1.5124516e-06 
-2.5964660e-05 2.2256463e-05 -5.7292359e-06 
-1.4222065e-05 4.0333547e-05 1.7604258e-05 
1.7472616e-05 8.2539649e-05 1.8943128e-05 
-1.9584979e-06 1.2809318e-04 1.5780126e-05 
2.3289904e-05 1.5356623e-04 2.4344574e-05 
-8.5121574e-06 1.5355041e-04 4.7468413e-05 
1.7602362e-05 1.4430765e-04 5.6045898e-05 
-2.6634820e-05 1.4223080e-04 9.8366763e-05 
-2.5440326e-05 1.3447132e-04 1.6499583e-04 
-4.0868956e-05 6.7843917e-05 1.6779876e-04 
-4.3775221e-05 -1.5746149e-04 2.3920178e-04 
-1.1999893e-04 -6.5881503e-04 2.1992771e-04 
-1.6941334e-04 -1.4913381e-03 3.3621147e-04 
-2.7996849e-04 -2.5922598e-03 2.2285787e-04 
-3.7578907e-04 -3.8202913e-03 3.2606625e-04 
-4.7629519e-04 -4.8269243e-03 8.3617873e-05 
-5.3776836e-04 -5.2439566e-03 1.6879525e-05 
-4.9109355e-04 -5.1187817e-03 -7.3775052e-05 
-4.7896025e-04 -5.0116982e-03 -2.1764034e-04 
-4.2296934e-04 -5.0580841e-03 -3.1250168e-04 
-3.7472692e-04 -5.0557093e-03 -3.6855903e-04 
-2.9937798e-04 -4.4663642e-03 -3.5991106e-04 
-2.0390139e-04 -3.3425398e-03 -4.6314386e-04 
-9.5159223e-05 -2.1191807e-03 -2.3539254e-04 
-3.9426628e-05 -1.1195571e-03 -2.4565338e-04 
2.3554632e-05 -4.0282373e-04 -7.8046040e-05 
4.4313452e-05 3.2287720e-05 -4.7642807e-05 
4.0293526e-05 2.3236526e-04 2.2255577e-05 
3.8300335e-05 2.5529912e-04 7.3262046e-05 
1.9531833e-05 1.8557519e-04 1.1914218e-04 
-2.7054690e-05 1.0257873e-04 1.3915302e-04 
-4.8484395e-05 4.2692191e-05 9.2504342e-05 
-5.5230073e-05 1.0457670e-05 2.7226170e-05 
-3.4036490e-05 -7.5235894e-06 -9.8053526e-05 
-1.3244841e-05 -1.6970773e-05 -9.9499208e-05 
9.0794420e-06 -1.6569098e-05 -8.4031766e-05 
2.3758579e-05 -7.4864283e-06 -4.9632370e-05 
2.6112310e-05 4.2906545e-06 -1.9444702e-05 
1.7435672e-05 1.0218801e-05 3.2429930e-06 
9.4560583e-06 1.0029844e-05 1.7598863e-05 
1.1715391e-06 6.8530499e-06 2.3839137e-05 
-2.2147276e-06 3.8662201e-06 2.0087131e-05 
-4.6345949e-06 1.5147914e-06 1.1121526e-05 
-3.8223779e-06 -1.0789797e-06 4.1508056e-06 
-3.0488318e-06 -3.4571453e-06 -1.0235303e-06 
-1.9740887e-06 -4.5128186e-06 -4.0921718e-06 
-7.6645722e-07 -3.5740654e-06 -3.9082943e-06 
5.3447568e-08 -1.5294311e-06 -3.2289727e-06 
7.8407953e-07 5.3931597e-08 -1.4361199e-06 
8.7301578e-07 5.5098224e-07 -1.7920388e-07 
5.7770700e-07 5.3622136e-07 7.2509755e-07 
4.9407311e-07 7.1181148e-07 1.1099908e-06 
5.7493594e-08 1.0145293e-06 7.1400376e-07 
6.8873341e-08 9.4424217e-07 -1.9665254e-07 
-2.1878569e-07 3.6189005e-07 6.6320393e-07 
-1.9836860e-07 -3.4441646e-07 1.0227815e-08 
-3.0554830e-08 -6.2262410e-07 -2.1567219e-07 
2.5176011e-08 -4.3275321e-07 1.1859697e-07 
5.2028351e-08 -1.8338726e-07 -2.7240475e-07 
5.4774234e-09 -1.2678510e-07 -1.0958864e-07 
3.0221543e-08 -1.6544807e-07 5.9342189e-09 
-7.1823095e-08 -8.2633129e-08 -9.9121188e-08 
6.8786697e-08 1.5181172e-07 1.7616395e-08 
0.0000000e+00 -5.1302792e-05 0.0000000e+00 
0.0000000e+00 -7.5741234e-05 0.0000000e+00 
0.0000000e+00 -1.1593885e-04 0.0000000e+00 
0.0000000e+00 -1.1169371e-04 0.0000000e+00 
0.0000000e+00 -3.8142007e-05 0.0000000e+00 
0.0000000e+00 5.1714062e-05 0.0000000e+00 
0.0000000e+00 3.1949505e-05 0.0000000e+00 
0.0000000e+00 -2.1460760e-04 0.0000000e+00 
0.0000000e+00 -7.2208646e-04 0.0000000e+00 
0.0000000e+00 -1.4660575e-03 0.0000000e+00 
0.0000000e+00 -2.4119120e-03 0.0000000e+00 
0.0000000e+00 -3.5085822e-03 0.0000000e+00 
0.0000000e+00 -4.5643719e-03 0.0000000e+00 
0.0000000e+00 -5.1844539e-03 0.0000000e+00 
0.0000000e+00 -5.1120138e-03 0.0000000e+00 
0.0000000e+00 -4.8778797e-03 0.0000000e+00 
0.0000000e+00 -4.8042918e-03 0.0000000e+00 
0.0000000e+00 -4.8109107e-03 0.0000000e+00 
0.0000000e+00 -4.4373972e-03 0.0000000e+00 
0.0000000e+00 -3.3980766e-03 0.0000000e+00 
0.0000000e+00 -2.1747437e-03 0.0000000e+00 
0.0000000e+00 -1.1639406e-03 0.0000000e+00 
0.0000000e+00 -4.7377893e-04 0.0000000e+00 
0.0000000e+00 -6.4824198e-05 0.0000000e+00 
0.0000000e+00 1.4443591e-04 0.0000000e+00 
0.0000000e+00 2.1924093e-04 0.0000000e+00 
0.0000000e+00 2.1075927e-04 0.0000000e+00 
0.0000000e+00 1.6173898e-04 0.0000000e+00 
0.0000000e+00 1.0518042e-04 0.0000000e+00 
0.0000000e+00 6.1593579e-05 0.0000000e+00 
0.0000000e+00 3.4508499e-05 0.0000000e+00 
0.0000000e+00 2.2251037e-05 0.0000000e+00 
0.0000000e+00 2.4726829e-05 0.0000000e+00 
0.0000000e+00 3.7069534e-05 0.0000000e+00 
0.0000000e+00 4.7435340e-05 0.0000000e+00 
0.0000000e+00 4.4946311e-05 0.0000000e+00 
0.0000000e+00 3.1084739e-05 0.0000000e+00 
0.0000000e+00 2.3124954e-05 0.0000000e+00 
0.0000000e+00 4.1020761e-05 0.0000000e+00 
0.0000000e+00 8.2932238e-05 0.0000000e+00 
0.0000000e+00 1.2754810e-04 0.0000000e+00 
0.0000000e+00 1.5246373e-04 0.0000000e+00 
0.0000000e+00 1.5318234e-04 0.0000000e+00 
0.0000000e+00 1.4503159e-04 0.0000000e+00 
0.0000000e+00 1.4361599e-04 0.0000000e+00 
0.0000000e+00 1.3712246e-04 0.0000000e+00 
0.0000000e+00 6.9819071e-05 0.0000000e+00 
0.0000000e+00 -1.5979867e-04 0.0000000e+00 
0.0000000e+00 -6.6501496e-04 0.0000000e+00 
0.0000000e+00 -1.4974028e-03 0.0000000e+00 
0.0000000e+00 -2.6044119e-03 0.0000000e+00 
0.0000000e+00 -3.8322464e-03 0.0000000e+00 
0.0000000e+00 -4.8548318e-03 0.0000000e+00 
0.0000000e+00 -5.2690599e-03 0.0000000e+00 
0.0000000e+00 -5.1508951e-03 0.0000000e+00 
0.0000000e+00 -5.0305808e-03 0.0000000e+00 
0.0000000e+00 -5.0854594e-03 0.0000000e+00 
0.0000000e+00 -5.0759465e-03 0.0000000e+00 
0.0000000e+00 -4.4962317e-03 0.0000000e+00 
0.0000000e+00 -3.3580828e-03 0.0000000e+00 
0.0000000e+00 -2.1310335e-03 0.0000000e+00 
0.0000000e+00 -1.1223027e-03 0.0000000e+00 
0.0000000e+00 -4.0525640e-04 0.0000000e+00 
0.0000000e+00 3.1556239e-05 0.0000000e+00 
0.0000000e+00 2.3160936e-04 0.0000000e+00 
0.0000000e+00 2.5612421e-04 0.0000000e+00 
0.0000000e+00 1.8793270e-04 0.0000000e+00 
0.0000000e+00 1.0398954e-04 0.0000000e+00 
0.0000000e+00 4.3257201e-05 0.0000000e+00 
0.0000000e+00 1.0031317e-05 0.0000000e+00 
0.0000000e+00 -7.6730839e-06 0.0000000e+00 
0.0000000e+00 -1.6693377e-05 0.0000000e+00 
0.0000000e+00 -1.6459302e-05 0.0000000e+00 
0.0000000e+00 -7.5270773e-06 0.0000000e+00 
0.0000000e+00 3.8537096e-06 0.0000000e+00 
0.0000000e+00 1.0113242e-05 0.0000000e+00 
0.0000000e+00 1.0111217e-05 0.0000000e+00 
0.0000000e+00 6.9807097e-06 0.0000000e+00 
0.0000000e+00 3.8747389e-06 0.0000000e+00 
0.0000000e+00 1.4293601e-06 0.0000000e+00 
0.0000000e+00 -1.0827251e-06 0.0000000e+00 
0.0000000e+00 -3.4089135e-06 0.0000000e+00 
0.0000000e+00 -4.4469980e-06 0.0000000e+00 
0.0000000e+00 -3.5655496e-06 0.0000000e+00 
0.0000000e+00 -1.5811380e-06 0.0000000e+00 
0.0000000e+00 1.0857250e-08 0.0000000e+00 
0.0000000e+00 5.5777343e-07 0.0000000e+00 
0.0000000e+00 5.6849120e-07 0.0000000e+00 
0.0000000e+00 7.1803851e-07 0.0000000e+00 
0.0000000e+00 9.8823864e-07 0.0000000e+00 
0.0000000e+00 9.2893106e-07 0.0000000e+00 
0.0000000e+00 3.7115174e-07 0.0000000e+00 
0.0000000e+00 -3.1230002e-07 0.0000000e+00 
0.0000000e+00 -6.0943574e-07 0.0000000e+00 
0.0000000e+00 -4.5615641e-07 0.0000000e+00 
0.0000000e+00 -2.0640825e-07 0.0000000e+00 
0.0000000e+00 -1.2609573e-07 0.0000000e+00 
0.0000000e+00 -1.4647685e-07 0.0000000e+00 
0.0000000e+00 -6.3845022e-08 0.0000000e+00 
0.0000000e+00 1.4743168e-07 0.0000000e+00 
0.0000000e+00 2.7321127e-07 0.0000000e+00 
-7.8901076e-06 -1.1426258e-05 9.5605847e-06 
7.3854426e-06 -1.7540071e-05 -8.6488595e-05 
0.0000000e+00 0.0000000e+00 0.0000000e+00 
0.0000000e+00 0.0000000e+00 0.0000000e+00 
0.0000000e+00 0.0000000e+00 0.0000000e+00 
0.0000000e+00 0.0000000e+00 0.0000000e+00 
0.0000000e+00 0.0000000e+00 0.0000000e+00 
0.0000000e+00 0.0000000e+00 0.0000000e+00 
0.0000000e+00 0.0000000e+00 0.0000000e+00 
0.0000000e+00 0.0000000e+00 0.0000000e+00 
0.0000000e+00 0.0000000e+00 0.0000000e+00 
0.0000000e+00 0.0000000e+00 0.0000000e+00 
0.0000000e+00 0.0000000e+00 0.0000000e+00 
0.0000000e+00 0.0000000e+00 0.0000000e+00 
0.0000000e+00 0.0000000e+00 0.0000000e+00 
0.0000000e+00 0.0000000e+00 0.0000000e+00 
0.0000000e+00 0.0000000e+00 0.0000000e+00 
0.0000000e+00 0.0000000e+00 0.0000000e+00 
0.0000000e+00 0.0000000e+00 0.0000000e+00 
0.0000000e+00 0.0000000e+00 0.0000000e+00 
0.0000000e+00 0.0000000e+00 0.0000000e+00 
0.0000000e+00 0.0000000e+00 0.0000000e+00 
0.0000000e+00 0.0000000e+00 0.0000000e+00 
0.0000000e+00 0.0000000e+00 0.0000000e+00 
0.0000000e+00 0.0000000e+00 0.0000000e+00 
0.0000000e+00 0.0000000e+00 0.0000000e+00 
0.0000000e+00 0.0000000e+00 0.0000000e+00 
0.0000000e+00 0.0000000e+00 0.0000000e+00 
0.0000000e+00 0.0000000e+00 0.0000000e+00 
0.0000000e+00 0.0000000e+00 0.0000000e+00 
0.0000000e+00 0.0000000e+00 0.0000000e+00 
0.0000000e+00 0.0000000e+00 0.0000000e+00 
0.0000000e+00 0.0000000e+00 0.0000000e+00 
0.0000000e+00 0.0000000e+00 0.0000000e+00 
0.0000000e+00 0.0000000e+00 0.0000000e+00 
0.0000000e+00 0.0000000e+00 0.0000000e+00 
0.0000000e+00 0.0000000e+00 0.0000000e+00 
0.0000000e+00 0.0000000e+00 0.0000000e+00 
0.0000000e+00 0.0000000e+00 0.0000000e+00 
0.0000000e+00 0.0000000e+00 0.0000000e+00 
0.0000000e+00 0.0000000e+00 0.0000000e+00 
0.0000000e+00 0.0000000e+00 0.0000000e+00 
0.0000000e+00 0.0000000e+00 0.0000000e+00 
0.0000000e+00 0.0000000e+00 0.0000000e+00 
0.0000000e+00 0.0000000e+00 0.0000000e+00 
0.0000000e+00 0.0000000e+00 0.0000000e+00 
0.0000000e+00 0.0000000e+00 0.0000000e+00 
0.0000000e+00 0.0000000e+00 0.0000000e+00 
0.0000000e+00 0.0000000e+00 0.0000000e+00 
0.0000000e+00 0.0000000e+00 0.0000000e+00 
0.0000000e+00 0.0000000e+00 0.0000000e+00 
0.0000000e+00 0.0000000e+00 0.0000000e+00 
0.0000000e+00 0.0000000e+00 0.0000000e+00 
0.0000000e+00 0.0000000e+00 0.0000000e+00 
0.0000000e+00 0.0000000e+00 0.0000000e+00 
0.0000000e+00 0.0000000e+00 0.0000000e+00 
0.0000000e+00 0.0000000e+00 0.0000000e+00 
0.0000000e+00 0.0000000e+00 0.0000000e+00 
0.0000000e+00 0.0000000e+00 0.0000000e+00 
0.0000000e+00 0.0000000e+00 0.0000000e+00 
0.0000000e+00 0.0000000e+00 0.0000000e+00 
0.0000000e+00 0.0000000e+00 0.0000000e+00 
0.0000000e+00 0.0000000e+00 0.0000000e+00 
0.0000000e+00 0.0000000e+00 0.0000000e+00 
0.0000000e+00 0.0000000e+00 0.0000000e+00 
0.0000000e+00 0.0000000e+00 0.0000000e+00 
0.0000000e+00 0.0000000e+00 0.0000000e+00 
0.0000000e+00 0.0000000e+00 0.0000000e+00 
0.0000000e+00 0.0000000e+00 0.0000000e+00 
0.0000000e+00 0.0000000e+00 0.0000000e+00 
0.0000000e+00 0.0000000e+00 0.0000000e+00 
0.0000000e+00 0.0000000e+00 0.0000000e+00 
0.0000000e+00 0.0000000e+00 0.0000000e+00 
0.0000000e+00 0.0000000e+00 0.0000000e+00 
0.0000000e+00 0.0000000e+00 0.0000000e+00 
0.0000000e+00 0.0000000e+00 0.0000000e+00 
0.0000000e+00 0.0000000e+00 0.0000000e+00 
0.0000000e+00 0.0000000e+00 0.0000000e+00 
0.0000000e+00 0.0000000e+00 0.0000000e+00 
0.0000000e+00 0.0000000e+00 0.0000000e+00 
0.0000000e+00 0.0000000e+00 0.0000000e+00 
0.0000000e+00 0.0000000e+00 0.0000000e+00 
0.0000000e+00 0.0000000e+00 0.0000000e+00 
0.0000000e+00 0.0000000e+00 0.0000000e+00 
0.0000000e+00 0.0000000e+00 0.0000000e+00 
0.0000000e+00 0.0000000e+00 0.0000000e+00 
0.0000000e+00 0.0000000e+00 0.0000000e+00 
0.0000000e+00 0.0000000e+00 0.0000000e+00 
0.0000000e+00 0.0000000e+00 0.0000000e+00 
0.0000000e+00 0.0000000e+00 0.0000000e+00 
0.0000000e+00 0.0000000e+00 0.0000000e+00 
0.0000000e+00 0.0000000e+00 0.0000000e+00 
0.0000000e+00 0.0000000e+00 0.0000000e+00 
0.0000000e+00 0.0000000e+00 0.0000000e+00 
0.0000000e+00 0.0000000e+00 0.0000000e+00 
0.0000000e+00 0.0000000e+00 0.0000000e+00 
0.0000000e+00 0.0000000e+00 0.0000000e+00 
0.0000000e+00 0.0000000e+00 0.0000000e+00 
0.0000000e+00 0.0000000e+00 0.0000000e+00 
0.0000000e+00 0.0000000e+00 0.0000000e+00 
0.0000000e+00 0.0000000e+00 0.0000000e+00 
0.0000000e+00 0.0000000e+00 0.0000000e+00 
0.0000000e+00 0.0000000e+00 0.0000000e+00 
0.0000000e+00 0.0000000e+00 0.0000000e+00 
0.0000000e+00 0.0000000e+00 0.0000000e+00 
0.0000000e+00 0.0000000e+00 0.0000000e+00 
0.0000000e+00 0.0000000e+00 0.0000000e+00 
0.0000000e+00 0.0000000e+00 0.0000000e+00 
1.2440627e-05 -1.6537356e-06 -1.2460420e-05 
1.7919472e-05 -6.3950815e-06 -1.0569249e-05 
2.2476330e-05 -1.7488886e-05 -9.8903774e-06 
3.1790762e-05 -1.8393130e-05 -1.4784669e-05 
3.6571226e-05 -1.6788283e-05 -1.7525661e-05 
3.7430906e-05 -2.0868532e-05 -1.1743356e-05 
4.3657477e-05 -1.2443855e-05 -4.4353496e-06 
4.0437506e-05 2.7724600e-06 1.9040172e-05 
3.2207066e-05 1.2559515e-06 2.7520780e-05 
2.2588871e-05 -1.5465257e-05 2.2758652e-05 
1.1724644e-05 -1.4552244e-05 1.3834231e-05 
8.5636775e-06 -1.1945868e-06 6.1878359e-06 
7.7644063e-06 4.9451114e-06 7.7092327e-06 
8.6233813e-06 8.6717824e-07 5.7421844e-06 
5.3531448e-06 9.1572821e-07 7.6698452e-06 
2.2617451e-06 3.8820690e-06 4.0197788e-06 
3.1040258e-06 8.6558479e-08 -6.8388085e-06 
5.5628675e-06 -4.7415551e-06 -5.3987169e-06 
3.0708754e-06 1.3100060e-07 -6.7942033e-06 
4.7649974e-06 -1.3054286e-05 -8.2819770e-06 
7.6000733e-06 -1.2556840e-05 -9.7731136e-06 
1.7900522e-05 -6.4810874e-06 -1.1425806e-05 
3.1039057e-05 -1.1471863e-05 -1.3484537e-05 
3.5732410e-05 -1.2041433e-05 -1.4915925e-05 
5.0111623e-05 -8.0528052e-06 -1.3776000e-05 
5.1718223e-05 -8.4615367e-06 -5.8037663e-06 
4.4287768e-05 -6.1058472e-06 2.3970022e-06 
3.8090991e-05 -6.6313883e-06 8.4489393e-06 
3.1518051e-05 -5.6944823e-06 1.0659878e-05 
2.2710879e-05 -5.2810551e-06 1.4117583e-05 
1.4944875e-05 -5.5708560e-06 1.1758545e-05 
9.0978992e-06 -5.8395794e-06 9.6017620e-06 
5.8057049e-06 -1.0666286e-06 1.0424027e-05 
3.2423754e-06 -3.1618265e-06 1.0885489e-05 
1.8331191e-06 -3.7890181e-06 8.9241039e-06 
1.2471428e-06 -9.5317387e-07 4.3877881e-06 
1.8489690e-08 2.2049912e-06 -1.2547224e-06 
-2.6810017e-07 1.1356260e-06 -2.2327129e-06 
-4.8349432e-07 3.6898416e-07 -2.1581825e-06 
-5.8653933e-07 -5.9036762e-07 -1.3586402e-06 
-1.0028077e-07 1.6148223e-07 -2.4923628e-07 
7.3198223e-08 3.2285010e-07 6.2322511e-07 
6.6363185e-08 -2.7955812e-08 5.4923993e-07 
7.2812490e-08 -2.5296492e-07 8.2989466e-08 
-3.1074588e-08 1.1784984e-08 -9.0075758e-08 
-1.3703952e-08 1.5262607e-07 1.9966814e-08 
-1.8355591e-08 -1.5428745e-09 4.4167930e-08 
-5.8963774e-08 -7.9874070e-08 -6.3365150e-08 
-3.1682887e-08 -2.3244054e-08 -7.1947866e-08 
0.0000000e+00 4.6667359e-05 0.0000000e+00 
0.0000000e+00 8.0358797e-05 0.0000000e+00 
0.0000000e+00 6.4877197e-05 0.0000000e+00 
0.0000000e+00 -5.5988941e-05 0.0000000e+00 
0.0000000e+00 -2.0599812e-04 0.0000000e+00 
0.0000000e+00 -4.4149731e-04 0.0000000e+00 
0.0000000e+00 -6.0417381e-04 0.0000000e+00 
0.0000000e+00 -5.6462508e-04 0.0000000e+00 
0.0000000e+00 -4.9983343e-04 0.0000000e+00 
0.0000000e+00 -2.7622946e-04 0.0000000e+00 
0.0000000e+00 -8.8118679e-05 0.0000000e+00 
0.0000000e+00 -1.0288574e-05 0.0000000e+00 
0.0000000e+00 4.7781682e-06 0.0000000e+00 
0.0000000e+00 -1.4455435e-05 0.0000000e+00 
0.0000000e+00 8.3149071e-06 0.0000000e+00 
0.0000000e+00 1.0903260e-04 0.0000000e+00 
0.0000000e+00 1.4211914e-04 0.0000000e+00 
0.0000000e+00 1.2961602e-04 0.0000000e+00 
0.0000000e+00 1.4161952e-04 0.0000000e+00 
0.0000000e+00 1.4769593e-04 0.0000000e+00 
0.0000000e+00 1.2728768e-04 0.0000000e+00 
0.0000000e+00 9.4609044e-05 0.0000000e+00 
0.0000000e+00 6.3505402e-05 0.0000000e+00 
0.0000000e+00 -4.4050721e-05 0.0000000e+00 
0.0000000e+00 -2.8135741e-04 0.0000000e+00 
0.0000000e+00 -5.2781322e-04 0.0000000e+00 
0.0000000e+00 -6.5368402e-04 0.0000000e+00 
0.0000000e+00 -5.9598550e-04 0.0000000e+00 
0.0000000e+00 -4.6985457e-04 0.0000000e+00 
0.0000000e+00 -2.3741121e-04 0.0000000e+00 
0.0000000e+00 -7.3072857e-05 0.0000000e+00 
0.0000000e+00 1.0147241e-05 0.0000000e+00 
0.0000000e+00 2.8149787e-05 0.0000000e+00 
0.0000000e+00 -5.6307135e-06 0.0000000e+00 
0.0000000e+00 -1.5374349e-05 0.0000000e+00 
0.0000000e+00 6.4805948e-07 0.0000000e+00 
0.0000000e+00 5.6724816e-06 0.0000000e+00 
0.0000000e+00 7.9816328e-07 0.0000000e+00 
0.0000000e+00 2.6628186e-07 0.0000000e+00 
0.0000000e+00 -1.0669483e-07 0.0000000e+00 
0.0000000e+00 -7.5407002e-07 0.0000000e+00 
0.0000000e+00 -2.1002766e-07 0.0000000e+00 
0.0000000e+00 -6.6890760e-07 0.0000000e+00 
0.0000000e+00 9.2462237e-08 0.0000000e+00 
0.0000000e+00 4.2778512e-07 0.0000000e+00 
0.0000000e+00 4.7501226e-07 0.0000000e+00 
0.0000000e+00 -1.6463692e-07 0.0000000e+00 
0.0000000e+00 -1.1258992e-07 0.0000000e+00 
0.0000000e+00 -5.4126712e-08 0.0000000e+00 
9.0618187e-06 3.4470713e-07 -8.3977766e-06 
9.1053798e-06 -3.9579322e-06 -2.1084697e-06 
5.2828864e-06 -6.5812856e-06 -1.1224616e-05 
-4.3429609e-06 1.9564299e-05 -5.5663081e-06 
5.8580776e-09 -6.4439099e-08 -2.3671230e-08 
3.0831133e-09 -1.5194674e-07 -7.1043139e-08 
-7.0306960e-08 1.0567399e-07 4.5626763e-08 
3.4844236e-09 -1.0203661e-09 -6.0450283e-08 
6.8922136e-06 -1.5801941e-06 -1.6157104e-05 
2.4267953e-05 -9.1350539e-06 -1.5598494e-05 
4.1530224e-05 -1.3247864e-05 -1.9372845e-05 
4.4051198e-05 -1.4685788e-05 -2.2643682e-05 
3.9430506e-05 -2.0446632e-05 -2.0233241e-05 
3.8264130e-05 -2.1864480e-05 -1.7111643e-05 
4.2305022e-05 -1.1891215e-05 -2.4431581e-06 
2.4002991e-05 8.7928338e-06 1.7987742e-05 
1.8719154e-05 8.8160004e-06 3.0682611e-05 
2.0878821e-05 -1.2397139e-05 3.3530217e-05 
1.3534016e-05 -1.1460103e-05 1.6087119e-05 
1.2345826e-05 -2.3375389e-06 -3.4977000e-07 
1.1250613e-05 1.0046577e-05 2.1995329e-07 
1.1446501e-05 3.7510474e-06 1.1282640e-05 
-1.6171042e-06 1.3561970e-06 1.4641118e-05 
-6.1661221e-06 3.2949129e-06 8.0084362e-07 
-3.8624853e-07 -4.0937573e-07 -7.7249470e-06 
8.9895320e-06 -5.2538758e-06 -2.7958292e-06 
1.6791724e-05 -2.3138684e-07 -5.4388674e-06 
1.8302861e-05 -2.5122361e-05 -1.2049296e-05 