# vtk DataFile Version 4.0
vtk output
ASCII
DATASET UNSTRUCTURED_GRID
POINTS 1919 float
0.0000000e+00 0.0000000e+00 0.0000000e+00 
0.0000000e+00 0.0000000e+00 5.0000000e+01 
5.0000000e+00 0.0000000e+00 0.0000000e+00 
5.0000000e+00 0.0000000e+00 5.0000000e+01 
5.0000000e+00 1.0000000e+00 0.0000000e+00 
5.0000000e+00 1.0000000e+00 5.0000000e+01 
0.0000000e+00 1.0000000e+00 0.0000000e+00 
0.0000000e+00 1.0000000e+00 5.0000000e+01 
5.0000000e+00 2.0000000e+00 0.0000000e+00 
5.0000000e+00 2.0000000e+00 5.0000000e+01 
3.0000000e+00 2.0000000e+00 0.0000000e+00 
3.0000000e+00 2.0000000e+00 5.0000000e+01 
0.0000000e+00 2.0000000e+00 0.0000000e+00 
0.0000000e+00 2.0000000e+00 5.0000000e+01 
1.5000000e+00 3.0000000e+00 0.0000000e+00 
1.5000000e+00 3.0000000e+00 5.0000000e+01 
7.5000000e-01 3.0000000e+00 0.0000000e+00 
7.5000000e-01 3.0000000e+00 5.0000000e+01 
0.0000000e+00 3.0000000e+00 0.0000000e+00 
0.0000000e+00 3.0000000e+00 5.0000000e+01 
7.5000000e-01 3.0000000e+00 5.0000000e-01 
7.5000000e-01 3.0000000e+00 1.0000000e+00 
7.5000000e-01 3.0000000e+00 1.5000000e+00 
7.5000000e-01 3.0000000e+00 2.0000000e+00 
7.5000000e-01 3.0000000e+00 2.5000000e+00 
7.5000000e-01 3.0000000e+00 3.0000000e+00 
7.5000000e-01 3.0000000e+00 3.5000000e+00 
7.5000000e-01 3.0000000e+00 4.0000000e+00 
7.5000000e-01 3.0000000e+00 4.5000000e+00 
7.5000000e-01 3.0000000e+00 5.0000000e+00 
7.5000000e-01 3.0000000e+00 5.5000000e+00 
7.5000000e-01 3.0000000e+00 6.0000000e+00 
7.5000000e-01 3.0000000e+00 6.5000000e+00 
7.5000000e-01 3.0000000e+00 7.0000000e+00 
7.5000000e-01 3.0000000e+00 7.5000000e+00 
7.5000000e-01 3.0000000e+00 8.0000000e+00 
7.5000000e-01 3.0000000e+00 8.5000000e+00 
7.5000000e-01 3.0000000e+00 9.0000000e+00 
7.5000000e-01 3.0000000e+00 9.5000000e+00 
7.5000000e-01 3.0000000e+00 1.0000000e+01 
7.5000000e-01 3.0000000e+00 1.0500000e+01 
7.5000000e-01 3.0000000e+00 1.1000000e+01 
7.5000000e-01 3.0000000e+00 1.1500000e+01 
7.5000000e-01 3.0000000e+00 1.2000000e+01 
7.5000000e-01 3.0000000e+00 1.2500000e+01 
7.5000000e-01 3.0000000e+00 1.3000000e+01 
7.5000000e-01 3.0000000e+00 1.3500000e+01 
7.5000000e-01 3.0000000e+00 1.4000000e+01 
7.5000000e-01 3.0000000e+00 1.4500000e+01 
7.5000000e-01 3.0000000e+00 1.5000000e+01 
7.5000000e-01 3.0000000e+00 1.5500000e+01 
7.5000000e-01 3.0000000e+00 1.6000000e+01 
7.5000000e-01 3.0000000e+00 1.6500000e+01 
7.5000000e-01 3.0000000e+00 1.7000000e+01 
7.5000000e-01 3.0000000e+00 1.7500000e+01 
7.5000000e-01 3.0000000e+00 1.8000000e+01 
7.5000000e-01 3.0000000e+00 1.8500000e+01 
7.5000000e-01 3.0000000e+00 1.9000000e+01 
7.5000000e-01 3.0000000e+00 1.9500000e+01 
7.5000000e-01 3.0000000e+00 2.0000000e+01 
7.5000000e-01 3.0000000e+00 2.0500000e+01 
7.5000000e-01 3.0000000e+00 2.1000000e+01 
7.5000000e-01 3.0000000e+00 2.1500000e+01 
7.5000000e-01 3.0000000e+00 2.2000000e+01 
7.5000000e-01 3.0000000e+00 2.2500000e+01 
7.5000000e-01 3.0000000e+00 2.3000000e+01 
7.5000000e-01 3.0000000e+00 2.3500000e+01 
7.5000000e-01 3.0000000e+00 2.4000000e+01 
7.5000000e-01 3.0000000e+00 2.4500000e+01 
7.5000000e-01 3.0000000e+00 2.5000000e+01 
7.5000000e-01 3.0000000e+00 2.5500000e+01 
7.5000000e-01 3.0000000e+00 2.6000000e+01 
7.5000000e-01 3.0000000e+00 2.6500000e+01 
7.5000000e-01 3.0000000e+00 2.7000000e+01 
7.5000000e-01 3.0000000e+00 2.7500000e+01 
7.5000000e-01 3.0000000e+00 2.8000000e+01 
7.5000000e-01 3.0000000e+00 2.8500000e+01 
7.5000000e-01 3.0000000e+00 2.9000000e+01 
7.5000000e-01 3.0000000e+00 2.9500000e+01 
7.5000000e-01 3.0000000e+00 3.0000000e+01 
7.5000000e-01 3.0000000e+00 3.0500000e+01 
7.5000000e-01 3.0000000e+00 3.1000000e+01 
7.5000000e-01 3.0000000e+00 3.1500000e+01 
7.5000000e-01 3.0000000e+00 3.2000000e+01 
7.5000000e-01 3.0000000e+00 3.2500000e+01 
7.5000000e-01 3.0000000e+00 3.3000000e+01 
7.5000000e-01 3.0000000e+00 3.3500000e+01 
7.5000000e-01 3.0000000e+00 3.4000000e+01 
7.5000000e-01 3.0000000e+00 3.4500000e+01 
7.5000000e-01 3.0000000e+00 3.5000000e+01 
7.5000000e-01 3.0000000e+00 3.5500000e+01 
7.5000000e-01 3.0000000e+00 3.6000000e+01 
7.5000000e-01 3.0000000e+00 3.6500000e+01 
7.5000000e-01 3.0000000e+00 3.7000000e+01 
7.5000000e-01 3.0000000e+00 3.7500000e+01 
7.5000000e-01 3.0000000e+00 3.8000000e+01 
7.5000000e-01 3.0000000e+00 3.8500000e+01 
7.5000000e-01 3.0000000e+00 3.9000000e+01 
7.5000000e-01 3.0000000e+00 3.9500000e+01 
7.5000000e-01 3.0000000e+00 4.0000000e+01 
7.5000000e-01 3.0000000e+00 4.0500000e+01 
7.5000000e-01 3.0000000e+00 4.1000000e+01 
7.5000000e-01 3.0000000e+00 4.1500000e+01 
7.5000000e-01 3.0000000e+00 4.2000000e+01 
7.5000000e-01 3.0000000e+00 4.2500000e+01 
7.5000000e-01 3.0000000e+00 4.3000000e+01 
7.5000000e-01 3.0000000e+00 4.3500000e+01 
7.5000000e-01 3.0000000e+00 4.4000000e+01 
7.5000000e-01 3.0000000e+00 4.4500000e+01 
7.5000000e-01 3.0000000e+00 4.5000000e+01 
7.5000000e-01 3.0000000e+00 4.5500000e+01 
7.5000000e-01 3.0000000e+00 4.6000000e+01 
7.5000000e-01 3.0000000e+00 4.6500000e+01 
7.5000000e-01 3.0000000e+00 4.7000000e+01 
7.5000000e-01 3.0000000e+00 4.7500000e+01 
7.5000000e-01 3.0000000e+00 4.8000000e+01 
7.5000000e-01 3.0000000e+00 4.8500000e+01 
7.5000000e-01 3.0000000e+00 4.9000000e+01 
7.5000000e-01 3.0000000e+00 4.9500000e+01 
7.5000000e-01 3.0250001e+00 0.0000000e+00 
7.5000000e-01 3.0250001e+00 5.0000000e-01 
7.5000000e-01 3.0250001e+00 1.0000000e+00 
7.5000000e-01 3.0250001e+00 1.5000000e+00 
7.5000000e-01 3.0250001e+00 2.0000000e+00 
7.5000000e-01 3.0250001e+00 2.5000000e+00 
7.5000000e-01 3.0250001e+00 3.0000000e+00 
7.5000000e-01 3.0250001e+00 3.5000000e+00 
7.5000000e-01 3.0250001e+00 4.0000000e+00 
7.5000000e-01 3.0250001e+00 4.5000000e+00 
7.5000000e-01 3.0250001e+00 5.0000000e+00 
7.5000000e-01 3.0250001e+00 5.5000000e+00 
7.5000000e-01 3.0250001e+00 6.0000000e+00 
7.5000000e-01 3.0250001e+00 6.5000000e+00 
7.5000000e-01 3.0250001e+00 7.0000000e+00 
7.5000000e-01 3.0250001e+00 7.5000000e+00 
7.5000000e-01 3.0250001e+00 8.0000000e+00 
7.5000000e-01 3.0250001e+00 8.5000000e+00 
7.5000000e-01 3.0250001e+00 9.0000000e+00 
7.5000000e-01 3.0250001e+00 9.5000000e+00 
7.5000000e-01 3.0250001e+00 1.0000000e+01 
7.5000000e-01 3.0250001e+00 1.0500000e+01 
7.5000000e-01 3.0250001e+00 1.1000000e+01 
7.5000000e-01 3.0250001e+00 1.1500000e+01 
7.5000000e-01 3.0250001e+00 1.2000000e+01 
7.5000000e-01 3.0250001e+00 1.2500000e+01 
7.5000000e-01 3.0250001e+00 1.3000000e+01 
7.5000000e-01 3.0250001e+00 1.3500000e+01 
7.5000000e-01 3.0250001e+00 1.4000000e+01 
7.5000000e-01 3.0250001e+00 1.4500000e+01 
7.5000000e-01 3.0250001e+00 1.5000000e+01 
7.5000000e-01 3.0250001e+00 1.5500000e+01 
7.5000000e-01 3.0250001e+00 1.6000000e+01 
7.5000000e-01 3.0250001e+00 1.6500000e+01 
7.5000000e-01 3.0250001e+00 1.7000000e+01 
7.5000000e-01 3.0250001e+00 1.7500000e+01 
7.5000000e-01 3.0250001e+00 1.8000000e+01 
7.5000000e-01 3.0250001e+00 1.8500000e+01 
7.5000000e-01 3.0250001e+00 1.9000000e+01 
7.5000000e-01 3.0250001e+00 1.9500000e+01 
7.5000000e-01 3.0250001e+00 2.0000000e+01 
7.5000000e-01 3.0250001e+00 2.0500000e+01 
7.5000000e-01 3.0250001e+00 2.1000000e+01 
7.5000000e-01 3.0250001e+00 2.1500000e+01 
7.5000000e-01 3.0250001e+00 2.2000000e+01 
7.5000000e-01 3.0250001e+00 2.2500000e+01 
7.5000000e-01 3.0250001e+00 2.3000000e+01 
7.5000000e-01 3.0250001e+00 2.3500000e+01 
7.5000000e-01 3.0250001e+00 2.4000000e+01 
7.5000000e-01 3.0250001e+00 2.4500000e+01 
7.5000000e-01 3.0250001e+00 2.5000000e+01 
7.5000000e-01 3.0250001e+00 2.5500000e+01 
7.5000000e-01 3.0250001e+00 2.6000000e+01 
7.5000000e-01 3.0250001e+00 2.6500000e+01 
7.5000000e-01 3.0250001e+00 2.7000000e+01 
7.5000000e-01 3.0250001e+00 2.7500000e+01 
7.5000000e-01 3.0250001e+00 2.8000000e+01 
7.5000000e-01 3.0250001e+00 2.8500000e+01 
7.5000000e-01 3.0250001e+00 2.9000000e+01 
7.5000000e-01 3.0250001e+00 2.9500000e+01 
7.5000000e-01 3.0250001e+00 3.0000000e+01 
7.5000000e-01 3.0250001e+00 3.0500000e+01 
7.5000000e-01 3.0250001e+00 3.1000000e+01 
7.5000000e-01 3.0250001e+00 3.1500000e+01 
7.5000000e-01 3.0250001e+00 3.2000000e+01 
7.5000000e-01 3.0250001e+00 3.2500000e+01 
7.5000000e-01 3.0250001e+00 3.3000000e+01 
7.5000000e-01 3.0250001e+00 3.3500000e+01 
7.5000000e-01 3.0250001e+00 3.4000000e+01 
7.5000000e-01 3.0250001e+00 3.4500000e+01 
7.5000000e-01 3.0250001e+00 3.5000000e+01 
7.5000000e-01 3.0250001e+00 3.5500000e+01 
7.5000000e-01 3.0250001e+00 3.6000000e+01 
7.5000000e-01 3.0250001e+00 3.6500000e+01 
7.5000000e-01 3.0250001e+00 3.7000000e+01 
7.5000000e-01 3.0250001e+00 3.7500000e+01 
7.5000000e-01 3.0250001e+00 3.8000000e+01 
7.5000000e-01 3.0250001e+00 3.8500000e+01 
7.5000000e-01 3.0250001e+00 3.9000000e+01 
7.5000000e-01 3.0250001e+00 3.9500000e+01 
7.5000000e-01 3.0250001e+00 4.0000000e+01 
7.5000000e-01 3.0250001e+00 4.0500000e+01 
7.5000000e-01 3.0250001e+00 4.1000000e+01 
7.5000000e-01 3.0250001e+00 4.1500000e+01 
7.5000000e-01 3.0250001e+00 4.2000000e+01 
7.5000000e-01 3.0250001e+00 4.2500000e+01 
7.5000000e-01 3.0250001e+00 4.3000000e+01 
7.5000000e-01 3.0250001e+00 4.3500000e+01 
7.5000000e-01 3.0250001e+00 4.4000000e+01 
7.5000000e-01 3.0250001e+00 4.4500000e+01 
7.5000000e-01 3.0250001e+00 4.5000000e+01 
7.5000000e-01 3.0250001e+00 4.5500000e+01 
7.5000000e-01 3.0250001e+00 4.6000000e+01 
7.5000000e-01 3.0250001e+00 4.6500000e+01 
7.5000000e-01 3.0250001e+00 4.7000000e+01 
7.5000000e-01 3.0250001e+00 4.7500000e+01 
7.5000000e-01 3.0250001e+00 4.8000000e+01 
7.5000000e-01 3.0250001e+00 4.8500000e+01 
7.5000000e-01 3.0250001e+00 4.9000000e+01 
7.5000000e-01 3.0250001e+00 4.9500000e+01 
7.5000000e-01 3.0250001e+00 5.0000000e+01 
3.0000000e+00 2.0000000e+00 3.6000000e+01 
8.0487806e-01 3.0000000e+00 3.6000000e+01 
0.0000000e+00 0.0000000e+00 1.0000000e+00 
0.0000000e+00 0.0000000e+00 2.0000000e+00 
0.0000000e+00 0.0000000e+00 3.0000000e+00 
0.0000000e+00 0.0000000e+00 4.0000000e+00 
0.0000000e+00 0.0000000e+00 5.0000000e+00 
0.0000000e+00 0.0000000e+00 6.0000000e+00 
0.0000000e+00 0.0000000e+00 7.0000000e+00 
0.0000000e+00 0.0000000e+00 8.0000000e+00 
[...]
POINT_DATA 1919
FIELD FieldData 3
DISPLACEMENT 3 1919  float
0.0000000e+00 0.0000000e+00 0.0000000e+00 
0.0000000e+00 0.0000000e+00 0.0000000e+00 
0.0000000e+00 0.0000000e+00 0.0000000e+00 
0.0000000e+00 0.0000000e+00 0.0000000e+00 
-3.4416742e-06 -2.5174159e-06 -1.6793143e-06 
5.9757397e-08 3.5772857e-08 2.3619022e-07 
0.0000000e+00 3.8718149e-06 0.0000000e+00 
0.0000000e+00 4.4880477e-07 0.0000000e+00 
6.1689855e-07 -1.7119061e-07 -5.3235112e-07 
2.5290097e-08 1.6429318e-07 1.8266030e-07 
-2.9992125e-06 -6.2852669e-06 7.9758377e-07 
-3.5538392e-08 -2.3435042e-07 6.5053757e-07 
0.0000000e+00 -1.5671725e-05 0.0000000e+00 
0.0000000e+00 6.7453294e-07 0.0000000e+00 
-3.5249537e-05 -5.4396849e-05 1.0339098e-05 
-3.2369550e-07 1.0297089e-06 -1.9817403e-06 
-9.2065711e-06 -7.5550335e-05 7.7024896e-07 
1.2315392e-06 -1.4509259e-06 -2.0145014e-06 
0.0000000e+00 -2.9454231e-05 0.0000000e+00 
0.0000000e+00 1.1921610e-06 0.0000000e+00 
-1.1556664e-05 -7.7106699e-05 1.8732668e-05 
-1.4503786e-05 -8.3105740e-05 2.1630185e-05 
-2.4915642e-05 -8.9278619e-05 1.2845384e-05 
-1.7768050e-05 -8.7032226e-05 6.9198932e-06 
-1.6143213e-05 -7.4436852e-05 -2.1892786e-06 
-2.9698649e-05 -5.9224421e-05 -1.2425773e-05 
-2.7640652e-05 -5.3891745e-05 -8.3061477e-06 
-1.6820018e-06 -6.6530942e-05 -5.1169741e-06 
-3.2209748e-05 -8.3961022e-05 -1.3633316e-05 
-5.4069060e-05 -8.7022658e-05 -4.2621382e-06 
-3.3095286e-05 -6.5850043e-05 -2.6273258e-06 
-3.6860751e-05 -3.2878153e-05 -1.3189092e-05 
-3.6403602e-05 -5.0179267e-05 8.8766492e-06 
-2.8610806e-05 -2.3091178e-04 2.5918711e-05 
-3.3812135e-05 -6.6461181e-04 1.1530902e-04 
-7.6910721e-05 -1.3728669e-03 1.1150703e-04 
-1.4060939e-04 -2.3262624e-03 2.1687195e-04 
-2.1024294e-04 -3.3889252e-03 8.3947954e-05 
-2.6366595e-04 -4.3445462e-03 1.8662329e-04 
-2.9695939e-04 -4.7867228e-03 4.5727658e-05 
-3.0699544e-04 -4.7094678e-03 -1.3488203e-05 
-3.4319356e-04 -4.5916555e-03 -6.4438871e-05 
-3.2437078e-04 -4.7182427e-03 -8.6321023e-05 
-3.2067604e-04 -4.8287525e-03 -1.5109387e-04 
-2.6642220e-04 -4.4764751e-03 -2.1339190e-04 
-1.8643252e-04 -3.4587809e-03 -9.6295000e-05 
-1.3965085e-04 -2.3026885e-03 -1.8533853e-04 
-7.7522847e-05 -1.3301527e-03 -9.7407363e-05 
-4.7622121e-05 -6.4055342e-04 -1.4758027e-04 
-3.0996074e-05 -2.0451803e-04 -8.1728213e-05 
-5.6514009e-06 3.2976350e-05 -8.9074703e-05 
5.0890139e-06 1.3286447e-04 -3.1014413e-05 
2.9112860e-05 1.5742220e-04 1.5494554e-05 
1.6937527e-05 1.5910629e-04 5.2139974e-05 
3.7211080e-06 1.6729432e-04 4.0074869e-05 
-5.6983749e-06 1.7953213e-04 8.2179322e-06 
9.3873941e-06 1.8699939e-04 -2.5059153e-05 
2.4046874e-05 1.8885589e-04 -4.1800271e-05 
6.4170286e-05 1.9023572e-04 -3.9978062e-05 
6.9733396e-05 1.9601066e-04 -2.4045579e-05 
5.3407904e-05 1.9776251e-04 2.4956333e-05 
5.3668951e-05 1.7982606e-04 5.7165027e-05 
3.8486807e-05 1.3465510e-04 7.7653196e-05 
2.5053558e-05 7.4787691e-05 8.0577833e-05 
1.9499734e-05 2.5893471e-05 6.6097331e-05 
2.0964175e-05 1.2421341e-05 4.6059362e-05 
3.0329702e-06 2.8549957e-05 4.2489446e-05 
4.1059934e-06 4.0354611e-05 3.9721279e-05 
6.4409314e-06 2.2293216e-05 4.2694741e-05 
2.4045296e-08 -2.6181649e-05 5.5002100e-05 
-9.9127974e-06 -8.1558821e-05 3.8887974e-05 
-1.9927396e-05 -1.2516088e-04 3.1529649e-05 
-3.9812814e-05 -1.8405386e-04 4.9154973e-05 
-6.7672838e-05 -3.4819165e-04 2.8838873e-05 
-9.8400946e-05 -7.4167270e-04 9.6655320e-05 
-1.4133999e-04 -1.4629365e-03 4.3510572e-05 
-2.0212847e-04 -2.4988458e-03 1.3278215e-04 
-2.9398067e-04 -3.6331597e-03 -9.3194176e-06 
-3.3279683e-04 -4.5165750e-03 4.8898684e-05 
-3.6461529e-04 -4.7111749e-03 -6.6346816e-05 
-3.5846749e-04 -4.5697447e-03 -1.3460427e-04 
-3.3189493e-04 -4.5364494e-03 -1.3166005e-04 
-2.8867318e-04 -4.7510206e-03 -1.5400394e-04 
-3.0134828e-04 -4.8032319e-03 -1.9419647e-04 
-2.6982775e-04 -4.2236401e-03 -2.6098653e-04 
-1.8799910e-04 -3.1196112e-03 -1.3212606e-04 
-1.3043459e-04 -1.9981349e-03 -2.1360691e-04 
-3.9502145e-05 -1.0829110e-03 -3.5877147e-05 
-1.6267315e-05 -4.5585452e-04 -1.9791671e-05 
-1.7252905e-05 -8.8768575e-05 2.7072050e-05 
-2.7434748e-05 7.2144991e-05 1.7127293e-05 
-2.7525664e-05 1.0674309e-04 1.6664251e-05 
-3.4715296e-05 9.4438867e-05 1.4751163e-05 
-3.7493020e-05 7.4175063e-05 1.2267247e-05 
-1.5063745e-05 5.8807222e-05 -1.7630788e-06 
-8.4393769e-06 4.7108464e-05 -3.5819485e-05 
-7.5467483e-06 4.0772127e-05 -6.8889785e-05 
3.0920628e-06 4.1376104e-05 -7.8646888e-05 
1.4285778e-05 4.6759804e-05 -6.2920910e-05 
1.8198114e-05 4.8208647e-05 -3.2183601e-05 
2.2587961e-05 3.6210291e-05 4.8839329e-06 
9.8603559e-06 1.3393656e-05 2.7056083e-05 
-3.5922087e-06 -1.1275250e-05 3.4260764e-05 
-6.5849067e-06 -2.8563851e-05 2.2494702e-05 
-1.1448145e-05 -3.3635060e-05 8.4356816e-06 
-7.7845780e-06 -2.8906774e-05 -2.8886420e-06 
-4.0500145e-06 -1.8692341e-05 -1.1462074e-05 
-2.5797603e-06 -7.6656816e-06 -1.5015494e-05 
3.9696879e-06 1.4036714e-06 -7.0688766e-06 
4.4322901e-06 6.8990971e-06 -2.3965958e-06 
4.8047032e-06 8.4886433e-06 1.6725663e-06 
3.7059797e-06 7.0386118e-06 3.1968877e-06 
1.6576270e-06 3.9825941e-06 4.6758432e-06 
6.5372795e-08 1.0883045e-06 5.1647057e-06 
-1.8344338e-06 -5.0834473e-07 3.8902431e-06 
-2.0351583e-06 -9.6064821e-07 2.0590394e-06 
-1.7857448e-06 -9.3091626e-07 7.5320213e-07 
-1.4418862e-06 -1.0085495e-06 -7.9343346e-07 
-8.9626474e-07 -1.2827545e-06 -1.5232629e-06 
0.0000000e+00 -7.5050681e-05 0.0000000e+00 
0.0000000e+00 -7.7181445e-05 0.0000000e+00 
0.0000000e+00 -8.3634593e-05 0.0000000e+00 
0.0000000e+00 -8.9627654e-05 0.0000000e+00 
0.0000000e+00 -8.7108558e-05 0.0000000e+00 
0.0000000e+00 -7.3951931e-05 0.0000000e+00 
0.0000000e+00 -5.8605132e-05 0.0000000e+00 
0.0000000e+00 -5.4488570e-05 0.0000000e+00 
0.0000000e+00 -6.7126297e-05 0.0000000e+00 
0.0000000e+00 -8.4137740e-05 0.0000000e+00 
0.0000000e+00 -8.6503904e-05 0.0000000e+00 
0.0000000e+00 -6.3456217e-05 0.0000000e+00 
0.0000000e+00 -2.9626246e-05 0.0000000e+00 
0.0000000e+00 -5.0185921e-05 0.0000000e+00 
0.0000000e+00 -2.3373929e-04 0.0000000e+00 
0.0000000e+00 -6.6839915e-04 0.0000000e+00 
0.0000000e+00 -1.3798517e-03 0.0000000e+00 
0.0000000e+00 -2.3314545e-03 0.0000000e+00 
0.0000000e+00 -3.4060555e-03 0.0000000e+00 
0.0000000e+00 -4.3674768e-03 0.0000000e+00 
0.0000000e+00 -4.8200637e-03 0.0000000e+00 
0.0000000e+00 -4.7336342e-03 0.0000000e+00 
0.0000000e+00 -4.6195113e-03 0.0000000e+00 
0.0000000e+00 -4.7361874e-03 0.0000000e+00 
0.0000000e+00 -4.8588063e-03 0.0000000e+00 
0.0000000e+00 -4.4973530e-03 0.0000000e+00 
0.0000000e+00 -3.4811143e-03 0.0000000e+00 
0.0000000e+00 -2.3134158e-03 0.0000000e+00 
0.0000000e+00 -1.3355691e-03 0.0000000e+00 
0.0000000e+00 -6.4170326e-04 0.0000000e+00 
0.0000000e+00 -2.0508294e-04 0.0000000e+00 
0.0000000e+00 3.2737422e-05 0.0000000e+00 
0.0000000e+00 1.3356849e-04 0.0000000e+00 
0.0000000e+00 1.5895559e-04 0.0000000e+00 
0.0000000e+00 1.6089449e-04 0.0000000e+00 
0.0000000e+00 1.6758670e-04 0.0000000e+00 
0.0000000e+00 1.7898377e-04 0.0000000e+00 
0.0000000e+00 1.8658373e-04 0.0000000e+00 
0.0000000e+00 1.8887449e-04 0.0000000e+00 
0.0000000e+00 1.9097386e-04 0.0000000e+00 
0.0000000e+00 1.9651138e-04 0.0000000e+00 
0.0000000e+00 1.9759663e-04 0.0000000e+00 
0.0000000e+00 1.7904959e-04 0.0000000e+00 
0.0000000e+00 1.3394959e-04 0.0000000e+00 
0.0000000e+00 7.4587624e-05 0.0000000e+00 
0.0000000e+00 2.7228703e-05 0.0000000e+00 
0.0000000e+00 1.4015607e-05 0.0000000e+00 
0.0000000e+00 2.8676874e-05 0.0000000e+00 
0.0000000e+00 3.9460927e-05 0.0000000e+00 
0.0000000e+00 2.0898466e-05 0.0000000e+00 
0.0000000e+00 -2.6397609e-05 0.0000000e+00 
0.0000000e+00 -7.9721845e-05 0.0000000e+00 
0.0000000e+00 -1.2211689e-04 0.0000000e+00 
0.0000000e+00 -1.8170071e-04 0.0000000e+00 
0.0000000e+00 -3.4850696e-04 0.0000000e+00 
0.0000000e+00 -7.4706326e-04 0.0000000e+00 
0.0000000e+00 -1.4738959e-03 0.0000000e+00 
0.0000000e+00 -2.5079665e-03 0.0000000e+00 
0.0000000e+00 -3.6518981e-03 0.0000000e+00 
0.0000000e+00 -4.5344732e-03 0.0000000e+00 
0.0000000e+00 -4.7433483e-03 0.0000000e+00 
0.0000000e+00 -4.5924108e-03 0.0000000e+00 
0.0000000e+00 -4.5651202e-03 0.0000000e+00 
0.0000000e+00 -4.7695935e-03 0.0000000e+00 
0.0000000e+00 -4.8337933e-03 0.0000000e+00 
0.0000000e+00 -4.2431504e-03 0.0000000e+00 
0.0000000e+00 -3.1392646e-03 0.0000000e+00 
0.0000000e+00 -2.0049221e-03 0.0000000e+00 
0.0000000e+00 -1.0882225e-03 0.0000000e+00 
0.0000000e+00 -4.5733881e-04 0.0000000e+00 
0.0000000e+00 -8.9668472e-05 0.0000000e+00 
0.0000000e+00 7.2793038e-05 0.0000000e+00 
0.0000000e+00 1.0907115e-04 0.0000000e+00 
0.0000000e+00 9.5667521e-05 0.0000000e+00 
0.0000000e+00 7.4567601e-05 0.0000000e+00 
0.0000000e+00 5.8620280e-05 0.0000000e+00 
0.0000000e+00 4.7319441e-05 0.0000000e+00 
0.0000000e+00 4.1105908e-05 0.0000000e+00 
0.0000000e+00 4.1615138e-05 0.0000000e+00 
0.0000000e+00 4.6629917e-05 0.0000000e+00 
0.0000000e+00 4.7540707e-05 0.0000000e+00 
0.0000000e+00 3.5975190e-05 0.0000000e+00 
0.0000000e+00 1.3512091e-05 0.0000000e+00 
0.0000000e+00 -1.1020348e-05 0.0000000e+00 
0.0000000e+00 -2.8248031e-05 0.0000000e+00 
0.0000000e+00 -3.3587174e-05 0.0000000e+00 
0.0000000e+00 -2.8914228e-05 0.0000000e+00 
0.0000000e+00 -1.8778490e-05 0.0000000e+00 
0.0000000e+00 -7.7244222e-06 0.0000000e+00 
0.0000000e+00 1.3196568e-06 0.0000000e+00 
0.0000000e+00 6.8226345e-06 0.0000000e+00 
0.0000000e+00 8.4707708e-06 0.0000000e+00 
0.0000000e+00 7.0488363e-06 0.0000000e+00 
0.0000000e+00 4.0298655e-06 0.0000000e+00 
0.0000000e+00 1.1475332e-06 0.0000000e+00 
0.0000000e+00 -5.0049465e-07 0.0000000e+00 
0.0000000e+00 -9.7318673e-07 0.0000000e+00 
0.0000000e+00 -9.4650113e-07 0.0000000e+00 
0.0000000e+00 -1.0178227e-06 0.0000000e+00 
0.0000000e+00 -1.2829065e-06 0.0000000e+00 
0.0000000e+00 -1.4446705e-06 0.0000000e+00 
1.1168155e-05 -1.0165608e-05 3.4969285e-05 
-2.7094544e-05 7.3567469e-05 2.0080402e-05 
0.0000000e+00 0.0000000e+00 0.0000000e+00 
0.0000000e+00 0.0000000e+00 0.0000000e+00 
0.0000000e+00 0.0000000e+00 0.0000000e+00 
0.0000000e+00 0.0000000e+00 0.0000000e+00 
0.0000000e+00 0.0000000e+00 0.0000000e+00 
0.0000000e+00 0.0000000e+00 0.0000000e+00 
0.0000000e+00 0.0000000e+00 0.0000000e+00 
0.0000000e+00 0.0000000e+00 0.0000000e+00 
0.0000000e+00 0.0000000e+00 0.0000000e+00 
0.0000000e+00 0.0000000e+00 0.0000000e+00 
0.0000000e+00 0.0000000e+00 0.0000000e+00 
0.0000000e+00 0.0000000e+00 0.0000000e+00 
0.0000000e+00 0.0000000e+00 0.0000000e+00 
0.0000000e+00 0.0000000e+00 0.0000000e+00 
0.0000000e+00 0.0000000e+00 0.0000000e+00 
0.0000000e+00 0.0000000e+00 0.0000000e+00 
0.0000000e+00 0.0000000e+00 0.0000000e+00 
0.0000000e+00 0.0000000e+00 0.0000000e+00 
0.0000000e+00 0.0000000e+00 0.0000000e+00 
0.0000000e+00 0.0000000e+00 0.0000000e+00 
0.0000000e+00 0.0000000e+00 0.0000000e+00 
0.0000000e+00 0.0000000e+00 0.0000000e+00 
0.0000000e+00 0.0000000e+00 0.0000000e+00 
0.0000000e+00 0.0000000e+00 0.0000000e+00 
0.0000000e+00 0.0000000e+00 0.0000000e+00 
0.0000000e+00 0.0000000e+00 0.0000000e+00 
0.0000000e+00 0.0000000e+00 0.0000000e+00 
0.0000000e+00 0.0000000e+00 0.0000000e+00 
0.0000000e+00 0.0000000e+00 0.0000000e+00 
0.0000000e+00 0.0000000e+00 0.0000000e+00 
0.0000000e+00 0.0000000e+00 0.0000000e+00 
0.0000000e+00 0.0000000e+00 0.0000000e+00 
0.0000000e+00 0.0000000e+00 0.0000000e+00 
0.0000000e+00 0.0000000e+00 0.0000000e+00 
0.0000000e+00 0.0000000e+00 0.0000000e+00 
0.0000000e+00 0.0000000e+00 0.0000000e+00 
0.0000000e+00 0.0000000e+00 0.0000000e+00 
0.0000000e+00 0.0000000e+00 0.0000000e+00 
0.0000000e+00 0.0000000e+00 0.0000000e+00 
0.0000000e+00 0.0000000e+00 0.0000000e+00 
0.0000000e+00 0.0000000e+00 0.0000000e+00 
0.0000000e+00 0.0000000e+00 0.0000000e+00 
0.0000000e+00 0.0000000e+00 0.0000000e+00 
0.0000000e+00 0.0000000e+00 0.0000000e+00 
0.0000000e+00 0.0000000e+00 0.0000000e+00 
0.0000000e+00 0.0000000e+00 0.0000000e+00 
0.0000000e+00 0.0000000e+00 0.0000000e+00 
0.0000000e+00 0.0000000e+00 0.0000000e+00 
0.0000000e+00 0.0000000e+00 0.0000000e+00 
0.0000000e+00 0.0000000e+00 0.0000000e+00 
0.0000000e+00 0.0000000e+00 0.0000000e+00 
0.0000000e+00 0.0000000e+00 0.0000000e+00 
0.0000000e+00 0.0000000e+00 0.0000000e+00 
0.0000000e+00 0.0000000e+00 0.0000000e+00 
0.0000000e+00 0.0000000e+00 0.0000000e+00 
0.0000000e+00 0.0000000e+00 0.0000000e+00 
0.0000000e+00 0.0000000e+00 0.0000000e+00 
0.0000000e+00 0.0000000e+00 0.0000000e+00 
0.0000000e+00 0.0000000e+00 0.0000000e+00 
0.0000000e+00 0.0000000e+00 0.0000000e+00 
0.0000000e+00 0.0000000e+00 0.0000000e+00 
0.0000000e+00 0.0000000e+00 0.0000000e+00 
0.0000000e+00 0.0000000e+00 0.0000000e+00 
0.0000000e+00 0.0000000e+00 0.0000000e+00 
0.0000000e+00 0.0000000e+00 0.0000000e+00 
0.0000000e+00 0.0000000e+00 0.0000000e+00 
0.0000000e+00 0.0000000e+00 0.0000000e+00 
0.0000000e+00 0.0000000e+00 0.0000000e+00 
0.0000000e+00 0.0000000e+00 0.0000000e+00 
0.0000000e+00 0.0000000e+00 0.0000000e+00 
0.0000000e+00 0.0000000e+00 0.0000000e+00 
0.0000000e+00 0.0000000e+00 0.0000000e+00 
0.0000000e+00 0.0000000e+00 0.0000000e+00 
0.0000000e+00 0.0000000e+00 0.0000000e+00 
0.0000000e+00 0.0000000e+00 0.0000000e+00 
0.0000000e+00 0.0000000e+00 0.0000000e+00 
0.0000000e+00 0.0000000e+00 0.0000000e+00 
0.0000000e+00 0.0000000e+00 0.0000000e+00 
0.0000000e+00 0.0000000e+00 0.0000000e+00 
0.0000000e+00 0.0000000e+00 0.0000000e+00 
0.0000000e+00 0.0000000e+00 0.0000000e+00 
0.0000000e+00 0.0000000e+00 0.0000000e+00 
0.0000000e+00 0.0000000e+00 0.0000000e+00 
0.0000000e+00 0.0000000e+00 0.0000000e+00 
0.0000000e+00 0.0000000e+00 0.0000000e+00 
0.0000000e+00 0.0000000e+00 0.0000000e+00 
0.0000000e+00 0.0000000e+00 0.0000000e+00 
0.0000000e+00 0.0000000e+00 0.0000000e+00 
0.0000000e+00 0.0000000e+00 0.0000000e+00 
0.0000000e+00 0.0000000e+00 0.0000000e+00 
0.0000000e+00 0.0000000e+00 0.0000000e+00 
0.0000000e+00 0.0000000e+00 0.0000000e+00 
0.0000000e+00 0.0000000e+00 0.0000000e+00 
0.0000000e+00 0.0000000e+00 0.0000000e+00 
0.0000000e+00 0.0000000e+00 0.0000000e+00 
0.0000000e+00 0.0000000e+00 0.0000000e+00 
0.0000000e+00 0.0000000e+00 0.0000000e+00 
0.0000000e+00 0.0000000e+00 0.0000000e+00 
0.0000000e+00 0.0000000e+00 0.0000000e+00 
0.0000000e+00 0.0000000e+00 0.0000000e+00 
0.0000000e+00 0.0000000e+00 0.0000000e+00 
0.0000000e+00 0.0000000e+00 0.0000000e+00 
0.0000000e+00 0.0000000e+00 0.0000000e+00 
0.0000000e+00 0.0000000e+00 0.0000000e+00 
0.0000000e+00 0.0000000e+00 0.0000000e+00 
0.0000000e+00 0.0000000e+00 0.0000000e+00 
5.2866415e-08 2.1110949e-07 1.8596405e-06 
-2.1910955e-06 2.1885169e-06 2.4718156e-06 
-2.2013846e-06 -3.1966360e-06 -5.3465733e-06 
3.1526970e-06 -8.5033062e-06 -7.2208468e-06 
2.2205845e-06 -5.8956821e-06 -1.2945175e-05 
9.4507632e-06 -5.8650267e-06 -1.9299794e-05 
1.2606186e-05 -1.6808421e-05 -1.8020570e-05 
2.8832603e-05 -7.0199735e-06 -1.6051281e-05 
3.9174342e-05 -6.6042444e-06 -8.4051071e-06 
4.5114150e-05 -1.4027421e-05 -5.7909256e-06 
5.2722069e-05 -6.9197413e-06 6.8157337e-06 
4.3714423e-05 -2.8803222e-06 1.7219070e-05 
3.5565638e-05 -5.9652612e-06 2.3780558e-05 
2.4434359e-05 -9.3641474e-06 2.4146051e-05 
1.2863954e-05 -1.4016864e-05 2.0254593e-05 
8.7754097e-06 -8.3408586e-06 1.8086243e-05 
2.7057522e-06 -5.9254658e-06 1.2600239e-05 
4.3753704e-07 -5.3861363e-06 7.6605093e-06 
-8.2845281e-06 -4.5649795e-06 3.7119983e-06 
-1.3531136e-05 -2.2958955e-06 -4.2760189e-06 
-6.5119975e-06 -7.8020230e-06 -6.6768803e-06 
-2.1235126e-06 -6.2150948e-06 -3.0296294e-06 
2.1153623e-06 -4.7550525e-06 -6.0291450e-06 
4.4024241e-06 -1.2649978e-05 -6.8499608e-06 
3.3041899e-06 -7.6431807e-06 -1.5340809e-05 
8.0815116e-06 -6.6670868e-06 -2.2723611e-05 
1.9625073e-05 -1.0358240e-05 -2.4036814e-05 
3.4442572e-05 -1.0190538e-05 -2.5177333e-05 
4.3874661e-05 -3.2557396e-06 -1.2142306e-05 
4.3863642e-05 -8.0594755e-06 -6.0154448e-06 
4.2688313e-05 -7.2408297e-06 5.9463400e-06 
3.6157875e-05 -8.2002571e-06 1.6516544e-05 
2.7844824e-05 -1.4984240e-05 2.2379485e-05 
2.2823901e-05 -1.3136374e-05 2.1159507e-05 
1.7402353e-05 -8.8601255e-06 2.1053453e-05 
1.0621016e-05 -4.8408428e-06 1.7234543e-05 
4.0145223e-06 -6.5341521e-07 9.3723629e-06 
-1.4313810e-07 -1.2969637e-07 3.1321306e-06 
-2.8903785e-06 2.1140795e-06 -1.2911878e-06 
-2.6184989e-06 1.6637813e-06 -3.3584968e-06 
-6.5508635e-07 -6.0624797e-07 -2.5812501e-06 
1.7366362e-06 -1.2567325e-06 -3.6719726e-07 
1.6940090e-06 -1.1887473e-07 1.7155789e-06 
5.0829414e-07 3.9904467e-08 1.1866774e-06 
-5.8965725e-07 8.6806352e-08 -1.1233620e-07 
-6.0672608e-07 2.7307050e-07 -6.4488171e-07 
-1.2505720e-07 1.9110128e-07 -5.8202301e-07 
1.8736409e-07 -1.7120553e-07 5.0639613e-08 
1.0489583e-07 -1.5519643e-07 3.6261849e-07 
0.0000000e+00 -3.2450836e-05 0.0000000e+00 
0.0000000e+00 -5.3737298e-05 0.0000000e+00 
0.0000000e+00 -3.7822076e-05 0.0000000e+00 
0.0000000e+00 -5.5221833e-05 0.0000000e+00 
0.0000000e+00 -7.6209821e-05 0.0000000e+00 
0.0000000e+00 -2.6262203e-05 0.0000000e+00 
0.0000000e+00 -5.8654536e-05 0.0000000e+00 
0.0000000e+00 -2.2891237e-04 0.0000000e+00 
0.0000000e+00 -3.4168153e-04 0.0000000e+00 
0.0000000e+00 -5.2664458e-04 0.0000000e+00 
0.0000000e+00 -5.5124855e-04 0.0000000e+00 
0.0000000e+00 -5.0270814e-04 0.0000000e+00 
0.0000000e+00 -3.6149475e-04 0.0000000e+00 
0.0000000e+00 -1.6477946e-04 0.0000000e+00 
0.0000000e+00 -1.4536674e-05 0.0000000e+00 
0.0000000e+00 4.8591464e-05 0.0000000e+00 
0.0000000e+00 2.6774251e-05 0.0000000e+00 
0.0000000e+00 3.2281906e-07 0.0000000e+00 
0.0000000e+00 -3.3745941e-06 0.0000000e+00 
0.0000000e+00 7.4488134e-06 0.0000000e+00 
0.0000000e+00 -2.0319840e-05 0.0000000e+00 
0.0000000e+00 -1.0788760e-04 0.0000000e+00 
0.0000000e+00 -7.2041141e-05 0.0000000e+00 
0.0000000e+00 -6.5245498e-05 0.0000000e+00 
0.0000000e+00 -8.2439059e-05 0.0000000e+00 
0.0000000e+00 -7.7851866e-05 0.0000000e+00 
0.0000000e+00 -7.3525305e-05 0.0000000e+00 
0.0000000e+00 -2.6418982e-04 0.0000000e+00 
0.0000000e+00 -4.1177857e-04 0.0000000e+00 
0.0000000e+00 -4.9746409e-04 0.0000000e+00 
0.0000000e+00 -5.3275231e-04 0.0000000e+00 
0.0000000e+00 -4.9021159e-04 0.0000000e+00 
0.0000000e+00 -3.5524319e-04 0.0000000e+00 
0.0000000e+00 -1.5427261e-04 0.0000000e+00 
0.0000000e+00 -5.1773157e-05 0.0000000e+00 
0.0000000e+00 -1.9425690e-05 0.0000000e+00 
0.0000000e+00 -1.9775264e-06 0.0000000e+00 
0.0000000e+00 8.9119349e-06 0.0000000e+00 
0.0000000e+00 1.6115053e-05 0.0000000e+00 
0.0000000e+00 1.5991285e-05 0.0000000e+00 
0.0000000e+00 4.5907573e-06 0.0000000e+00 
0.0000000e+00 -9.4774523e-06 0.0000000e+00 
0.0000000e+00 -8.3684308e-06 0.0000000e+00 
0.0000000e+00 -1.1163364e-06 0.0000000e+00 
0.0000000e+00 4.3837799e-06 0.0000000e+00 
0.0000000e+00 2.4630165e-06 0.0000000e+00 
0.0000000e+00 -1.2724365e-06 0.0000000e+00 
0.0000000e+00 -1.4372399e-06 0.0000000e+00 
0.0000000e+00 -2.9102020e-07 0.0000000e+00 
3.3540994e-06 1.3703983e-06 6.6753621e-08 
-1.0388260e-07 -6.3388150e-08 2.6691206e-08 
2.2156523e-06 -3.2924254e-06 -3.1394065e-06 
-3.6726744e-06 -3.2275907e-06 -1.1455108e-05 
6.3004158e-08 -9.7718015e-08 3.0733781e-07 
-1.1096529e-07 -2.3706714e-07 3.3557711e-07 
-3.3624087e-07 -1.5050931e-07 4.2317308e-07 
-2.1921595e-07 2.8681677e-07 2.3465604e-07 
-1.1199601e-06 -2.0424322e-06 3.3277713e-06 
-1.3618603e-06 3.4474206e-06 -1.9163226e-06 
-2.5328433e-07 -6.0312886e-06 -7.4323452e-06 
4.7820499e-06 -1.5275502e-05 -7.6818324e-06 
1.0846175e-05 -4.7498897e-06 -1.3225665e-05 
2.5899194e-06 -1.4695157e-05 -1.6190434e-05 
7.4394620e-06 -1.9214671e-05 -2.3890452e-05 
1.3966203e-05 -6.7254773e-06 -2.5025745e-05 
2.8867642e-05 -9.3456765e-06 -2.0245876e-05 
4.1725318e-05 -5.9058430e-06 -7.1474819e-06 
4.7077297e-05 -1.9695995e-06 4.8525148e-06 
4.1954525e-05 3.0451649e-06 2.0341366e-05 
3.7400881e-05 -4.9502091e-08 3.7169062e-05 
2.0861644e-05 -7.3975075e-06 3.5641380e-05 
5.0289404e-06 -2.1014122e-05 3.1684693e-05 
6.9678681e-06 -1.4272220e-05 2.1966862e-05 
7.3177921e-06 -9.1637103e-06 1.0213629e-05 
8.6356513e-06 -3.3824615e-06 8.6128048e-06 
-3.6527931e-07 -4.2516972e-06 6.2522104e-06 