# vtk DataFile Version 4.0
vtk output
ASCII
DATASET UNSTRUCTURED_GRID
POINTS 1919 float
0.0000000e+00 0.0000000e+00 0.0000000e+00 
0.0000000e+00 0.0000000e+00 5.0000000e+01 
5.0000000e+00 0.0000000e+00 0.0000000e+00 
5.0000000e+00 0.0000000e+00 5.0000000e+01 
5.0000000e+00 1.0000000e+00 0.0000000e+00 
5.0000000e+00 1.0000000e+00 5.0000000e+01 
0.0000000e+00 1.0000000e+00 0.0000000e+00 
0.0000000e+00 1.0000000e+00 5.0000000e+01 
5.0000000e+00 2.0000000e+00 0.0000000e+00 
5.0000000e+00 2.0000000e+00 5.0000000e+01 
3.0000000e+00 2.0000000e+00 0.0000000e+00 
3.0000000e+00 2.0000000e+00 5.0000000e+01 
0.0000000e+00 2.0000000e+00 0.0000000e+00 
0.0000000e+00 2.0000000e+00 5.0000000e+01 
1.5000000e+00 3.0000000e+00 0.0000000e+00 
1.5000000e+00 3.0000000e+00 5.0000000e+01 
7.5000000e-01 3.0000000e+00 0.0000000e+00 
7.5000000e-01 3.0000000e+00 5.0000000e+01 
0.0000000e+00 3.0000000e+00 0.0000000e+00 
0.0000000e+00 3.0000000e+00 5.0000000e+01 
7.5000000e-01 3.0000000e+00 5.0000000e-01 
7.5000000e-01 3.0000000e+00 1.0000000e+00 
7.5000000e-01 3.0000000e+00 1.5000000e+00 
7.5000000e-01 3.0000000e+00 2.0000000e+00 
7.5000000e-01 3.0000000e+00 2.5000000e+00 
7.5000000e-01 3.0000000e+00 3.0000000e+00 
7.5000000e-01 3.0000000e+00 3.5000000e+00 
7.5000000e-01 3.0000000e+00 4.0000000e+00 
7.5000000e-01 3.0000000e+00 4.5000000e+00 
7.5000000e-01 3.0000000e+00 5.0000000e+00 
7.5000000e-01 3.0000000e+00 5.5000000e+00 
7.5000000e-01 3.0000000e+00 6.0000000e+00 
7.5000000e-01 3.0000000e+00 6.5000000e+00 
7.5000000e-01 3.0000000e+00 7.0000000e+00 
7.5000000e-01 3.0000000e+00 7.5000000e+00 
7.5000000e-01 3.0000000e+00 8.0000000e+00 
7.5000000e-01 3.0000000e+00 8.5000000e+00 
7.5000000e-01 3.0000000e+00 9.0000000e+00 
7.5000000e-01 3.0000000e+00 9.5000000e+00 
7.5000000e-01 3.0000000e+00 1.0000000e+01 
7.5000000e-01 3.0000000e+00 1.0500000e+01 
7.5000000e-01 3.0000000e+00 1.1000000e+01 
7.5000000e-01 3.0000000e+00 1.1500000e+01 
7.5000000e-01 3.0000000e+00 1.2000000e+01 
7.5000000e-01 3.0000000e+00 1.2500000e+01 
7.5000000e-01 3.0000000e+00 1.3000000e+01 
7.5000000e-01 3.0000000e+00 1.3500000e+01 
7.5000000e-01 3.0000000e+00 1.4000000e+01 
7.5000000e-01 3.0000000e+00 1.4500000e+01 
7.5000000e-01 3.0000000e+00 1.5000000e+01 
7.5000000e-01 3.0000000e+00 1.5500000e+01 
7.5000000e-01 3.0000000e+00 1.6000000e+01 
7.5000000e-01 3.0000000e+00 1.6500000e+01 
7.5000000e-01 3.0000000e+00 1.7000000e+01 
7.5000000e-01 3.0000000e+00 1.7500000e+01 
7.5000000e-01 3.0000000e+00 1.8000000e+01 
7.5000000e-01 3.0000000e+00 1.8500000e+01 
7.5000000e-01 3.0000000e+00 1.9000000e+01 
7.5000000e-01 3.0000000e+00 1.9500000e+01 
7.5000000e-01 3.0000000e+00 2.0000000e+01 
7.5000000e-01 3.0000000e+00 2.0500000e+01 
7.5000000e-01 3.0000000e+00 2.1000000e+01 
7.5000000e-01 3.0000000e+00 2.1500000e+01 
7.5000000e-01 3.0000000e+00 2.2000000e+01 
7.5000000e-01 3.0000000e+00 2.2500000e+01 
7.5000000e-01 3.0000000e+00 2.3000000e+01 
7.5000000e-01 3.0000000e+00 2.3500000e+01 
7.5000000e-01 3.0000000e+00 2.4000000e+01 
7.5000000e-01 3.0000000e+00 2.4500000e+01 
7.5000000e-01 3.0000000e+00 2.5000000e+01 
7.5000000e-01 3.0000000e+00 2.5500000e+01 
7.5000000e-01 3.0000000e+00 2.6000000e+01 
7.5000000e-01 3.0000000e+00 2.6500000e+01 
7.5000000e-01 3.0000000e+00 2.7000000e+01 
7.5000000e-01 3.0000000e+00 2.7500000e+01 
7.5000000e-01 3.0000000e+00 2.8000000e+01 
7.5000000e-01 3.0000000e+00 2.8500000e+01 
7.5000000e-01 3.0000000e+00 2.9000000e+01 
7.5000000e-01 3.0000000e+00 2.9500000e+01 
7.5000000e-01 3.0000000e+00 3.0000000e+01 
7.5000000e-01 3.0000000e+00 3.0500000e+01 
7.5000000e-01 3.0000000e+00 3.1000000e+01 
7.5000000e-01 3.0000000e+00 3.1500000e+01 
7.5000000e-01 3.0000000e+00 3.2000000e+01 
7.5000000e-01 3.0000000e+00 3.2500000e+01 
7.5000000e-01 3.0000000e+00 3.3000000e+01 
7.5000000e-01 3.0000000e+00 3.3500000e+01 
7.5000000e-01 3.0000000e+00 3.4000000e+01 
7.5000000e-01 3.0000000e+00 3.4500000e+01 
7.5000000e-01 3.0000000e+00 3.5000000e+01 
7.5000000e-01 3.0000000e+00 3.5500000e+01 
7.5000000e-01 3.0000000e+00 3.6000000e+01 
7.5000000e-01 3.0000000e+00 3.6500000e+01 
7.5000000e-01 3.0000000e+00 3.7000000e+01 
7.5000000e-01 3.0000000e+00 3.7500000e+01 
7.5000000e-01 3.0000000e+00 3.8000000e+01 
7.5000000e-01 3.0000000e+00 3.8500000e+01 
7.5000000e-01 3.0000000e+00 3.9000000e+01 
7.5000000e-01 3.0000000e+00 3.9500000e+01 
7.5000000e-01 3.0000000e+00 4.0000000e+01 
7.5000000e-01 3.0000000e+00 4.0500000e+01 
7.5000000e-01 3.0000000e+00 4.1000000e+01 
7.5000000e-01 3.0000000e+00 4.1500000e+01 
7.5000000e-01 3.0000000e+00 4.2000000e+01 
7.5000000e-01 3.0000000e+00 4.2500000e+01 
7.5000000e-01 3.0000000e+00 4.3000000e+01 
7.5000000e-01 3.0000000e+00 4.3500000e+01 
7.5000000e-01 3.0000000e+00 4.4000000e+01 
7.5000000e-01 3.0000000e+00 4.4500000e+01 
7.5000000e-01 3.0000000e+00 4.5000000e+01 
7.5000000e-01 3.0000000e+00 4.5500000e+01 
7.5000000e-01 3.0000000e+00 4.6000000e+01 
7.5000000e-01 3.0000000e+00 4.6500000e+01 
7.5000000e-01 3.0000000e+00 4.7000000e+01 
7.5000000e-01 3.0000000e+00 4.7500000e+01 
7.5000000e-01 3.0000000e+00 4.8000000e+01 
7.5000000e-01 3.0000000e+00 4.8500000e+01 
7.5000000e-01 3.0000000e+00 4.9000000e+01 
7.5000000e-01 3.0000000e+00 4.9500000e+01 
7.5000000e-01 3.0250001e+00 0.0000000e+00 
7.5000000e-01 3.0250001e+00 5.0000000e-01 
7.5000000e-01 3.0250001e+00 1.0000000e+00 
7.5000000e-01 3.0250001e+00 1.5000000e+00 
7.5000000e-01 3.0250001e+00 2.0000000e+00 
7.5000000e-01 3.0250001e+00 2.5000000e+00 
7.5000000e-01 3.0250001e+00 3.0000000e+00 
7.5000000e-01 3.0250001e+00 3.5000000e+00 
7.5000000e-01 3.0250001e+00 4.0000000e+00 
7.5000000e-01 3.0250001e+00 4.5000000e+00 
7.5000000e-01 3.0250001e+00 5.0000000e+00 
7.5000000e-01 3.0250001e+00 5.5000000e+00 
7.5000000e-01 3.0250001e+00 6.0000000e+00 
7.5000000e-01 3.0250001e+00 6.5000000e+00 
7.5000000e-01 3.0250001e+00 7.0000000e+00 
7.5000000e-01 3.0250001e+00 7.5000000e+00 
7.5000000e-01 3.0250001e+00 8.0000000e+00 
7.5000000e-01 3.0250001e+00 8.5000000e+00 
7.5000000e-01 3.0250001e+00 9.0000000e+00 
7.5000000e-01 3.0250001e+00 9.5000000e+00 
7.5000000e-01 3.0250001e+00 1.0000000e+01 
7.5000000e-01 3.0250001e+00 1.0500000e+01 
7.5000000e-01 3.0250001e+00 1.1000000e+01 
7.5000000e-01 3.0250001e+00 1.1500000e+01 
7.5000000e-01 3.0250001e+00 1.2000000e+01 
7.5000000e-01 3.0250001e+00 1.2500000e+01 
7.5000000e-01 3.0250001e+00 1.3000000e+01 
7.5000000e-01 3.0250001e+00 1.3500000e+01 
7.5000000e-01 3.0250001e+00 1.4000000e+01 
7.5000000e-01 3.0250001e+00 1.4500000e+01 
7.5000000e-01 3.0250001e+00 1.5000000e+01 
7.5000000e-01 3.0250001e+00 1.5500000e+01 
7.5000000e-01 3.0250001e+00 1.6000000e+01 
7.5000000e-01 3.0250001e+00 1.6500000e+01 
7.5000000e-01 3.0250001e+00 1.7000000e+01 
7.5000000e-01 3.0250001e+00 1.7500000e+01 
7.5000000e-01 3.0250001e+00 1.8000000e+01 
7.5000000e-01 3.0250001e+00 1.8500000e+01 
7.5000000e-01 3.0250001e+00 1.9000000e+01 
7.5000000e-01 3.0250001e+00 1.9500000e+01 
7.5000000e-01 3.0250001e+00 2.0000000e+01 
7.5000000e-01 3.0250001e+00 2.0500000e+01 
7.5000000e-01 3.0250001e+00 2.1000000e+01 
7.5000000e-01 3.0250001e+00 2.1500000e+01 
7.5000000e-01 3.0250001e+00 2.2000000e+01 
7.5000000e-01 3.0250001e+00 2.2500000e+01 
7.5000000e-01 3.0250001e+00 2.3000000e+01 
7.5000000e-01 3.0250001e+00 2.3500000e+01 
7.5000000e-01 3.0250001e+00 2.4000000e+01 
7.5000000e-01 3.0250001e+00 2.4500000e+01 
7.5000000e-01 3.0250001e+00 2.5000000e+01 
7.5000000e-01 3.0250001e+00 2.5500000e+01 
7.5000000e-01 3.0250001e+00 2.6000000e+01 
7.5000000e-01 3.0250001e+00 2.6500000e+01 
7.5000000e-01 3.0250001e+00 2.7000000e+01 
7.5000000e-01 3.0250001e+00 2.7500000e+01 
7.5000000e-01 3.0250001e+00 2.8000000e+01 
7.5000000e-01 3.0250001e+00 2.8500000e+01 
7.5000000e-01 3.0250001e+00 2.9000000e+01 
7.5000000e-01 3.0250001e+00 2.9500000e+01 
7.5000000e-01 3.0250001e+00 3.0000000e+01 
7.5000000e-01 3.0250001e+00 3.0500000e+01 
7.5000000e-01 3.0250001e+00 3.1000000e+01 
7.5000000e-01 3.0250001e+00 3.1500000e+01 
7.5000000e-01 3.0250001e+00 3.2000000e+01 
7.5000000e-01 3.0250001e+00 3.2500000e+01 
7.5000000e-01 3.0250001e+00 3.3000000e+01 
7.5000000e-01 3.0250001e+00 3.3500000e+01 
7.5000000e-01 3.0250001e+00 3.4000000e+01 
7.5000000e-01 3.0250001e+00 3.4500000e+01 
7.5000000e-01 3.0250001e+00 3.5000000e+01 
7.5000000e-01 3.0250001e+00 3.5500000e+01 
7.5000000e-01 3.0250001e+00 3.6000000e+01 
7.5000000e-01 3.0250001e+00 3.6500000e+01 
7.5000000e-01 3.0250001e+00 3.7000000e+01 
7.5000000e-01 3.0250001e+00 3.7500000e+01 
7.5000000e-01 3.0250001e+00 3.8000000e+01 
7.5000000e-01 3.0250001e+00 3.8500000e+01 
7.5000000e-01 3.0250001e+00 3.9000000e+01 
7.5000000e-01 3.0250001e+00 3.9500000e+01 
7.5000000e-01 3.0250001e+00 4.0000000e+01 
7.5000000e-01 3.0250001e+00 4.0500000e+01 
7.5000000e-01 3.0250001e+00 4.1000000e+01 
7.5000000e-01 3.0250001e+00 4.1500000e+01 
7.5000000e-01 3.0250001e+00 4.2000000e+01 
7.5000000e-01 3.0250001e+00 4.2500000e+01 
7.5000000e-01 3.0250001e+00 4.3000000e+01 
7.5000000e-01 3.0250001e+00 4.3500000e+01 
7.5000000e-01 3.0250001e+00 4.4000000e+01 
7.5000000e-01 3.0250001e+00 4.4500000e+01 
7.5000000e-01 3.0250001e+00 4.5000000e+01 
7.5000000e-01 3.0250001e+00 4.5500000e+01 
7.5000000e-01 3.0250001e+00 4.6000000e+01 
7.5000000e-01 3.0250001e+00 4.6500000e+01 
7.5000000e-01 3.0250001e+00 4.7000000e+01 
7.5000000e-01 3.0250001e+00 4.7500000e+01 
7.5000000e-01 3.0250001e+00 4.8000000e+01 
7.5000000e-01 3.0250001e+00 4.8500000e+01 
7.5000000e-01 3.0250001e+00 4.9000000e+01 
7.5000000e-01 3.0250001e+00 4.9500000e+01 
7.5000000e-01 3.0250001e+00 5.0000000e+01 
3.0000000e+00 2.0000000e+00 3.6000000e+01 
8.0487806e-01 3.0000000e+00 3.6000000e+01 
0.0000000e+00 0.0000000e+00 1.0000000e+00 
0.0000000e+00 0.0000000e+00 2.0000000e+00 
0.0000000e+00 0.0000000e+00 3.0000000e+00 
0.0000000e+00 0.0000000e+00 4.0000000e+00 
0.0000000e+00 0.0000000e+00 5.0000000e+00 
0.0000000e+00 0.0000000e+00 6.0000000e+00 
0.0000000e+00 0.0000000e+00 7.0000000e+00 
0.0000000e+00 0.0000000e+00 8.0000000e+00 
[...]
POINT_DATA 1919
FIELD FieldData 3
DISPLACEMENT 3 1919  float
0.0000000e+00 0.0000000e+00 0.0000000e+00 
0.0000000e+00 0.0000000e+00 0.0000000e+00 
0.0000000e+00 0.0000000e+00 0.0000000e+00 
0.0000000e+00 0.0000000e+00 0.0000000e+00 
8.3758391e-07 -3.4233517e-06 -2.4895737e-06 
2.9450524e-08 -2.8782193e-07 1.0043320e-06 
0.0000000e+00 2.0967082e-05 0.0000000e+00 
0.0000000e+00 1.1277360e-06 0.0000000e+00 
8.2992040e-07 -3.4985646e-07 -7.6150985e-07 
2.3757904e-07 -1.7776226e-07 1.5976223e-06 
1.9626461e-06 5.9899940e-06 3.0724379e-07 
6.8696698e-07 -7.5008643e-07 2.0239270e-06 
0.0000000e+00 8.7502749e-06 0.0000000e+00 
0.0000000e+00 2.7796461e-06 0.0000000e+00 
3.4869619e-05 1.5014400e-05 -3.8256549e-05 
-1.8717587e-06 1.3603814e-06 3.3157335e-06 
2.4695091e-05 1.3627684e-04 -3.0339623e-05 
2.7052120e-06 1.3787460e-05 -2.8257839e-06 
0.0000000e+00 5.0931772e-06 0.0000000e+00 
0.0000000e+00 5.8445794e-06 0.0000000e+00 
1.7903632e-05 1.2210693e-04 -1.3471451e-05 
2.6413440e-05 9.5228301e-05 -1.3958518e-05 
3.2270331e-05 8.4283660e-05 -1.2316066e-05 
3.0687381e-05 1.0407279e-04 -1.9380216e-06 
3.5594840e-05 1.4322261e-04 1.6784026e-05 
3.8906586e-05 1.6887496e-04 2.2198315e-05 
1.7600029e-05 1.5908609e-04 3.1684169e-05 
2.1127293e-05 1.3003264e-04 1.9207226e-05 
2.5492802e-05 1.1981913e-04 1.1073687e-06 
3.4672161e-05 1.5195974e-04 -1.6494572e-05 
4.4626096e-05 2.1936269e-04 -2.6842476e-05 
4.0568193e-05 2.9030841e-04 -2.1942800e-05 
7.3716328e-05 3.4011208e-04 -1.0926395e-05 
8.9271467e-05 3.6290567e-04 1.7575880e-05 
5.5397606e-05 3.7158298e-04 2.8305501e-05 
6.6728608e-05 3.6925290e-04 4.5539819e-05 
5.8682770e-05 3.1395938e-04 1.2482727e-04 
9.9057470e-06 1.0471310e-04 1.5591944e-04 
-1.6698312e-05 -3.8364029e-04 2.8632238e-04 
-7.8105157e-05 -1.2378722e-03 2.6947446e-04 
-1.7558920e-04 -2.4325955e-03 3.9347121e-04 
-2.9175149e-04 -3.7350724e-03 2.0642848e-04 
-3.5004376e-04 -4.7731800e-03 2.6890897e-04 
-3.9329071e-04 -5.0793719e-03 9.6426294e-05 
-3.5932203e-04 -4.9407179e-03 -2.2503595e-05 
-2.8347602e-04 -4.8224810e-03 -2.8273826e-05 
-2.3808739e-04 -4.9108332e-03 -3.6732974e-05 
-2.5846012e-04 -4.8651868e-03 -1.1708766e-04 
-2.5150119e-04 -4.2233942e-03 -2.1603974e-04 
-1.8619887e-04 -3.0696390e-03 -1.7918072e-04 
-1.2185735e-04 -1.8981075e-03 -3.2020875e-04 
-6.0920764e-05 -9.5358776e-04 -2.2176285e-04 
-1.1617238e-05 -3.0627061e-04 -2.2516749e-04 
8.2091574e-06 6.5535067e-05 -1.1882155e-04 
3.1926902e-05 2.1382736e-04 -7.4456671e-05 
2.0274912e-05 2.1576419e-04 -2.9054791e-05 
3.9533002e-06 1.5325315e-04 -1.4900791e-05 
8.4634657e-06 8.4164487e-05 -3.9950897e-05 
4.8493575e-06 3.0859166e-05 -4.8096197e-05 
2.1091804e-05 -1.4513462e-05 -3.6562371e-05 
2.3423927e-05 -5.9581031e-05 4.9546447e-06 
2.5787747e-05 -9.5211071e-05 3.3896507e-05 
1.8880872e-05 -1.0184447e-04 2.4246043e-05 
1.1237656e-05 -7.0168346e-05 -5.5920071e-07 
1.3356893e-06 -8.5331676e-06 -4.5663583e-05 
1.2068027e-05 6.0974748e-05 -6.8829759e-05 
1.2570731e-05 1.1964497e-04 -7.7648074e-05 
2.1486354e-05 1.5707024e-04 -6.2703977e-05 
2.1939317e-05 1.8187104e-04 -6.9520822e-05 
2.3838540e-05 2.1738243e-04 -5.8267724e-05 
3.4695950e-05 2.7432153e-04 -5.1196734e-05 
5.7090147e-05 3.4599385e-04 -3.4575456e-05 
7.7890982e-05 4.0847858e-04 -1.9900468e-05 
7.9881233e-05 4.3255228e-04 6.9094904e-06 
5.6430876e-05 4.1527060e-04 4.3277767e-05 
5.7419060e-05 3.5547360e-04 8.8964800e-05 
3.9018760e-05 2.3222444e-04 1.6795743e-04 
1.3081042e-05 -1.3937115e-05 1.9640995e-04 
-2.4327219e-05 -4.9785228e-04 3.2831906e-04 
-9.3342511e-05 -1.3326359e-03 2.7327539e-04 
-1.5373717e-04 -2.5423344e-03 3.9706888e-04 
-2.5039344e-04 -3.8954709e-03 2.3048163e-04 
-3.0389655e-04 -4.9201609e-03 2.6354796e-04 
-3.4163229e-04 -5.0498922e-03 1.2999984e-04 
-3.4133063e-04 -4.8202639e-03 4.7785630e-05 
-3.4894177e-04 -4.7310637e-03 1.1987189e-05 
-3.4231890e-04 -4.9233465e-03 -4.0551375e-05 
-3.5330770e-04 -4.9236179e-03 -1.1638308e-04 
-3.2092485e-04 -4.2083138e-03 -2.7542096e-04 
3.7121256e-07 -3.0462968e-03 -4.6830453e-04 
-1.0339862e-04 -1.8535643e-03 -3.3769780e-04 
-7.2697403e-05 -8.8996347e-04 -2.4787869e-04 
-3.7901591e-05 -2.4600598e-04 -2.7321643e-04 
-1.4620204e-06 1.0456673e-04 -1.8858608e-04 
2.9373366e-05 2.3569477e-04 -1.4180870e-04 
3.9150953e-05 2.3692095e-04 -7.1773007e-05 
4.3401978e-05 1.7997420e-04 -1.2583877e-05 
3.0708212e-05 1.0476222e-04 1.2911096e-05 
1.9772075e-05 3.0139645e-05 3.4342695e-05 
7.8153480e-06 -3.1722080e-05 3.8679802e-05 
1.9613747e-06 -6.9350390e-05 5.6888515e-05 
3.1753082e-06 -7.8918158e-05 6.0127179e-05 
-1.0669098e-05 -6.5155204e-05 4.5253593e-05 
-1.3791070e-05 -3.8628925e-05 2.6347310e-05 
-1.0141703e-05 -8.0568889e-06 -5.1364550e-06 
-6.2795179e-06 1.9290699e-05 -2.1602244e-05 
4.8130579e-07 3.8558555e-05 -2.7129845e-05 
-3.2357023e-06 4.6133169e-05 -1.8532073e-05 
2.5099757e-06 4.1322193e-05 -4.8309727e-07 
1.4041708e-06 2.6573467e-05 5.5604269e-06 
2.8074378e-06 7.8620706e-06 1.0127574e-05 
1.8520367e-06 -8.5178053e-06 5.7443208e-06 
3.0521323e-06 -1.8398463e-05 2.8766560e-06 
2.4213907e-06 -2.1336751e-05 -1.1928151e-06 
1.3772764e-06 -1.8535473e-05 -2.1227245e-06 
-2.5273252e-07 -1.2086290e-05 -2.8330534e-08 
-3.5844594e-06 -3.7656846e-06 9.7842212e-07 
-3.5813946e-06 4.6756804e-06 1.2184842e-06 
-2.8225202e-06 1.1228503e-05 -6.2563754e-07 
0.0000000e+00 1.3542482e-04 0.0000000e+00 
0.0000000e+00 1.2168832e-04 0.0000000e+00 
0.0000000e+00 9.5913201e-05 0.0000000e+00 
0.0000000e+00 8.5571999e-05 0.0000000e+00 
0.0000000e+00 1.0519330e-04 0.0000000e+00 
0.0000000e+00 1.4289991e-04 0.0000000e+00 
0.0000000e+00 1.6721584e-04 0.0000000e+00 
0.0000000e+00 1.5796693e-04 0.0000000e+00 
0.0000000e+00 1.3053200e-04 0.0000000e+00 
0.0000000e+00 1.2124176e-04 0.0000000e+00 
0.0000000e+00 1.5337976e-04 0.0000000e+00 
0.0000000e+00 2.1955084e-04 0.0000000e+00 
0.0000000e+00 2.8976641e-04 0.0000000e+00 
0.0000000e+00 3.3916245e-04 0.0000000e+00 
0.0000000e+00 3.6315492e-04 0.0000000e+00 
0.0000000e+00 3.7355674e-04 0.0000000e+00 
0.0000000e+00 3.7218630e-04 0.0000000e+00 
0.0000000e+00 3.1600811e-04 0.0000000e+00 
0.0000000e+00 1.0408137e-04 0.0000000e+00 
0.0000000e+00 -3.8907127e-04 0.0000000e+00 
0.0000000e+00 -1.2492870e-03 0.0000000e+00 
0.0000000e+00 -2.4421217e-03 0.0000000e+00 
0.0000000e+00 -3.7537019e-03 0.0000000e+00 
0.0000000e+00 -4.7925510e-03 0.0000000e+00 
0.0000000e+00 -5.1129567e-03 0.0000000e+00 
0.0000000e+00 -4.9636988e-03 0.0000000e+00 
0.0000000e+00 -4.8499545e-03 0.0000000e+00 
0.0000000e+00 -4.9310606e-03 0.0000000e+00 
0.0000000e+00 -4.8935898e-03 0.0000000e+00 
0.0000000e+00 -4.2451932e-03 0.0000000e+00 
0.0000000e+00 -3.0888591e-03 0.0000000e+00 
0.0000000e+00 -1.9061570e-03 0.0000000e+00 
0.0000000e+00 -9.5765077e-04 0.0000000e+00 
0.0000000e+00 -3.0775706e-04 0.0000000e+00 
0.0000000e+00 6.4551838e-05 0.0000000e+00 
0.0000000e+00 2.1401978e-04 0.0000000e+00 
0.0000000e+00 2.1731512e-04 0.0000000e+00 
0.0000000e+00 1.5506703e-04 0.0000000e+00 
0.0000000e+00 8.5524887e-05 0.0000000e+00 
0.0000000e+00 3.0908239e-05 0.0000000e+00 
0.0000000e+00 -1.5108635e-05 0.0000000e+00 
0.0000000e+00 -5.9976661e-05 0.0000000e+00 
0.0000000e+00 -9.4815812e-05 0.0000000e+00 
0.0000000e+00 -1.0116096e-04 0.0000000e+00 
0.0000000e+00 -6.9543457e-05 0.0000000e+00 
0.0000000e+00 -8.3880923e-06 0.0000000e+00 
0.0000000e+00 6.0974504e-05 0.0000000e+00 
0.0000000e+00 1.1889647e-04 0.0000000e+00 
0.0000000e+00 1.5622382e-04 0.0000000e+00 
0.0000000e+00 1.8207463e-04 0.0000000e+00 
0.0000000e+00 2.1796890e-04 0.0000000e+00 
0.0000000e+00 2.7564252e-04 0.0000000e+00 
0.0000000e+00 3.4711344e-04 0.0000000e+00 
0.0000000e+00 4.0774076e-04 0.0000000e+00 
0.0000000e+00 4.3232925e-04 0.0000000e+00 
0.0000000e+00 4.1566094e-04 0.0000000e+00 
0.0000000e+00 3.5704119e-04 0.0000000e+00 
0.0000000e+00 2.3520060e-04 0.0000000e+00 
0.0000000e+00 -1.3183181e-05 0.0000000e+00 
0.0000000e+00 -5.0133053e-04 0.0000000e+00 
0.0000000e+00 -1.3448234e-03 0.0000000e+00 
0.0000000e+00 -2.5564532e-03 0.0000000e+00 
0.0000000e+00 -3.9201295e-03 0.0000000e+00 
0.0000000e+00 -4.9383580e-03 0.0000000e+00 
0.0000000e+00 -5.0783581e-03 0.0000000e+00 
0.0000000e+00 -4.8412080e-03 0.0000000e+00 
0.0000000e+00 -4.7628754e-03 0.0000000e+00 
0.0000000e+00 -4.9454486e-03 0.0000000e+00 
0.0000000e+00 -4.9539716e-03 0.0000000e+00 
0.0000000e+00 -4.2275931e-03 0.0000000e+00 
0.0000000e+00 -3.0560610e-03 0.0000000e+00 
0.0000000e+00 -1.8624382e-03 0.0000000e+00 
0.0000000e+00 -8.9630310e-04 0.0000000e+00 
0.0000000e+00 -2.4809249e-04 0.0000000e+00 
0.0000000e+00 1.0453401e-04 0.0000000e+00 
0.0000000e+00 2.3699594e-04 0.0000000e+00 
0.0000000e+00 2.3849413e-04 0.0000000e+00 
0.0000000e+00 1.8084183e-04 0.0000000e+00 
0.0000000e+00 1.0503629e-04 0.0000000e+00 
0.0000000e+00 3.0300327e-05 0.0000000e+00 
0.0000000e+00 -3.1235420e-05 0.0000000e+00 
0.0000000e+00 -6.8987822e-05 0.0000000e+00 
0.0000000e+00 -7.8795107e-05 0.0000000e+00 
0.0000000e+00 -6.5311535e-05 0.0000000e+00 
0.0000000e+00 -3.8641894e-05 0.0000000e+00 
0.0000000e+00 -8.1033759e-06 0.0000000e+00 
0.0000000e+00 1.9215287e-05 0.0000000e+00 
0.0000000e+00 3.8368085e-05 0.0000000e+00 
0.0000000e+00 4.5959383e-05 0.0000000e+00 
0.0000000e+00 4.1188538e-05 0.0000000e+00 
0.0000000e+00 2.6616830e-05 0.0000000e+00 
0.0000000e+00 7.9946103e-06 0.0000000e+00 
0.0000000e+00 -8.3534251e-06 0.0000000e+00 
0.0000000e+00 -1.8345381e-05 0.0000000e+00 
0.0000000e+00 -2.1304390e-05 0.0000000e+00 
0.0000000e+00 -1.8543682e-05 0.0000000e+00 
0.0000000e+00 -1.2090872e-05 0.0000000e+00 
0.0000000e+00 -3.7691611e-06 0.0000000e+00 
0.0000000e+00 4.6700243e-06 0.0000000e+00 
0.0000000e+00 1.1200184e-05 0.0000000e+00 
0.0000000e+00 1.3737598e-05 0.0000000e+00 
1.7098320e-05 -2.9985124e-05 -1.9565690e-05 
-7.9076694e-05 -7.8717025e-04 -2.6297854e-04 
0.0000000e+00 0.0000000e+00 0.0000000e+00 
0.0000000e+00 0.0000000e+00 0.0000000e+00 
0.0000000e+00 0.0000000e+00 0.0000000e+00 
0.0000000e+00 0.0000000e+00 0.0000000e+00 
0.0000000e+00 0.0000000e+00 0.0000000e+00 
0.0000000e+00 0.0000000e+00 0.0000000e+00 
0.0000000e+00 0.0000000e+00 0.0000000e+00 
0.0000000e+00 0.0000000e+00 0.0000000e+00 
0.0000000e+00 0.0000000e+00 0.0000000e+00 
0.0000000e+00 0.0000000e+00 0.0000000e+00 
0.0000000e+00 0.0000000e+00 0.0000000e+00 
0.0000000e+00 0.0000000e+00 0.0000000e+00 
0.0000000e+00 0.0000000e+00 0.0000000e+00 
0.0000000e+00 0.0000000e+00 0.0000000e+00 
0.0000000e+00 0.0000000e+00 0.0000000e+00 
0.0000000e+00 0.0000000e+00 0.0000000e+00 
0.0000000e+00 0.0000000e+00 0.0000000e+00 
0.0000000e+00 0.0000000e+00 0.0000000e+00 
0.0000000e+00 0.0000000e+00 0.0000000e+00 
0.0000000e+00 0.0000000e+00 0.0000000e+00 
0.0000000e+00 0.0000000e+00 0.0000000e+00 
0.0000000e+00 0.0000000e+00 0.0000000e+00 
0.0000000e+00 0.0000000e+00 0.0000000e+00 
0.0000000e+00 0.0000000e+00 0.0000000e+00 
0.0000000e+00 0.0000000e+00 0.0000000e+00 
0.0000000e+00 0.0000000e+00 0.0000000e+00 
0.0000000e+00 0.0000000e+00 0.0000000e+00 
0.0000000e+00 0.0000000e+00 0.0000000e+00 
0.0000000e+00 0.0000000e+00 0.0000000e+00 
0.0000000e+00 0.0000000e+00 0.0000000e+00 
0.0000000e+00 0.0000000e+00 0.0000000e+00 
0.0000000e+00 0.0000000e+00 0.0000000e+00 
0.0000000e+00 0.0000000e+00 0.0000000e+00 
0.0000000e+00 0.0000000e+00 0.0000000e+00 
0.0000000e+00 0.0000000e+00 0.0000000e+00 
0.0000000e+00 0.0000000e+00 0.0000000e+00 
0.0000000e+00 0.0000000e+00 0.0000000e+00 
0.0000000e+00 0.0000000e+00 0.0000000e+00 
0.0000000e+00 0.0000000e+00 0.0000000e+00 
0.0000000e+00 0.0000000e+00 0.0000000e+00 
0.0000000e+00 0.0000000e+00 0.0000000e+00 
0.0000000e+00 0.0000000e+00 0.0000000e+00 
0.0000000e+00 0.0000000e+00 0.0000000e+00 
0.0000000e+00 0.0000000e+00 0.0000000e+00 
0.0000000e+00 0.0000000e+00 0.0000000e+00 
0.0000000e+00 0.0000000e+00 0.0000000e+00 
0.0000000e+00 0.0000000e+00 0.0000000e+00 
0.0000000e+00 0.0000000e+00 0.0000000e+00 
0.0000000e+00 0.0000000e+00 0.0000000e+00 
0.0000000e+00 0.0000000e+00 0.0000000e+00 
0.0000000e+00 0.0000000e+00 0.0000000e+00 
0.0000000e+00 0.0000000e+00 0.0000000e+00 
0.0000000e+00 0.0000000e+00 0.0000000e+00 
0.0000000e+00 0.0000000e+00 0.0000000e+00 
0.0000000e+00 0.0000000e+00 0.0000000e+00 
0.0000000e+00 0.0000000e+00 0.0000000e+00 
0.0000000e+00 0.0000000e+00 0.0000000e+00 
0.0000000e+00 0.0000000e+00 0.0000000e+00 
0.0000000e+00 0.0000000e+00 0.0000000e+00 
0.0000000e+00 0.0000000e+00 0.0000000e+00 
0.0000000e+00 0.0000000e+00 0.0000000e+00 
0.0000000e+00 0.0000000e+00 0.0000000e+00 
0.0000000e+00 0.0000000e+00 0.0000000e+00 
0.0000000e+00 0.0000000e+00 0.0000000e+00 
0.0000000e+00 0.0000000e+00 0.0000000e+00 
0.0000000e+00 0.0000000e+00 0.0000000e+00 
0.0000000e+00 0.0000000e+00 0.0000000e+00 
0.0000000e+00 0.0000000e+00 0.0000000e+00 
0.0000000e+00 0.0000000e+00 0.0000000e+00 
0.0000000e+00 0.0000000e+00 0.0000000e+00 
0.0000000e+00 0.0000000e+00 0.0000000e+00 
0.0000000e+00 0.0000000e+00 0.0000000e+00 
0.0000000e+00 0.0000000e+00 0.0000000e+00 
0.0000000e+00 0.0000000e+00 0.0000000e+00 
0.0000000e+00 0.0000000e+00 0.0000000e+00 
0.0000000e+00 0.0000000e+00 0.0000000e+00 
0.0000000e+00 0.0000000e+00 0.0000000e+00 
0.0000000e+00 0.0000000e+00 0.0000000e+00 
0.0000000e+00 0.0000000e+00 0.0000000e+00 
0.0000000e+00 0.0000000e+00 0.0000000e+00 
0.0000000e+00 0.0000000e+00 0.0000000e+00 
0.0000000e+00 0.0000000e+00 0.0000000e+00 
0.0000000e+00 0.0000000e+00 0.0000000e+00 
0.0000000e+00 0.0000000e+00 0.0000000e+00 
0.0000000e+00 0.0000000e+00 0.0000000e+00 
0.0000000e+00 0.0000000e+00 0.0000000e+00 
0.0000000e+00 0.0000000e+00 0.0000000e+00 
0.0000000e+00 0.0000000e+00 0.0000000e+00 
0.0000000e+00 0.0000000e+00 0.0000000e+00 
0.0000000e+00 0.0000000e+00 0.0000000e+00 
0.0000000e+00 0.0000000e+00 0.0000000e+00 
0.0000000e+00 0.0000000e+00 0.0000000e+00 
0.0000000e+00 0.0000000e+00 0.0000000e+00 
0.0000000e+00 0.0000000e+00 0.0000000e+00 
0.0000000e+00 0.0000000e+00 0.0000000e+00 
0.0000000e+00 0.0000000e+00 0.0000000e+00 
0.0000000e+00 0.0000000e+00 0.0000000e+00 
0.0000000e+00 0.0000000e+00 0.0000000e+00 
0.0000000e+00 0.0000000e+00 0.0000000e+00 
0.0000000e+00 0.0000000e+00 0.0000000e+00 
0.0000000e+00 0.0000000e+00 0.0000000e+00 
0.0000000e+00 0.0000000e+00 0.0000000e+00 
0.0000000e+00 0.0000000e+00 0.0000000e+00 
0.0000000e+00 0.0000000e+00 0.0000000e+00 
0.0000000e+00 0.0000000e+00 0.0000000e+00 
0.0000000e+00 0.0000000e+00 0.0000000e+00 
6.9425489e-08 1.0907490e-06 3.3815820e-06 
-2.3101161e-06 3.6960157e-07 1.7898598e-06 
-1.0487367e-06 -1.8899219e-06 3.1803657e-07 
1.1480815e-06 -2.4309247e-06 3.0623146e-06 
1.1669425e-07 7.6701017e-06 -3.5276037e-06 
3.1983484e-06 -6.9675611e-06 -5.2449718e-06 
2.4564436e-06 -2.3260022e-06 -9.3408235e-06 
1.6813863e-05 -3.0660744e-06 -2.0112377e-05 
3.1595453e-05 -1.0274302e-05 -1.8976159e-05 
3.6663485e-05 -1.4525110e-05 -1.6264332e-05 
5.1877945e-05 -1.6637141e-05 -1.2380473e-05 
5.0382812e-05 -1.3892544e-05 -2.0881523e-06 
4.7072735e-05 -1.4001448e-05 7.7476416e-06 
3.6951922e-05 -1.0879075e-05 7.7885343e-06 
2.6394180e-05 -7.7317454e-06 5.9538547e-06 
1.2784984e-05 -6.4356987e-06 5.3738263e-06 
1.0019594e-05 -5.0838935e-06 2.0036289e-06 
8.2463703e-06 -7.1329401e-07 3.8238795e-06 
3.0476226e-06 1.8798415e-06 5.5637879e-06 
-2.2252057e-06 -3.1865138e-06 2.3540808e-06 
-3.6821875e-06 -7.3183555e-06 -1.1456901e-07 
-8.1809907e-07 -3.9627530e-06 1.4656558e-06 
4.9961454e-06 -3.0801200e-06 3.1747795e-06 
2.0314531e-06 7.7228106e-07 7.9224446e-06 
-1.0859585e-06 3.1220429e-06 6.1670526e-06 
3.0541373e-06 -5.9784502e-06 -4.3765431e-06 
5.0927988e-06 -3.7963156e-07 -7.5232783e-06 
1.7998294e-05 -3.9076217e-06 -1.0838668e-05 
3.1404623e-05 -7.4654026e-06 -7.6625774e-06 
3.6514019e-05 -1.3595985e-05 -7.7626200e-06 
4.9751994e-05 -1.6792581e-05 -3.2073640e-06 
5.2589297e-05 -2.0814054e-05 -1.1291244e-06 
4.9380418e-05 -1.9118637e-05 2.8607822e-06 
4.1752188e-05 -1.7254437e-05 5.0825943e-06 
3.2155007e-05 -1.0639228e-05 6.5762988e-06 
1.6624141e-05 -4.3107036e-07 7.3102160e-06 
4.8666989e-06 3.8470821e-06 4.8011584e-06 
-1.1803548e-06 2.7523745e-06 1.9298454e-06 
-2.1857340e-06 9.3829385e-07 1.7783907e-06 
-1.0980542e-07 -2.5347560e-06 3.2654923e-06 
3.7211880e-06 -3.5046894e-06 4.9370547e-06 
4.5712031e-06 -2.2999509e-06 6.1927512e-06 
2.1738358e-06 6.6708679e-07 4.9147084e-06 
5.0231995e-07 4.2114056e-07 1.6774388e-06 
-1.1106805e-06 -1.7051927e-07 -1.3350256e-06 
-1.2753603e-06 1.7243367e-07 -2.1435324e-06 
-7.2131405e-07 4.4562736e-07 -2.0532425e-06 
2.2590683e-08 1.1888896e-07 -7.8325462e-07 
2.8437287e-07 1.5058451e-07 5.0097276e-07 
0.0000000e+00 -2.1862488e-05 0.0000000e+00 
0.0000000e+00 -1.7234252e-05 0.0000000e+00 
0.0000000e+00 -1.1212298e-05 0.0000000e+00 
0.0000000e+00 -2.3798986e-05 0.0000000e+00 
0.0000000e+00 -2.0252590e-05 0.0000000e+00 
0.0000000e+00 -4.0261734e-06 0.0000000e+00 
0.0000000e+00 -3.3670509e-07 0.0000000e+00 
0.0000000e+00 2.1093663e-05 0.0000000e+00 
0.0000000e+00 3.7616599e-05 0.0000000e+00 
0.0000000e+00 -1.5394595e-04 0.0000000e+00 
0.0000000e+00 -3.5047031e-04 0.0000000e+00 
0.0000000e+00 -5.4336962e-04 0.0000000e+00 
0.0000000e+00 -5.7999149e-04 0.0000000e+00 
0.0000000e+00 -5.3939898e-04 0.0000000e+00 
0.0000000e+00 -4.1605881e-04 0.0000000e+00 
0.0000000e+00 -2.2145499e-04 0.0000000e+00 
0.0000000e+00 -9.1401816e-05 0.0000000e+00 
0.0000000e+00 -5.2405903e-05 0.0000000e+00 
0.0000000e+00 -5.1281782e-05 0.0000000e+00 
0.0000000e+00 -8.3241292e-05 0.0000000e+00 
0.0000000e+00 -1.1122779e-04 0.0000000e+00 
0.0000000e+00 -9.7283686e-05 0.0000000e+00 
0.0000000e+00 -7.1530150e-05 0.0000000e+00 
0.0000000e+00 -3.9353206e-05 0.0000000e+00 
0.0000000e+00 -5.3306502e-07 0.0000000e+00 
0.0000000e+00 -1.2339465e-06 0.0000000e+00 
0.0000000e+00 2.2966684e-05 0.0000000e+00 
0.0000000e+00 4.7514910e-05 0.0000000e+00 
0.0000000e+00 1.9612573e-05 0.0000000e+00 
0.0000000e+00 -2.0405313e-04 0.0000000e+00 
0.0000000e+00 -4.2831418e-04 0.0000000e+00 
0.0000000e+00 -5.2102486e-04 0.0000000e+00 
0.0000000e+00 -5.8227562e-04 0.0000000e+00 
0.0000000e+00 -5.0609524e-04 0.0000000e+00 
0.0000000e+00 -3.4491956e-04 0.0000000e+00 
0.0000000e+00 -1.5868070e-04 0.0000000e+00 
0.0000000e+00 -6.0362745e-06 0.0000000e+00 
0.0000000e+00 3.3113462e-05 0.0000000e+00 
0.0000000e+00 1.8597408e-05 0.0000000e+00 
0.0000000e+00 -3.4233281e-06 0.0000000e+00 
0.0000000e+00 -1.8080524e-05 0.0000000e+00 
0.0000000e+00 -1.5039931e-05 0.0000000e+00 
0.0000000e+00 3.3448218e-06 0.0000000e+00 
0.0000000e+00 1.3593364e-05 0.0000000e+00 
0.0000000e+00 9.4492980e-06 0.0000000e+00 
0.0000000e+00 -8.4545854e-07 0.0000000e+00 
0.0000000e+00 -7.5533890e-06 0.0000000e+00 
0.0000000e+00 -2.3816749e-06 0.0000000e+00 
0.0000000e+00 1.6095626e-06 0.0000000e+00 
-5.5361494e-07 1.3251722e-06 1.1067578e-06 
-3.6043834e-06 4.0700584e-06 5.3633516e-06 
-1.5862788e-06 7.5891789e-06 4.1854455e-06 
2.6262558e-06 7.0756141e-06 6.2668091e-06 
1.3225936e-07 -2.8504766e-07 8.3193612e-07 
2.9963118e-07 -1.8448577e-07 5.4065140e-07 
1.7935257e-07 4.3574713e-07 1.5712195e-07 
-7.7963556e-08 7.3925310e-07 -2.5541641e-07 
6.1065731e-07 -1.4363013e-06 3.5435497e-07 
-3.9932174e-06 7.2740494e-07 -2.1648948e-06 
-3.2338432e-06 -6.4124902e-07 1.4468479e-06 
-6.1545602e-06 -3.1757729e-06 3.0622261e-06 
-1.7278775e-06 7.1176678e-06 -3.2723610e-06 
7.7455279e-06 -1.5112644e-05 -5.4133643e-06 
1.6276770e-05 2.7035308e-06 -1.6016351e-05 
2.5405745e-05 -4.3120267e-06 -2.1417214e-05 
4.3282420e-05 -1.6364562e-05 -2.6509075e-05 
6.0105413e-05 -1.0078285e-05 -1.5767388e-05 
6.3164262e-05 -1.9003697e-05 -7.3903257e-06 
5.8065394e-05 -1.3959921e-05 3.8597639e-07 
4.8464251e-05 -7.0801025e-06 9.5319556e-06 
2.8280745e-05 -3.7612438e-06 7.3345768e-06 
7.7497216e-06 -3.0984020e-06 3.4444915e-06 
2.2197244e-07 -2.8377988e-06 2.3639634e-06 
-2.2576680e-06 -5.0407402e-06 -8.8132299e-07 
-2.5896475e-06 -1.7587838e-06 -7.3144616e-07 
-2.1590092e-06 6.4662386e-06 6.8113391e-06 
-1.1479132e-05 -3.4249028e-06 8.5050806e-06 
-1.5235458e-05 -1.1459933e-05 3.8094181e-06 