# vtk DataFile Version 4.0
vtk output
ASCII
DATASET UNSTRUCTURED_GRID
POINTS 1919 float
0.0000000e+00 0.0000000e+00 0.0000000e+00 
0.0000000e+00 0.0000000e+00 5.0000000e+01 
5.0000000e+00 0.0000000e+00 0.0000000e+00 
5.0000000e+00 0.0000000e+00 5.0000000e+01 
5.0000000e+00 1.0000000e+00 0.0000000e+00 
5.0000000e+00 1.0000000e+00 5.0000000e+01 
0.0000000e+00 1.0000000e+00 0.0000000e+00 
0.0000000e+00 1.0000000e+00 5.0000000e+01 
5.0000000e+00 2.0000000e+00 0.0000000e+00 
5.0000000e+00 2.0000000e+00 5.0000000e+01 
3.0000000e+00 2.0000000e+00 0.0000000e+00 
3.0000000e+00 2.0000000e+00 5.0000000e+01 
0.0000000e+00 2.0000000e+00 0.0000000e+00 
0.0000000e+00 2.0000000e+00 5.0000000e+01 
1.5000000e+00 3.0000000e+00 0.0000000e+00 
1.5000000e+00 3.0000000e+00 5.0000000e+01 
7.5000000e-01 3.0000000e+00 0.0000000e+00 
7.5000000e-01 3.0000000e+00 5.0000000e+01 
0.0000000e+00 3.0000000e+00 0.0000000e+00 
0.0000000e+00 3.0000000e+00 5.0000000e+01 
7.5000000e-01 3.0000000e+00 5.0000000e-01 
7.5000000e-01 3.0000000e+00 1.0000000e+00 
7.5000000e-01 3.0000000e+00 1.5000000e+00 
7.5000000e-01 3.0000000e+00 2.0000000e+00 
7.5000000e-01 3.0000000e+00 2.5000000e+00 
7.5000000e-01 3.0000000e+00 3.0000000e+00 
7.5000000e-01 3.0000000e+00 3.5000000e+00 
7.5000000e-01 3.0000000e+00 4.0000000e+00 
7.5000000e-01 3.0000000e+00 4.5000000e+00 
7.5000000e-01 3.0000000e+00 5.0000000e+00 
7.5000000e-01 3.0000000e+00 5.5000000e+00 
7.5000000e-01 3.0000000e+00 6.0000000e+00 
7.5000000e-01 3.0000000e+00 6.5000000e+00 
7.5000000e-01 3.0000000e+00 7.0000000e+00 
7.5000000e-01 3.0000000e+00 7.5000000e+00 
7.5000000e-01 3.0000000e+00 8.0000000e+00 
7.5000000e-01 3.0000000e+00 8.5000000e+00 
7.5000000e-01 3.0000000e+00 9.0000000e+00 
7.5000000e-01 3.0000000e+00 9.5000000e+00 
7.5000000e-01 3.0000000e+00 1.0000000e+01 
7.5000000e-01 3.0000000e+00 1.0500000e+01 
7.5000000e-01 3.0000000e+00 1.1000000e+01 
7.5000000e-01 3.0000000e+00 1.1500000e+01 
7.5000000e-01 3.0000000e+00 1.2000000e+01 
7.5000000e-01 3.0000000e+00 1.2500000e+01 
7.5000000e-01 3.0000000e+00 1.3000000e+01 
7.5000000e-01 3.0000000e+00 1.3500000e+01 
7.5000000e-01 3.0000000e+00 1.4000000e+01 
7.5000000e-01 3.0000000e+00 1.4500000e+01 
7.5000000e-01 3.0000000e+00 1.5000000e+01 
7.5000000e-01 3.0000000e+00 1.5500000e+01 
7.5000000e-01 3.0000000e+00 1.6000000e+01 
7.5000000e-01 3.0000000e+00 1.6500000e+01 
7.5000000e-01 3.0000000e+00 1.7000000e+01 
7.5000000e-01 3.0000000e+00 1.7500000e+01 
7.5000000e-01 3.0000000e+00 1.8000000e+01 
7.5000000e-01 3.0000000e+00 1.8500000e+01 
7.5000000e-01 3.0000000e+00 1.9000000e+01 
7.5000000e-01 3.0000000e+00 1.9500000e+01 
7.5000000e-01 3.0000000e+00 2.0000000e+01 
7.5000000e-01 3.0000000e+00 2.0500000e+01 
7.5000000e-01 3.0000000e+00 2.1000000e+01 
7.5000000e-01 3.0000000e+00 2.1500000e+01 
7.5000000e-01 3.0000000e+00 2.2000000e+01 
7.5000000e-01 3.0000000e+00 2.2500000e+01 
7.5000000e-01 3.0000000e+00 2.3000000e+01 
7.5000000e-01 3.0000000e+00 2.3500000e+01 
7.5000000e-01 3.0000000e+00 2.4000000e+01 
7.5000000e-01 3.0000000e+00 2.4500000e+01 
7.5000000e-01 3.0000000e+00 2.5000000e+01 
7.5000000e-01 3.0000000e+00 2.5500000e+01 
7.5000000e-01 3.0000000e+00 2.6000000e+01 
7.5000000e-01 3.0000000e+00 2.6500000e+01 
7.5000000e-01 3.0000000e+00 2.7000000e+01 
7.5000000e-01 3.0000000e+00 2.7500000e+01 
7.5000000e-01 3.0000000e+00 2.8000000e+01 
7.5000000e-01 3.0000000e+00 2.8500000e+01 
7.5000000e-01 3.0000000e+00 2.9000000e+01 
7.5000000e-01 3.0000000e+00 2.9500000e+01 
7.5000000e-01 3.0000000e+00 3.0000000e+01 
7.5000000e-01 3.0000000e+00 3.0500000e+01 
7.5000000e-01 3.0000000e+00 3.1000000e+01 
7.5000000e-01 3.0000000e+00 3.1500000e+01 
7.5000000e-01 3.0000000e+00 3.2000000e+01 
7.5000000e-01 3.0000000e+00 3.2500000e+01 
7.5000000e-01 3.0000000e+00 3.3000000e+01 
7.5000000e-01 3.0000000e+00 3.3500000e+01 
7.5000000e-01 3.0000000e+00 3.4000000e+01 
7.5000000e-01 3.0000000e+00 3.4500000e+01 
7.5000000e-01 3.0000000e+00 3.5000000e+01 
7.5000000e-01 3.0000000e+00 3.5500000e+01 
7.5000000e-01 3.0000000e+00 3.6000000e+01 
7.5000000e-01 3.0000000e+00 3.6500000e+01 
7.5000000e-01 3.0000000e+00 3.7000000e+01 
7.5000000e-01 3.0000000e+00 3.7500000e+01 
7.5000000e-01 3.0000000e+00 3.8000000e+01 
7.5000000e-01 3.0000000e+00 3.8500000e+01 
7.5000000e-01 3.0000000e+00 3.9000000e+01 
7.5000000e-01 3.0000000e+00 3.9500000e+01 
7.5000000e-01 3.0000000e+00 4.0000000e+01 
7.5000000e-01 3.0000000e+00 4.0500000e+01 
7.5000000e-01 3.0000000e+00 4.1000000e+01 
7.5000000e-01 3.0000000e+00 4.1500000e+01 
7.5000000e-01 3.0000000e+00 4.2000000e+01 
7.5000000e-01 3.0000000e+00 4.2500000e+01 
7.5000000e-01 3.0000000e+00 4.3000000e+01 
7.5000000e-01 3.0000000e+00 4.3500000e+01 
7.5000000e-01 3.0000000e+00 4.4000000e+01 
7.5000000e-01 3.0000000e+00 4.4500000e+01 
7.5000000e-01 3.0000000e+00 4.5000000e+01 
7.5000000e-01 3.0000000e+00 4.5500000e+01 
7.5000000e-01 3.0000000e+00 4.6000000e+01 
7.5000000e-01 3.0000000e+00 4.6500000e+01 
7.5000000e-01 3.0000000e+00 4.7000000e+01 
7.5000000e-01 3.0000000e+00 4.7500000e+01 
7.5000000e-01 3.0000000e+00 4.8000000e+01 
7.5000000e-01 3.0000000e+00 4.8500000e+01 
7.5000000e-01 3.0000000e+00 4.9000000e+01 
7.5000000e-01 3.0000000e+00 4.9500000e+01 
7.5000000e-01 3.0250001e+00 0.0000000e+00 
7.5000000e-01 3.0250001e+00 5.0000000e-01 
7.5000000e-01 3.0250001e+00 1.0000000e+00 
7.5000000e-01 3.0250001e+00 1.5000000e+00 
7.5000000e-01 3.0250001e+00 2.0000000e+00 
7.5000000e-01 3.0250001e+00 2.5000000e+00 
7.5000000e-01 3.0250001e+00 3.0000000e+00 
7.5000000e-01 3.0250001e+00 3.5000000e+00 
7.5000000e-01 3.0250001e+00 4.0000000e+00 
7.5000000e-01 3.0250001e+00 4.5000000e+00 
7.5000000e-01 3.0250001e+00 5.0000000e+00 
7.5000000e-01 3.0250001e+00 5.5000000e+00 
7.5000000e-01 3.0250001e+00 6.0000000e+00 
7.5000000e-01 3.0250001e+00 6.5000000e+00 
7.5000000e-01 3.0250001e+00 7.0000000e+00 
7.5000000e-01 3.0250001e+00 7.5000000e+00 
7.5000000e-01 3.0250001e+00 8.0000000e+00 
7.5000000e-01 3.0250001e+00 8.5000000e+00 
7.5000000e-01 3.0250001e+00 9.0000000e+00 
7.5000000e-01 3.0250001e+00 9.5000000e+00 
7.5000000e-01 3.0250001e+00 1.0000000e+01 
7.5000000e-01 3.0250001e+00 1.0500000e+01 
7.5000000e-01 3.0250001e+00 1.1000000e+01 
7.5000000e-01 3.0250001e+00 1.1500000e+01 
7.5000000e-01 3.0250001e+00 1.2000000e+01 
7.5000000e-01 3.0250001e+00 1.2500000e+01 
7.5000000e-01 3.0250001e+00 1.3000000e+01 
7.5000000e-01 3.0250001e+00 1.3500000e+01 
7.5000000e-01 3.0250001e+00 1.4000000e+01 
7.5000000e-01 3.0250001e+00 1.4500000e+01 
7.5000000e-01 3.0250001e+00 1.5000000e+01 
7.5000000e-01 3.0250001e+00 1.5500000e+01 
7.5000000e-01 3.0250001e+00 1.6000000e+01 
7.5000000e-01 3.0250001e+00 1.6500000e+01 
7.5000000e-01 3.0250001e+00 1.7000000e+01 
7.5000000e-01 3.0250001e+00 1.7500000e+01 
7.5000000e-01 3.0250001e+00 1.8000000e+01 
7.5000000e-01 3.0250001e+00 1.8500000e+01 
7.5000000e-01 3.0250001e+00 1.9000000e+01 
7.5000000e-01 3.0250001e+00 1.9500000e+01 
7.5000000e-01 3.0250001e+00 2.0000000e+01 
7.5000000e-01 3.0250001e+00 2.0500000e+01 
7.5000000e-01 3.0250001e+00 2.1000000e+01 
7.5000000e-01 3.0250001e+00 2.1500000e+01 
7.5000000e-01 3.0250001e+00 2.2000000e+01 
7.5000000e-01 3.0250001e+00 2.2500000e+01 
7.5000000e-01 3.0250001e+00 2.3000000e+01 
7.5000000e-01 3.0250001e+00 2.3500000e+01 
7.5000000e-01 3.0250001e+00 2.4000000e+01 
7.5000000e-01 3.0250001e+00 2.4500000e+01 
7.5000000e-01 3.0250001e+00 2.5000000e+01 
7.5000000e-01 3.0250001e+00 2.5500000e+01 
7.5000000e-01 3.0250001e+00 2.6000000e+01 
7.5000000e-01 3.0250001e+00 2.6500000e+01 
7.5000000e-01 3.0250001e+00 2.7000000e+01 
7.5000000e-01 3.0250001e+00 2.7500000e+01 
7.5000000e-01 3.0250001e+00 2.8000000e+01 
7.5000000e-01 3.0250001e+00 2.8500000e+01 
7.5000000e-01 3.0250001e+00 2.9000000e+01 
7.5000000e-01 3.0250001e+00 2.9500000e+01 
7.5000000e-01 3.0250001e+00 3.0000000e+01 
7.5000000e-01 3.0250001e+00 3.0500000e+01 
7.5000000e-01 3.0250001e+00 3.1000000e+01 
7.5000000e-01 3.0250001e+00 3.1500000e+01 
7.5000000e-01 3.0250001e+00 3.2000000e+01 
7.5000000e-01 3.0250001e+00 3.2500000e+01 
7.5000000e-01 3.0250001e+00 3.3000000e+01 
7.5000000e-01 3.0250001e+00 3.3500000e+01 
7.5000000e-01 3.0250001e+00 3.4000000e+01 
7.5000000e-01 3.0250001e+00 3.4500000e+01 
7.5000000e-01 3.0250001e+00 3.5000000e+01 
7.5000000e-01 3.0250001e+00 3.5500000e+01 
7.5000000e-01 3.0250001e+00 3.6000000e+01 
7.5000000e-01 3.0250001e+00 3.6500000e+01 
7.5000000e-01 3.0250001e+00 3.7000000e+01 
7.5000000e-01 3.0250001e+00 3.7500000e+01 
7.5000000e-01 3.0250001e+00 3.8000000e+01 
7.5000000e-01 3.0250001e+00 3.8500000e+01 
7.5000000e-01 3.0250001e+00 3.9000000e+01 
7.5000000e-01 3.0250001e+00 3.9500000e+01 
7.5000000e-01 3.0250001e+00 4.0000000e+01 
7.5000000e-01 3.0250001e+00 4.0500000e+01 
7.5000000e-01 3.0250001e+00 4.1000000e+01 
7.5000000e-01 3.0250001e+00 4.1500000e+01 
7.5000000e-01 3.0250001e+00 4.2000000e+01 
7.5000000e-01 3.0250001e+00 4.2500000e+01 
7.5000000e-01 3.0250001e+00 4.3000000e+01 
7.5000000e-01 3.0250001e+00 4.3500000e+01 
7.5000000e-01 3.0250001e+00 4.4000000e+01 
7.5000000e-01 3.0250001e+00 4.4500000e+01 
7.5000000e-01 3.0250001e+00 4.5000000e+01 
7.5000000e-01 3.0250001e+00 4.5500000e+01 
7.5000000e-01 3.0250001e+00 4.6000000e+01 
7.5000000e-01 3.0250001e+00 4.6500000e+01 
7.5000000e-01 3.0250001e+00 4.7000000e+01 
7.5000000e-01 3.0250001e+00 4.7500000e+01 
7.5000000e-01 3.0250001e+00 4.8000000e+01 
7.5000000e-01 3.0250001e+00 4.8500000e+01 
7.5000000e-01 3.0250001e+00 4.9000000e+01 
7.5000000e-01 3.0250001e+00 4.9500000e+01 
7.5000000e-01 3.0250001e+00 5.0000000e+01 
3.0000000e+00 2.0000000e+00 3.6000000e+01 
8.0487806e-01 3.0000000e+00 3.6000000e+01 
0.0000000e+00 0.0000000e+00 1.0000000e+00 
0.0000000e+00 0.0000000e+00 2.0000000e+00 
0.0000000e+00 0.0000000e+00 3.0000000e+00 
0.0000000e+00 0.0000000e+00 4.0000000e+00 
0.0000000e+00 0.0000000e+00 5.0000000e+00 
0.0000000e+00 0.0000000e+00 6.0000000e+00 
0.0000000e+00 0.0000000e+00 7.0000000e+00 
0.0000000e+00 0.0000000e+00 8.0000000e+00 
[...]
POINT_DATA 1919
FIELD FieldData 3
DISPLACEMENT 3 1919  float
0.0000000e+00 0.0000000e+00 0.0000000e+00 
0.0000000e+00 0.0000000e+00 0.0000000e+00 
0.0000000e+00 0.0000000e+00 0.0000000e+00 
0.0000000e+00 0.0000000e+00 0.0000000e+00 
1.2185754e-06 2.3106802e-06 1.9748875e-06 
4.3957591e-08 -3.0000855e-08 3.1764853e-07 
0.0000000e+00 -2.1172367e-05 0.0000000e+00 
0.0000000e+00 2.5354439e-07 0.0000000e+00 
-2.4700269e-06 6.7389681e-07 3.2503244e-06 
-1.1805655e-08 1.1466273e-07 2.8602827e-07 
-5.7764037e-06 7.5790354e-06 2.1228918e-06 
3.0605747e-07 -3.6654257e-07 9.3104057e-07 
0.0000000e+00 -4.9439794e-05 0.0000000e+00 
0.0000000e+00 6.9492233e-07 0.0000000e+00 
-8.6006576e-06 -5.5573677e-05 -1.2213645e-06 
-1.1917065e-06 5.2307695e-07 -6.1296618e-08 
-1.0280146e-05 1.0909715e-05 -7.2144849e-06 
8.7532061e-07 -2.4653389e-07 -1.8569343e-06 
0.0000000e+00 -1.1255140e-04 0.0000000e+00 
0.0000000e+00 8.6306909e-07 0.0000000e+00 
1.0607049e-05 6.7012729e-06 -1.0224792e-05 
-1.1292992e-05 7.2821882e-07 -7.5951993e-06 
1.4144969e-06 5.3209992e-06 -1.4307058e-05 
1.8841400e-05 2.3459723e-05 -1.3989865e-05 
1.9352963e-05 4.5612021e-05 -5.6777699e-06 
1.9910269e-05 5.0952858e-05 -4.4065418e-06 
1.2036938e-05 3.4350007e-05 6.2479744e-06 
1.5606220e-05 2.3203285e-05 3.4163099e-06 
5.4815735e-07 4.4375076e-05 7.0010401e-06 
-8.9322411e-06 9.0217203e-05 -1.3350826e-05 
2.7124775e-06 1.2869999e-04 -8.2500574e-06 
1.6506800e-05 1.1168028e-04 2.4267059e-05 
-1.3295587e-05 1.7150007e-05 5.8013211e-05 
-8.8481238e-06 -1.6248357e-04 8.3581341e-05 
-2.1882784e-05 -4.5902800e-04 1.4432542e-04 
-8.4656407e-05 -9.4235619e-04 9.3481955e-05 
-8.7441833e-05 -1.7074613e-03 2.0260407e-04 
-1.4822962e-04 -2.7826119e-03 8.8350782e-05 
-2.3036743e-04 -4.0323404e-03 1.7883959e-04 
-2.8256144e-04 -4.9322499e-03 2.6719434e-05 
-3.1783205e-04 -4.9695447e-03 -5.2727000e-06 
-3.6059844e-04 -4.6622958e-03 -9.7371245e-05 
-3.5785756e-04 -4.5700707e-03 -1.3691928e-04 
-3.3656566e-04 -4.7268574e-03 -1.8770644e-04 
-2.7734411e-04 -4.7493265e-03 -2.2411205e-04 
-1.8828711e-04 -3.9535607e-03 -1.3759441e-04 
-1.4265269e-04 -2.7858387e-03 -2.3049637e-04 
-1.0236979e-04 -1.6680354e-03 -1.1278474e-04 
-5.1703075e-05 -8.1716571e-04 -1.5435892e-04 
-9.8343253e-06 -2.6163558e-04 -6.9741458e-05 
5.0103663e-06 4.8851918e-05 -8.6738277e-05 
2.1208018e-05 1.9606622e-04 -4.6711797e-05 
5.2208623e-05 2.5015735e-04 -1.2097848e-05 
6.4282016e-05 2.5320129e-04 3.7393998e-05 
4.7477930e-05 2.3380207e-04 7.6915479e-05 
2.9073581e-05 2.1696844e-04 8.3171697e-05 
-2.8913460e-06 2.2265584e-04 3.1971762e-05 
2.1819411e-05 2.5199816e-04 -2.8718254e-05 
4.2376796e-05 2.8758851e-04 -5.5826673e-05 
7.0183785e-05 3.0332687e-04 -5.5664816e-05 
7.4443429e-05 2.8770595e-04 -2.2611215e-05 
7.1842936e-05 2.5902168e-04 3.1125350e-05 
6.6787448e-05 2.3841088e-04 6.6645029e-05 
6.0050665e-05 2.3355010e-04 6.6385270e-05 
5.6636894e-05 2.3108358e-04 7.1887844e-05 
5.8877333e-05 2.0836234e-04 6.3255313e-05 
4.6744746e-05 1.6207574e-04 5.9206290e-05 
4.8830192e-05 1.1282555e-04 6.6815119e-05 
2.3889372e-05 9.0271889e-05 6.0767128e-05 
2.9596431e-05 1.1242914e-04 5.3722779e-05 
2.5801153e-05 1.5356868e-04 7.2001065e-05 
1.6673814e-05 1.4745205e-04 5.6123215e-05 
1.4274709e-05 3.7033547e-05 6.2113773e-05 
-2.8540519e-06 -2.1278829e-04 6.3613086e-05 
-5.3137923e-05 -6.0645718e-04 1.1238069e-04 
-1.1874453e-04 -1.1615503e-03 6.8599657e-05 
-1.6245458e-04 -1.9393392e-03 1.7347407e-04 
-2.3934033e-04 -2.9473675e-03 3.3885797e-05 
-2.9668637e-04 -4.0682931e-03 9.3745104e-05 
-3.6958302e-04 -4.8406534e-03 -4.5911420e-05 
-3.8643237e-04 -4.8683723e-03 -1.0921317e-04 
-3.6114629e-04 -4.6180170e-03 -1.3914614e-04 
-3.2890332e-04 -4.5836740e-03 -1.4860049e-04 
-3.2348328e-04 -4.7186306e-03 -2.1295951e-04 
-3.1936207e-04 -4.6238219e-03 -2.8059355e-04 
-2.4283412e-04 -3.7220204e-03 -2.0046876e-04 
-1.6252288e-04 -2.5248399e-03 -3.0062409e-04 
-6.6501285e-05 -1.4444360e-03 -1.1587179e-04 
-3.2613360e-05 -6.8583584e-04 -1.0571811e-04 
2.5871468e-05 -2.3087504e-04 -3.2927867e-06 
8.7840908e-06 6.3333511e-07 3.3665510e-05 
-9.8663713e-06 9.5775627e-05 5.2757565e-05 
-2.3975343e-05 1.0946297e-04 3.9635961e-05 
-3.1069132e-05 8.1704558e-05 3.6935569e-05 
-2.6602145e-05 4.7423062e-05 3.3986231e-05 
-2.1422295e-05 2.5087362e-05 1.3216703e-05 
-1.3612505e-05 2.2334407e-05 -2.4602199e-05 
-7.8597186e-06 3.1166834e-05 -5.5807592e-05 
-2.1390240e-06 4.0342169e-05 -6.8374233e-05 
1.1048640e-05 4.3710883e-05 -5.9312730e-05 
2.2658820e-05 4.0245472e-05 -3.3372358e-05 
1.5586855e-05 3.1560085e-05 -1.2746892e-06 
1.1415546e-05 1.7023944e-05 2.2883523e-05 
2.2440859e-06 -1.3651804e-06 2.7391427e-05 
-7.7419018e-06 -1.9031857e-05 2.2393147e-05 
-6.4908254e-06 -2.9924955e-05 8.5055890e-06 
-9.1793918e-06 -2.9422452e-05 -3.3324436e-06 
-9.6039730e-06 -1.9942678e-05 -1.3522313e-05 
-5.5130090e-07 -7.2661860e-06 -1.1009416e-05 
1.7196760e-06 2.7326616e-06 -6.9338803e-06 
4.2080233e-06 7.5253238e-06 -3.5118755e-06 
3.9783395e-06 8.2015085e-06 -3.0849290e-07 
4.0217442e-06 6.5229247e-06 2.6995160e-06 
2.8230991e-06 3.8330650e-06 4.0407390e-06 
4.3016038e-07 9.5043703e-07 4.6342452e-06 
-7.9455623e-07 -1.3081305e-06 3.5069613e-06 
-1.4868779e-06 -2.2235572e-06 2.0838397e-06 
-1.8484895e-06 -1.8200865e-06 1.0765521e-06 
-1.4428788e-06 -7.9064932e-07 -1.6386538e-07 
0.0000000e+00 1.0187979e-05 0.0000000e+00 
0.0000000e+00 6.3502680e-06 0.0000000e+00 
0.0000000e+00 1.4550445e-06 0.0000000e+00 
0.0000000e+00 6.4645492e-06 0.0000000e+00 
0.0000000e+00 2.4446823e-05 0.0000000e+00 
0.0000000e+00 4.4824570e-05 0.0000000e+00 
0.0000000e+00 4.8860424e-05 0.0000000e+00 
0.0000000e+00 3.3911034e-05 0.0000000e+00 
0.0000000e+00 2.4912839e-05 0.0000000e+00 
0.0000000e+00 4.6197471e-05 0.0000000e+00 
0.0000000e+00 9.1779795e-05 0.0000000e+00 
0.0000000e+00 1.2780774e-04 0.0000000e+00 
0.0000000e+00 1.1059584e-04 0.0000000e+00 
0.0000000e+00 1.7542236e-05 0.0000000e+00 
0.0000000e+00 -1.6092560e-04 0.0000000e+00 
0.0000000e+00 -4.5745008e-04 0.0000000e+00 
0.0000000e+00 -9.4492751e-04 0.0000000e+00 
0.0000000e+00 -1.7152395e-03 0.0000000e+00 
0.0000000e+00 -2.8021010e-03 0.0000000e+00 
0.0000000e+00 -4.0533631e-03 0.0000000e+00 
0.0000000e+00 -4.9608038e-03 0.0000000e+00 
0.0000000e+00 -4.9899700e-03 0.0000000e+00 
0.0000000e+00 -4.6890075e-03 0.0000000e+00 
0.0000000e+00 -4.5918794e-03 0.0000000e+00 
0.0000000e+00 -4.7614374e-03 0.0000000e+00 
0.0000000e+00 -4.7706780e-03 0.0000000e+00 
0.0000000e+00 -3.9757858e-03 0.0000000e+00 
0.0000000e+00 -2.7977424e-03 0.0000000e+00 
0.0000000e+00 -1.6777936e-03 0.0000000e+00 
0.0000000e+00 -8.2095200e-04 0.0000000e+00 
0.0000000e+00 -2.6246801e-04 0.0000000e+00 
0.0000000e+00 4.9982424e-05 0.0000000e+00 
0.0000000e+00 1.9763307e-04 0.0000000e+00 
0.0000000e+00 2.5070811e-04 0.0000000e+00 
0.0000000e+00 2.5330135e-04 0.0000000e+00 
0.0000000e+00 2.3414819e-04 0.0000000e+00 
0.0000000e+00 2.1806541e-04 0.0000000e+00 
0.0000000e+00 2.2375387e-04 0.0000000e+00 
0.0000000e+00 2.5258327e-04 0.0000000e+00 
0.0000000e+00 2.8702608e-04 0.0000000e+00 
0.0000000e+00 3.0193961e-04 0.0000000e+00 
0.0000000e+00 2.8747454e-04 0.0000000e+00 
0.0000000e+00 2.5965786e-04 0.0000000e+00 
0.0000000e+00 2.3962339e-04 0.0000000e+00 
0.0000000e+00 2.3435590e-04 0.0000000e+00 
0.0000000e+00 2.3054754e-04 0.0000000e+00 
0.0000000e+00 2.0744374e-04 0.0000000e+00 
0.0000000e+00 1.6147150e-04 0.0000000e+00 
0.0000000e+00 1.1302469e-04 0.0000000e+00 
0.0000000e+00 9.2224982e-05 0.0000000e+00 
0.0000000e+00 1.1466711e-04 0.0000000e+00 
0.0000000e+00 1.5406807e-04 0.0000000e+00 
0.0000000e+00 1.4717455e-04 0.0000000e+00 
0.0000000e+00 3.5277029e-05 0.0000000e+00 
0.0000000e+00 -2.1293848e-04 0.0000000e+00 
0.0000000e+00 -6.0499948e-04 0.0000000e+00 
0.0000000e+00 -1.1641326e-03 0.0000000e+00 
0.0000000e+00 -1.9454358e-03 0.0000000e+00 
0.0000000e+00 -2.9656496e-03 0.0000000e+00 
0.0000000e+00 -4.0887007e-03 0.0000000e+00 
0.0000000e+00 -4.8714047e-03 0.0000000e+00 
0.0000000e+00 -4.8872735e-03 0.0000000e+00 
0.0000000e+00 -4.6455353e-03 0.0000000e+00 
0.0000000e+00 -4.6031447e-03 0.0000000e+00 
0.0000000e+00 -4.7497759e-03 0.0000000e+00 
0.0000000e+00 -4.6451595e-03 0.0000000e+00 
0.0000000e+00 -3.7464397e-03 0.0000000e+00 
0.0000000e+00 -2.5361846e-03 0.0000000e+00 
0.0000000e+00 -1.4548642e-03 0.0000000e+00 
0.0000000e+00 -6.8824278e-04 0.0000000e+00 
0.0000000e+00 -2.3055103e-04 0.0000000e+00 
0.0000000e+00 2.1508272e-06 0.0000000e+00 
0.0000000e+00 9.6279437e-05 0.0000000e+00 
0.0000000e+00 1.0974027e-04 0.0000000e+00 
0.0000000e+00 8.2812265e-05 0.0000000e+00 
0.0000000e+00 4.8092210e-05 0.0000000e+00 
0.0000000e+00 2.5694844e-05 0.0000000e+00 
0.0000000e+00 2.2329106e-05 0.0000000e+00 
0.0000000e+00 3.0885378e-05 0.0000000e+00 
0.0000000e+00 4.0182229e-05 0.0000000e+00 
0.0000000e+00 4.3654432e-05 0.0000000e+00 
0.0000000e+00 4.0317344e-05 0.0000000e+00 
0.0000000e+00 3.1344065e-05 0.0000000e+00 
0.0000000e+00 1.6877775e-05 0.0000000e+00 
0.0000000e+00 -1.3535761e-06 0.0000000e+00 
0.0000000e+00 -1.8881954e-05 0.0000000e+00 
0.0000000e+00 -2.9573574e-05 0.0000000e+00 
0.0000000e+00 -2.9309876e-05 0.0000000e+00 
0.0000000e+00 -1.9997779e-05 0.0000000e+00 
0.0000000e+00 -7.4492696e-06 0.0000000e+00 
0.0000000e+00 2.5715933e-06 0.0000000e+00 
0.0000000e+00 7.5115913e-06 0.0000000e+00 
0.0000000e+00 8.2257702e-06 0.0000000e+00 
0.0000000e+00 6.5416148e-06 0.0000000e+00 
0.0000000e+00 3.8359308e-06 0.0000000e+00 
0.0000000e+00 9.6724784e-07 0.0000000e+00 
0.0000000e+00 -1.2678670e-06 0.0000000e+00 
0.0000000e+00 -2.2013664e-06 0.0000000e+00 
0.0000000e+00 -1.8112811e-06 0.0000000e+00 
0.0000000e+00 -8.0863776e-07 0.0000000e+00 
0.0000000e+00 -2.7478984e-07 0.0000000e+00 
1.2105277e-05 -1.6696460e-05 3.8061517e-05 
-8.8604938e-06 9.5981450e-05 5.6301560e-05 
0.0000000e+00 0.0000000e+00 0.0000000e+00 
0.0000000e+00 0.0000000e+00 0.0000000e+00 
0.0000000e+00 0.0000000e+00 0.0000000e+00 
0.0000000e+00 0.0000000e+00 0.0000000e+00 
0.0000000e+00 0.0000000e+00 0.0000000e+00 
0.0000000e+00 0.0000000e+00 0.0000000e+00 
0.0000000e+00 0.0000000e+00 0.0000000e+00 
0.0000000e+00 0.0000000e+00 0.0000000e+00 
0.0000000e+00 0.0000000e+00 0.0000000e+00 
0.0000000e+00 0.0000000e+00 0.0000000e+00 
0.0000000e+00 0.0000000e+00 0.0000000e+00 
0.0000000e+00 0.0000000e+00 0.0000000e+00 
0.0000000e+00 0.0000000e+00 0.0000000e+00 
0.0000000e+00 0.0000000e+00 0.0000000e+00 
0.0000000e+00 0.0000000e+00 0.0000000e+00 
0.0000000e+00 0.0000000e+00 0.0000000e+00 
0.0000000e+00 0.0000000e+00 0.0000000e+00 
0.0000000e+00 0.0000000e+00 0.0000000e+00 
0.0000000e+00 0.0000000e+00 0.0000000e+00 
0.0000000e+00 0.0000000e+00 0.0000000e+00 
0.0000000e+00 0.0000000e+00 0.0000000e+00 
0.0000000e+00 0.0000000e+00 0.0000000e+00 
0.0000000e+00 0.0000000e+00 0.0000000e+00 
0.0000000e+00 0.0000000e+00 0.0000000e+00 
0.0000000e+00 0.0000000e+00 0.0000000e+00 
0.0000000e+00 0.0000000e+00 0.0000000e+00 
0.0000000e+00 0.0000000e+00 0.0000000e+00 
0.0000000e+00 0.0000000e+00 0.0000000e+00 
0.0000000e+00 0.0000000e+00 0.0000000e+00 
0.0000000e+00 0.0000000e+00 0.0000000e+00 
0.0000000e+00 0.0000000e+00 0.0000000e+00 
0.0000000e+00 0.0000000e+00 0.0000000e+00 
0.0000000e+00 0.0000000e+00 0.0000000e+00 
0.0000000e+00 0.0000000e+00 0.0000000e+00 
0.0000000e+00 0.0000000e+00 0.0000000e+00 
0.0000000e+00 0.0000000e+00 0.0000000e+00 
0.0000000e+00 0.0000000e+00 0.0000000e+00 
0.0000000e+00 0.0000000e+00 0.0000000e+00 
0.0000000e+00 0.0000000e+00 0.0000000e+00 
0.0000000e+00 0.0000000e+00 0.0000000e+00 
0.0000000e+00 0.0000000e+00 0.0000000e+00 
0.0000000e+00 0.0000000e+00 0.0000000e+00 
0.0000000e+00 0.0000000e+00 0.0000000e+00 
0.0000000e+00 0.0000000e+00 0.0000000e+00 
0.0000000e+00 0.0000000e+00 0.0000000e+00 
0.0000000e+00 0.0000000e+00 0.0000000e+00 
0.0000000e+00 0.0000000e+00 0.0000000e+00 
0.0000000e+00 0.0000000e+00 0.0000000e+00 
0.0000000e+00 0.0000000e+00 0.0000000e+00 
0.0000000e+00 0.0000000e+00 0.0000000e+00 
0.0000000e+00 0.0000000e+00 0.0000000e+00 
0.0000000e+00 0.0000000e+00 0.0000000e+00 
0.0000000e+00 0.0000000e+00 0.0000000e+00 
0.0000000e+00 0.0000000e+00 0.0000000e+00 
0.0000000e+00 0.0000000e+00 0.0000000e+00 
0.0000000e+00 0.0000000e+00 0.0000000e+00 
0.0000000e+00 0.0000000e+00 0.0000000e+00 
0.0000000e+00 0.0000000e+00 0.0000000e+00 
0.0000000e+00 0.0000000e+00 0.0000000e+00 
0.0000000e+00 0.0000000e+00 0.0000000e+00 
0.0000000e+00 0.0000000e+00 0.0000000e+00 
0.0000000e+00 0.0000000e+00 0.0000000e+00 
0.0000000e+00 0.0000000e+00 0.0000000e+00 
0.0000000e+00 0.0000000e+00 0.0000000e+00 
0.0000000e+00 0.0000000e+00 0.0000000e+00 
0.0000000e+00 0.0000000e+00 0.0000000e+00 
0.0000000e+00 0.0000000e+00 0.0000000e+00 
0.0000000e+00 0.0000000e+00 0.0000000e+00 
0.0000000e+00 0.0000000e+00 0.0000000e+00 
0.0000000e+00 0.0000000e+00 0.0000000e+00 
0.0000000e+00 0.0000000e+00 0.0000000e+00 
0.0000000e+00 0.0000000e+00 0.0000000e+00 
0.0000000e+00 0.0000000e+00 0.0000000e+00 
0.0000000e+00 0.0000000e+00 0.0000000e+00 
0.0000000e+00 0.0000000e+00 0.0000000e+00 
0.0000000e+00 0.0000000e+00 0.0000000e+00 
0.0000000e+00 0.0000000e+00 0.0000000e+00 
0.0000000e+00 0.0000000e+00 0.0000000e+00 
0.0000000e+00 0.0000000e+00 0.0000000e+00 
0.0000000e+00 0.0000000e+00 0.0000000e+00 
0.0000000e+00 0.0000000e+00 0.0000000e+00 
0.0000000e+00 0.0000000e+00 0.0000000e+00 
0.0000000e+00 0.0000000e+00 0.0000000e+00 
0.0000000e+00 0.0000000e+00 0.0000000e+00 
0.0000000e+00 0.0000000e+00 0.0000000e+00 
0.0000000e+00 0.0000000e+00 0.0000000e+00 
0.0000000e+00 0.0000000e+00 0.0000000e+00 
0.0000000e+00 0.0000000e+00 0.0000000e+00 
0.0000000e+00 0.0000000e+00 0.0000000e+00 
0.0000000e+00 0.0000000e+00 0.0000000e+00 
0.0000000e+00 0.0000000e+00 0.0000000e+00 
0.0000000e+00 0.0000000e+00 0.0000000e+00 
0.0000000e+00 0.0000000e+00 0.0000000e+00 
0.0000000e+00 0.0000000e+00 0.0000000e+00 
0.0000000e+00 0.0000000e+00 0.0000000e+00 
0.0000000e+00 0.0000000e+00 0.0000000e+00 
0.0000000e+00 0.0000000e+00 0.0000000e+00 
0.0000000e+00 0.0000000e+00 0.0000000e+00 
0.0000000e+00 0.0000000e+00 0.0000000e+00 
0.0000000e+00 0.0000000e+00 0.0000000e+00 
0.0000000e+00 0.0000000e+00 0.0000000e+00 
0.0000000e+00 0.0000000e+00 0.0000000e+00 
0.0000000e+00 0.0000000e+00 0.0000000e+00 
0.0000000e+00 0.0000000e+00 0.0000000e+00 
0.0000000e+00 0.0000000e+00 0.0000000e+00 
0.0000000e+00 0.0000000e+00 0.0000000e+00 
-1.7778063e-06 2.1962123e-06 8.9397469e-07 
8.0094338e-07 -1.8747303e-06 -5.5110108e-06 
4.5926081e-06 -4.4273338e-06 -4.2713250e-06 
3.7642765e-06 -1.4556558e-06 -7.9434176e-06 
4.6309665e-06 2.9657605e-07 -1.3042793e-05 
3.0509098e-06 -1.4085510e-05 -1.1792422e-05 
9.0848634e-06 -6.4704509e-06 -1.8798859e-05 
2.0040827e-05 -1.9309377e-05 -2.3864708e-05 
3.4035605e-05 -1.5173152e-05 -2.2307939e-05 
4.7573860e-05 -1.0049557e-05 -9.5355872e-06 
5.0231491e-05 -1.1186433e-05 3.2483263e-06 
4.3409469e-05 -7.1647119e-06 1.5873115e-05 
3.8043381e-05 -7.2994094e-06 2.4221001e-05 
2.3915429e-05 -1.0992324e-05 2.6202242e-05 
8.0177933e-06 -1.4798286e-05 2.3739121e-05 
2.9931125e-06 -1.4241727e-05 1.9121973e-05 
4.8604161e-06 -9.1104348e-06 1.2713243e-05 
2.9615940e-06 -2.3071646e-06 1.3019539e-05 
-1.8637054e-06 1.9101367e-06 9.5114137e-06 
-8.2832030e-06 2.6445596e-06 1.3490548e-07 
-1.1578103e-05 2.3508574e-06 -6.4510141e-06 
-2.8553125e-06 1.7931068e-06 -7.1201625e-06 
3.2217849e-06 -5.2422561e-06 -3.1389930e-06 
5.7877531e-07 -1.4217331e-06 -3.1609197e-06 
5.2456735e-06 -5.4591173e-06 -1.0795834e-05 
1.1218012e-05 -1.3163807e-05 -2.0447262e-05 
1.7747383e-05 -9.0247249e-06 -2.6565567e-05 
2.7113150e-05 -1.0064266e-05 -2.3952662e-05 
3.6520658e-05 -1.6563343e-05 -2.3437697e-05 
4.6347697e-05 -7.6066494e-06 -1.3379304e-05 
4.5158788e-05 -5.2871355e-06 1.3670216e-06 
3.6857782e-05 -1.0350183e-05 1.1433794e-05 
2.6784086e-05 -7.5603011e-06 1.8262434e-05 
2.0471711e-05 -9.9996196e-06 2.2330762e-05 
1.7041770e-05 -9.2696719e-06 1.8585260e-05 
1.3429608e-05 -6.0120296e-06 1.6556602e-05 
6.2577610e-06 -2.2143768e-06 1.2714077e-05 
2.3170408e-06 -1.0122337e-06 7.8995809e-06 
-1.5609439e-06 9.7282418e-07 2.6432633e-06 
-3.2703363e-06 2.4592871e-06 -2.6632522e-06 
-2.2440895e-06 8.6395272e-07 -3.4398797e-06 
3.0021849e-07 -9.8687030e-07 -1.9410636e-06 
2.0039963e-06 -8.0228710e-07 5.3124711e-07 
1.1375797e-06 3.3131446e-08 1.7015425e-06 
-4.7572055e-08 -1.1911346e-07 7.7457776e-07 
-4.7100207e-07 7.0909351e-08 -2.4417074e-07 
-4.8611031e-07 4.7752644e-07 -7.7934334e-07 
-1.8287636e-08 6.6553156e-08 -3.2127500e-07 
1.5620979e-07 -2.7326499e-07 2.2401716e-07 
0.0000000e+00 -6.0174050e-05 0.0000000e+00 
0.0000000e+00 -5.3227621e-05 0.0000000e+00 
0.0000000e+00 -7.6049320e-05 0.0000000e+00 
0.0000000e+00 -9.1214228e-05 0.0000000e+00 
0.0000000e+00 -4.4844750e-05 0.0000000e+00 
0.0000000e+00 -6.4282918e-05 0.0000000e+00 
0.0000000e+00 -1.2369112e-04 0.0000000e+00 
0.0000000e+00 -1.8701948e-04 0.0000000e+00 
0.0000000e+00 -3.6809608e-04 0.0000000e+00 
0.0000000e+00 -5.1881507e-04 0.0000000e+00 
0.0000000e+00 -4.9077463e-04 0.0000000e+00 
0.0000000e+00 -4.7048187e-04 0.0000000e+00 
0.0000000e+00 -3.6822355e-04 0.0000000e+00 
0.0000000e+00 -2.2071255e-04 0.0000000e+00 
0.0000000e+00 -8.1696431e-05 0.0000000e+00 
0.0000000e+00 -1.1560020e-07 0.0000000e+00 
0.0000000e+00 -1.6920931e-05 0.0000000e+00 
0.0000000e+00 -3.3690347e-05 0.0000000e+00 
0.0000000e+00 -2.2913224e-05 0.0000000e+00 
0.0000000e+00 -2.0806066e-05 0.0000000e+00 
0.0000000e+00 -2.1040141e-05 0.0000000e+00 
0.0000000e+00 -1.4184481e-05 0.0000000e+00 
0.0000000e+00 -7.5800919e-05 0.0000000e+00 
0.0000000e+00 -8.5258805e-05 0.0000000e+00 
0.0000000e+00 -4.9710154e-05 0.0000000e+00 
0.0000000e+00 -7.2876239e-05 0.0000000e+00 
0.0000000e+00 -1.6324238e-04 0.0000000e+00 
0.0000000e+00 -1.9389096e-04 0.0000000e+00 
0.0000000e+00 -3.9206320e-04 0.0000000e+00 
0.0000000e+00 -5.3552515e-04 0.0000000e+00 
0.0000000e+00 -4.9358135e-04 0.0000000e+00 
0.0000000e+00 -5.0515897e-04 0.0000000e+00 
0.0000000e+00 -3.9466354e-04 0.0000000e+00 
0.0000000e+00 -1.7424439e-04 0.0000000e+00 
0.0000000e+00 -6.2304171e-05 0.0000000e+00 
0.0000000e+00 -2.6079337e-05 0.0000000e+00 
0.0000000e+00 -9.7284528e-06 0.0000000e+00 
0.0000000e+00 -1.1147080e-06 0.0000000e+00 
0.0000000e+00 1.2325550e-05 0.0000000e+00 
0.0000000e+00 1.8892082e-05 0.0000000e+00 
0.0000000e+00 1.2933341e-05 0.0000000e+00 
0.0000000e+00 -3.7490940e-06 0.0000000e+00 
0.0000000e+00 -9.8578967e-06 0.0000000e+00 
0.0000000e+00 -5.3096251e-06 0.0000000e+00 
0.0000000e+00 1.9583199e-06 0.0000000e+00 
0.0000000e+00 3.8573216e-06 0.0000000e+00 
0.0000000e+00 4.7282924e-07 0.0000000e+00 
0.0000000e+00 -9.4003877e-07 0.0000000e+00 
0.0000000e+00 -6.7956648e-07 0.0000000e+00 
-3.2139546e-06 1.5816138e-06 1.2958940e-06 
1.2679708e-06 -2.9174334e-06 -1.3983429e-06 
1.3267105e-06 -8.7603385e-06 -9.2017335e-06 
4.9721007e-06 -2.5357020e-05 -1.5645298e-06 
8.7624677e-08 -2.5448475e-07 3.0010472e-07 
4.9519329e-08 -2.2781572e-07 5.0759235e-07 
-3.7851780e-08 2.9774325e-08 4.1710007e-07 
-1.2693131e-07 3.0398994e-08 4.6146912e-08 
-5.0260041e-06 4.3344062e-06 -1.0713409e-06 
-6.2749532e-06 5.4174279e-08 -3.5328826e-06 
2.8199875e-06 1.0804125e-06 -4.6817663e-06 
5.2437949e-06 6.8972322e-06 -1.3842715e-05 
1.6125252e-06 -2.7292575e-07 -1.5720896e-05 
1.1994641e-05 -1.0761197e-05 -1.8080447e-05 
1.4954188e-05 -7.9287602e-06 -1.9956893e-05 
1.5726710e-05 -2.4457313e-05 -2.8225049e-05 
2.5674201e-05 -1.3639238e-05 -2.7234604e-05 
3.2880358e-05 -7.0990973e-06 -1.4862206e-05 
3.8266997e-05 -7.8631492e-06 4.4240705e-06 
3.9244529e-05 -1.8346857e-06 1.9023129e-05 
3.3396602e-05 -2.9742782e-06 2.6691972e-05 
2.8573966e-05 -1.1282568e-05 3.9156897e-05 
1.7288372e-05 -1.6536991e-05 3.5594472e-05 
5.8463911e-06 -2.0160851e-05 2.5630545e-05 
7.5649264e-06 -9.8535211e-06 1.9196767e-05 
8.0567761e-06 -3.3696417e-06 1.2574079e-05 
3.8313410e-06 6.6385555e-06 8.2024007e-06 
-6.4162741e-06 -1.0908938e-07 1.2000339e-06 
-1.3723507e-05 2.5125748e-06 -4.1098401e-06 