# vtk DataFile Version 4.0
vtk output
ASCII
DATASET UNSTRUCTURED_GRID
POINTS 1919 float
0.0000000e+00 0.0000000e+00 0.0000000e+00 
0.0000000e+00 0.0000000e+00 5.0000000e+01 
5.0000000e+00 0.0000000e+00 0.0000000e+00 
5.0000000e+00 0.0000000e+00 5.0000000e+01 
5.0000000e+00 1.0000000e+00 0.0000000e+00 
5.0000000e+00 1.0000000e+00 5.0000000e+01 
0.0000000e+00 1.0000000e+00 0.0000000e+00 
0.0000000e+00 1.0000000e+00 5.0000000e+01 
5.0000000e+00 2.0000000e+00 0.0000000e+00 
5.0000000e+00 2.0000000e+00 5.0000000e+01 
3.0000000e+00 2.0000000e+00 0.0000000e+00 
3.0000000e+00 2.0000000e+00 5.0000000e+01 
0.0000000e+00 2.0000000e+00 0.0000000e+00 
0.0000000e+00 2.0000000e+00 5.0000000e+01 
1.5000000e+00 3.0000000e+00 0.0000000e+00 
1.5000000e+00 3.0000000e+00 5.0000000e+01 
7.5000000e-01 3.0000000e+00 0.0000000e+00 
7.5000000e-01 3.0000000e+00 5.0000000e+01 
0.0000000e+00 3.0000000e+00 0.0000000e+00 
0.0000000e+00 3.0000000e+00 5.0000000e+01 
7.5000000e-01 3.0000000e+00 5.0000000e-01 
7.5000000e-01 3.0000000e+00 1.0000000e+00 
7.5000000e-01 3.0000000e+00 1.5000000e+00 
7.5000000e-01 3.0000000e+00 2.0000000e+00 
7.5000000e-01 3.0000000e+00 2.5000000e+00 
7.5000000e-01 3.0000000e+00 3.0000000e+00 
7.5000000e-01 3.0000000e+00 3.5000000e+00 
7.5000000e-01 3.0000000e+00 4.0000000e+00 
7.5000000e-01 3.0000000e+00 4.5000000e+00 
7.5000000e-01 3.0000000e+00 5.0000000e+00 
7.5000000e-01 3.0000000e+00 5.5000000e+00 
7.5000000e-01 3.0000000e+00 6.0000000e+00 
7.5000000e-01 3.0000000e+00 6.5000000e+00 
7.5000000e-01 3.0000000e+00 7.0000000e+00 
7.5000000e-01 3.0000000e+00 7.5000000e+00 
7.5000000e-01 3.0000000e+00 8.0000000e+00 
7.5000000e-01 3.0000000e+00 8.5000000e+00 
7.5000000e-01 3.0000000e+00 9.0000000e+00 
7.5000000e-01 3.0000000e+00 9.5000000e+00 
7.5000000e-01 3.0000000e+00 1.0000000e+01 
7.5000000e-01 3.0000000e+00 1.0500000e+01 
7.5000000e-01 3.0000000e+00 1.1000000e+01 
7.5000000e-01 3.0000000e+00 1.1500000e+01 
7.5000000e-01 3.0000000e+00 1.2000000e+01 
7.5000000e-01 3.0000000e+00 1.2500000e+01 
7.5000000e-01 3.0000000e+00 1.3000000e+01 
7.5000000e-01 3.0000000e+00 1.3500000e+01 
7.5000000e-01 3.0000000e+00 1.4000000e+01 
7.5000000e-01 3.0000000e+00 1.4500000e+01 
7.5000000e-01 3.0000000e+00 1.5000000e+01 
7.5000000e-01 3.0000000e+00 1.5500000e+01 
7.5000000e-01 3.0000000e+00 1.6000000e+01 
7.5000000e-01 3.0000000e+00 1.6500000e+01 
7.5000000e-01 3.0000000e+00 1.7000000e+01 
7.5000000e-01 3.0000000e+00 1.7500000e+01 
7.5000000e-01 3.0000000e+00 1.8000000e+01 
7.5000000e-01 3.0000000e+00 1.8500000e+01 
7.5000000e-01 3.0000000e+00 1.9000000e+01 
7.5000000e-01 3.0000000e+00 1.9500000e+01 
7.5000000e-01 3.0000000e+00 2.0000000e+01 
7.5000000e-01 3.0000000e+00 2.0500000e+01 
7.5000000e-01 3.0000000e+00 2.1000000e+01 
7.5000000e-01 3.0000000e+00 2.1500000e+01 
7.5000000e-01 3.0000000e+00 2.2000000e+01 
7.5000000e-01 3.0000000e+00 2.2500000e+01 
7.5000000e-01 3.0000000e+00 2.3000000e+01 
7.5000000e-01 3.0000000e+00 2.3500000e+01 
7.5000000e-01 3.0000000e+00 2.4000000e+01 
7.5000000e-01 3.0000000e+00 2.4500000e+01 
7.5000000e-01 3.0000000e+00 2.5000000e+01 
7.5000000e-01 3.0000000e+00 2.5500000e+01 
7.5000000e-01 3.0000000e+00 2.6000000e+01 
7.5000000e-01 3.0000000e+00 2.6500000e+01 
7.5000000e-01 3.0000000e+00 2.7000000e+01 
7.5000000e-01 3.0000000e+00 2.7500000e+01 
7.5000000e-01 3.0000000e+00 2.8000000e+01 
7.5000000e-01 3.0000000e+00 2.8500000e+01 
7.5000000e-01 3.0000000e+00 2.9000000e+01 
7.5000000e-01 3.0000000e+00 2.9500000e+01 
7.5000000e-01 3.0000000e+00 3.0000000e+01 
7.5000000e-01 3.0000000e+00 3.0500000e+01 
7.5000000e-01 3.0000000e+00 3.1000000e+01 
7.5000000e-01 3.0000000e+00 3.1500000e+01 
7.5000000e-01 3.0000000e+00 3.2000000e+01 
7.5000000e-01 3.0000000e+00 3.2500000e+01 
7.5000000e-01 3.0000000e+00 3.3000000e+01 
7.5000000e-01 3.0000000e+00 3.3500000e+01 
7.5000000e-01 3.0000000e+00 3.4000000e+01 
7.5000000e-01 3.0000000e+00 3.4500000e+01 
7.5000000e-01 3.0000000e+00 3.5000000e+01 
7.5000000e-01 3.0000000e+00 3.5500000e+01 
7.5000000e-01 3.0000000e+00 3.6000000e+01 
7.5000000e-01 3.0000000e+00 3.6500000e+01 
7.5000000e-01 3.0000000e+00 3.7000000e+01 
7.5000000e-01 3.0000000e+00 3.7500000e+01 
7.5000000e-01 3.0000000e+00 3.8000000e+01 
7.5000000e-01 3.0000000e+00 3.8500000e+01 
7.5000000e-01 3.0000000e+00 3.9000000e+01 
7.5000000e-01 3.0000000e+00 3.9500000e+01 
7.5000000e-01 3.0000000e+00 4.0000000e+01 
7.5000000e-01 3.0000000e+00 4.0500000e+01 
7.5000000e-01 3.0000000e+00 4.1000000e+01 
7.5000000e-01 3.0000000e+00 4.1500000e+01 
7.5000000e-01 3.0000000e+00 4.2000000e+01 
7.5000000e-01 3.0000000e+00 4.2500000e+01 
7.5000000e-01 3.0000000e+00 4.3000000e+01 
7.5000000e-01 3.0000000e+00 4.3500000e+01 
7.5000000e-01 3.0000000e+00 4.4000000e+01 
7.5000000e-01 3.0000000e+00 4.4500000e+01 
7.5000000e-01 3.0000000e+00 4.5000000e+01 
7.5000000e-01 3.0000000e+00 4.5500000e+01 
7.5000000e-01 3.0000000e+00 4.6000000e+01 
7.5000000e-01 3.0000000e+00 4.6500000e+01 
7.5000000e-01 3.0000000e+00 4.7000000e+01 
7.5000000e-01 3.0000000e+00 4.7500000e+01 
7.5000000e-01 3.0000000e+00 4.8000000e+01 
7.5000000e-01 3.0000000e+00 4.8500000e+01 
7.5000000e-01 3.0000000e+00 4.9000000e+01 
7.5000000e-01 3.0000000e+00 4.9500000e+01 
7.5000000e-01 3.0250001e+00 0.0000000e+00 
7.5000000e-01 3.0250001e+00 5.0000000e-01 
7.5000000e-01 3.0250001e+00 1.0000000e+00 
7.5000000e-01 3.0250001e+00 1.5000000e+00 
7.5000000e-01 3.0250001e+00 2.0000000e+00 
7.5000000e-01 3.0250001e+00 2.5000000e+00 
7.5000000e-01 3.0250001e+00 3.0000000e+00 
7.5000000e-01 3.0250001e+00 3.5000000e+00 
7.5000000e-01 3.0250001e+00 4.0000000e+00 
7.5000000e-01 3.0250001e+00 4.5000000e+00 
7.5000000e-01 3.0250001e+00 5.0000000e+00 
7.5000000e-01 3.0250001e+00 5.5000000e+00 
7.5000000e-01 3.0250001e+00 6.0000000e+00 
7.5000000e-01 3.0250001e+00 6.5000000e+00 
7.5000000e-01 3.0250001e+00 7.0000000e+00 
7.5000000e-01 3.0250001e+00 7.5000000e+00 
7.5000000e-01 3.0250001e+00 8.0000000e+00 
7.5000000e-01 3.0250001e+00 8.5000000e+00 
7.5000000e-01 3.0250001e+00 9.0000000e+00 
7.5000000e-01 3.0250001e+00 9.5000000e+00 
7.5000000e-01 3.0250001e+00 1.0000000e+01 
7.5000000e-01 3.0250001e+00 1.0500000e+01 
7.5000000e-01 3.0250001e+00 1.1000000e+01 
7.5000000e-01 3.0250001e+00 1.1500000e+01 
7.5000000e-01 3.0250001e+00 1.2000000e+01 
7.5000000e-01 3.0250001e+00 1.2500000e+01 
7.5000000e-01 3.0250001e+00 1.3000000e+01 
7.5000000e-01 3.0250001e+00 1.3500000e+01 
7.5000000e-01 3.0250001e+00 1.4000000e+01 
7.5000000e-01 3.0250001e+00 1.4500000e+01 
7.5000000e-01 3.0250001e+00 1.5000000e+01 
7.5000000e-01 3.0250001e+00 1.5500000e+01 
7.5000000e-01 3.0250001e+00 1.6000000e+01 
7.5000000e-01 3.0250001e+00 1.6500000e+01 
7.5000000e-01 3.0250001e+00 1.7000000e+01 
7.5000000e-01 3.0250001e+00 1.7500000e+01 
7.5000000e-01 3.0250001e+00 1.8000000e+01 
7.5000000e-01 3.0250001e+00 1.8500000e+01 
7.5000000e-01 3.0250001e+00 1.9000000e+01 
7.5000000e-01 3.0250001e+00 1.9500000e+01 
7.5000000e-01 3.0250001e+00 2.0000000e+01 
7.5000000e-01 3.0250001e+00 2.0500000e+01 
7.5000000e-01 3.0250001e+00 2.1000000e+01 
7.5000000e-01 3.0250001e+00 2.1500000e+01 
7.5000000e-01 3.0250001e+00 2.2000000e+01 
7.5000000e-01 3.0250001e+00 2.2500000e+01 
7.5000000e-01 3.0250001e+00 2.3000000e+01 
7.5000000e-01 3.0250001e+00 2.3500000e+01 
7.5000000e-01 3.0250001e+00 2.4000000e+01 
7.5000000e-01 3.0250001e+00 2.4500000e+01 
7.5000000e-01 3.0250001e+00 2.5000000e+01 
7.5000000e-01 3.0250001e+00 2.5500000e+01 
7.5000000e-01 3.0250001e+00 2.6000000e+01 
7.5000000e-01 3.0250001e+00 2.6500000e+01 
7.5000000e-01 3.0250001e+00 2.7000000e+01 
7.5000000e-01 3.0250001e+00 2.7500000e+01 
7.5000000e-01 3.0250001e+00 2.8000000e+01 
7.5000000e-01 3.0250001e+00 2.8500000e+01 
7.5000000e-01 3.0250001e+00 2.9000000e+01 
7.5000000e-01 3.0250001e+00 2.9500000e+01 
7.5000000e-01 3.0250001e+00 3.0000000e+01 
7.5000000e-01 3.0250001e+00 3.0500000e+01 
7.5000000e-01 3.0250001e+00 3.1000000e+01 
7.5000000e-01 3.0250001e+00 3.1500000e+01 
7.5000000e-01 3.0250001e+00 3.2000000e+01 
7.5000000e-01 3.0250001e+00 3.2500000e+01 
7.5000000e-01 3.0250001e+00 3.3000000e+01 
7.5000000e-01 3.0250001e+00 3.3500000e+01 
7.5000000e-01 3.0250001e+00 3.4000000e+01 
7.5000000e-01 3.0250001e+00 3.4500000e+01 
7.5000000e-01 3.0250001e+00 3.5000000e+01 
7.5000000e-01 3.0250001e+00 3.5500000e+01 
7.5000000e-01 3.0250001e+00 3.6000000e+01 
7.5000000e-01 3.0250001e+00 3.6500000e+01 
7.5000000e-01 3.0250001e+00 3.7000000e+01 
7.5000000e-01 3.0250001e+00 3.7500000e+01 
7.5000000e-01 3.0250001e+00 3.8000000e+01 
7.5000000e-01 3.0250001e+00 3.8500000e+01 
7.5000000e-01 3.0250001e+00 3.9000000e+01 
7.5000000e-01 3.0250001e+00 3.9500000e+01 
7.5000000e-01 3.0250001e+00 4.0000000e+01 
7.5000000e-01 3.0250001e+00 4.0500000e+01 
7.5000000e-01 3.0250001e+00 4.1000000e+01 
7.5000000e-01 3.0250001e+00 4.1500000e+01 
7.5000000e-01 3.0250001e+00 4.2000000e+01 
7.5000000e-01 3.0250001e+00 4.2500000e+01 
7.5000000e-01 3.0250001e+00 4.3000000e+01 
7.5000000e-01 3.0250001e+00 4.3500000e+01 
7.5000000e-01 3.0250001e+00 4.4000000e+01 
7.5000000e-01 3.0250001e+00 4.4500000e+01 
7.5000000e-01 3.0250001e+00 4.5000000e+01 
7.5000000e-01 3.0250001e+00 4.5500000e+01 
7.5000000e-01 3.0250001e+00 4.6000000e+01 
7.5000000e-01 3.0250001e+00 4.6500000e+01 
7.5000000e-01 3.0250001e+00 4.7000000e+01 
7.5000000e-01 3.0250001e+00 4.7500000e+01 
7.5000000e-01 3.0250001e+00 4.8000000e+01 
7.5000000e-01 3.0250001e+00 4.8500000e+01 
7.5000000e-01 3.0250001e+00 4.9000000e+01 
7.5000000e-01 3.0250001e+00 4.9500000e+01 
7.5000000e-01 3.0250001e+00 5.0000000e+01 
3.0000000e+00 2.0000000e+00 3.6000000e+01 
8.0487806e-01 3.0000000e+00 3.6000000e+01 
0.0000000e+00 0.0000000e+00 1.0000000e+00 
0.0000000e+00 0.0000000e+00 2.0000000e+00 
0.0000000e+00 0.0000000e+00 3.0000000e+00 
0.0000000e+00 0.0000000e+00 4.0000000e+00 
0.0000000e+00 0.0000000e+00 5.0000000e+00 
0.0000000e+00 0.0000000e+00 6.0000000e+00 
0.0000000e+00 0.0000000e+00 7.0000000e+00 
0.0000000e+00 0.0000000e+00 8.0000000e+00 
[...]
POINT_DATA 1919
FIELD FieldData 3
DISPLACEMENT 3 1919  float
0.0000000e+00 0.0000000e+00 0.0000000e+00 
0.0000000e+00 0.0000000e+00 0.0000000e+00 
0.0000000e+00 0.0000000e+00 0.0000000e+00 
0.0000000e+00 0.0000000e+00 0.0000000e+00 
6.4923283e-06 -4.8850811e-06 -9.6526310e-06 
1.1977363e-08 -2.0342286e-08 1.2208297e-08 
0.0000000e+00 4.4845146e-05 0.0000000e+00 
0.0000000e+00 2.5128708e-07 0.0000000e+00 
1.0191534e-05 2.0346172e-06 -3.8186490e-06 
8.0514091e-08 -3.8189302e-08 9.5268398e-08 
9.5188516e-06 -5.7206335e-06 -3.4327925e-06 
-2.4565269e-08 -7.1005125e-08 -1.2511971e-07 
0.0000000e+00 3.9749844e-05 0.0000000e+00 
0.0000000e+00 3.4885991e-07 0.0000000e+00 
-4.7618607e-05 1.9197932e-05 1.0773246e-04 
-2.1519831e-07 9.9015196e-08 -2.1860239e-07 
-6.4846063e-05 -1.1516502e-04 7.9537065e-05 
-5.4765650e-09 5.3897651e-07 7.9798774e-08 
0.0000000e+00 6.9333066e-05 0.0000000e+00 
0.0000000e+00 -3.0813987e-07 0.0000000e+00 
-3.9786046e-05 -1.1904174e-04 3.1523654e-05 
-4.8679140e-05 -1.2193933e-04 4.9155260e-05 
-1.9369190e-05 -1.0975701e-04 2.9570116e-05 
-7.0020593e-05 -8.7417575e-05 -5.1497059e-06 
-6.0434126e-05 -8.8895547e-05 4.3524316e-05 
-9.3391158e-05 -1.6525829e-04 7.0245143e-05 
-5.4717530e-05 -3.9474524e-04 1.1994501e-04 
-1.2627902e-04 -8.7155169e-04 1.0370719e-04 
-1.6326091e-04 -1.6521658e-03 2.0468057e-04 
-2.4257349e-04 -2.6965458e-03 1.2935423e-04 
-3.4372444e-04 -3.8764724e-03 2.5390409e-04 
-3.2954718e-04 -4.8091263e-03 5.4274016e-05 
-3.8622192e-04 -5.1096310e-03 -4.9948090e-07 
-4.3947616e-04 -4.9105845e-03 -1.1197549e-04 
-4.3852816e-04 -4.7610593e-03 -2.2651360e-04 
-3.7996905e-04 -4.7823265e-03 -2.3072792e-04 
-3.3162630e-04 -4.7545047e-03 -2.2184622e-04 
-2.5467691e-04 -4.1460162e-03 -1.8610571e-04 
-2.0199976e-04 -3.0545343e-03 -3.1696216e-04 
-1.1299270e-04 -1.9100071e-03 -2.1773085e-04 
-1.3427187e-05 -9.9215074e-04 -2.7327001e-04 
5.1013896e-05 -3.5542145e-04 -1.5006348e-04 
1.0357481e-04 1.6798616e-05 -6.5266715e-05 
9.0092282e-05 1.7929258e-04 9.6148666e-05 
2.3712204e-05 1.9679918e-04 2.0241561e-04 
-1.7326198e-05 1.5181181e-04 2.3162803e-04 
-8.8511799e-05 1.0956514e-04 1.8161540e-04 
-8.6091473e-05 8.7505941e-05 5.0051334e-05 
-6.9789414e-05 7.7826844e-05 -5.3871860e-05 
-4.2530872e-05 6.3640357e-05 -1.1806484e-04 
6.2953718e-06 4.4886692e-05 -1.4722197e-04 
1.4806905e-05 3.3090688e-05 -1.0926860e-04 
2.0496023e-05 3.4651337e-05 -5.7423589e-05 
2.1408621e-05 4.8195845e-05 -2.3893263e-05 
-2.0017787e-05 5.9448077e-05 4.3630098e-06 
-2.0635676e-05 5.3729382e-05 1.5994325e-05 
-5.5673107e-05 2.9102523e-05 1.2031840e-05 
-4.4348570e-05 4.8056705e-07 2.5408399e-05 
-3.4458604e-05 -1.3087651e-05 2.6097166e-05 
-5.0252485e-05 7.2161765e-06 2.3069239e-05 
-2.5330108e-05 5.1224757e-05 3.8746064e-05 
-4.7662772e-05 8.6064931e-05 5.4854299e-05 
-2.5262641e-05 8.5870182e-05 7.4478885e-05 
-5.8543901e-05 3.9346854e-05 1.1570776e-04 
-7.7766825e-05 -5.0236798e-05 1.6655342e-04 
-1.0751266e-04 -1.8483840e-04 1.7423595e-04 
-1.0004259e-04 -4.2552970e-04 2.4920233e-04 
-1.7060932e-04 -8.9060387e-04 1.9908870e-04 
-2.2248100e-04 -1.6984004e-03 3.1315585e-04 
-3.2388454e-04 -2.8597882e-03 1.7849199e-04 
-4.1018429e-04 -4.1868719e-03 2.4255217e-04 
-4.9926777e-04 -5.1422692e-03 3.2829252e-05 
-5.4252887e-04 -5.2816174e-03 -4.9977989e-05 
-4.8204334e-04 -5.0089248e-03 -1.3345985e-04 
-4.4444928e-04 -4.9080071e-03 -2.5865881e-04 
-3.8664037e-04 -5.0212685e-03 -3.4310968e-04 
-3.3289430e-04 -5.0039240e-03 -3.9310672e-04 
-2.5634884e-04 -4.2364015e-03 -3.2530265e-04 
-1.7079161e-04 -3.0542237e-03 -4.1366727e-04 
-7.0289279e-05 -1.8563218e-03 -1.8059195e-04 
-2.8314658e-05 -8.9647871e-04 -1.8059868e-04 
2.2831702e-05 -2.4010196e-04 -4.2866548e-05 
4.1982166e-05 1.0713124e-04 -1.9166284e-05 
3.0971449e-05 2.2475947e-04 4.6128356e-05 
1.5913456e-05 2.1328118e-04 9.4309435e-05 
-3.0357654e-07 1.5301687e-04 1.2509544e-04 
-4.2087559e-05 9.0193862e-05 1.2130607e-04 
-5.5776854e-05 3.6806738e-05 4.6135207e-05 
-4.9423874e-05 -2.3146458e-06 -2.6904052e-05 
-1.0836842e-05 -2.4022385e-05 -1.2534062e-04 
5.7715697e-06 -2.4849105e-05 -9.7132528e-05 
2.2813132e-05 -1.1602149e-05 -6.6685330e-05 
2.7629274e-05 7.9920892e-07 -2.9966257e-05 
2.4366536e-05 7.1631052e-06 -3.1242655e-06 
1.2396503e-05 7.7793138e-06 1.5414322e-05 
4.5941251e-06 6.7072147e-06 2.4342600e-05 
-2.4348867e-06 5.7273014e-06 2.3899496e-05 
-4.1683029e-06 3.9007004e-06 1.6773271e-05 
-5.4510469e-06 5.7187833e-07 6.5096597e-06 
-3.7814984e-06 -2.8157144e-06 -4.0479669e-08 
-2.2133295e-06 -4.2269448e-06 -3.0633657e-06 
-1.1916339e-06 -3.6339097e-06 -4.8894372e-06 
1.4380308e-07 -2.2931536e-06 -3.6599176e-06 
7.3883831e-07 -1.1586999e-06 -2.2022950e-06 
8.0862173e-07 -1.5206230e-07 -6.5767466e-07 
6.3753703e-07 9.6869633e-07 5.2487547e-07 
5.1689949e-07 1.8628045e-06 5.7198565e-07 
6.4149170e-08 1.9236602e-06 8.4575623e-07 
-1.4214211e-08 9.8452347e-07 4.0749171e-07 
-5.1431449e-08 -4.0872877e-07 -7.3285186e-08 
-3.1509134e-07 -1.1509085e-06 5.4950306e-07 
-2.5037650e-07 -8.1671828e-07 -2.1339391e-08 
7.5101376e-08 1.2052314e-07 -3.6633421e-07 
1.8516845e-07 7.3276834e-07 1.7646568e-07 
1.9355673e-08 4.8486504e-07 -4.7015612e-07 
-4.5376161e-08 -2.0998321e-07 -4.1554289e-09 
2.4192071e-09 -6.1100718e-07 3.6511214e-08 
1.3042737e-09 -3.8401490e-07 -5.9544796e-08 
5.0621036e-08 2.1409720e-07 1.7413559e-08 
0.0000000e+00 -1.1484517e-04 0.0000000e+00 
0.0000000e+00 -1.1891176e-04 0.0000000e+00 
0.0000000e+00 -1.2178270e-04 0.0000000e+00 
0.0000000e+00 -1.0966283e-04 0.0000000e+00 
0.0000000e+00 -8.7585453e-05 0.0000000e+00 
0.0000000e+00 -8.7260749e-05 0.0000000e+00 
0.0000000e+00 -1.6294526e-04 0.0000000e+00 
0.0000000e+00 -3.9555857e-04 0.0000000e+00 
0.0000000e+00 -8.7661477e-04 0.0000000e+00 
0.0000000e+00 -1.6588572e-03 0.0000000e+00 
0.0000000e+00 -2.7115692e-03 0.0000000e+00 
0.0000000e+00 -3.8889984e-03 0.0000000e+00 
0.0000000e+00 -4.8352527e-03 0.0000000e+00 
0.0000000e+00 -5.1357220e-03 0.0000000e+00 
0.0000000e+00 -4.9414383e-03 0.0000000e+00 
0.0000000e+00 -4.7798189e-03 0.0000000e+00 
0.0000000e+00 -4.8095165e-03 0.0000000e+00 
0.0000000e+00 -4.7744806e-03 0.0000000e+00 
0.0000000e+00 -4.1732183e-03 0.0000000e+00 
0.0000000e+00 -3.0702741e-03 0.0000000e+00 
0.0000000e+00 -1.9201119e-03 0.0000000e+00 
0.0000000e+00 -9.9538814e-04 0.0000000e+00 
0.0000000e+00 -3.5744565e-04 0.0000000e+00 
0.0000000e+00 1.6193841e-05 0.0000000e+00 
0.0000000e+00 1.7878848e-04 0.0000000e+00 
0.0000000e+00 1.9802173e-04 0.0000000e+00 
0.0000000e+00 1.5434771e-04 0.0000000e+00 
0.0000000e+00 1.1084118e-04 0.0000000e+00 
0.0000000e+00 8.7947163e-05 0.0000000e+00 
0.0000000e+00 7.7119905e-05 0.0000000e+00 
0.0000000e+00 6.3169820e-05 0.0000000e+00 
0.0000000e+00 4.4973604e-05 0.0000000e+00 
0.0000000e+00 3.3196593e-05 0.0000000e+00 
0.0000000e+00 3.5236226e-05 0.0000000e+00 
0.0000000e+00 4.8399575e-05 0.0000000e+00 
0.0000000e+00 5.9073231e-05 0.0000000e+00 
0.0000000e+00 5.2957486e-05 0.0000000e+00 
0.0000000e+00 2.8428003e-05 0.0000000e+00 
0.0000000e+00 -1.1609092e-07 0.0000000e+00 
0.0000000e+00 -1.1903338e-05 0.0000000e+00 
0.0000000e+00 8.6207101e-06 0.0000000e+00 
0.0000000e+00 5.1338673e-05 0.0000000e+00 
0.0000000e+00 8.5392829e-05 0.0000000e+00 
0.0000000e+00 8.4537096e-05 0.0000000e+00 
0.0000000e+00 3.8876813e-05 0.0000000e+00 
0.0000000e+00 -4.7707250e-05 0.0000000e+00 
0.0000000e+00 -1.8190332e-04 0.0000000e+00 
0.0000000e+00 -4.2485996e-04 0.0000000e+00 
0.0000000e+00 -8.9503609e-04 0.0000000e+00 
0.0000000e+00 -1.7090066e-03 0.0000000e+00 
0.0000000e+00 -2.8790359e-03 0.0000000e+00 
0.0000000e+00 -4.2013284e-03 0.0000000e+00 
0.0000000e+00 -5.1686969e-03 0.0000000e+00 
0.0000000e+00 -5.3026420e-03 0.0000000e+00 
0.0000000e+00 -5.0388467e-03 0.0000000e+00 
0.0000000e+00 -4.9297577e-03 0.0000000e+00 
0.0000000e+00 -5.0532664e-03 0.0000000e+00 
0.0000000e+00 -5.0251093e-03 0.0000000e+00 
0.0000000e+00 -4.2619966e-03 0.0000000e+00 
0.0000000e+00 -3.0649316e-03 0.0000000e+00 
0.0000000e+00 -1.8658011e-03 0.0000000e+00 
0.0000000e+00 -8.9994783e-04 0.0000000e+00 
0.0000000e+00 -2.4393633e-04 0.0000000e+00 
0.0000000e+00 1.0668042e-04 0.0000000e+00 
0.0000000e+00 2.2645298e-04 0.0000000e+00 
0.0000000e+00 2.1513557e-04 0.0000000e+00 
0.0000000e+00 1.5438248e-04 0.0000000e+00 
0.0000000e+00 9.0330686e-05 0.0000000e+00 
0.0000000e+00 3.7018253e-05 0.0000000e+00 
0.0000000e+00 -2.1005799e-06 0.0000000e+00 
0.0000000e+00 -2.3503513e-05 0.0000000e+00 
0.0000000e+00 -2.4668258e-05 0.0000000e+00 
0.0000000e+00 -1.2239791e-05 0.0000000e+00 
0.0000000e+00 5.3626411e-07 0.0000000e+00 
0.0000000e+00 7.1004979e-06 0.0000000e+00 
0.0000000e+00 7.9245119e-06 0.0000000e+00 
0.0000000e+00 6.7858014e-06 0.0000000e+00 
0.0000000e+00 5.6592435e-06 0.0000000e+00 
0.0000000e+00 3.8176336e-06 0.0000000e+00 
0.0000000e+00 5.9630707e-07 0.0000000e+00 
0.0000000e+00 -2.7040351e-06 0.0000000e+00 
0.0000000e+00 -4.1972676e-06 0.0000000e+00 
0.0000000e+00 -3.6832157e-06 0.0000000e+00 
0.0000000e+00 -2.3398632e-06 0.0000000e+00 
0.0000000e+00 -1.1356634e-06 0.0000000e+00 
0.0000000e+00 -1.0637594e-07 0.0000000e+00 
0.0000000e+00 9.6678480e-07 0.0000000e+00 
0.0000000e+00 1.8199512e-06 0.0000000e+00 
0.0000000e+00 1.8853824e-06 0.0000000e+00 
0.0000000e+00 9.7374857e-07 0.0000000e+00 
0.0000000e+00 -3.5914169e-07 0.0000000e+00 
0.0000000e+00 -1.1059358e-06 0.0000000e+00 
0.0000000e+00 -8.0760776e-07 0.0000000e+00 
0.0000000e+00 9.1764704e-08 0.0000000e+00 
0.0000000e+00 6.8964692e-07 0.0000000e+00 
0.0000000e+00 4.7785943e-07 0.0000000e+00 
0.0000000e+00 -1.8688030e-07 0.0000000e+00 
0.0000000e+00 -5.8794740e-07 0.0000000e+00 
0.0000000e+00 -3.7195747e-07 0.0000000e+00 
0.0000000e+00 2.0561608e-07 0.0000000e+00 
0.0000000e+00 5.2215808e-07 0.0000000e+00 
-8.9305404e-06 -8.5206611e-06 5.0244221e-06 
2.1430313e-05 -1.1957792e-06 -6.8914822e-05 
0.0000000e+00 0.0000000e+00 0.0000000e+00 
0.0000000e+00 0.0000000e+00 0.0000000e+00 
0.0000000e+00 0.0000000e+00 0.0000000e+00 
0.0000000e+00 0.0000000e+00 0.0000000e+00 
0.0000000e+00 0.0000000e+00 0.0000000e+00 
0.0000000e+00 0.0000000e+00 0.0000000e+00 
0.0000000e+00 0.0000000e+00 0.0000000e+00 
0.0000000e+00 0.0000000e+00 0.0000000e+00 
0.0000000e+00 0.0000000e+00 0.0000000e+00 
0.0000000e+00 0.0000000e+00 0.0000000e+00 
0.0000000e+00 0.0000000e+00 0.0000000e+00 
0.0000000e+00 0.0000000e+00 0.0000000e+00 
0.0000000e+00 0.0000000e+00 0.0000000e+00 
0.0000000e+00 0.0000000e+00 0.0000000e+00 
0.0000000e+00 0.0000000e+00 0.0000000e+00 
0.0000000e+00 0.0000000e+00 0.0000000e+00 
0.0000000e+00 0.0000000e+00 0.0000000e+00 
0.0000000e+00 0.0000000e+00 0.0000000e+00 
0.0000000e+00 0.0000000e+00 0.0000000e+00 
0.0000000e+00 0.0000000e+00 0.0000000e+00 
0.0000000e+00 0.0000000e+00 0.0000000e+00 
0.0000000e+00 0.0000000e+00 0.0000000e+00 
0.0000000e+00 0.0000000e+00 0.0000000e+00 
0.0000000e+00 0.0000000e+00 0.0000000e+00 
0.0000000e+00 0.0000000e+00 0.0000000e+00 
0.0000000e+00 0.0000000e+00 0.0000000e+00 
0.0000000e+00 0.0000000e+00 0.0000000e+00 
0.0000000e+00 0.0000000e+00 0.0000000e+00 
0.0000000e+00 0.0000000e+00 0.0000000e+00 
0.0000000e+00 0.0000000e+00 0.0000000e+00 
0.0000000e+00 0.0000000e+00 0.0000000e+00 
0.0000000e+00 0.0000000e+00 0.0000000e+00 
0.0000000e+00 0.0000000e+00 0.0000000e+00 
0.0000000e+00 0.0000000e+00 0.0000000e+00 
0.0000000e+00 0.0000000e+00 0.0000000e+00 
0.0000000e+00 0.0000000e+00 0.0000000e+00 
0.0000000e+00 0.0000000e+00 0.0000000e+00 
0.0000000e+00 0.0000000e+00 0.0000000e+00 
0.0000000e+00 0.0000000e+00 0.0000000e+00 
0.0000000e+00 0.0000000e+00 0.0000000e+00 
0.0000000e+00 0.0000000e+00 0.0000000e+00 
0.0000000e+00 0.0000000e+00 0.0000000e+00 
0.0000000e+00 0.0000000e+00 0.0000000e+00 
0.0000000e+00 0.0000000e+00 0.0000000e+00 
0.0000000e+00 0.0000000e+00 0.0000000e+00 
0.0000000e+00 0.0000000e+00 0.0000000e+00 
0.0000000e+00 0.0000000e+00 0.0000000e+00 
0.0000000e+00 0.0000000e+00 0.0000000e+00 
0.0000000e+00 0.0000000e+00 0.0000000e+00 
0.0000000e+00 0.0000000e+00 0.0000000e+00 
0.0000000e+00 0.0000000e+00 0.0000000e+00 
0.0000000e+00 0.0000000e+00 0.0000000e+00 
0.0000000e+00 0.0000000e+00 0.0000000e+00 
0.0000000e+00 0.0000000e+00 0.0000000e+00 
0.0000000e+00 0.0000000e+00 0.0000000e+00 
0.0000000e+00 0.0000000e+00 0.0000000e+00 
0.0000000e+00 0.0000000e+00 0.0000000e+00 
0.0000000e+00 0.0000000e+00 0.0000000e+00 
0.0000000e+00 0.0000000e+00 0.0000000e+00 
0.0000000e+00 0.0000000e+00 0.0000000e+00 
0.0000000e+00 0.0000000e+00 0.0000000e+00 
0.0000000e+00 0.0000000e+00 0.0000000e+00 
0.0000000e+00 0.0000000e+00 0.0000000e+00 
0.0000000e+00 0.0000000e+00 0.0000000e+00 
0.0000000e+00 0.0000000e+00 0.0000000e+00 
0.0000000e+00 0.0000000e+00 0.0000000e+00 
0.0000000e+00 0.0000000e+00 0.0000000e+00 
0.0000000e+00 0.0000000e+00 0.0000000e+00 
0.0000000e+00 0.0000000e+00 0.0000000e+00 
0.0000000e+00 0.0000000e+00 0.0000000e+00 
0.0000000e+00 0.0000000e+00 0.0000000e+00 
0.0000000e+00 0.0000000e+00 0.0000000e+00 
0.0000000e+00 0.0000000e+00 0.0000000e+00 
0.0000000e+00 0.0000000e+00 0.0000000e+00 
0.0000000e+00 0.0000000e+00 0.0000000e+00 
0.0000000e+00 0.0000000e+00 0.0000000e+00 
0.0000000e+00 0.0000000e+00 0.0000000e+00 
0.0000000e+00 0.0000000e+00 0.0000000e+00 
0.0000000e+00 0.0000000e+00 0.0000000e+00 
0.0000000e+00 0.0000000e+00 0.0000000e+00 
0.0000000e+00 0.0000000e+00 0.0000000e+00 
0.0000000e+00 0.0000000e+00 0.0000000e+00 
0.0000000e+00 0.0000000e+00 0.0000000e+00 
0.0000000e+00 0.0000000e+00 0.0000000e+00 
0.0000000e+00 0.0000000e+00 0.0000000e+00 
0.0000000e+00 0.0000000e+00 0.0000000e+00 
0.0000000e+00 0.0000000e+00 0.0000000e+00 
0.0000000e+00 0.0000000e+00 0.0000000e+00 
0.0000000e+00 0.0000000e+00 0.0000000e+00 
0.0000000e+00 0.0000000e+00 0.0000000e+00 
0.0000000e+00 0.0000000e+00 0.0000000e+00 
0.0000000e+00 0.0000000e+00 0.0000000e+00 
0.0000000e+00 0.0000000e+00 0.0000000e+00 
0.0000000e+00 0.0000000e+00 0.0000000e+00 
0.0000000e+00 0.0000000e+00 0.0000000e+00 
0.0000000e+00 0.0000000e+00 0.0000000e+00 
0.0000000e+00 0.0000000e+00 0.0000000e+00 
0.0000000e+00 0.0000000e+00 0.0000000e+00 
0.0000000e+00 0.0000000e+00 0.0000000e+00 
0.0000000e+00 0.0000000e+00 0.0000000e+00 
0.0000000e+00 0.0000000e+00 0.0000000e+00 
0.0000000e+00 0.0000000e+00 0.0000000e+00 
0.0000000e+00 0.0000000e+00 0.0000000e+00 
0.0000000e+00 0.0000000e+00 0.0000000e+00 
0.0000000e+00 0.0000000e+00 0.0000000e+00 
0.0000000e+00 0.0000000e+00 0.0000000e+00 
1.2352398e-05 -5.0875879e-06 -1.3303532e-05 
1.9752992e-05 -4.4042949e-06 -1.2814235e-05 
2.5706768e-05 -1.4691476e-05 -1.2524783e-05 
3.0088120e-05 -1.8309776e-05 -1.4341971e-05 
3.6914589e-05 -1.5359088e-05 -1.6186079e-05 
4.2222975e-05 -1.6625960e-05 -6.5293621e-06 
4.6621019e-05 -7.9935280e-06 -2.4668691e-07 
4.3891083e-05 7.0466058e-06 2.0016259e-05 
3.2065858e-05 -4.5851084e-06 2.4382540e-05 
2.0633086e-05 -1.5663829e-05 2.0430580e-05 
1.1228546e-05 -1.5899501e-05 1.4387199e-05 
8.6624013e-06 2.6225343e-06 8.9719088e-06 
4.3192153e-06 3.0254625e-06 1.0519271e-05 
4.7283706e-06 -7.8946465e-07 8.5914817e-06 
7.4585400e-06 -1.2087729e-06 7.6864517e-06 
5.5182827e-06 6.3975481e-06 1.8884218e-06 
4.2691818e-06 8.0110240e-06 -9.2601877e-06 
1.0064146e-05 -3.0107210e-06 -1.0579607e-05 
8.0324089e-06 -3.5380563e-06 -8.5967904e-06 
1.3694646e-05 -2.8707791e-06 -1.0293912e-05 
1.5339499e-05 -1.3809435e-05 -8.5333922e-06 
2.1724221e-05 -9.8122582e-06 -1.1112236e-05 
3.5989764e-05 -6.8812697e-06 -1.4742391e-05 
4.0216386e-05 -1.3884608e-05 -1.3278041e-05 
4.8943890e-05 -4.3093091e-06 -1.3740824e-05 
4.8641188e-05 -5.6420135e-06 -3.3150202e-06 
4.4151304e-05 -8.1704839e-06 4.0220889e-06 
3.7797006e-05 -7.6140386e-06 8.5659058e-06 
3.1238775e-05 -5.9206609e-06 1.2855274e-05 
2.1017207e-05 -8.7934986e-06 1.2115287e-05 
1.4717704e-05 -7.2521630e-06 1.0356441e-05 
8.4406274e-06 -3.4992945e-06 1.1798235e-05 
5.6443773e-06 -1.7094728e-06 1.2593309e-05 
3.5842022e-06 -3.8938438e-06 1.1290163e-05 
2.0992411e-06 -3.6302929e-06 7.8452658e-06 
9.1116419e-07 1.2606995e-07 2.2234281e-06 
-3.4137821e-07 2.2666798e-06 -2.3434679e-06 
-7.0507309e-07 8.5617052e-07 -2.7459209e-06 
-4.7087573e-07 4.8212957e-08 -2.2143493e-06 
-3.6311300e-07 -3.7572349e-07 -8.6463092e-07 
7.3033604e-08 2.1812475e-07 4.1516776e-07 
1.1757622e-08 2.1052111e-07 8.1371843e-07 
8.0574317e-08 -1.4735218e-07 3.1578895e-07 
8.1285933e-08 -1.4047438e-07 -6.0614539e-08 
-5.7608798e-08 1.4432113e-07 -9.8223418e-10 
-3.5481513e-08 7.4646628e-08 1.8026043e-08 
2.2891902e-08 -1.2329335e-07 -4.8081596e-08 
-1.3007110e-08 1.1282950e-08 -7.3445221e-08 
-2.4674540e-08 1.0321012e-07 9.3431689e-09 
0.0000000e+00 7.8889352e-05 0.0000000e+00 
0.0000000e+00 9.4406481e-05 0.0000000e+00 
0.0000000e+00 8.6618777e-05 0.0000000e+00 
0.0000000e+00 -3.5483190e-05 0.0000000e+00 
0.0000000e+00 -2.6437122e-04 0.0000000e+00 
0.0000000e+00 -4.6806911e-04 0.0000000e+00 
0.0000000e+00 -6.4256846e-04 0.0000000e+00 
0.0000000e+00 -5.9067848e-04 0.0000000e+00 
0.0000000e+00 -4.6469452e-04 0.0000000e+00 
0.0000000e+00 -2.3952023e-04 0.0000000e+00 
0.0000000e+00 -4.8792499e-05 0.0000000e+00 
0.0000000e+00 -8.7321814e-06 0.0000000e+00 
0.0000000e+00 -2.3516823e-05 0.0000000e+00 
0.0000000e+00 -3.8393613e-05 0.0000000e+00 
0.0000000e+00 2.4135011e-06 0.0000000e+00 
0.0000000e+00 6.9287380e-05 0.0000000e+00 
0.0000000e+00 1.4016294e-04 0.0000000e+00 
0.0000000e+00 1.5057150e-04 0.0000000e+00 
0.0000000e+00 1.5325846e-04 0.0000000e+00 
0.0000000e+00 2.0956245e-04 0.0000000e+00 
0.0000000e+00 1.9759897e-04 0.0000000e+00 
0.0000000e+00 9.2823066e-05 0.0000000e+00 
0.0000000e+00 9.8064200e-05 0.0000000e+00 
0.0000000e+00 -4.1075764e-05 0.0000000e+00 
0.0000000e+00 -3.4772031e-04 0.0000000e+00 
0.0000000e+00 -5.3336687e-04 0.0000000e+00 
0.0000000e+00 -6.3704193e-04 0.0000000e+00 
0.0000000e+00 -6.1478443e-04 0.0000000e+00 
0.0000000e+00 -4.4614778e-04 0.0000000e+00 
0.0000000e+00 -2.1788583e-04 0.0000000e+00 
0.0000000e+00 -5.3083553e-05 0.0000000e+00 
0.0000000e+00 1.9296853e-05 0.0000000e+00 
0.0000000e+00 2.0459194e-05 0.0000000e+00 
0.0000000e+00 -1.0148806e-05 0.0000000e+00 
0.0000000e+00 -1.3003070e-05 0.0000000e+00 
0.0000000e+00 1.7351076e-06 0.0000000e+00 
0.0000000e+00 3.0452616e-06 0.0000000e+00 
0.0000000e+00 4.8308578e-07 0.0000000e+00 
0.0000000e+00 6.6891232e-07 0.0000000e+00 
0.0000000e+00 -4.6722982e-07 0.0000000e+00 
0.0000000e+00 -7.9159172e-08 0.0000000e+00 
0.0000000e+00 -6.6959103e-07 0.0000000e+00 
0.0000000e+00 -6.9709006e-07 0.0000000e+00 
0.0000000e+00 2.3375097e-07 0.0000000e+00 
0.0000000e+00 3.6974760e-07 0.0000000e+00 
0.0000000e+00 4.4882904e-07 0.0000000e+00 
0.0000000e+00 -2.1668882e-07 0.0000000e+00 
0.0000000e+00 -4.5424125e-07 0.0000000e+00 
0.0000000e+00 -6.7945649e-08 0.0000000e+00 
1.0548795e-05 -2.2145147e-07 -1.1052924e-05 
1.0214005e-05 -8.9885930e-07 -2.6156436e-06 
1.3334049e-05 -4.9100527e-07 -5.9415020e-06 
-5.5072514e-06 2.4293990e-05 -7.1027443e-06 
-2.5241949e-09 2.8841990e-08 4.9105509e-08 
3.9714752e-08 -1.4261617e-07 -8.7531383e-08 
-1.1739917e-07 -1.2929132e-07 -1.0507111e-08 
-3.6107508e-08 -3.8704393e-08 -8.7911722e-08 
6.4236683e-06 -4.8839197e-06 -1.4566138e-05 
2.1174685e-05 -2.4439225e-06 -1.8567151e-05 
3.2679760e-05 -1.9458274e-05 -1.7232513e-05 
3.8195525e-05 -2.2245866e-05 -1.8662186e-05 
3.9133498e-05 -1.5946800e-05 -1.4662661e-05 
3.3999258e-05 -1.9513669e-05 -1.2172977e-05 
3.4002271e-05 -5.4659336e-06 -1.2313087e-06 
2.3633916e-05 1.9517864e-05 1.9420619e-05 
2.1751304e-05 1.8471703e-06 3.0788666e-05 
1.7902299e-05 -1.4751808e-05 3.0954874e-05 
1.2673601e-05 -1.4666953e-05 1.1837350e-05 
1.1464740e-05 3.6517661e-06 2.0975726e-06 
1.4640325e-05 5.8300852e-06 1.0748387e-05 
1.2244071e-05 2.6480395e-06 1.0851375e-05 
-6.9841496e-07 -2.7998929e-06 1.2501178e-05 
-1.2370991e-07 1.2440528e-05 -1.0384546e-06 
-1.8526388e-06 5.9264521e-06 -1.2443766e-05 
6.7125711e-06 -2.2106055e-06 -5.5401465e-06 
1.1092332e-05 -4.9595087e-06 -4.7842036e-06 
8.9490750e-06 -4.5548518e-06 -7.3580081e-06 