# vtk DataFile Version 4.0
vtk output
ASCII
DATASET UNSTRUCTURED_GRID
POINTS 1919 float
0.0000000e+00 0.0000000e+00 0.0000000e+00 
0.0000000e+00 0.0000000e+00 5.0000000e+01 
5.0000000e+00 0.0000000e+00 0.0000000e+00 
5.0000000e+00 0.0000000e+00 5.0000000e+01 
5.0000000e+00 1.0000000e+00 0.0000000e+00 
5.0000000e+00 1.0000000e+00 5.0000000e+01 
0.0000000e+00 1.0000000e+00 0.0000000e+00 
0.0000000e+00 1.0000000e+00 5.0000000e+01 
5.0000000e+00 2.0000000e+00 0.0000000e+00 
5.0000000e+00 2.0000000e+00 5.0000000e+01 
3.0000000e+00 2.0000000e+00 0.0000000e+00 
3.0000000e+00 2.0000000e+00 5.0000000e+01 
0.0000000e+00 2.0000000e+00 0.0000000e+00 
0.0000000e+00 2.0000000e+00 5.0000000e+01 
1.5000000e+00 3.0000000e+00 0.0000000e+00 
1.5000000e+00 3.0000000e+00 5.0000000e+01 
7.5000000e-01 3.0000000e+00 0.0000000e+00 
7.5000000e-01 3.0000000e+00 5.0000000e+01 
0.0000000e+00 3.0000000e+00 0.0000000e+00 
0.0000000e+00 3.0000000e+00 5.0000000e+01 
7.5000000e-01 3.0000000e+00 5.0000000e-01 
7.5000000e-01 3.0000000e+00 1.0000000e+00 
7.5000000e-01 3.0000000e+00 1.5000000e+00 
7.5000000e-01 3.0000000e+00 2.0000000e+00 
7.5000000e-01 3.0000000e+00 2.5000000e+00 
7.5000000e-01 3.0000000e+00 3.0000000e+00 
7.5000000e-01 3.0000000e+00 3.5000000e+00 
7.5000000e-01 3.0000000e+00 4.0000000e+00 
7.5000000e-01 3.0000000e+00 4.5000000e+00 
7.5000000e-01 3.0000000e+00 5.0000000e+00 
7.5000000e-01 3.0000000e+00 5.5000000e+00 
7.5000000e-01 3.0000000e+00 6.0000000e+00 
7.5000000e-01 3.0000000e+00 6.5000000e+00 
7.5000000e-01 3.0000000e+00 7.0000000e+00 
7.5000000e-01 3.0000000e+00 7.5000000e+00 
7.5000000e-01 3.0000000e+00 8.0000000e+00 
7.5000000e-01 3.0000000e+00 8.5000000e+00 
7.5000000e-01 3.0000000e+00 9.0000000e+00 
7.5000000e-01 3.0000000e+00 9.5000000e+00 
7.5000000e-01 3.0000000e+00 1.0000000e+01 
7.5000000e-01 3.0000000e+00 1.0500000e+01 
7.5000000e-01 3.0000000e+00 1.1000000e+01 
7.5000000e-01 3.0000000e+00 1.1500000e+01 
7.5000000e-01 3.0000000e+00 1.2000000e+01 
7.5000000e-01 3.0000000e+00 1.2500000e+01 
7.5000000e-01 3.0000000e+00 1.3000000e+01 
7.5000000e-01 3.0000000e+00 1.3500000e+01 
7.5000000e-01 3.0000000e+00 1.4000000e+01 
7.5000000e-01 3.0000000e+00 1.4500000e+01 
7.5000000e-01 3.0000000e+00 1.5000000e+01 
7.5000000e-01 3.0000000e+00 1.5500000e+01 
7.5000000e-01 3.0000000e+00 1.6000000e+01 
7.5000000e-01 3.0000000e+00 1.6500000e+01 
7.5000000e-01 3.0000000e+00 1.7000000e+01 
7.5000000e-01 3.0000000e+00 1.7500000e+01 
7.5000000e-01 3.0000000e+00 1.8000000e+01 
7.5000000e-01 3.0000000e+00 1.8500000e+01 
7.5000000e-01 3.0000000e+00 1.9000000e+01 
7.5000000e-01 3.0000000e+00 1.9500000e+01 
7.5000000e-01 3.0000000e+00 2.0000000e+01 
7.5000000e-01 3.0000000e+00 2.0500000e+01 
7.5000000e-01 3.0000000e+00 2.1000000e+01 
7.5000000e-01 3.0000000e+00 2.1500000e+01 
7.5000000e-01 3.0000000e+00 2.2000000e+01 
7.5000000e-01 3.0000000e+00 2.2500000e+01 
7.5000000e-01 3.0000000e+00 2.3000000e+01 
7.5000000e-01 3.0000000e+00 2.3500000e+01 
7.5000000e-01 3.0000000e+00 2.4000000e+01 
7.5000000e-01 3.0000000e+00 2.4500000e+01 
7.5000000e-01 3.0000000e+00 2.5000000e+01 
7.5000000e-01 3.0000000e+00 2.5500000e+01 
7.5000000e-01 3.0000000e+00 2.6000000e+01 
7.5000000e-01 3.0000000e+00 2.6500000e+01 
7.5000000e-01 3.0000000e+00 2.7000000e+01 
7.5000000e-01 3.0000000e+00 2.7500000e+01 
7.5000000e-01 3.0000000e+00 2.8000000e+01 
7.5000000e-01 3.0000000e+00 2.8500000e+01 
7.5000000e-01 3.0000000e+00 2.9000000e+01 
7.5000000e-01 3.0000000e+00 2.9500000e+01 
7.5000000e-01 3.0000000e+00 3.0000000e+01 
7.5000000e-01 3.0000000e+00 3.0500000e+01 
7.5000000e-01 3.0000000e+00 3.1000000e+01 
7.5000000e-01 3.0000000e+00 3.1500000e+01 
7.5000000e-01 3.0000000e+00 3.2000000e+01 
7.5000000e-01 3.0000000e+00 3.2500000e+01 
7.5000000e-01 3.0000000e+00 3.3000000e+01 
7.5000000e-01 3.0000000e+00 3.3500000e+01 
7.5000000e-01 3.0000000e+00 3.4000000e+01 
7.5000000e-01 3.0000000e+00 3.4500000e+01 
7.5000000e-01 3.0000000e+00 3.5000000e+01 
7.5000000e-01 3.0000000e+00 3.5500000e+01 
7.5000000e-01 3.0000000e+00 3.6000000e+01 
7.5000000e-01 3.0000000e+00 3.6500000e+01 
7.5000000e-01 3.0000000e+00 3.7000000e+01 
7.5000000e-01 3.0000000e+00 3.7500000e+01 
7.5000000e-01 3.0000000e+00 3.8000000e+01 
7.5000000e-01 3.0000000e+00 3.8500000e+01 
7.5000000e-01 3.0000000e+00 3.9000000e+01 
7.5000000e-01 3.0000000e+00 3.9500000e+01 
7.5000000e-01 3.0000000e+00 4.0000000e+01 
7.5000000e-01 3.0000000e+00 4.0500000e+01 
7.5000000e-01 3.0000000e+00 4.1000000e+01 
7.5000000e-01 3.0000000e+00 4.1500000e+01 
7.5000000e-01 3.0000000e+00 4.2000000e+01 
7.5000000e-01 3.0000000e+00 4.2500000e+01 
7.5000000e-01 3.0000000e+00 4.3000000e+01 
7.5000000e-01 3.0000000e+00 4.3500000e+01 
7.5000000e-01 3.0000000e+00 4.4000000e+01 
7.5000000e-01 3.0000000e+00 4.4500000e+01 
7.5000000e-01 3.0000000e+00 4.5000000e+01 
7.5000000e-01 3.0000000e+00 4.5500000e+01 
7.5000000e-01 3.0000000e+00 4.6000000e+01 
7.5000000e-01 3.0000000e+00 4.6500000e+01 
7.5000000e-01 3.0000000e+00 4.7000000e+01 
7.5000000e-01 3.0000000e+00 4.7500000e+01 
7.5000000e-01 3.0000000e+00 4.8000000e+01 
7.5000000e-01 3.0000000e+00 4.8500000e+01 
7.5000000e-01 3.0000000e+00 4.9000000e+01 
7.5000000e-01 3.0000000e+00 4.9500000e+01 
7.5000000e-01 3.0250001e+00 0.0000000e+00 
7.5000000e-01 3.0250001e+00 5.0000000e-01 
7.5000000e-01 3.0250001e+00 1.0000000e+00 
7.5000000e-01 3.0250001e+00 1.5000000e+00 
7.5000000e-01 3.0250001e+00 2.0000000e+00 
7.5000000e-01 3.0250001e+00 2.5000000e+00 
7.5000000e-01 3.0250001e+00 3.0000000e+00 
7.5000000e-01 3.0250001e+00 3.5000000e+00 
7.5000000e-01 3.0250001e+00 4.0000000e+00 
7.5000000e-01 3.0250001e+00 4.5000000e+00 
7.5000000e-01 3.0250001e+00 5.0000000e+00 
7.5000000e-01 3.0250001e+00 5.5000000e+00 
7.5000000e-01 3.0250001e+00 6.0000000e+00 
7.5000000e-01 3.0250001e+00 6.5000000e+00 
7.5000000e-01 3.0250001e+00 7.0000000e+00 
7.5000000e-01 3.0250001e+00 7.5000000e+00 
7.5000000e-01 3.0250001e+00 8.0000000e+00 
7.5000000e-01 3.0250001e+00 8.5000000e+00 
7.5000000e-01 3.0250001e+00 9.0000000e+00 
7.5000000e-01 3.0250001e+00 9.5000000e+00 
7.5000000e-01 3.0250001e+00 1.0000000e+01 
7.5000000e-01 3.0250001e+00 1.0500000e+01 
7.5000000e-01 3.0250001e+00 1.1000000e+01 
7.5000000e-01 3.0250001e+00 1.1500000e+01 
7.5000000e-01 3.0250001e+00 1.2000000e+01 
7.5000000e-01 3.0250001e+00 1.2500000e+01 
7.5000000e-01 3.0250001e+00 1.3000000e+01 
7.5000000e-01 3.0250001e+00 1.3500000e+01 
7.5000000e-01 3.0250001e+00 1.4000000e+01 
7.5000000e-01 3.0250001e+00 1.4500000e+01 
7.5000000e-01 3.0250001e+00 1.5000000e+01 
7.5000000e-01 3.0250001e+00 1.5500000e+01 
7.5000000e-01 3.0250001e+00 1.6000000e+01 
7.5000000e-01 3.0250001e+00 1.6500000e+01 
7.5000000e-01 3.0250001e+00 1.7000000e+01 
7.5000000e-01 3.0250001e+00 1.7500000e+01 
7.5000000e-01 3.0250001e+00 1.8000000e+01 
7.5000000e-01 3.0250001e+00 1.8500000e+01 
7.5000000e-01 3.0250001e+00 1.9000000e+01 
7.5000000e-01 3.0250001e+00 1.9500000e+01 
7.5000000e-01 3.0250001e+00 2.0000000e+01 
7.5000000e-01 3.0250001e+00 2.0500000e+01 
7.5000000e-01 3.0250001e+00 2.1000000e+01 
7.5000000e-01 3.0250001e+00 2.1500000e+01 
7.5000000e-01 3.0250001e+00 2.2000000e+01 
7.5000000e-01 3.0250001e+00 2.2500000e+01 
7.5000000e-01 3.0250001e+00 2.3000000e+01 
7.5000000e-01 3.0250001e+00 2.3500000e+01 
7.5000000e-01 3.0250001e+00 2.4000000e+01 
7.5000000e-01 3.0250001e+00 2.4500000e+01 
7.5000000e-01 3.0250001e+00 2.5000000e+01 
7.5000000e-01 3.0250001e+00 2.5500000e+01 
7.5000000e-01 3.0250001e+00 2.6000000e+01 
7.5000000e-01 3.0250001e+00 2.6500000e+01 
7.5000000e-01 3.0250001e+00 2.7000000e+01 
7.5000000e-01 3.0250001e+00 2.7500000e+01 
7.5000000e-01 3.0250001e+00 2.8000000e+01 
7.5000000e-01 3.0250001e+00 2.8500000e+01 
7.5000000e-01 3.0250001e+00 2.9000000e+01 
7.5000000e-01 3.0250001e+00 2.9500000e+01 
7.5000000e-01 3.0250001e+00 3.0000000e+01 
7.5000000e-01 3.0250001e+00 3.0500000e+01 
7.5000000e-01 3.0250001e+00 3.1000000e+01 
7.5000000e-01 3.0250001e+00 3.1500000e+01 
7.5000000e-01 3.0250001e+00 3.2000000e+01 
7.5000000e-01 3.0250001e+00 3.2500000e+01 
7.5000000e-01 3.0250001e+00 3.3000000e+01 
7.5000000e-01 3.0250001e+00 3.3500000e+01 
7.5000000e-01 3.0250001e+00 3.4000000e+01 
7.5000000e-01 3.0250001e+00 3.4500000e+01 
7.5000000e-01 3.0250001e+00 3.5000000e+01 
7.5000000e-01 3.0250001e+00 3.5500000e+01 
7.5000000e-01 3.0250001e+00 3.6000000e+01 
7.5000000e-01 3.0250001e+00 3.6500000e+01 
7.5000000e-01 3.0250001e+00 3.7000000e+01 
7.5000000e-01 3.0250001e+00 3.7500000e+01 
7.5000000e-01 3.0250001e+00 3.8000000e+01 
7.5000000e-01 3.0250001e+00 3.8500000e+01 
7.5000000e-01 3.0250001e+00 3.9000000e+01 
7.5000000e-01 3.0250001e+00 3.9500000e+01 
7.5000000e-01 3.0250001e+00 4.0000000e+01 
7.5000000e-01 3.0250001e+00 4.0500000e+01 
7.5000000e-01 3.0250001e+00 4.1000000e+01 
7.5000000e-01 3.0250001e+00 4.1500000e+01 
7.5000000e-01 3.0250001e+00 4.2000000e+01 
7.5000000e-01 3.0250001e+00 4.2500000e+01 
7.5000000e-01 3.0250001e+00 4.3000000e+01 
7.5000000e-01 3.0250001e+00 4.3500000e+01 
7.5000000e-01 3.0250001e+00 4.4000000e+01 
7.5000000e-01 3.0250001e+00 4.4500000e+01 
7.5000000e-01 3.0250001e+00 4.5000000e+01 
7.5000000e-01 3.0250001e+00 4.5500000e+01 
7.5000000e-01 3.0250001e+00 4.6000000e+01 
7.5000000e-01 3.0250001e+00 4.6500000e+01 
7.5000000e-01 3.0250001e+00 4.7000000e+01 
7.5000000e-01 3.0250001e+00 4.7500000e+01 
7.5000000e-01 3.0250001e+00 4.8000000e+01 
7.5000000e-01 3.0250001e+00 4.8500000e+01 
7.5000000e-01 3.0250001e+00 4.9000000e+01 
7.5000000e-01 3.0250001e+00 4.9500000e+01 
7.5000000e-01 3.0250001e+00 5.0000000e+01 
3.0000000e+00 2.0000000e+00 3.6000000e+01 
8.0487806e-01 3.0000000e+00 3.6000000e+01 
0.0000000e+00 0.0000000e+00 1.0000000e+00 
0.0000000e+00 0.0000000e+00 2.0000000e+00 
0.0000000e+00 0.0000000e+00 3.0000000e+00 
0.0000000e+00 0.0000000e+00 4.0000000e+00 
0.0000000e+00 0.0000000e+00 5.0000000e+00 
0.0000000e+00 0.0000000e+00 6.0000000e+00 
0.0000000e+00 0.0000000e+00 7.0000000e+00 
0.0000000e+00 0.0000000e+00 8.0000000e+00 
[...]
POINT_DATA 1919
FIELD FieldData 3
DISPLACEMENT 3 1919  float
0.0000000e+00 0.0000000e+00 0.0000000e+00 
0.0000000e+00 0.0000000e+00 0.0000000e+00 
0.0000000e+00 0.0000000e+00 0.0000000e+00 
0.0000000e+00 0.0000000e+00 0.0000000e+00 
1.1954539e-06 1.9374211e-06 3.3999518e-07 
2.8240009e-07 4.9817737e-07 -2.3903377e-07 
0.0000000e+00 1.1107263e-06 0.0000000e+00 
0.0000000e+00 -3.5771491e-06 0.0000000e+00 
-2.1684029e-06 4.2651045e-06 2.6818034e-06 
-4.5480368e-07 1.4807458e-06 -1.8540281e-06 
-3.0605026e-06 7.3544975e-06 5.7319548e-06 
-1.5148401e-06 -7.8800844e-07 6.1014975e-07 
0.0000000e+00 -1.3308668e-05 0.0000000e+00 
0.0000000e+00 -7.7663290e-06 0.0000000e+00 
-1.6830152e-05 -2.8237551e-05 4.6008918e-05 
-1.5197379e-06 -8.9666228e-06 -1.0924369e-05 
1.4065755e-06 -5.1147596e-05 1.4744872e-05 
7.4969103e-06 -1.9444764e-05 -4.0822579e-06 
0.0000000e+00 -4.9110218e-05 0.0000000e+00 
0.0000000e+00 -1.8548311e-05 0.0000000e+00 
-1.1796004e-05 -5.9289898e-05 3.4912933e-05 
-1.6440032e-05 -7.7685603e-05 3.4597040e-05 
-2.4676481e-05 -9.4884279e-05 2.1356844e-05 
-2.8377019e-05 -1.0620329e-04 4.4589119e-06 
-1.6886310e-05 -1.1419036e-04 -4.3724799e-06 
-9.9850768e-06 -1.2803535e-04 -1.9732426e-05 
-3.0738975e-05 -1.4761392e-04 -1.6668602e-05 
-2.7359034e-05 -1.5951825e-04 -1.5148430e-05 
-3.5906192e-05 -1.5291602e-04 -1.1996754e-05 
-3.9186813e-05 -1.3232745e-04 -2.3713235e-05 
-3.6733112e-05 -1.1065017e-04 -3.0675223e-05 
-2.0586693e-05 -1.0413029e-04 -3.0488311e-05 
-1.5324609e-05 -1.1089038e-04 -2.4414805e-05 
-1.0567842e-05 -1.0641706e-04 -2.0820025e-05 
-3.0732328e-05 -6.2494430e-05 -3.2812186e-05 
-2.8450993e-05 2.6105219e-05 -4.0280531e-05 
4.8914762e-06 1.2772343e-04 -4.2346048e-05 
4.8787558e-07 1.7925909e-04 -1.8521314e-05 
5.9715185e-06 1.4130573e-04 8.3644800e-06 
6.4218830e-06 -6.6308130e-06 4.2869171e-05 
-8.4825433e-06 -2.9211899e-04 1.1349776e-04 
-5.2087409e-05 -7.6357723e-04 9.3728100e-05 
-7.2162889e-05 -1.5090384e-03 2.4246286e-04 
-1.6723605e-04 -2.5630160e-03 1.6265067e-04 
-2.1085412e-04 -3.8114425e-03 2.9478461e-04 
-2.4181914e-04 -4.7480906e-03 1.9348392e-04 
-2.6582889e-04 -4.8853615e-03 1.7954601e-04 
-2.8172991e-04 -4.7018290e-03 1.0813482e-04 
-2.8990145e-04 -4.7107218e-03 1.0451989e-04 
-2.8874574e-04 -4.9379538e-03 -2.0653928e-05 
-2.8955887e-04 -4.9585500e-03 -1.1334020e-04 
-2.5585454e-04 -4.1092397e-03 -1.2888448e-04 
-2.0253377e-04 -2.8670733e-03 -2.5339407e-04 
-1.2071487e-04 -1.6891945e-03 -1.3368856e-04 
-5.9595499e-05 -8.0568384e-04 -1.7367562e-04 
-3.0032847e-05 -2.4208357e-04 -8.2849234e-05 
-2.2098575e-05 6.4019514e-05 -7.6352946e-05 
7.1327663e-06 2.0427282e-04 -3.6608875e-05 
3.2424210e-05 2.5006189e-04 -2.0994043e-05 
4.6705700e-05 2.3747825e-04 2.7392568e-07 
3.1909796e-05 1.8964295e-04 1.9144614e-05 
1.7068736e-05 1.2960011e-04 3.4703811e-05 
-1.2083041e-05 7.6470278e-05 4.2391202e-05 
-2.2580223e-05 3.3254648e-05 1.3814053e-05 
-3.0391207e-05 -1.3434683e-05 8.0188738e-06 
-2.6383956e-05 -8.1795719e-05 2.5095690e-06 
-4.1687472e-05 -1.6971443e-04 1.7331035e-05 
-2.5421357e-05 -2.5128952e-04 2.3765493e-05 
-2.8678867e-05 -2.9513027e-04 1.3225611e-05 
-2.4241235e-05 -2.8928000e-04 -1.7142243e-05 
-2.2852091e-05 -2.4922076e-04 -2.9326706e-05 
-1.4615112e-05 -2.0800201e-04 -4.9702208e-05 
-1.4626381e-05 -1.8272032e-04 -6.5158354e-05 
-2.9186176e-05 -1.6946359e-04 -5.9862621e-05 
-5.8713591e-05 -1.3948871e-04 -6.6326756e-05 
-4.6677469e-05 -6.6113251e-05 -6.3477906e-05 
-2.4766738e-05 4.4057917e-05 -7.9495388e-05 
-1.1870201e-05 1.3807886e-04 -7.9685014e-05 
3.0431850e-06 1.3930423e-04 -6.4743457e-05 
-1.3470658e-05 -3.1222073e-05 -3.4339770e-05 
-2.9085732e-05 -4.0939136e-04 5.0543498e-05 
-7.2379880e-05 -1.0076707e-03 5.9277696e-05 
-1.1294339e-04 -1.8597735e-03 2.1279349e-04 
-2.0273337e-04 -2.9393192e-03 1.0323910e-04 
-2.6299388e-04 -4.1123619e-03 2.2119774e-04 
-3.2028597e-04 -4.9052434e-03 1.0255002e-04 
-3.2402642e-04 -4.9893535e-03 4.0103143e-05 
-3.0791413e-04 -4.8352308e-03 4.2570996e-06 
-2.7645868e-04 -4.8959651e-03 -4.8201899e-05 
7.4298645e-05 -5.0777537e-03 6.3400861e-05 
-1.6625148e-04 -4.8559597e-03 5.0695882e-05 
-1.4709502e-04 -3.8514938e-03 4.4441017e-06 
-1.2758731e-04 -2.5925809e-03 -1.5235870e-04 
-5.4202876e-05 -1.4849857e-03 -6.3616440e-05 
-6.1451225e-05 -6.9755007e-04 -1.3984799e-04 
-3.9520157e-05 -1.9845286e-04 -7.3444011e-05 
-3.1702792e-05 8.3347331e-05 -9.1013470e-05 
-1.7822278e-05 2.1800857e-04 -7.1489878e-05 
-3.2177518e-06 2.5746654e-04 -7.3370618e-05 
8.5592154e-07 2.3955446e-04 -6.5292319e-05 
1.5590835e-05 1.9600545e-04 -4.9252722e-05 
1.6086602e-05 1.4670334e-04 -4.1719701e-05 
5.4432508e-06 9.8368888e-05 -3.2386521e-05 
3.7774944e-07 5.0945735e-05 -3.1420084e-05 
4.2380639e-06 4.4503499e-06 -1.4064777e-05 
3.2744219e-06 -3.5814199e-05 -3.6109753e-07 
3.7177540e-06 -6.2939900e-05 1.9858560e-05 
3.5036512e-06 -7.2977607e-05 3.2580134e-05 
-4.7105073e-06 -6.7122855e-05 7.6610604e-06 
-1.8890673e-06 -4.9460090e-05 -1.4907955e-06 
6.1473443e-06 -2.4384992e-05 -9.0491467e-06 
6.7876663e-06 2.4297244e-06 -4.6371288e-06 
6.8155623e-06 2.4747691e-05 1.9441416e-06 
3.3650801e-06 3.7190213e-05 1.0334043e-05 
-4.1079393e-06 3.6543683e-05 1.2113810e-05 
-6.9757793e-06 2.5449037e-05 9.9539666e-06 
-8.2330898e-06 9.3499948e-06 4.9461974e-06 
-6.7960282e-06 -5.7916286e-06 -1.7507789e-06 
-2.7990889e-06 -1.5944832e-05 -6.0912580e-06 
0.0000000e+00 -5.1650091e-05 0.0000000e+00 
0.0000000e+00 -5.9602382e-05 0.0000000e+00 
0.0000000e+00 -7.7315526e-05 0.0000000e+00 
0.0000000e+00 -9.4283278e-05 0.0000000e+00 
0.0000000e+00 -1.0561742e-04 0.0000000e+00 
0.0000000e+00 -1.1470874e-04 0.0000000e+00 
0.0000000e+00 -1.2909393e-04 0.0000000e+00 
0.0000000e+00 -1.4775692e-04 0.0000000e+00 
0.0000000e+00 -1.5866834e-04 0.0000000e+00 
0.0000000e+00 -1.5222337e-04 0.0000000e+00 
0.0000000e+00 -1.3194905e-04 0.0000000e+00 
0.0000000e+00 -1.1143829e-04 0.0000000e+00 
0.0000000e+00 -1.0541714e-04 0.0000000e+00 
0.0000000e+00 -1.1156980e-04 0.0000000e+00 
0.0000000e+00 -1.0574330e-04 0.0000000e+00 
0.0000000e+00 -6.0513587e-05 0.0000000e+00 
0.0000000e+00 2.8326078e-05 0.0000000e+00 
0.0000000e+00 1.2724922e-04 0.0000000e+00 
0.0000000e+00 1.7842384e-04 0.0000000e+00 
0.0000000e+00 1.4095494e-04 0.0000000e+00 
0.0000000e+00 -6.2917811e-06 0.0000000e+00 
0.0000000e+00 -2.9023286e-04 0.0000000e+00 
0.0000000e+00 -7.6560566e-04 0.0000000e+00 
0.0000000e+00 -1.5162491e-03 0.0000000e+00 
0.0000000e+00 -2.5827223e-03 0.0000000e+00 
0.0000000e+00 -3.8311942e-03 0.0000000e+00 
0.0000000e+00 -4.7765267e-03 0.0000000e+00 
0.0000000e+00 -4.9046995e-03 0.0000000e+00 
0.0000000e+00 -4.7268276e-03 0.0000000e+00 
0.0000000e+00 -4.7340337e-03 0.0000000e+00 
0.0000000e+00 -4.9700597e-03 0.0000000e+00 
0.0000000e+00 -4.9819602e-03 0.0000000e+00 
0.0000000e+00 -4.1313530e-03 0.0000000e+00 
0.0000000e+00 -2.8796566e-03 0.0000000e+00 
0.0000000e+00 -1.6994658e-03 0.0000000e+00 
0.0000000e+00 -8.0974650e-04 0.0000000e+00 
0.0000000e+00 -2.4279696e-04 0.0000000e+00 
0.0000000e+00 6.5504624e-05 0.0000000e+00 
0.0000000e+00 2.0615007e-04 0.0000000e+00 
0.0000000e+00 2.5068314e-04 0.0000000e+00 
0.0000000e+00 2.3753506e-04 0.0000000e+00 
0.0000000e+00 1.8995089e-04 0.0000000e+00 
0.0000000e+00 1.3045153e-04 0.0000000e+00 
0.0000000e+00 7.7281351e-05 0.0000000e+00 
0.0000000e+00 3.3540568e-05 0.0000000e+00 
0.0000000e+00 -1.4203163e-05 0.0000000e+00 
0.0000000e+00 -8.2776605e-05 0.0000000e+00 
0.0000000e+00 -1.7013399e-04 0.0000000e+00 
0.0000000e+00 -2.5064999e-04 0.0000000e+00 
0.0000000e+00 -2.9390963e-04 0.0000000e+00 
0.0000000e+00 -2.8831253e-04 0.0000000e+00 
0.0000000e+00 -2.4965775e-04 0.0000000e+00 
0.0000000e+00 -2.0884007e-04 0.0000000e+00 
0.0000000e+00 -1.8411064e-04 0.0000000e+00 
0.0000000e+00 -1.6979173e-04 0.0000000e+00 
0.0000000e+00 -1.3833068e-04 0.0000000e+00 
0.0000000e+00 -6.3953528e-05 0.0000000e+00 
0.0000000e+00 4.6034867e-05 0.0000000e+00 
0.0000000e+00 1.3921782e-04 0.0000000e+00 
0.0000000e+00 1.3736596e-04 0.0000000e+00 
0.0000000e+00 -3.3110104e-05 0.0000000e+00 
0.0000000e+00 -4.0946668e-04 0.0000000e+00 
0.0000000e+00 -1.0109433e-03 0.0000000e+00 
0.0000000e+00 -1.8652418e-03 0.0000000e+00 
0.0000000e+00 -2.9587641e-03 0.0000000e+00 
0.0000000e+00 -4.1339174e-03 0.0000000e+00 
0.0000000e+00 -4.9385712e-03 0.0000000e+00 
0.0000000e+00 -5.0098645e-03 0.0000000e+00 
0.0000000e+00 -4.8637651e-03 0.0000000e+00 
0.0000000e+00 -4.9203555e-03 0.0000000e+00 
0.0000000e+00 -5.0972388e-03 0.0000000e+00 
0.0000000e+00 -4.8834477e-03 0.0000000e+00 
0.0000000e+00 -3.8765750e-03 0.0000000e+00 
0.0000000e+00 -2.6047579e-03 0.0000000e+00 
0.0000000e+00 -1.4941086e-03 0.0000000e+00 
0.0000000e+00 -6.9895439e-04 0.0000000e+00 
0.0000000e+00 -1.9804903e-04 0.0000000e+00 
0.0000000e+00 8.4172760e-05 0.0000000e+00 
0.0000000e+00 2.1873209e-04 0.0000000e+00 
0.0000000e+00 2.5799582e-04 0.0000000e+00 
0.0000000e+00 2.4035400e-04 0.0000000e+00 
0.0000000e+00 1.9667507e-04 0.0000000e+00 
0.0000000e+00 1.4690877e-04 0.0000000e+00 
0.0000000e+00 9.8296288e-05 0.0000000e+00 
0.0000000e+00 5.0759383e-05 0.0000000e+00 
0.0000000e+00 4.4751528e-06 0.0000000e+00 
0.0000000e+00 -3.5641660e-05 0.0000000e+00 
0.0000000e+00 -6.2759587e-05 0.0000000e+00 
0.0000000e+00 -7.2912087e-05 0.0000000e+00 
0.0000000e+00 -6.7108260e-05 0.0000000e+00 
0.0000000e+00 -4.9347305e-05 0.0000000e+00 
0.0000000e+00 -2.4346011e-05 0.0000000e+00 
0.0000000e+00 2.3396803e-06 0.0000000e+00 
0.0000000e+00 2.4596535e-05 0.0000000e+00 
0.0000000e+00 3.6906789e-05 0.0000000e+00 
0.0000000e+00 3.6439669e-05 0.0000000e+00 
0.0000000e+00 2.5458607e-05 0.0000000e+00 
0.0000000e+00 9.4488032e-06 0.0000000e+00 
0.0000000e+00 -5.6840890e-06 0.0000000e+00 
0.0000000e+00 -1.5893131e-05 0.0000000e+00 
0.0000000e+00 -1.9428060e-05 0.0000000e+00 
5.3388962e-05 -7.1637100e-05 3.9203693e-05 
-1.6408162e-04 -3.4553721e-03 -1.5874393e-06 
0.0000000e+00 0.0000000e+00 0.0000000e+00 
0.0000000e+00 0.0000000e+00 0.0000000e+00 
0.0000000e+00 0.0000000e+00 0.0000000e+00 
0.0000000e+00 0.0000000e+00 0.0000000e+00 
0.0000000e+00 0.0000000e+00 0.0000000e+00 
0.0000000e+00 0.0000000e+00 0.0000000e+00 
0.0000000e+00 0.0000000e+00 0.0000000e+00 
0.0000000e+00 0.0000000e+00 0.0000000e+00 
0.0000000e+00 0.0000000e+00 0.0000000e+00 
0.0000000e+00 0.0000000e+00 0.0000000e+00 
0.0000000e+00 0.0000000e+00 0.0000000e+00 
0.0000000e+00 0.0000000e+00 0.0000000e+00 
0.0000000e+00 0.0000000e+00 0.0000000e+00 
0.0000000e+00 0.0000000e+00 0.0000000e+00 
0.0000000e+00 0.0000000e+00 0.0000000e+00 
0.0000000e+00 0.0000000e+00 0.0000000e+00 
0.0000000e+00 0.0000000e+00 0.0000000e+00 
0.0000000e+00 0.0000000e+00 0.0000000e+00 
0.0000000e+00 0.0000000e+00 0.0000000e+00 
0.0000000e+00 0.0000000e+00 0.0000000e+00 
0.0000000e+00 0.0000000e+00 0.0000000e+00 
0.0000000e+00 0.0000000e+00 0.0000000e+00 
0.0000000e+00 0.0000000e+00 0.0000000e+00 
0.0000000e+00 0.0000000e+00 0.0000000e+00 
0.0000000e+00 0.0000000e+00 0.0000000e+00 
0.0000000e+00 0.0000000e+00 0.0000000e+00 
0.0000000e+00 0.0000000e+00 0.0000000e+00 
0.0000000e+00 0.0000000e+00 0.0000000e+00 
0.0000000e+00 0.0000000e+00 0.0000000e+00 
0.0000000e+00 0.0000000e+00 0.0000000e+00 
0.0000000e+00 0.0000000e+00 0.0000000e+00 
0.0000000e+00 0.0000000e+00 0.0000000e+00 
0.0000000e+00 0.0000000e+00 0.0000000e+00 
0.0000000e+00 0.0000000e+00 0.0000000e+00 
0.0000000e+00 0.0000000e+00 0.0000000e+00 
0.0000000e+00 0.0000000e+00 0.0000000e+00 
0.0000000e+00 0.0000000e+00 0.0000000e+00 
0.0000000e+00 0.0000000e+00 0.0000000e+00 
0.0000000e+00 0.0000000e+00 0.0000000e+00 
0.0000000e+00 0.0000000e+00 0.0000000e+00 
0.0000000e+00 0.0000000e+00 0.0000000e+00 
0.0000000e+00 0.0000000e+00 0.0000000e+00 
0.0000000e+00 0.0000000e+00 0.0000000e+00 
0.0000000e+00 0.0000000e+00 0.0000000e+00 
0.0000000e+00 0.0000000e+00 0.0000000e+00 
0.0000000e+00 0.0000000e+00 0.0000000e+00 
0.0000000e+00 0.0000000e+00 0.0000000e+00 
0.0000000e+00 0.0000000e+00 0.0000000e+00 
0.0000000e+00 0.0000000e+00 0.0000000e+00 
0.0000000e+00 0.0000000e+00 0.0000000e+00 
0.0000000e+00 0.0000000e+00 0.0000000e+00 
0.0000000e+00 0.0000000e+00 0.0000000e+00 
0.0000000e+00 0.0000000e+00 0.0000000e+00 
0.0000000e+00 0.0000000e+00 0.0000000e+00 
0.0000000e+00 0.0000000e+00 0.0000000e+00 
0.0000000e+00 0.0000000e+00 0.0000000e+00 
0.0000000e+00 0.0000000e+00 0.0000000e+00 
0.0000000e+00 0.0000000e+00 0.0000000e+00 
0.0000000e+00 0.0000000e+00 0.0000000e+00 
0.0000000e+00 0.0000000e+00 0.0000000e+00 
0.0000000e+00 0.0000000e+00 0.0000000e+00 
0.0000000e+00 0.0000000e+00 0.0000000e+00 
0.0000000e+00 0.0000000e+00 0.0000000e+00 
0.0000000e+00 0.0000000e+00 0.0000000e+00 
0.0000000e+00 0.0000000e+00 0.0000000e+00 
0.0000000e+00 0.0000000e+00 0.0000000e+00 
0.0000000e+00 0.0000000e+00 0.0000000e+00 
0.0000000e+00 0.0000000e+00 0.0000000e+00 
0.0000000e+00 0.0000000e+00 0.0000000e+00 
0.0000000e+00 0.0000000e+00 0.0000000e+00 
0.0000000e+00 0.0000000e+00 0.0000000e+00 
0.0000000e+00 0.0000000e+00 0.0000000e+00 
0.0000000e+00 0.0000000e+00 0.0000000e+00 
0.0000000e+00 0.0000000e+00 0.0000000e+00 
0.0000000e+00 0.0000000e+00 0.0000000e+00 
0.0000000e+00 0.0000000e+00 0.0000000e+00 
0.0000000e+00 0.0000000e+00 0.0000000e+00 
0.0000000e+00 0.0000000e+00 0.0000000e+00 
0.0000000e+00 0.0000000e+00 0.0000000e+00 
0.0000000e+00 0.0000000e+00 0.0000000e+00 
0.0000000e+00 0.0000000e+00 0.0000000e+00 
0.0000000e+00 0.0000000e+00 0.0000000e+00 
0.0000000e+00 0.0000000e+00 0.0000000e+00 
0.0000000e+00 0.0000000e+00 0.0000000e+00 
0.0000000e+00 0.0000000e+00 0.0000000e+00 
0.0000000e+00 0.0000000e+00 0.0000000e+00 
0.0000000e+00 0.0000000e+00 0.0000000e+00 
0.0000000e+00 0.0000000e+00 0.0000000e+00 
0.0000000e+00 0.0000000e+00 0.0000000e+00 
0.0000000e+00 0.0000000e+00 0.0000000e+00 
0.0000000e+00 0.0000000e+00 0.0000000e+00 
0.0000000e+00 0.0000000e+00 0.0000000e+00 
0.0000000e+00 0.0000000e+00 0.0000000e+00 
0.0000000e+00 0.0000000e+00 0.0000000e+00 
0.0000000e+00 0.0000000e+00 0.0000000e+00 
0.0000000e+00 0.0000000e+00 0.0000000e+00 
0.0000000e+00 0.0000000e+00 0.0000000e+00 
0.0000000e+00 0.0000000e+00 0.0000000e+00 
0.0000000e+00 0.0000000e+00 0.0000000e+00 
0.0000000e+00 0.0000000e+00 0.0000000e+00 
0.0000000e+00 0.0000000e+00 0.0000000e+00 
0.0000000e+00 0.0000000e+00 0.0000000e+00 
0.0000000e+00 0.0000000e+00 0.0000000e+00 
0.0000000e+00 0.0000000e+00 0.0000000e+00 
0.0000000e+00 0.0000000e+00 0.0000000e+00 
0.0000000e+00 0.0000000e+00 0.0000000e+00 
-1.1651856e-07 1.6390001e-06 2.9558096e-06 
2.4584567e-06 -1.9819261e-06 -1.8771682e-06 
6.5443519e-06 -1.5219381e-06 -1.1574399e-06 
5.0183453e-06 -9.9099395e-07 -2.6103942e-07 
3.3024780e-06 5.9531653e-06 -4.6148775e-06 
-2.6738146e-06 -3.9416723e-06 1.7522610e-06 
-4.5762713e-06 6.3724501e-06 -2.1489293e-06 
-4.2364736e-06 5.1097823e-07 -9.5257919e-06 
2.0520222e-06 -3.8837520e-06 -1.1470681e-05 
1.0412602e-05 1.0227978e-06 -9.9796098e-06 
2.2128481e-05 -1.2021088e-05 -1.0162231e-05 
3.8432463e-05 -1.2895614e-05 -8.7851395e-06 
5.0907925e-05 -1.4342654e-05 2.0670297e-08 
5.3379277e-05 -1.9168367e-05 8.9207770e-06 
5.2844174e-05 -1.7080007e-05 1.8208944e-05 
3.7453639e-05 -1.3122261e-05 2.3612622e-05 
2.7324731e-05 -4.8875613e-06 2.0433023e-05 
1.5460606e-05 -2.0503803e-06 1.7092063e-05 
9.3275876e-06 -5.4800006e-07 8.9323648e-06 
5.0635845e-06 -2.9147047e-06 -2.2021810e-07 
4.0031468e-06 1.2656251e-06 -4.5267875e-06 
6.4209821e-06 4.0898235e-06 -5.3939552e-06 
6.0190237e-06 1.7911025e-06 -3.6727047e-06 
3.9097349e-06 2.6213252e-06 -1.7324284e-06 
7.8705966e-07 2.9681407e-06 -4.8590327e-06 
3.9310157e-06 -3.6602660e-06 -9.0236717e-06 
-1.7424087e-06 3.5128214e-06 -6.8905160e-06 
-2.6839093e-06 3.3723236e-06 -6.2110398e-06 
5.6737522e-06 -6.4484739e-06 -1.3306683e-05 
1.2479800e-05 -5.0416593e-06 -1.6819067e-05 
2.8542061e-05 -6.5767758e-06 -1.3703852e-05 
4.1045703e-05 -1.8398232e-05 -1.2025209e-05 
4.7376976e-05 -1.2452270e-05 -2.1644184e-06 
5.1571609e-05 -1.5219068e-05 1.2008622e-05 
4.8910195e-05 -1.4885124e-05 1.8100747e-05 
3.9071256e-05 -1.3225495e-05 2.5061352e-05 
2.5902385e-05 -9.7880993e-06 2.4348863e-05 
1.7718294e-05 -8.6848477e-06 1.8708217e-05 
8.0707860e-06 -4.1032436e-06 1.0828998e-05 
1.3644536e-06 4.7817338e-07 8.3435702e-07 
-2.5626562e-07 2.6036732e-06 -2.0070993e-06 
-2.0514817e-06 2.9691257e-06 -3.8298322e-06 
-2.4975234e-06 1.7943586e-06 -4.2964621e-06 
-1.1466758e-06 -5.7948574e-07 -2.8378649e-06 
1.3227158e-07 -1.5639316e-06 -3.2857610e-08 
5.1790227e-07 -3.7393161e-07 1.6779666e-06 
8.5543218e-07 7.8367214e-07 2.9450966e-06 
7.7087594e-07 -1.8378836e-07 2.4914602e-06 
4.5125995e-07 -1.1780421e-06 1.5354635e-06 
0.0000000e+00 -4.0251187e-05 0.0000000e+00 
0.0000000e+00 -5.3077983e-05 0.0000000e+00 
0.0000000e+00 -7.0878967e-05 0.0000000e+00 
0.0000000e+00 -7.5232718e-05 0.0000000e+00 
0.0000000e+00 -4.8659753e-05 0.0000000e+00 
0.0000000e+00 -4.6295398e-05 0.0000000e+00 
0.0000000e+00 -5.6355908e-05 0.0000000e+00 
0.0000000e+00 -1.2420493e-05 0.0000000e+00 
0.0000000e+00 1.0966879e-05 0.0000000e+00 
0.0000000e+00 -2.2143811e-05 0.0000000e+00 
0.0000000e+00 -5.7766192e-05 0.0000000e+00 
0.0000000e+00 -3.0184831e-04 0.0000000e+00 
0.0000000e+00 -4.8543670e-04 0.0000000e+00 
0.0000000e+00 -5.4931286e-04 0.0000000e+00 
0.0000000e+00 -5.8312627e-04 0.0000000e+00 
0.0000000e+00 -4.7184253e-04 0.0000000e+00 
0.0000000e+00 -2.5945497e-04 0.0000000e+00 
0.0000000e+00 -1.0406073e-04 0.0000000e+00 
0.0000000e+00 -3.4240107e-05 0.0000000e+00 
0.0000000e+00 -4.7181777e-05 0.0000000e+00 
0.0000000e+00 -7.3420015e-05 0.0000000e+00 
0.0000000e+00 -6.6496868e-05 0.0000000e+00 
0.0000000e+00 -1.1529060e-04 0.0000000e+00 
0.0000000e+00 -1.4421932e-04 0.0000000e+00 
0.0000000e+00 -1.2601957e-04 0.0000000e+00 
0.0000000e+00 -1.0451178e-04 0.0000000e+00 
0.0000000e+00 -9.2173053e-05 0.0000000e+00 
0.0000000e+00 8.9080049e-06 0.0000000e+00 
0.0000000e+00 2.7969170e-05 0.0000000e+00 
0.0000000e+00 -5.4403903e-05 0.0000000e+00 
0.0000000e+00 -1.2868128e-04 0.0000000e+00 
0.0000000e+00 -2.9690156e-04 0.0000000e+00 
0.0000000e+00 -4.9021951e-04 0.0000000e+00 
0.0000000e+00 -5.4553658e-04 0.0000000e+00 
0.0000000e+00 -5.4577045e-04 0.0000000e+00 
0.0000000e+00 -4.3950215e-04 0.0000000e+00 
0.0000000e+00 -2.3597691e-04 0.0000000e+00 
0.0000000e+00 -7.4616182e-05 0.0000000e+00 
0.0000000e+00 2.4605815e-05 0.0000000e+00 
0.0000000e+00 4.5424687e-05 0.0000000e+00 
0.0000000e+00 3.2826607e-05 0.0000000e+00 
0.0000000e+00 1.1167021e-05 0.0000000e+00 
0.0000000e+00 -9.7411812e-06 0.0000000e+00 
0.0000000e+00 -2.0421481e-05 0.0000000e+00 
0.0000000e+00 -1.6015900e-05 0.0000000e+00 
0.0000000e+00 6.1937058e-06 0.0000000e+00 
0.0000000e+00 1.6321486e-05 0.0000000e+00 
0.0000000e+00 5.4839193e-06 0.0000000e+00 
0.0000000e+00 -3.4407428e-06 0.0000000e+00 
-1.3873751e-06 2.3769851e-06 1.5383021e-06 
1.7160191e-06 -1.6195753e-07 -7.5127014e-07 
2.6852063e-06 -1.8417508e-06 -6.4106553e-06 
3.0805395e-06 -6.4580067e-06 -3.0027632e-06 
9.8062635e-08 -4.1326032e-07 1.0786190e-06 
-3.2099445e-07 -1.6291407e-06 1.5201562e-06 
-8.6753857e-07 -3.1732532e-06 9.0843042e-07 
-4.3646418e-07 -3.2745409e-06 1.0711446e-07 
-1.5818322e-06 1.8341779e-06 1.0560638e-06 
-2.8363640e-06 1.0026955e-06 -2.3200091e-06 
5.2616798e-07 2.1337535e-06 -9.8448470e-07 
1.7238611e-06 4.8969946e-06 -3.5511268e-06 
-2.8318009e-06 6.0309808e-06 -6.3154466e-06 
-6.6959717e-07 -4.1485009e-06 -2.8262787e-06 
-5.5747450e-06 1.1006196e-05 -8.8595452e-06 
-3.0714543e-06 9.5335236e-07 -1.1723086e-05 
4.8265379e-06 -1.9524837e-06 -1.2974160e-05 
1.3928916e-05 2.3882155e-06 -3.1215529e-06 
2.1912958e-05 -1.5783226e-05 -1.9834993e-06 
3.8203558e-05 -1.2524241e-05 -3.7355610e-06 
4.9635899e-05 -1.2193965e-05 5.2490941e-06 
4.9701044e-05 -1.8527935e-05 1.4677305e-05 
4.2361953e-05 -1.2576223e-05 1.9779041e-05 
3.0659536e-05 -7.6396955e-06 2.1624228e-05 
2.4140498e-05 1.3798251e-06 2.4393967e-05 
1.7600285e-05 4.5018664e-06 2.1083048e-05 
7.5228431e-06 3.8480921e-06 1.1978390e-05 