# vtk DataFile Version 4.0
vtk output
ASCII
DATASET UNSTRUCTURED_GRID
POINTS 1919 float
0.0000000e+00 0.0000000e+00 0.0000000e+00 
0.0000000e+00 0.0000000e+00 5.0000000e+01 
5.0000000e+00 0.0000000e+00 0.0000000e+00 
5.0000000e+00 0.0000000e+00 5.0000000e+01 
5.0000000e+00 1.0000000e+00 0.0000000e+00 
5.0000000e+00 1.0000000e+00 5.0000000e+01 
0.0000000e+00 1.0000000e+00 0.0000000e+00 
0.0000000e+00 1.0000000e+00 5.0000000e+01 
5.0000000e+00 2.0000000e+00 0.0000000e+00 
5.0000000e+00 2.0000000e+00 5.0000000e+01 
3.0000000e+00 2.0000000e+00 0.0000000e+00 
3.0000000e+00 2.0000000e+00 5.0000000e+01 
0.0000000e+00 2.0000000e+00 0.0000000e+00 
0.0000000e+00 2.0000000e+00 5.0000000e+01 
1.5000000e+00 3.0000000e+00 0.0000000e+00 
1.5000000e+00 3.0000000e+00 5.0000000e+01 
7.5000000e-01 3.0000000e+00 0.0000000e+00 
7.5000000e-01 3.0000000e+00 5.0000000e+01 
0.0000000e+00 3.0000000e+00 0.0000000e+00 
0.0000000e+00 3.0000000e+00 5.0000000e+01 
7.5000000e-01 3.0000000e+00 5.0000000e-01 
7.5000000e-01 3.0000000e+00 1.0000000e+00 
7.5000000e-01 3.0000000e+00 1.5000000e+00 
7.5000000e-01 3.0000000e+00 2.0000000e+00 
7.5000000e-01 3.0000000e+00 2.5000000e+00 
7.5000000e-01 3.0000000e+00 3.0000000e+00 
7.5000000e-01 3.0000000e+00 3.5000000e+00 
7.5000000e-01 3.0000000e+00 4.0000000e+00 
7.5000000e-01 3.0000000e+00 4.5000000e+00 
7.5000000e-01 3.0000000e+00 5.0000000e+00 
7.5000000e-01 3.0000000e+00 5.5000000e+00 
7.5000000e-01 3.0000000e+00 6.0000000e+00 
7.5000000e-01 3.0000000e+00 6.5000000e+00 
7.5000000e-01 3.0000000e+00 7.0000000e+00 
7.5000000e-01 3.0000000e+00 7.5000000e+00 
7.5000000e-01 3.0000000e+00 8.0000000e+00 
7.5000000e-01 3.0000000e+00 8.5000000e+00 
7.5000000e-01 3.0000000e+00 9.0000000e+00 
7.5000000e-01 3.0000000e+00 9.5000000e+00 
7.5000000e-01 3.0000000e+00 1.0000000e+01 
7.5000000e-01 3.0000000e+00 1.0500000e+01 
7.5000000e-01 3.0000000e+00 1.1000000e+01 
7.5000000e-01 3.0000000e+00 1.1500000e+01 
7.5000000e-01 3.0000000e+00 1.2000000e+01 
7.5000000e-01 3.0000000e+00 1.2500000e+01 
7.5000000e-01 3.0000000e+00 1.3000000e+01 
7.5000000e-01 3.0000000e+00 1.3500000e+01 
7.5000000e-01 3.0000000e+00 1.4000000e+01 
7.5000000e-01 3.0000000e+00 1.4500000e+01 
7.5000000e-01 3.0000000e+00 1.5000000e+01 
7.5000000e-01 3.0000000e+00 1.5500000e+01 
7.5000000e-01 3.0000000e+00 1.6000000e+01 
7.5000000e-01 3.0000000e+00 1.6500000e+01 
7.5000000e-01 3.0000000e+00 1.7000000e+01 
7.5000000e-01 3.0000000e+00 1.7500000e+01 
7.5000000e-01 3.0000000e+00 1.8000000e+01 
7.5000000e-01 3.0000000e+00 1.8500000e+01 
7.5000000e-01 3.0000000e+00 1.9000000e+01 
7.5000000e-01 3.0000000e+00 1.9500000e+01 
7.5000000e-01 3.0000000e+00 2.0000000e+01 
7.5000000e-01 3.0000000e+00 2.0500000e+01 
7.5000000e-01 3.0000000e+00 2.1000000e+01 
7.5000000e-01 3.0000000e+00 2.1500000e+01 
7.5000000e-01 3.0000000e+00 2.2000000e+01 
7.5000000e-01 3.0000000e+00 2.2500000e+01 
7.5000000e-01 3.0000000e+00 2.3000000e+01 
7.5000000e-01 3.0000000e+00 2.3500000e+01 
7.5000000e-01 3.0000000e+00 2.4000000e+01 
7.5000000e-01 3.0000000e+00 2.4500000e+01 
7.5000000e-01 3.0000000e+00 2.5000000e+01 
7.5000000e-01 3.0000000e+00 2.5500000e+01 
7.5000000e-01 3.0000000e+00 2.6000000e+01 
7.5000000e-01 3.0000000e+00 2.6500000e+01 
7.5000000e-01 3.0000000e+00 2.7000000e+01 
7.5000000e-01 3.0000000e+00 2.7500000e+01 
7.5000000e-01 3.0000000e+00 2.8000000e+01 
7.5000000e-01 3.0000000e+00 2.8500000e+01 
7.5000000e-01 3.0000000e+00 2.9000000e+01 
7.5000000e-01 3.0000000e+00 2.9500000e+01 
7.5000000e-01 3.0000000e+00 3.0000000e+01 
7.5000000e-01 3.0000000e+00 3.0500000e+01 
7.5000000e-01 3.0000000e+00 3.1000000e+01 
7.5000000e-01 3.0000000e+00 3.1500000e+01 
7.5000000e-01 3.0000000e+00 3.2000000e+01 
7.5000000e-01 3.0000000e+00 3.2500000e+01 
7.5000000e-01 3.0000000e+00 3.3000000e+01 
7.5000000e-01 3.0000000e+00 3.3500000e+01 
7.5000000e-01 3.0000000e+00 3.4000000e+01 
7.5000000e-01 3.0000000e+00 3.4500000e+01 
7.5000000e-01 3.0000000e+00 3.5000000e+01 
7.5000000e-01 3.0000000e+00 3.5500000e+01 
7.5000000e-01 3.0000000e+00 3.6000000e+01 
7.5000000e-01 3.0000000e+00 3.6500000e+01 
7.5000000e-01 3.0000000e+00 3.7000000e+01 
7.5000000e-01 3.0000000e+00 3.7500000e+01 
7.5000000e-01 3.0000000e+00 3.8000000e+01 
7.5000000e-01 3.0000000e+00 3.8500000e+01 
7.5000000e-01 3.0000000e+00 3.9000000e+01 
7.5000000e-01 3.0000000e+00 3.9500000e+01 
7.5000000e-01 3.0000000e+00 4.0000000e+01 
7.5000000e-01 3.0000000e+00 4.0500000e+01 
7.5000000e-01 3.0000000e+00 4.1000000e+01 
7.5000000e-01 3.0000000e+00 4.1500000e+01 
7.5000000e-01 3.0000000e+00 4.2000000e+01 
7.5000000e-01 3.0000000e+00 4.2500000e+01 
7.5000000e-01 3.0000000e+00 4.3000000e+01 
7.5000000e-01 3.0000000e+00 4.3500000e+01 
7.5000000e-01 3.0000000e+00 4.4000000e+01 
7.5000000e-01 3.0000000e+00 4.4500000e+01 
7.5000000e-01 3.0000000e+00 4.5000000e+01 
7.5000000e-01 3.0000000e+00 4.5500000e+01 
7.5000000e-01 3.0000000e+00 4.6000000e+01 
7.5000000e-01 3.0000000e+00 4.6500000e+01 
7.5000000e-01 3.0000000e+00 4.7000000e+01 
7.5000000e-01 3.0000000e+00 4.7500000e+01 
7.5000000e-01 3.0000000e+00 4.8000000e+01 
7.5000000e-01 3.0000000e+00 4.8500000e+01 
7.5000000e-01 3.0000000e+00 4.9000000e+01 
7.5000000e-01 3.0000000e+00 4.9500000e+01 
7.5000000e-01 3.0250001e+00 0.0000000e+00 
7.5000000e-01 3.0250001e+00 5.0000000e-01 
7.5000000e-01 3.0250001e+00 1.0000000e+00 
7.5000000e-01 3.0250001e+00 1.5000000e+00 
7.5000000e-01 3.0250001e+00 2.0000000e+00 
7.5000000e-01 3.0250001e+00 2.5000000e+00 
7.5000000e-01 3.0250001e+00 3.0000000e+00 
7.5000000e-01 3.0250001e+00 3.5000000e+00 
7.5000000e-01 3.0250001e+00 4.0000000e+00 
7.5000000e-01 3.0250001e+00 4.5000000e+00 
7.5000000e-01 3.0250001e+00 5.0000000e+00 
7.5000000e-01 3.0250001e+00 5.5000000e+00 
7.5000000e-01 3.0250001e+00 6.0000000e+00 
7.5000000e-01 3.0250001e+00 6.5000000e+00 
7.5000000e-01 3.0250001e+00 7.0000000e+00 
7.5000000e-01 3.0250001e+00 7.5000000e+00 
7.5000000e-01 3.0250001e+00 8.0000000e+00 
7.5000000e-01 3.0250001e+00 8.5000000e+00 
7.5000000e-01 3.0250001e+00 9.0000000e+00 
7.5000000e-01 3.0250001e+00 9.5000000e+00 
7.5000000e-01 3.0250001e+00 1.0000000e+01 
7.5000000e-01 3.0250001e+00 1.0500000e+01 
7.5000000e-01 3.0250001e+00 1.1000000e+01 
7.5000000e-01 3.0250001e+00 1.1500000e+01 
7.5000000e-01 3.0250001e+00 1.2000000e+01 
7.5000000e-01 3.0250001e+00 1.2500000e+01 
7.5000000e-01 3.0250001e+00 1.3000000e+01 
7.5000000e-01 3.0250001e+00 1.3500000e+01 
7.5000000e-01 3.0250001e+00 1.4000000e+01 
7.5000000e-01 3.0250001e+00 1.4500000e+01 
7.5000000e-01 3.0250001e+00 1.5000000e+01 
7.5000000e-01 3.0250001e+00 1.5500000e+01 
7.5000000e-01 3.0250001e+00 1.6000000e+01 
7.5000000e-01 3.0250001e+00 1.6500000e+01 
7.5000000e-01 3.0250001e+00 1.7000000e+01 
7.5000000e-01 3.0250001e+00 1.7500000e+01 
7.5000000e-01 3.0250001e+00 1.8000000e+01 
7.5000000e-01 3.0250001e+00 1.8500000e+01 
7.5000000e-01 3.0250001e+00 1.9000000e+01 
7.5000000e-01 3.0250001e+00 1.9500000e+01 
7.5000000e-01 3.0250001e+00 2.0000000e+01 
7.5000000e-01 3.0250001e+00 2.0500000e+01 
7.5000000e-01 3.0250001e+00 2.1000000e+01 
7.5000000e-01 3.0250001e+00 2.1500000e+01 
7.5000000e-01 3.0250001e+00 2.2000000e+01 
7.5000000e-01 3.0250001e+00 2.2500000e+01 
7.5000000e-01 3.0250001e+00 2.3000000e+01 
7.5000000e-01 3.0250001e+00 2.3500000e+01 
7.5000000e-01 3.0250001e+00 2.4000000e+01 
7.5000000e-01 3.0250001e+00 2.4500000e+01 
7.5000000e-01 3.0250001e+00 2.5000000e+01 
7.5000000e-01 3.0250001e+00 2.5500000e+01 
7.5000000e-01 3.0250001e+00 2.6000000e+01 
7.5000000e-01 3.0250001e+00 2.6500000e+01 
7.5000000e-01 3.0250001e+00 2.7000000e+01 
7.5000000e-01 3.0250001e+00 2.7500000e+01 
7.5000000e-01 3.0250001e+00 2.8000000e+01 
7.5000000e-01 3.0250001e+00 2.8500000e+01 
7.5000000e-01 3.0250001e+00 2.9000000e+01 
7.5000000e-01 3.0250001e+00 2.9500000e+01 
7.5000000e-01 3.0250001e+00 3.0000000e+01 
7.5000000e-01 3.0250001e+00 3.0500000e+01 
7.5000000e-01 3.0250001e+00 3.1000000e+01 
7.5000000e-01 3.0250001e+00 3.1500000e+01 
7.5000000e-01 3.0250001e+00 3.2000000e+01 
7.5000000e-01 3.0250001e+00 3.2500000e+01 
7.5000000e-01 3.0250001e+00 3.3000000e+01 
7.5000000e-01 3.0250001e+00 3.3500000e+01 
7.5000000e-01 3.0250001e+00 3.4000000e+01 
7.5000000e-01 3.0250001e+00 3.4500000e+01 
7.5000000e-01 3.0250001e+00 3.5000000e+01 
7.5000000e-01 3.0250001e+00 3.5500000e+01 
7.5000000e-01 3.0250001e+00 3.6000000e+01 
7.5000000e-01 3.0250001e+00 3.6500000e+01 
7.5000000e-01 3.0250001e+00 3.7000000e+01 
7.5000000e-01 3.0250001e+00 3.7500000e+01 
7.5000000e-01 3.0250001e+00 3.8000000e+01 
7.5000000e-01 3.0250001e+00 3.8500000e+01 
7.5000000e-01 3.0250001e+00 3.9000000e+01 
7.5000000e-01 3.0250001e+00 3.9500000e+01 
7.5000000e-01 3.0250001e+00 4.0000000e+01 
7.5000000e-01 3.0250001e+00 4.0500000e+01 
7.5000000e-01 3.0250001e+00 4.1000000e+01 
7.5000000e-01 3.0250001e+00 4.1500000e+01 
7.5000000e-01 3.0250001e+00 4.2000000e+01 
7.5000000e-01 3.0250001e+00 4.2500000e+01 
7.5000000e-01 3.0250001e+00 4.3000000e+01 
7.5000000e-01 3.0250001e+00 4.3500000e+01 
7.5000000e-01 3.0250001e+00 4.4000000e+01 
7.5000000e-01 3.0250001e+00 4.4500000e+01 
7.5000000e-01 3.0250001e+00 4.5000000e+01 
7.5000000e-01 3.0250001e+00 4.5500000e+01 
7.5000000e-01 3.0250001e+00 4.6000000e+01 
7.5000000e-01 3.0250001e+00 4.6500000e+01 
7.5000000e-01 3.0250001e+00 4.7000000e+01 
7.5000000e-01 3.0250001e+00 4.7500000e+01 
7.5000000e-01 3.0250001e+00 4.8000000e+01 
7.5000000e-01 3.0250001e+00 4.8500000e+01 
7.5000000e-01 3.0250001e+00 4.9000000e+01 
7.5000000e-01 3.0250001e+00 4.9500000e+01 
7.5000000e-01 3.0250001e+00 5.0000000e+01 
3.0000000e+00 2.0000000e+00 3.6000000e+01 
8.0487806e-01 3.0000000e+00 3.6000000e+01 
0.0000000e+00 0.0000000e+00 1.0000000e+00 
0.0000000e+00 0.0000000e+00 2.0000000e+00 
0.0000000e+00 0.0000000e+00 3.0000000e+00 
0.0000000e+00 0.0000000e+00 4.0000000e+00 
0.0000000e+00 0.0000000e+00 5.0000000e+00 
0.0000000e+00 0.0000000e+00 6.0000000e+00 
0.0000000e+00 0.0000000e+00 7.0000000e+00 
0.0000000e+00 0.0000000e+00 8.0000000e+00 
[...]
POINT_DATA 1919
FIELD FieldData 3
DISPLACEMENT 3 1919  float
0.0000000e+00 0.0000000e+00 0.0000000e+00 
0.0000000e+00 0.0000000e+00 0.0000000e+00 
0.0000000e+00 0.0000000e+00 0.0000000e+00 
0.0000000e+00 0.0000000e+00 0.0000000e+00 
7.6139404e-05 -2.5459069e-05 -5.6936660e-06 
-2.3478357e-13 -2.1479100e-11 4.4995334e-11 
0.0000000e+00 -8.5404987e-04 0.0000000e+00 
0.0000000e+00 -5.7020287e-12 0.0000000e+00 
6.8078858e-05 -1.5574380e-05 -5.4274096e-06 
-3.1813204e-12 -2.3535032e-11 7.1318965e-11 
3.7109297e-05 -1.4447028e-04 -9.8022465e-05 
-1.0558890e-11 -2.0281839e-11 6.1713870e-11 
0.0000000e+00 -1.6773655e-03 0.0000000e+00 
0.0000000e+00 -4.2884303e-12 0.0000000e+00 
-8.2550448e-04 -2.8586881e-03 -1.2290466e-03 
-1.5600661e-11 -9.9684158e-12 4.5652909e-11 
-2.8063358e-05 -8.0835596e-03 -2.1831717e-03 
-1.4612242e-11 -1.8428111e-12 2.5939679e-11 
0.0000000e+00 -3.8830424e-03 0.0000000e+00 
0.0000000e+00 -1.0246734e-13 0.0000000e+00 
-1.1603531e-04 -7.6928502e-03 -1.0750763e-03 
8.3169900e-05 -6.5146391e-03 -6.2262290e-04 
-7.7779667e-05 -5.2030613e-03 -4.8944307e-04 
-1.3223218e-04 -4.3107737e-03 -3.2919575e-04 
-9.6346761e-05 -3.9968579e-03 -3.1685902e-04 
-1.0818458e-04 -3.7526789e-03 -2.1580135e-04 
-1.0766344e-04 -2.9339425e-03 -3.2098868e-04 
-5.0358274e-05 -1.8419712e-03 -1.4959610e-04 
-3.9201179e-05 -8.9805358e-04 -2.1259180e-04 
-6.8088075e-06 -2.4858638e-04 -1.0188297e-04 
-2.2369766e-06 7.6600052e-05 -9.7804979e-05 
2.3820858e-06 1.6655785e-04 -5.9071943e-05 
3.7584075e-06 1.4082699e-04 -3.6209265e-05 
4.7537819e-06 8.6728811e-05 -2.3012952e-05 
3.4817156e-06 4.9879316e-05 -1.0555393e-05 
2.1419296e-06 3.1053514e-05 -7.1156328e-06 
1.3188913e-06 1.9409466e-05 -1.7810262e-06 
5.0894113e-07 9.8279543e-06 -1.3113320e-06 
2.3902783e-07 2.3833372e-06 2.0359323e-07 
8.0436330e-08 -1.9290437e-06 3.7655877e-08 
-1.0523414e-07 -3.6295366e-06 9.6104898e-08 
-1.9491918e-07 -3.8485869e-06 -1.1528503e-07 
-2.2520715e-07 -3.4134107e-06 -3.8865934e-07 
-1.4150433e-07 -2.6867529e-06 -5.1334706e-07 
-2.4336404e-07 -1.5488114e-06 -8.6136276e-07 
-8.1209826e-08 1.9286272e-06 -4.0155706e-07 
-3.7929900e-07 1.1144922e-05 -5.1715955e-07 
1.9368339e-07 2.7298611e-05 2.0981861e-06 
6.2752441e-08 4.6195997e-05 3.4628745e-06 
9.4529395e-07 6.1310224e-05 1.0063995e-05 
2.4889321e-06 7.2053626e-05 1.8035595e-05 
1.5985960e-06 7.6952587e-05 2.9410399e-05 
7.8141647e-06 5.4899672e-05 5.4562610e-05 
3.7909888e-06 -4.1952626e-05 6.4575150e-05 
1.6547951e-05 -2.5921027e-04 1.1501990e-04 
-1.7549047e-06 -6.2212913e-04 9.9025885e-05 
2.5426601e-05 -1.1506637e-03 1.7619727e-04 
-1.3205799e-05 -1.8681124e-03 1.0253720e-04 
-8.5181415e-07 -2.7763497e-03 1.9194568e-04 
-6.0670274e-05 -3.7121123e-03 6.6252993e-05 
-4.0631774e-05 -4.2861337e-03 5.7987509e-05 
-8.8709960e-05 -4.0822937e-03 3.4122935e-05 
-4.2393229e-05 -3.7085849e-03 -1.1148849e-05 
-5.8088088e-05 -3.5726833e-03 -4.3330354e-05 
-2.8363198e-05 -3.7010561e-03 -6.3312917e-05 
-6.0695613e-05 -3.5926967e-03 -8.9697824e-05 
-3.3835146e-05 -2.7824740e-03 -1.8981016e-04 
-4.0584509e-05 -1.6981841e-03 -8.4577310e-05 
-1.7106597e-05 -7.9805241e-04 -1.3546784e-04 
-1.2250996e-05 -2.1413800e-04 -6.9419475e-05 
2.1272888e-06 6.0971979e-05 -7.7673169e-05 
6.6176858e-06 1.3287640e-04 -4.8566479e-05 
4.4116691e-06 1.1398480e-04 -3.0072875e-05 
3.2699152e-06 7.3670053e-05 -1.8654273e-05 
3.1632160e-06 4.6982816e-05 -9.1362162e-06 
1.8911065e-06 3.3247816e-05 -5.9718332e-06 
1.1431210e-06 2.2291999e-05 -8.5438666e-07 
4.2689126e-07 1.1425755e-05 -5.8929493e-07 
1.5400866e-07 3.2909752e-06 7.7658302e-07 
-9.9778951e-08 -7.1839310e-07 5.0589784e-07 
-1.1265894e-07 -1.8959361e-06 5.7927627e-07 
-1.1215840e-07 -1.8896945e-06 4.3139502e-07 
-1.0950970e-07 -1.5503625e-06 2.4843192e-07 
-7.1844717e-08 -1.0728508e-06 1.9801125e-07 
-5.8433248e-08 -6.2715401e-07 7.7982804e-08 
-3.4814171e-08 -3.0957764e-07 7.0887744e-08 
-2.7277359e-08 -1.1940114e-07 2.5972033e-08 
-1.6232763e-08 -1.3919161e-08 2.6905818e-08 
-1.1298946e-08 3.7546560e-08 1.4457346e-08 
-1.0627857e-08 5.2159066e-08 1.0757480e-08 
-5.4423861e-09 4.6178339e-08 1.1154849e-08 
-4.7415405e-09 3.3686078e-08 1.0059336e-08 
-3.4381082e-09 2.1981684e-08 1.0066660e-08 
-2.7754610e-09 1.2852655e-08 7.8938900e-09 
-1.9917332e-09 6.2855632e-09 7.3417317e-09 
-1.6566074e-09 2.1215576e-09 5.5155778e-09 
-1.3340163e-09 1.4144690e-10 4.6029536e-09 
-1.0603883e-09 -3.9829320e-10 3.5568228e-09 
-8.4809126e-10 -4.2667536e-10 2.7577107e-09 
-6.5494771e-10 -3.5831479e-10 2.1165327e-09 
-5.1333232e-10 -2.5104110e-10 1.6080565e-09 
-3.9300796e-10 -9.9323501e-11 1.2545224e-09 
-2.9987168e-10 3.3395724e-11 9.5907449e-10 
-2.2458280e-10 1.0064634e-10 7.4511397e-10 
-1.6765253e-10 1.1018953e-10 5.7405136e-10 
-1.2469097e-10 9.6570550e-11 4.4275528e-10 
-9.1896324e-11 8.0065926e-11 3.4244660e-10 
-6.8398752e-11 6.3723568e-11 2.6330596e-10 
-5.3103587e-11 4.8305703e-11 2.0049877e-10 
-4.4509021e-11 3.5521315e-11 1.5373745e-10 
-3.4088041e-11 2.5952358e-11 1.2112034e-10 
-2.5227962e-11 1.8778029e-11 9.4335463e-11 
-1.9262690e-11 1.3027770e-11 7.5221843e-11 
-1.4239273e-11 8.6237423e-12 5.9509633e-11 
-1.0821593e-11 5.5343031e-12 4.8663931e-11 
-7.8979184e-12 3.3303289e-12 3.9614072e-11 
-5.5726508e-12 1.4271368e-12 3.3231182e-11 
-4.1986874e-12 -2.2021348e-13 2.8949659e-11 
-6.6947298e-12 -1.4023297e-12 2.6332785e-11 
0.0000000e+00 -8.1069143e-03 0.0000000e+00 
0.0000000e+00 -7.7351993e-03 0.0000000e+00 
0.0000000e+00 -6.5422957e-03 0.0000000e+00 
0.0000000e+00 -5.2233599e-03 0.0000000e+00 
0.0000000e+00 -4.3437635e-03 0.0000000e+00 
0.0000000e+00 -4.0238118e-03 0.0000000e+00 
0.0000000e+00 -3.7832197e-03 0.0000000e+00 
0.0000000e+00 -2.9487908e-03 0.0000000e+00 
0.0000000e+00 -1.8562550e-03 0.0000000e+00 
0.0000000e+00 -9.0424600e-04 0.0000000e+00 
0.0000000e+00 -2.5368296e-04 0.0000000e+00 
0.0000000e+00 7.6015356e-05 0.0000000e+00 
0.0000000e+00 1.6898726e-04 0.0000000e+00 
0.0000000e+00 1.4304045e-04 0.0000000e+00 
0.0000000e+00 8.8565226e-05 0.0000000e+00 
0.0000000e+00 5.0179548e-05 0.0000000e+00 
0.0000000e+00 3.0721596e-05 0.0000000e+00 
0.0000000e+00 1.9247978e-05 0.0000000e+00 
0.0000000e+00 9.8553583e-06 0.0000000e+00 
0.0000000e+00 2.4536678e-06 0.0000000e+00 
0.0000000e+00 -1.9257761e-06 0.0000000e+00 
0.0000000e+00 -3.6596145e-06 0.0000000e+00 
0.0000000e+00 -3.8746866e-06 0.0000000e+00 
0.0000000e+00 -3.4264212e-06 0.0000000e+00 
0.0000000e+00 -2.7526003e-06 0.0000000e+00 
0.0000000e+00 -1.6383133e-06 0.0000000e+00 
0.0000000e+00 1.9519391e-06 0.0000000e+00 
0.0000000e+00 1.1382759e-05 0.0000000e+00 
0.0000000e+00 2.7556980e-05 0.0000000e+00 
0.0000000e+00 4.6039269e-05 0.0000000e+00 
0.0000000e+00 6.1192404e-05 0.0000000e+00 
0.0000000e+00 7.2777788e-05 0.0000000e+00 
0.0000000e+00 7.8442135e-05 0.0000000e+00 
0.0000000e+00 5.5352568e-05 0.0000000e+00 
0.0000000e+00 -4.2658645e-05 0.0000000e+00 
0.0000000e+00 -2.5985242e-04 0.0000000e+00 
0.0000000e+00 -6.2244385e-04 0.0000000e+00 
0.0000000e+00 -1.1516844e-03 0.0000000e+00 
0.0000000e+00 -1.8755135e-03 0.0000000e+00 
0.0000000e+00 -2.7894608e-03 0.0000000e+00 
0.0000000e+00 -3.7384562e-03 0.0000000e+00 
0.0000000e+00 -4.3096705e-03 0.0000000e+00 
0.0000000e+00 -4.1107470e-03 0.0000000e+00 
0.0000000e+00 -3.7278475e-03 0.0000000e+00 
0.0000000e+00 -3.5992851e-03 0.0000000e+00 
0.0000000e+00 -3.7237250e-03 0.0000000e+00 
0.0000000e+00 -3.6214688e-03 0.0000000e+00 
0.0000000e+00 -2.7999717e-03 0.0000000e+00 
0.0000000e+00 -1.7142680e-03 0.0000000e+00 
0.0000000e+00 -8.0445455e-04 0.0000000e+00 
0.0000000e+00 -2.1781299e-04 0.0000000e+00 
0.0000000e+00 6.1312654e-05 0.0000000e+00 
0.0000000e+00 1.3544271e-04 0.0000000e+00 
0.0000000e+00 1.1573694e-04 0.0000000e+00 
0.0000000e+00 7.5106022e-05 0.0000000e+00 
0.0000000e+00 4.7210742e-05 0.0000000e+00 
0.0000000e+00 3.2863762e-05 0.0000000e+00 
0.0000000e+00 2.2151928e-05 0.0000000e+00 
0.0000000e+00 1.1559761e-05 0.0000000e+00 
0.0000000e+00 3.3968263e-06 0.0000000e+00 
0.0000000e+00 -7.3933870e-07 0.0000000e+00 
0.0000000e+00 -1.9380193e-06 0.0000000e+00 
0.0000000e+00 -1.9123465e-06 0.0000000e+00 
0.0000000e+00 -1.5516281e-06 0.0000000e+00 
0.0000000e+00 -1.0792161e-06 0.0000000e+00 
0.0000000e+00 -6.3206295e-07 0.0000000e+00 
0.0000000e+00 -3.1060776e-07 0.0000000e+00 
0.0000000e+00 -1.1877700e-07 0.0000000e+00 
0.0000000e+00 -1.3536658e-08 0.0000000e+00 
0.0000000e+00 3.7640000e-08 0.0000000e+00 
0.0000000e+00 5.2403202e-08 0.0000000e+00 
0.0000000e+00 4.6550909e-08 0.0000000e+00 
0.0000000e+00 3.3922007e-08 0.0000000e+00 
0.0000000e+00 2.2045224e-08 0.0000000e+00 
0.0000000e+00 1.2869447e-08 0.0000000e+00 
0.0000000e+00 6.3031762e-09 0.0000000e+00 
0.0000000e+00 2.1433793e-09 0.0000000e+00 
0.0000000e+00 1.3852350e-10 0.0000000e+00 
0.0000000e+00 -4.2774373e-10 0.0000000e+00 
0.0000000e+00 -4.4059878e-10 0.0000000e+00 
0.0000000e+00 -3.5850800e-10 0.0000000e+00 
0.0000000e+00 -2.4916294e-10 0.0000000e+00 
0.0000000e+00 -1.0203185e-10 0.0000000e+00 
0.0000000e+00 3.0822078e-11 0.0000000e+00 
0.0000000e+00 1.0022976e-10 0.0000000e+00 
0.0000000e+00 1.1107815e-10 0.0000000e+00 
0.0000000e+00 9.7105969e-11 0.0000000e+00 
0.0000000e+00 8.0030461e-11 0.0000000e+00 
0.0000000e+00 6.3742421e-11 0.0000000e+00 
0.0000000e+00 4.8412555e-11 0.0000000e+00 
0.0000000e+00 3.5548686e-11 0.0000000e+00 
0.0000000e+00 2.5928048e-11 0.0000000e+00 
0.0000000e+00 1.8742227e-11 0.0000000e+00 
0.0000000e+00 1.3033455e-11 0.0000000e+00 
0.0000000e+00 8.6354552e-12 0.0000000e+00 
0.0000000e+00 5.5301627e-12 0.0000000e+00 
0.0000000e+00 3.2982150e-12 0.0000000e+00 
0.0000000e+00 1.4132068e-12 0.0000000e+00 
0.0000000e+00 -2.2269235e-13 0.0000000e+00 
0.0000000e+00 -1.3958831e-12 0.0000000e+00 
0.0000000e+00 -1.8322887e-12 0.0000000e+00 
-5.8632841e-09 -1.4517640e-10 4.2007073e-08 
-4.8215836e-09 2.9914741e-08 1.0660627e-08 
0.0000000e+00 0.0000000e+00 0.0000000e+00 
0.0000000e+00 0.0000000e+00 0.0000000e+00 
0.0000000e+00 0.0000000e+00 0.0000000e+00 
0.0000000e+00 0.0000000e+00 0.0000000e+00 
0.0000000e+00 0.0000000e+00 0.0000000e+00 
0.0000000e+00 0.0000000e+00 0.0000000e+00 
0.0000000e+00 0.0000000e+00 0.0000000e+00 
0.0000000e+00 0.0000000e+00 0.0000000e+00 
0.0000000e+00 0.0000000e+00 0.0000000e+00 
0.0000000e+00 0.0000000e+00 0.0000000e+00 
0.0000000e+00 0.0000000e+00 0.0000000e+00 
0.0000000e+00 0.0000000e+00 0.0000000e+00 
0.0000000e+00 0.0000000e+00 0.0000000e+00 
0.0000000e+00 0.0000000e+00 0.0000000e+00 
0.0000000e+00 0.0000000e+00 0.0000000e+00 
0.0000000e+00 0.0000000e+00 0.0000000e+00 
0.0000000e+00 0.0000000e+00 0.0000000e+00 
0.0000000e+00 0.0000000e+00 0.0000000e+00 
0.0000000e+00 0.0000000e+00 0.0000000e+00 
0.0000000e+00 0.0000000e+00 0.0000000e+00 
0.0000000e+00 0.0000000e+00 0.0000000e+00 
0.0000000e+00 0.0000000e+00 0.0000000e+00 
0.0000000e+00 0.0000000e+00 0.0000000e+00 
0.0000000e+00 0.0000000e+00 0.0000000e+00 
0.0000000e+00 0.0000000e+00 0.0000000e+00 
0.0000000e+00 0.0000000e+00 0.0000000e+00 
0.0000000e+00 0.0000000e+00 0.0000000e+00 
0.0000000e+00 0.0000000e+00 0.0000000e+00 
0.0000000e+00 0.0000000e+00 0.0000000e+00 
0.0000000e+00 0.0000000e+00 0.0000000e+00 
0.0000000e+00 0.0000000e+00 0.0000000e+00 
0.0000000e+00 0.0000000e+00 0.0000000e+00 
0.0000000e+00 0.0000000e+00 0.0000000e+00 
0.0000000e+00 0.0000000e+00 0.0000000e+00 
0.0000000e+00 0.0000000e+00 0.0000000e+00 
0.0000000e+00 0.0000000e+00 0.0000000e+00 
0.0000000e+00 0.0000000e+00 0.0000000e+00 
0.0000000e+00 0.0000000e+00 0.0000000e+00 
0.0000000e+00 0.0000000e+00 0.0000000e+00 
0.0000000e+00 0.0000000e+00 0.0000000e+00 
0.0000000e+00 0.0000000e+00 0.0000000e+00 
0.0000000e+00 0.0000000e+00 0.0000000e+00 
0.0000000e+00 0.0000000e+00 0.0000000e+00 
0.0000000e+00 0.0000000e+00 0.0000000e+00 
0.0000000e+00 0.0000000e+00 0.0000000e+00 
0.0000000e+00 0.0000000e+00 0.0000000e+00 
0.0000000e+00 0.0000000e+00 0.0000000e+00 
0.0000000e+00 0.0000000e+00 0.0000000e+00 
0.0000000e+00 0.0000000e+00 0.0000000e+00 
0.0000000e+00 0.0000000e+00 0.0000000e+00 
0.0000000e+00 0.0000000e+00 0.0000000e+00 
0.0000000e+00 0.0000000e+00 0.0000000e+00 
0.0000000e+00 0.0000000e+00 0.0000000e+00 
0.0000000e+00 0.0000000e+00 0.0000000e+00 
0.0000000e+00 0.0000000e+00 0.0000000e+00 
0.0000000e+00 0.0000000e+00 0.0000000e+00 
0.0000000e+00 0.0000000e+00 0.0000000e+00 
0.0000000e+00 0.0000000e+00 0.0000000e+00 
0.0000000e+00 0.0000000e+00 0.0000000e+00 
0.0000000e+00 0.0000000e+00 0.0000000e+00 
0.0000000e+00 0.0000000e+00 0.0000000e+00 
0.0000000e+00 0.0000000e+00 0.0000000e+00 
0.0000000e+00 0.0000000e+00 0.0000000e+00 
0.0000000e+00 0.0000000e+00 0.0000000e+00 
0.0000000e+00 0.0000000e+00 0.0000000e+00 
0.0000000e+00 0.0000000e+00 0.0000000e+00 
0.0000000e+00 0.0000000e+00 0.0000000e+00 
0.0000000e+00 0.0000000e+00 0.0000000e+00 
0.0000000e+00 0.0000000e+00 0.0000000e+00 
0.0000000e+00 0.0000000e+00 0.0000000e+00 
0.0000000e+00 0.0000000e+00 0.0000000e+00 
0.0000000e+00 0.0000000e+00 0.0000000e+00 
0.0000000e+00 0.0000000e+00 0.0000000e+00 
0.0000000e+00 0.0000000e+00 0.0000000e+00 
0.0000000e+00 0.0000000e+00 0.0000000e+00 
0.0000000e+00 0.0000000e+00 0.0000000e+00 
0.0000000e+00 0.0000000e+00 0.0000000e+00 
0.0000000e+00 0.0000000e+00 0.0000000e+00 
0.0000000e+00 0.0000000e+00 0.0000000e+00 
0.0000000e+00 0.0000000e+00 0.0000000e+00 
0.0000000e+00 0.0000000e+00 0.0000000e+00 
0.0000000e+00 0.0000000e+00 0.0000000e+00 
0.0000000e+00 0.0000000e+00 0.0000000e+00 
0.0000000e+00 0.0000000e+00 0.0000000e+00 
0.0000000e+00 0.0000000e+00 0.0000000e+00 
0.0000000e+00 0.0000000e+00 0.0000000e+00 
0.0000000e+00 0.0000000e+00 0.0000000e+00 
0.0000000e+00 0.0000000e+00 0.0000000e+00 
0.0000000e+00 0.0000000e+00 0.0000000e+00 
0.0000000e+00 0.0000000e+00 0.0000000e+00 
0.0000000e+00 0.0000000e+00 0.0000000e+00 
0.0000000e+00 0.0000000e+00 0.0000000e+00 
0.0000000e+00 0.0000000e+00 0.0000000e+00 
0.0000000e+00 0.0000000e+00 0.0000000e+00 
0.0000000e+00 0.0000000e+00 0.0000000e+00 
0.0000000e+00 0.0000000e+00 0.0000000e+00 
0.0000000e+00 0.0000000e+00 0.0000000e+00 
0.0000000e+00 0.0000000e+00 0.0000000e+00 
0.0000000e+00 0.0000000e+00 0.0000000e+00 
0.0000000e+00 0.0000000e+00 0.0000000e+00 
0.0000000e+00 0.0000000e+00 0.0000000e+00 
0.0000000e+00 0.0000000e+00 0.0000000e+00 
0.0000000e+00 0.0000000e+00 0.0000000e+00 
0.0000000e+00 0.0000000e+00 0.0000000e+00 
0.0000000e+00 0.0000000e+00 0.0000000e+00 
0.0000000e+00 0.0000000e+00 0.0000000e+00 
6.2847117e-05 -2.3437357e-05 -4.7227691e-06 
5.4249918e-05 -1.9830642e-05 -1.6091855e-06 
4.2283351e-05 -1.4016233e-05 4.2198062e-06 
2.6123955e-05 -6.7471660e-06 7.3373863e-06 
1.6839751e-05 -4.2722559e-06 6.9162338e-06 
1.0206241e-05 -2.5912429e-06 6.4071769e-06 
5.1140855e-06 -1.0269398e-06 4.2954266e-06 
1.5427529e-06 -3.6406252e-07 2.4883298e-06 
4.4477875e-07 -1.4201623e-07 1.1033771e-06 
2.6926973e-08 -6.9989994e-08 2.4763224e-07 
-3.0912918e-08 -1.2242543e-07 -3.1306740e-07 
1.0752595e-07 -1.1088923e-07 -9.9812098e-07 
5.1677944e-07 -3.0990969e-07 -2.0574264e-06 
1.6861351e-06 -6.9981257e-07 -3.8376770e-06 
3.7798516e-06 -1.6361354e-06 -6.0897942e-06 
9.2764249e-06 -3.4359723e-06 -8.9802434e-06 
1.5471760e-05 -5.2647370e-06 -1.1813453e-05 
2.6294019e-05 -9.0751628e-06 -1.3485485e-05 
3.4678182e-05 -1.2298377e-05 -1.2624600e-05 
4.3668442e-05 -1.4720549e-05 -6.8739291e-06 
4.6771158e-05 -1.4852040e-05 -5.4576327e-07 
4.3469114e-05 -1.4268141e-05 6.9763842e-06 
3.7516405e-05 -1.3987940e-05 1.0806707e-05 
3.0390582e-05 -1.0305485e-05 1.2221574e-05 
1.9441588e-05 -5.6129788e-06 1.2450779e-05 
9.6574186e-06 -3.4283773e-06 9.6059284e-06 
4.6821883e-06 -1.6903463e-06 6.6737193e-06 
1.9848133e-06 -9.6079873e-07 4.1652302e-06 
6.5990628e-07 -3.8397764e-07 2.3678347e-06 
1.9717797e-07 -2.0301115e-07 1.3206399e-06 
7.2058882e-08 -9.0204338e-08 7.1913411e-07 
4.2617407e-09 -6.1521831e-08 3.6541567e-07 
1.6852026e-08 -3.3236471e-08 2.1870331e-07 
7.6697502e-09 -1.8318604e-08 1.1771454e-07 
5.8324323e-09 -1.2939092e-08 6.9009396e-08 
4.6735078e-09 -6.0044112e-09 4.1655582e-08 
1.3684718e-09 -2.1403685e-09 2.3140091e-08 
6.0967481e-10 -2.2376005e-09 1.3757608e-08 
3.0216805e-11 -8.6238688e-10 8.4919982e-09 
2.3893973e-10 -4.9531035e-10 4.3689194e-09 
2.8502745e-10 -3.6070355e-10 2.7651599e-09 
1.6374148e-10 -2.3302041e-10 1.6507076e-09 
1.0602188e-10 -1.3632827e-10 9.2721059e-10 
5.3664670e-11 -9.1638426e-11 5.2535676e-10 
4.1410410e-11 -4.2848707e-11 3.1979064e-10 
1.5577236e-11 -2.5157713e-11 1.9547089e-10 
1.2073085e-11 -1.5177880e-11 1.1539254e-10 
3.6412388e-12 -9.0277872e-12 7.5149761e-11 
1.1297790e-12 -7.9882854e-12 5.1442475e-11 
0.0000000e+00 -8.5148681e-04 0.0000000e+00 
0.0000000e+00 -8.2936621e-04 0.0000000e+00 
0.0000000e+00 -4.2001170e-04 0.0000000e+00 
0.0000000e+00 -2.5142412e-04 0.0000000e+00 
0.0000000e+00 -9.0531241e-05 0.0000000e+00 
0.0000000e+00 -1.6828189e-05 0.0000000e+00 
0.0000000e+00 8.7360004e-06 0.0000000e+00 
0.0000000e+00 5.5682531e-06 0.0000000e+00 
0.0000000e+00 3.2699729e-06 0.0000000e+00 
0.0000000e+00 7.2492992e-07 0.0000000e+00 
0.0000000e+00 2.1989372e-07 0.0000000e+00 
0.0000000e+00 5.6372664e-07 0.0000000e+00 
0.0000000e+00 2.1691801e-06 0.0000000e+00 
0.0000000e+00 3.5913160e-06 0.0000000e+00 
0.0000000e+00 6.9169155e-06 0.0000000e+00 
0.0000000e+00 -6.7640767e-06 0.0000000e+00 
0.0000000e+00 -7.2096518e-05 0.0000000e+00 
0.0000000e+00 -1.6948429e-04 0.0000000e+00 
0.0000000e+00 -3.1743944e-04 0.0000000e+00 
0.0000000e+00 -5.4218870e-04 0.0000000e+00 
0.0000000e+00 -5.1989197e-04 0.0000000e+00 
0.0000000e+00 -5.0981378e-04 0.0000000e+00 
0.0000000e+00 -4.3207951e-04 0.0000000e+00 
0.0000000e+00 -2.5348578e-04 0.0000000e+00 
0.0000000e+00 -8.1065380e-05 0.0000000e+00 
0.0000000e+00 -3.7528884e-05 0.0000000e+00 
0.0000000e+00 8.3817504e-06 0.0000000e+00 
0.0000000e+00 2.2256722e-06 0.0000000e+00 
0.0000000e+00 3.3892297e-06 0.0000000e+00 
0.0000000e+00 6.7025366e-07 0.0000000e+00 
0.0000000e+00 4.5458155e-08 0.0000000e+00 
0.0000000e+00 -9.6801173e-08 0.0000000e+00 
0.0000000e+00 -7.6831078e-08 0.0000000e+00 
0.0000000e+00 -1.9401405e-08 0.0000000e+00 
0.0000000e+00 -4.9523905e-09 0.0000000e+00 
0.0000000e+00 -4.7424115e-10 0.0000000e+00 
0.0000000e+00 4.8126621e-11 0.0000000e+00 
0.0000000e+00 2.4499960e-10 0.0000000e+00 
0.0000000e+00 -2.7897282e-10 0.0000000e+00 
0.0000000e+00 -1.4434681e-10 0.0000000e+00 
0.0000000e+00 -1.2602952e-10 0.0000000e+00 
0.0000000e+00 -4.5028033e-11 0.0000000e+00 
0.0000000e+00 -2.6679662e-11 0.0000000e+00 
0.0000000e+00 -1.7711631e-11 0.0000000e+00 
0.0000000e+00 -8.4909501e-12 0.0000000e+00 
0.0000000e+00 -1.0918419e-11 0.0000000e+00 
0.0000000e+00 -6.0708721e-12 0.0000000e+00 
0.0000000e+00 -4.1315280e-12 0.0000000e+00 
0.0000000e+00 -3.5110055e-12 0.0000000e+00 
9.6790201e-05 -3.2016829e-05 -2.5529062e-05 
1.8115541e-04 -1.5170143e-04 -5.9884256e-05 
1.4612866e-04 -3.7897550e-04 -1.1134509e-04 
1.0754907e-04 -5.5596925e-04 -1.6125003e-04 
-4.1994836e-12 -2.0911965e-11 4.5337720e-11 
-8.3983107e-12 -1.7971248e-11 3.9872019e-11 
-1.1757809e-11 -1.3803082e-11 3.1074355e-11 
-1.0159032e-11 -9.6346793e-12 1.7853864e-11 
4.8072587e-05 -1.9572848e-05 -9.7316297e-06 
3.5188605e-05 -1.5912159e-05 -9.9822755e-06 
2.5756994e-05 -1.0502743e-05 -4.0632699e-06 
1.9319108e-05 -5.1073434e-06 5.3322657e-07 
1.4642946e-05 -1.9865563e-06 3.5005357e-06 
9.7737939e-06 -1.0979139e-06 4.6759346e-06 
4.4972062e-06 -5.3221033e-08 3.8883327e-06 
2.0857533e-06 1.7986990e-08 2.6681601e-06 
7.5789683e-07 3.3467867e-08 1.3971106e-06 
1.7214325e-07 1.6161250e-08 3.6469376e-07 
8.7131468e-08 -2.7692803e-08 -4.6114837e-07 
2.6967760e-07 -3.8007009e-08 -1.4260173e-06 
9.1104516e-07 -1.5317563e-07 -2.7760093e-06 
2.2502079e-06 -4.0518157e-07 -4.6611190e-06 
5.1955949e-06 -8.6765419e-07 -7.0898654e-06 
1.0071543e-05 -2.0915111e-06 -9.9540111e-06 
1.6767284e-05 -3.8595817e-06 -1.1879385e-05 
2.4200512e-05 -6.9621296e-06 -1.3007821e-05 
3.3551223e-05 -1.0696020e-05 -1.1651183e-05 
4.0851315e-05 -1.3360947e-05 -6.8292329e-06 