# vtk DataFile Version 4.0
vtk output
ASCII
DATASET UNSTRUCTURED_GRID
POINTS 1919 float
0.0000000e+00 0.0000000e+00 0.0000000e+00 
0.0000000e+00 0.0000000e+00 5.0000000e+01 
5.0000000e+00 0.0000000e+00 0.0000000e+00 
5.0000000e+00 0.0000000e+00 5.0000000e+01 
5.0000000e+00 1.0000000e+00 0.0000000e+00 
5.0000000e+00 1.0000000e+00 5.0000000e+01 
0.0000000e+00 1.0000000e+00 0.0000000e+00 
0.0000000e+00 1.0000000e+00 5.0000000e+01 
5.0000000e+00 2.0000000e+00 0.0000000e+00 
5.0000000e+00 2.0000000e+00 5.0000000e+01 
3.0000000e+00 2.0000000e+00 0.0000000e+00 
3.0000000e+00 2.0000000e+00 5.0000000e+01 
0.0000000e+00 2.0000000e+00 0.0000000e+00 
0.0000000e+00 2.0000000e+00 5.0000000e+01 
1.5000000e+00 3.0000000e+00 0.0000000e+00 
1.5000000e+00 3.0000000e+00 5.0000000e+01 
7.5000000e-01 3.0000000e+00 0.0000000e+00 
7.5000000e-01 3.0000000e+00 5.0000000e+01 
0.0000000e+00 3.0000000e+00 0.0000000e+00 
0.0000000e+00 3.0000000e+00 5.0000000e+01 
7.5000000e-01 3.0000000e+00 5.0000000e-01 
7.5000000e-01 3.0000000e+00 1.0000000e+00 
7.5000000e-01 3.0000000e+00 1.5000000e+00 
7.5000000e-01 3.0000000e+00 2.0000000e+00 
7.5000000e-01 3.0000000e+00 2.5000000e+00 
7.5000000e-01 3.0000000e+00 3.0000000e+00 
7.5000000e-01 3.0000000e+00 3.5000000e+00 
7.5000000e-01 3.0000000e+00 4.0000000e+00 
7.5000000e-01 3.0000000e+00 4.5000000e+00 
7.5000000e-01 3.0000000e+00 5.0000000e+00 
7.5000000e-01 3.0000000e+00 5.5000000e+00 
7.5000000e-01 3.0000000e+00 6.0000000e+00 
7.5000000e-01 3.0000000e+00 6.5000000e+00 
7.5000000e-01 3.0000000e+00 7.0000000e+00 
7.5000000e-01 3.0000000e+00 7.5000000e+00 
7.5000000e-01 3.0000000e+00 8.0000000e+00 
7.5000000e-01 3.0000000e+00 8.5000000e+00 
7.5000000e-01 3.0000000e+00 9.0000000e+00 
7.5000000e-01 3.0000000e+00 9.5000000e+00 
7.5000000e-01 3.0000000e+00 1.0000000e+01 
7.5000000e-01 3.0000000e+00 1.0500000e+01 
7.5000000e-01 3.0000000e+00 1.1000000e+01 
7.5000000e-01 3.0000000e+00 1.1500000e+01 
7.5000000e-01 3.0000000e+00 1.2000000e+01 
7.5000000e-01 3.0000000e+00 1.2500000e+01 
7.5000000e-01 3.0000000e+00 1.3000000e+01 
7.5000000e-01 3.0000000e+00 1.3500000e+01 
7.5000000e-01 3.0000000e+00 1.4000000e+01 
7.5000000e-01 3.0000000e+00 1.4500000e+01 
7.5000000e-01 3.0000000e+00 1.5000000e+01 
7.5000000e-01 3.0000000e+00 1.5500000e+01 
7.5000000e-01 3.0000000e+00 1.6000000e+01 
7.5000000e-01 3.0000000e+00 1.6500000e+01 
7.5000000e-01 3.0000000e+00 1.7000000e+01 
7.5000000e-01 3.0000000e+00 1.7500000e+01 
7.5000000e-01 3.0000000e+00 1.8000000e+01 
7.5000000e-01 3.0000000e+00 1.8500000e+01 
7.5000000e-01 3.0000000e+00 1.9000000e+01 
7.5000000e-01 3.0000000e+00 1.9500000e+01 
7.5000000e-01 3.0000000e+00 2.0000000e+01 
7.5000000e-01 3.0000000e+00 2.0500000e+01 
7.5000000e-01 3.0000000e+00 2.1000000e+01 
7.5000000e-01 3.0000000e+00 2.1500000e+01 
7.5000000e-01 3.0000000e+00 2.2000000e+01 
7.5000000e-01 3.0000000e+00 2.2500000e+01 
7.5000000e-01 3.0000000e+00 2.3000000e+01 
7.5000000e-01 3.0000000e+00 2.3500000e+01 
7.5000000e-01 3.0000000e+00 2.4000000e+01 
7.5000000e-01 3.0000000e+00 2.4500000e+01 
7.5000000e-01 3.0000000e+00 2.5000000e+01 
7.5000000e-01 3.0000000e+00 2.5500000e+01 
7.5000000e-01 3.0000000e+00 2.6000000e+01 
7.5000000e-01 3.0000000e+00 2.6500000e+01 
7.5000000e-01 3.0000000e+00 2.7000000e+01 
7.5000000e-01 3.0000000e+00 2.7500000e+01 
7.5000000e-01 3.0000000e+00 2.8000000e+01 
7.5000000e-01 3.0000000e+00 2.8500000e+01 
7.5000000e-01 3.0000000e+00 2.9000000e+01 
7.5000000e-01 3.0000000e+00 2.9500000e+01 
7.5000000e-01 3.0000000e+00 3.0000000e+01 
7.5000000e-01 3.0000000e+00 3.0500000e+01 
7.5000000e-01 3.0000000e+00 3.1000000e+01 
7.5000000e-01 3.0000000e+00 3.1500000e+01 
7.5000000e-01 3.0000000e+00 3.2000000e+01 
7.5000000e-01 3.0000000e+00 3.2500000e+01 
7.5000000e-01 3.0000000e+00 3.3000000e+01 
7.5000000e-01 3.0000000e+00 3.3500000e+01 
7.5000000e-01 3.0000000e+00 3.4000000e+01 
7.5000000e-01 3.0000000e+00 3.4500000e+01 
7.5000000e-01 3.0000000e+00 3.5000000e+01 
7.5000000e-01 3.0000000e+00 3.5500000e+01 
7.5000000e-01 3.0000000e+00 3.6000000e+01 
7.5000000e-01 3.0000000e+00 3.6500000e+01 
7.5000000e-01 3.0000000e+00 3.7000000e+01 
7.5000000e-01 3.0000000e+00 3.7500000e+01 
7.5000000e-01 3.0000000e+00 3.8000000e+01 
7.5000000e-01 3.0000000e+00 3.8500000e+01 
7.5000000e-01 3.0000000e+00 3.9000000e+01 
7.5000000e-01 3.0000000e+00 3.9500000e+01 
7.5000000e-01 3.0000000e+00 4.0000000e+01 
7.5000000e-01 3.0000000e+00 4.0500000e+01 
7.5000000e-01 3.0000000e+00 4.1000000e+01 
7.5000000e-01 3.0000000e+00 4.1500000e+01 
7.5000000e-01 3.0000000e+00 4.2000000e+01 
7.5000000e-01 3.0000000e+00 4.2500000e+01 
7.5000000e-01 3.0000000e+00 4.3000000e+01 
7.5000000e-01 3.0000000e+00 4.3500000e+01 
7.5000000e-01 3.0000000e+00 4.4000000e+01 
7.5000000e-01 3.0000000e+00 4.4500000e+01 
7.5000000e-01 3.0000000e+00 4.5000000e+01 
7.5000000e-01 3.0000000e+00 4.5500000e+01 
7.5000000e-01 3.0000000e+00 4.6000000e+01 
7.5000000e-01 3.0000000e+00 4.6500000e+01 
7.5000000e-01 3.0000000e+00 4.7000000e+01 
7.5000000e-01 3.0000000e+00 4.7500000e+01 
7.5000000e-01 3.0000000e+00 4.8000000e+01 
7.5000000e-01 3.0000000e+00 4.8500000e+01 
7.5000000e-01 3.0000000e+00 4.9000000e+01 
7.5000000e-01 3.0000000e+00 4.9500000e+01 
7.5000000e-01 3.0250001e+00 0.0000000e+00 
7.5000000e-01 3.0250001e+00 5.0000000e-01 
7.5000000e-01 3.0250001e+00 1.0000000e+00 
7.5000000e-01 3.0250001e+00 1.5000000e+00 
7.5000000e-01 3.0250001e+00 2.0000000e+00 
7.5000000e-01 3.0250001e+00 2.5000000e+00 
7.5000000e-01 3.0250001e+00 3.0000000e+00 
7.5000000e-01 3.0250001e+00 3.5000000e+00 
7.5000000e-01 3.0250001e+00 4.0000000e+00 
7.5000000e-01 3.0250001e+00 4.5000000e+00 
7.5000000e-01 3.0250001e+00 5.0000000e+00 
7.5000000e-01 3.0250001e+00 5.5000000e+00 
7.5000000e-01 3.0250001e+00 6.0000000e+00 
7.5000000e-01 3.0250001e+00 6.5000000e+00 
7.5000000e-01 3.0250001e+00 7.0000000e+00 
7.5000000e-01 3.0250001e+00 7.5000000e+00 
7.5000000e-01 3.0250001e+00 8.0000000e+00 
7.5000000e-01 3.0250001e+00 8.5000000e+00 
7.5000000e-01 3.0250001e+00 9.0000000e+00 
7.5000000e-01 3.0250001e+00 9.5000000e+00 
7.5000000e-01 3.0250001e+00 1.0000000e+01 
7.5000000e-01 3.0250001e+00 1.0500000e+01 
7.5000000e-01 3.0250001e+00 1.1000000e+01 
7.5000000e-01 3.0250001e+00 1.1500000e+01 
7.5000000e-01 3.0250001e+00 1.2000000e+01 
7.5000000e-01 3.0250001e+00 1.2500000e+01 
7.5000000e-01 3.0250001e+00 1.3000000e+01 
7.5000000e-01 3.0250001e+00 1.3500000e+01 
7.5000000e-01 3.0250001e+00 1.4000000e+01 
7.5000000e-01 3.0250001e+00 1.4500000e+01 
7.5000000e-01 3.0250001e+00 1.5000000e+01 
7.5000000e-01 3.0250001e+00 1.5500000e+01 
7.5000000e-01 3.0250001e+00 1.6000000e+01 
7.5000000e-01 3.0250001e+00 1.6500000e+01 
7.5000000e-01 3.0250001e+00 1.7000000e+01 
7.5000000e-01 3.0250001e+00 1.7500000e+01 
7.5000000e-01 3.0250001e+00 1.8000000e+01 
7.5000000e-01 3.0250001e+00 1.8500000e+01 
7.5000000e-01 3.0250001e+00 1.9000000e+01 
7.5000000e-01 3.0250001e+00 1.9500000e+01 
7.5000000e-01 3.0250001e+00 2.0000000e+01 
7.5000000e-01 3.0250001e+00 2.0500000e+01 
7.5000000e-01 3.0250001e+00 2.1000000e+01 
7.5000000e-01 3.0250001e+00 2.1500000e+01 
7.5000000e-01 3.0250001e+00 2.2000000e+01 
7.5000000e-01 3.0250001e+00 2.2500000e+01 
7.5000000e-01 3.0250001e+00 2.3000000e+01 
7.5000000e-01 3.0250001e+00 2.3500000e+01 
7.5000000e-01 3.0250001e+00 2.4000000e+01 
7.5000000e-01 3.0250001e+00 2.4500000e+01 
7.5000000e-01 3.0250001e+00 2.5000000e+01 
7.5000000e-01 3.0250001e+00 2.5500000e+01 
7.5000000e-01 3.0250001e+00 2.6000000e+01 
7.5000000e-01 3.0250001e+00 2.6500000e+01 
7.5000000e-01 3.0250001e+00 2.7000000e+01 
7.5000000e-01 3.0250001e+00 2.7500000e+01 
7.5000000e-01 3.0250001e+00 2.8000000e+01 
7.5000000e-01 3.0250001e+00 2.8500000e+01 
7.5000000e-01 3.0250001e+00 2.9000000e+01 
7.5000000e-01 3.0250001e+00 2.9500000e+01 
7.5000000e-01 3.0250001e+00 3.0000000e+01 
7.5000000e-01 3.0250001e+00 3.0500000e+01 
7.5000000e-01 3.0250001e+00 3.1000000e+01 
7.5000000e-01 3.0250001e+00 3.1500000e+01 
7.5000000e-01 3.0250001e+00 3.2000000e+01 
7.5000000e-01 3.0250001e+00 3.2500000e+01 
7.5000000e-01 3.0250001e+00 3.3000000e+01 
7.5000000e-01 3.0250001e+00 3.3500000e+01 
7.5000000e-01 3.0250001e+00 3.4000000e+01 
7.5000000e-01 3.0250001e+00 3.4500000e+01 
7.5000000e-01 3.0250001e+00 3.5000000e+01 
7.5000000e-01 3.0250001e+00 3.5500000e+01 
7.5000000e-01 3.0250001e+00 3.6000000e+01 
7.5000000e-01 3.0250001e+00 3.6500000e+01 
7.5000000e-01 3.0250001e+00 3.7000000e+01 
7.5000000e-01 3.0250001e+00 3.7500000e+01 
7.5000000e-01 3.0250001e+00 3.8000000e+01 
7.5000000e-01 3.0250001e+00 3.8500000e+01 
7.5000000e-01 3.0250001e+00 3.9000000e+01 
7.5000000e-01 3.0250001e+00 3.9500000e+01 
7.5000000e-01 3.0250001e+00 4.0000000e+01 
7.5000000e-01 3.0250001e+00 4.0500000e+01 
7.5000000e-01 3.0250001e+00 4.1000000e+01 
7.5000000e-01 3.0250001e+00 4.1500000e+01 
7.5000000e-01 3.0250001e+00 4.2000000e+01 
7.5000000e-01 3.0250001e+00 4.2500000e+01 
7.5000000e-01 3.0250001e+00 4.3000000e+01 
7.5000000e-01 3.0250001e+00 4.3500000e+01 
7.5000000e-01 3.0250001e+00 4.4000000e+01 
7.5000000e-01 3.0250001e+00 4.4500000e+01 
7.5000000e-01 3.0250001e+00 4.5000000e+01 
7.5000000e-01 3.0250001e+00 4.5500000e+01 
7.5000000e-01 3.0250001e+00 4.6000000e+01 
7.5000000e-01 3.0250001e+00 4.6500000e+01 
7.5000000e-01 3.0250001e+00 4.7000000e+01 
7.5000000e-01 3.0250001e+00 4.7500000e+01 
7.5000000e-01 3.0250001e+00 4.8000000e+01 
7.5000000e-01 3.0250001e+00 4.8500000e+01 
7.5000000e-01 3.0250001e+00 4.9000000e+01 
7.5000000e-01 3.0250001e+00 4.9500000e+01 
7.5000000e-01 3.0250001e+00 5.0000000e+01 
3.0000000e+00 2.0000000e+00 3.6000000e+01 
8.0487806e-01 3.0000000e+00 3.6000000e+01 
0.0000000e+00 0.0000000e+00 1.0000000e+00 
0.0000000e+00 0.0000000e+00 2.0000000e+00 
0.0000000e+00 0.0000000e+00 3.0000000e+00 
0.0000000e+00 0.0000000e+00 4.0000000e+00 
0.0000000e+00 0.0000000e+00 5.0000000e+00 
0.0000000e+00 0.0000000e+00 6.0000000e+00 
0.0000000e+00 0.0000000e+00 7.0000000e+00 
0.0000000e+00 0.0000000e+00 8.0000000e+00 
[...]
POINT_DATA 1919
FIELD FieldData 3
DISPLACEMENT 3 1919  float
0.0000000e+00 0.0000000e+00 0.0000000e+00 
0.0000000e+00 0.0000000e+00 0.0000000e+00 
0.0000000e+00 0.0000000e+00 0.0000000e+00 
0.0000000e+00 0.0000000e+00 0.0000000e+00 
1.0788733e-06 5.2173164e-07 -9.4021010e-07 
7.0422135e-07 -7.4538781e-07 4.7855895e-07 
0.0000000e+00 -1.6390932e-05 0.0000000e+00 
0.0000000e+00 1.7514210e-06 0.0000000e+00 
5.1460131e-07 5.9399616e-07 -1.4349105e-06 
1.7170129e-07 -1.8126124e-06 1.2784566e-06 
-2.0858469e-07 -6.5958324e-07 7.7847227e-07 
1.6995131e-07 -1.1816919e-06 -5.0475055e-06 
0.0000000e+00 -2.8100912e-05 0.0000000e+00 
0.0000000e+00 2.4827989e-06 0.0000000e+00 
-1.1014819e-05 -3.4655524e-05 -1.0675428e-06 
5.1393445e-06 -2.6746504e-06 -1.6020445e-05 
-2.1384800e-05 -2.9719507e-05 -1.6190186e-05 
1.5884898e-05 -4.9556398e-05 -1.3544036e-05 
0.0000000e+00 -5.7634708e-05 0.0000000e+00 
0.0000000e+00 7.5310668e-06 0.0000000e+00 
-6.2454051e-06 -2.5326777e-05 -1.1332173e-05 
-5.2764644e-06 -1.6481215e-05 -3.9644874e-06 
-1.2586645e-05 -1.1019386e-05 -3.9148408e-06 
-1.2095104e-05 -1.4654792e-05 -5.3771646e-06 
-6.4626934e-06 -2.7705499e-05 -3.0959736e-06 
-1.6203128e-06 -4.4649169e-05 8.7136041e-06 
-6.6845365e-07 -5.9607464e-05 2.4909854e-05 
-1.7137585e-05 -6.9385118e-05 3.3847205e-05 
-3.1374741e-05 -7.8896133e-05 4.0575513e-05 
-3.4971003e-05 -9.4549330e-05 3.3729364e-05 
-2.1156671e-05 -1.1869640e-04 2.7400320e-05 
-1.3740403e-05 -1.4732730e-04 2.2998567e-05 
-1.7513064e-05 -1.7169620e-04 2.0443627e-05 
-3.3659420e-05 -1.8203790e-04 1.4689509e-05 
-4.0837036e-05 -1.7609783e-04 9.6379017e-06 
-3.9411796e-05 -1.6076249e-04 -4.5859670e-06 
-3.5380614e-05 -1.4641168e-04 -2.0143836e-05 
-1.9381741e-05 -1.4098774e-04 -2.6997499e-05 
-1.7182439e-05 -1.3476796e-04 -5.6157365e-05 
-1.3075984e-05 -1.0599869e-04 -6.1419196e-05 
-1.3405833e-05 -4.3440079e-05 -7.0469985e-05 
1.7293826e-06 4.1605435e-05 -7.9032652e-05 
3.0173131e-05 1.2383114e-04 -8.3609812e-05 
3.6143265e-05 1.7980063e-04 -6.7962559e-05 
1.8210820e-05 2.1522463e-04 -6.7547910e-05 
2.1541480e-05 2.4739158e-04 -4.1170733e-05 
3.4740086e-05 2.7708217e-04 -6.2955291e-06 
3.1703737e-05 2.6135656e-04 2.1327947e-05 
3.4686815e-05 9.6092066e-05 1.1956419e-04 
-5.4217589e-06 -3.5372662e-04 1.4335760e-04 
-4.4855926e-05 -1.1652783e-03 2.7781879e-04 
-1.2562078e-04 -2.2797543e-03 2.1958500e-04 
-1.9103257e-04 -3.5359389e-03 3.5213874e-04 
-2.8011244e-04 -4.5617307e-03 1.5369459e-04 
-3.1470344e-04 -4.9667307e-03 1.5858500e-04 
-3.0412027e-04 -4.8808139e-03 8.1720827e-05 
-3.0922255e-04 -4.8441761e-03 2.0554140e-05 
-3.0439161e-04 -4.9724621e-03 -6.5918262e-05 
-2.8962176e-04 -5.0019133e-03 -9.0955247e-05 
-2.4315293e-04 -4.3935175e-03 -1.4910048e-04 
-1.7864126e-04 -3.2400358e-03 -2.9383515e-04 
-1.0410359e-04 -2.0085506e-03 -1.6596884e-04 
-4.2712072e-05 -1.0125632e-03 -1.9926424e-04 
-8.4929052e-06 -3.2219189e-04 -7.1065304e-05 
2.6805563e-05 7.2657749e-05 -3.6131336e-05 
2.6602611e-05 2.3174980e-04 2.5512451e-05 
2.0152056e-05 2.3533907e-04 5.4166419e-05 
6.6084308e-06 1.6875268e-04 6.8363683e-05 
-3.0994825e-06 9.3592702e-05 8.7936925e-05 
-2.1864944e-05 3.0434043e-05 7.2188304e-05 
-2.8788058e-05 -2.6346828e-05 6.3287218e-05 
-3.8334758e-05 -9.0348462e-05 3.4408786e-05 
-4.8545138e-05 -1.5832753e-04 2.0270216e-05 
-5.1569863e-05 -2.1078112e-04 9.7803013e-06 
-5.1343352e-05 -2.3282004e-04 7.5243133e-06 
-5.6819645e-05 -2.2775494e-04 -1.1381112e-05 
-5.2427760e-05 -2.1664551e-04 -2.8683775e-05 
-4.2718599e-05 -2.1878124e-04 -3.7206293e-05 
-4.0024603e-05 -2.3162796e-04 -7.5287528e-05 
-2.0739104e-05 -2.3242246e-04 -9.6710428e-05 
2.7858455e-06 -1.8894795e-04 -1.2917467e-04 
1.9297400e-05 -8.9387431e-05 -1.2825875e-04 
2.1040110e-05 4.1923257e-05 -8.5785548e-05 
1.3814818e-05 1.5477629e-04 -3.4559736e-05 
1.7658242e-05 2.1471069e-04 -1.8995399e-05 
1.7589875e-05 2.1615329e-04 3.7585178e-06 
-9.3446107e-07 1.7445012e-04 -8.0597101e-06 
-1.5964419e-05 8.9610621e-05 -1.4259058e-05 
-2.1428996e-05 -1.0055322e-04 2.7566730e-05 
-4.0744791e-05 -5.2542926e-04 1.9308120e-04 
-8.9092122e-05 -1.3039444e-03 2.2140337e-04 
-1.5732140e-04 -2.4560175e-03 1.4272543e-04 
-2.1869368e-04 -3.7877115e-03 2.6878307e-04 
-1.7644219e-04 -4.7488702e-03 8.9415385e-05 
-3.2099892e-04 -4.8916270e-03 6.8499750e-05 
-2.7222213e-04 -4.6106302e-03 3.8106926e-05 
-2.4561840e-04 -4.5135748e-03 2.9715578e-05 
-2.3145172e-04 -4.6644136e-03 -2.6973290e-05 
-2.3295893e-04 -4.7040144e-03 -6.1174665e-05 
-2.0665897e-04 -4.0335655e-03 -7.4854215e-05 
-1.7466128e-04 -2.9484285e-03 -1.9884811e-04 
-1.2208670e-04 -1.8516583e-03 -1.0080557e-04 
-6.9359630e-05 -9.7483152e-04 -1.5619835e-04 
-2.8360224e-05 -3.7620598e-04 -9.0199414e-05 
2.0868379e-06 -3.6753077e-05 -9.7264012e-05 
1.2614685e-05 1.1749367e-04 -5.2478528e-05 
1.7658926e-05 1.7203324e-04 -2.5141202e-05 
2.5957685e-05 1.8637403e-04 9.3511107e-06 
1.7202368e-05 1.8413491e-04 2.4933344e-05 
9.7670445e-06 1.6655537e-04 2.3923380e-05 
3.6193530e-06 1.2867349e-04 3.0419893e-05 
-7.7980694e-06 7.7317913e-05 2.0577965e-05 
-2.2063785e-05 2.6089834e-05 4.7092890e-06 
-2.3697012e-05 -1.5021229e-05 -2.5700991e-05 
-1.8315926e-05 -4.2601867e-05 -5.0888153e-05 
-7.0260780e-06 -5.8580055e-05 -6.4775471e-05 
4.7634358e-06 -6.3913300e-05 -5.8312151e-05 
8.4068060e-06 -6.0610644e-05 -4.5063651e-05 
1.1044449e-05 -5.3364820e-05 -2.8113776e-05 
0.0000000e+00 -2.9541752e-05 0.0000000e+00 
0.0000000e+00 -2.5238394e-05 0.0000000e+00 
0.0000000e+00 -1.6532591e-05 0.0000000e+00 
0.0000000e+00 -1.1165822e-05 0.0000000e+00 
0.0000000e+00 -1.4849337e-05 0.0000000e+00 
0.0000000e+00 -2.7821749e-05 0.0000000e+00 
0.0000000e+00 -4.4745568e-05 0.0000000e+00 
0.0000000e+00 -5.9345166e-05 0.0000000e+00 
0.0000000e+00 -6.9258400e-05 0.0000000e+00 
0.0000000e+00 -7.8968005e-05 0.0000000e+00 
0.0000000e+00 -9.4801377e-05 0.0000000e+00 
0.0000000e+00 -1.1907059e-04 0.0000000e+00 
0.0000000e+00 -1.4764738e-04 0.0000000e+00 
0.0000000e+00 -1.7157642e-04 0.0000000e+00 
0.0000000e+00 -1.8167647e-04 0.0000000e+00 
0.0000000e+00 -1.7573565e-04 0.0000000e+00 
0.0000000e+00 -1.6061112e-04 0.0000000e+00 
0.0000000e+00 -1.4728980e-04 0.0000000e+00 
0.0000000e+00 -1.4191285e-04 0.0000000e+00 
0.0000000e+00 -1.3468690e-04 0.0000000e+00 
0.0000000e+00 -1.0503916e-04 0.0000000e+00 
0.0000000e+00 -4.2316966e-05 0.0000000e+00 
0.0000000e+00 4.2031981e-05 0.0000000e+00 
0.0000000e+00 1.2255411e-04 0.0000000e+00 
0.0000000e+00 1.7902956e-04 0.0000000e+00 
0.0000000e+00 2.1561574e-04 0.0000000e+00 
0.0000000e+00 2.4927966e-04 0.0000000e+00 
0.0000000e+00 2.8038822e-04 0.0000000e+00 
0.0000000e+00 2.6374246e-04 0.0000000e+00 
0.0000000e+00 9.4226692e-05 0.0000000e+00 
0.0000000e+00 -3.6015402e-04 0.0000000e+00 
0.0000000e+00 -1.1721581e-03 0.0000000e+00 
0.0000000e+00 -2.2924545e-03 0.0000000e+00 
0.0000000e+00 -3.5492026e-03 0.0000000e+00 
0.0000000e+00 -4.5878887e-03 0.0000000e+00 
0.0000000e+00 -4.9930457e-03 0.0000000e+00 
0.0000000e+00 -4.9117436e-03 0.0000000e+00 
0.0000000e+00 -4.8649618e-03 0.0000000e+00 
0.0000000e+00 -4.9985861e-03 0.0000000e+00 
0.0000000e+00 -5.0248234e-03 0.0000000e+00 
0.0000000e+00 -4.4216332e-03 0.0000000e+00 
0.0000000e+00 -3.2565761e-03 0.0000000e+00 
0.0000000e+00 -2.0197143e-03 0.0000000e+00 
0.0000000e+00 -1.0162556e-03 0.0000000e+00 
0.0000000e+00 -3.2457241e-04 0.0000000e+00 
0.0000000e+00 7.1705530e-05 0.0000000e+00 
0.0000000e+00 2.3185505e-04 0.0000000e+00 
0.0000000e+00 2.3674083e-04 0.0000000e+00 
0.0000000e+00 1.7078612e-04 0.0000000e+00 
0.0000000e+00 9.4863550e-05 0.0000000e+00 
0.0000000e+00 3.0823470e-05 0.0000000e+00 
0.0000000e+00 -2.7139877e-05 0.0000000e+00 
0.0000000e+00 -9.1182614e-05 0.0000000e+00 
0.0000000e+00 -1.5838254e-04 0.0000000e+00 
0.0000000e+00 -2.1021385e-04 0.0000000e+00 
0.0000000e+00 -2.3204110e-04 0.0000000e+00 
0.0000000e+00 -2.2768816e-04 0.0000000e+00 
0.0000000e+00 -2.1739240e-04 0.0000000e+00 
0.0000000e+00 -2.1964153e-04 0.0000000e+00 
0.0000000e+00 -2.3250918e-04 0.0000000e+00 
0.0000000e+00 -2.3204740e-04 0.0000000e+00 
0.0000000e+00 -1.8735041e-04 0.0000000e+00 
0.0000000e+00 -8.7666580e-05 0.0000000e+00 
0.0000000e+00 4.1874184e-05 0.0000000e+00 
0.0000000e+00 1.5360265e-04 0.0000000e+00 
0.0000000e+00 2.1328914e-04 0.0000000e+00 
0.0000000e+00 2.1640569e-04 0.0000000e+00 
0.0000000e+00 1.7719204e-04 0.0000000e+00 
0.0000000e+00 9.3067116e-05 0.0000000e+00 
0.0000000e+00 -9.9980185e-05 0.0000000e+00 
0.0000000e+00 -5.2898336e-04 0.0000000e+00 
0.0000000e+00 -1.3148936e-03 0.0000000e+00 
0.0000000e+00 -2.4756375e-03 0.0000000e+00 
0.0000000e+00 -3.8024308e-03 0.0000000e+00 
0.0000000e+00 -4.7776480e-03 0.0000000e+00 
0.0000000e+00 -4.9118833e-03 0.0000000e+00 
0.0000000e+00 -4.6406332e-03 0.0000000e+00 
0.0000000e+00 -4.5368955e-03 0.0000000e+00 
0.0000000e+00 -4.6942104e-03 0.0000000e+00 
0.0000000e+00 -4.7264509e-03 0.0000000e+00 
0.0000000e+00 -4.0566558e-03 0.0000000e+00 
0.0000000e+00 -2.9603909e-03 0.0000000e+00 
0.0000000e+00 -1.8604058e-03 0.0000000e+00 
0.0000000e+00 -9.7891898e-04 0.0000000e+00 
0.0000000e+00 -3.7850480e-04 0.0000000e+00 
0.0000000e+00 -3.6729325e-05 0.0000000e+00 
0.0000000e+00 1.1925013e-04 0.0000000e+00 
0.0000000e+00 1.7384882e-04 0.0000000e+00 
0.0000000e+00 1.8723913e-04 0.0000000e+00 
0.0000000e+00 1.8422419e-04 0.0000000e+00 
0.0000000e+00 1.6604333e-04 0.0000000e+00 
0.0000000e+00 1.2855715e-04 0.0000000e+00 
0.0000000e+00 7.7640485e-05 0.0000000e+00 
0.0000000e+00 2.6359381e-05 0.0000000e+00 
0.0000000e+00 -1.4888765e-05 0.0000000e+00 
0.0000000e+00 -4.2673040e-05 0.0000000e+00 
0.0000000e+00 -5.8478188e-05 0.0000000e+00 
0.0000000e+00 -6.3748441e-05 0.0000000e+00 
0.0000000e+00 -6.0499049e-05 0.0000000e+00 
0.0000000e+00 -5.3523236e-05 0.0000000e+00 
0.0000000e+00 -4.9847418e-05 0.0000000e+00 
5.4703938e-05 -1.5769478e-05 -2.4271489e-05 
-1.7187430e-04 -2.1972049e-03 1.5116851e-04 
0.0000000e+00 0.0000000e+00 0.0000000e+00 
0.0000000e+00 0.0000000e+00 0.0000000e+00 
0.0000000e+00 0.0000000e+00 0.0000000e+00 
0.0000000e+00 0.0000000e+00 0.0000000e+00 
0.0000000e+00 0.0000000e+00 0.0000000e+00 
0.0000000e+00 0.0000000e+00 0.0000000e+00 
0.0000000e+00 0.0000000e+00 0.0000000e+00 
0.0000000e+00 0.0000000e+00 0.0000000e+00 
0.0000000e+00 0.0000000e+00 0.0000000e+00 
0.0000000e+00 0.0000000e+00 0.0000000e+00 
0.0000000e+00 0.0000000e+00 0.0000000e+00 
0.0000000e+00 0.0000000e+00 0.0000000e+00 
0.0000000e+00 0.0000000e+00 0.0000000e+00 
0.0000000e+00 0.0000000e+00 0.0000000e+00 
0.0000000e+00 0.0000000e+00 0.0000000e+00 
0.0000000e+00 0.0000000e+00 0.0000000e+00 
0.0000000e+00 0.0000000e+00 0.0000000e+00 
0.0000000e+00 0.0000000e+00 0.0000000e+00 
0.0000000e+00 0.0000000e+00 0.0000000e+00 
0.0000000e+00 0.0000000e+00 0.0000000e+00 
0.0000000e+00 0.0000000e+00 0.0000000e+00 
0.0000000e+00 0.0000000e+00 0.0000000e+00 
0.0000000e+00 0.0000000e+00 0.0000000e+00 
0.0000000e+00 0.0000000e+00 0.0000000e+00 
0.0000000e+00 0.0000000e+00 0.0000000e+00 
0.0000000e+00 0.0000000e+00 0.0000000e+00 
0.0000000e+00 0.0000000e+00 0.0000000e+00 
0.0000000e+00 0.0000000e+00 0.0000000e+00 
0.0000000e+00 0.0000000e+00 0.0000000e+00 
0.0000000e+00 0.0000000e+00 0.0000000e+00 
0.0000000e+00 0.0000000e+00 0.0000000e+00 
0.0000000e+00 0.0000000e+00 0.0000000e+00 
0.0000000e+00 0.0000000e+00 0.0000000e+00 
0.0000000e+00 0.0000000e+00 0.0000000e+00 
0.0000000e+00 0.0000000e+00 0.0000000e+00 
0.0000000e+00 0.0000000e+00 0.0000000e+00 
0.0000000e+00 0.0000000e+00 0.0000000e+00 
0.0000000e+00 0.0000000e+00 0.0000000e+00 
0.0000000e+00 0.0000000e+00 0.0000000e+00 
0.0000000e+00 0.0000000e+00 0.0000000e+00 
0.0000000e+00 0.0000000e+00 0.0000000e+00 
0.0000000e+00 0.0000000e+00 0.0000000e+00 
0.0000000e+00 0.0000000e+00 0.0000000e+00 
0.0000000e+00 0.0000000e+00 0.0000000e+00 
0.0000000e+00 0.0000000e+00 0.0000000e+00 
0.0000000e+00 0.0000000e+00 0.0000000e+00 
0.0000000e+00 0.0000000e+00 0.0000000e+00 
0.0000000e+00 0.0000000e+00 0.0000000e+00 
0.0000000e+00 0.0000000e+00 0.0000000e+00 
0.0000000e+00 0.0000000e+00 0.0000000e+00 
0.0000000e+00 0.0000000e+00 0.0000000e+00 
0.0000000e+00 0.0000000e+00 0.0000000e+00 
0.0000000e+00 0.0000000e+00 0.0000000e+00 
0.0000000e+00 0.0000000e+00 0.0000000e+00 
0.0000000e+00 0.0000000e+00 0.0000000e+00 
0.0000000e+00 0.0000000e+00 0.0000000e+00 
0.0000000e+00 0.0000000e+00 0.0000000e+00 
0.0000000e+00 0.0000000e+00 0.0000000e+00 
0.0000000e+00 0.0000000e+00 0.0000000e+00 
0.0000000e+00 0.0000000e+00 0.0000000e+00 
0.0000000e+00 0.0000000e+00 0.0000000e+00 
0.0000000e+00 0.0000000e+00 0.0000000e+00 
0.0000000e+00 0.0000000e+00 0.0000000e+00 
0.0000000e+00 0.0000000e+00 0.0000000e+00 
0.0000000e+00 0.0000000e+00 0.0000000e+00 
0.0000000e+00 0.0000000e+00 0.0000000e+00 
0.0000000e+00 0.0000000e+00 0.0000000e+00 
0.0000000e+00 0.0000000e+00 0.0000000e+00 
0.0000000e+00 0.0000000e+00 0.0000000e+00 
0.0000000e+00 0.0000000e+00 0.0000000e+00 
0.0000000e+00 0.0000000e+00 0.0000000e+00 
0.0000000e+00 0.0000000e+00 0.0000000e+00 
0.0000000e+00 0.0000000e+00 0.0000000e+00 
0.0000000e+00 0.0000000e+00 0.0000000e+00 
0.0000000e+00 0.0000000e+00 0.0000000e+00 
0.0000000e+00 0.0000000e+00 0.0000000e+00 
0.0000000e+00 0.0000000e+00 0.0000000e+00 
0.0000000e+00 0.0000000e+00 0.0000000e+00 
0.0000000e+00 0.0000000e+00 0.0000000e+00 
0.0000000e+00 0.0000000e+00 0.0000000e+00 
0.0000000e+00 0.0000000e+00 0.0000000e+00 
0.0000000e+00 0.0000000e+00 0.0000000e+00 
0.0000000e+00 0.0000000e+00 0.0000000e+00 
0.0000000e+00 0.0000000e+00 0.0000000e+00 
0.0000000e+00 0.0000000e+00 0.0000000e+00 
0.0000000e+00 0.0000000e+00 0.0000000e+00 
0.0000000e+00 0.0000000e+00 0.0000000e+00 
0.0000000e+00 0.0000000e+00 0.0000000e+00 
0.0000000e+00 0.0000000e+00 0.0000000e+00 
0.0000000e+00 0.0000000e+00 0.0000000e+00 
0.0000000e+00 0.0000000e+00 0.0000000e+00 
0.0000000e+00 0.0000000e+00 0.0000000e+00 
0.0000000e+00 0.0000000e+00 0.0000000e+00 
0.0000000e+00 0.0000000e+00 0.0000000e+00 
0.0000000e+00 0.0000000e+00 0.0000000e+00 
0.0000000e+00 0.0000000e+00 0.0000000e+00 
0.0000000e+00 0.0000000e+00 0.0000000e+00 
0.0000000e+00 0.0000000e+00 0.0000000e+00 
0.0000000e+00 0.0000000e+00 0.0000000e+00 
0.0000000e+00 0.0000000e+00 0.0000000e+00 
0.0000000e+00 0.0000000e+00 0.0000000e+00 
0.0000000e+00 0.0000000e+00 0.0000000e+00 
0.0000000e+00 0.0000000e+00 0.0000000e+00 
0.0000000e+00 0.0000000e+00 0.0000000e+00 
0.0000000e+00 0.0000000e+00 0.0000000e+00 
0.0000000e+00 0.0000000e+00 0.0000000e+00 
6.1133257e-08 6.5682570e-07 1.3035096e-06 
1.4573779e-06 -4.0064978e-07 -1.3702365e-07 
1.8828266e-06 2.7400014e-07 -3.5277810e-07 
1.1307289e-08 -6.6667280e-07 -2.4474568e-06 
1.2397982e-06 -5.4899598e-08 -5.4034736e-06 
8.3676457e-07 9.3014563e-08 -1.3221739e-06 
6.3631830e-07 1.5034149e-06 -9.9356203e-07 
1.3209296e-07 -3.0652593e-06 -2.5576373e-06 
1.1573527e-06 -4.9624714e-06 -2.1850130e-06 
1.3385085e-06 4.1440694e-06 -2.4117105e-06 
-5.7515285e-07 -4.1035100e-06 -3.5625417e-06 
3.2207015e-06 -1.7984693e-06 -4.0122923e-06 
9.1608899e-06 8.0779810e-06 -5.6419167e-06 
1.5573054e-05 -6.7488736e-06 -5.4436650e-06 
2.3584527e-05 -1.1793581e-05 -7.2993885e-06 
3.9098326e-05 -1.2837012e-05 -6.1350515e-06 
4.4045380e-05 -1.4340756e-05 -1.9892936e-07 
4.6900561e-05 -2.0468642e-05 4.0039317e-06 
4.8115806e-05 -1.6645568e-05 9.7694583e-06 
3.6176578e-05 -1.1893854e-05 1.8320199e-05 
2.6244734e-05 -7.0732372e-06 1.6668386e-05 
1.4468978e-05 -5.7977381e-06 1.3189459e-05 
8.1443704e-06 -3.5113906e-06 6.2341824e-06 
5.3609015e-06 -1.8808834e-06 3.8720164e-06 
3.6869503e-06 -1.2126077e-07 -3.4066500e-06 
3.2559187e-06 -5.1653734e-07 -8.7942917e-06 
2.0672069e-06 -6.8410628e-07 -7.0291521e-06 
6.2402853e-07 -7.2470201e-08 -7.6198176e-06 
3.6035092e-06 -5.1319298e-06 -1.1562840e-05 
8.7590035e-07 1.4791791e-06 -7.5393423e-06 
-5.4459241e-07 5.8668802e-06 -5.6829695e-06 
4.7330000e-06 -5.4550428e-06 -9.3797162e-06 
6.1294804e-06 -1.1152363e-07 -7.9530355e-06 
1.4597095e-05 -1.2994564e-06 -9.8946030e-06 
2.3271972e-05 -4.7516141e-06 -1.3125484e-05 
3.2579879e-05 -1.1337524e-05 -9.9931513e-06 
4.4005985e-05 -1.3140833e-05 -3.2773689e-06 
5.0275827e-05 -1.7678836e-05 6.1136693e-06 
4.9469123e-05 -1.7354900e-05 1.2819657e-05 
4.1463783e-05 -1.7756873e-05 2.0079249e-05 
2.9534418e-05 -1.2571361e-05 1.9592382e-05 
1.8526865e-05 -6.8317945e-06 1.6696071e-05 
8.6925147e-06 -1.5451517e-06 1.1973914e-05 
3.0772285e-06 1.1311233e-07 6.2180125e-06 
-1.1846137e-06 5.8504327e-07 5.2207099e-07 
-2.1708145e-06 9.7793134e-07 -2.1705150e-06 
-2.2625229e-06 -6.3361909e-08 -4.5112056e-06 
-9.7970621e-07 -2.9456172e-07 -4.1559529e-06 
5.7552148e-07 1.5062550e-07 -2.1436210e-06 
0.0000000e+00 6.4822057e-06 0.0000000e+00 
0.0000000e+00 1.9287512e-05 0.0000000e+00 
0.0000000e+00 2.1377038e-05 0.0000000e+00 
0.0000000e+00 2.8077764e-05 0.0000000e+00 
0.0000000e+00 2.9601581e-05 0.0000000e+00 
0.0000000e+00 8.4026997e-06 0.0000000e+00 
0.0000000e+00 -1.8401352e-05 0.0000000e+00 
0.0000000e+00 -2.7067592e-05 0.0000000e+00 
0.0000000e+00 -5.2721607e-05 0.0000000e+00 
0.0000000e+00 -5.4826960e-05 0.0000000e+00 
0.0000000e+00 5.6537704e-07 0.0000000e+00 
0.0000000e+00 -1.0684326e-05 0.0000000e+00 
0.0000000e+00 2.2760831e-05 0.0000000e+00 
0.0000000e+00 5.9938531e-05 0.0000000e+00 
0.0000000e+00 -4.7387224e-05 0.0000000e+00 
0.0000000e+00 -2.3024160e-04 0.0000000e+00 
0.0000000e+00 -4.4631292e-04 0.0000000e+00 
0.0000000e+00 -5.5202795e-04 0.0000000e+00 
0.0000000e+00 -5.6471332e-04 0.0000000e+00 
0.0000000e+00 -4.4958075e-04 0.0000000e+00 
0.0000000e+00 -2.1320414e-04 0.0000000e+00 
0.0000000e+00 -4.4612452e-06 0.0000000e+00 
0.0000000e+00 4.8753456e-05 0.0000000e+00 
0.0000000e+00 6.1830302e-05 0.0000000e+00 
0.0000000e+00 4.4532102e-05 0.0000000e+00 
0.0000000e+00 1.8612647e-05 0.0000000e+00 
0.0000000e+00 -2.9377537e-05 0.0000000e+00 
0.0000000e+00 -2.6024438e-07 0.0000000e+00 
0.0000000e+00 -5.4360560e-05 0.0000000e+00 
0.0000000e+00 -8.9419133e-05 0.0000000e+00 
0.0000000e+00 -1.3915725e-06 0.0000000e+00 
0.0000000e+00 8.5304173e-06 0.0000000e+00 
0.0000000e+00 -5.4899433e-06 0.0000000e+00 
0.0000000e+00 1.1560491e-05 0.0000000e+00 
0.0000000e+00 -1.2262842e-04 0.0000000e+00 
0.0000000e+00 -3.2022473e-04 0.0000000e+00 
0.0000000e+00 -4.5699018e-04 0.0000000e+00 
0.0000000e+00 -5.1226694e-04 0.0000000e+00 
0.0000000e+00 -4.9540785e-04 0.0000000e+00 
0.0000000e+00 -4.3121757e-04 0.0000000e+00 
0.0000000e+00 -2.7967757e-04 0.0000000e+00 
0.0000000e+00 -1.0731184e-04 0.0000000e+00 
0.0000000e+00 -3.5051987e-06 0.0000000e+00 
0.0000000e+00 3.1476429e-05 0.0000000e+00 
0.0000000e+00 3.8344631e-05 0.0000000e+00 
0.0000000e+00 2.2241124e-05 0.0000000e+00 
0.0000000e+00 -9.4297093e-06 0.0000000e+00 
0.0000000e+00 -1.8294621e-05 0.0000000e+00 
0.0000000e+00 -1.2200497e-05 0.0000000e+00 
2.7971114e-07 7.6335277e-07 1.1671285e-06 
3.2130242e-06 -1.1464757e-06 1.4751296e-07 
3.2691187e-06 -4.8213051e-06 6.1823067e-07 
3.3330832e-06 -1.2192822e-05 1.1711808e-06 
1.1512369e-06 -5.9152762e-07 -1.0985781e-06 
1.6458088e-06 -7.8008078e-08 -3.8765694e-07 
2.7037861e-06 2.0554180e-06 1.6235358e-06 
1.7765449e-06 1.2880593e-06 1.8588187e-06 
1.3935535e-07 1.0221032e-07 -6.5015911e-07 
1.7994844e-06 8.3376364e-07 7.0495099e-07 
1.4561840e-06 8.7520064e-08 -1.9579656e-07 
3.6104586e-06 2.3486600e-06 -3.5534604e-06 
1.2279681e-06 -2.7391562e-07 -4.6879477e-06 
-7.7097212e-07 5.0867527e-07 -4.4147669e-06 
-3.7747948e-06 2.4509150e-06 -6.0843058e-06 
-7.6354286e-07 -1.5308625e-06 -3.3693075e-06 
-2.5171032e-06 -1.2604836e-06 -3.6761796e-06 
-7.3222141e-06 6.2099757e-06 1.1002504e-06 
-2.8199811e-06 -4.0277573e-06 -2.0458629e-06 
3.3092090e-06 -2.3073874e-06 -9.7962766e-06 
7.4674094e-06 9.8089258e-06 -1.1076740e-05 
2.2777547e-05 -1.2892346e-05 -3.4274722e-06 
3.2937161e-05 -3.5600474e-06 -4.2542123e-07 
3.9909002e-05 -1.0964477e-05 -1.3165341e-06 
4.0656931e-05 -1.6126296e-05 8.1087519e-06 
4.3568583e-05 -1.7859529e-05 1.1186779e-05 
4.2827072e-05 -1.6869464e-05 9.7736956e-06 