# vtk DataFile Version 4.0
vtk output
ASCII
DATASET UNSTRUCTURED_GRID
POINTS 38 float
0.0000000e+00 0.0000000e+00 0.0000000e+00 
0.0000000e+00 0.0000000e+00 1.0000000e+01 
5.0000000e+00 0.0000000e+00 0.0000000e+00 
5.0000000e+00 0.0000000e+00 1.0000000e+01 
5.0000000e+00 1.0000000e+00 0.0000000e+00 
5.0000000e+00 1.0000000e+00 1.0000000e+01 
0.0000000e+00 1.0000000e+00 0.0000000e+00 
0.0000000e+00 1.0000000e+00 1.0000000e+01 
5.0000000e+00 2.0000000e+00 0.0000000e+00 
5.0000000e+00 2.0000000e+00 1.0000000e+01 
3.0000000e+00 2.0000000e+00 0.0000000e+00 
3.0000000e+00 2.0000000e+00 1.0000000e+01 
0.0000000e+00 2.0000000e+00 0.0000000e+00 
0.0000000e+00 2.0000000e+00 1.0000000e+01 
1.5000000e+00 3.0000000e+00 0.0000000e+00 
1.5000000e+00 3.0000000e+00 1.0000000e+01 
7.5000000e-01 3.0000000e+00 0.0000000e+00 
7.5000000e-01 3.0000000e+00 1.0000000e+01 
0.0000000e+00 3.0000000e+00 0.0000000e+00 
0.0000000e+00 3.0000000e+00 1.0000000e+01 
0.0000000e+00 0.0000000e+00 5.0000000e+00 
5.0000000e+00 0.0000000e+00 5.0000000e+00 
5.0000000e+00 1.0000000e+00 5.0000000e+00 
0.0000000e+00 1.0000000e+00 5.0000000e+00 
5.0000000e+00 2.0000000e+00 5.0000000e+00 
3.0000000e+00 2.0000000e+00 5.0000000e+00 
0.0000000e+00 2.0000000e+00 5.0000000e+00 
1.5000000e+00 3.0000000e+00 5.0000000e+00 
7.5000000e-01 3.0000000e+00 5.0000000e+00 
0.0000000e+00 3.0000000e+00 5.0000000e+00 
2.5000000e+00 0.0000000e+00 2.5000000e+00 
2.5000000e+00 0.0000000e+00 7.5000000e+00 
2.5000000e+00 1.0000000e+00 2.5000000e+00 
2.5000000e+00 1.0000000e+00 7.5000000e+00 
4.0000000e+00 2.0000000e+00 2.5000000e+00 
4.0000000e+00 2.0000000e+00 7.5000000e+00 
1.5000000e+00 2.0000000e+00 7.5000000e+00 
1.5000000e+00 2.0000000e+00 2.5000000e+00 

CELLS 84 420
4 7 23 33 31
4 23 6 32 30
4 5 7 33 31
4 21 33 23 31
4 21 32 4 30
4 6 4 32 30
4 21 33 31 5
4 32 21 23 30
4 0 30 23 20
4 1 23 31 20
4 21 23 20 31
4 21 23 30 20
4 21 33 5 22
4 32 21 4 22
4 21 5 31 3
4 3 7 31 1
4 32 21 22 23
4 7 23 31 1
4 5 7 31 3
4 23 6 30 0
4 33 21 23 22
4 2 6 30 4
4 30 4 21 2
4 2 6 0 30
4 22 8 34 24
4 9 22 35 24
4 22 9 35 5
4 22 8 4 34
4 10 25 37 32
4 25 11 36 33
4 5 22 33 35
4 22 4 32 34
4 7 5 33 11
4 4 6 32 10
4 22 23 33 25
4 23 22 32 25
4 23 7 33 36
4 6 23 32 37
4 37 12 6 26
4 26 36 7 23
4 26 36 13 7
4 6 37 26 23
4 33 36 7 11
4 10 37 6 32
4 25 23 37 32
4 33 23 36 25
4 5 33 11 35
4 34 10 4 32
4 22 25 34 32
4 33 25 35 22
4 11 13 36 7
4 12 10 37 6
4 25 26 37 23
4 26 25 36 23
4 11 9 5 35
4 34 10 8 4
4 34 24 25 22
4 25 24 35 22
4 25 11 33 35
4 10 25 32 34
4 25 14 10 37
4 15 25 11 36
4 25 14 37 27
4 15 25 36 27
4 28 15 36 27
4 13 11 36 15
4 10 12 37 14
4 26 25 27 36
4 26 25 37 27
4 36 26 28 27
4 18 12 28 29
4 26 28 12 29
4 19 28 13 29
4 26 13 28 29
4 26 28 13 36
4 28 13 17 19
4 28 16 12 18
4 12 26 27 28
4 27 26 12 37
4 27 16 12 28
4 15 28 13 17
4 15 13 28 36
4 27 14 12 16
4 12 14 27 37

CELL_TYPES 84
10
10
10
10
10
10
10
10
10
10
10
10
10
10
10
10
10
10
10
10
10
10
10
10
10
10
10
10
10
10
10
10
10
10
10
10
10
10
10
10
10
10
10
10
10
10
10
10
10
10
10
10
10
10
10
10
10
10
10
10
10
10
10
10
10
10
10
10
10
10
10
10
10
10
10
10
10
10
10
10
10
10
10
10
POINT_DATA 38
FIELD FieldData 2
DISPLACEMENT 3 38  float
0.0000000e+00 0.0000000e+00 0.0000000e+00 
0.0000000e+00 0.0000000e+00 0.0000000e+00 
0.0000000e+00 0.0000000e+00 0.0000000e+00 
0.0000000e+00 0.0000000e+00 0.0000000e+00 
0.0000000e+00 -8.6684340e-11 0.0000000e+00 
0.0000000e+00 -7.9586426e-09 0.0000000e+00 
0.0000000e+00 -3.3888475e-10 0.0000000e+00 
0.0000000e+00 -3.6681591e-08 0.0000000e+00 
0.0000000e+00 -7.9247144e-11 0.0000000e+00 
0.0000000e+00 -9.5155670e-09 0.0000000e+00 
0.0000000e+00 -6.4839989e-10 0.0000000e+00 
0.0000000e+00 -3.6465654e-08 0.0000000e+00 
0.0000000e+00 -9.7445307e-10 0.0000000e+00 
0.0000000e+00 -9.1573710e-08 0.0000000e+00 
0.0000000e+00 -1.0776678e-09 0.0000000e+00 
1.7138415e-08 -1.0188798e-07 4.6886681e-09 
0.0000000e+00 -4.1976927e-10 0.0000000e+00 
0.0000000e+00 -1.8193690e-07 0.0000000e+00 
0.0000000e+00 -8.6941182e-10 0.0000000e+00 
0.0000000e+00 -1.1356423e-07 0.0000000e+00 
0.0000000e+00 0.0000000e+00 0.0000000e+00 
0.0000000e+00 0.0000000e+00 0.0000000e+00 
0.0000000e+00 1.4618764e-09 0.0000000e+00 
0.0000000e+00 -3.1735357e-09 0.0000000e+00 
0.0000000e+00 1.3486064e-09 0.0000000e+00 
2.9754169e-10 4.3355515e-09 -1.3084294e-09 
0.0000000e+00 -6.3195529e-09 0.0000000e+00 
6.6923567e-10 -2.2546705e-09 1.6802276e-09 
0.0000000e+00 -6.6777370e-09 0.0000000e+00 
0.0000000e+00 -6.8480288e-09 0.0000000e+00 
0.0000000e+00 0.0000000e+00 0.0000000e+00 
0.0000000e+00 0.0000000e+00 0.0000000e+00 
2.2793514e-10 2.5543673e-10 3.7551864e-10 
3.9157264e-09 -1.2010876e-08 -3.5692400e-09 
-5.8421087e-11 6.7748085e-10 -2.8737726e-10 
5.3248524e-11 -6.8117267e-09 1.5032907e-10 
2.9225038e-09 -3.6801367e-08 -4.9187134e-09 
5.1969357e-10 -5.1384186e-10 7.9139702e-11 
TOTAL_DISPLACEMENT 3 38  float
0.0000000e+00 0.0000000e+00 0.0000000e+00 
0.0000000e+00 0.0000000e+00 0.0000000e+00 
0.0000000e+00 0.0000000e+00 0.0000000e+00 
0.0000000e+00 0.0000000e+00 0.0000000e+00 
0.0000000e+00 0.0000000e+00 0.0000000e+00 
0.0000000e+00 0.0000000e+00 0.0000000e+00 
0.0000000e+00 0.0000000e+00 0.0000000e+00 
0.0000000e+00 0.0000000e+00 0.0000000e+00 
0.0000000e+00 0.0000000e+00 0.0000000e+00 
0.0000000e+00 0.0000000e+00 0.0000000e+00 
0.0000000e+00 0.0000000e+00 0.0000000e+00 
0.0000000e+00 0.0000000e+00 0.0000000e+00 
0.0000000e+00 0.0000000e+00 0.0000000e+00 
0.0000000e+00 0.0000000e+00 0.0000000e+00 
0.0000000e+00 0.0000000e+00 0.0000000e+00 
0.0000000e+00 0.0000000e+00 0.0000000e+00 
0.0000000e+00 0.0000000e+00 0.0000000e+00 
0.0000000e+00 0.0000000e+00 0.0000000e+00 
0.0000000e+00 0.0000000e+00 0.0000000e+00 
0.0000000e+00 0.0000000e+00 0.0000000e+00 
0.0000000e+00 0.0000000e+00 0.0000000e+00 
0.0000000e+00 0.0000000e+00 0.0000000e+00 
0.0000000e+00 0.0000000e+00 0.0000000e+00 
0.0000000e+00 0.0000000e+00 0.0000000e+00 
0.0000000e+00 0.0000000e+00 0.0000000e+00 
0.0000000e+00 0.0000000e+00 0.0000000e+00 
0.0000000e+00 0.0000000e+00 0.0000000e+00 
0.0000000e+00 0.0000000e+00 0.0000000e+00 
0.0000000e+00 0.0000000e+00 0.0000000e+00 
0.0000000e+00 0.0000000e+00 0.0000000e+00 
0.0000000e+00 0.0000000e+00 0.0000000e+00 
0.0000000e+00 0.0000000e+00 0.0000000e+00 
0.0000000e+00 0.0000000e+00 0.0000000e+00 
0.0000000e+00 0.0000000e+00 0.0000000e+00 
0.0000000e+00 0.0000000e+00 0.0000000e+00 
0.0000000e+00 0.0000000e+00 0.0000000e+00 
0.0000000e+00 0.0000000e+00 0.0000000e+00 
0.0000000e+00 0.0000000e+00 0.0000000e+00 
CELL_DATA 84
FIELD FieldData 0
