# vtk DataFile Version 4.0
vtk output
ASCII
DATASET UNSTRUCTURED_GRID
POINTS 38 float
0.0000000e+00 0.0000000e+00 0.0000000e+00 
0.0000000e+00 0.0000000e+00 1.0000000e+01 
5.0000000e+00 0.0000000e+00 0.0000000e+00 
5.0000000e+00 0.0000000e+00 1.0000000e+01 
5.0000000e+00 1.0000000e+00 0.0000000e+00 
5.0000000e+00 1.0000000e+00 1.0000000e+01 
0.0000000e+00 1.0000000e+00 0.0000000e+00 
0.0000000e+00 1.0000000e+00 1.0000000e+01 
5.0000000e+00 2.0000000e+00 0.0000000e+00 
5.0000000e+00 2.0000000e+00 1.0000000e+01 
3.0000000e+00 2.0000000e+00 0.0000000e+00 
3.0000000e+00 2.0000000e+00 1.0000000e+01 
0.0000000e+00 2.0000000e+00 0.0000000e+00 
0.0000000e+00 2.0000000e+00 1.0000000e+01 
1.5000000e+00 3.0000000e+00 0.0000000e+00 
1.5000000e+00 3.0000000e+00 1.0000000e+01 
7.5000000e-01 3.0000000e+00 0.0000000e+00 
7.5000000e-01 3.0000000e+00 1.0000000e+01 
0.0000000e+00 3.0000000e+00 0.0000000e+00 
0.0000000e+00 3.0000000e+00 1.0000000e+01 
0.0000000e+00 0.0000000e+00 5.0000000e+00 
5.0000000e+00 0.0000000e+00 5.0000000e+00 
5.0000000e+00 1.0000000e+00 5.0000000e+00 
0.0000000e+00 1.0000000e+00 5.0000000e+00 
5.0000000e+00 2.0000000e+00 5.0000000e+00 
3.0000000e+00 2.0000000e+00 5.0000000e+00 
0.0000000e+00 2.0000000e+00 5.0000000e+00 
1.5000000e+00 3.0000000e+00 5.0000000e+00 
7.5000000e-01 3.0000000e+00 5.0000000e+00 
0.0000000e+00 3.0000000e+00 5.0000000e+00 
2.5000000e+00 0.0000000e+00 2.5000000e+00 
2.5000000e+00 0.0000000e+00 7.5000000e+00 
2.5000000e+00 1.0000000e+00 2.5000000e+00 
2.5000000e+00 1.0000000e+00 7.5000000e+00 
4.0000000e+00 2.0000000e+00 2.5000000e+00 
4.0000000e+00 2.0000000e+00 7.5000000e+00 
1.5000000e+00 2.0000000e+00 7.5000000e+00 
1.5000000e+00 2.0000000e+00 2.5000000e+00 

CELLS 84 420
4 7 23 33 31
4 23 6 32 30
4 5 7 33 31
4 21 33 23 31
4 21 32 4 30
4 6 4 32 30
4 21 33 31 5
4 32 21 23 30
4 0 30 23 20
4 1 23 31 20
4 21 23 20 31
4 21 23 30 20
4 21 33 5 22
4 32 21 4 22
4 21 5 31 3
4 3 7 31 1
4 32 21 22 23
4 7 23 31 1
4 5 7 31 3
4 23 6 30 0
4 33 21 23 22
4 2 6 30 4
4 30 4 21 2
4 2 6 0 30
4 22 8 34 24
4 9 22 35 24
4 22 9 35 5
4 22 8 4 34
4 10 25 37 32
4 25 11 36 33
4 5 22 33 35
4 22 4 32 34
4 7 5 33 11
4 4 6 32 10
4 22 23 33 25
4 23 22 32 25
4 23 7 33 36
4 6 23 32 37
4 37 12 6 26
4 26 36 7 23
4 26 36 13 7
4 6 37 26 23
4 33 36 7 11
4 10 37 6 32
4 25 23 37 32
4 33 23 36 25
4 5 33 11 35
4 34 10 4 32
4 22 25 34 32
4 33 25 35 22
4 11 13 36 7
4 12 10 37 6
4 25 26 37 23
4 26 25 36 23
4 11 9 5 35
4 34 10 8 4
4 34 24 25 22
4 25 24 35 22
4 25 11 33 35
4 10 25 32 34
4 25 14 10 37
4 15 25 11 36
4 25 14 37 27
4 15 25 36 27
4 28 15 36 27
4 13 11 36 15
4 10 12 37 14
4 26 25 27 36
4 26 25 37 27
4 36 26 28 27
4 18 12 28 29
4 26 28 12 29
4 19 28 13 29
4 26 13 28 29
4 26 28 13 36
4 28 13 17 19
4 28 16 12 18
4 12 26 27 28
4 27 26 12 37
4 27 16 12 28
4 15 28 13 17
4 15 13 28 36
4 27 14 12 16
4 12 14 27 37

CELL_TYPES 84
10
10
10
10
10
10
10
10
10
10
10
10
10
10
10
10
10
10
10
10
10
10
10
10
10
10
10
10
10
10
10
10
10
10
10
10
10
10
10
10
10
10
10
10
10
10
10
10
10
10
10
10
10
10
10
10
10
10
10
10
10
10
10
10
10
10
10
10
10
10
10
10
10
10
10
10
10
10
10
10
10
10
10
10
POINT_DATA 38
FIELD FieldData 2
DISPLACEMENT 3 38  float
0.0000000e+00 0.0000000e+00 0.0000000e+00 
0.0000000e+00 0.0000000e+00 0.0000000e+00 
0.0000000e+00 0.0000000e+00 0.0000000e+00 
0.0000000e+00 0.0000000e+00 0.0000000e+00 
0.0000000e+00 5.1341420e-10 0.0000000e+00 
0.0000000e+00 -8.9867572e-11 0.0000000e+00 
0.0000000e+00 -1.3160635e-11 0.0000000e+00 
0.0000000e+00 -3.4729628e-09 0.0000000e+00 
0.0000000e+00 2.7550665e-10 0.0000000e+00 
0.0000000e+00 -4.9360155e-10 0.0000000e+00 
0.0000000e+00 3.6254635e-09 0.0000000e+00 
0.0000000e+00 7.5688372e-10 0.0000000e+00 
0.0000000e+00 1.2301773e-09 0.0000000e+00 
0.0000000e+00 -7.2149304e-09 0.0000000e+00 
0.0000000e+00 4.4194954e-09 0.0000000e+00 
-1.3744784e-09 -5.1938565e-09 -2.2068700e-09 
0.0000000e+00 6.6368662e-09 0.0000000e+00 
0.0000000e+00 -1.5138221e-08 0.0000000e+00 
0.0000000e+00 2.1780284e-09 0.0000000e+00 
0.0000000e+00 -9.5336965e-09 0.0000000e+00 
0.0000000e+00 0.0000000e+00 0.0000000e+00 
0.0000000e+00 0.0000000e+00 0.0000000e+00 
0.0000000e+00 -3.5909145e-09 0.0000000e+00 
0.0000000e+00 -1.8770473e-08 0.0000000e+00 
0.0000000e+00 -3.8888794e-09 0.0000000e+00 
3.9106944e-09 -1.7047530e-08 -2.1910568e-10 
0.0000000e+00 -4.8125909e-08 0.0000000e+00 
3.9533461e-09 -5.7479006e-08 -1.2945350e-09 
0.0000000e+00 -8.6469036e-08 0.0000000e+00 
0.0000000e+00 -6.9612405e-08 0.0000000e+00 
0.0000000e+00 0.0000000e+00 0.0000000e+00 
0.0000000e+00 0.0000000e+00 0.0000000e+00 
2.1563740e-09 -5.1581357e-09 -1.2707747e-09 
3.1362375e-09 -6.9491892e-09 9.0677266e-10 
6.8347739e-10 -3.1246550e-09 -6.5952389e-11 
6.3887357e-10 -3.8514947e-09 6.5244148e-13 
6.3911938e-09 -2.1370951e-08 2.7521090e-09 
4.4336397e-09 -1.5434118e-08 -3.3647534e-09 
TOTAL_DISPLACEMENT 3 38  float
0.0000000e+00 0.0000000e+00 0.0000000e+00 
0.0000000e+00 0.0000000e+00 0.0000000e+00 
0.0000000e+00 0.0000000e+00 0.0000000e+00 
0.0000000e+00 0.0000000e+00 0.0000000e+00 
0.0000000e+00 0.0000000e+00 0.0000000e+00 
0.0000000e+00 0.0000000e+00 0.0000000e+00 
0.0000000e+00 0.0000000e+00 0.0000000e+00 
0.0000000e+00 0.0000000e+00 0.0000000e+00 
0.0000000e+00 0.0000000e+00 0.0000000e+00 
0.0000000e+00 0.0000000e+00 0.0000000e+00 
0.0000000e+00 0.0000000e+00 0.0000000e+00 
0.0000000e+00 0.0000000e+00 0.0000000e+00 
0.0000000e+00 0.0000000e+00 0.0000000e+00 
0.0000000e+00 0.0000000e+00 0.0000000e+00 
0.0000000e+00 0.0000000e+00 0.0000000e+00 
0.0000000e+00 0.0000000e+00 0.0000000e+00 
0.0000000e+00 0.0000000e+00 0.0000000e+00 
0.0000000e+00 0.0000000e+00 0.0000000e+00 
0.0000000e+00 0.0000000e+00 0.0000000e+00 
0.0000000e+00 0.0000000e+00 0.0000000e+00 
0.0000000e+00 0.0000000e+00 0.0000000e+00 
0.0000000e+00 0.0000000e+00 0.0000000e+00 
0.0000000e+00 0.0000000e+00 0.0000000e+00 
0.0000000e+00 0.0000000e+00 0.0000000e+00 
0.0000000e+00 0.0000000e+00 0.0000000e+00 
0.0000000e+00 0.0000000e+00 0.0000000e+00 
0.0000000e+00 0.0000000e+00 0.0000000e+00 
0.0000000e+00 0.0000000e+00 0.0000000e+00 
0.0000000e+00 0.0000000e+00 0.0000000e+00 
0.0000000e+00 0.0000000e+00 0.0000000e+00 
0.0000000e+00 0.0000000e+00 0.0000000e+00 
0.0000000e+00 0.0000000e+00 0.0000000e+00 
0.0000000e+00 0.0000000e+00 0.0000000e+00 
0.0000000e+00 0.0000000e+00 0.0000000e+00 
0.0000000e+00 0.0000000e+00 0.0000000e+00 
0.0000000e+00 0.0000000e+00 0.0000000e+00 
0.0000000e+00 0.0000000e+00 0.0000000e+00 
0.0000000e+00 0.0000000e+00 0.0000000e+00 
CELL_DATA 84
FIELD FieldData 0
