# vtk DataFile Version 4.0
vtk output
ASCII
DATASET UNSTRUCTURED_GRID
POINTS 1919 float
0.0000000e+00 0.0000000e+00 0.0000000e+00 
0.0000000e+00 0.0000000e+00 5.0000000e+01 
5.0000000e+00 0.0000000e+00 0.0000000e+00 
5.0000000e+00 0.0000000e+00 5.0000000e+01 
5.0000000e+00 1.0000000e+00 0.0000000e+00 
5.0000000e+00 1.0000000e+00 5.0000000e+01 
0.0000000e+00 1.0000000e+00 0.0000000e+00 
0.0000000e+00 1.0000000e+00 5.0000000e+01 
5.0000000e+00 2.0000000e+00 0.0000000e+00 
5.0000000e+00 2.0000000e+00 5.0000000e+01 
3.0000000e+00 2.0000000e+00 0.0000000e+00 
3.0000000e+00 2.0000000e+00 5.0000000e+01 
0.0000000e+00 2.0000000e+00 0.0000000e+00 
0.0000000e+00 2.0000000e+00 5.0000000e+01 
1.5000000e+00 3.0000000e+00 0.0000000e+00 
1.5000000e+00 3.0000000e+00 5.0000000e+01 
7.5000000e-01 3.0000000e+00 0.0000000e+00 
7.5000000e-01 3.0000000e+00 5.0000000e+01 
0.0000000e+00 3.0000000e+00 0.0000000e+00 
0.0000000e+00 3.0000000e+00 5.0000000e+01 
7.5000000e-01 3.0000000e+00 5.0000000e-01 
7.5000000e-01 3.0000000e+00 1.0000000e+00 
7.5000000e-01 3.0000000e+00 1.5000000e+00 
7.5000000e-01 3.0000000e+00 2.0000000e+00 
7.5000000e-01 3.0000000e+00 2.5000000e+00 
7.5000000e-01 3.0000000e+00 3.0000000e+00 
7.5000000e-01 3.0000000e+00 3.5000000e+00 
7.5000000e-01 3.0000000e+00 4.0000000e+00 
7.5000000e-01 3.0000000e+00 4.5000000e+00 
7.5000000e-01 3.0000000e+00 5.0000000e+00 
7.5000000e-01 3.0000000e+00 5.5000000e+00 
7.5000000e-01 3.0000000e+00 6.0000000e+00 
7.5000000e-01 3.0000000e+00 6.5000000e+00 
7.5000000e-01 3.0000000e+00 7.0000000e+00 
7.5000000e-01 3.0000000e+00 7.5000000e+00 
7.5000000e-01 3.0000000e+00 8.0000000e+00 
7.5000000e-01 3.0000000e+00 8.5000000e+00 
7.5000000e-01 3.0000000e+00 9.0000000e+00 
7.5000000e-01 3.0000000e+00 9.5000000e+00 
7.5000000e-01 3.0000000e+00 1.0000000e+01 
7.5000000e-01 3.0000000e+00 1.0500000e+01 
7.5000000e-01 3.0000000e+00 1.1000000e+01 
7.5000000e-01 3.0000000e+00 1.1500000e+01 
7.5000000e-01 3.0000000e+00 1.2000000e+01 
7.5000000e-01 3.0000000e+00 1.2500000e+01 
7.5000000e-01 3.0000000e+00 1.3000000e+01 
7.5000000e-01 3.0000000e+00 1.3500000e+01 
7.5000000e-01 3.0000000e+00 1.4000000e+01 
7.5000000e-01 3.0000000e+00 1.4500000e+01 
7.5000000e-01 3.0000000e+00 1.5000000e+01 
7.5000000e-01 3.0000000e+00 1.5500000e+01 
7.5000000e-01 3.0000000e+00 1.6000000e+01 
7.5000000e-01 3.0000000e+00 1.6500000e+01 
7.5000000e-01 3.0000000e+00 1.7000000e+01 
7.5000000e-01 3.0000000e+00 1.7500000e+01 
7.5000000e-01 3.0000000e+00 1.8000000e+01 
7.5000000e-01 3.0000000e+00 1.8500000e+01 
7.5000000e-01 3.0000000e+00 1.9000000e+01 
7.5000000e-01 3.0000000e+00 1.9500000e+01 
7.5000000e-01 3.0000000e+00 2.0000000e+01 
7.5000000e-01 3.0000000e+00 2.0500000e+01 
7.5000000e-01 3.0000000e+00 2.1000000e+01 
7.5000000e-01 3.0000000e+00 2.1500000e+01 
7.5000000e-01 3.0000000e+00 2.2000000e+01 
7.5000000e-01 3.0000000e+00 2.2500000e+01 
7.5000000e-01 3.0000000e+00 2.3000000e+01 
7.5000000e-01 3.0000000e+00 2.3500000e+01 
7.5000000e-01 3.0000000e+00 2.4000000e+01 
7.5000000e-01 3.0000000e+00 2.4500000e+01 
7.5000000e-01 3.0000000e+00 2.5000000e+01 
7.5000000e-01 3.0000000e+00 2.5500000e+01 
7.5000000e-01 3.0000000e+00 2.6000000e+01 
7.5000000e-01 3.0000000e+00 2.6500000e+01 
7.5000000e-01 3.0000000e+00 2.7000000e+01 
7.5000000e-01 3.0000000e+00 2.7500000e+01 
7.5000000e-01 3.0000000e+00 2.8000000e+01 
7.5000000e-01 3.0000000e+00 2.8500000e+01 
7.5000000e-01 3.0000000e+00 2.9000000e+01 
7.5000000e-01 3.0000000e+00 2.9500000e+01 
7.5000000e-01 3.0000000e+00 3.0000000e+01 
7.5000000e-01 3.0000000e+00 3.0500000e+01 
7.5000000e-01 3.0000000e+00 3.1000000e+01 
7.5000000e-01 3.0000000e+00 3.1500000e+01 
7.5000000e-01 3.0000000e+00 3.2000000e+01 
7.5000000e-01 3.0000000e+00 3.2500000e+01 
7.5000000e-01 3.0000000e+00 3.3000000e+01 
7.5000000e-01 3.0000000e+00 3.3500000e+01 
7.5000000e-01 3.0000000e+00 3.4000000e+01 
7.5000000e-01 3.0000000e+00 3.4500000e+01 
7.5000000e-01 3.0000000e+00 3.5000000e+01 
7.5000000e-01 3.0000000e+00 3.5500000e+01 
7.5000000e-01 3.0000000e+00 3.6000000e+01 
7.5000000e-01 3.0000000e+00 3.6500000e+01 
7.5000000e-01 3.0000000e+00 3.7000000e+01 
7.5000000e-01 3.0000000e+00 3.7500000e+01 
7.5000000e-01 3.0000000e+00 3.8000000e+01 
7.5000000e-01 3.0000000e+00 3.8500000e+01 
7.5000000e-01 3.0000000e+00 3.9000000e+01 
7.5000000e-01 3.0000000e+00 3.9500000e+01 
7.5000000e-01 3.0000000e+00 4.0000000e+01 
7.5000000e-01 3.0000000e+00 4.0500000e+01 
7.5000000e-01 3.0000000e+00 4.1000000e+01 
7.5000000e-01 3.0000000e+00 4.1500000e+01 
7.5000000e-01 3.0000000e+00 4.2000000e+01 
7.5000000e-01 3.0000000e+00 4.2500000e+01 
7.5000000e-01 3.0000000e+00 4.3000000e+01 
7.5000000e-01 3.0000000e+00 4.3500000e+01 
7.5000000e-01 3.0000000e+00 4.4000000e+01 
7.5000000e-01 3.0000000e+00 4.4500000e+01 
7.5000000e-01 3.0000000e+00 4.5000000e+01 
7.5000000e-01 3.0000000e+00 4.5500000e+01 
7.5000000e-01 3.0000000e+00 4.6000000e+01 
7.5000000e-01 3.0000000e+00 4.6500000e+01 
7.5000000e-01 3.0000000e+00 4.7000000e+01 
7.5000000e-01 3.0000000e+00 4.7500000e+01 
7.5000000e-01 3.0000000e+00 4.8000000e+01 
7.5000000e-01 3.0000000e+00 4.8500000e+01 
7.5000000e-01 3.0000000e+00 4.9000000e+01 
7.5000000e-01 3.0000000e+00 4.9500000e+01 
7.5000000e-01 3.0250001e+00 0.0000000e+00 
7.5000000e-01 3.0250001e+00 5.0000000e-01 
7.5000000e-01 3.0250001e+00 1.0000000e+00 
7.5000000e-01 3.0250001e+00 1.5000000e+00 
7.5000000e-01 3.0250001e+00 2.0000000e+00 
7.5000000e-01 3.0250001e+00 2.5000000e+00 
7.5000000e-01 3.0250001e+00 3.0000000e+00 
7.5000000e-01 3.0250001e+00 3.5000000e+00 
7.5000000e-01 3.0250001e+00 4.0000000e+00 
7.5000000e-01 3.0250001e+00 4.5000000e+00 
7.5000000e-01 3.0250001e+00 5.0000000e+00 
7.5000000e-01 3.0250001e+00 5.5000000e+00 
7.5000000e-01 3.0250001e+00 6.0000000e+00 
7.5000000e-01 3.0250001e+00 6.5000000e+00 
7.5000000e-01 3.0250001e+00 7.0000000e+00 
7.5000000e-01 3.0250001e+00 7.5000000e+00 
7.5000000e-01 3.0250001e+00 8.0000000e+00 
7.5000000e-01 3.0250001e+00 8.5000000e+00 
7.5000000e-01 3.0250001e+00 9.0000000e+00 
7.5000000e-01 3.0250001e+00 9.5000000e+00 
7.5000000e-01 3.0250001e+00 1.0000000e+01 
7.5000000e-01 3.0250001e+00 1.0500000e+01 
7.5000000e-01 3.0250001e+00 1.1000000e+01 
7.5000000e-01 3.0250001e+00 1.1500000e+01 
7.5000000e-01 3.0250001e+00 1.2000000e+01 
7.5000000e-01 3.0250001e+00 1.2500000e+01 
7.5000000e-01 3.0250001e+00 1.3000000e+01 
7.5000000e-01 3.0250001e+00 1.3500000e+01 
7.5000000e-01 3.0250001e+00 1.4000000e+01 
7.5000000e-01 3.0250001e+00 1.4500000e+01 
7.5000000e-01 3.0250001e+00 1.5000000e+01 
7.5000000e-01 3.0250001e+00 1.5500000e+01 
7.5000000e-01 3.0250001e+00 1.6000000e+01 
7.5000000e-01 3.0250001e+00 1.6500000e+01 
7.5000000e-01 3.0250001e+00 1.7000000e+01 
7.5000000e-01 3.0250001e+00 1.7500000e+01 
7.5000000e-01 3.0250001e+00 1.8000000e+01 
7.5000000e-01 3.0250001e+00 1.8500000e+01 
7.5000000e-01 3.0250001e+00 1.9000000e+01 
7.5000000e-01 3.0250001e+00 1.9500000e+01 
7.5000000e-01 3.0250001e+00 2.0000000e+01 
7.5000000e-01 3.0250001e+00 2.0500000e+01 
7.5000000e-01 3.0250001e+00 2.1000000e+01 
7.5000000e-01 3.0250001e+00 2.1500000e+01 
7.5000000e-01 3.0250001e+00 2.2000000e+01 
7.5000000e-01 3.0250001e+00 2.2500000e+01 
7.5000000e-01 3.0250001e+00 2.3000000e+01 
7.5000000e-01 3.0250001e+00 2.3500000e+01 
7.5000000e-01 3.0250001e+00 2.4000000e+01 
7.5000000e-01 3.0250001e+00 2.4500000e+01 
7.5000000e-01 3.0250001e+00 2.5000000e+01 
7.5000000e-01 3.0250001e+00 2.5500000e+01 
7.5000000e-01 3.0250001e+00 2.6000000e+01 
7.5000000e-01 3.0250001e+00 2.6500000e+01 
7.5000000e-01 3.0250001e+00 2.7000000e+01 
7.5000000e-01 3.0250001e+00 2.7500000e+01 
7.5000000e-01 3.0250001e+00 2.8000000e+01 
7.5000000e-01 3.0250001e+00 2.8500000e+01 
7.5000000e-01 3.0250001e+00 2.9000000e+01 
7.5000000e-01 3.0250001e+00 2.9500000e+01 
7.5000000e-01 3.0250001e+00 3.0000000e+01 
7.5000000e-01 3.0250001e+00 3.0500000e+01 
7.5000000e-01 3.0250001e+00 3.1000000e+01 
7.5000000e-01 3.0250001e+00 3.1500000e+01 
7.5000000e-01 3.0250001e+00 3.2000000e+01 
7.5000000e-01 3.0250001e+00 3.2500000e+01 
7.5000000e-01 3.0250001e+00 3.3000000e+01 
7.5000000e-01 3.0250001e+00 3.3500000e+01 
7.5000000e-01 3.0250001e+00 3.4000000e+01 
7.5000000e-01 3.0250001e+00 3.4500000e+01 
7.5000000e-01 3.0250001e+00 3.5000000e+01 
7.5000000e-01 3.0250001e+00 3.5500000e+01 
7.5000000e-01 3.0250001e+00 3.6000000e+01 
7.5000000e-01 3.0250001e+00 3.6500000e+01 
7.5000000e-01 3.0250001e+00 3.7000000e+01 
7.5000000e-01 3.0250001e+00 3.7500000e+01 
7.5000000e-01 3.0250001e+00 3.8000000e+01 
7.5000000e-01 3.0250001e+00 3.8500000e+01 
7.5000000e-01 3.0250001e+00 3.9000000e+01 
7.5000000e-01 3.0250001e+00 3.9500000e+01 
7.5000000e-01 3.0250001e+00 4.0000000e+01 
7.5000000e-01 3.0250001e+00 4.0500000e+01 
7.5000000e-01 3.0250001e+00 4.1000000e+01 
7.5000000e-01 3.0250001e+00 4.1500000e+01 
7.5000000e-01 3.0250001e+00 4.2000000e+01 
7.5000000e-01 3.0250001e+00 4.2500000e+01 
7.5000000e-01 3.0250001e+00 4.3000000e+01 
7.5000000e-01 3.0250001e+00 4.3500000e+01 
7.5000000e-01 3.0250001e+00 4.4000000e+01 
7.5000000e-01 3.0250001e+00 4.4500000e+01 
7.5000000e-01 3.0250001e+00 4.5000000e+01 
7.5000000e-01 3.0250001e+00 4.5500000e+01 
7.5000000e-01 3.0250001e+00 4.6000000e+01 
7.5000000e-01 3.0250001e+00 4.6500000e+01 
7.5000000e-01 3.0250001e+00 4.7000000e+01 
7.5000000e-01 3.0250001e+00 4.7500000e+01 
7.5000000e-01 3.0250001e+00 4.8000000e+01 
7.5000000e-01 3.0250001e+00 4.8500000e+01 
7.5000000e-01 3.0250001e+00 4.9000000e+01 
7.5000000e-01 3.0250001e+00 4.9500000e+01 
7.5000000e-01 3.0250001e+00 5.0000000e+01 
1.5000000e+00 3.0000000e+00 2.5000000e+01 
3.0000000e+00 2.0000000e+00 2.5000000e+01 
4.0000000e+00 2.0000000e+00 2.5000000e+01 
5.0000000e+00 2.0000000e+00 2.5000000e+01 
0.0000000e+00 3.0000000e+00 2.5000000e+01 
0.0000000e+00 0.0000000e+00 1.0000000e+00 
0.0000000e+00 0.0000000e+00 2.0000000e+00 
0.0000000e+00 0.0000000e+00 3.0000000e+00 
0.0000000e+00 0.0000000e+00 4.0000000e+00 
0.0000000e+00 0.0000000e+00 5.0000000e+00 
[...]
POINT_DATA 1919
FIELD FieldData 3
DISPLACEMENT 3 1919  float
0.0000000e+00 0.0000000e+00 0.0000000e+00 
0.0000000e+00 0.0000000e+00 0.0000000e+00 
0.0000000e+00 0.0000000e+00 0.0000000e+00 
0.0000000e+00 0.0000000e+00 0.0000000e+00 
2.3591658e-08 -7.3922488e-06 -1.3374389e-06 
-3.7443089e-09 -7.7319690e-10 1.3452327e-09 
0.0000000e+00 3.4630997e-05 0.0000000e+00 
0.0000000e+00 -8.0423392e-09 0.0000000e+00 
1.6997261e-06 -5.6647441e-06 2.5195902e-06 
-6.5594672e-09 1.6122963e-10 -7.4658679e-09 
1.7060223e-05 2.4372677e-05 -2.6310101e-05 
2.9484812e-09 1.6782149e-09 -7.8992599e-09 
0.0000000e+00 3.3076587e-05 0.0000000e+00 
0.0000000e+00 -6.7595074e-08 0.0000000e+00 
8.4212779e-06 4.8894195e-05 -3.9672552e-05 
2.1822288e-08 5.5611684e-09 2.1482405e-09 
1.1346159e-06 1.2740122e-04 -1.2982953e-05 
-8.5505286e-10 -8.3020478e-07 -3.8629974e-08 
0.0000000e+00 5.7127108e-05 0.0000000e+00 
0.0000000e+00 -1.2162491e-07 0.0000000e+00 
1.2127851e-05 1.0273090e-04 -1.1761125e-06 
1.2249066e-05 4.6686924e-05 2.9287905e-05 
1.3860414e-05 -3.3029976e-06 6.8306421e-05 
-2.8305897e-06 -2.9203642e-05 1.0093587e-04 
-3.8547001e-05 -5.7725680e-05 1.4745642e-04 
-3.6761125e-05 -1.5334258e-04 1.6417698e-04 
-6.9794536e-05 -3.7787438e-04 2.2644250e-04 
-7.7741774e-05 -7.5718819e-04 2.6295794e-04 
-1.2979339e-04 -1.2846598e-03 3.1919198e-04 
-2.0115620e-04 -1.9648816e-03 2.7714693e-04 
-2.8812070e-04 -2.8290532e-03 3.3985960e-04 
-3.0529438e-04 -3.8620979e-03 1.0686972e-04 
-3.9709618e-04 -4.9317623e-03 1.1922987e-04 
-4.7634335e-04 -5.5994410e-03 -1.1638868e-04 
-4.6276365e-04 -5.4457635e-03 -2.6932487e-04 
-3.9882702e-04 -4.9654441e-03 -2.5744480e-04 
-3.2381664e-04 -4.6757800e-03 -2.6034060e-04 
-2.5985041e-04 -4.5702723e-03 -2.5737664e-04 
-2.4703090e-04 -4.2774840e-03 -2.8335841e-04 
-1.9441359e-04 -3.2515421e-03 -2.5834949e-04 
-9.7402968e-05 -1.9872840e-03 -3.2343564e-04 
-4.7433139e-05 -9.1688638e-04 -1.6632324e-04 
5.5578348e-06 -2.2191310e-04 -1.4435670e-04 
2.9818766e-05 1.3927699e-04 -3.0546335e-06 
2.8002460e-05 2.7109499e-04 2.8387640e-05 
1.3299365e-05 2.8140156e-04 3.1854823e-05 
8.9556306e-06 2.3592147e-04 4.6197980e-05 
6.8573686e-06 1.5810689e-04 1.6367985e-05 
1.0972323e-06 6.5373657e-05 3.2430673e-06 
8.6596316e-07 -1.5558140e-05 2.2938173e-07 
-8.0388727e-06 -6.0502352e-05 -1.4801284e-05 
-4.6719715e-06 -6.0963426e-05 -1.7382362e-06 
-4.3243522e-06 -2.9275416e-05 4.4190056e-06 
-5.8118053e-06 7.1478235e-06 3.5702685e-06 
4.2063398e-06 2.7076172e-05 8.9650948e-06 
-3.5102840e-07 2.3943259e-05 1.3178379e-06 
-3.2710063e-06 7.9547926e-06 -1.8226101e-05 
1.8833623e-06 1.0311501e-06 -1.0903168e-05 
6.2795266e-06 1.7538290e-05 -1.7101056e-05 
2.3063487e-06 5.1782870e-05 -1.2178047e-05 
6.3585612e-06 8.3015460e-05 3.7211535e-06 
8.1105791e-06 8.3272607e-05 1.3929520e-05 
2.7593344e-06 4.2694992e-05 5.9569244e-05 
1.2683307e-05 -2.3213770e-05 1.2084744e-04 
-1.2288038e-05 -1.0607815e-04 1.5933393e-04 
-4.7598674e-05 -2.2522287e-04 1.7606006e-04 
-1.0252040e-04 -4.3344399e-04 2.4499386e-04 
-2.1987194e-04 -8.0919958e-04 3.0842816e-04 
-1.5616420e-04 -1.3863785e-03 2.9106400e-04 
-2.2625698e-04 -2.1670186e-03 2.6020370e-04 
-2.5713941e-04 -3.1270441e-03 3.2747583e-04 
-4.3203164e-04 -4.1859280e-03 7.8120698e-05 
-4.4578823e-04 -5.1523112e-03 8.0607366e-05 
-4.7274784e-04 -5.6123505e-03 -8.9155546e-05 
-4.4925447e-04 -5.3923866e-03 -2.9197359e-04 
-4.1914155e-04 -4.9811937e-03 -2.9789523e-04 
-3.5536266e-04 -4.7851698e-03 -2.9205077e-04 
-3.5193819e-04 -4.6580313e-03 -2.9942510e-04 
-2.9699164e-04 -4.1930806e-03 -3.6819748e-04 
-2.1803737e-04 -3.0590142e-03 -2.8708696e-04 
-1.1793349e-04 -1.8061928e-03 -3.7972420e-04 
-4.6878326e-05 -7.9395768e-04 -1.7089107e-04 
2.8838301e-06 -1.5502586e-04 -1.2954477e-04 
2.8065788e-05 1.7822036e-04 1.5852102e-05 
2.6913411e-05 3.0158684e-04 4.2288273e-05 
1.8767196e-05 2.9731524e-04 3.5199231e-05 
1.9326188e-05 2.2229961e-04 4.5936071e-05 
5.0205945e-06 1.1972574e-04 6.9222247e-06 
-1.8747736e-06 3.0891828e-05 7.0533624e-06 
-9.2049402e-07 -2.3249038e-05 -9.4366868e-08 
-3.8391795e-06 -4.0471416e-05 -1.4588672e-05 
-1.7026281e-06 -3.3180830e-05 -2.6399568e-06 
1.8914427e-07 -1.5843149e-05 -2.0949084e-07 
-1.2704095e-06 8.6961631e-07 -3.3889430e-07 
3.4260220e-06 1.1644926e-05 2.5222682e-06 
-2.0036421e-06 1.4252354e-05 -2.7597182e-06 
1.4952301e-06 7.2538360e-06 7.2892101e-07 
-1.5925649e-07 -5.5941923e-06 2.4812055e-06 
-4.4762692e-07 -1.4534841e-05 -3.0300528e-06 
5.2583335e-08 -1.2908868e-05 4.7849477e-07 
5.4300475e-08 -2.1506630e-06 6.5638409e-07 
-1.7101654e-07 8.7416311e-06 -1.1852729e-06 
3.6155902e-07 1.1248416e-05 1.0954626e-06 
1.5333571e-07 6.0185785e-06 -8.4259192e-08 
-1.5592185e-07 -1.2991454e-06 -5.4946923e-07 
-5.3599996e-09 -5.8793694e-06 4.5223672e-07 
-1.6121281e-07 -5.8749279e-06 -3.3591465e-07 
-2.8194000e-07 -2.6950916e-06 -2.6420145e-07 
1.3198252e-07 1.3716181e-06 3.1881845e-07 
1.8563522e-07 3.9868482e-06 -3.6168053e-08 
7.5771556e-10 3.3081135e-06 -1.0610285e-08 
-3.4033871e-08 2.3224425e-07 8.9853515e-08 
-5.2137963e-08 -2.2833253e-06 -1.0408415e-07 
-5.8292617e-08 -2.2809945e-06 -3.9442185e-08 
2.2190152e-08 -2.8610657e-07 4.7287919e-08 
-2.3568390e-08 1.4269018e-06 -3.4457624e-08 
-3.1109057e-08 1.4538921e-06 2.0981796e-08 
5.9402314e-09 3.8716462e-07 -6.1831129e-10 
-1.5574063e-08 -5.2990043e-07 1.6537710e-08 
0.0000000e+00 1.2632272e-04 0.0000000e+00 
0.0000000e+00 1.0191686e-04 0.0000000e+00 
0.0000000e+00 4.7535676e-05 0.0000000e+00 
0.0000000e+00 -1.1544810e-06 0.0000000e+00 
0.0000000e+00 -2.7172731e-05 0.0000000e+00 
0.0000000e+00 -5.7321369e-05 0.0000000e+00 
0.0000000e+00 -1.5475565e-04 0.0000000e+00 
0.0000000e+00 -3.7982297e-04 0.0000000e+00 
0.0000000e+00 -7.5719896e-04 0.0000000e+00 
0.0000000e+00 -1.2837042e-03 0.0000000e+00 
0.0000000e+00 -1.9670667e-03 0.0000000e+00 
0.0000000e+00 -2.8346868e-03 0.0000000e+00 
0.0000000e+00 -3.8779338e-03 0.0000000e+00 
0.0000000e+00 -4.9532051e-03 0.0000000e+00 
0.0000000e+00 -5.6298613e-03 0.0000000e+00 
0.0000000e+00 -5.4653841e-03 0.0000000e+00 
0.0000000e+00 -4.9920771e-03 0.0000000e+00 
0.0000000e+00 -4.6950821e-03 0.0000000e+00 
0.0000000e+00 -4.5995913e-03 0.0000000e+00 
0.0000000e+00 -4.3014148e-03 0.0000000e+00 
0.0000000e+00 -3.2745148e-03 0.0000000e+00 
0.0000000e+00 -2.0005594e-03 0.0000000e+00 
0.0000000e+00 -9.2739845e-04 0.0000000e+00 
0.0000000e+00 -2.2435648e-04 0.0000000e+00 
0.0000000e+00 1.3973500e-04 0.0000000e+00 
0.0000000e+00 2.7319594e-04 0.0000000e+00 
0.0000000e+00 2.8336843e-04 0.0000000e+00 
0.0000000e+00 2.3637732e-04 0.0000000e+00 
0.0000000e+00 1.5802056e-04 0.0000000e+00 
0.0000000e+00 6.5719425e-05 0.0000000e+00 
0.0000000e+00 -1.4935807e-05 0.0000000e+00 
0.0000000e+00 -5.9856779e-05 0.0000000e+00 
0.0000000e+00 -6.0452217e-05 0.0000000e+00 
0.0000000e+00 -2.9405131e-05 0.0000000e+00 
0.0000000e+00 6.7196179e-06 0.0000000e+00 
0.0000000e+00 2.6357704e-05 0.0000000e+00 
0.0000000e+00 2.3162862e-05 0.0000000e+00 
0.0000000e+00 8.0641848e-06 0.0000000e+00 
0.0000000e+00 2.0188013e-06 0.0000000e+00 
0.0000000e+00 1.8561375e-05 0.0000000e+00 
0.0000000e+00 5.2391839e-05 0.0000000e+00 
0.0000000e+00 8.2177015e-05 0.0000000e+00 
0.0000000e+00 8.1894970e-05 0.0000000e+00 
0.0000000e+00 4.2623622e-05 0.0000000e+00 
0.0000000e+00 -2.2248965e-05 0.0000000e+00 
0.0000000e+00 -1.0398577e-04 0.0000000e+00 
0.0000000e+00 -2.2287996e-04 0.0000000e+00 
0.0000000e+00 -4.3502179e-04 0.0000000e+00 
0.0000000e+00 -8.1110513e-04 0.0000000e+00 
0.0000000e+00 -1.3887474e-03 0.0000000e+00 
0.0000000e+00 -2.1708643e-03 0.0000000e+00 
0.0000000e+00 -3.1327989e-03 0.0000000e+00 
0.0000000e+00 -4.2007952e-03 0.0000000e+00 
0.0000000e+00 -5.1729414e-03 0.0000000e+00 
0.0000000e+00 -5.6449985e-03 0.0000000e+00 
0.0000000e+00 -5.4139802e-03 0.0000000e+00 
0.0000000e+00 -5.0092135e-03 0.0000000e+00 
0.0000000e+00 -4.8030703e-03 0.0000000e+00 
0.0000000e+00 -4.6855742e-03 0.0000000e+00 
0.0000000e+00 -4.2145494e-03 0.0000000e+00 
0.0000000e+00 -3.0843150e-03 0.0000000e+00 
0.0000000e+00 -1.8176206e-03 0.0000000e+00 
0.0000000e+00 -8.0257026e-04 0.0000000e+00 
0.0000000e+00 -1.5578506e-04 0.0000000e+00 
0.0000000e+00 1.7907799e-04 0.0000000e+00 
0.0000000e+00 3.0264570e-04 0.0000000e+00 
0.0000000e+00 2.9807529e-04 0.0000000e+00 
0.0000000e+00 2.2275069e-04 0.0000000e+00 
0.0000000e+00 1.2103307e-04 0.0000000e+00 
0.0000000e+00 3.1830226e-05 0.0000000e+00 
0.0000000e+00 -2.2789391e-05 0.0000000e+00 
0.0000000e+00 -4.0564490e-05 0.0000000e+00 
0.0000000e+00 -3.3342843e-05 0.0000000e+00 
0.0000000e+00 -1.6005337e-05 0.0000000e+00 
0.0000000e+00 6.9503636e-07 0.0000000e+00 
0.0000000e+00 1.1517410e-05 0.0000000e+00 
0.0000000e+00 1.3977359e-05 0.0000000e+00 
0.0000000e+00 7.0785704e-06 0.0000000e+00 
0.0000000e+00 -5.2663827e-06 0.0000000e+00 
0.0000000e+00 -1.4124001e-05 0.0000000e+00 
0.0000000e+00 -1.2703618e-05 0.0000000e+00 
0.0000000e+00 -2.3140283e-06 0.0000000e+00 
0.0000000e+00 8.2832876e-06 0.0000000e+00 
0.0000000e+00 1.1093220e-05 0.0000000e+00 
0.0000000e+00 6.1528403e-06 0.0000000e+00 
0.0000000e+00 -1.1415884e-06 0.0000000e+00 
0.0000000e+00 -5.7481834e-06 0.0000000e+00 
0.0000000e+00 -5.8513670e-06 0.0000000e+00 
0.0000000e+00 -2.7178564e-06 0.0000000e+00 
0.0000000e+00 1.3123811e-06 0.0000000e+00 
0.0000000e+00 3.8400312e-06 0.0000000e+00 
0.0000000e+00 3.2469065e-06 0.0000000e+00 
0.0000000e+00 3.4825527e-07 0.0000000e+00 
0.0000000e+00 -2.1527039e-06 0.0000000e+00 
0.0000000e+00 -2.2561135e-06 0.0000000e+00 
0.0000000e+00 -3.7666501e-07 0.0000000e+00 
0.0000000e+00 1.3414469e-06 0.0000000e+00 
0.0000000e+00 1.4694410e-06 0.0000000e+00 
0.0000000e+00 4.5638441e-07 0.0000000e+00 
0.0000000e+00 -5.1716256e-07 0.0000000e+00 
0.0000000e+00 -8.6181382e-07 0.0000000e+00 
-5.1933440e-04 -1.2050538e-03 3.9487454e-04 
-2.1175394e-05 -3.4863391e-04 3.6402257e-06 
3.2584900e-05 -1.2600867e-04 -3.3337172e-05 
5.2354986e-05 6.6325156e-05 -2.9428697e-05 
0.0000000e+00 -1.7621459e-03 0.0000000e+00 
0.0000000e+00 0.0000000e+00 0.0000000e+00 
0.0000000e+00 0.0000000e+00 0.0000000e+00 
0.0000000e+00 0.0000000e+00 0.0000000e+00 
0.0000000e+00 0.0000000e+00 0.0000000e+00 
0.0000000e+00 0.0000000e+00 0.0000000e+00 
0.0000000e+00 0.0000000e+00 0.0000000e+00 
0.0000000e+00 0.0000000e+00 0.0000000e+00 
0.0000000e+00 0.0000000e+00 0.0000000e+00 
0.0000000e+00 0.0000000e+00 0.0000000e+00 
0.0000000e+00 0.0000000e+00 0.0000000e+00 
0.0000000e+00 0.0000000e+00 0.0000000e+00 
0.0000000e+00 0.0000000e+00 0.0000000e+00 
0.0000000e+00 0.0000000e+00 0.0000000e+00 
0.0000000e+00 0.0000000e+00 0.0000000e+00 
0.0000000e+00 0.0000000e+00 0.0000000e+00 
0.0000000e+00 0.0000000e+00 0.0000000e+00 
0.0000000e+00 0.0000000e+00 0.0000000e+00 
0.0000000e+00 0.0000000e+00 0.0000000e+00 
0.0000000e+00 0.0000000e+00 0.0000000e+00 
0.0000000e+00 0.0000000e+00 0.0000000e+00 
0.0000000e+00 0.0000000e+00 0.0000000e+00 
0.0000000e+00 0.0000000e+00 0.0000000e+00 
0.0000000e+00 0.0000000e+00 0.0000000e+00 
0.0000000e+00 0.0000000e+00 0.0000000e+00 
0.0000000e+00 0.0000000e+00 0.0000000e+00 
0.0000000e+00 0.0000000e+00 0.0000000e+00 
0.0000000e+00 0.0000000e+00 0.0000000e+00 
0.0000000e+00 0.0000000e+00 0.0000000e+00 
0.0000000e+00 0.0000000e+00 0.0000000e+00 
0.0000000e+00 0.0000000e+00 0.0000000e+00 
0.0000000e+00 0.0000000e+00 0.0000000e+00 
0.0000000e+00 0.0000000e+00 0.0000000e+00 
0.0000000e+00 0.0000000e+00 0.0000000e+00 
0.0000000e+00 0.0000000e+00 0.0000000e+00 
0.0000000e+00 0.0000000e+00 0.0000000e+00 
0.0000000e+00 0.0000000e+00 0.0000000e+00 
0.0000000e+00 0.0000000e+00 0.0000000e+00 
0.0000000e+00 0.0000000e+00 0.0000000e+00 
0.0000000e+00 0.0000000e+00 0.0000000e+00 
0.0000000e+00 0.0000000e+00 0.0000000e+00 
0.0000000e+00 0.0000000e+00 0.0000000e+00 
0.0000000e+00 0.0000000e+00 0.0000000e+00 
0.0000000e+00 0.0000000e+00 0.0000000e+00 
0.0000000e+00 0.0000000e+00 0.0000000e+00 
0.0000000e+00 0.0000000e+00 0.0000000e+00 
0.0000000e+00 0.0000000e+00 0.0000000e+00 
0.0000000e+00 0.0000000e+00 0.0000000e+00 
0.0000000e+00 0.0000000e+00 0.0000000e+00 
0.0000000e+00 0.0000000e+00 0.0000000e+00 
0.0000000e+00 0.0000000e+00 0.0000000e+00 
0.0000000e+00 0.0000000e+00 0.0000000e+00 
0.0000000e+00 0.0000000e+00 0.0000000e+00 
0.0000000e+00 0.0000000e+00 0.0000000e+00 
0.0000000e+00 0.0000000e+00 0.0000000e+00 
0.0000000e+00 0.0000000e+00 0.0000000e+00 
0.0000000e+00 0.0000000e+00 0.0000000e+00 
0.0000000e+00 0.0000000e+00 0.0000000e+00 
0.0000000e+00 0.0000000e+00 0.0000000e+00 
0.0000000e+00 0.0000000e+00 0.0000000e+00 
0.0000000e+00 0.0000000e+00 0.0000000e+00 
0.0000000e+00 0.0000000e+00 0.0000000e+00 
0.0000000e+00 0.0000000e+00 0.0000000e+00 
0.0000000e+00 0.0000000e+00 0.0000000e+00 
0.0000000e+00 0.0000000e+00 0.0000000e+00 
0.0000000e+00 0.0000000e+00 0.0000000e+00 
0.0000000e+00 0.0000000e+00 0.0000000e+00 
0.0000000e+00 0.0000000e+00 0.0000000e+00 
0.0000000e+00 0.0000000e+00 0.0000000e+00 
0.0000000e+00 0.0000000e+00 0.0000000e+00 
0.0000000e+00 0.0000000e+00 0.0000000e+00 
0.0000000e+00 0.0000000e+00 0.0000000e+00 
0.0000000e+00 0.0000000e+00 0.0000000e+00 
0.0000000e+00 0.0000000e+00 0.0000000e+00 
0.0000000e+00 0.0000000e+00 0.0000000e+00 
0.0000000e+00 0.0000000e+00 0.0000000e+00 
0.0000000e+00 0.0000000e+00 0.0000000e+00 
0.0000000e+00 0.0000000e+00 0.0000000e+00 
0.0000000e+00 0.0000000e+00 0.0000000e+00 
0.0000000e+00 0.0000000e+00 0.0000000e+00 
0.0000000e+00 0.0000000e+00 0.0000000e+00 
0.0000000e+00 0.0000000e+00 0.0000000e+00 
0.0000000e+00 0.0000000e+00 0.0000000e+00 
0.0000000e+00 0.0000000e+00 0.0000000e+00 
0.0000000e+00 0.0000000e+00 0.0000000e+00 
0.0000000e+00 0.0000000e+00 0.0000000e+00 
0.0000000e+00 0.0000000e+00 0.0000000e+00 
0.0000000e+00 0.0000000e+00 0.0000000e+00 
0.0000000e+00 0.0000000e+00 0.0000000e+00 
0.0000000e+00 0.0000000e+00 0.0000000e+00 
0.0000000e+00 0.0000000e+00 0.0000000e+00 
0.0000000e+00 0.0000000e+00 0.0000000e+00 
0.0000000e+00 0.0000000e+00 0.0000000e+00 
0.0000000e+00 0.0000000e+00 0.0000000e+00 
0.0000000e+00 0.0000000e+00 0.0000000e+00 
0.0000000e+00 0.0000000e+00 0.0000000e+00 
0.0000000e+00 0.0000000e+00 0.0000000e+00 
0.0000000e+00 0.0000000e+00 0.0000000e+00 
0.0000000e+00 0.0000000e+00 0.0000000e+00 
0.0000000e+00 0.0000000e+00 0.0000000e+00 
0.0000000e+00 0.0000000e+00 0.0000000e+00 
0.0000000e+00 0.0000000e+00 0.0000000e+00 
0.0000000e+00 0.0000000e+00 0.0000000e+00 
0.0000000e+00 0.0000000e+00 0.0000000e+00 
0.0000000e+00 0.0000000e+00 0.0000000e+00 
0.0000000e+00 0.0000000e+00 0.0000000e+00 
0.0000000e+00 0.0000000e+00 0.0000000e+00 
6.1362575e-06 -5.2836131e-06 -4.8899442e-06 
2.5667454e-05 3.5949304e-06 -1.9122503e-05 
6.2047278e-05 -6.0792672e-06 -3.2535394e-05 
9.2021401e-05 1.4584725e-06 -3.5057579e-05 
1.2975599e-04 2.4593284e-05 -3.1742260e-05 
1.4954970e-04 2.7994151e-05 -1.5426853e-05 
1.6772891e-04 2.8636325e-05 9.2858008e-06 
1.4590401e-04 2.6442993e-05 3.1624495e-05 
1.1075633e-04 6.4015321e-06 3.8353603e-05 
5.5829914e-05 1.1003241e-05 3.2354234e-05 
3.1524916e-05 -3.5813016e-06 2.0604788e-05 
1.0067061e-05 -1.1090196e-05 6.3943826e-06 
4.8906907e-07 -7.1238478e-06 -8.9693145e-07 
-3.7915214e-07 1.2274796e-05 8.0086170e-07 
-9.1270363e-07 -7.2399627e-07 8.3362852e-07 
7.9090114e-07 -2.7932908e-06 1.0278901e-06 
-5.7132752e-07 -3.7663326e-06 -1.9590077e-06 
-1.4816441e-06 8.1579237e-06 1.3221452e-07 
-2.5178399e-06 6.0138677e-07 3.3246463e-06 
2.5122918e-06 -1.1088268e-05 -3.1211769e-06 
1.2434893e-05 -4.5018255e-06 -9.3359358e-06 
3.7750036e-05 1.5956215e-05 -2.1112679e-05 
7.6487529e-05 7.6753249e-06 -3.2704989e-05 
1.2043466e-04 1.2603371e-05 -3.8676728e-05 
1.5360511e-04 4.2500225e-05 -2.7171496e-05 
1.7727040e-04 5.3043859e-05 -1.5691109e-07 
1.5996516e-04 2.8035925e-05 1.8117991e-05 
1.2608040e-04 2.6874990e-05 3.4439981e-05 
9.4957541e-05 -1.0345694e-05 4.0102928e-05 
4.7407470e-05 -5.0356030e-06 3.5693189e-05 
1.9861340e-05 -5.9678950e-06 1.4476871e-05 
3.5705712e-06 -2.2538721e-05 2.2809893e-06 
-3.0720671e-06 1.1197683e-06 -3.2744188e-06 
-2.7815688e-06 7.7420846e-06 -2.4311857e-06 
7.4479239e-08 -4.1099926e-07 -1.2872464e-07 
7.8196126e-07 -3.5578962e-06 5.2173391e-07 
-3.2092359e-07 1.8901458e-06 -3.6278911e-07 
-4.0670422e-08 6.0235038e-07 3.4537368e-07 
-1.5129146e-07 -4.1995989e-07 -5.6339648e-08 
2.3225899e-08 5.7143698e-08 -8.2141710e-08 
-6.3975238e-09 8.6387033e-08 5.1411302e-08 
1.0582026e-08 -6.3546786e-08 2.1668149e-09 
7.8044051e-09 -2.8223210e-08 -1.1137904e-08 
7.6397004e-09 3.2581159e-08 1.0316257e-08 
8.1378406e-09 4.8328813e-11 4.6068669e-09 
8.3510754e-09 8.1878990e-11 -3.1501706e-09 
8.7503755e-09 -1.5852025e-08 -5.7519749e-09 
6.0444418e-09 -1.8523297e-08 -7.0593378e-11 
-3.4378074e-09 -1.3621070e-08 2.5310449e-09 
0.0000000e+00 -5.6392946e-05 0.0000000e+00 
0.0000000e+00 -9.0207679e-05 0.0000000e+00 
0.0000000e+00 -1.5279098e-04 0.0000000e+00 
0.0000000e+00 -2.7176106e-04 0.0000000e+00 
0.0000000e+00 -3.8172342e-04 0.0000000e+00 
0.0000000e+00 -5.6299212e-04 0.0000000e+00 
0.0000000e+00 -7.4183405e-04 0.0000000e+00 
0.0000000e+00 -7.3865388e-04 0.0000000e+00 
0.0000000e+00 -6.6531281e-04 0.0000000e+00 
0.0000000e+00 -4.6443389e-04 0.0000000e+00 
0.0000000e+00 -2.2611287e-04 0.0000000e+00 
0.0000000e+00 -2.1977326e-05 0.0000000e+00 
0.0000000e+00 6.7324072e-05 0.0000000e+00 
0.0000000e+00 3.1253796e-05 0.0000000e+00 
0.0000000e+00 -3.5009364e-06 0.0000000e+00 
0.0000000e+00 -1.4229835e-05 0.0000000e+00 
0.0000000e+00 -4.4987273e-06 0.0000000e+00 
0.0000000e+00 2.1322733e-06 0.0000000e+00 
0.0000000e+00 2.6060006e-05 0.0000000e+00 
0.0000000e+00 -2.5349996e-06 0.0000000e+00 
0.0000000e+00 -4.7397320e-05 0.0000000e+00 
0.0000000e+00 -8.9573157e-05 0.0000000e+00 
0.0000000e+00 -1.3599715e-04 0.0000000e+00 
0.0000000e+00 -2.8039506e-04 0.0000000e+00 
0.0000000e+00 -3.6613512e-04 0.0000000e+00 
0.0000000e+00 -5.6429865e-04 0.0000000e+00 
0.0000000e+00 -7.4269273e-04 0.0000000e+00 
0.0000000e+00 -7.5955939e-04 0.0000000e+00 
0.0000000e+00 -6.4410898e-04 0.0000000e+00 
0.0000000e+00 -4.0513068e-04 0.0000000e+00 
0.0000000e+00 -1.9798972e-04 0.0000000e+00 
0.0000000e+00 2.1690072e-05 0.0000000e+00 
0.0000000e+00 6.1765415e-05 0.0000000e+00 
0.0000000e+00 3.5789264e-05 0.0000000e+00 
0.0000000e+00 -1.0876637e-06 0.0000000e+00 
0.0000000e+00 -1.3416714e-05 0.0000000e+00 
0.0000000e+00 -7.2736152e-06 0.0000000e+00 
0.0000000e+00 7.3988394e-06 0.0000000e+00 
0.0000000e+00 4.4284925e-06 0.0000000e+00 
0.0000000e+00 -3.0391561e-06 0.0000000e+00 
0.0000000e+00 -2.4099909e-06 0.0000000e+00 
0.0000000e+00 1.0136137e-06 0.0000000e+00 
0.0000000e+00 1.2417131e-06 0.0000000e+00 
0.0000000e+00 -9.3577552e-07 0.0000000e+00 
0.0000000e+00 -1.7785929e-07 0.0000000e+00 
0.0000000e+00 4.0908063e-07 0.0000000e+00 
0.0000000e+00 -2.5092464e-07 0.0000000e+00 
0.0000000e+00 8.0664165e-08 0.0000000e+00 
0.0000000e+00 -5.5714606e-09 0.0000000e+00 
4.4806034e-06 4.1281204e-08 -5.6427107e-06 
9.4648785e-06 9.9125227e-06 -2.2657561e-05 
9.0666754e-06 2.0862015e-05 -2.7802846e-05 
-4.9894620e-06 2.0894291e-05 -1.5523943e-05 
-5.2311657e-09 -8.0035640e-09 2.9715735e-10 
-3.4934831e-09 5.0132348e-10 -3.6877021e-09 
3.8328576e-09 -7.5609297e-09 2.6741684e-09 
-5.9520305e-10 4.9013846e-09 -3.1366210e-10 
1.4270823e-05 2.1485419e-06 -2.0945985e-05 
-4.5358570e-09 -7.7031341e-09 -8.5873637e-09 
-1.4354509e-07 4.3805747e-05 3.4212886e-07 
-1.5157697e-08 4.0577732e-05 -3.0353236e-05 
0.0000000e+00 -2.7075470e-05 0.0000000e+00 
0.0000000e+00 -1.0108697e-04 0.0000000e+00 
0.0000000e+00 -2.7293290e-04 0.0000000e+00 
0.0000000e+00 -5.0039263e-04 0.0000000e+00 
0.0000000e+00 -7.6061033e-04 0.0000000e+00 
0.0000000e+00 -1.2921199e-03 0.0000000e+00 
0.0000000e+00 -1.5500217e-03 0.0000000e+00 
0.0000000e+00 -1.4908937e-03 0.0000000e+00 
0.0000000e+00 -1.2977907e-03 0.0000000e+00 
0.0000000e+00 -8.8937598e-04 0.0000000e+00 
0.0000000e+00 -3.5243022e-04 0.0000000e+00 
0.0000000e+00 2.8468072e-05 0.0000000e+00 
0.0000000e+00 1.1319522e-04 0.0000000e+00 