# vtk DataFile Version 4.0
vtk output
ASCII
DATASET UNSTRUCTURED_GRID
POINTS 48 float
-1.0000000e+00 -1.0000000e+00 0.0000000e+00 
1.0000000e+00 -1.0000000e+00 0.0000000e+00 
1.0000000e+00 1.0000000e+00 0.0000000e+00 
-1.0000000e+00 1.0000000e+00 0.0000000e+00 
-1.0000000e+00 -1.0000000e+00 1.0000000e+01 
1.0000000e+00 -1.0000000e+00 1.0000000e+01 
1.0000000e+00 1.0000000e+00 1.0000000e+01 
-1.0000000e+00 1.0000000e+00 1.0000000e+01 
-1.0000000e+00 -1.0000000e+00 2.0000000e+00 
-1.0000000e+00 -1.0000000e+00 4.0000000e+00 
-1.0000000e+00 -1.0000000e+00 6.0000000e+00 
-1.0000000e+00 -1.0000000e+00 8.0000000e+00 
1.0000000e+00 -1.0000000e+00 2.0000000e+00 
1.0000000e+00 -1.0000000e+00 4.0000000e+00 
1.0000000e+00 -1.0000000e+00 6.0000000e+00 
1.0000000e+00 -1.0000000e+00 8.0000000e+00 
1.0000000e+00 1.0000000e+00 2.0000000e+00 
1.0000000e+00 1.0000000e+00 4.0000000e+00 
1.0000000e+00 1.0000000e+00 6.0000000e+00 
1.0000000e+00 1.0000000e+00 8.0000000e+00 
-1.0000000e+00 1.0000000e+00 2.0000000e+00 
-1.0000000e+00 1.0000000e+00 4.0000000e+00 
-1.0000000e+00 1.0000000e+00 6.0000000e+00 
-1.0000000e+00 1.0000000e+00 8.0000000e+00 
0.0000000e+00 0.0000000e+00 0.0000000e+00 
0.0000000e+00 -1.0000000e+00 1.0000000e+00 
0.0000000e+00 -1.0000000e+00 9.0000000e+00 
0.0000000e+00 -1.0000000e+00 5.0000000e+00 
0.0000000e+00 -1.0000000e+00 7.0000000e+00 
0.0000000e+00 -1.0000000e+00 3.0000000e+00 
1.0000000e+00 0.0000000e+00 1.0000000e+00 
1.0000000e+00 0.0000000e+00 9.0000000e+00 
1.0000000e+00 0.0000000e+00 3.0000000e+00 
1.0000000e+00 0.0000000e+00 5.0000000e+00 
1.0000000e+00 0.0000000e+00 7.0000000e+00 
0.0000000e+00 1.0000000e+00 1.0000000e+00 
0.0000000e+00 1.0000000e+00 9.0000000e+00 
0.0000000e+00 1.0000000e+00 3.0000000e+00 
0.0000000e+00 1.0000000e+00 5.0000000e+00 
0.0000000e+00 1.0000000e+00 7.0000000e+00 
-1.0000000e+00 0.0000000e+00 1.0000000e+00 
-1.0000000e+00 0.0000000e+00 9.0000000e+00 
-1.0000000e+00 0.0000000e+00 3.0000000e+00 
-1.0000000e+00 0.0000000e+00 5.0000000e+00 
-1.0000000e+00 0.0000000e+00 7.0000000e+00 
0.0000000e+00 0.0000000e+00 1.0000000e+01 
-0.0000000e+00 6.2500000e-01 8.0000000e+00 
0.0000000e+00 0.0000000e+00 8.0000000e+00 

CELLS 113 565
4 21 29 42 32
4 43 38 10 27
4 37 21 42 32
4 16 37 42 32
4 44 14 39 28
4 14 38 27 44
4 20 42 25 30
4 20 25 40 30
4 40 35 20 30
4 38 14 27 33
4 33 27 38 13
4 27 44 38 10
4 28 39 34 14
4 43 38 27 13
4 30 42 25 12
4 32 29 42 12
4 9 29 42 21
4 8 12 42 29
4 17 13 38 32
4 9 29 21 43
4 8 20 25 40
4 20 8 25 42
4 21 17 32 37
4 22 43 38 10
4 22 38 44 10
4 9 29 43 13
4 18 44 38 14
4 44 14 28 10
4 27 9 43 13
4 16 12 42 30
4 22 18 44 38
4 44 27 14 10
4 18 14 38 33
4 39 14 18 34
4 17 21 32 38
4 12 16 42 32
4 42 20 16 30
4 42 20 37 16
4 16 20 35 30
4 13 17 38 33
4 29 21 43 13
4 38 43 21 13
4 32 38 21 13
4 21 29 32 13
4 8 12 25 42
4 18 44 14 39
4 18 22 44 39
4 31 41 45 36
4 26 41 45 31
4 25 40 30 24
4 30 40 35 24
4 28 34 39 47
4 28 39 44 47
4 31 41 36 47
4 41 31 26 47
4 36 46 19 47
4 39 46 23 47
4 39 34 46 47
4 41 46 36 47
4 16 17 37 32
4 8 9 29 42
4 0 8 25 40
4 21 42 20 37
4 3 40 0 24
4 40 35 3 20
4 10 44 11 28
4 10 9 43 27
4 38 21 43 22
4 44 39 22 23
4 41 23 7 36
4 41 45 7 4
4 41 4 11 26
4 18 33 38 17
4 18 19 39 34
4 45 4 26 5
4 26 5 15 31
4 45 5 31 6
4 7 45 36 6
4 31 36 6 19
4 15 14 28 34
4 35 2 16 30
4 27 33 14 13
4 35 3 2 24
4 24 25 0 1
4 13 29 32 12
4 2 30 24 1
4 25 30 12 1
4 23 41 11 47
4 28 11 15 47
4 11 44 23 47
4 19 34 15 47
4 26 15 11 47
4 19 15 31 47
4 19 39 34 46
4 41 23 36 46
4 19 46 34 47
4 23 46 41 47
4 40 25 0 24
4 7 45 41 36
4 4 41 45 26
4 5 26 45 31
4 3 35 40 24
4 30 35 2 24
4 34 28 15 47
4 23 44 39 47
4 11 28 44 47
4 26 11 41 47
4 26 31 15 47
4 19 31 36 47
4 45 31 36 6
4 24 30 25 1
4 36 23 19 46
4 23 39 19 46

CELL_TYPES 113
10
10
10
10
10
10
10
10
10
10
10
10
10
10
10
10
10
10
10
10
10
10
10
10
10
10
10
10
10
10
10
10
10
10
10
10
10
10
10
10
10
10
10
10
10
10
10
10
10
10
10
10
10
10
10
10
10
10
10
10
10
10
10
10
10
10
10
10
10
10
10
10
10
10
10
10
10
10
10
10
10
10
10
10
10
10
10
10
10
10
10
10
10
10
10
10
10
10
10
10
10
10
10
10
10
10
10
10
10
10
10
10
10
POINT_DATA 48
FIELD FieldData 2
DISPLACEMENT 3 48  float
0.0000000e+00 0.0000000e+00 -1.5245195e-05 
0.0000000e+00 0.0000000e+00 -1.5245208e-05 
0.0000000e+00 0.0000000e+00 -1.5245207e-05 
0.0000000e+00 0.0000000e+00 -1.5245193e-05 
0.0000000e+00 0.0000000e+00 -1.6147447e-05 
0.0000000e+00 0.0000000e+00 -1.6147447e-05 
0.0000000e+00 0.0000000e+00 -1.6147449e-05 
0.0000000e+00 0.0000000e+00 -1.6147449e-05 
0.0000000e+00 0.0000000e+00 -1.5425998e-05 
0.0000000e+00 0.0000000e+00 -1.5606629e-05 
0.0000000e+00 0.0000000e+00 -1.5787080e-05 
0.0000000e+00 0.0000000e+00 -1.5967362e-05 
0.0000000e+00 0.0000000e+00 -1.5426012e-05 
0.0000000e+00 0.0000000e+00 -1.5606634e-05 
0.0000000e+00 0.0000000e+00 -1.5787085e-05 
0.0000000e+00 0.0000000e+00 -1.5967355e-05 
0.0000000e+00 0.0000000e+00 -1.5426011e-05 
0.0000000e+00 0.0000000e+00 -1.5606627e-05 
0.0000000e+00 0.0000000e+00 -1.5787078e-05 
0.0000000e+00 0.0000000e+00 -1.5967355e-05 
0.0000000e+00 0.0000000e+00 -1.5426001e-05 
0.0000000e+00 0.0000000e+00 -1.5606638e-05 
0.0000000e+00 0.0000000e+00 -1.5787087e-05 
0.0000000e+00 0.0000000e+00 -1.5967362e-05 
-2.6131953e-11 -2.1716490e-11 -1.5245206e-05 
0.0000000e+00 0.0000000e+00 -1.5335629e-05 
0.0000000e+00 0.0000000e+00 -1.6057427e-05 
0.0000000e+00 0.0000000e+00 -1.5696885e-05 
0.0000000e+00 0.0000000e+00 -1.5877247e-05 
0.0000000e+00 0.0000000e+00 -1.5516351e-05 
0.0000000e+00 0.0000000e+00 -1.5335643e-05 
0.0000000e+00 0.0000000e+00 -1.6057424e-05 
0.0000000e+00 0.0000000e+00 -1.5516349e-05 
0.0000000e+00 0.0000000e+00 -1.5696878e-05 
0.0000000e+00 0.0000000e+00 -1.5877236e-05 
0.0000000e+00 0.0000000e+00 -1.5335630e-05 
0.0000000e+00 0.0000000e+00 -1.6057427e-05 
0.0000000e+00 0.0000000e+00 -1.5516340e-05 
0.0000000e+00 0.0000000e+00 -1.5696893e-05 
0.0000000e+00 0.0000000e+00 -1.5877242e-05 
0.0000000e+00 0.0000000e+00 -1.5335614e-05 
0.0000000e+00 0.0000000e+00 -1.6057427e-05 
0.0000000e+00 0.0000000e+00 -1.5516351e-05 
0.0000000e+00 0.0000000e+00 -1.5696889e-05 
0.0000000e+00 0.0000000e+00 -1.5877260e-05 
-2.2009712e-11 -2.1577322e-11 -1.6147453e-05 
-1.4956156e-11 -1.2592920e-11 -1.5967360e-05 
-2.2339523e-11 -2.0853366e-11 -1.5967362e-05 
VELOCITY 3 48  float
0.0000000e+00 0.0000000e+00 -1.8405512e-05 
0.0000000e+00 0.0000000e+00 -1.8405513e-05 
0.0000000e+00 0.0000000e+00 -1.8405519e-05 
0.0000000e+00 0.0000000e+00 -1.8405515e-05 
0.0000000e+00 0.0000000e+00 -1.8404937e-05 
0.0000000e+00 0.0000000e+00 -1.8404980e-05 
0.0000000e+00 0.0000000e+00 -1.8405017e-05 
0.0000000e+00 0.0000000e+00 -1.8404968e-05 
0.0000000e+00 0.0000000e+00 -1.8405321e-05 
0.0000000e+00 0.0000000e+00 -1.8405157e-05 
0.0000000e+00 0.0000000e+00 -1.8405026e-05 
0.0000000e+00 0.0000000e+00 -1.8404953e-05 
0.0000000e+00 0.0000000e+00 -1.8405328e-05 
0.0000000e+00 0.0000000e+00 -1.8405175e-05 
0.0000000e+00 0.0000000e+00 -1.8405051e-05 
0.0000000e+00 0.0000000e+00 -1.8404997e-05 
0.0000000e+00 0.0000000e+00 -1.8405339e-05 
0.0000000e+00 0.0000000e+00 -1.8405191e-05 
0.0000000e+00 0.0000000e+00 -1.8405084e-05 
0.0000000e+00 0.0000000e+00 -1.8405028e-05 
0.0000000e+00 0.0000000e+00 -1.8405324e-05 
0.0000000e+00 0.0000000e+00 -1.8405173e-05 
0.0000000e+00 0.0000000e+00 -1.8405046e-05 
0.0000000e+00 0.0000000e+00 -1.8404984e-05 
1.1463366e-11 1.1506629e-11 -1.8405512e-05 
0.0000000e+00 0.0000000e+00 -1.8405410e-05 
0.0000000e+00 0.0000000e+00 -1.8404960e-05 
0.0000000e+00 0.0000000e+00 -1.8405093e-05 
0.0000000e+00 0.0000000e+00 -1.8404995e-05 
0.0000000e+00 0.0000000e+00 -1.8405241e-05 
0.0000000e+00 0.0000000e+00 -1.8405415e-05 
0.0000000e+00 0.0000000e+00 -1.8405004e-05 
0.0000000e+00 0.0000000e+00 -1.8405257e-05 
0.0000000e+00 0.0000000e+00 -1.8405119e-05 
0.0000000e+00 0.0000000e+00 -1.8405033e-05 
0.0000000e+00 0.0000000e+00 -1.8405413e-05 
0.0000000e+00 0.0000000e+00 -1.8404999e-05 
0.0000000e+00 0.0000000e+00 -1.8405255e-05 
0.0000000e+00 0.0000000e+00 -1.8405115e-05 
0.0000000e+00 0.0000000e+00 -1.8405028e-05 
0.0000000e+00 0.0000000e+00 -1.8405412e-05 
0.0000000e+00 0.0000000e+00 -1.8404953e-05 
0.0000000e+00 0.0000000e+00 -1.8405241e-05 
0.0000000e+00 0.0000000e+00 -1.8405093e-05 
0.0000000e+00 0.0000000e+00 -1.8404988e-05 
1.2783124e-11 1.0659495e-11 -1.8404973e-05 
1.0015209e-12 8.9733163e-13 -1.8405002e-05 
2.9269328e-12 3.0915932e-12 -1.8404991e-05 
CELL_DATA 113
FIELD FieldData 0
