# vtk DataFile Version 4.0
vtk output
ASCII
DATASET UNSTRUCTURED_GRID
POINTS 48 float
-1.0000000e+00 -1.0000000e+00 0.0000000e+00 
1.0000000e+00 -1.0000000e+00 0.0000000e+00 
1.0000000e+00 1.0000000e+00 0.0000000e+00 
-1.0000000e+00 1.0000000e+00 0.0000000e+00 
-1.0000000e+00 -1.0000000e+00 1.0000000e+01 
1.0000000e+00 -1.0000000e+00 1.0000000e+01 
1.0000000e+00 1.0000000e+00 1.0000000e+01 
-1.0000000e+00 1.0000000e+00 1.0000000e+01 
-1.0000000e+00 -1.0000000e+00 2.0000000e+00 
-1.0000000e+00 -1.0000000e+00 4.0000000e+00 
-1.0000000e+00 -1.0000000e+00 6.0000000e+00 
-1.0000000e+00 -1.0000000e+00 8.0000000e+00 
1.0000000e+00 -1.0000000e+00 2.0000000e+00 
1.0000000e+00 -1.0000000e+00 4.0000000e+00 
1.0000000e+00 -1.0000000e+00 6.0000000e+00 
1.0000000e+00 -1.0000000e+00 8.0000000e+00 
1.0000000e+00 1.0000000e+00 2.0000000e+00 
1.0000000e+00 1.0000000e+00 4.0000000e+00 
1.0000000e+00 1.0000000e+00 6.0000000e+00 
1.0000000e+00 1.0000000e+00 8.0000000e+00 
-1.0000000e+00 1.0000000e+00 2.0000000e+00 
-1.0000000e+00 1.0000000e+00 4.0000000e+00 
-1.0000000e+00 1.0000000e+00 6.0000000e+00 
-1.0000000e+00 1.0000000e+00 8.0000000e+00 
0.0000000e+00 0.0000000e+00 0.0000000e+00 
0.0000000e+00 -1.0000000e+00 1.0000000e+00 
0.0000000e+00 -1.0000000e+00 9.0000000e+00 
0.0000000e+00 -1.0000000e+00 5.0000000e+00 
0.0000000e+00 -1.0000000e+00 7.0000000e+00 
0.0000000e+00 -1.0000000e+00 3.0000000e+00 
1.0000000e+00 0.0000000e+00 1.0000000e+00 
1.0000000e+00 0.0000000e+00 9.0000000e+00 
1.0000000e+00 0.0000000e+00 3.0000000e+00 
1.0000000e+00 0.0000000e+00 5.0000000e+00 
1.0000000e+00 0.0000000e+00 7.0000000e+00 
0.0000000e+00 1.0000000e+00 1.0000000e+00 
0.0000000e+00 1.0000000e+00 9.0000000e+00 
0.0000000e+00 1.0000000e+00 3.0000000e+00 
0.0000000e+00 1.0000000e+00 5.0000000e+00 
0.0000000e+00 1.0000000e+00 7.0000000e+00 
-1.0000000e+00 0.0000000e+00 1.0000000e+00 
-1.0000000e+00 0.0000000e+00 9.0000000e+00 
-1.0000000e+00 0.0000000e+00 3.0000000e+00 
-1.0000000e+00 0.0000000e+00 5.0000000e+00 
-1.0000000e+00 0.0000000e+00 7.0000000e+00 
0.0000000e+00 0.0000000e+00 1.0000000e+01 
-0.0000000e+00 6.2500000e-01 8.0000000e+00 
0.0000000e+00 0.0000000e+00 8.0000000e+00 

CELLS 113 565
4 21 29 42 32
4 43 38 10 27
4 37 21 42 32
4 16 37 42 32
4 44 14 39 28
4 14 38 27 44
4 20 42 25 30
4 20 25 40 30
4 40 35 20 30
4 38 14 27 33
4 33 27 38 13
4 27 44 38 10
4 28 39 34 14
4 43 38 27 13
4 30 42 25 12
4 32 29 42 12
4 9 29 42 21
4 8 12 42 29
4 17 13 38 32
4 9 29 21 43
4 8 20 25 40
4 20 8 25 42
4 21 17 32 37
4 22 43 38 10
4 22 38 44 10
4 9 29 43 13
4 18 44 38 14
4 44 14 28 10
4 27 9 43 13
4 16 12 42 30
4 22 18 44 38
4 44 27 14 10
4 18 14 38 33
4 39 14 18 34
4 17 21 32 38
4 12 16 42 32
4 42 20 16 30
4 42 20 37 16
4 16 20 35 30
4 13 17 38 33
4 29 21 43 13
4 38 43 21 13
4 32 38 21 13
4 21 29 32 13
4 8 12 25 42
4 18 44 14 39
4 18 22 44 39
4 31 41 45 36
4 26 41 45 31
4 25 40 30 24
4 30 40 35 24
4 28 34 39 47
4 28 39 44 47
4 31 41 36 47
4 41 31 26 47
4 36 46 19 47
4 39 46 23 47
4 39 34 46 47
4 41 46 36 47
4 16 17 37 32
4 8 9 29 42
4 0 8 25 40
4 21 42 20 37
4 3 40 0 24
4 40 35 3 20
4 10 44 11 28
4 10 9 43 27
4 38 21 43 22
4 44 39 22 23
4 41 23 7 36
4 41 45 7 4
4 41 4 11 26
4 18 33 38 17
4 18 19 39 34
4 45 4 26 5
4 26 5 15 31
4 45 5 31 6
4 7 45 36 6
4 31 36 6 19
4 15 14 28 34
4 35 2 16 30
4 27 33 14 13
4 35 3 2 24
4 24 25 0 1
4 13 29 32 12
4 2 30 24 1
4 25 30 12 1
4 23 41 11 47
4 28 11 15 47
4 11 44 23 47
4 19 34 15 47
4 26 15 11 47
4 19 15 31 47
4 19 39 34 46
4 41 23 36 46
4 19 46 34 47
4 23 46 41 47
4 40 25 0 24
4 7 45 41 36
4 4 41 45 26
4 5 26 45 31
4 3 35 40 24
4 30 35 2 24
4 34 28 15 47
4 23 44 39 47
4 11 28 44 47
4 26 11 41 47
4 26 31 15 47
4 19 31 36 47
4 45 31 36 6
4 24 30 25 1
4 36 23 19 46
4 23 39 19 46

CELL_TYPES 113
10
10
10
10
10
10
10
10
10
10
10
10
10
10
10
10
10
10
10
10
10
10
10
10
10
10
10
10
10
10
10
10
10
10
10
10
10
10
10
10
10
10
10
10
10
10
10
10
10
10
10
10
10
10
10
10
10
10
10
10
10
10
10
10
10
10
10
10
10
10
10
10
10
10
10
10
10
10
10
10
10
10
10
10
10
10
10
10
10
10
10
10
10
10
10
10
10
10
10
10
10
10
10
10
10
10
10
10
10
10
10
10
10
POINT_DATA 48
FIELD FieldData 2
DISPLACEMENT 3 48  float
0.0000000e+00 0.0000000e+00 -1.5245198e-05 
0.0000000e+00 0.0000000e+00 -1.5245208e-05 
0.0000000e+00 0.0000000e+00 -1.5245203e-05 
0.0000000e+00 0.0000000e+00 -1.5245193e-05 
0.0000000e+00 0.0000000e+00 -1.6147449e-05 
0.0000000e+00 0.0000000e+00 -1.6147447e-05 
0.0000000e+00 0.0000000e+00 -1.6147447e-05 
0.0000000e+00 0.0000000e+00 -1.6147449e-05 
0.0000000e+00 0.0000000e+00 -1.5426000e-05 
0.0000000e+00 0.0000000e+00 -1.5606629e-05 
0.0000000e+00 0.0000000e+00 -1.5787078e-05 
0.0000000e+00 0.0000000e+00 -1.5967360e-05 
0.0000000e+00 0.0000000e+00 -1.5426011e-05 
0.0000000e+00 0.0000000e+00 -1.5606634e-05 
0.0000000e+00 0.0000000e+00 -1.5787085e-05 
0.0000000e+00 0.0000000e+00 -1.5967355e-05 
0.0000000e+00 0.0000000e+00 -1.5426007e-05 
0.0000000e+00 0.0000000e+00 -1.5606627e-05 
0.0000000e+00 0.0000000e+00 -1.5787084e-05 
0.0000000e+00 0.0000000e+00 -1.5967356e-05 
0.0000000e+00 0.0000000e+00 -1.5426001e-05 
0.0000000e+00 0.0000000e+00 -1.5606638e-05 
0.0000000e+00 0.0000000e+00 -1.5787085e-05 
0.0000000e+00 0.0000000e+00 -1.5967362e-05 
-3.1670875e-12 1.3921076e-12 -1.5245206e-05 
0.0000000e+00 0.0000000e+00 -1.5335632e-05 
0.0000000e+00 0.0000000e+00 -1.6057427e-05 
0.0000000e+00 0.0000000e+00 -1.5696884e-05 
0.0000000e+00 0.0000000e+00 -1.5877242e-05 
0.0000000e+00 0.0000000e+00 -1.5516351e-05 
0.0000000e+00 0.0000000e+00 -1.5335638e-05 
0.0000000e+00 0.0000000e+00 -1.6057424e-05 
0.0000000e+00 0.0000000e+00 -1.5516347e-05 
0.0000000e+00 0.0000000e+00 -1.5696878e-05 
0.0000000e+00 0.0000000e+00 -1.5877242e-05 
0.0000000e+00 0.0000000e+00 -1.5335623e-05 
0.0000000e+00 0.0000000e+00 -1.6057427e-05 
0.0000000e+00 0.0000000e+00 -1.5516338e-05 
0.0000000e+00 0.0000000e+00 -1.5696894e-05 
0.0000000e+00 0.0000000e+00 -1.5877245e-05 
0.0000000e+00 0.0000000e+00 -1.5335618e-05 
0.0000000e+00 0.0000000e+00 -1.6057427e-05 
0.0000000e+00 0.0000000e+00 -1.5516351e-05 
0.0000000e+00 0.0000000e+00 -1.5696889e-05 
0.0000000e+00 0.0000000e+00 -1.5877256e-05 
-4.5732461e-13 -1.5186066e-14 -1.6147453e-05 
-6.9889873e-13 1.5146447e-13 -1.5967360e-05 
-9.9297794e-13 3.4812382e-13 -1.5967362e-05 
VELOCITY 3 48  float
0.0000000e+00 0.0000000e+00 -1.8405522e-05 
0.0000000e+00 0.0000000e+00 -1.8405524e-05 
0.0000000e+00 0.0000000e+00 -1.8405521e-05 
0.0000000e+00 0.0000000e+00 -1.8405522e-05 
0.0000000e+00 0.0000000e+00 -1.8404968e-05 
0.0000000e+00 0.0000000e+00 -1.8404975e-05 
0.0000000e+00 0.0000000e+00 -1.8404970e-05 
0.0000000e+00 0.0000000e+00 -1.8404962e-05 
0.0000000e+00 0.0000000e+00 -1.8405324e-05 
0.0000000e+00 0.0000000e+00 -1.8405168e-05 
0.0000000e+00 0.0000000e+00 -1.8405059e-05 
0.0000000e+00 0.0000000e+00 -1.8404990e-05 
0.0000000e+00 0.0000000e+00 -1.8405326e-05 
0.0000000e+00 0.0000000e+00 -1.8405173e-05 
0.0000000e+00 0.0000000e+00 -1.8405062e-05 
0.0000000e+00 0.0000000e+00 -1.8404997e-05 
0.0000000e+00 0.0000000e+00 -1.8405322e-05 
0.0000000e+00 0.0000000e+00 -1.8405171e-05 
0.0000000e+00 0.0000000e+00 -1.8405060e-05 
0.0000000e+00 0.0000000e+00 -1.8404993e-05 
0.0000000e+00 0.0000000e+00 -1.8405321e-05 
0.0000000e+00 0.0000000e+00 -1.8405164e-05 
0.0000000e+00 0.0000000e+00 -1.8405053e-05 
0.0000000e+00 0.0000000e+00 -1.8404984e-05 
1.3854051e-13 4.2981683e-13 -1.8405521e-05 
0.0000000e+00 0.0000000e+00 -1.8405419e-05 
0.0000000e+00 0.0000000e+00 -1.8404977e-05 
0.0000000e+00 0.0000000e+00 -1.8405110e-05 
0.0000000e+00 0.0000000e+00 -1.8405020e-05 
0.0000000e+00 0.0000000e+00 -1.8405241e-05 
0.0000000e+00 0.0000000e+00 -1.8405415e-05 
0.0000000e+00 0.0000000e+00 -1.8404980e-05 
0.0000000e+00 0.0000000e+00 -1.8405242e-05 
0.0000000e+00 0.0000000e+00 -1.8405111e-05 
0.0000000e+00 0.0000000e+00 -1.8405024e-05 
0.0000000e+00 0.0000000e+00 -1.8405415e-05 
0.0000000e+00 0.0000000e+00 -1.8404971e-05 
0.0000000e+00 0.0000000e+00 -1.8405241e-05 
0.0000000e+00 0.0000000e+00 -1.8405104e-05 
0.0000000e+00 0.0000000e+00 -1.8405017e-05 
0.0000000e+00 0.0000000e+00 -1.8405417e-05 
0.0000000e+00 0.0000000e+00 -1.8404970e-05 
0.0000000e+00 0.0000000e+00 -1.8405237e-05 
0.0000000e+00 0.0000000e+00 -1.8405104e-05 
0.0000000e+00 0.0000000e+00 -1.8405011e-05 
1.3585317e-12 -8.3140558e-13 -1.8404968e-05 
3.5844645e-13 -5.4793647e-15 -1.8404988e-05 
5.8303048e-13 -8.6903946e-15 -1.8404990e-05 
CELL_DATA 113
FIELD FieldData 0
