# vtk DataFile Version 4.0
vtk output
ASCII
DATASET UNSTRUCTURED_GRID
POINTS 48 float
-1.0000000e+00 -1.0000000e+00 0.0000000e+00 
1.0000000e+00 -1.0000000e+00 0.0000000e+00 
1.0000000e+00 1.0000000e+00 0.0000000e+00 
-1.0000000e+00 1.0000000e+00 0.0000000e+00 
-1.0000000e+00 -1.0000000e+00 1.0000000e+01 
1.0000000e+00 -1.0000000e+00 1.0000000e+01 
1.0000000e+00 1.0000000e+00 1.0000000e+01 
-1.0000000e+00 1.0000000e+00 1.0000000e+01 
-1.0000000e+00 -1.0000000e+00 2.0000000e+00 
-1.0000000e+00 -1.0000000e+00 4.0000000e+00 
-1.0000000e+00 -1.0000000e+00 6.0000000e+00 
-1.0000000e+00 -1.0000000e+00 8.0000000e+00 
1.0000000e+00 -1.0000000e+00 2.0000000e+00 
1.0000000e+00 -1.0000000e+00 4.0000000e+00 
1.0000000e+00 -1.0000000e+00 6.0000000e+00 
1.0000000e+00 -1.0000000e+00 8.0000000e+00 
1.0000000e+00 1.0000000e+00 2.0000000e+00 
1.0000000e+00 1.0000000e+00 4.0000000e+00 
1.0000000e+00 1.0000000e+00 6.0000000e+00 
1.0000000e+00 1.0000000e+00 8.0000000e+00 
-1.0000000e+00 1.0000000e+00 2.0000000e+00 
-1.0000000e+00 1.0000000e+00 4.0000000e+00 
-1.0000000e+00 1.0000000e+00 6.0000000e+00 
-1.0000000e+00 1.0000000e+00 8.0000000e+00 
0.0000000e+00 0.0000000e+00 0.0000000e+00 
0.0000000e+00 -1.0000000e+00 1.0000000e+00 
0.0000000e+00 -1.0000000e+00 9.0000000e+00 
0.0000000e+00 -1.0000000e+00 5.0000000e+00 
0.0000000e+00 -1.0000000e+00 7.0000000e+00 
0.0000000e+00 -1.0000000e+00 3.0000000e+00 
1.0000000e+00 0.0000000e+00 1.0000000e+00 
1.0000000e+00 0.0000000e+00 9.0000000e+00 
1.0000000e+00 0.0000000e+00 3.0000000e+00 
1.0000000e+00 0.0000000e+00 5.0000000e+00 
1.0000000e+00 0.0000000e+00 7.0000000e+00 
0.0000000e+00 1.0000000e+00 1.0000000e+00 
0.0000000e+00 1.0000000e+00 9.0000000e+00 
0.0000000e+00 1.0000000e+00 3.0000000e+00 
0.0000000e+00 1.0000000e+00 5.0000000e+00 
0.0000000e+00 1.0000000e+00 7.0000000e+00 
-1.0000000e+00 0.0000000e+00 1.0000000e+00 
-1.0000000e+00 0.0000000e+00 9.0000000e+00 
-1.0000000e+00 0.0000000e+00 3.0000000e+00 
-1.0000000e+00 0.0000000e+00 5.0000000e+00 
-1.0000000e+00 0.0000000e+00 7.0000000e+00 
0.0000000e+00 0.0000000e+00 1.0000000e+01 
-0.0000000e+00 6.2500000e-01 8.0000000e+00 
0.0000000e+00 0.0000000e+00 8.0000000e+00 

CELLS 113 565
4 21 29 42 32
4 43 38 10 27
4 37 21 42 32
4 16 37 42 32
4 44 14 39 28
4 14 38 27 44
4 20 42 25 30
4 20 25 40 30
4 40 35 20 30
4 38 14 27 33
4 33 27 38 13
4 27 44 38 10
4 28 39 34 14
4 43 38 27 13
4 30 42 25 12
4 32 29 42 12
4 9 29 42 21
4 8 12 42 29
4 17 13 38 32
4 9 29 21 43
4 8 20 25 40
4 20 8 25 42
4 21 17 32 37
4 22 43 38 10
4 22 38 44 10
4 9 29 43 13
4 18 44 38 14
4 44 14 28 10
4 27 9 43 13
4 16 12 42 30
4 22 18 44 38
4 44 27 14 10
4 18 14 38 33
4 39 14 18 34
4 17 21 32 38
4 12 16 42 32
4 42 20 16 30
4 42 20 37 16
4 16 20 35 30
4 13 17 38 33
4 29 21 43 13
4 38 43 21 13
4 32 38 21 13
4 21 29 32 13
4 8 12 25 42
4 18 44 14 39
4 18 22 44 39
4 31 41 45 36
4 26 41 45 31
4 25 40 30 24
4 30 40 35 24
4 28 34 39 47
4 28 39 44 47
4 31 41 36 47
4 41 31 26 47
4 36 46 19 47
4 39 46 23 47
4 39 34 46 47
4 41 46 36 47
4 16 17 37 32
4 8 9 29 42
4 0 8 25 40
4 21 42 20 37
4 3 40 0 24
4 40 35 3 20
4 10 44 11 28
4 10 9 43 27
4 38 21 43 22
4 44 39 22 23
4 41 23 7 36
4 41 45 7 4
4 41 4 11 26
4 18 33 38 17
4 18 19 39 34
4 45 4 26 5
4 26 5 15 31
4 45 5 31 6
4 7 45 36 6
4 31 36 6 19
4 15 14 28 34
4 35 2 16 30
4 27 33 14 13
4 35 3 2 24
4 24 25 0 1
4 13 29 32 12
4 2 30 24 1
4 25 30 12 1
4 23 41 11 47
4 28 11 15 47
4 11 44 23 47
4 19 34 15 47
4 26 15 11 47
4 19 15 31 47
4 19 39 34 46
4 41 23 36 46
4 19 46 34 47
4 23 46 41 47
4 40 25 0 24
4 7 45 41 36
4 4 41 45 26
4 5 26 45 31
4 3 35 40 24
4 30 35 2 24
4 34 28 15 47
4 23 44 39 47
4 11 28 44 47
4 26 11 41 47
4 26 31 15 47
4 19 31 36 47
4 45 31 36 6
4 24 30 25 1
4 36 23 19 46
4 23 39 19 46

CELL_TYPES 113
10
10
10
10
10
10
10
10
10
10
10
10
10
10
10
10
10
10
10
10
10
10
10
10
10
10
10
10
10
10
10
10
10
10
10
10
10
10
10
10
10
10
10
10
10
10
10
10
10
10
10
10
10
10
10
10
10
10
10
10
10
10
10
10
10
10
10
10
10
10
10
10
10
10
10
10
10
10
10
10
10
10
10
10
10
10
10
10
10
10
10
10
10
10
10
10
10
10
10
10
10
10
10
10
10
10
10
10
10
10
10
10
10
POINT_DATA 48
FIELD FieldData 2
DISPLACEMENT 3 48  float
0.0000000e+00 0.0000000e+00 -1.7063274e-05 
0.0000000e+00 0.0000000e+00 -1.7063288e-05 
0.0000000e+00 0.0000000e+00 -1.7063287e-05 
0.0000000e+00 0.0000000e+00 -1.7063274e-05 
0.0000000e+00 0.0000000e+00 -1.7965471e-05 
0.0000000e+00 0.0000000e+00 -1.7965473e-05 
0.0000000e+00 0.0000000e+00 -1.7965474e-05 
0.0000000e+00 0.0000000e+00 -1.7965473e-05 
0.0000000e+00 0.0000000e+00 -1.7244058e-05 
0.0000000e+00 0.0000000e+00 -1.7424674e-05 
0.0000000e+00 0.0000000e+00 -1.7605114e-05 
0.0000000e+00 0.0000000e+00 -1.7785389e-05 
0.0000000e+00 0.0000000e+00 -1.7244072e-05 
0.0000000e+00 0.0000000e+00 -1.7424680e-05 
0.0000000e+00 0.0000000e+00 -1.7605120e-05 
0.0000000e+00 0.0000000e+00 -1.7785382e-05 
0.0000000e+00 0.0000000e+00 -1.7244070e-05 
0.0000000e+00 0.0000000e+00 -1.7424672e-05 
0.0000000e+00 0.0000000e+00 -1.7605113e-05 
0.0000000e+00 0.0000000e+00 -1.7785382e-05 
0.0000000e+00 0.0000000e+00 -1.7244063e-05 
0.0000000e+00 0.0000000e+00 -1.7424683e-05 
0.0000000e+00 0.0000000e+00 -1.7605122e-05 
0.0000000e+00 0.0000000e+00 -1.7785389e-05 
-2.5501122e-11 -2.1190135e-11 -1.7063285e-05 
0.0000000e+00 0.0000000e+00 -1.7153698e-05 
0.0000000e+00 0.0000000e+00 -1.7875453e-05 
0.0000000e+00 0.0000000e+00 -1.7514923e-05 
0.0000000e+00 0.0000000e+00 -1.7695276e-05 
0.0000000e+00 0.0000000e+00 -1.7334401e-05 
0.0000000e+00 0.0000000e+00 -1.7153712e-05 
0.0000000e+00 0.0000000e+00 -1.7875449e-05 
0.0000000e+00 0.0000000e+00 -1.7334400e-05 
0.0000000e+00 0.0000000e+00 -1.7514918e-05 
0.0000000e+00 0.0000000e+00 -1.7695267e-05 
0.0000000e+00 0.0000000e+00 -1.7153699e-05 
0.0000000e+00 0.0000000e+00 -1.7875453e-05 
0.0000000e+00 0.0000000e+00 -1.7334392e-05 
0.0000000e+00 0.0000000e+00 -1.7514931e-05 
0.0000000e+00 0.0000000e+00 -1.7695273e-05 
0.0000000e+00 0.0000000e+00 -1.7153683e-05 
0.0000000e+00 0.0000000e+00 -1.7875453e-05 
0.0000000e+00 0.0000000e+00 -1.7334401e-05 
0.0000000e+00 0.0000000e+00 -1.7514927e-05 
0.0000000e+00 0.0000000e+00 -1.7695289e-05 
-2.1453422e-11 -2.1031161e-11 -1.7965476e-05 
-1.4608155e-11 -1.2300497e-11 -1.7785387e-05 
-2.1820015e-11 -2.0369451e-11 -1.7785389e-05 
VELOCITY 3 48  float
0.0000000e+00 0.0000000e+00 -1.7957889e-05 
0.0000000e+00 0.0000000e+00 -1.7957886e-05 
0.0000000e+00 0.0000000e+00 -1.7957887e-05 
0.0000000e+00 0.0000000e+00 -1.7957889e-05 
0.0000000e+00 0.0000000e+00 -1.7957345e-05 
0.0000000e+00 0.0000000e+00 -1.7957353e-05 
0.0000000e+00 0.0000000e+00 -1.7957358e-05 
0.0000000e+00 0.0000000e+00 -1.7957349e-05 
0.0000000e+00 0.0000000e+00 -1.7957696e-05 
0.0000000e+00 0.0000000e+00 -1.7957544e-05 
0.0000000e+00 0.0000000e+00 -1.7957431e-05 
0.0000000e+00 0.0000000e+00 -1.7957364e-05 
0.0000000e+00 0.0000000e+00 -1.7957695e-05 
0.0000000e+00 0.0000000e+00 -1.7957547e-05 
0.0000000e+00 0.0000000e+00 -1.7957436e-05 
0.0000000e+00 0.0000000e+00 -1.7957373e-05 
0.0000000e+00 0.0000000e+00 -1.7957696e-05 
0.0000000e+00 0.0000000e+00 -1.7957551e-05 
0.0000000e+00 0.0000000e+00 -1.7957444e-05 
0.0000000e+00 0.0000000e+00 -1.7957378e-05 
0.0000000e+00 0.0000000e+00 -1.7957695e-05 
0.0000000e+00 0.0000000e+00 -1.7957545e-05 
0.0000000e+00 0.0000000e+00 -1.7957434e-05 
0.0000000e+00 0.0000000e+00 -1.7957367e-05 
7.4516608e-12 6.5735126e-12 -1.7957886e-05 
0.0000000e+00 0.0000000e+00 -1.7957784e-05 
0.0000000e+00 0.0000000e+00 -1.7957353e-05 
0.0000000e+00 0.0000000e+00 -1.7957482e-05 
0.0000000e+00 0.0000000e+00 -1.7957393e-05 
0.0000000e+00 0.0000000e+00 -1.7957613e-05 
0.0000000e+00 0.0000000e+00 -1.7957782e-05 
0.0000000e+00 0.0000000e+00 -1.7957362e-05 
0.0000000e+00 0.0000000e+00 -1.7957616e-05 
0.0000000e+00 0.0000000e+00 -1.7957489e-05 
0.0000000e+00 0.0000000e+00 -1.7957402e-05 
0.0000000e+00 0.0000000e+00 -1.7957784e-05 
0.0000000e+00 0.0000000e+00 -1.7957358e-05 
0.0000000e+00 0.0000000e+00 -1.7957618e-05 
0.0000000e+00 0.0000000e+00 -1.7957485e-05 
0.0000000e+00 0.0000000e+00 -1.7957400e-05 
0.0000000e+00 0.0000000e+00 -1.7957787e-05 
0.0000000e+00 0.0000000e+00 -1.7957351e-05 
0.0000000e+00 0.0000000e+00 -1.7957613e-05 
0.0000000e+00 0.0000000e+00 -1.7957482e-05 
0.0000000e+00 0.0000000e+00 -1.7957389e-05 
6.2600858e-12 5.5038070e-12 -1.7957351e-05 
3.7941564e-12 3.2913000e-12 -1.7957371e-05 
5.8974418e-12 5.7306330e-12 -1.7957369e-05 
CELL_DATA 113
FIELD FieldData 0
