# vtk DataFile Version 4.0
vtk output
ASCII
DATASET UNSTRUCTURED_GRID
POINTS 48 float
-1.0000000e+00 -1.0000000e+00 0.0000000e+00 
1.0000000e+00 -1.0000000e+00 0.0000000e+00 
1.0000000e+00 1.0000000e+00 0.0000000e+00 
-1.0000000e+00 1.0000000e+00 0.0000000e+00 
-1.0000000e+00 -1.0000000e+00 1.0000000e+01 
1.0000000e+00 -1.0000000e+00 1.0000000e+01 
1.0000000e+00 1.0000000e+00 1.0000000e+01 
-1.0000000e+00 1.0000000e+00 1.0000000e+01 
-1.0000000e+00 -1.0000000e+00 2.0000000e+00 
-1.0000000e+00 -1.0000000e+00 4.0000000e+00 
-1.0000000e+00 -1.0000000e+00 6.0000000e+00 
-1.0000000e+00 -1.0000000e+00 8.0000000e+00 
1.0000000e+00 -1.0000000e+00 2.0000000e+00 
1.0000000e+00 -1.0000000e+00 4.0000000e+00 
1.0000000e+00 -1.0000000e+00 6.0000000e+00 
1.0000000e+00 -1.0000000e+00 8.0000000e+00 
1.0000000e+00 1.0000000e+00 2.0000000e+00 
1.0000000e+00 1.0000000e+00 4.0000000e+00 
1.0000000e+00 1.0000000e+00 6.0000000e+00 
1.0000000e+00 1.0000000e+00 8.0000000e+00 
-1.0000000e+00 1.0000000e+00 2.0000000e+00 
-1.0000000e+00 1.0000000e+00 4.0000000e+00 
-1.0000000e+00 1.0000000e+00 6.0000000e+00 
-1.0000000e+00 1.0000000e+00 8.0000000e+00 
0.0000000e+00 0.0000000e+00 0.0000000e+00 
0.0000000e+00 -1.0000000e+00 1.0000000e+00 
0.0000000e+00 -1.0000000e+00 9.0000000e+00 
0.0000000e+00 -1.0000000e+00 5.0000000e+00 
0.0000000e+00 -1.0000000e+00 7.0000000e+00 
0.0000000e+00 -1.0000000e+00 3.0000000e+00 
1.0000000e+00 0.0000000e+00 1.0000000e+00 
1.0000000e+00 0.0000000e+00 9.0000000e+00 
1.0000000e+00 0.0000000e+00 3.0000000e+00 
1.0000000e+00 0.0000000e+00 5.0000000e+00 
1.0000000e+00 0.0000000e+00 7.0000000e+00 
0.0000000e+00 1.0000000e+00 1.0000000e+00 
0.0000000e+00 1.0000000e+00 9.0000000e+00 
0.0000000e+00 1.0000000e+00 3.0000000e+00 
0.0000000e+00 1.0000000e+00 5.0000000e+00 
0.0000000e+00 1.0000000e+00 7.0000000e+00 
-1.0000000e+00 0.0000000e+00 1.0000000e+00 
-1.0000000e+00 0.0000000e+00 9.0000000e+00 
-1.0000000e+00 0.0000000e+00 3.0000000e+00 
-1.0000000e+00 0.0000000e+00 5.0000000e+00 
-1.0000000e+00 0.0000000e+00 7.0000000e+00 
0.0000000e+00 0.0000000e+00 1.0000000e+01 
-0.0000000e+00 6.2500000e-01 8.0000000e+00 
0.0000000e+00 0.0000000e+00 8.0000000e+00 

CELLS 113 565
4 21 29 42 32
4 43 38 10 27
4 37 21 42 32
4 16 37 42 32
4 44 14 39 28
4 14 38 27 44
4 20 42 25 30
4 20 25 40 30
4 40 35 20 30
4 38 14 27 33
4 33 27 38 13
4 27 44 38 10
4 28 39 34 14
4 43 38 27 13
4 30 42 25 12
4 32 29 42 12
4 9 29 42 21
4 8 12 42 29
4 17 13 38 32
4 9 29 21 43
4 8 20 25 40
4 20 8 25 42
4 21 17 32 37
4 22 43 38 10
4 22 38 44 10
4 9 29 43 13
4 18 44 38 14
4 44 14 28 10
4 27 9 43 13
4 16 12 42 30
4 22 18 44 38
4 44 27 14 10
4 18 14 38 33
4 39 14 18 34
4 17 21 32 38
4 12 16 42 32
4 42 20 16 30
4 42 20 37 16
4 16 20 35 30
4 13 17 38 33
4 29 21 43 13
4 38 43 21 13
4 32 38 21 13
4 21 29 32 13
4 8 12 25 42
4 18 44 14 39
4 18 22 44 39
4 31 41 45 36
4 26 41 45 31
4 25 40 30 24
4 30 40 35 24
4 28 34 39 47
4 28 39 44 47
4 31 41 36 47
4 41 31 26 47
4 36 46 19 47
4 39 46 23 47
4 39 34 46 47
4 41 46 36 47
4 16 17 37 32
4 8 9 29 42
4 0 8 25 40
4 21 42 20 37
4 3 40 0 24
4 40 35 3 20
4 10 44 11 28
4 10 9 43 27
4 38 21 43 22
4 44 39 22 23
4 41 23 7 36
4 41 45 7 4
4 41 4 11 26
4 18 33 38 17
4 18 19 39 34
4 45 4 26 5
4 26 5 15 31
4 45 5 31 6
4 7 45 36 6
4 31 36 6 19
4 15 14 28 34
4 35 2 16 30
4 27 33 14 13
4 35 3 2 24
4 24 25 0 1
4 13 29 32 12
4 2 30 24 1
4 25 30 12 1
4 23 41 11 47
4 28 11 15 47
4 11 44 23 47
4 19 34 15 47
4 26 15 11 47
4 19 15 31 47
4 19 39 34 46
4 41 23 36 46
4 19 46 34 47
4 23 46 41 47
4 40 25 0 24
4 7 45 41 36
4 4 41 45 26
4 5 26 45 31
4 3 35 40 24
4 30 35 2 24
4 34 28 15 47
4 23 44 39 47
4 11 28 44 47
4 26 11 41 47
4 26 31 15 47
4 19 31 36 47
4 45 31 36 6
4 24 30 25 1
4 36 23 19 46
4 23 39 19 46

CELL_TYPES 113
10
10
10
10
10
10
10
10
10
10
10
10
10
10
10
10
10
10
10
10
10
10
10
10
10
10
10
10
10
10
10
10
10
10
10
10
10
10
10
10
10
10
10
10
10
10
10
10
10
10
10
10
10
10
10
10
10
10
10
10
10
10
10
10
10
10
10
10
10
10
10
10
10
10
10
10
10
10
10
10
10
10
10
10
10
10
10
10
10
10
10
10
10
10
10
10
10
10
10
10
10
10
10
10
10
10
10
10
10
10
10
10
10
POINT_DATA 48
FIELD FieldData 2
DISPLACEMENT 3 48  float
0.0000000e+00 0.0000000e+00 -1.3381798e-05 
0.0000000e+00 0.0000000e+00 -1.3381809e-05 
0.0000000e+00 0.0000000e+00 -1.3381805e-05 
0.0000000e+00 0.0000000e+00 -1.3381794e-05 
0.0000000e+00 0.0000000e+00 -1.4284105e-05 
0.0000000e+00 0.0000000e+00 -1.4284105e-05 
0.0000000e+00 0.0000000e+00 -1.4284105e-05 
0.0000000e+00 0.0000000e+00 -1.4284105e-05 
0.0000000e+00 0.0000000e+00 -1.3562622e-05 
0.0000000e+00 0.0000000e+00 -1.3743266e-05 
0.0000000e+00 0.0000000e+00 -1.3923726e-05 
0.0000000e+00 0.0000000e+00 -1.4104015e-05 
0.0000000e+00 0.0000000e+00 -1.3562633e-05 
0.0000000e+00 0.0000000e+00 -1.3743272e-05 
0.0000000e+00 0.0000000e+00 -1.3923734e-05 
0.0000000e+00 0.0000000e+00 -1.4104010e-05 
0.0000000e+00 0.0000000e+00 -1.3562629e-05 
0.0000000e+00 0.0000000e+00 -1.3743264e-05 
0.0000000e+00 0.0000000e+00 -1.3923731e-05 
0.0000000e+00 0.0000000e+00 -1.4104012e-05 
0.0000000e+00 0.0000000e+00 -1.3562623e-05 
0.0000000e+00 0.0000000e+00 -1.3743276e-05 
0.0000000e+00 0.0000000e+00 -1.3923735e-05 
0.0000000e+00 0.0000000e+00 -1.4104016e-05 
-3.2413525e-12 1.4294756e-12 -1.3381807e-05 
0.0000000e+00 0.0000000e+00 -1.3472245e-05 
0.0000000e+00 0.0000000e+00 -1.4194084e-05 
0.0000000e+00 0.0000000e+00 -1.3833527e-05 
0.0000000e+00 0.0000000e+00 -1.4013895e-05 
0.0000000e+00 0.0000000e+00 -1.3652982e-05 
0.0000000e+00 0.0000000e+00 -1.3472250e-05 
0.0000000e+00 0.0000000e+00 -1.4194080e-05 
0.0000000e+00 0.0000000e+00 -1.3652977e-05 
0.0000000e+00 0.0000000e+00 -1.3833523e-05 
0.0000000e+00 0.0000000e+00 -1.4013894e-05 
0.0000000e+00 0.0000000e+00 -1.3472236e-05 
0.0000000e+00 0.0000000e+00 -1.4194084e-05 
0.0000000e+00 0.0000000e+00 -1.3652969e-05 
0.0000000e+00 0.0000000e+00 -1.3833537e-05 
0.0000000e+00 0.0000000e+00 -1.4013898e-05 
0.0000000e+00 0.0000000e+00 -1.3472230e-05 
0.0000000e+00 0.0000000e+00 -1.4194084e-05 
0.0000000e+00 0.0000000e+00 -1.3652982e-05 
0.0000000e+00 0.0000000e+00 -1.3833533e-05 
0.0000000e+00 0.0000000e+00 -1.4013909e-05 
-4.5762976e-13 -2.9567139e-14 -1.4284110e-05 
-7.1757829e-13 1.5594301e-13 -1.4104015e-05 
-1.0191189e-12 3.5760617e-13 -1.4104016e-05 
VELOCITY 3 48  float
0.0000000e+00 0.0000000e+00 -1.8864321e-05 
0.0000000e+00 0.0000000e+00 -1.8864317e-05 
0.0000000e+00 0.0000000e+00 -1.8864315e-05 
0.0000000e+00 0.0000000e+00 -1.8864304e-05 
0.0000000e+00 0.0000000e+00 -1.8863733e-05 
0.0000000e+00 0.0000000e+00 -1.8863760e-05 
0.0000000e+00 0.0000000e+00 -1.8863755e-05 
0.0000000e+00 0.0000000e+00 -1.8863728e-05 
0.0000000e+00 0.0000000e+00 -1.8864108e-05 
0.0000000e+00 0.0000000e+00 -1.8863944e-05 
0.0000000e+00 0.0000000e+00 -1.8863831e-05 
0.0000000e+00 0.0000000e+00 -1.8863755e-05 
0.0000000e+00 0.0000000e+00 -1.8864124e-05 
0.0000000e+00 0.0000000e+00 -1.8863968e-05 
0.0000000e+00 0.0000000e+00 -1.8863850e-05 
0.0000000e+00 0.0000000e+00 -1.8863784e-05 
0.0000000e+00 0.0000000e+00 -1.8864112e-05 
0.0000000e+00 0.0000000e+00 -1.8863961e-05 
0.0000000e+00 0.0000000e+00 -1.8863846e-05 
0.0000000e+00 0.0000000e+00 -1.8863782e-05 
0.0000000e+00 0.0000000e+00 -1.8864093e-05 
0.0000000e+00 0.0000000e+00 -1.8863935e-05 
0.0000000e+00 0.0000000e+00 -1.8863824e-05 
0.0000000e+00 0.0000000e+00 -1.8863755e-05 
-1.0280543e-12 1.5687136e-12 -1.8864310e-05 
0.0000000e+00 0.0000000e+00 -1.8864212e-05 
0.0000000e+00 0.0000000e+00 -1.8863751e-05 
0.0000000e+00 0.0000000e+00 -1.8863893e-05 
0.0000000e+00 0.0000000e+00 -1.8863799e-05 
0.0000000e+00 0.0000000e+00 -1.8864026e-05 
0.0000000e+00 0.0000000e+00 -1.8864212e-05 
0.0000000e+00 0.0000000e+00 -1.8863760e-05 
0.0000000e+00 0.0000000e+00 -1.8864035e-05 
0.0000000e+00 0.0000000e+00 -1.8863899e-05 
0.0000000e+00 0.0000000e+00 -1.8863813e-05 
0.0000000e+00 0.0000000e+00 -1.8864201e-05 
0.0000000e+00 0.0000000e+00 -1.8863748e-05 
0.0000000e+00 0.0000000e+00 -1.8864021e-05 
0.0000000e+00 0.0000000e+00 -1.8863882e-05 
0.0000000e+00 0.0000000e+00 -1.8863795e-05 
0.0000000e+00 0.0000000e+00 -1.8864197e-05 
0.0000000e+00 0.0000000e+00 -1.8863739e-05 
0.0000000e+00 0.0000000e+00 -1.8864012e-05 
0.0000000e+00 0.0000000e+00 -1.8863873e-05 
0.0000000e+00 0.0000000e+00 -1.8863780e-05 
5.2043409e-12 -1.0212333e-12 -1.8863751e-05 
1.3670836e-12 4.7941089e-13 -1.8863768e-05 
1.9385726e-12 7.8416364e-13 -1.8863768e-05 
CELL_DATA 113
FIELD FieldData 0
