# vtk DataFile Version 4.0
vtk output
ASCII
DATASET UNSTRUCTURED_GRID
POINTS 189 float
0.0000000e+00 0.0000000e+00 0.0000000e+00 
5.0000000e+00 0.0000000e+00 0.0000000e+00 
5.0000000e+00 1.0000000e+00 0.0000000e+00 
0.0000000e+00 1.0000000e+00 0.0000000e+00 
0.0000000e+00 0.0000000e+00 1.0000000e+01 
5.0000000e+00 0.0000000e+00 1.0000000e+01 
5.0000000e+00 1.0000000e+00 1.0000000e+01 
0.0000000e+00 1.0000000e+00 1.0000000e+01 
1.0000000e+00 0.0000000e+00 0.0000000e+00 
2.0000000e+00 0.0000000e+00 0.0000000e+00 
3.0000000e+00 0.0000000e+00 0.0000000e+00 
4.0000000e+00 0.0000000e+00 0.0000000e+00 
4.0000000e+00 1.0000000e+00 0.0000000e+00 
3.0000000e+00 1.0000000e+00 0.0000000e+00 
2.0000000e+00 1.0000000e+00 0.0000000e+00 
1.0000000e+00 1.0000000e+00 0.0000000e+00 
0.0000000e+00 0.0000000e+00 1.0000000e+00 
0.0000000e+00 0.0000000e+00 2.0000000e+00 
0.0000000e+00 0.0000000e+00 3.0000000e+00 
0.0000000e+00 0.0000000e+00 4.0000000e+00 
0.0000000e+00 0.0000000e+00 5.0000000e+00 
0.0000000e+00 0.0000000e+00 6.0000000e+00 
0.0000000e+00 0.0000000e+00 7.0000000e+00 
0.0000000e+00 0.0000000e+00 8.0000000e+00 
0.0000000e+00 0.0000000e+00 9.0000000e+00 
5.0000000e+00 0.0000000e+00 1.0000000e+00 
5.0000000e+00 0.0000000e+00 2.0000000e+00 
5.0000000e+00 0.0000000e+00 3.0000000e+00 
5.0000000e+00 0.0000000e+00 4.0000000e+00 
5.0000000e+00 0.0000000e+00 5.0000000e+00 
5.0000000e+00 0.0000000e+00 6.0000000e+00 
5.0000000e+00 0.0000000e+00 7.0000000e+00 
5.0000000e+00 0.0000000e+00 8.0000000e+00 
5.0000000e+00 0.0000000e+00 9.0000000e+00 
1.0000000e+00 0.0000000e+00 1.0000000e+01 
2.0000000e+00 0.0000000e+00 1.0000000e+01 
3.0000000e+00 0.0000000e+00 1.0000000e+01 
4.0000000e+00 0.0000000e+00 1.0000000e+01 
5.0000000e+00 1.0000000e+00 1.0000000e+00 
5.0000000e+00 1.0000000e+00 2.0000000e+00 
5.0000000e+00 1.0000000e+00 3.0000000e+00 
5.0000000e+00 1.0000000e+00 4.0000000e+00 
5.0000000e+00 1.0000000e+00 5.0000000e+00 
5.0000000e+00 1.0000000e+00 6.0000000e+00 
5.0000000e+00 1.0000000e+00 7.0000000e+00 
5.0000000e+00 1.0000000e+00 8.0000000e+00 
5.0000000e+00 1.0000000e+00 9.0000000e+00 
0.0000000e+00 1.0000000e+00 1.0000000e+00 
0.0000000e+00 1.0000000e+00 2.0000000e+00 
0.0000000e+00 1.0000000e+00 3.0000000e+00 
0.0000000e+00 1.0000000e+00 4.0000000e+00 
0.0000000e+00 1.0000000e+00 5.0000000e+00 
0.0000000e+00 1.0000000e+00 6.0000000e+00 
0.0000000e+00 1.0000000e+00 7.0000000e+00 
0.0000000e+00 1.0000000e+00 8.0000000e+00 
0.0000000e+00 1.0000000e+00 9.0000000e+00 
4.0000000e+00 1.0000000e+00 1.0000000e+01 
3.0000000e+00 1.0000000e+00 1.0000000e+01 
2.0000000e+00 1.0000000e+00 1.0000000e+01 
1.0000000e+00 1.0000000e+00 1.0000000e+01 
4.5000000e+00 5.0000000e-01 0.0000000e+00 
5.0000000e-01 5.0000000e-01 0.0000000e+00 
2.5000000e+00 5.0000000e-01 0.0000000e+00 
3.5000000e+00 5.0000000e-01 0.0000000e+00 
1.5000000e+00 5.0000000e-01 0.0000000e+00 
4.1822505e+00 0.0000000e+00 2.5515697e+00 
4.2017918e+00 0.0000000e+00 4.4725966e+00 
4.1114569e+00 0.0000000e+00 6.5092020e+00 
8.6602539e-01 0.0000000e+00 3.5000000e+00 
8.4778279e-01 0.0000000e+00 5.4684029e+00 
8.9629614e-01 0.0000000e+00 7.5867257e+00 
2.5566745e+00 0.0000000e+00 8.1853306e-01 
2.4918270e+00 0.0000000e+00 9.1386929e+00 
8.4677207e-01 0.0000000e+00 1.5042374e+00 
4.0943027e+00 0.0000000e+00 8.4081745e+00 
8.6281651e-01 0.0000000e+00 2.5007062e+00 
1.7315160e+00 0.0000000e+00 3.0001178e+00 
1.7319617e+00 0.0000000e+00 4.0000196e+00 
2.5980761e+00 0.0000000e+00 3.5000000e+00 
2.5536871e+00 0.0000000e+00 4.4963923e+00 
2.5928419e+00 0.0000000e+00 2.4239938e+00 
1.5037409e+00 0.0000000e+00 9.1535149e+00 
1.8433737e+00 0.0000000e+00 8.1858873e+00 
3.0000000e+00 0.0000000e+00 8.2679491e+00 
2.5000000e+00 0.0000000e+00 7.4019237e+00 
3.5042722e+00 0.0000000e+00 7.4271150e+00 
3.0310018e+00 0.0000000e+00 6.5282087e+00 
2.0373929e+00 0.0000000e+00 6.5307913e+00 
3.4767809e+00 0.0000000e+00 5.8031492e+00 
2.5452602e+00 0.0000000e+00 5.5720768e+00 
1.6456656e+00 0.0000000e+00 1.9697139e+00 
8.6297011e-01 0.0000000e+00 4.4947371e+00 
1.0111579e+00 0.0000000e+00 6.5282545e+00 
3.4994321e+00 0.0000000e+00 8.4691072e-01 
4.1860156e+00 0.0000000e+00 3.5040276e+00 
1.7320508e+00 0.0000000e+00 5.0000000e+00 
4.0544066e+00 0.0000000e+00 1.5781221e+00 
1.5817389e+00 0.0000000e+00 9.3943578e-01 
8.3166349e-01 0.0000000e+00 8.5090933e+00 
3.4686174e+00 0.0000000e+00 9.1752682e+00 
3.0709300e+00 0.0000000e+00 1.5799091e+00 
3.3927374e+00 0.0000000e+00 3.0399952e+00 
3.3826034e+00 0.0000000e+00 3.9747651e+00 
4.3420062e+00 0.0000000e+00 7.4688983e+00 
3.4023225e+00 0.0000000e+00 4.9314723e+00 
1.6740381e+00 0.0000000e+00 7.3014426e+00 
4.2715640e+00 0.0000000e+00 5.4758859e+00 
1.6225953e+00 0.0000000e+00 5.8104177e+00 
4.2679491e+00 0.0000000e+00 9.2679491e+00 
7.3205084e-01 0.0000000e+00 7.3205084e-01 
4.2679491e+00 0.0000000e+00 7.3205084e-01 
7.3205084e-01 0.0000000e+00 9.2679491e+00 
3.4586334e+00 0.0000000e+00 2.2347178e+00 
2.2895701e+00 0.0000000e+00 1.5463171e+00 
5.0000000e+00 5.0000000e-01 5.0000000e-01 
5.0000000e+00 5.0000000e-01 1.5000000e+00 
5.0000000e+00 5.0000000e-01 2.5000000e+00 
5.0000000e+00 5.0000000e-01 3.5000000e+00 
5.0000000e+00 5.0000000e-01 4.5000000e+00 
5.0000000e+00 5.0000000e-01 5.5000000e+00 
5.0000000e+00 5.0000000e-01 6.5000000e+00 
5.0000000e+00 5.0000000e-01 7.5000000e+00 
5.0000000e+00 5.0000000e-01 8.5000000e+00 
5.0000000e+00 5.0000000e-01 9.5000000e+00 
8.1774962e-01 1.0000000e+00 2.5515697e+00 
8.6602539e-01 1.0000000e+00 4.5000000e+00 
8.6602539e-01 1.0000000e+00 6.5000000e+00 
4.1339746e+00 1.0000000e+00 3.5000000e+00 
4.1339746e+00 1.0000000e+00 5.5000000e+00 
4.1386933e+00 1.0000000e+00 7.4918270e+00 
2.4433255e+00 1.0000000e+00 8.1853306e-01 
2.4598334e+00 1.0000000e+00 9.1815052e+00 
9.5951027e-01 1.0000000e+00 8.4305744e+00 
4.1532278e+00 1.0000000e+00 1.5042374e+00 
4.1339746e+00 1.0000000e+00 4.5000000e+00 
3.2679491e+00 1.0000000e+00 4.0000000e+00 
3.2679491e+00 1.0000000e+00 3.0000000e+00 
2.4019239e+00 1.0000000e+00 3.5000000e+00 
2.4019239e+00 1.0000000e+00 4.5000000e+00 
2.4070816e+00 1.0000000e+00 2.4239771e+00 
4.1347609e+00 1.0000000e+00 6.4986377e+00 
3.2688668e+00 1.0000000e+00 6.9984107e+00 
3.3635256e+00 1.0000000e+00 8.0039873e+00 
2.4210188e+00 1.0000000e+00 7.5764194e+00 
2.4379513e+00 1.0000000e+00 6.5124717e+00 
8.6602539e-01 1.0000000e+00 3.5000000e+00 
3.4452019e+00 1.0000000e+00 9.0743151e+00 
3.3536978e+00 1.0000000e+00 1.9695739e+00 
3.2679491e+00 1.0000000e+00 5.0000000e+00 
3.2742379e+00 1.0000000e+00 6.0015869e+00 
1.5005679e+00 1.0000000e+00 8.4691072e-01 
4.1514750e+00 1.0000000e+00 2.4956353e+00 
8.6602539e-01 1.0000000e+00 5.5000000e+00 
8.3806479e-01 1.0000000e+00 7.4450564e+00 
2.4222016e+00 1.0000000e+00 5.5011954e+00 
4.2025619e+00 1.0000000e+00 8.4730129e+00 
9.4559324e-01 1.0000000e+00 1.5781221e+00 
1.5253289e+00 1.0000000e+00 9.2040081e+00 
3.4181702e+00 1.0000000e+00 9.3941575e-01 
1.9290572e+00 1.0000000e+00 1.5799062e+00 
1.9406590e+00 1.0000000e+00 8.4301710e+00 
1.6339746e+00 1.0000000e+00 4.0000000e+00 
1.6339746e+00 1.0000000e+00 5.0000000e+00 
1.6276523e+00 1.0000000e+00 6.9622855e+00 
1.6339746e+00 1.0000000e+00 6.0000000e+00 
1.6159233e+00 1.0000000e+00 3.0393209e+00 
4.2679491e+00 1.0000000e+00 7.3205084e-01 
7.3205084e-01 1.0000000e+00 9.2679491e+00 
7.3205084e-01 1.0000000e+00 7.3205084e-01 
4.2679491e+00 1.0000000e+00 9.2679491e+00 
1.5688787e+00 1.0000000e+00 7.7397652e+00 
1.5430810e+00 1.0000000e+00 2.2345793e+00 
2.7102664e+00 1.0000000e+00 1.5462812e+00 
2.7093840e+00 1.0000000e+00 8.4487514e+00 
0.0000000e+00 5.0000000e-01 9.5000000e+00 
0.0000000e+00 5.0000000e-01 1.5000000e+00 
0.0000000e+00 5.0000000e-01 2.5000000e+00 
0.0000000e+00 5.0000000e-01 3.5000000e+00 
0.0000000e+00 5.0000000e-01 4.5000000e+00 
0.0000000e+00 5.0000000e-01 5.5000000e+00 
0.0000000e+00 5.0000000e-01 6.5000000e+00 
0.0000000e+00 5.0000000e-01 7.5000000e+00 
0.0000000e+00 5.0000000e-01 8.5000000e+00 
0.0000000e+00 5.0000000e-01 5.0000000e-01 
5.0000000e-01 5.0000000e-01 1.0000000e+01 
1.5000000e+00 5.0000000e-01 1.0000000e+01 
3.5000000e+00 5.0000000e-01 1.0000000e+01 
4.5000000e+00 5.0000000e-01 1.0000000e+01 
2.5000000e+00 5.0000000e-01 1.0000000e+01 

CELLS 491 2455
4 52 179 152 126
4 50 145 91 177
4 145 68 91 177
4 91 19 178 50
4 91 19 50 177
4 50 178 91 125
4 19 91 68 177
4 75 73 17 176
4 127 117 41 94
4 94 117 41 66
4 94 127 117 65
4 124 18 68 177
4 35 131 157 185
4 127 40 117 65
4 131 58 157 185
4 32 121 103 155
4 68 145 124 177
4 32 45 121 155
4 32 45 155 122
4 51 178 125 69
4 121 103 155 129
4 66 94 117 28
4 35 58 131 185
4 35 58 188 131
4 75 73 176 156
4 176 73 17 156
4 115 39 133 96
4 52 21 126 180
4 21 52 126 179
4 152 179 21 126
4 103 140 44 120
4 81 35 157 185
4 175 17 73 156
4 125 178 91 69
4 41 28 66 117
4 28 41 66 118
4 180 22 126 153
4 156 176 75 124
4 119 106 43 128
4 49 18 124 177
4 40 27 65 116
4 18 49 124 176
4 27 40 65 117
4 65 117 94 27
4 155 45 121 129
4 119 106 30 43
4 43 106 30 120
4 39 116 151 96
4 51 20 69 179
4 51 20 178 69
4 42 106 134 118
4 186 99 36 57
4 36 99 188 57
4 134 41 118 66
4 151 116 65 96
4 51 152 179 69
4 48 176 17 156
4 39 26 96 115
4 26 39 96 116
4 17 175 48 156
4 176 18 75 124
4 118 106 134 66
4 178 20 91 69
4 151 116 40 65
4 93 63 10 71
4 14 64 130 150
4 10 13 62 71
4 10 13 71 63
4 14 9 62 130
4 14 9 130 64
4 126 53 180 153
4 49 124 145 177
4 26 65 116 96
4 156 48 176 124
4 130 62 13 71
4 130 9 62 71
4 21 179 152 69
4 130 64 97 150
4 158 63 93 71
4 97 9 64 130
4 63 158 13 71
4 29 42 106 119
4 42 29 106 118
4 103 67 140 120
4 57 186 99 146
4 22 53 153 180
4 53 22 153 181
4 67 30 106 120
4 122 32 74 155
4 22 180 126 92
4 128 119 106 42
4 23 181 54 70
4 54 182 23 70
4 29 106 118 66
4 91 145 50 125
4 129 121 103 44
4 31 44 103 121
4 44 31 103 120
4 35 72 131 188
4 126 180 21 92
4 99 188 72 36
4 54 181 153 70
4 70 182 23 98
4 41 127 94 66
4 182 54 132 70
4 95 161 91 162
4 161 95 91 77
4 35 157 131 81
4 127 102 94 66
4 70 132 182 98
4 68 75 18 124
4 127 41 134 66
4 161 125 91 162
4 102 127 134 66
4 145 91 68 161
4 40 127 151 65
4 91 145 125 161
4 153 181 22 70
4 161 77 68 165
4 51 125 152 69
4 68 75 124 165
4 135 127 102 101
4 151 133 39 96
4 67 103 31 120
4 140 129 103 44
4 124 145 68 165
4 157 160 131 81
4 94 101 127 65
4 101 151 127 65
4 68 145 161 165
4 127 134 135 102
4 77 68 91 161
4 134 128 106 42
4 162 95 161 138
4 95 77 161 138
4 21 152 126 69
4 77 76 68 165
4 141 140 86 149
4 148 154 138 79
4 127 135 136 101
4 102 134 135 104
4 162 125 91 69
4 85 129 140 141
4 101 127 102 94
4 88 140 128 149
4 134 106 128 104
4 149 88 89 148
4 125 162 152 69
4 95 138 154 79
4 75 68 76 165
4 104 134 106 66
4 148 89 154 79
4 136 147 112 80
4 139 90 76 171
4 140 67 88 128
4 154 144 164 87
4 103 74 32 155
4 151 127 136 101
4 75 171 124 165
4 80 137 136 139
4 101 112 151 65
4 137 80 136 78
4 91 95 162 69
4 140 67 86 149
4 150 64 109 168
4 93 63 166 110
4 137 76 139 80
4 80 137 76 78
4 171 75 76 165
4 102 78 135 101
4 133 166 115 110
4 148 135 134 104
4 112 151 136 101
4 169 122 108 155
4 153 22 126 92
4 175 73 109 168
4 131 72 35 81
4 97 9 130 71
4 158 130 13 71
4 128 148 134 104
4 162 95 154 107
4 104 102 134 66
4 99 186 108 169
4 86 67 140 141
4 138 162 95 154
4 165 161 77 137
4 77 137 138 79
4 160 157 132 81
4 171 90 75 156
4 135 148 79 104
4 140 67 85 141
4 164 162 154 107
4 77 76 165 137
4 149 89 154 148
4 89 95 154 79
4 78 136 135 101
4 67 106 88 128
4 112 147 151 96
4 135 148 138 79
4 102 135 79 104
4 143 163 144 84
4 75 171 156 124
4 148 128 88 104
4 97 113 130 159
4 71 158 172 100
4 154 144 87 89
4 72 131 160 81
4 87 144 163 84
4 92 21 126 69
4 162 152 69 107
4 109 97 64 150
4 166 158 63 93
4 65 112 151 96
4 92 163 153 105
4 149 128 88 148
4 186 99 146 169
4 152 162 164 107
4 84 143 85 141
4 96 133 115 110
4 168 175 73 156
4 72 99 173 146
4 155 103 74 129
4 171 76 139 165
4 137 161 77 138
4 111 182 167 98
4 67 88 86 149
4 95 162 69 107
4 154 144 89 149
4 167 59 184 34
4 167 59 34 185
4 80 112 136 101
4 79 148 89 104
4 88 89 148 104
4 89 144 86 149
4 139 113 90 159
4 172 147 80 100
4 165 76 139 137
4 137 77 78 79
4 105 87 163 84
4 147 151 136 112
4 95 77 138 79
4 75 76 90 171
4 84 85 143 142
4 173 99 83 146
4 78 80 136 101
4 142 85 143 141
4 88 67 140 149
4 130 113 97 71
4 172 130 158 71
4 153 132 54 70
4 74 108 122 155
4 84 86 144 141
4 79 78 135 102
4 80 113 172 100
4 159 139 113 172
4 82 160 132 81
4 166 133 93 110
4 169 108 122 46
4 16 168 175 109
4 16 168 109 183
4 61 109 15 168
4 64 15 109 168
4 111 167 34 185
4 166 38 115 110
4 34 184 167 111
4 38 166 114 110
4 169 123 108 46
4 187 108 37 169
4 186 37 108 169
4 150 109 73 168
4 22 153 70 92
4 82 143 160 173
4 144 143 84 141
4 147 136 139 80
4 139 76 90 80
4 73 75 90 156
4 143 82 83 173
4 72 99 83 173
4 105 163 143 84
4 70 170 132 82
4 95 154 107 89
4 128 106 88 104
4 147 133 151 96
4 172 139 113 80
4 173 131 72 146
4 80 147 112 100
4 90 139 159 171
4 153 126 163 92
4 72 82 160 173
4 182 132 167 98
4 56 187 37 169
4 37 186 56 169
4 108 33 122 46
4 33 108 123 46
4 153 70 92 105
4 159 130 97 150
4 71 93 158 100
4 74 142 155 129
4 157 167 132 81
4 15 8 109 61
4 8 15 109 64
4 12 11 60 110
4 63 11 12 110
4 139 90 113 80
4 172 147 139 80
4 74 103 85 129
4 38 115 110 25
4 16 47 168 183
4 110 114 38 25
4 47 16 168 175
4 158 166 133 93
4 96 93 133 110
4 135 137 136 78
4 137 77 76 78
4 24 55 111 182
4 55 24 111 174
4 109 73 97 150
4 168 73 150 156
4 142 74 85 129
4 84 143 83 142
4 132 98 82 81
4 83 82 143 84
4 170 153 163 105
4 98 167 111 81
4 60 166 12 110
4 12 166 63 110
4 88 89 86 149
4 55 111 167 174
4 55 111 182 167
4 160 131 72 173
4 72 160 82 81
4 159 113 130 172
4 71 172 113 100
4 143 170 105 82
4 83 85 84 142
4 113 130 172 71
4 67 86 85 141
4 86 87 144 89
4 98 70 132 82
4 98 132 167 81
4 147 112 100 96
4 171 159 90 156
4 143 170 163 105
4 82 72 83 173
4 160 132 170 82
4 86 144 87 84
4 170 132 153 70
4 59 167 157 185
4 142 173 83 146
4 46 122 169 155
4 15 64 150 168
4 11 63 93 110
4 166 38 133 115
4 85 86 84 141
4 73 109 16 175
4 153 170 70 105
4 82 105 143 84
4 158 147 172 100
4 113 97 90 159
4 173 83 143 142
4 170 143 160 82
4 37 99 186 108
4 81 111 34 185
4 184 174 167 111
4 60 114 166 110
4 61 183 109 168
4 108 187 123 169
4 182 111 24 98
4 105 170 70 82
4 86 144 141 149
4 163 92 87 105
4 144 163 164 87
4 186 146 56 169
4 74 85 83 142
4 85 142 129 141
4 18 19 68 177
4 50 49 145 177
4 125 50 178 51
4 52 152 179 51
4 180 52 53 126
4 128 43 119 42
4 134 41 42 118
4 43 44 140 120
4 117 41 40 127
4 97 8 109 64
4 12 166 158 63
4 17 18 75 176
4 129 45 121 44
4 47 175 168 156
4 110 115 96 25
4 19 20 91 178
4 167 55 132 182
4 64 14 15 150
4 63 10 11 93
4 38 39 133 115
4 73 16 17 175
4 108 33 74 122
4 146 57 186 56
4 151 40 116 39
4 5 108 187 123
4 114 166 2 60
4 123 187 6 169
4 183 109 0 61
4 174 167 7 184
4 1 114 60 110
4 3 183 61 168
4 184 4 174 111
4 180 22 21 92
4 97 9 8 64
4 13 12 158 63
4 175 47 48 156
4 115 26 96 25
4 55 54 132 182
4 81 34 35 185
4 28 94 117 27
4 67 31 30 120
4 59 157 58 185
4 36 99 186 37
4 153 53 181 54
4 62 13 14 130
4 62 9 10 71
4 188 131 58 57
4 48 176 124 49
4 27 65 116 26
4 33 32 74 122
4 122 46 45 155
4 23 182 24 98
4 66 118 29 28
4 23 22 181 70
4 188 35 72 36
4 169 6 123 46
4 111 4 174 24
4 0 16 109 183
4 166 2 38 114
4 61 15 3 168
4 108 37 5 187
4 60 11 1 110
4 167 59 7 184
4 4 184 34 111
4 179 21 20 69
4 0 3 183 61
4 7 4 174 184
4 6 5 187 123
4 2 1 114 60
4 56 6 187 169
4 108 5 33 123
4 109 8 0 61
4 166 12 2 60
4 119 106 29 30
4 168 3 183 47
4 110 1 114 25
4 167 7 55 174
4 103 31 121 32
4 154 107 87 164
4 154 87 107 89
4 67 128 43 106
4 43 128 67 140
4 43 120 67 106
4 67 120 43 140
4 140 103 85 67
4 140 85 103 129
4 126 69 107 92
4 107 69 126 152
4 126 164 107 152
4 79 137 135 78
4 79 135 137 138
4 146 57 188 99
4 188 57 146 131
4 188 72 146 99
4 146 72 188 131
4 147 133 100 158
4 147 100 133 96
4 93 100 133 158
4 93 133 100 96
4 90 73 159 97
4 90 159 73 156
4 150 159 73 97
4 150 73 159 156
4 99 169 155 146
4 155 169 99 108
4 99 74 155 108
4 81 167 185 157
4 81 185 167 111
4 126 163 87 164
4 87 163 126 92
4 87 107 126 164
4 126 107 87 92
4 99 83 142 74
4 142 83 99 146
4 142 155 99 74
4 99 155 142 146

CELL_TYPES 491
10
10
10
10
10
10
10
10
10
10
10
10
10
10
10
10
10
10
10
10
10
10
10
10
10
10
10
10
10
10
10
10
10
10
10
10
10
10
10
10
10
10
10
10
10
10
10
10
10
10
10
10
10
10
10
10
10
10
10
10
10
10
10
10
10
10
10
10
10
10
10
10
10
10
10
10
10
10
10
10
10
10
10
10
10
10
10
10
10
10
10
10
10
10
10
10
10
10
10
10
10
10
10
10
10
10
10
10
10
10
10
10
10
10
10
10
10
10
10
10
10
10
10
10
10
10
10
10
10
10
10
10
10
10
10
10
10
10
10
10
10
10
10
10
10
10
10
10
10
10
10
10
10
10
10
10
10
10
10
10
10
10
10
10
10
10
10
10
10
10
10
10
10
10
10
10
10
10
10
10
10
10
10
10
10
10
10
10
10
10
10
10
10
10
10
10
10
10
10
10
10
10
10
10
10
10
10
10
10
10
10
10
10
10
10
10
10
10
10
10
10
10
10
10
10
10
10
10
10
10
10
10
10
10
10
10
10
10
10
10
10
10
10
10
10
10
10
10
10
10
10
10
10
10
10
10
10
10
10
10
10
10
10
10
10
10
10
10
10
10
10
10
10
10
10
10
10
10
10
10
10
10
10
10
10
10
10
10
10
10
10
10
10
10
10
10
10
10
10
10
10
10
10
10
10
10
10
10
10
10
10
10
10
10
10
10
10
10
10
10
10
10
10
10
10
10
10
10
10
10
10
10
10
10
10
10
10
10
10
10
10
10
10
10
10
10
10
10
10
10
10
10
10
10
10
10
10
10
10
10
10
10
10
10
10
10
10
10
10
10
10
10
10
10
10
10
10
10
10
10
10
10
10
10
10
10
10
10
10
10
10
10
10
10
10
10
10
10
10
10
10
10
10
10
10
10
10
10
10
10
10
10
10
10
10
10
10
10
10
10
10
10
10
10
10
10
10
10
10
10
10
10
10
10
10
10
10
10
10
10
10
10
10
10
10
10
10
10
10
10
10
10
10
10
10
10
10
10
10
10
10
10
10
10
10
10
10
10
10
10
10
10
10
10
10
10
10
10
10
10
10
10
10
10
10
10
10
10
10
10
10
POINT_DATA 189
FIELD FieldData 2
DISPLACEMENT 3 189  float
0.0000000e+00 0.0000000e+00 0.0000000e+00 
0.0000000e+00 0.0000000e+00 0.0000000e+00 
0.0000000e+00 -2.7625205e-10 -5.8127114e-10 
0.0000000e+00 3.8952557e-09 1.3450792e-08 
0.0000000e+00 0.0000000e+00 0.0000000e+00 
0.0000000e+00 0.0000000e+00 0.0000000e+00 
0.0000000e+00 6.9045121e-12 -1.8270472e-11 
0.0000000e+00 1.3085297e-11 -3.6007891e-11 
0.0000000e+00 0.0000000e+00 0.0000000e+00 
0.0000000e+00 0.0000000e+00 0.0000000e+00 
0.0000000e+00 0.0000000e+00 0.0000000e+00 
0.0000000e+00 0.0000000e+00 0.0000000e+00 
0.0000000e+00 -5.0268734e-10 -9.8985597e-10 
0.0000000e+00 -2.6594185e-09 -4.0289279e-09 
0.0000000e+00 -1.5177485e-09 -4.6580499e-09 
0.0000000e+00 -1.5596627e-09 4.5611923e-09 
0.0000000e+00 0.0000000e+00 0.0000000e+00 
0.0000000e+00 0.0000000e+00 0.0000000e+00 
0.0000000e+00 0.0000000e+00 0.0000000e+00 
0.0000000e+00 0.0000000e+00 0.0000000e+00 
0.0000000e+00 0.0000000e+00 0.0000000e+00 
0.0000000e+00 0.0000000e+00 0.0000000e+00 
0.0000000e+00 0.0000000e+00 0.0000000e+00 
0.0000000e+00 0.0000000e+00 0.0000000e+00 
0.0000000e+00 0.0000000e+00 0.0000000e+00 
0.0000000e+00 0.0000000e+00 0.0000000e+00 
0.0000000e+00 0.0000000e+00 0.0000000e+00 
0.0000000e+00 0.0000000e+00 0.0000000e+00 
0.0000000e+00 0.0000000e+00 0.0000000e+00 
0.0000000e+00 0.0000000e+00 0.0000000e+00 
0.0000000e+00 0.0000000e+00 0.0000000e+00 
0.0000000e+00 0.0000000e+00 0.0000000e+00 
0.0000000e+00 0.0000000e+00 0.0000000e+00 
0.0000000e+00 0.0000000e+00 0.0000000e+00 
0.0000000e+00 0.0000000e+00 0.0000000e+00 
0.0000000e+00 0.0000000e+00 0.0000000e+00 
0.0000000e+00 0.0000000e+00 0.0000000e+00 
0.0000000e+00 0.0000000e+00 0.0000000e+00 
0.0000000e+00 -2.3561458e-10 -4.8825882e-10 
0.0000000e+00 -1.2796905e-10 -6.9105367e-11 
0.0000000e+00 -8.7421959e-11 1.4871214e-10 
0.0000000e+00 -3.9036732e-11 1.4843272e-10 
0.0000000e+00 1.0634629e-11 5.1983862e-11 
0.0000000e+00 2.8210491e-11 -1.8849266e-11 
0.0000000e+00 5.1137571e-12 -3.7282122e-11 
0.0000000e+00 7.1125419e-13 -2.2652921e-11 
0.0000000e+00 2.4953067e-12 -2.1689745e-11 
0.0000000e+00 1.3401371e-08 4.0290075e-08 
0.0000000e+00 -1.5184968e-06 2.8244530e-08 
0.0000000e+00 -4.6328901e-07 -4.3628678e-08 
0.0000000e+00 -2.1694188e-08 -1.8274958e-08 
0.0000000e+00 -1.0080553e-09 -5.1550373e-09 
0.0000000e+00 -4.6770369e-11 -1.5664455e-09 
0.0000000e+00 3.6048282e-11 -3.5087325e-10 
0.0000000e+00 1.4638150e-11 -1.2769225e-10 
0.0000000e+00 5.3560004e-12 -5.2356609e-11 
0.0000000e+00 8.6299032e-12 -2.3015458e-11 
0.0000000e+00 9.9651632e-12 -3.3111673e-11 
0.0000000e+00 9.2170672e-12 -3.4267280e-11 
0.0000000e+00 1.3930028e-11 -4.1972866e-11 
0.0000000e+00 -2.8952887e-10 -4.2812506e-10 
0.0000000e+00 1.4559536e-09 4.2411008e-09 
0.0000000e+00 -1.9571920e-09 -3.5260677e-09 
0.0000000e+00 -7.5343654e-10 -1.0198663e-09 
0.0000000e+00 -3.6765369e-09 -5.1239475e-09 
0.0000000e+00 0.0000000e+00 0.0000000e+00 
0.0000000e+00 0.0000000e+00 0.0000000e+00 
0.0000000e+00 0.0000000e+00 0.0000000e+00 
0.0000000e+00 0.0000000e+00 0.0000000e+00 
0.0000000e+00 0.0000000e+00 0.0000000e+00 
0.0000000e+00 0.0000000e+00 0.0000000e+00 
0.0000000e+00 0.0000000e+00 0.0000000e+00 
0.0000000e+00 0.0000000e+00 0.0000000e+00 
0.0000000e+00 0.0000000e+00 0.0000000e+00 
0.0000000e+00 0.0000000e+00 0.0000000e+00 
0.0000000e+00 0.0000000e+00 0.0000000e+00 
0.0000000e+00 0.0000000e+00 0.0000000e+00 
0.0000000e+00 0.0000000e+00 0.0000000e+00 
0.0000000e+00 0.0000000e+00 0.0000000e+00 
0.0000000e+00 0.0000000e+00 0.0000000e+00 
0.0000000e+00 0.0000000e+00 0.0000000e+00 
0.0000000e+00 0.0000000e+00 0.0000000e+00 
0.0000000e+00 0.0000000e+00 0.0000000e+00 
0.0000000e+00 0.0000000e+00 0.0000000e+00 
0.0000000e+00 0.0000000e+00 0.0000000e+00 
0.0000000e+00 0.0000000e+00 0.0000000e+00 
0.0000000e+00 0.0000000e+00 0.0000000e+00 
0.0000000e+00 0.0000000e+00 0.0000000e+00 
0.0000000e+00 0.0000000e+00 0.0000000e+00 
0.0000000e+00 0.0000000e+00 0.0000000e+00 
0.0000000e+00 0.0000000e+00 0.0000000e+00 
0.0000000e+00 0.0000000e+00 0.0000000e+00 
0.0000000e+00 0.0000000e+00 0.0000000e+00 
0.0000000e+00 0.0000000e+00 0.0000000e+00 
0.0000000e+00 0.0000000e+00 0.0000000e+00 
0.0000000e+00 0.0000000e+00 0.0000000e+00 
0.0000000e+00 0.0000000e+00 0.0000000e+00 
0.0000000e+00 0.0000000e+00 0.0000000e+00 
0.0000000e+00 0.0000000e+00 0.0000000e+00 
0.0000000e+00 0.0000000e+00 0.0000000e+00 
0.0000000e+00 0.0000000e+00 0.0000000e+00 
0.0000000e+00 0.0000000e+00 0.0000000e+00 
0.0000000e+00 0.0000000e+00 0.0000000e+00 
0.0000000e+00 0.0000000e+00 0.0000000e+00 
0.0000000e+00 0.0000000e+00 0.0000000e+00 
0.0000000e+00 0.0000000e+00 0.0000000e+00 
0.0000000e+00 0.0000000e+00 0.0000000e+00 
0.0000000e+00 0.0000000e+00 0.0000000e+00 
0.0000000e+00 0.0000000e+00 0.0000000e+00 
0.0000000e+00 0.0000000e+00 0.0000000e+00 
0.0000000e+00 0.0000000e+00 0.0000000e+00 
0.0000000e+00 0.0000000e+00 0.0000000e+00 
0.0000000e+00 0.0000000e+00 0.0000000e+00 
0.0000000e+00 0.0000000e+00 0.0000000e+00 
0.0000000e+00 -1.9102875e-10 -2.8329350e-10 
0.0000000e+00 -1.3496664e-10 -5.4438620e-11 
0.0000000e+00 -9.9134805e-11 2.1486223e-11 
0.0000000e+00 -3.6072631e-11 7.3239997e-11 
0.0000000e+00 -9.0508226e-12 5.7583743e-11 
0.0000000e+00 1.6900235e-11 1.4185794e-11 
0.0000000e+00 1.8231977e-11 -9.7621650e-12 
0.0000000e+00 5.3544426e-12 -1.5031346e-11 
0.0000000e+00 2.7889761e-12 -1.3341059e-11 
0.0000000e+00 3.3466847e-12 -9.9464230e-12 
-4.2423181e-09 -7.3730227e-08 -4.1308339e-09 
-3.4727696e-09 -1.8752286e-09 -3.9406522e-09 
-2.7496505e-10 3.8175692e-11 -6.3540390e-10 
1.1506376e-10 -7.0776433e-11 2.4359464e-10 
-1.4763950e-10 2.7796956e-11 -1.9615398e-11 
-2.6890329e-11 3.8124239e-12 -4.3464867e-11 
5.8399747e-09 -5.2010658e-09 -5.6918581e-09 
-7.9251371e-12 3.1217433e-13 -4.0486722e-11 
-1.4135670e-11 1.7157711e-11 -8.9927475e-11 
8.6848256e-10 -2.4659069e-10 -4.0762935e-10 
-5.4365439e-11 -1.0377182e-11 1.2539152e-10 
-1.1699150e-10 -1.2615767e-10 4.0050877e-10 
8.1344870e-10 -4.2353637e-10 6.1492250e-10 
-2.9520275e-10 -1.4271011e-09 1.1118001e-09 
-2.0936450e-09 -4.9369477e-11 -6.0108940e-10 
5.0391433e-09 -5.6436855e-09 1.6158793e-09 
-1.1024592e-10 2.0151329e-11 -6.4586815e-11 
-1.2160695e-10 8.2914378e-12 -9.6436838e-11 
-2.9822405e-11 6.1877725e-12 -6.4795121e-11 
-6.8612664e-11 2.3348448e-12 -1.1599090e-10 
-2.9000788e-10 3.5178097e-11 -2.8555888e-10 
-1.7379090e-08 1.7143077e-09 -1.8123529e-09 
-1.1164217e-11 1.3399529e-12 -3.9816053e-11 
2.1929414e-09 -6.1250932e-10 -2.5010538e-10 
-4.8047361e-10 1.0140130e-10 -1.2915856e-10 
-2.1721294e-10 4.4880290e-11 -1.1917083e-10 
9.7722062e-09 -1.7529716e-08 -8.6962135e-09 
5.8068922e-10 -1.2019065e-10 1.7176172e-10 
-6.6208222e-10 -3.0762629e-10 -1.7561110e-09 
-9.6409297e-11 2.5415628e-11 -2.5928276e-10 
-6.9041850e-10 4.4802530e-11 -5.1502230e-10 
-1.4963352e-11 2.0426306e-12 -3.1685224e-11 
6.2304004e-08 -2.3431056e-07 2.2280453e-08 
-4.9154088e-12 2.0106497e-12 -4.0746191e-11 
1.8810768e-09 -6.6968248e-10 -1.6657478e-09 
2.1353200e-08 -3.8642060e-08 -4.7536002e-09 
-2.2060943e-11 3.6055050e-12 -6.4924052e-11 
-5.4853153e-09 -3.9903245e-10 -2.5901410e-09 
-1.7579160e-09 -1.8330058e-10 -1.5082141e-09 
-1.7725840e-10 3.1204057e-11 -3.1846140e-10 
-4.4895998e-10 -2.1060789e-11 -6.3230843e-10 
-1.5349605e-09 -1.0091168e-08 8.9970614e-10 
5.0291038e-10 -3.3383318e-10 -7.2313022e-10 
-2.2892675e-12 8.3924681e-12 -5.0696197e-11 
5.4657950e-10 -6.2809793e-09 8.2572482e-09 
-5.0864946e-12 2.9662874e-12 -2.4632758e-11 
-6.7489431e-11 1.8480795e-11 -1.6279901e-10 
8.8196535e-09 -3.2131283e-08 2.8579299e-09 
5.4813003e-09 -3.3440166e-09 -1.5195651e-09 
-2.1245485e-11 2.4453499e-12 -5.9466695e-11 
0.0000000e+00 5.8756125e-12 -2.2530927e-11 
0.0000000e+00 -2.0801117e-07 -8.2286604e-08 
0.0000000e+00 -4.6092180e-07 5.9654830e-08 
0.0000000e+00 -1.2262434e-07 2.3208708e-08 
0.0000000e+00 -4.3393986e-09 -5.4885896e-09 
0.0000000e+00 -1.0431309e-10 -1.8207479e-09 
0.0000000e+00 6.3554571e-11 -3.7214534e-10 
0.0000000e+00 2.1263394e-11 -9.3272688e-11 
0.0000000e+00 1.0643478e-11 -4.5167356e-11 
0.0000000e+00 3.9148711e-09 9.5703792e-09 
0.0000000e+00 1.2046203e-11 -2.3197538e-11 
0.0000000e+00 7.4579466e-12 -1.9038512e-11 
0.0000000e+00 7.9214925e-12 -1.4362243e-11 
0.0000000e+00 6.2347879e-12 -1.1656448e-11 
0.0000000e+00 7.3010617e-12 -1.6797012e-11 
TOTAL_DISPLACEMENT 3 189  float
0.0000000e+00 0.0000000e+00 0.0000000e+00 
0.0000000e+00 0.0000000e+00 0.0000000e+00 
0.0000000e+00 0.0000000e+00 0.0000000e+00 
0.0000000e+00 0.0000000e+00 0.0000000e+00 
0.0000000e+00 0.0000000e+00 0.0000000e+00 
0.0000000e+00 0.0000000e+00 0.0000000e+00 
0.0000000e+00 0.0000000e+00 0.0000000e+00 
0.0000000e+00 0.0000000e+00 0.0000000e+00 
0.0000000e+00 0.0000000e+00 0.0000000e+00 
0.0000000e+00 0.0000000e+00 0.0000000e+00 
0.0000000e+00 0.0000000e+00 0.0000000e+00 
0.0000000e+00 0.0000000e+00 0.0000000e+00 
0.0000000e+00 0.0000000e+00 0.0000000e+00 
0.0000000e+00 0.0000000e+00 0.0000000e+00 
0.0000000e+00 0.0000000e+00 0.0000000e+00 
0.0000000e+00 0.0000000e+00 0.0000000e+00 
0.0000000e+00 0.0000000e+00 0.0000000e+00 
0.0000000e+00 0.0000000e+00 0.0000000e+00 
0.0000000e+00 0.0000000e+00 0.0000000e+00 
0.0000000e+00 0.0000000e+00 0.0000000e+00 
0.0000000e+00 0.0000000e+00 0.0000000e+00 
0.0000000e+00 0.0000000e+00 0.0000000e+00 
0.0000000e+00 0.0000000e+00 0.0000000e+00 
0.0000000e+00 0.0000000e+00 0.0000000e+00 
0.0000000e+00 0.0000000e+00 0.0000000e+00 
0.0000000e+00 0.0000000e+00 0.0000000e+00 
0.0000000e+00 0.0000000e+00 0.0000000e+00 
0.0000000e+00 0.0000000e+00 0.0000000e+00 
0.0000000e+00 0.0000000e+00 0.0000000e+00 
0.0000000e+00 0.0000000e+00 0.0000000e+00 
0.0000000e+00 0.0000000e+00 0.0000000e+00 
0.0000000e+00 0.0000000e+00 0.0000000e+00 
0.0000000e+00 0.0000000e+00 0.0000000e+00 
0.0000000e+00 0.0000000e+00 0.0000000e+00 
0.0000000e+00 0.0000000e+00 0.0000000e+00 
0.0000000e+00 0.0000000e+00 0.0000000e+00 
0.0000000e+00 0.0000000e+00 0.0000000e+00 
0.0000000e+00 0.0000000e+00 0.0000000e+00 
0.0000000e+00 0.0000000e+00 0.0000000e+00 
0.0000000e+00 0.0000000e+00 0.0000000e+00 
0.0000000e+00 0.0000000e+00 0.0000000e+00 
0.0000000e+00 0.0000000e+00 0.0000000e+00 
0.0000000e+00 0.0000000e+00 0.0000000e+00 
0.0000000e+00 0.0000000e+00 0.0000000e+00 
0.0000000e+00 0.0000000e+00 0.0000000e+00 
0.0000000e+00 0.0000000e+00 0.0000000e+00 
0.0000000e+00 0.0000000e+00 0.0000000e+00 
0.0000000e+00 0.0000000e+00 0.0000000e+00 
0.0000000e+00 0.0000000e+00 0.0000000e+00 
0.0000000e+00 0.0000000e+00 0.0000000e+00 
0.0000000e+00 0.0000000e+00 0.0000000e+00 
0.0000000e+00 0.0000000e+00 0.0000000e+00 
0.0000000e+00 0.0000000e+00 0.0000000e+00 
0.0000000e+00 0.0000000e+00 0.0000000e+00 
0.0000000e+00 0.0000000e+00 0.0000000e+00 
0.0000000e+00 0.0000000e+00 0.0000000e+00 
0.0000000e+00 0.0000000e+00 0.0000000e+00 
0.0000000e+00 0.0000000e+00 0.0000000e+00 
0.0000000e+00 0.0000000e+00 0.0000000e+00 
0.0000000e+00 0.0000000e+00 0.0000000e+00 
0.0000000e+00 0.0000000e+00 0.0000000e+00 
0.0000000e+00 0.0000000e+00 0.0000000e+00 
0.0000000e+00 0.0000000e+00 0.0000000e+00 
0.0000000e+00 0.0000000e+00 0.0000000e+00 
0.0000000e+00 0.0000000e+00 0.0000000e+00 
0.0000000e+00 0.0000000e+00 0.0000000e+00 
0.0000000e+00 0.0000000e+00 0.0000000e+00 
0.0000000e+00 0.0000000e+00 0.0000000e+00 
0.0000000e+00 0.0000000e+00 0.0000000e+00 
0.0000000e+00 0.0000000e+00 0.0000000e+00 
0.0000000e+00 0.0000000e+00 0.0000000e+00 
0.0000000e+00 0.0000000e+00 0.0000000e+00 
0.0000000e+00 0.0000000e+00 0.0000000e+00 
0.0000000e+00 0.0000000e+00 0.0000000e+00 
0.0000000e+00 0.0000000e+00 0.0000000e+00 
0.0000000e+00 0.0000000e+00 0.0000000e+00 
0.0000000e+00 0.0000000e+00 0.0000000e+00 
0.0000000e+00 0.0000000e+00 0.0000000e+00 
0.0000000e+00 0.0000000e+00 0.0000000e+00 
0.0000000e+00 0.0000000e+00 0.0000000e+00 
0.0000000e+00 0.0000000e+00 0.0000000e+00 
0.0000000e+00 0.0000000e+00 0.0000000e+00 
0.0000000e+00 0.0000000e+00 0.0000000e+00 
0.0000000e+00 0.0000000e+00 0.0000000e+00 
0.0000000e+00 0.0000000e+00 0.0000000e+00 
0.0000000e+00 0.0000000e+00 0.0000000e+00 
0.0000000e+00 0.0000000e+00 0.0000000e+00 
0.0000000e+00 0.0000000e+00 0.0000000e+00 
0.0000000e+00 0.0000000e+00 0.0000000e+00 
0.0000000e+00 0.0000000e+00 0.0000000e+00 
0.0000000e+00 0.0000000e+00 0.0000000e+00 
0.0000000e+00 0.0000000e+00 0.0000000e+00 