# vtk DataFile Version 4.0
vtk output
ASCII
DATASET UNSTRUCTURED_GRID
POINTS 8402 float
0.0000000e+00 -1.0000000e-01 0.0000000e+00 
1.0000000e+00 -1.0000000e-01 0.0000000e+00 
1.0000000e+00 0.0000000e+00 0.0000000e+00 
0.0000000e+00 0.0000000e+00 0.0000000e+00 
0.0000000e+00 -1.0000000e-01 5.0000000e+00 
1.0000000e+00 -1.0000000e-01 5.0000000e+00 
1.0000000e+00 0.0000000e+00 5.0000000e+00 
0.0000000e+00 0.0000000e+00 5.0000000e+00 
1.0000000e-01 -1.0000000e-01 0.0000000e+00 
2.0000000e-01 -1.0000000e-01 0.0000000e+00 
3.0000001e-01 -1.0000000e-01 0.0000000e+00 
4.0000001e-01 -1.0000000e-01 0.0000000e+00 
5.0000000e-01 -1.0000000e-01 0.0000000e+00 
6.0000002e-01 -1.0000000e-01 0.0000000e+00 
6.9999999e-01 -1.0000000e-01 0.0000000e+00 
8.0000001e-01 -1.0000000e-01 0.0000000e+00 
8.9999998e-01 -1.0000000e-01 0.0000000e+00 
5.0000001e-02 -1.0000000e-01 0.0000000e+00 
1.5000001e-01 -1.0000000e-01 0.0000000e+00 
2.5000000e-01 -1.0000000e-01 0.0000000e+00 
3.4999999e-01 -1.0000000e-01 0.0000000e+00 
4.4999999e-01 -1.0000000e-01 0.0000000e+00 
5.5000001e-01 -1.0000000e-01 0.0000000e+00 
6.4999998e-01 -1.0000000e-01 0.0000000e+00 
7.5000000e-01 -1.0000000e-01 0.0000000e+00 
8.5000002e-01 -1.0000000e-01 0.0000000e+00 
9.4999999e-01 -1.0000000e-01 0.0000000e+00 
1.0000000e+00 -5.0000001e-02 0.0000000e+00 
8.9999998e-01 0.0000000e+00 0.0000000e+00 
8.0000001e-01 0.0000000e+00 0.0000000e+00 
6.9999999e-01 0.0000000e+00 0.0000000e+00 
6.0000002e-01 0.0000000e+00 0.0000000e+00 
5.0000000e-01 0.0000000e+00 0.0000000e+00 
4.0000001e-01 0.0000000e+00 0.0000000e+00 
3.0000001e-01 0.0000000e+00 0.0000000e+00 
2.0000000e-01 0.0000000e+00 0.0000000e+00 
1.0000000e-01 0.0000000e+00 0.0000000e+00 
9.4999999e-01 0.0000000e+00 0.0000000e+00 
8.5000002e-01 0.0000000e+00 0.0000000e+00 
7.5000000e-01 0.0000000e+00 0.0000000e+00 
6.4999998e-01 0.0000000e+00 0.0000000e+00 
5.5000001e-01 0.0000000e+00 0.0000000e+00 
4.4999999e-01 0.0000000e+00 0.0000000e+00 
3.4999999e-01 0.0000000e+00 0.0000000e+00 
2.5000000e-01 0.0000000e+00 0.0000000e+00 
1.5000001e-01 0.0000000e+00 0.0000000e+00 
5.0000001e-02 0.0000000e+00 0.0000000e+00 
0.0000000e+00 -5.0000001e-02 0.0000000e+00 
0.0000000e+00 -1.0000000e-01 1.0000000e-01 
0.0000000e+00 -1.0000000e-01 2.0000000e-01 
0.0000000e+00 -1.0000000e-01 3.0000001e-01 
0.0000000e+00 -1.0000000e-01 4.0000001e-01 
0.0000000e+00 -1.0000000e-01 5.0000000e-01 
0.0000000e+00 -1.0000000e-01 6.0000002e-01 
0.0000000e+00 -1.0000000e-01 6.9999999e-01 
0.0000000e+00 -1.0000000e-01 8.0000001e-01 
0.0000000e+00 -1.0000000e-01 8.9999998e-01 
0.0000000e+00 -1.0000000e-01 1.0000000e+00 
0.0000000e+00 -1.0000000e-01 1.1000000e+00 
0.0000000e+00 -1.0000000e-01 1.2000000e+00 
0.0000000e+00 -1.0000000e-01 1.3000000e+00 
0.0000000e+00 -1.0000000e-01 1.4000000e+00 
0.0000000e+00 -1.0000000e-01 1.5000000e+00 
0.0000000e+00 -1.0000000e-01 1.6000000e+00 
0.0000000e+00 -1.0000000e-01 1.7000000e+00 
0.0000000e+00 -1.0000000e-01 1.8000000e+00 
0.0000000e+00 -1.0000000e-01 1.9000000e+00 
0.0000000e+00 -1.0000000e-01 2.0000000e+00 
0.0000000e+00 -1.0000000e-01 2.0999999e+00 
0.0000000e+00 -1.0000000e-01 2.2000000e+00 
0.0000000e+00 -1.0000000e-01 2.3000000e+00 
0.0000000e+00 -1.0000000e-01 2.4000001e+00 
0.0000000e+00 -1.0000000e-01 2.5000000e+00 
0.0000000e+00 -1.0000000e-01 2.5999999e+00 
0.0000000e+00 -1.0000000e-01 2.7000000e+00 
0.0000000e+00 -1.0000000e-01 2.8000000e+00 
0.0000000e+00 -1.0000000e-01 2.9000001e+00 
0.0000000e+00 -1.0000000e-01 3.0000000e+00 
0.0000000e+00 -1.0000000e-01 3.0999999e+00 
0.0000000e+00 -1.0000000e-01 3.2000000e+00 
0.0000000e+00 -1.0000000e-01 3.3000000e+00 
0.0000000e+00 -1.0000000e-01 3.4000001e+00 
0.0000000e+00 -1.0000000e-01 3.5000000e+00 
0.0000000e+00 -1.0000000e-01 3.5999999e+00 
0.0000000e+00 -1.0000000e-01 3.7000000e+00 
0.0000000e+00 -1.0000000e-01 3.8000000e+00 
0.0000000e+00 -1.0000000e-01 3.9000001e+00 
0.0000000e+00 -1.0000000e-01 4.0000000e+00 
0.0000000e+00 -1.0000000e-01 4.0999999e+00 
0.0000000e+00 -1.0000000e-01 4.1999998e+00 
0.0000000e+00 -1.0000000e-01 4.3000002e+00 
0.0000000e+00 -1.0000000e-01 4.4000001e+00 
0.0000000e+00 -1.0000000e-01 4.5000000e+00 
0.0000000e+00 -1.0000000e-01 4.5999999e+00 
0.0000000e+00 -1.0000000e-01 4.6999998e+00 
0.0000000e+00 -1.0000000e-01 4.8000002e+00 
0.0000000e+00 -1.0000000e-01 4.9000001e+00 
0.0000000e+00 -1.0000000e-01 5.0000001e-02 
0.0000000e+00 -1.0000000e-01 1.5000001e-01 
0.0000000e+00 -1.0000000e-01 2.5000000e-01 
0.0000000e+00 -1.0000000e-01 3.4999999e-01 
0.0000000e+00 -1.0000000e-01 4.4999999e-01 
0.0000000e+00 -1.0000000e-01 5.5000001e-01 
0.0000000e+00 -1.0000000e-01 6.4999998e-01 
0.0000000e+00 -1.0000000e-01 7.5000000e-01 
0.0000000e+00 -1.0000000e-01 8.5000002e-01 
0.0000000e+00 -1.0000000e-01 9.4999999e-01 
0.0000000e+00 -1.0000000e-01 1.0500000e+00 
0.0000000e+00 -1.0000000e-01 1.1500000e+00 
0.0000000e+00 -1.0000000e-01 1.2500000e+00 
0.0000000e+00 -1.0000000e-01 1.3500000e+00 
0.0000000e+00 -1.0000000e-01 1.4500000e+00 
0.0000000e+00 -1.0000000e-01 1.5500000e+00 
0.0000000e+00 -1.0000000e-01 1.6500000e+00 
0.0000000e+00 -1.0000000e-01 1.7500000e+00 
0.0000000e+00 -1.0000000e-01 1.8500000e+00 
0.0000000e+00 -1.0000000e-01 1.9500000e+00 
0.0000000e+00 -1.0000000e-01 2.0500000e+00 
0.0000000e+00 -1.0000000e-01 2.1500001e+00 
0.0000000e+00 -1.0000000e-01 2.2500000e+00 
0.0000000e+00 -1.0000000e-01 2.3499999e+00 
0.0000000e+00 -1.0000000e-01 2.4500000e+00 
0.0000000e+00 -1.0000000e-01 2.5500000e+00 
0.0000000e+00 -1.0000000e-01 2.6500001e+00 
0.0000000e+00 -1.0000000e-01 2.7500000e+00 
0.0000000e+00 -1.0000000e-01 2.8499999e+00 
0.0000000e+00 -1.0000000e-01 2.9500000e+00 
0.0000000e+00 -1.0000000e-01 3.0500000e+00 
0.0000000e+00 -1.0000000e-01 3.1500001e+00 
0.0000000e+00 -1.0000000e-01 3.2500000e+00 
0.0000000e+00 -1.0000000e-01 3.3499999e+00 
0.0000000e+00 -1.0000000e-01 3.4500000e+00 
0.0000000e+00 -1.0000000e-01 3.5500000e+00 
0.0000000e+00 -1.0000000e-01 3.6500001e+00 
0.0000000e+00 -1.0000000e-01 3.7500000e+00 
0.0000000e+00 -1.0000000e-01 3.8499999e+00 
0.0000000e+00 -1.0000000e-01 3.9500000e+00 
0.0000000e+00 -1.0000000e-01 4.0500002e+00 
0.0000000e+00 -1.0000000e-01 4.1500001e+00 
0.0000000e+00 -1.0000000e-01 4.2500000e+00 
0.0000000e+00 -1.0000000e-01 4.3499999e+00 
0.0000000e+00 -1.0000000e-01 4.4499998e+00 
0.0000000e+00 -1.0000000e-01 4.5500002e+00 
0.0000000e+00 -1.0000000e-01 4.6500001e+00 
0.0000000e+00 -1.0000000e-01 4.7500000e+00 
0.0000000e+00 -1.0000000e-01 4.8499999e+00 
0.0000000e+00 -1.0000000e-01 4.9499998e+00 
1.0000000e+00 -1.0000000e-01 1.0000000e-01 
1.0000000e+00 -1.0000000e-01 2.0000000e-01 
1.0000000e+00 -1.0000000e-01 3.0000001e-01 
1.0000000e+00 -1.0000000e-01 4.0000001e-01 
1.0000000e+00 -1.0000000e-01 5.0000000e-01 
1.0000000e+00 -1.0000000e-01 6.0000002e-01 
1.0000000e+00 -1.0000000e-01 6.9999999e-01 
1.0000000e+00 -1.0000000e-01 8.0000001e-01 
1.0000000e+00 -1.0000000e-01 8.9999998e-01 
1.0000000e+00 -1.0000000e-01 1.0000000e+00 
1.0000000e+00 -1.0000000e-01 1.1000000e+00 
1.0000000e+00 -1.0000000e-01 1.2000000e+00 
1.0000000e+00 -1.0000000e-01 1.3000000e+00 
1.0000000e+00 -1.0000000e-01 1.4000000e+00 
1.0000000e+00 -1.0000000e-01 1.5000000e+00 
1.0000000e+00 -1.0000000e-01 1.6000000e+00 
1.0000000e+00 -1.0000000e-01 1.7000000e+00 
1.0000000e+00 -1.0000000e-01 1.8000000e+00 
1.0000000e+00 -1.0000000e-01 1.9000000e+00 
1.0000000e+00 -1.0000000e-01 2.0000000e+00 
1.0000000e+00 -1.0000000e-01 2.0999999e+00 
1.0000000e+00 -1.0000000e-01 2.2000000e+00 
1.0000000e+00 -1.0000000e-01 2.3000000e+00 
1.0000000e+00 -1.0000000e-01 2.4000001e+00 
1.0000000e+00 -1.0000000e-01 2.5000000e+00 
1.0000000e+00 -1.0000000e-01 2.5999999e+00 
1.0000000e+00 -1.0000000e-01 2.7000000e+00 
1.0000000e+00 -1.0000000e-01 2.8000000e+00 
1.0000000e+00 -1.0000000e-01 2.9000001e+00 
1.0000000e+00 -1.0000000e-01 3.0000000e+00 
1.0000000e+00 -1.0000000e-01 3.0999999e+00 
1.0000000e+00 -1.0000000e-01 3.2000000e+00 
1.0000000e+00 -1.0000000e-01 3.3000000e+00 
1.0000000e+00 -1.0000000e-01 3.4000001e+00 
1.0000000e+00 -1.0000000e-01 3.5000000e+00 
1.0000000e+00 -1.0000000e-01 3.5999999e+00 
1.0000000e+00 -1.0000000e-01 3.7000000e+00 
1.0000000e+00 -1.0000000e-01 3.8000000e+00 
1.0000000e+00 -1.0000000e-01 3.9000001e+00 
1.0000000e+00 -1.0000000e-01 4.0000000e+00 
1.0000000e+00 -1.0000000e-01 4.0999999e+00 
1.0000000e+00 -1.0000000e-01 4.1999998e+00 
1.0000000e+00 -1.0000000e-01 4.3000002e+00 
1.0000000e+00 -1.0000000e-01 4.4000001e+00 
1.0000000e+00 -1.0000000e-01 4.5000000e+00 
1.0000000e+00 -1.0000000e-01 4.5999999e+00 
1.0000000e+00 -1.0000000e-01 4.6999998e+00 
1.0000000e+00 -1.0000000e-01 4.8000002e+00 
1.0000000e+00 -1.0000000e-01 4.9000001e+00 
1.0000000e+00 -1.0000000e-01 5.0000001e-02 
1.0000000e+00 -1.0000000e-01 1.5000001e-01 
1.0000000e+00 -1.0000000e-01 2.5000000e-01 
1.0000000e+00 -1.0000000e-01 3.4999999e-01 
1.0000000e+00 -1.0000000e-01 4.4999999e-01 
1.0000000e+00 -1.0000000e-01 5.5000001e-01 
1.0000000e+00 -1.0000000e-01 6.4999998e-01 
1.0000000e+00 -1.0000000e-01 7.5000000e-01 
1.0000000e+00 -1.0000000e-01 8.5000002e-01 
1.0000000e+00 -1.0000000e-01 9.4999999e-01 
1.0000000e+00 -1.0000000e-01 1.0500000e+00 
1.0000000e+00 -1.0000000e-01 1.1500000e+00 
1.0000000e+00 -1.0000000e-01 1.2500000e+00 
1.0000000e+00 -1.0000000e-01 1.3500000e+00 
1.0000000e+00 -1.0000000e-01 1.4500000e+00 
1.0000000e+00 -1.0000000e-01 1.5500000e+00 
1.0000000e+00 -1.0000000e-01 1.6500000e+00 
1.0000000e+00 -1.0000000e-01 1.7500000e+00 
1.0000000e+00 -1.0000000e-01 1.8500000e+00 
1.0000000e+00 -1.0000000e-01 1.9500000e+00 
1.0000000e+00 -1.0000000e-01 2.0500000e+00 
1.0000000e+00 -1.0000000e-01 2.1500001e+00 
1.0000000e+00 -1.0000000e-01 2.2500000e+00 
1.0000000e+00 -1.0000000e-01 2.3499999e+00 
1.0000000e+00 -1.0000000e-01 2.4500000e+00 
1.0000000e+00 -1.0000000e-01 2.5500000e+00 
1.0000000e+00 -1.0000000e-01 2.6500001e+00 
1.0000000e+00 -1.0000000e-01 2.7500000e+00 
1.0000000e+00 -1.0000000e-01 2.8499999e+00 
[...]
POINT_DATA 8402
FIELD FieldData 1
DISPLACEMENT 3 8402  float
0.0000000e+00 0.0000000e+00 0.0000000e+00 
0.0000000e+00 0.0000000e+00 0.0000000e+00 
0.0000000e+00 0.0000000e+00 0.0000000e+00 
0.0000000e+00 0.0000000e+00 0.0000000e+00 
0.0000000e+00 0.0000000e+00 0.0000000e+00 
0.0000000e+00 0.0000000e+00 0.0000000e+00 
0.0000000e+00 0.0000000e+00 0.0000000e+00 
0.0000000e+00 0.0000000e+00 0.0000000e+00 
0.0000000e+00 0.0000000e+00 0.0000000e+00 
0.0000000e+00 0.0000000e+00 0.0000000e+00 
0.0000000e+00 0.0000000e+00 0.0000000e+00 
0.0000000e+00 0.0000000e+00 0.0000000e+00 
0.0000000e+00 0.0000000e+00 0.0000000e+00 
0.0000000e+00 0.0000000e+00 0.0000000e+00 
0.0000000e+00 0.0000000e+00 0.0000000e+00 
0.0000000e+00 0.0000000e+00 0.0000000e+00 
0.0000000e+00 0.0000000e+00 0.0000000e+00 
0.0000000e+00 0.0000000e+00 0.0000000e+00 
0.0000000e+00 0.0000000e+00 0.0000000e+00 
0.0000000e+00 0.0000000e+00 0.0000000e+00 
0.0000000e+00 0.0000000e+00 0.0000000e+00 
0.0000000e+00 0.0000000e+00 0.0000000e+00 
0.0000000e+00 0.0000000e+00 0.0000000e+00 
0.0000000e+00 0.0000000e+00 0.0000000e+00 
0.0000000e+00 0.0000000e+00 0.0000000e+00 
0.0000000e+00 0.0000000e+00 0.0000000e+00 
0.0000000e+00 0.0000000e+00 0.0000000e+00 
0.0000000e+00 0.0000000e+00 0.0000000e+00 
0.0000000e+00 0.0000000e+00 0.0000000e+00 
0.0000000e+00 0.0000000e+00 0.0000000e+00 
0.0000000e+00 0.0000000e+00 0.0000000e+00 
0.0000000e+00 0.0000000e+00 0.0000000e+00 
0.0000000e+00 0.0000000e+00 0.0000000e+00 
0.0000000e+00 0.0000000e+00 0.0000000e+00 
0.0000000e+00 0.0000000e+00 0.0000000e+00 
0.0000000e+00 0.0000000e+00 0.0000000e+00 
0.0000000e+00 0.0000000e+00 0.0000000e+00 
0.0000000e+00 0.0000000e+00 0.0000000e+00 
0.0000000e+00 0.0000000e+00 0.0000000e+00 
0.0000000e+00 0.0000000e+00 0.0000000e+00 
0.0000000e+00 0.0000000e+00 0.0000000e+00 
0.0000000e+00 0.0000000e+00 0.0000000e+00 
0.0000000e+00 0.0000000e+00 0.0000000e+00 
0.0000000e+00 0.0000000e+00 0.0000000e+00 
0.0000000e+00 0.0000000e+00 0.0000000e+00 
0.0000000e+00 0.0000000e+00 0.0000000e+00 
0.0000000e+00 0.0000000e+00 0.0000000e+00 
0.0000000e+00 0.0000000e+00 0.0000000e+00 
0.0000000e+00 0.0000000e+00 0.0000000e+00 
0.0000000e+00 0.0000000e+00 0.0000000e+00 
0.0000000e+00 0.0000000e+00 0.0000000e+00 
0.0000000e+00 0.0000000e+00 0.0000000e+00 
0.0000000e+00 0.0000000e+00 0.0000000e+00 
0.0000000e+00 0.0000000e+00 0.0000000e+00 
0.0000000e+00 0.0000000e+00 0.0000000e+00 
0.0000000e+00 0.0000000e+00 0.0000000e+00 
0.0000000e+00 0.0000000e+00 0.0000000e+00 
0.0000000e+00 0.0000000e+00 0.0000000e+00 
0.0000000e+00 0.0000000e+00 0.0000000e+00 
0.0000000e+00 0.0000000e+00 0.0000000e+00 
0.0000000e+00 0.0000000e+00 0.0000000e+00 
0.0000000e+00 0.0000000e+00 0.0000000e+00 
0.0000000e+00 0.0000000e+00 0.0000000e+00 
0.0000000e+00 0.0000000e+00 0.0000000e+00 
0.0000000e+00 0.0000000e+00 0.0000000e+00 
0.0000000e+00 0.0000000e+00 0.0000000e+00 
0.0000000e+00 0.0000000e+00 0.0000000e+00 
0.0000000e+00 0.0000000e+00 0.0000000e+00 
0.0000000e+00 0.0000000e+00 0.0000000e+00 
0.0000000e+00 0.0000000e+00 0.0000000e+00 
0.0000000e+00 0.0000000e+00 0.0000000e+00 
0.0000000e+00 0.0000000e+00 0.0000000e+00 
0.0000000e+00 0.0000000e+00 0.0000000e+00 
0.0000000e+00 0.0000000e+00 0.0000000e+00 
0.0000000e+00 0.0000000e+00 0.0000000e+00 
0.0000000e+00 0.0000000e+00 0.0000000e+00 
0.0000000e+00 0.0000000e+00 0.0000000e+00 
0.0000000e+00 0.0000000e+00 0.0000000e+00 
0.0000000e+00 0.0000000e+00 0.0000000e+00 
0.0000000e+00 0.0000000e+00 0.0000000e+00 
0.0000000e+00 0.0000000e+00 0.0000000e+00 
0.0000000e+00 0.0000000e+00 0.0000000e+00 
0.0000000e+00 0.0000000e+00 0.0000000e+00 
0.0000000e+00 0.0000000e+00 0.0000000e+00 
0.0000000e+00 0.0000000e+00 0.0000000e+00 
0.0000000e+00 0.0000000e+00 0.0000000e+00 
0.0000000e+00 0.0000000e+00 0.0000000e+00 
0.0000000e+00 0.0000000e+00 0.0000000e+00 
0.0000000e+00 0.0000000e+00 0.0000000e+00 
0.0000000e+00 0.0000000e+00 0.0000000e+00 
0.0000000e+00 0.0000000e+00 0.0000000e+00 
0.0000000e+00 0.0000000e+00 0.0000000e+00 
0.0000000e+00 0.0000000e+00 0.0000000e+00 
0.0000000e+00 0.0000000e+00 0.0000000e+00 
0.0000000e+00 0.0000000e+00 0.0000000e+00 
0.0000000e+00 0.0000000e+00 0.0000000e+00 
0.0000000e+00 0.0000000e+00 0.0000000e+00 
0.0000000e+00 0.0000000e+00 0.0000000e+00 
0.0000000e+00 0.0000000e+00 0.0000000e+00 
0.0000000e+00 0.0000000e+00 0.0000000e+00 
0.0000000e+00 0.0000000e+00 0.0000000e+00 
0.0000000e+00 0.0000000e+00 0.0000000e+00 
0.0000000e+00 0.0000000e+00 0.0000000e+00 
0.0000000e+00 0.0000000e+00 0.0000000e+00 
0.0000000e+00 0.0000000e+00 0.0000000e+00 
0.0000000e+00 0.0000000e+00 0.0000000e+00 
0.0000000e+00 0.0000000e+00 0.0000000e+00 
0.0000000e+00 0.0000000e+00 0.0000000e+00 
0.0000000e+00 0.0000000e+00 0.0000000e+00 
0.0000000e+00 0.0000000e+00 0.0000000e+00 
0.0000000e+00 0.0000000e+00 0.0000000e+00 
0.0000000e+00 0.0000000e+00 0.0000000e+00 
0.0000000e+00 0.0000000e+00 0.0000000e+00 
0.0000000e+00 0.0000000e+00 0.0000000e+00 
0.0000000e+00 0.0000000e+00 0.0000000e+00 
0.0000000e+00 0.0000000e+00 0.0000000e+00 
0.0000000e+00 0.0000000e+00 0.0000000e+00 
0.0000000e+00 0.0000000e+00 0.0000000e+00 
0.0000000e+00 0.0000000e+00 0.0000000e+00 
0.0000000e+00 0.0000000e+00 0.0000000e+00 
0.0000000e+00 0.0000000e+00 0.0000000e+00 
0.0000000e+00 0.0000000e+00 0.0000000e+00 
0.0000000e+00 0.0000000e+00 0.0000000e+00 
0.0000000e+00 0.0000000e+00 0.0000000e+00 
0.0000000e+00 0.0000000e+00 0.0000000e+00 
0.0000000e+00 0.0000000e+00 0.0000000e+00 
0.0000000e+00 0.0000000e+00 0.0000000e+00 
0.0000000e+00 0.0000000e+00 0.0000000e+00 
0.0000000e+00 0.0000000e+00 0.0000000e+00 
0.0000000e+00 0.0000000e+00 0.0000000e+00 
0.0000000e+00 0.0000000e+00 0.0000000e+00 
0.0000000e+00 0.0000000e+00 0.0000000e+00 
0.0000000e+00 0.0000000e+00 0.0000000e+00 
0.0000000e+00 0.0000000e+00 0.0000000e+00 
0.0000000e+00 0.0000000e+00 0.0000000e+00 
0.0000000e+00 0.0000000e+00 0.0000000e+00 
0.0000000e+00 0.0000000e+00 0.0000000e+00 
0.0000000e+00 0.0000000e+00 0.0000000e+00 
0.0000000e+00 0.0000000e+00 0.0000000e+00 
0.0000000e+00 0.0000000e+00 0.0000000e+00 
0.0000000e+00 0.0000000e+00 0.0000000e+00 
0.0000000e+00 0.0000000e+00 0.0000000e+00 
0.0000000e+00 0.0000000e+00 0.0000000e+00 
0.0000000e+00 0.0000000e+00 0.0000000e+00 
0.0000000e+00 0.0000000e+00 0.0000000e+00 
0.0000000e+00 0.0000000e+00 0.0000000e+00 
0.0000000e+00 0.0000000e+00 0.0000000e+00 
0.0000000e+00 0.0000000e+00 0.0000000e+00 
0.0000000e+00 0.0000000e+00 0.0000000e+00 
0.0000000e+00 0.0000000e+00 0.0000000e+00 
0.0000000e+00 0.0000000e+00 0.0000000e+00 
0.0000000e+00 0.0000000e+00 0.0000000e+00 
0.0000000e+00 0.0000000e+00 0.0000000e+00 
0.0000000e+00 0.0000000e+00 0.0000000e+00 
0.0000000e+00 0.0000000e+00 0.0000000e+00 
0.0000000e+00 0.0000000e+00 0.0000000e+00 
0.0000000e+00 0.0000000e+00 0.0000000e+00 
0.0000000e+00 0.0000000e+00 0.0000000e+00 
0.0000000e+00 0.0000000e+00 0.0000000e+00 
0.0000000e+00 0.0000000e+00 0.0000000e+00 
0.0000000e+00 0.0000000e+00 0.0000000e+00 
0.0000000e+00 0.0000000e+00 0.0000000e+00 
0.0000000e+00 0.0000000e+00 0.0000000e+00 
0.0000000e+00 0.0000000e+00 0.0000000e+00 
0.0000000e+00 0.0000000e+00 0.0000000e+00 
0.0000000e+00 0.0000000e+00 0.0000000e+00 
0.0000000e+00 0.0000000e+00 0.0000000e+00 
0.0000000e+00 0.0000000e+00 0.0000000e+00 
0.0000000e+00 0.0000000e+00 0.0000000e+00 
0.0000000e+00 0.0000000e+00 0.0000000e+00 
0.0000000e+00 0.0000000e+00 0.0000000e+00 
0.0000000e+00 0.0000000e+00 0.0000000e+00 
0.0000000e+00 0.0000000e+00 0.0000000e+00 
0.0000000e+00 0.0000000e+00 0.0000000e+00 
0.0000000e+00 0.0000000e+00 0.0000000e+00 
0.0000000e+00 0.0000000e+00 0.0000000e+00 
0.0000000e+00 0.0000000e+00 0.0000000e+00 
0.0000000e+00 0.0000000e+00 0.0000000e+00 
0.0000000e+00 0.0000000e+00 0.0000000e+00 
0.0000000e+00 0.0000000e+00 0.0000000e+00 
0.0000000e+00 0.0000000e+00 0.0000000e+00 
0.0000000e+00 0.0000000e+00 0.0000000e+00 
0.0000000e+00 0.0000000e+00 0.0000000e+00 
0.0000000e+00 0.0000000e+00 0.0000000e+00 
0.0000000e+00 0.0000000e+00 0.0000000e+00 
0.0000000e+00 0.0000000e+00 0.0000000e+00 
0.0000000e+00 0.0000000e+00 0.0000000e+00 
0.0000000e+00 0.0000000e+00 0.0000000e+00 
0.0000000e+00 0.0000000e+00 0.0000000e+00 
0.0000000e+00 0.0000000e+00 0.0000000e+00 
0.0000000e+00 0.0000000e+00 0.0000000e+00 
0.0000000e+00 0.0000000e+00 0.0000000e+00 
0.0000000e+00 0.0000000e+00 0.0000000e+00 
0.0000000e+00 0.0000000e+00 0.0000000e+00 
0.0000000e+00 0.0000000e+00 0.0000000e+00 
0.0000000e+00 0.0000000e+00 0.0000000e+00 
0.0000000e+00 0.0000000e+00 0.0000000e+00 
0.0000000e+00 0.0000000e+00 0.0000000e+00 
0.0000000e+00 0.0000000e+00 0.0000000e+00 
0.0000000e+00 0.0000000e+00 0.0000000e+00 
0.0000000e+00 0.0000000e+00 0.0000000e+00 
0.0000000e+00 0.0000000e+00 0.0000000e+00 
0.0000000e+00 0.0000000e+00 0.0000000e+00 
0.0000000e+00 0.0000000e+00 0.0000000e+00 
0.0000000e+00 0.0000000e+00 0.0000000e+00 
0.0000000e+00 0.0000000e+00 0.0000000e+00 
0.0000000e+00 0.0000000e+00 0.0000000e+00 
0.0000000e+00 0.0000000e+00 0.0000000e+00 
0.0000000e+00 0.0000000e+00 0.0000000e+00 
0.0000000e+00 0.0000000e+00 0.0000000e+00 
0.0000000e+00 0.0000000e+00 0.0000000e+00 
0.0000000e+00 0.0000000e+00 0.0000000e+00 
0.0000000e+00 0.0000000e+00 0.0000000e+00 
0.0000000e+00 0.0000000e+00 0.0000000e+00 
0.0000000e+00 0.0000000e+00 0.0000000e+00 
0.0000000e+00 0.0000000e+00 0.0000000e+00 
0.0000000e+00 0.0000000e+00 0.0000000e+00 
0.0000000e+00 0.0000000e+00 0.0000000e+00 
0.0000000e+00 0.0000000e+00 0.0000000e+00 
0.0000000e+00 0.0000000e+00 0.0000000e+00 
0.0000000e+00 0.0000000e+00 0.0000000e+00 
0.0000000e+00 0.0000000e+00 0.0000000e+00 
0.0000000e+00 0.0000000e+00 0.0000000e+00 
0.0000000e+00 0.0000000e+00 0.0000000e+00 
0.0000000e+00 0.0000000e+00 0.0000000e+00 
0.0000000e+00 0.0000000e+00 0.0000000e+00 
0.0000000e+00 0.0000000e+00 0.0000000e+00 
0.0000000e+00 0.0000000e+00 0.0000000e+00 
0.0000000e+00 0.0000000e+00 0.0000000e+00 
0.0000000e+00 0.0000000e+00 0.0000000e+00 
0.0000000e+00 0.0000000e+00 0.0000000e+00 
0.0000000e+00 0.0000000e+00 0.0000000e+00 
0.0000000e+00 0.0000000e+00 0.0000000e+00 
0.0000000e+00 0.0000000e+00 0.0000000e+00 
0.0000000e+00 0.0000000e+00 0.0000000e+00 
0.0000000e+00 0.0000000e+00 0.0000000e+00 
0.0000000e+00 0.0000000e+00 0.0000000e+00 
0.0000000e+00 0.0000000e+00 0.0000000e+00 
0.0000000e+00 0.0000000e+00 0.0000000e+00 
0.0000000e+00 0.0000000e+00 0.0000000e+00 
0.0000000e+00 0.0000000e+00 0.0000000e+00 
0.0000000e+00 0.0000000e+00 0.0000000e+00 
0.0000000e+00 0.0000000e+00 0.0000000e+00 
0.0000000e+00 0.0000000e+00 0.0000000e+00 
0.0000000e+00 0.0000000e+00 0.0000000e+00 
0.0000000e+00 0.0000000e+00 0.0000000e+00 
0.0000000e+00 0.0000000e+00 0.0000000e+00 
0.0000000e+00 0.0000000e+00 0.0000000e+00 
0.0000000e+00 0.0000000e+00 0.0000000e+00 
0.0000000e+00 0.0000000e+00 0.0000000e+00 
0.0000000e+00 0.0000000e+00 0.0000000e+00 
0.0000000e+00 0.0000000e+00 0.0000000e+00 
0.0000000e+00 0.0000000e+00 0.0000000e+00 
0.0000000e+00 0.0000000e+00 0.0000000e+00 
0.0000000e+00 0.0000000e+00 0.0000000e+00 
0.0000000e+00 0.0000000e+00 0.0000000e+00 
0.0000000e+00 0.0000000e+00 0.0000000e+00 
0.0000000e+00 0.0000000e+00 0.0000000e+00 
0.0000000e+00 0.0000000e+00 0.0000000e+00 
0.0000000e+00 0.0000000e+00 0.0000000e+00 
0.0000000e+00 0.0000000e+00 0.0000000e+00 
0.0000000e+00 0.0000000e+00 0.0000000e+00 
0.0000000e+00 0.0000000e+00 0.0000000e+00 
0.0000000e+00 0.0000000e+00 0.0000000e+00 
0.0000000e+00 0.0000000e+00 0.0000000e+00 
0.0000000e+00 0.0000000e+00 0.0000000e+00 
0.0000000e+00 0.0000000e+00 0.0000000e+00 
0.0000000e+00 0.0000000e+00 0.0000000e+00 
0.0000000e+00 0.0000000e+00 0.0000000e+00 
0.0000000e+00 0.0000000e+00 0.0000000e+00 
0.0000000e+00 0.0000000e+00 0.0000000e+00 
0.0000000e+00 0.0000000e+00 0.0000000e+00 
0.0000000e+00 0.0000000e+00 0.0000000e+00 
0.0000000e+00 0.0000000e+00 0.0000000e+00 
0.0000000e+00 0.0000000e+00 0.0000000e+00 
0.0000000e+00 0.0000000e+00 0.0000000e+00 
0.0000000e+00 0.0000000e+00 0.0000000e+00 
0.0000000e+00 0.0000000e+00 0.0000000e+00 
0.0000000e+00 0.0000000e+00 0.0000000e+00 
0.0000000e+00 0.0000000e+00 0.0000000e+00 
0.0000000e+00 0.0000000e+00 0.0000000e+00 
0.0000000e+00 0.0000000e+00 0.0000000e+00 
0.0000000e+00 0.0000000e+00 0.0000000e+00 
0.0000000e+00 0.0000000e+00 0.0000000e+00 
0.0000000e+00 0.0000000e+00 0.0000000e+00 
0.0000000e+00 0.0000000e+00 0.0000000e+00 
0.0000000e+00 0.0000000e+00 0.0000000e+00 
0.0000000e+00 0.0000000e+00 0.0000000e+00 
0.0000000e+00 0.0000000e+00 0.0000000e+00 
0.0000000e+00 0.0000000e+00 0.0000000e+00 
0.0000000e+00 0.0000000e+00 0.0000000e+00 
0.0000000e+00 0.0000000e+00 0.0000000e+00 
0.0000000e+00 0.0000000e+00 0.0000000e+00 
0.0000000e+00 0.0000000e+00 0.0000000e+00 
0.0000000e+00 0.0000000e+00 0.0000000e+00 
0.0000000e+00 0.0000000e+00 0.0000000e+00 
0.0000000e+00 0.0000000e+00 0.0000000e+00 
0.0000000e+00 0.0000000e+00 0.0000000e+00 
0.0000000e+00 0.0000000e+00 0.0000000e+00 
0.0000000e+00 0.0000000e+00 0.0000000e+00 
0.0000000e+00 0.0000000e+00 0.0000000e+00 
0.0000000e+00 0.0000000e+00 0.0000000e+00 
0.0000000e+00 0.0000000e+00 0.0000000e+00 
0.0000000e+00 0.0000000e+00 0.0000000e+00 
0.0000000e+00 0.0000000e+00 0.0000000e+00 
0.0000000e+00 0.0000000e+00 0.0000000e+00 
0.0000000e+00 0.0000000e+00 0.0000000e+00 
0.0000000e+00 0.0000000e+00 0.0000000e+00 
0.0000000e+00 0.0000000e+00 0.0000000e+00 
0.0000000e+00 0.0000000e+00 0.0000000e+00 
0.0000000e+00 0.0000000e+00 0.0000000e+00 
0.0000000e+00 0.0000000e+00 0.0000000e+00 
0.0000000e+00 0.0000000e+00 0.0000000e+00 
0.0000000e+00 0.0000000e+00 0.0000000e+00 
0.0000000e+00 0.0000000e+00 0.0000000e+00 
0.0000000e+00 0.0000000e+00 0.0000000e+00 
0.0000000e+00 0.0000000e+00 0.0000000e+00 
0.0000000e+00 0.0000000e+00 0.0000000e+00 
0.0000000e+00 0.0000000e+00 0.0000000e+00 
0.0000000e+00 0.0000000e+00 0.0000000e+00 
0.0000000e+00 0.0000000e+00 0.0000000e+00 
0.0000000e+00 0.0000000e+00 0.0000000e+00 
0.0000000e+00 0.0000000e+00 0.0000000e+00 
0.0000000e+00 0.0000000e+00 0.0000000e+00 
0.0000000e+00 0.0000000e+00 0.0000000e+00 
0.0000000e+00 0.0000000e+00 0.0000000e+00 
0.0000000e+00 0.0000000e+00 0.0000000e+00 
0.0000000e+00 0.0000000e+00 0.0000000e+00 
0.0000000e+00 0.0000000e+00 0.0000000e+00 
0.0000000e+00 0.0000000e+00 0.0000000e+00 
0.0000000e+00 0.0000000e+00 0.0000000e+00 
0.0000000e+00 0.0000000e+00 0.0000000e+00 
0.0000000e+00 0.0000000e+00 0.0000000e+00 
0.0000000e+00 0.0000000e+00 0.0000000e+00 
0.0000000e+00 0.0000000e+00 0.0000000e+00 
0.0000000e+00 0.0000000e+00 0.0000000e+00 
0.0000000e+00 0.0000000e+00 0.0000000e+00 
0.0000000e+00 0.0000000e+00 0.0000000e+00 
0.0000000e+00 0.0000000e+00 0.0000000e+00 
0.0000000e+00 0.0000000e+00 0.0000000e+00 
0.0000000e+00 0.0000000e+00 0.0000000e+00 
0.0000000e+00 0.0000000e+00 0.0000000e+00 
0.0000000e+00 0.0000000e+00 0.0000000e+00 
0.0000000e+00 0.0000000e+00 0.0000000e+00 
0.0000000e+00 0.0000000e+00 0.0000000e+00 
0.0000000e+00 0.0000000e+00 0.0000000e+00 
0.0000000e+00 0.0000000e+00 0.0000000e+00 
0.0000000e+00 0.0000000e+00 0.0000000e+00 
0.0000000e+00 0.0000000e+00 0.0000000e+00 
0.0000000e+00 0.0000000e+00 0.0000000e+00 
0.0000000e+00 0.0000000e+00 0.0000000e+00 
0.0000000e+00 0.0000000e+00 0.0000000e+00 
0.0000000e+00 0.0000000e+00 0.0000000e+00 
0.0000000e+00 0.0000000e+00 0.0000000e+00 
0.0000000e+00 0.0000000e+00 0.0000000e+00 
0.0000000e+00 0.0000000e+00 0.0000000e+00 
0.0000000e+00 0.0000000e+00 0.0000000e+00 
0.0000000e+00 0.0000000e+00 0.0000000e+00 
0.0000000e+00 0.0000000e+00 0.0000000e+00 
0.0000000e+00 0.0000000e+00 0.0000000e+00 
0.0000000e+00 0.0000000e+00 0.0000000e+00 
0.0000000e+00 0.0000000e+00 0.0000000e+00 
0.0000000e+00 0.0000000e+00 0.0000000e+00 
0.0000000e+00 0.0000000e+00 0.0000000e+00 
0.0000000e+00 0.0000000e+00 0.0000000e+00 
0.0000000e+00 -6.1262675e-05 0.0000000e+00 
0.0000000e+00 -1.2094210e-04 0.0000000e+00 
0.0000000e+00 -1.7749923e-04 0.0000000e+00 
0.0000000e+00 -2.2938190e-04 0.0000000e+00 
0.0000000e+00 -2.7540451e-04 0.0000000e+00 
0.0000000e+00 -3.1559129e-04 0.0000000e+00 
0.0000000e+00 -3.5026344e-04 0.0000000e+00 
0.0000000e+00 -3.7972743e-04 0.0000000e+00 
0.0000000e+00 -4.0426734e-04 0.0000000e+00 
0.0000000e+00 -4.2415224e-04 0.0000000e+00 
0.0000000e+00 -4.3965611e-04 0.0000000e+00 
0.0000000e+00 -4.5103370e-04 0.0000000e+00 
0.0000000e+00 -4.5848734e-04 0.0000000e+00 
0.0000000e+00 -4.6224540e-04 0.0000000e+00 
0.0000000e+00 -4.6249505e-04 0.0000000e+00 
0.0000000e+00 -4.5940367e-04 0.0000000e+00 
0.0000000e+00 -4.5320857e-04 0.0000000e+00 
0.0000000e+00 -4.4414884e-04 0.0000000e+00 
0.0000000e+00 -4.3257300e-04 0.0000000e+00 
0.0000000e+00 -4.1875560e-04 0.0000000e+00 
0.0000000e+00 -4.0303025e-04 0.0000000e+00 
0.0000000e+00 -3.8579668e-04 0.0000000e+00 
0.0000000e+00 -3.6774031e-04 0.0000000e+00 
0.0000000e+00 -3.4974940e-04 0.0000000e+00 
0.0000000e+00 -3.3234103e-04 0.0000000e+00 
0.0000000e+00 -3.1560805e-04 0.0000000e+00 
0.0000000e+00 -2.9947326e-04 0.0000000e+00 
0.0000000e+00 -2.8385193e-04 0.0000000e+00 
0.0000000e+00 -2.6867382e-04 0.0000000e+00 
0.0000000e+00 -2.5388389e-04 0.0000000e+00 
0.0000000e+00 -2.3943128e-04 0.0000000e+00 
0.0000000e+00 -2.2529210e-04 0.0000000e+00 
0.0000000e+00 -2.1145216e-04 0.0000000e+00 
0.0000000e+00 -1.9786536e-04 0.0000000e+00 
0.0000000e+00 -1.8449641e-04 0.0000000e+00 
0.0000000e+00 -1.7130474e-04 0.0000000e+00 
0.0000000e+00 -1.5827574e-04 0.0000000e+00 
0.0000000e+00 -1.4540655e-04 0.0000000e+00 
0.0000000e+00 -1.3271067e-04 0.0000000e+00 
0.0000000e+00 -1.2018936e-04 0.0000000e+00 
0.0000000e+00 -1.0785976e-04 0.0000000e+00 
0.0000000e+00 -9.5721814e-05 0.0000000e+00 
0.0000000e+00 -8.3715735e-05 0.0000000e+00 
0.0000000e+00 -7.1767572e-05 0.0000000e+00 
0.0000000e+00 -5.9827933e-05 0.0000000e+00 
0.0000000e+00 -4.7878173e-05 0.0000000e+00 
0.0000000e+00 -3.5915142e-05 0.0000000e+00 
0.0000000e+00 -2.3947374e-05 0.0000000e+00 
0.0000000e+00 -1.1976056e-05 0.0000000e+00 
0.0000000e+00 -3.0732550e-05 0.0000000e+00 
0.0000000e+00 -9.1394933e-05 0.0000000e+00 
0.0000000e+00 -1.4970895e-04 0.0000000e+00 
0.0000000e+00 -2.0412020e-04 0.0000000e+00 
0.0000000e+00 -2.5314311e-04 0.0000000e+00 
0.0000000e+00 -2.9620645e-04 0.0000000e+00 
0.0000000e+00 -3.3359701e-04 0.0000000e+00 
0.0000000e+00 -3.6562726e-04 0.0000000e+00 
0.0000000e+00 -3.9259711e-04 0.0000000e+00 
0.0000000e+00 -4.1477528e-04 0.0000000e+00 
0.0000000e+00 -4.3243295e-04 0.0000000e+00 
0.0000000e+00 -4.4584885e-04 0.0000000e+00 
0.0000000e+00 -4.5523702e-04 0.0000000e+00 
0.0000000e+00 -4.6081460e-04 0.0000000e+00 
0.0000000e+00 -4.6279936e-04 0.0000000e+00 
0.0000000e+00 -4.6135261e-04 0.0000000e+00 
0.0000000e+00 -4.5668060e-04 0.0000000e+00 
0.0000000e+00 -4.4901678e-04 0.0000000e+00 
0.0000000e+00 -4.3865605e-04 0.0000000e+00 
0.0000000e+00 -4.2592682e-04 0.0000000e+00 
0.0000000e+00 -4.1110773e-04 0.0000000e+00 
0.0000000e+00 -3.9456959e-04 0.0000000e+00 
0.0000000e+00 -3.7681338e-04 0.0000000e+00 
0.0000000e+00 -3.5869118e-04 0.0000000e+00 
0.0000000e+00 -3.4095973e-04 0.0000000e+00 
0.0000000e+00 -3.2389411e-04 0.0000000e+00 
0.0000000e+00 -3.0747094e-04 0.0000000e+00 
0.0000000e+00 -2.9160373e-04 0.0000000e+00 
0.0000000e+00 -2.7621139e-04 0.0000000e+00 
0.0000000e+00 -2.6123325e-04 0.0000000e+00 
0.0000000e+00 -2.4661826e-04 0.0000000e+00 
0.0000000e+00 -2.3232178e-04 0.0000000e+00 
0.0000000e+00 -2.1833838e-04 0.0000000e+00 
0.0000000e+00 -2.0462867e-04 0.0000000e+00 
0.0000000e+00 -1.9115651e-04 0.0000000e+00 
0.0000000e+00 -1.7788037e-04 0.0000000e+00 
0.0000000e+00 -1.6476984e-04 0.0000000e+00 
0.0000000e+00 -1.5182058e-04 0.0000000e+00 
0.0000000e+00 -1.3903696e-04 0.0000000e+00 
0.0000000e+00 -1.2642732e-04 0.0000000e+00 
0.0000000e+00 -1.1399945e-04 0.0000000e+00 
0.0000000e+00 -1.0176941e-04 0.0000000e+00 
0.0000000e+00 -8.9707064e-05 0.0000000e+00 
0.0000000e+00 -7.7739031e-05 0.0000000e+00 
0.0000000e+00 -6.5797634e-05 0.0000000e+00 
0.0000000e+00 -5.3855412e-05 0.0000000e+00 
0.0000000e+00 -4.1897722e-05 0.0000000e+00 