# vtk DataFile Version 4.0
vtk output
ASCII
DATASET UNSTRUCTURED_GRID
POINTS 8402 float
0.0000000e+00 -1.0000000e-01 0.0000000e+00 
1.0000000e+00 -1.0000000e-01 0.0000000e+00 
1.0000000e+00 0.0000000e+00 0.0000000e+00 
0.0000000e+00 0.0000000e+00 0.0000000e+00 
0.0000000e+00 -1.0000000e-01 5.0000000e+00 
1.0000000e+00 -1.0000000e-01 5.0000000e+00 
1.0000000e+00 0.0000000e+00 5.0000000e+00 
0.0000000e+00 0.0000000e+00 5.0000000e+00 
1.0000000e-01 -1.0000000e-01 0.0000000e+00 
2.0000000e-01 -1.0000000e-01 0.0000000e+00 
3.0000001e-01 -1.0000000e-01 0.0000000e+00 
4.0000001e-01 -1.0000000e-01 0.0000000e+00 
5.0000000e-01 -1.0000000e-01 0.0000000e+00 
6.0000002e-01 -1.0000000e-01 0.0000000e+00 
6.9999999e-01 -1.0000000e-01 0.0000000e+00 
8.0000001e-01 -1.0000000e-01 0.0000000e+00 
8.9999998e-01 -1.0000000e-01 0.0000000e+00 
5.0000001e-02 -1.0000000e-01 0.0000000e+00 
1.5000001e-01 -1.0000000e-01 0.0000000e+00 
2.5000000e-01 -1.0000000e-01 0.0000000e+00 
3.4999999e-01 -1.0000000e-01 0.0000000e+00 
4.4999999e-01 -1.0000000e-01 0.0000000e+00 
5.5000001e-01 -1.0000000e-01 0.0000000e+00 
6.4999998e-01 -1.0000000e-01 0.0000000e+00 
7.5000000e-01 -1.0000000e-01 0.0000000e+00 
8.5000002e-01 -1.0000000e-01 0.0000000e+00 
9.4999999e-01 -1.0000000e-01 0.0000000e+00 
1.0000000e+00 -5.0000001e-02 0.0000000e+00 
8.9999998e-01 0.0000000e+00 0.0000000e+00 
8.0000001e-01 0.0000000e+00 0.0000000e+00 
6.9999999e-01 0.0000000e+00 0.0000000e+00 
6.0000002e-01 0.0000000e+00 0.0000000e+00 
5.0000000e-01 0.0000000e+00 0.0000000e+00 
4.0000001e-01 0.0000000e+00 0.0000000e+00 
3.0000001e-01 0.0000000e+00 0.0000000e+00 
2.0000000e-01 0.0000000e+00 0.0000000e+00 
1.0000000e-01 0.0000000e+00 0.0000000e+00 
9.4999999e-01 0.0000000e+00 0.0000000e+00 
8.5000002e-01 0.0000000e+00 0.0000000e+00 
7.5000000e-01 0.0000000e+00 0.0000000e+00 
6.4999998e-01 0.0000000e+00 0.0000000e+00 
5.5000001e-01 0.0000000e+00 0.0000000e+00 
4.4999999e-01 0.0000000e+00 0.0000000e+00 
3.4999999e-01 0.0000000e+00 0.0000000e+00 
2.5000000e-01 0.0000000e+00 0.0000000e+00 
1.5000001e-01 0.0000000e+00 0.0000000e+00 
5.0000001e-02 0.0000000e+00 0.0000000e+00 
0.0000000e+00 -5.0000001e-02 0.0000000e+00 
0.0000000e+00 -1.0000000e-01 1.0000000e-01 
0.0000000e+00 -1.0000000e-01 2.0000000e-01 
0.0000000e+00 -1.0000000e-01 3.0000001e-01 
0.0000000e+00 -1.0000000e-01 4.0000001e-01 
0.0000000e+00 -1.0000000e-01 5.0000000e-01 
0.0000000e+00 -1.0000000e-01 6.0000002e-01 
0.0000000e+00 -1.0000000e-01 6.9999999e-01 
0.0000000e+00 -1.0000000e-01 8.0000001e-01 
0.0000000e+00 -1.0000000e-01 8.9999998e-01 
0.0000000e+00 -1.0000000e-01 1.0000000e+00 
0.0000000e+00 -1.0000000e-01 1.1000000e+00 
0.0000000e+00 -1.0000000e-01 1.2000000e+00 
0.0000000e+00 -1.0000000e-01 1.3000000e+00 
0.0000000e+00 -1.0000000e-01 1.4000000e+00 
0.0000000e+00 -1.0000000e-01 1.5000000e+00 
0.0000000e+00 -1.0000000e-01 1.6000000e+00 
0.0000000e+00 -1.0000000e-01 1.7000000e+00 
0.0000000e+00 -1.0000000e-01 1.8000000e+00 
0.0000000e+00 -1.0000000e-01 1.9000000e+00 
0.0000000e+00 -1.0000000e-01 2.0000000e+00 
0.0000000e+00 -1.0000000e-01 2.0999999e+00 
0.0000000e+00 -1.0000000e-01 2.2000000e+00 
0.0000000e+00 -1.0000000e-01 2.3000000e+00 
0.0000000e+00 -1.0000000e-01 2.4000001e+00 
0.0000000e+00 -1.0000000e-01 2.5000000e+00 
0.0000000e+00 -1.0000000e-01 2.5999999e+00 
0.0000000e+00 -1.0000000e-01 2.7000000e+00 
0.0000000e+00 -1.0000000e-01 2.8000000e+00 
0.0000000e+00 -1.0000000e-01 2.9000001e+00 
0.0000000e+00 -1.0000000e-01 3.0000000e+00 
0.0000000e+00 -1.0000000e-01 3.0999999e+00 
0.0000000e+00 -1.0000000e-01 3.2000000e+00 
0.0000000e+00 -1.0000000e-01 3.3000000e+00 
0.0000000e+00 -1.0000000e-01 3.4000001e+00 
0.0000000e+00 -1.0000000e-01 3.5000000e+00 
0.0000000e+00 -1.0000000e-01 3.5999999e+00 
0.0000000e+00 -1.0000000e-01 3.7000000e+00 
0.0000000e+00 -1.0000000e-01 3.8000000e+00 
0.0000000e+00 -1.0000000e-01 3.9000001e+00 
0.0000000e+00 -1.0000000e-01 4.0000000e+00 
0.0000000e+00 -1.0000000e-01 4.0999999e+00 
0.0000000e+00 -1.0000000e-01 4.1999998e+00 
0.0000000e+00 -1.0000000e-01 4.3000002e+00 
0.0000000e+00 -1.0000000e-01 4.4000001e+00 
0.0000000e+00 -1.0000000e-01 4.5000000e+00 
0.0000000e+00 -1.0000000e-01 4.5999999e+00 
0.0000000e+00 -1.0000000e-01 4.6999998e+00 
0.0000000e+00 -1.0000000e-01 4.8000002e+00 
0.0000000e+00 -1.0000000e-01 4.9000001e+00 
0.0000000e+00 -1.0000000e-01 5.0000001e-02 
0.0000000e+00 -1.0000000e-01 1.5000001e-01 
0.0000000e+00 -1.0000000e-01 2.5000000e-01 
0.0000000e+00 -1.0000000e-01 3.4999999e-01 
0.0000000e+00 -1.0000000e-01 4.4999999e-01 
0.0000000e+00 -1.0000000e-01 5.5000001e-01 
0.0000000e+00 -1.0000000e-01 6.4999998e-01 
0.0000000e+00 -1.0000000e-01 7.5000000e-01 
0.0000000e+00 -1.0000000e-01 8.5000002e-01 
0.0000000e+00 -1.0000000e-01 9.4999999e-01 
0.0000000e+00 -1.0000000e-01 1.0500000e+00 
0.0000000e+00 -1.0000000e-01 1.1500000e+00 
0.0000000e+00 -1.0000000e-01 1.2500000e+00 
0.0000000e+00 -1.0000000e-01 1.3500000e+00 
0.0000000e+00 -1.0000000e-01 1.4500000e+00 
0.0000000e+00 -1.0000000e-01 1.5500000e+00 
0.0000000e+00 -1.0000000e-01 1.6500000e+00 
0.0000000e+00 -1.0000000e-01 1.7500000e+00 
0.0000000e+00 -1.0000000e-01 1.8500000e+00 
0.0000000e+00 -1.0000000e-01 1.9500000e+00 
0.0000000e+00 -1.0000000e-01 2.0500000e+00 
0.0000000e+00 -1.0000000e-01 2.1500001e+00 
0.0000000e+00 -1.0000000e-01 2.2500000e+00 
0.0000000e+00 -1.0000000e-01 2.3499999e+00 
0.0000000e+00 -1.0000000e-01 2.4500000e+00 
0.0000000e+00 -1.0000000e-01 2.5500000e+00 
0.0000000e+00 -1.0000000e-01 2.6500001e+00 
0.0000000e+00 -1.0000000e-01 2.7500000e+00 
0.0000000e+00 -1.0000000e-01 2.8499999e+00 
0.0000000e+00 -1.0000000e-01 2.9500000e+00 
0.0000000e+00 -1.0000000e-01 3.0500000e+00 
0.0000000e+00 -1.0000000e-01 3.1500001e+00 
0.0000000e+00 -1.0000000e-01 3.2500000e+00 
0.0000000e+00 -1.0000000e-01 3.3499999e+00 
0.0000000e+00 -1.0000000e-01 3.4500000e+00 
0.0000000e+00 -1.0000000e-01 3.5500000e+00 
0.0000000e+00 -1.0000000e-01 3.6500001e+00 
0.0000000e+00 -1.0000000e-01 3.7500000e+00 
0.0000000e+00 -1.0000000e-01 3.8499999e+00 
0.0000000e+00 -1.0000000e-01 3.9500000e+00 
0.0000000e+00 -1.0000000e-01 4.0500002e+00 
0.0000000e+00 -1.0000000e-01 4.1500001e+00 
0.0000000e+00 -1.0000000e-01 4.2500000e+00 
0.0000000e+00 -1.0000000e-01 4.3499999e+00 
0.0000000e+00 -1.0000000e-01 4.4499998e+00 
0.0000000e+00 -1.0000000e-01 4.5500002e+00 
0.0000000e+00 -1.0000000e-01 4.6500001e+00 
0.0000000e+00 -1.0000000e-01 4.7500000e+00 
0.0000000e+00 -1.0000000e-01 4.8499999e+00 
0.0000000e+00 -1.0000000e-01 4.9499998e+00 
1.0000000e+00 -1.0000000e-01 1.0000000e-01 
1.0000000e+00 -1.0000000e-01 2.0000000e-01 
1.0000000e+00 -1.0000000e-01 3.0000001e-01 
1.0000000e+00 -1.0000000e-01 4.0000001e-01 
1.0000000e+00 -1.0000000e-01 5.0000000e-01 
1.0000000e+00 -1.0000000e-01 6.0000002e-01 
1.0000000e+00 -1.0000000e-01 6.9999999e-01 
1.0000000e+00 -1.0000000e-01 8.0000001e-01 
1.0000000e+00 -1.0000000e-01 8.9999998e-01 
1.0000000e+00 -1.0000000e-01 1.0000000e+00 
1.0000000e+00 -1.0000000e-01 1.1000000e+00 
1.0000000e+00 -1.0000000e-01 1.2000000e+00 
1.0000000e+00 -1.0000000e-01 1.3000000e+00 
1.0000000e+00 -1.0000000e-01 1.4000000e+00 
1.0000000e+00 -1.0000000e-01 1.5000000e+00 
1.0000000e+00 -1.0000000e-01 1.6000000e+00 
1.0000000e+00 -1.0000000e-01 1.7000000e+00 
1.0000000e+00 -1.0000000e-01 1.8000000e+00 
1.0000000e+00 -1.0000000e-01 1.9000000e+00 
1.0000000e+00 -1.0000000e-01 2.0000000e+00 
1.0000000e+00 -1.0000000e-01 2.0999999e+00 
1.0000000e+00 -1.0000000e-01 2.2000000e+00 
1.0000000e+00 -1.0000000e-01 2.3000000e+00 
1.0000000e+00 -1.0000000e-01 2.4000001e+00 
1.0000000e+00 -1.0000000e-01 2.5000000e+00 
1.0000000e+00 -1.0000000e-01 2.5999999e+00 
1.0000000e+00 -1.0000000e-01 2.7000000e+00 
1.0000000e+00 -1.0000000e-01 2.8000000e+00 
1.0000000e+00 -1.0000000e-01 2.9000001e+00 
1.0000000e+00 -1.0000000e-01 3.0000000e+00 
1.0000000e+00 -1.0000000e-01 3.0999999e+00 
1.0000000e+00 -1.0000000e-01 3.2000000e+00 
1.0000000e+00 -1.0000000e-01 3.3000000e+00 
1.0000000e+00 -1.0000000e-01 3.4000001e+00 
1.0000000e+00 -1.0000000e-01 3.5000000e+00 
1.0000000e+00 -1.0000000e-01 3.5999999e+00 
1.0000000e+00 -1.0000000e-01 3.7000000e+00 
1.0000000e+00 -1.0000000e-01 3.8000000e+00 
1.0000000e+00 -1.0000000e-01 3.9000001e+00 
1.0000000e+00 -1.0000000e-01 4.0000000e+00 
1.0000000e+00 -1.0000000e-01 4.0999999e+00 
1.0000000e+00 -1.0000000e-01 4.1999998e+00 
1.0000000e+00 -1.0000000e-01 4.3000002e+00 
1.0000000e+00 -1.0000000e-01 4.4000001e+00 
1.0000000e+00 -1.0000000e-01 4.5000000e+00 
1.0000000e+00 -1.0000000e-01 4.5999999e+00 
1.0000000e+00 -1.0000000e-01 4.6999998e+00 
1.0000000e+00 -1.0000000e-01 4.8000002e+00 
1.0000000e+00 -1.0000000e-01 4.9000001e+00 
1.0000000e+00 -1.0000000e-01 5.0000001e-02 
1.0000000e+00 -1.0000000e-01 1.5000001e-01 
1.0000000e+00 -1.0000000e-01 2.5000000e-01 
1.0000000e+00 -1.0000000e-01 3.4999999e-01 
1.0000000e+00 -1.0000000e-01 4.4999999e-01 
1.0000000e+00 -1.0000000e-01 5.5000001e-01 
1.0000000e+00 -1.0000000e-01 6.4999998e-01 
1.0000000e+00 -1.0000000e-01 7.5000000e-01 
1.0000000e+00 -1.0000000e-01 8.5000002e-01 
1.0000000e+00 -1.0000000e-01 9.4999999e-01 
1.0000000e+00 -1.0000000e-01 1.0500000e+00 
1.0000000e+00 -1.0000000e-01 1.1500000e+00 
1.0000000e+00 -1.0000000e-01 1.2500000e+00 
1.0000000e+00 -1.0000000e-01 1.3500000e+00 
1.0000000e+00 -1.0000000e-01 1.4500000e+00 
1.0000000e+00 -1.0000000e-01 1.5500000e+00 
1.0000000e+00 -1.0000000e-01 1.6500000e+00 
1.0000000e+00 -1.0000000e-01 1.7500000e+00 
1.0000000e+00 -1.0000000e-01 1.8500000e+00 
1.0000000e+00 -1.0000000e-01 1.9500000e+00 
1.0000000e+00 -1.0000000e-01 2.0500000e+00 
1.0000000e+00 -1.0000000e-01 2.1500001e+00 
1.0000000e+00 -1.0000000e-01 2.2500000e+00 
1.0000000e+00 -1.0000000e-01 2.3499999e+00 
1.0000000e+00 -1.0000000e-01 2.4500000e+00 
1.0000000e+00 -1.0000000e-01 2.5500000e+00 
1.0000000e+00 -1.0000000e-01 2.6500001e+00 
1.0000000e+00 -1.0000000e-01 2.7500000e+00 
1.0000000e+00 -1.0000000e-01 2.8499999e+00 
[...]
POINT_DATA 8402
FIELD FieldData 1
DISPLACEMENT 3 8402  float
0.0000000e+00 0.0000000e+00 0.0000000e+00 
0.0000000e+00 0.0000000e+00 0.0000000e+00 
0.0000000e+00 0.0000000e+00 0.0000000e+00 
0.0000000e+00 0.0000000e+00 0.0000000e+00 
0.0000000e+00 0.0000000e+00 0.0000000e+00 
0.0000000e+00 0.0000000e+00 0.0000000e+00 
0.0000000e+00 0.0000000e+00 0.0000000e+00 
0.0000000e+00 0.0000000e+00 0.0000000e+00 
0.0000000e+00 0.0000000e+00 0.0000000e+00 
0.0000000e+00 0.0000000e+00 0.0000000e+00 
0.0000000e+00 0.0000000e+00 0.0000000e+00 
0.0000000e+00 0.0000000e+00 0.0000000e+00 
0.0000000e+00 0.0000000e+00 0.0000000e+00 
0.0000000e+00 0.0000000e+00 0.0000000e+00 
0.0000000e+00 0.0000000e+00 0.0000000e+00 
0.0000000e+00 0.0000000e+00 0.0000000e+00 
0.0000000e+00 0.0000000e+00 0.0000000e+00 
0.0000000e+00 0.0000000e+00 0.0000000e+00 
0.0000000e+00 0.0000000e+00 0.0000000e+00 
0.0000000e+00 0.0000000e+00 0.0000000e+00 
0.0000000e+00 0.0000000e+00 0.0000000e+00 
0.0000000e+00 0.0000000e+00 0.0000000e+00 
0.0000000e+00 0.0000000e+00 0.0000000e+00 
0.0000000e+00 0.0000000e+00 0.0000000e+00 
0.0000000e+00 0.0000000e+00 0.0000000e+00 
0.0000000e+00 0.0000000e+00 0.0000000e+00 
0.0000000e+00 0.0000000e+00 0.0000000e+00 
0.0000000e+00 0.0000000e+00 0.0000000e+00 
0.0000000e+00 0.0000000e+00 0.0000000e+00 
0.0000000e+00 0.0000000e+00 0.0000000e+00 
0.0000000e+00 0.0000000e+00 0.0000000e+00 
0.0000000e+00 0.0000000e+00 0.0000000e+00 
0.0000000e+00 0.0000000e+00 0.0000000e+00 
0.0000000e+00 0.0000000e+00 0.0000000e+00 
0.0000000e+00 0.0000000e+00 0.0000000e+00 
0.0000000e+00 0.0000000e+00 0.0000000e+00 
0.0000000e+00 0.0000000e+00 0.0000000e+00 
0.0000000e+00 0.0000000e+00 0.0000000e+00 
0.0000000e+00 0.0000000e+00 0.0000000e+00 
0.0000000e+00 0.0000000e+00 0.0000000e+00 
0.0000000e+00 0.0000000e+00 0.0000000e+00 
0.0000000e+00 0.0000000e+00 0.0000000e+00 
0.0000000e+00 0.0000000e+00 0.0000000e+00 
0.0000000e+00 0.0000000e+00 0.0000000e+00 
0.0000000e+00 0.0000000e+00 0.0000000e+00 
0.0000000e+00 0.0000000e+00 0.0000000e+00 
0.0000000e+00 0.0000000e+00 0.0000000e+00 
0.0000000e+00 0.0000000e+00 0.0000000e+00 
0.0000000e+00 0.0000000e+00 0.0000000e+00 
0.0000000e+00 0.0000000e+00 0.0000000e+00 
0.0000000e+00 0.0000000e+00 0.0000000e+00 
0.0000000e+00 0.0000000e+00 0.0000000e+00 
0.0000000e+00 0.0000000e+00 0.0000000e+00 
0.0000000e+00 0.0000000e+00 0.0000000e+00 
0.0000000e+00 0.0000000e+00 0.0000000e+00 
0.0000000e+00 0.0000000e+00 0.0000000e+00 
0.0000000e+00 0.0000000e+00 0.0000000e+00 
0.0000000e+00 0.0000000e+00 0.0000000e+00 
0.0000000e+00 0.0000000e+00 0.0000000e+00 
0.0000000e+00 0.0000000e+00 0.0000000e+00 
0.0000000e+00 0.0000000e+00 0.0000000e+00 
0.0000000e+00 0.0000000e+00 0.0000000e+00 
0.0000000e+00 0.0000000e+00 0.0000000e+00 
0.0000000e+00 0.0000000e+00 0.0000000e+00 
0.0000000e+00 0.0000000e+00 0.0000000e+00 
0.0000000e+00 0.0000000e+00 0.0000000e+00 
0.0000000e+00 0.0000000e+00 0.0000000e+00 
0.0000000e+00 0.0000000e+00 0.0000000e+00 
0.0000000e+00 0.0000000e+00 0.0000000e+00 
0.0000000e+00 0.0000000e+00 0.0000000e+00 
0.0000000e+00 0.0000000e+00 0.0000000e+00 
0.0000000e+00 0.0000000e+00 0.0000000e+00 
0.0000000e+00 0.0000000e+00 0.0000000e+00 
0.0000000e+00 0.0000000e+00 0.0000000e+00 
0.0000000e+00 0.0000000e+00 0.0000000e+00 
0.0000000e+00 0.0000000e+00 0.0000000e+00 
0.0000000e+00 0.0000000e+00 0.0000000e+00 
0.0000000e+00 0.0000000e+00 0.0000000e+00 
0.0000000e+00 0.0000000e+00 0.0000000e+00 
0.0000000e+00 0.0000000e+00 0.0000000e+00 
0.0000000e+00 0.0000000e+00 0.0000000e+00 
0.0000000e+00 0.0000000e+00 0.0000000e+00 
0.0000000e+00 0.0000000e+00 0.0000000e+00 
0.0000000e+00 0.0000000e+00 0.0000000e+00 
0.0000000e+00 0.0000000e+00 0.0000000e+00 
0.0000000e+00 0.0000000e+00 0.0000000e+00 
0.0000000e+00 0.0000000e+00 0.0000000e+00 
0.0000000e+00 0.0000000e+00 0.0000000e+00 
0.0000000e+00 0.0000000e+00 0.0000000e+00 
0.0000000e+00 0.0000000e+00 0.0000000e+00 
0.0000000e+00 0.0000000e+00 0.0000000e+00 
0.0000000e+00 0.0000000e+00 0.0000000e+00 
0.0000000e+00 0.0000000e+00 0.0000000e+00 
0.0000000e+00 0.0000000e+00 0.0000000e+00 
0.0000000e+00 0.0000000e+00 0.0000000e+00 
0.0000000e+00 0.0000000e+00 0.0000000e+00 
0.0000000e+00 0.0000000e+00 0.0000000e+00 
0.0000000e+00 0.0000000e+00 0.0000000e+00 
0.0000000e+00 0.0000000e+00 0.0000000e+00 
0.0000000e+00 0.0000000e+00 0.0000000e+00 
0.0000000e+00 0.0000000e+00 0.0000000e+00 
0.0000000e+00 0.0000000e+00 0.0000000e+00 
0.0000000e+00 0.0000000e+00 0.0000000e+00 
0.0000000e+00 0.0000000e+00 0.0000000e+00 
0.0000000e+00 0.0000000e+00 0.0000000e+00 
0.0000000e+00 0.0000000e+00 0.0000000e+00 
0.0000000e+00 0.0000000e+00 0.0000000e+00 
0.0000000e+00 0.0000000e+00 0.0000000e+00 
0.0000000e+00 0.0000000e+00 0.0000000e+00 
0.0000000e+00 0.0000000e+00 0.0000000e+00 
0.0000000e+00 0.0000000e+00 0.0000000e+00 
0.0000000e+00 0.0000000e+00 0.0000000e+00 
0.0000000e+00 0.0000000e+00 0.0000000e+00 
0.0000000e+00 0.0000000e+00 0.0000000e+00 
0.0000000e+00 0.0000000e+00 0.0000000e+00 
0.0000000e+00 0.0000000e+00 0.0000000e+00 
0.0000000e+00 0.0000000e+00 0.0000000e+00 
0.0000000e+00 0.0000000e+00 0.0000000e+00 
0.0000000e+00 0.0000000e+00 0.0000000e+00 
0.0000000e+00 0.0000000e+00 0.0000000e+00 
0.0000000e+00 0.0000000e+00 0.0000000e+00 
0.0000000e+00 0.0000000e+00 0.0000000e+00 
0.0000000e+00 0.0000000e+00 0.0000000e+00 
0.0000000e+00 0.0000000e+00 0.0000000e+00 
0.0000000e+00 0.0000000e+00 0.0000000e+00 
0.0000000e+00 0.0000000e+00 0.0000000e+00 
0.0000000e+00 0.0000000e+00 0.0000000e+00 
0.0000000e+00 0.0000000e+00 0.0000000e+00 
0.0000000e+00 0.0000000e+00 0.0000000e+00 
0.0000000e+00 0.0000000e+00 0.0000000e+00 
0.0000000e+00 0.0000000e+00 0.0000000e+00 
0.0000000e+00 0.0000000e+00 0.0000000e+00 
0.0000000e+00 0.0000000e+00 0.0000000e+00 
0.0000000e+00 0.0000000e+00 0.0000000e+00 
0.0000000e+00 0.0000000e+00 0.0000000e+00 
0.0000000e+00 0.0000000e+00 0.0000000e+00 
0.0000000e+00 0.0000000e+00 0.0000000e+00 
0.0000000e+00 0.0000000e+00 0.0000000e+00 
0.0000000e+00 0.0000000e+00 0.0000000e+00 
0.0000000e+00 0.0000000e+00 0.0000000e+00 
0.0000000e+00 0.0000000e+00 0.0000000e+00 
0.0000000e+00 0.0000000e+00 0.0000000e+00 
0.0000000e+00 0.0000000e+00 0.0000000e+00 
0.0000000e+00 0.0000000e+00 0.0000000e+00 
0.0000000e+00 0.0000000e+00 0.0000000e+00 
0.0000000e+00 0.0000000e+00 0.0000000e+00 
0.0000000e+00 0.0000000e+00 0.0000000e+00 
0.0000000e+00 0.0000000e+00 0.0000000e+00 
0.0000000e+00 0.0000000e+00 0.0000000e+00 
0.0000000e+00 0.0000000e+00 0.0000000e+00 
0.0000000e+00 0.0000000e+00 0.0000000e+00 
0.0000000e+00 0.0000000e+00 0.0000000e+00 
0.0000000e+00 0.0000000e+00 0.0000000e+00 
0.0000000e+00 0.0000000e+00 0.0000000e+00 
0.0000000e+00 0.0000000e+00 0.0000000e+00 
0.0000000e+00 0.0000000e+00 0.0000000e+00 
0.0000000e+00 0.0000000e+00 0.0000000e+00 
0.0000000e+00 0.0000000e+00 0.0000000e+00 
0.0000000e+00 0.0000000e+00 0.0000000e+00 
0.0000000e+00 0.0000000e+00 0.0000000e+00 
0.0000000e+00 0.0000000e+00 0.0000000e+00 
0.0000000e+00 0.0000000e+00 0.0000000e+00 
0.0000000e+00 0.0000000e+00 0.0000000e+00 
0.0000000e+00 0.0000000e+00 0.0000000e+00 
0.0000000e+00 0.0000000e+00 0.0000000e+00 
0.0000000e+00 0.0000000e+00 0.0000000e+00 
0.0000000e+00 0.0000000e+00 0.0000000e+00 
0.0000000e+00 0.0000000e+00 0.0000000e+00 
0.0000000e+00 0.0000000e+00 0.0000000e+00 
0.0000000e+00 0.0000000e+00 0.0000000e+00 
0.0000000e+00 0.0000000e+00 0.0000000e+00 
0.0000000e+00 0.0000000e+00 0.0000000e+00 
0.0000000e+00 0.0000000e+00 0.0000000e+00 
0.0000000e+00 0.0000000e+00 0.0000000e+00 
0.0000000e+00 0.0000000e+00 0.0000000e+00 
0.0000000e+00 0.0000000e+00 0.0000000e+00 
0.0000000e+00 0.0000000e+00 0.0000000e+00 
0.0000000e+00 0.0000000e+00 0.0000000e+00 
0.0000000e+00 0.0000000e+00 0.0000000e+00 
0.0000000e+00 0.0000000e+00 0.0000000e+00 
0.0000000e+00 0.0000000e+00 0.0000000e+00 
0.0000000e+00 0.0000000e+00 0.0000000e+00 
0.0000000e+00 0.0000000e+00 0.0000000e+00 
0.0000000e+00 0.0000000e+00 0.0000000e+00 
0.0000000e+00 0.0000000e+00 0.0000000e+00 
0.0000000e+00 0.0000000e+00 0.0000000e+00 
0.0000000e+00 0.0000000e+00 0.0000000e+00 
0.0000000e+00 0.0000000e+00 0.0000000e+00 
0.0000000e+00 0.0000000e+00 0.0000000e+00 
0.0000000e+00 0.0000000e+00 0.0000000e+00 
0.0000000e+00 0.0000000e+00 0.0000000e+00 
0.0000000e+00 0.0000000e+00 0.0000000e+00 
0.0000000e+00 0.0000000e+00 0.0000000e+00 
0.0000000e+00 0.0000000e+00 0.0000000e+00 
0.0000000e+00 0.0000000e+00 0.0000000e+00 
0.0000000e+00 0.0000000e+00 0.0000000e+00 
0.0000000e+00 0.0000000e+00 0.0000000e+00 
0.0000000e+00 0.0000000e+00 0.0000000e+00 
0.0000000e+00 0.0000000e+00 0.0000000e+00 
0.0000000e+00 0.0000000e+00 0.0000000e+00 
0.0000000e+00 0.0000000e+00 0.0000000e+00 
0.0000000e+00 0.0000000e+00 0.0000000e+00 
0.0000000e+00 0.0000000e+00 0.0000000e+00 
0.0000000e+00 0.0000000e+00 0.0000000e+00 
0.0000000e+00 0.0000000e+00 0.0000000e+00 
0.0000000e+00 0.0000000e+00 0.0000000e+00 
0.0000000e+00 0.0000000e+00 0.0000000e+00 
0.0000000e+00 0.0000000e+00 0.0000000e+00 
0.0000000e+00 0.0000000e+00 0.0000000e+00 
0.0000000e+00 0.0000000e+00 0.0000000e+00 
0.0000000e+00 0.0000000e+00 0.0000000e+00 
0.0000000e+00 0.0000000e+00 0.0000000e+00 
0.0000000e+00 0.0000000e+00 0.0000000e+00 
0.0000000e+00 0.0000000e+00 0.0000000e+00 
0.0000000e+00 0.0000000e+00 0.0000000e+00 
0.0000000e+00 0.0000000e+00 0.0000000e+00 
0.0000000e+00 0.0000000e+00 0.0000000e+00 
0.0000000e+00 0.0000000e+00 0.0000000e+00 
0.0000000e+00 0.0000000e+00 0.0000000e+00 
0.0000000e+00 0.0000000e+00 0.0000000e+00 
0.0000000e+00 0.0000000e+00 0.0000000e+00 
0.0000000e+00 0.0000000e+00 0.0000000e+00 
0.0000000e+00 0.0000000e+00 0.0000000e+00 
0.0000000e+00 0.0000000e+00 0.0000000e+00 
0.0000000e+00 0.0000000e+00 0.0000000e+00 
0.0000000e+00 0.0000000e+00 0.0000000e+00 
0.0000000e+00 0.0000000e+00 0.0000000e+00 
0.0000000e+00 0.0000000e+00 0.0000000e+00 
0.0000000e+00 0.0000000e+00 0.0000000e+00 
0.0000000e+00 0.0000000e+00 0.0000000e+00 
0.0000000e+00 0.0000000e+00 0.0000000e+00 
0.0000000e+00 0.0000000e+00 0.0000000e+00 
0.0000000e+00 0.0000000e+00 0.0000000e+00 
0.0000000e+00 0.0000000e+00 0.0000000e+00 
0.0000000e+00 0.0000000e+00 0.0000000e+00 
0.0000000e+00 0.0000000e+00 0.0000000e+00 
0.0000000e+00 0.0000000e+00 0.0000000e+00 
0.0000000e+00 0.0000000e+00 0.0000000e+00 
0.0000000e+00 0.0000000e+00 0.0000000e+00 
0.0000000e+00 0.0000000e+00 0.0000000e+00 
0.0000000e+00 0.0000000e+00 0.0000000e+00 
0.0000000e+00 0.0000000e+00 0.0000000e+00 
0.0000000e+00 0.0000000e+00 0.0000000e+00 
0.0000000e+00 0.0000000e+00 0.0000000e+00 
0.0000000e+00 0.0000000e+00 0.0000000e+00 
0.0000000e+00 0.0000000e+00 0.0000000e+00 
0.0000000e+00 0.0000000e+00 0.0000000e+00 
0.0000000e+00 0.0000000e+00 0.0000000e+00 
0.0000000e+00 0.0000000e+00 0.0000000e+00 
0.0000000e+00 0.0000000e+00 0.0000000e+00 
0.0000000e+00 0.0000000e+00 0.0000000e+00 
0.0000000e+00 0.0000000e+00 0.0000000e+00 
0.0000000e+00 0.0000000e+00 0.0000000e+00 
0.0000000e+00 0.0000000e+00 0.0000000e+00 
0.0000000e+00 0.0000000e+00 0.0000000e+00 
0.0000000e+00 0.0000000e+00 0.0000000e+00 
0.0000000e+00 0.0000000e+00 0.0000000e+00 
0.0000000e+00 0.0000000e+00 0.0000000e+00 
0.0000000e+00 0.0000000e+00 0.0000000e+00 
0.0000000e+00 0.0000000e+00 0.0000000e+00 
0.0000000e+00 0.0000000e+00 0.0000000e+00 
0.0000000e+00 0.0000000e+00 0.0000000e+00 
0.0000000e+00 0.0000000e+00 0.0000000e+00 
0.0000000e+00 0.0000000e+00 0.0000000e+00 
0.0000000e+00 0.0000000e+00 0.0000000e+00 
0.0000000e+00 0.0000000e+00 0.0000000e+00 
0.0000000e+00 0.0000000e+00 0.0000000e+00 
0.0000000e+00 0.0000000e+00 0.0000000e+00 
0.0000000e+00 0.0000000e+00 0.0000000e+00 
0.0000000e+00 0.0000000e+00 0.0000000e+00 
0.0000000e+00 0.0000000e+00 0.0000000e+00 
0.0000000e+00 0.0000000e+00 0.0000000e+00 
0.0000000e+00 0.0000000e+00 0.0000000e+00 
0.0000000e+00 0.0000000e+00 0.0000000e+00 
0.0000000e+00 0.0000000e+00 0.0000000e+00 
0.0000000e+00 0.0000000e+00 0.0000000e+00 
0.0000000e+00 0.0000000e+00 0.0000000e+00 
0.0000000e+00 0.0000000e+00 0.0000000e+00 
0.0000000e+00 0.0000000e+00 0.0000000e+00 
0.0000000e+00 0.0000000e+00 0.0000000e+00 
0.0000000e+00 0.0000000e+00 0.0000000e+00 
0.0000000e+00 0.0000000e+00 0.0000000e+00 
0.0000000e+00 0.0000000e+00 0.0000000e+00 
0.0000000e+00 0.0000000e+00 0.0000000e+00 
0.0000000e+00 0.0000000e+00 0.0000000e+00 
0.0000000e+00 0.0000000e+00 0.0000000e+00 
0.0000000e+00 0.0000000e+00 0.0000000e+00 
0.0000000e+00 0.0000000e+00 0.0000000e+00 
0.0000000e+00 0.0000000e+00 0.0000000e+00 
0.0000000e+00 0.0000000e+00 0.0000000e+00 
0.0000000e+00 0.0000000e+00 0.0000000e+00 
0.0000000e+00 0.0000000e+00 0.0000000e+00 
0.0000000e+00 0.0000000e+00 0.0000000e+00 
0.0000000e+00 0.0000000e+00 0.0000000e+00 
0.0000000e+00 0.0000000e+00 0.0000000e+00 
0.0000000e+00 0.0000000e+00 0.0000000e+00 
0.0000000e+00 0.0000000e+00 0.0000000e+00 
0.0000000e+00 0.0000000e+00 0.0000000e+00 
0.0000000e+00 0.0000000e+00 0.0000000e+00 
0.0000000e+00 0.0000000e+00 0.0000000e+00 
0.0000000e+00 0.0000000e+00 0.0000000e+00 
0.0000000e+00 0.0000000e+00 0.0000000e+00 
0.0000000e+00 0.0000000e+00 0.0000000e+00 
0.0000000e+00 0.0000000e+00 0.0000000e+00 
0.0000000e+00 0.0000000e+00 0.0000000e+00 
0.0000000e+00 0.0000000e+00 0.0000000e+00 
0.0000000e+00 0.0000000e+00 0.0000000e+00 
0.0000000e+00 0.0000000e+00 0.0000000e+00 
0.0000000e+00 0.0000000e+00 0.0000000e+00 
0.0000000e+00 0.0000000e+00 0.0000000e+00 
0.0000000e+00 0.0000000e+00 0.0000000e+00 
0.0000000e+00 0.0000000e+00 0.0000000e+00 
0.0000000e+00 0.0000000e+00 0.0000000e+00 
0.0000000e+00 0.0000000e+00 0.0000000e+00 
0.0000000e+00 0.0000000e+00 0.0000000e+00 
0.0000000e+00 0.0000000e+00 0.0000000e+00 
0.0000000e+00 0.0000000e+00 0.0000000e+00 
0.0000000e+00 0.0000000e+00 0.0000000e+00 
0.0000000e+00 0.0000000e+00 0.0000000e+00 
0.0000000e+00 0.0000000e+00 0.0000000e+00 
0.0000000e+00 0.0000000e+00 0.0000000e+00 
0.0000000e+00 0.0000000e+00 0.0000000e+00 
0.0000000e+00 0.0000000e+00 0.0000000e+00 
0.0000000e+00 0.0000000e+00 0.0000000e+00 
0.0000000e+00 0.0000000e+00 0.0000000e+00 
0.0000000e+00 0.0000000e+00 0.0000000e+00 
0.0000000e+00 0.0000000e+00 0.0000000e+00 
0.0000000e+00 0.0000000e+00 0.0000000e+00 
0.0000000e+00 0.0000000e+00 0.0000000e+00 
0.0000000e+00 0.0000000e+00 0.0000000e+00 
0.0000000e+00 0.0000000e+00 0.0000000e+00 
0.0000000e+00 0.0000000e+00 0.0000000e+00 
0.0000000e+00 0.0000000e+00 0.0000000e+00 
0.0000000e+00 0.0000000e+00 0.0000000e+00 
0.0000000e+00 0.0000000e+00 0.0000000e+00 
0.0000000e+00 0.0000000e+00 0.0000000e+00 
0.0000000e+00 0.0000000e+00 0.0000000e+00 
0.0000000e+00 0.0000000e+00 0.0000000e+00 
0.0000000e+00 0.0000000e+00 0.0000000e+00 
0.0000000e+00 0.0000000e+00 0.0000000e+00 
0.0000000e+00 0.0000000e+00 0.0000000e+00 
0.0000000e+00 0.0000000e+00 0.0000000e+00 
0.0000000e+00 0.0000000e+00 0.0000000e+00 
0.0000000e+00 0.0000000e+00 0.0000000e+00 
0.0000000e+00 0.0000000e+00 0.0000000e+00 
0.0000000e+00 0.0000000e+00 0.0000000e+00 
0.0000000e+00 0.0000000e+00 0.0000000e+00 
0.0000000e+00 0.0000000e+00 0.0000000e+00 
0.0000000e+00 0.0000000e+00 0.0000000e+00 
0.0000000e+00 0.0000000e+00 0.0000000e+00 
0.0000000e+00 0.0000000e+00 0.0000000e+00 
0.0000000e+00 0.0000000e+00 0.0000000e+00 
0.0000000e+00 0.0000000e+00 0.0000000e+00 
0.0000000e+00 0.0000000e+00 0.0000000e+00 
0.0000000e+00 0.0000000e+00 0.0000000e+00 
0.0000000e+00 0.0000000e+00 0.0000000e+00 
0.0000000e+00 0.0000000e+00 0.0000000e+00 
0.0000000e+00 0.0000000e+00 0.0000000e+00 
0.0000000e+00 0.0000000e+00 0.0000000e+00 
0.0000000e+00 0.0000000e+00 0.0000000e+00 
0.0000000e+00 0.0000000e+00 0.0000000e+00 
0.0000000e+00 0.0000000e+00 0.0000000e+00 
0.0000000e+00 0.0000000e+00 0.0000000e+00 
0.0000000e+00 0.0000000e+00 0.0000000e+00 
0.0000000e+00 0.0000000e+00 0.0000000e+00 
0.0000000e+00 -8.3202605e-05 0.0000000e+00 
0.0000000e+00 -1.6476311e-04 0.0000000e+00 
0.0000000e+00 -2.4303883e-04 0.0000000e+00 
0.0000000e+00 -3.1638608e-04 0.0000000e+00 
0.0000000e+00 -3.8359081e-04 0.0000000e+00 
0.0000000e+00 -4.4468124e-04 0.0000000e+00 
0.0000000e+00 -4.9990602e-04 0.0000000e+00 
0.0000000e+00 -5.4951012e-04 0.0000000e+00 
0.0000000e+00 -5.9373461e-04 0.0000000e+00 
0.0000000e+00 -6.3281599e-04 0.0000000e+00 
0.0000000e+00 -6.6698604e-04 0.0000000e+00 
0.0000000e+00 -6.9647137e-04 0.0000000e+00 
0.0000000e+00 -7.2149327e-04 0.0000000e+00 
0.0000000e+00 -7.4226753e-04 0.0000000e+00 
0.0000000e+00 -7.5900427e-04 0.0000000e+00 
0.0000000e+00 -7.7190774e-04 0.0000000e+00 
0.0000000e+00 -7.8117620e-04 0.0000000e+00 
0.0000000e+00 -7.8700203e-04 0.0000000e+00 
0.0000000e+00 -7.8957138e-04 0.0000000e+00 
0.0000000e+00 -7.8906451e-04 0.0000000e+00 
0.0000000e+00 -7.8565546e-04 0.0000000e+00 
0.0000000e+00 -7.7951187e-04 0.0000000e+00 
0.0000000e+00 -7.7079522e-04 0.0000000e+00 
0.0000000e+00 -7.5966044e-04 0.0000000e+00 
0.0000000e+00 -7.4625650e-04 0.0000000e+00 
0.0000000e+00 -7.3072611e-04 0.0000000e+00 
0.0000000e+00 -7.1320613e-04 0.0000000e+00 
0.0000000e+00 -6.9382729e-04 0.0000000e+00 
0.0000000e+00 -6.7271467e-04 0.0000000e+00 
0.0000000e+00 -6.4998789e-04 0.0000000e+00 
0.0000000e+00 -6.2576111e-04 0.0000000e+00 
0.0000000e+00 -6.0014316e-04 0.0000000e+00 
0.0000000e+00 -5.7323789e-04 0.0000000e+00 
0.0000000e+00 -5.4514437e-04 0.0000000e+00 
0.0000000e+00 -5.1595725e-04 0.0000000e+00 
0.0000000e+00 -4.8576674e-04 0.0000000e+00 
0.0000000e+00 -4.5465896e-04 0.0000000e+00 
0.0000000e+00 -4.2271608e-04 0.0000000e+00 
0.0000000e+00 -3.9001674e-04 0.0000000e+00 
0.0000000e+00 -3.5663604e-04 0.0000000e+00 
0.0000000e+00 -3.2264602e-04 0.0000000e+00 
0.0000000e+00 -2.8811579e-04 0.0000000e+00 
0.0000000e+00 -2.5311185e-04 0.0000000e+00 
0.0000000e+00 -2.1769843e-04 0.0000000e+00 
0.0000000e+00 -1.8193778e-04 0.0000000e+00 
0.0000000e+00 -1.4589042e-04 0.0000000e+00 
0.0000000e+00 -1.0961543e-04 0.0000000e+00 
0.0000000e+00 -7.3170777e-05 0.0000000e+00 
0.0000000e+00 -3.6613481e-05 0.0000000e+00 
0.0000000e+00 -4.1703923e-05 0.0000000e+00 
0.0000000e+00 -1.2429077e-04 0.0000000e+00 
0.0000000e+00 -2.0441429e-04 0.0000000e+00 
0.0000000e+00 -2.8043118e-04 0.0000000e+00 
0.0000000e+00 -3.5076839e-04 0.0000000e+00 
0.0000000e+00 -4.1488468e-04 0.0000000e+00 
0.0000000e+00 -4.7301143e-04 0.0000000e+00 
0.0000000e+00 -5.2539550e-04 0.0000000e+00 
0.0000000e+00 -5.7227991e-04 0.0000000e+00 
0.0000000e+00 -6.1390357e-04 0.0000000e+00 
0.0000000e+00 -6.5050065e-04 0.0000000e+00 
0.0000000e+00 -6.8230036e-04 0.0000000e+00 
0.0000000e+00 -7.0952665e-04 0.0000000e+00 
0.0000000e+00 -7.3239813e-04 0.0000000e+00 
0.0000000e+00 -7.5112772e-04 0.0000000e+00 
0.0000000e+00 -7.6592265e-04 0.0000000e+00 
0.0000000e+00 -7.7698421e-04 0.0000000e+00 
0.0000000e+00 -7.8450766e-04 0.0000000e+00 
0.0000000e+00 -7.8868237e-04 0.0000000e+00 
0.0000000e+00 -7.8969146e-04 0.0000000e+00 
0.0000000e+00 -7.8771211e-04 0.0000000e+00 
0.0000000e+00 -7.8291527e-04 0.0000000e+00 
0.0000000e+00 -7.7546533e-04 0.0000000e+00 
0.0000000e+00 -7.6552061e-04 0.0000000e+00 
0.0000000e+00 -7.5323303e-04 0.0000000e+00 
0.0000000e+00 -7.3874841e-04 0.0000000e+00 
0.0000000e+00 -7.2220655e-04 0.0000000e+00 
0.0000000e+00 -7.0374110e-04 0.0000000e+00 
0.0000000e+00 -6.8348006e-04 0.0000000e+00 
0.0000000e+00 -6.6154578e-04 0.0000000e+00 
0.0000000e+00 -6.3805509e-04 0.0000000e+00 
0.0000000e+00 -6.1311945e-04 0.0000000e+00 
0.0000000e+00 -5.8684516e-04 0.0000000e+00 
0.0000000e+00 -5.5933365e-04 0.0000000e+00 
0.0000000e+00 -5.3068181e-04 0.0000000e+00 
0.0000000e+00 -5.0098193e-04 0.0000000e+00 
0.0000000e+00 -4.7032227e-04 0.0000000e+00 
0.0000000e+00 -4.3878690e-04 0.0000000e+00 
0.0000000e+00 -4.0645621e-04 0.0000000e+00 
0.0000000e+00 -3.7340701e-04 0.0000000e+00 
0.0000000e+00 -3.3971280e-04 0.0000000e+00 
0.0000000e+00 -3.0544423e-04 0.0000000e+00 
0.0000000e+00 -2.7066897e-04 0.0000000e+00 
0.0000000e+00 -2.3545239e-04 0.0000000e+00 
0.0000000e+00 -1.9985769e-04 0.0000000e+00 
0.0000000e+00 -1.6394621e-04 0.0000000e+00 
0.0000000e+00 -1.2777773e-04 0.0000000e+00 