# vtk DataFile Version 4.0
vtk output
ASCII
DATASET UNSTRUCTURED_GRID
POINTS 8402 float
0.0000000e+00 -1.0000000e-01 0.0000000e+00 
1.0000000e+00 -1.0000000e-01 0.0000000e+00 
1.0000000e+00 0.0000000e+00 0.0000000e+00 
0.0000000e+00 0.0000000e+00 0.0000000e+00 
0.0000000e+00 -1.0000000e-01 5.0000000e+00 
1.0000000e+00 -1.0000000e-01 5.0000000e+00 
1.0000000e+00 0.0000000e+00 5.0000000e+00 
0.0000000e+00 0.0000000e+00 5.0000000e+00 
1.0000000e-01 -1.0000000e-01 0.0000000e+00 
2.0000000e-01 -1.0000000e-01 0.0000000e+00 
3.0000001e-01 -1.0000000e-01 0.0000000e+00 
4.0000001e-01 -1.0000000e-01 0.0000000e+00 
5.0000000e-01 -1.0000000e-01 0.0000000e+00 
6.0000002e-01 -1.0000000e-01 0.0000000e+00 
6.9999999e-01 -1.0000000e-01 0.0000000e+00 
8.0000001e-01 -1.0000000e-01 0.0000000e+00 
8.9999998e-01 -1.0000000e-01 0.0000000e+00 
5.0000001e-02 -1.0000000e-01 0.0000000e+00 
1.5000001e-01 -1.0000000e-01 0.0000000e+00 
2.5000000e-01 -1.0000000e-01 0.0000000e+00 
3.4999999e-01 -1.0000000e-01 0.0000000e+00 
4.4999999e-01 -1.0000000e-01 0.0000000e+00 
5.5000001e-01 -1.0000000e-01 0.0000000e+00 
6.4999998e-01 -1.0000000e-01 0.0000000e+00 
7.5000000e-01 -1.0000000e-01 0.0000000e+00 
8.5000002e-01 -1.0000000e-01 0.0000000e+00 
9.4999999e-01 -1.0000000e-01 0.0000000e+00 
1.0000000e+00 -5.0000001e-02 0.0000000e+00 
8.9999998e-01 0.0000000e+00 0.0000000e+00 
8.0000001e-01 0.0000000e+00 0.0000000e+00 
6.9999999e-01 0.0000000e+00 0.0000000e+00 
6.0000002e-01 0.0000000e+00 0.0000000e+00 
5.0000000e-01 0.0000000e+00 0.0000000e+00 
4.0000001e-01 0.0000000e+00 0.0000000e+00 
3.0000001e-01 0.0000000e+00 0.0000000e+00 
2.0000000e-01 0.0000000e+00 0.0000000e+00 
1.0000000e-01 0.0000000e+00 0.0000000e+00 
9.4999999e-01 0.0000000e+00 0.0000000e+00 
8.5000002e-01 0.0000000e+00 0.0000000e+00 
7.5000000e-01 0.0000000e+00 0.0000000e+00 
6.4999998e-01 0.0000000e+00 0.0000000e+00 
5.5000001e-01 0.0000000e+00 0.0000000e+00 
4.4999999e-01 0.0000000e+00 0.0000000e+00 
3.4999999e-01 0.0000000e+00 0.0000000e+00 
2.5000000e-01 0.0000000e+00 0.0000000e+00 
1.5000001e-01 0.0000000e+00 0.0000000e+00 
5.0000001e-02 0.0000000e+00 0.0000000e+00 
0.0000000e+00 -5.0000001e-02 0.0000000e+00 
0.0000000e+00 -1.0000000e-01 1.0000000e-01 
0.0000000e+00 -1.0000000e-01 2.0000000e-01 
0.0000000e+00 -1.0000000e-01 3.0000001e-01 
0.0000000e+00 -1.0000000e-01 4.0000001e-01 
0.0000000e+00 -1.0000000e-01 5.0000000e-01 
0.0000000e+00 -1.0000000e-01 6.0000002e-01 
0.0000000e+00 -1.0000000e-01 6.9999999e-01 
0.0000000e+00 -1.0000000e-01 8.0000001e-01 
0.0000000e+00 -1.0000000e-01 8.9999998e-01 
0.0000000e+00 -1.0000000e-01 1.0000000e+00 
0.0000000e+00 -1.0000000e-01 1.1000000e+00 
0.0000000e+00 -1.0000000e-01 1.2000000e+00 
0.0000000e+00 -1.0000000e-01 1.3000000e+00 
0.0000000e+00 -1.0000000e-01 1.4000000e+00 
0.0000000e+00 -1.0000000e-01 1.5000000e+00 
0.0000000e+00 -1.0000000e-01 1.6000000e+00 
0.0000000e+00 -1.0000000e-01 1.7000000e+00 
0.0000000e+00 -1.0000000e-01 1.8000000e+00 
0.0000000e+00 -1.0000000e-01 1.9000000e+00 
0.0000000e+00 -1.0000000e-01 2.0000000e+00 
0.0000000e+00 -1.0000000e-01 2.0999999e+00 
0.0000000e+00 -1.0000000e-01 2.2000000e+00 
0.0000000e+00 -1.0000000e-01 2.3000000e+00 
0.0000000e+00 -1.0000000e-01 2.4000001e+00 
0.0000000e+00 -1.0000000e-01 2.5000000e+00 
0.0000000e+00 -1.0000000e-01 2.5999999e+00 
0.0000000e+00 -1.0000000e-01 2.7000000e+00 
0.0000000e+00 -1.0000000e-01 2.8000000e+00 
0.0000000e+00 -1.0000000e-01 2.9000001e+00 
0.0000000e+00 -1.0000000e-01 3.0000000e+00 
0.0000000e+00 -1.0000000e-01 3.0999999e+00 
0.0000000e+00 -1.0000000e-01 3.2000000e+00 
0.0000000e+00 -1.0000000e-01 3.3000000e+00 
0.0000000e+00 -1.0000000e-01 3.4000001e+00 
0.0000000e+00 -1.0000000e-01 3.5000000e+00 
0.0000000e+00 -1.0000000e-01 3.5999999e+00 
0.0000000e+00 -1.0000000e-01 3.7000000e+00 
0.0000000e+00 -1.0000000e-01 3.8000000e+00 
0.0000000e+00 -1.0000000e-01 3.9000001e+00 
0.0000000e+00 -1.0000000e-01 4.0000000e+00 
0.0000000e+00 -1.0000000e-01 4.0999999e+00 
0.0000000e+00 -1.0000000e-01 4.1999998e+00 
0.0000000e+00 -1.0000000e-01 4.3000002e+00 
0.0000000e+00 -1.0000000e-01 4.4000001e+00 
0.0000000e+00 -1.0000000e-01 4.5000000e+00 
0.0000000e+00 -1.0000000e-01 4.5999999e+00 
0.0000000e+00 -1.0000000e-01 4.6999998e+00 
0.0000000e+00 -1.0000000e-01 4.8000002e+00 
0.0000000e+00 -1.0000000e-01 4.9000001e+00 
0.0000000e+00 -1.0000000e-01 5.0000001e-02 
0.0000000e+00 -1.0000000e-01 1.5000001e-01 
0.0000000e+00 -1.0000000e-01 2.5000000e-01 
0.0000000e+00 -1.0000000e-01 3.4999999e-01 
0.0000000e+00 -1.0000000e-01 4.4999999e-01 
0.0000000e+00 -1.0000000e-01 5.5000001e-01 
0.0000000e+00 -1.0000000e-01 6.4999998e-01 
0.0000000e+00 -1.0000000e-01 7.5000000e-01 
0.0000000e+00 -1.0000000e-01 8.5000002e-01 
0.0000000e+00 -1.0000000e-01 9.4999999e-01 
0.0000000e+00 -1.0000000e-01 1.0500000e+00 
0.0000000e+00 -1.0000000e-01 1.1500000e+00 
0.0000000e+00 -1.0000000e-01 1.2500000e+00 
0.0000000e+00 -1.0000000e-01 1.3500000e+00 
0.0000000e+00 -1.0000000e-01 1.4500000e+00 
0.0000000e+00 -1.0000000e-01 1.5500000e+00 
0.0000000e+00 -1.0000000e-01 1.6500000e+00 
0.0000000e+00 -1.0000000e-01 1.7500000e+00 
0.0000000e+00 -1.0000000e-01 1.8500000e+00 
0.0000000e+00 -1.0000000e-01 1.9500000e+00 
0.0000000e+00 -1.0000000e-01 2.0500000e+00 
0.0000000e+00 -1.0000000e-01 2.1500001e+00 
0.0000000e+00 -1.0000000e-01 2.2500000e+00 
0.0000000e+00 -1.0000000e-01 2.3499999e+00 
0.0000000e+00 -1.0000000e-01 2.4500000e+00 
0.0000000e+00 -1.0000000e-01 2.5500000e+00 
0.0000000e+00 -1.0000000e-01 2.6500001e+00 
0.0000000e+00 -1.0000000e-01 2.7500000e+00 
0.0000000e+00 -1.0000000e-01 2.8499999e+00 
0.0000000e+00 -1.0000000e-01 2.9500000e+00 
0.0000000e+00 -1.0000000e-01 3.0500000e+00 
0.0000000e+00 -1.0000000e-01 3.1500001e+00 
0.0000000e+00 -1.0000000e-01 3.2500000e+00 
0.0000000e+00 -1.0000000e-01 3.3499999e+00 
0.0000000e+00 -1.0000000e-01 3.4500000e+00 
0.0000000e+00 -1.0000000e-01 3.5500000e+00 
0.0000000e+00 -1.0000000e-01 3.6500001e+00 
0.0000000e+00 -1.0000000e-01 3.7500000e+00 
0.0000000e+00 -1.0000000e-01 3.8499999e+00 
0.0000000e+00 -1.0000000e-01 3.9500000e+00 
0.0000000e+00 -1.0000000e-01 4.0500002e+00 
0.0000000e+00 -1.0000000e-01 4.1500001e+00 
0.0000000e+00 -1.0000000e-01 4.2500000e+00 
0.0000000e+00 -1.0000000e-01 4.3499999e+00 
0.0000000e+00 -1.0000000e-01 4.4499998e+00 
0.0000000e+00 -1.0000000e-01 4.5500002e+00 
0.0000000e+00 -1.0000000e-01 4.6500001e+00 
0.0000000e+00 -1.0000000e-01 4.7500000e+00 
0.0000000e+00 -1.0000000e-01 4.8499999e+00 
0.0000000e+00 -1.0000000e-01 4.9499998e+00 
1.0000000e+00 -1.0000000e-01 1.0000000e-01 
1.0000000e+00 -1.0000000e-01 2.0000000e-01 
1.0000000e+00 -1.0000000e-01 3.0000001e-01 
1.0000000e+00 -1.0000000e-01 4.0000001e-01 
1.0000000e+00 -1.0000000e-01 5.0000000e-01 
1.0000000e+00 -1.0000000e-01 6.0000002e-01 
1.0000000e+00 -1.0000000e-01 6.9999999e-01 
1.0000000e+00 -1.0000000e-01 8.0000001e-01 
1.0000000e+00 -1.0000000e-01 8.9999998e-01 
1.0000000e+00 -1.0000000e-01 1.0000000e+00 
1.0000000e+00 -1.0000000e-01 1.1000000e+00 
1.0000000e+00 -1.0000000e-01 1.2000000e+00 
1.0000000e+00 -1.0000000e-01 1.3000000e+00 
1.0000000e+00 -1.0000000e-01 1.4000000e+00 
1.0000000e+00 -1.0000000e-01 1.5000000e+00 
1.0000000e+00 -1.0000000e-01 1.6000000e+00 
1.0000000e+00 -1.0000000e-01 1.7000000e+00 
1.0000000e+00 -1.0000000e-01 1.8000000e+00 
1.0000000e+00 -1.0000000e-01 1.9000000e+00 
1.0000000e+00 -1.0000000e-01 2.0000000e+00 
1.0000000e+00 -1.0000000e-01 2.0999999e+00 
1.0000000e+00 -1.0000000e-01 2.2000000e+00 
1.0000000e+00 -1.0000000e-01 2.3000000e+00 
1.0000000e+00 -1.0000000e-01 2.4000001e+00 
1.0000000e+00 -1.0000000e-01 2.5000000e+00 
1.0000000e+00 -1.0000000e-01 2.5999999e+00 
1.0000000e+00 -1.0000000e-01 2.7000000e+00 
1.0000000e+00 -1.0000000e-01 2.8000000e+00 
1.0000000e+00 -1.0000000e-01 2.9000001e+00 
1.0000000e+00 -1.0000000e-01 3.0000000e+00 
1.0000000e+00 -1.0000000e-01 3.0999999e+00 
1.0000000e+00 -1.0000000e-01 3.2000000e+00 
1.0000000e+00 -1.0000000e-01 3.3000000e+00 
1.0000000e+00 -1.0000000e-01 3.4000001e+00 
1.0000000e+00 -1.0000000e-01 3.5000000e+00 
1.0000000e+00 -1.0000000e-01 3.5999999e+00 
1.0000000e+00 -1.0000000e-01 3.7000000e+00 
1.0000000e+00 -1.0000000e-01 3.8000000e+00 
1.0000000e+00 -1.0000000e-01 3.9000001e+00 
1.0000000e+00 -1.0000000e-01 4.0000000e+00 
1.0000000e+00 -1.0000000e-01 4.0999999e+00 
1.0000000e+00 -1.0000000e-01 4.1999998e+00 
1.0000000e+00 -1.0000000e-01 4.3000002e+00 
1.0000000e+00 -1.0000000e-01 4.4000001e+00 
1.0000000e+00 -1.0000000e-01 4.5000000e+00 
1.0000000e+00 -1.0000000e-01 4.5999999e+00 
1.0000000e+00 -1.0000000e-01 4.6999998e+00 
1.0000000e+00 -1.0000000e-01 4.8000002e+00 
1.0000000e+00 -1.0000000e-01 4.9000001e+00 
1.0000000e+00 -1.0000000e-01 5.0000001e-02 
1.0000000e+00 -1.0000000e-01 1.5000001e-01 
1.0000000e+00 -1.0000000e-01 2.5000000e-01 
1.0000000e+00 -1.0000000e-01 3.4999999e-01 
1.0000000e+00 -1.0000000e-01 4.4999999e-01 
1.0000000e+00 -1.0000000e-01 5.5000001e-01 
1.0000000e+00 -1.0000000e-01 6.4999998e-01 
1.0000000e+00 -1.0000000e-01 7.5000000e-01 
1.0000000e+00 -1.0000000e-01 8.5000002e-01 
1.0000000e+00 -1.0000000e-01 9.4999999e-01 
1.0000000e+00 -1.0000000e-01 1.0500000e+00 
1.0000000e+00 -1.0000000e-01 1.1500000e+00 
1.0000000e+00 -1.0000000e-01 1.2500000e+00 
1.0000000e+00 -1.0000000e-01 1.3500000e+00 
1.0000000e+00 -1.0000000e-01 1.4500000e+00 
1.0000000e+00 -1.0000000e-01 1.5500000e+00 
1.0000000e+00 -1.0000000e-01 1.6500000e+00 
1.0000000e+00 -1.0000000e-01 1.7500000e+00 
1.0000000e+00 -1.0000000e-01 1.8500000e+00 
1.0000000e+00 -1.0000000e-01 1.9500000e+00 
1.0000000e+00 -1.0000000e-01 2.0500000e+00 
1.0000000e+00 -1.0000000e-01 2.1500001e+00 
1.0000000e+00 -1.0000000e-01 2.2500000e+00 
1.0000000e+00 -1.0000000e-01 2.3499999e+00 
1.0000000e+00 -1.0000000e-01 2.4500000e+00 
1.0000000e+00 -1.0000000e-01 2.5500000e+00 
1.0000000e+00 -1.0000000e-01 2.6500001e+00 
1.0000000e+00 -1.0000000e-01 2.7500000e+00 
1.0000000e+00 -1.0000000e-01 2.8499999e+00 
[...]
POINT_DATA 8402
FIELD FieldData 1
DISPLACEMENT 3 8402  float
0.0000000e+00 0.0000000e+00 0.0000000e+00 
0.0000000e+00 0.0000000e+00 0.0000000e+00 
0.0000000e+00 0.0000000e+00 0.0000000e+00 
0.0000000e+00 0.0000000e+00 0.0000000e+00 
0.0000000e+00 0.0000000e+00 0.0000000e+00 
0.0000000e+00 0.0000000e+00 0.0000000e+00 
0.0000000e+00 0.0000000e+00 0.0000000e+00 
0.0000000e+00 0.0000000e+00 0.0000000e+00 
0.0000000e+00 0.0000000e+00 0.0000000e+00 
0.0000000e+00 0.0000000e+00 0.0000000e+00 
0.0000000e+00 0.0000000e+00 0.0000000e+00 
0.0000000e+00 0.0000000e+00 0.0000000e+00 
0.0000000e+00 0.0000000e+00 0.0000000e+00 
0.0000000e+00 0.0000000e+00 0.0000000e+00 
0.0000000e+00 0.0000000e+00 0.0000000e+00 
0.0000000e+00 0.0000000e+00 0.0000000e+00 
0.0000000e+00 0.0000000e+00 0.0000000e+00 
0.0000000e+00 0.0000000e+00 0.0000000e+00 
0.0000000e+00 0.0000000e+00 0.0000000e+00 
0.0000000e+00 0.0000000e+00 0.0000000e+00 
0.0000000e+00 0.0000000e+00 0.0000000e+00 
0.0000000e+00 0.0000000e+00 0.0000000e+00 
0.0000000e+00 0.0000000e+00 0.0000000e+00 
0.0000000e+00 0.0000000e+00 0.0000000e+00 
0.0000000e+00 0.0000000e+00 0.0000000e+00 
0.0000000e+00 0.0000000e+00 0.0000000e+00 
0.0000000e+00 0.0000000e+00 0.0000000e+00 
0.0000000e+00 0.0000000e+00 0.0000000e+00 
0.0000000e+00 0.0000000e+00 0.0000000e+00 
0.0000000e+00 0.0000000e+00 0.0000000e+00 
0.0000000e+00 0.0000000e+00 0.0000000e+00 
0.0000000e+00 0.0000000e+00 0.0000000e+00 
0.0000000e+00 0.0000000e+00 0.0000000e+00 
0.0000000e+00 0.0000000e+00 0.0000000e+00 
0.0000000e+00 0.0000000e+00 0.0000000e+00 
0.0000000e+00 0.0000000e+00 0.0000000e+00 
0.0000000e+00 0.0000000e+00 0.0000000e+00 
0.0000000e+00 0.0000000e+00 0.0000000e+00 
0.0000000e+00 0.0000000e+00 0.0000000e+00 
0.0000000e+00 0.0000000e+00 0.0000000e+00 
0.0000000e+00 0.0000000e+00 0.0000000e+00 
0.0000000e+00 0.0000000e+00 0.0000000e+00 
0.0000000e+00 0.0000000e+00 0.0000000e+00 
0.0000000e+00 0.0000000e+00 0.0000000e+00 
0.0000000e+00 0.0000000e+00 0.0000000e+00 
0.0000000e+00 0.0000000e+00 0.0000000e+00 
0.0000000e+00 0.0000000e+00 0.0000000e+00 
0.0000000e+00 0.0000000e+00 0.0000000e+00 
0.0000000e+00 0.0000000e+00 0.0000000e+00 
0.0000000e+00 0.0000000e+00 0.0000000e+00 
0.0000000e+00 0.0000000e+00 0.0000000e+00 
0.0000000e+00 0.0000000e+00 0.0000000e+00 
0.0000000e+00 0.0000000e+00 0.0000000e+00 
0.0000000e+00 0.0000000e+00 0.0000000e+00 
0.0000000e+00 0.0000000e+00 0.0000000e+00 
0.0000000e+00 0.0000000e+00 0.0000000e+00 
0.0000000e+00 0.0000000e+00 0.0000000e+00 
0.0000000e+00 0.0000000e+00 0.0000000e+00 
0.0000000e+00 0.0000000e+00 0.0000000e+00 
0.0000000e+00 0.0000000e+00 0.0000000e+00 
0.0000000e+00 0.0000000e+00 0.0000000e+00 
0.0000000e+00 0.0000000e+00 0.0000000e+00 
0.0000000e+00 0.0000000e+00 0.0000000e+00 
0.0000000e+00 0.0000000e+00 0.0000000e+00 
0.0000000e+00 0.0000000e+00 0.0000000e+00 
0.0000000e+00 0.0000000e+00 0.0000000e+00 
0.0000000e+00 0.0000000e+00 0.0000000e+00 
0.0000000e+00 0.0000000e+00 0.0000000e+00 
0.0000000e+00 0.0000000e+00 0.0000000e+00 
0.0000000e+00 0.0000000e+00 0.0000000e+00 
0.0000000e+00 0.0000000e+00 0.0000000e+00 
0.0000000e+00 0.0000000e+00 0.0000000e+00 
0.0000000e+00 0.0000000e+00 0.0000000e+00 
0.0000000e+00 0.0000000e+00 0.0000000e+00 
0.0000000e+00 0.0000000e+00 0.0000000e+00 
0.0000000e+00 0.0000000e+00 0.0000000e+00 
0.0000000e+00 0.0000000e+00 0.0000000e+00 
0.0000000e+00 0.0000000e+00 0.0000000e+00 
0.0000000e+00 0.0000000e+00 0.0000000e+00 
0.0000000e+00 0.0000000e+00 0.0000000e+00 
0.0000000e+00 0.0000000e+00 0.0000000e+00 
0.0000000e+00 0.0000000e+00 0.0000000e+00 
0.0000000e+00 0.0000000e+00 0.0000000e+00 
0.0000000e+00 0.0000000e+00 0.0000000e+00 
0.0000000e+00 0.0000000e+00 0.0000000e+00 
0.0000000e+00 0.0000000e+00 0.0000000e+00 
0.0000000e+00 0.0000000e+00 0.0000000e+00 
0.0000000e+00 0.0000000e+00 0.0000000e+00 
0.0000000e+00 0.0000000e+00 0.0000000e+00 
0.0000000e+00 0.0000000e+00 0.0000000e+00 
0.0000000e+00 0.0000000e+00 0.0000000e+00 
0.0000000e+00 0.0000000e+00 0.0000000e+00 
0.0000000e+00 0.0000000e+00 0.0000000e+00 
0.0000000e+00 0.0000000e+00 0.0000000e+00 
0.0000000e+00 0.0000000e+00 0.0000000e+00 
0.0000000e+00 0.0000000e+00 0.0000000e+00 
0.0000000e+00 0.0000000e+00 0.0000000e+00 
0.0000000e+00 0.0000000e+00 0.0000000e+00 
0.0000000e+00 0.0000000e+00 0.0000000e+00 
0.0000000e+00 0.0000000e+00 0.0000000e+00 
0.0000000e+00 0.0000000e+00 0.0000000e+00 
0.0000000e+00 0.0000000e+00 0.0000000e+00 
0.0000000e+00 0.0000000e+00 0.0000000e+00 
0.0000000e+00 0.0000000e+00 0.0000000e+00 
0.0000000e+00 0.0000000e+00 0.0000000e+00 
0.0000000e+00 0.0000000e+00 0.0000000e+00 
0.0000000e+00 0.0000000e+00 0.0000000e+00 
0.0000000e+00 0.0000000e+00 0.0000000e+00 
0.0000000e+00 0.0000000e+00 0.0000000e+00 
0.0000000e+00 0.0000000e+00 0.0000000e+00 
0.0000000e+00 0.0000000e+00 0.0000000e+00 
0.0000000e+00 0.0000000e+00 0.0000000e+00 
0.0000000e+00 0.0000000e+00 0.0000000e+00 
0.0000000e+00 0.0000000e+00 0.0000000e+00 
0.0000000e+00 0.0000000e+00 0.0000000e+00 
0.0000000e+00 0.0000000e+00 0.0000000e+00 
0.0000000e+00 0.0000000e+00 0.0000000e+00 
0.0000000e+00 0.0000000e+00 0.0000000e+00 
0.0000000e+00 0.0000000e+00 0.0000000e+00 
0.0000000e+00 0.0000000e+00 0.0000000e+00 
0.0000000e+00 0.0000000e+00 0.0000000e+00 
0.0000000e+00 0.0000000e+00 0.0000000e+00 
0.0000000e+00 0.0000000e+00 0.0000000e+00 
0.0000000e+00 0.0000000e+00 0.0000000e+00 
0.0000000e+00 0.0000000e+00 0.0000000e+00 
0.0000000e+00 0.0000000e+00 0.0000000e+00 
0.0000000e+00 0.0000000e+00 0.0000000e+00 
0.0000000e+00 0.0000000e+00 0.0000000e+00 
0.0000000e+00 0.0000000e+00 0.0000000e+00 
0.0000000e+00 0.0000000e+00 0.0000000e+00 
0.0000000e+00 0.0000000e+00 0.0000000e+00 
0.0000000e+00 0.0000000e+00 0.0000000e+00 
0.0000000e+00 0.0000000e+00 0.0000000e+00 
0.0000000e+00 0.0000000e+00 0.0000000e+00 
0.0000000e+00 0.0000000e+00 0.0000000e+00 
0.0000000e+00 0.0000000e+00 0.0000000e+00 
0.0000000e+00 0.0000000e+00 0.0000000e+00 
0.0000000e+00 0.0000000e+00 0.0000000e+00 
0.0000000e+00 0.0000000e+00 0.0000000e+00 
0.0000000e+00 0.0000000e+00 0.0000000e+00 
0.0000000e+00 0.0000000e+00 0.0000000e+00 
0.0000000e+00 0.0000000e+00 0.0000000e+00 
0.0000000e+00 0.0000000e+00 0.0000000e+00 
0.0000000e+00 0.0000000e+00 0.0000000e+00 
0.0000000e+00 0.0000000e+00 0.0000000e+00 
0.0000000e+00 0.0000000e+00 0.0000000e+00 
0.0000000e+00 0.0000000e+00 0.0000000e+00 
0.0000000e+00 0.0000000e+00 0.0000000e+00 
0.0000000e+00 0.0000000e+00 0.0000000e+00 
0.0000000e+00 0.0000000e+00 0.0000000e+00 
0.0000000e+00 0.0000000e+00 0.0000000e+00 
0.0000000e+00 0.0000000e+00 0.0000000e+00 
0.0000000e+00 0.0000000e+00 0.0000000e+00 
0.0000000e+00 0.0000000e+00 0.0000000e+00 
0.0000000e+00 0.0000000e+00 0.0000000e+00 
0.0000000e+00 0.0000000e+00 0.0000000e+00 
0.0000000e+00 0.0000000e+00 0.0000000e+00 
0.0000000e+00 0.0000000e+00 0.0000000e+00 
0.0000000e+00 0.0000000e+00 0.0000000e+00 
0.0000000e+00 0.0000000e+00 0.0000000e+00 
0.0000000e+00 0.0000000e+00 0.0000000e+00 
0.0000000e+00 0.0000000e+00 0.0000000e+00 
0.0000000e+00 0.0000000e+00 0.0000000e+00 
0.0000000e+00 0.0000000e+00 0.0000000e+00 
0.0000000e+00 0.0000000e+00 0.0000000e+00 
0.0000000e+00 0.0000000e+00 0.0000000e+00 
0.0000000e+00 0.0000000e+00 0.0000000e+00 
0.0000000e+00 0.0000000e+00 0.0000000e+00 
0.0000000e+00 0.0000000e+00 0.0000000e+00 
0.0000000e+00 0.0000000e+00 0.0000000e+00 
0.0000000e+00 0.0000000e+00 0.0000000e+00 
0.0000000e+00 0.0000000e+00 0.0000000e+00 
0.0000000e+00 0.0000000e+00 0.0000000e+00 
0.0000000e+00 0.0000000e+00 0.0000000e+00 
0.0000000e+00 0.0000000e+00 0.0000000e+00 
0.0000000e+00 0.0000000e+00 0.0000000e+00 
0.0000000e+00 0.0000000e+00 0.0000000e+00 
0.0000000e+00 0.0000000e+00 0.0000000e+00 
0.0000000e+00 0.0000000e+00 0.0000000e+00 
0.0000000e+00 0.0000000e+00 0.0000000e+00 
0.0000000e+00 0.0000000e+00 0.0000000e+00 
0.0000000e+00 0.0000000e+00 0.0000000e+00 
0.0000000e+00 0.0000000e+00 0.0000000e+00 
0.0000000e+00 0.0000000e+00 0.0000000e+00 
0.0000000e+00 0.0000000e+00 0.0000000e+00 
0.0000000e+00 0.0000000e+00 0.0000000e+00 
0.0000000e+00 0.0000000e+00 0.0000000e+00 
0.0000000e+00 0.0000000e+00 0.0000000e+00 
0.0000000e+00 0.0000000e+00 0.0000000e+00 
0.0000000e+00 0.0000000e+00 0.0000000e+00 
0.0000000e+00 0.0000000e+00 0.0000000e+00 
0.0000000e+00 0.0000000e+00 0.0000000e+00 
0.0000000e+00 0.0000000e+00 0.0000000e+00 
0.0000000e+00 0.0000000e+00 0.0000000e+00 
0.0000000e+00 0.0000000e+00 0.0000000e+00 
0.0000000e+00 0.0000000e+00 0.0000000e+00 
0.0000000e+00 0.0000000e+00 0.0000000e+00 
0.0000000e+00 0.0000000e+00 0.0000000e+00 
0.0000000e+00 0.0000000e+00 0.0000000e+00 
0.0000000e+00 0.0000000e+00 0.0000000e+00 
0.0000000e+00 0.0000000e+00 0.0000000e+00 
0.0000000e+00 0.0000000e+00 0.0000000e+00 
0.0000000e+00 0.0000000e+00 0.0000000e+00 
0.0000000e+00 0.0000000e+00 0.0000000e+00 
0.0000000e+00 0.0000000e+00 0.0000000e+00 
0.0000000e+00 0.0000000e+00 0.0000000e+00 
0.0000000e+00 0.0000000e+00 0.0000000e+00 
0.0000000e+00 0.0000000e+00 0.0000000e+00 
0.0000000e+00 0.0000000e+00 0.0000000e+00 
0.0000000e+00 0.0000000e+00 0.0000000e+00 
0.0000000e+00 0.0000000e+00 0.0000000e+00 
0.0000000e+00 0.0000000e+00 0.0000000e+00 
0.0000000e+00 0.0000000e+00 0.0000000e+00 
0.0000000e+00 0.0000000e+00 0.0000000e+00 
0.0000000e+00 0.0000000e+00 0.0000000e+00 
0.0000000e+00 0.0000000e+00 0.0000000e+00 
0.0000000e+00 0.0000000e+00 0.0000000e+00 
0.0000000e+00 0.0000000e+00 0.0000000e+00 
0.0000000e+00 0.0000000e+00 0.0000000e+00 
0.0000000e+00 0.0000000e+00 0.0000000e+00 
0.0000000e+00 0.0000000e+00 0.0000000e+00 
0.0000000e+00 0.0000000e+00 0.0000000e+00 
0.0000000e+00 0.0000000e+00 0.0000000e+00 
0.0000000e+00 0.0000000e+00 0.0000000e+00 
0.0000000e+00 0.0000000e+00 0.0000000e+00 
0.0000000e+00 0.0000000e+00 0.0000000e+00 
0.0000000e+00 0.0000000e+00 0.0000000e+00 
0.0000000e+00 0.0000000e+00 0.0000000e+00 
0.0000000e+00 0.0000000e+00 0.0000000e+00 
0.0000000e+00 0.0000000e+00 0.0000000e+00 
0.0000000e+00 0.0000000e+00 0.0000000e+00 
0.0000000e+00 0.0000000e+00 0.0000000e+00 
0.0000000e+00 0.0000000e+00 0.0000000e+00 
0.0000000e+00 0.0000000e+00 0.0000000e+00 
0.0000000e+00 0.0000000e+00 0.0000000e+00 
0.0000000e+00 0.0000000e+00 0.0000000e+00 
0.0000000e+00 0.0000000e+00 0.0000000e+00 
0.0000000e+00 0.0000000e+00 0.0000000e+00 
0.0000000e+00 0.0000000e+00 0.0000000e+00 
0.0000000e+00 0.0000000e+00 0.0000000e+00 
0.0000000e+00 0.0000000e+00 0.0000000e+00 
0.0000000e+00 0.0000000e+00 0.0000000e+00 
0.0000000e+00 0.0000000e+00 0.0000000e+00 
0.0000000e+00 0.0000000e+00 0.0000000e+00 
0.0000000e+00 0.0000000e+00 0.0000000e+00 
0.0000000e+00 0.0000000e+00 0.0000000e+00 
0.0000000e+00 0.0000000e+00 0.0000000e+00 
0.0000000e+00 0.0000000e+00 0.0000000e+00 
0.0000000e+00 0.0000000e+00 0.0000000e+00 
0.0000000e+00 0.0000000e+00 0.0000000e+00 
0.0000000e+00 0.0000000e+00 0.0000000e+00 
0.0000000e+00 0.0000000e+00 0.0000000e+00 
0.0000000e+00 0.0000000e+00 0.0000000e+00 
0.0000000e+00 0.0000000e+00 0.0000000e+00 
0.0000000e+00 0.0000000e+00 0.0000000e+00 
0.0000000e+00 0.0000000e+00 0.0000000e+00 
0.0000000e+00 0.0000000e+00 0.0000000e+00 
0.0000000e+00 0.0000000e+00 0.0000000e+00 
0.0000000e+00 0.0000000e+00 0.0000000e+00 
0.0000000e+00 0.0000000e+00 0.0000000e+00 
0.0000000e+00 0.0000000e+00 0.0000000e+00 
0.0000000e+00 0.0000000e+00 0.0000000e+00 
0.0000000e+00 0.0000000e+00 0.0000000e+00 
0.0000000e+00 0.0000000e+00 0.0000000e+00 
0.0000000e+00 0.0000000e+00 0.0000000e+00 
0.0000000e+00 0.0000000e+00 0.0000000e+00 
0.0000000e+00 0.0000000e+00 0.0000000e+00 
0.0000000e+00 0.0000000e+00 0.0000000e+00 
0.0000000e+00 0.0000000e+00 0.0000000e+00 
0.0000000e+00 0.0000000e+00 0.0000000e+00 
0.0000000e+00 0.0000000e+00 0.0000000e+00 
0.0000000e+00 0.0000000e+00 0.0000000e+00 
0.0000000e+00 0.0000000e+00 0.0000000e+00 
0.0000000e+00 0.0000000e+00 0.0000000e+00 
0.0000000e+00 0.0000000e+00 0.0000000e+00 
0.0000000e+00 0.0000000e+00 0.0000000e+00 
0.0000000e+00 0.0000000e+00 0.0000000e+00 
0.0000000e+00 0.0000000e+00 0.0000000e+00 
0.0000000e+00 0.0000000e+00 0.0000000e+00 
0.0000000e+00 0.0000000e+00 0.0000000e+00 
0.0000000e+00 0.0000000e+00 0.0000000e+00 
0.0000000e+00 0.0000000e+00 0.0000000e+00 
0.0000000e+00 0.0000000e+00 0.0000000e+00 
0.0000000e+00 0.0000000e+00 0.0000000e+00 
0.0000000e+00 0.0000000e+00 0.0000000e+00 
0.0000000e+00 0.0000000e+00 0.0000000e+00 
0.0000000e+00 0.0000000e+00 0.0000000e+00 
0.0000000e+00 0.0000000e+00 0.0000000e+00 
0.0000000e+00 0.0000000e+00 0.0000000e+00 
0.0000000e+00 0.0000000e+00 0.0000000e+00 
0.0000000e+00 0.0000000e+00 0.0000000e+00 
0.0000000e+00 0.0000000e+00 0.0000000e+00 
0.0000000e+00 0.0000000e+00 0.0000000e+00 
0.0000000e+00 0.0000000e+00 0.0000000e+00 
0.0000000e+00 0.0000000e+00 0.0000000e+00 
0.0000000e+00 0.0000000e+00 0.0000000e+00 
0.0000000e+00 0.0000000e+00 0.0000000e+00 
0.0000000e+00 0.0000000e+00 0.0000000e+00 
0.0000000e+00 0.0000000e+00 0.0000000e+00 
0.0000000e+00 0.0000000e+00 0.0000000e+00 
0.0000000e+00 0.0000000e+00 0.0000000e+00 
0.0000000e+00 0.0000000e+00 0.0000000e+00 
0.0000000e+00 0.0000000e+00 0.0000000e+00 
0.0000000e+00 0.0000000e+00 0.0000000e+00 
0.0000000e+00 0.0000000e+00 0.0000000e+00 
0.0000000e+00 0.0000000e+00 0.0000000e+00 
0.0000000e+00 0.0000000e+00 0.0000000e+00 
0.0000000e+00 0.0000000e+00 0.0000000e+00 
0.0000000e+00 0.0000000e+00 0.0000000e+00 
0.0000000e+00 0.0000000e+00 0.0000000e+00 
0.0000000e+00 0.0000000e+00 0.0000000e+00 
0.0000000e+00 0.0000000e+00 0.0000000e+00 
0.0000000e+00 0.0000000e+00 0.0000000e+00 
0.0000000e+00 0.0000000e+00 0.0000000e+00 
0.0000000e+00 0.0000000e+00 0.0000000e+00 
0.0000000e+00 0.0000000e+00 0.0000000e+00 
0.0000000e+00 0.0000000e+00 0.0000000e+00 
0.0000000e+00 0.0000000e+00 0.0000000e+00 
0.0000000e+00 0.0000000e+00 0.0000000e+00 
0.0000000e+00 0.0000000e+00 0.0000000e+00 
0.0000000e+00 0.0000000e+00 0.0000000e+00 
0.0000000e+00 0.0000000e+00 0.0000000e+00 
0.0000000e+00 0.0000000e+00 0.0000000e+00 
0.0000000e+00 0.0000000e+00 0.0000000e+00 
0.0000000e+00 0.0000000e+00 0.0000000e+00 
0.0000000e+00 0.0000000e+00 0.0000000e+00 
0.0000000e+00 0.0000000e+00 0.0000000e+00 
0.0000000e+00 0.0000000e+00 0.0000000e+00 
0.0000000e+00 0.0000000e+00 0.0000000e+00 
0.0000000e+00 0.0000000e+00 0.0000000e+00 
0.0000000e+00 0.0000000e+00 0.0000000e+00 
0.0000000e+00 0.0000000e+00 0.0000000e+00 
0.0000000e+00 0.0000000e+00 0.0000000e+00 
0.0000000e+00 0.0000000e+00 0.0000000e+00 
0.0000000e+00 0.0000000e+00 0.0000000e+00 
0.0000000e+00 0.0000000e+00 0.0000000e+00 
0.0000000e+00 0.0000000e+00 0.0000000e+00 
0.0000000e+00 0.0000000e+00 0.0000000e+00 
0.0000000e+00 0.0000000e+00 0.0000000e+00 
0.0000000e+00 0.0000000e+00 0.0000000e+00 
0.0000000e+00 0.0000000e+00 0.0000000e+00 
0.0000000e+00 0.0000000e+00 0.0000000e+00 
0.0000000e+00 0.0000000e+00 0.0000000e+00 
0.0000000e+00 0.0000000e+00 0.0000000e+00 
0.0000000e+00 0.0000000e+00 0.0000000e+00 
0.0000000e+00 0.0000000e+00 0.0000000e+00 
0.0000000e+00 0.0000000e+00 0.0000000e+00 
0.0000000e+00 0.0000000e+00 0.0000000e+00 
0.0000000e+00 0.0000000e+00 0.0000000e+00 
0.0000000e+00 0.0000000e+00 0.0000000e+00 
0.0000000e+00 0.0000000e+00 0.0000000e+00 
0.0000000e+00 0.0000000e+00 0.0000000e+00 
0.0000000e+00 0.0000000e+00 0.0000000e+00 
0.0000000e+00 0.0000000e+00 0.0000000e+00 
0.0000000e+00 0.0000000e+00 0.0000000e+00 
0.0000000e+00 0.0000000e+00 0.0000000e+00 
0.0000000e+00 0.0000000e+00 0.0000000e+00 
0.0000000e+00 0.0000000e+00 0.0000000e+00 
0.0000000e+00 0.0000000e+00 0.0000000e+00 
0.0000000e+00 0.0000000e+00 0.0000000e+00 
0.0000000e+00 0.0000000e+00 0.0000000e+00 
0.0000000e+00 0.0000000e+00 0.0000000e+00 
0.0000000e+00 0.0000000e+00 0.0000000e+00 
0.0000000e+00 0.0000000e+00 0.0000000e+00 
0.0000000e+00 0.0000000e+00 0.0000000e+00 
0.0000000e+00 -5.2200116e-06 0.0000000e+00 
0.0000000e+00 -1.0090796e-05 0.0000000e+00 
0.0000000e+00 -1.4571808e-05 0.0000000e+00 
0.0000000e+00 -1.8677860e-05 0.0000000e+00 
0.0000000e+00 -2.2423650e-05 0.0000000e+00 
0.0000000e+00 -2.5823714e-05 0.0000000e+00 
0.0000000e+00 -2.8892407e-05 0.0000000e+00 
0.0000000e+00 -3.1643856e-05 0.0000000e+00 
0.0000000e+00 -3.4091947e-05 0.0000000e+00 
0.0000000e+00 -3.6250294e-05 0.0000000e+00 
0.0000000e+00 -3.8132224e-05 0.0000000e+00 
0.0000000e+00 -3.9750757e-05 0.0000000e+00 
0.0000000e+00 -4.1118587e-05 0.0000000e+00 
0.0000000e+00 -4.2248073e-05 0.0000000e+00 
0.0000000e+00 -4.3151238e-05 0.0000000e+00 
0.0000000e+00 -4.3839744e-05 0.0000000e+00 
0.0000000e+00 -4.4324908e-05 0.0000000e+00 
0.0000000e+00 -4.4617678e-05 0.0000000e+00 
0.0000000e+00 -4.4728658e-05 0.0000000e+00 
0.0000000e+00 -4.4668086e-05 0.0000000e+00 
0.0000000e+00 -4.4445827e-05 0.0000000e+00 
0.0000000e+00 -4.4071381e-05 0.0000000e+00 
0.0000000e+00 -4.3553868e-05 0.0000000e+00 
0.0000000e+00 -4.2902044e-05 0.0000000e+00 
0.0000000e+00 -4.2124302e-05 0.0000000e+00 
0.0000000e+00 -4.1228679e-05 0.0000000e+00 
0.0000000e+00 -4.0222865e-05 0.0000000e+00 
0.0000000e+00 -3.9114202e-05 0.0000000e+00 
0.0000000e+00 -3.7909704e-05 0.0000000e+00 
0.0000000e+00 -3.6616068e-05 0.0000000e+00 
0.0000000e+00 -3.5239664e-05 0.0000000e+00 
0.0000000e+00 -3.3786579e-05 0.0000000e+00 
0.0000000e+00 -3.2262593e-05 0.0000000e+00 
0.0000000e+00 -3.0673229e-05 0.0000000e+00 
0.0000000e+00 -2.9023742e-05 0.0000000e+00 
0.0000000e+00 -2.7319145e-05 0.0000000e+00 
0.0000000e+00 -2.5564214e-05 0.0000000e+00 
0.0000000e+00 -2.3763492e-05 0.0000000e+00 
0.0000000e+00 -2.1921327e-05 0.0000000e+00 
0.0000000e+00 -2.0041858e-05 0.0000000e+00 
0.0000000e+00 -1.8129060e-05 0.0000000e+00 
0.0000000e+00 -1.6186730e-05 0.0000000e+00 
0.0000000e+00 -1.4218523e-05 0.0000000e+00 
0.0000000e+00 -1.2227963e-05 0.0000000e+00 
0.0000000e+00 -1.0218454e-05 0.0000000e+00 
0.0000000e+00 -8.1933067e-06 0.0000000e+00 
0.0000000e+00 -6.1557489e-06 0.0000000e+00 
0.0000000e+00 -4.1089438e-06 0.0000000e+00 
0.0000000e+00 -2.0560017e-06 0.0000000e+00 
0.0000000e+00 -2.6384821e-06 0.0000000e+00 
0.0000000e+00 -7.7050554e-06 0.0000000e+00 
0.0000000e+00 -1.2379095e-05 0.0000000e+00 
0.0000000e+00 -1.6670781e-05 0.0000000e+00 
0.0000000e+00 -2.0594875e-05 0.0000000e+00 
0.0000000e+00 -2.4165996e-05 0.0000000e+00 
0.0000000e+00 -2.7398593e-05 0.0000000e+00 
0.0000000e+00 -3.0306914e-05 0.0000000e+00 
0.0000000e+00 -3.2904965e-05 0.0000000e+00 
0.0000000e+00 -3.5206500e-05 0.0000000e+00 
0.0000000e+00 -3.7224989e-05 0.0000000e+00 
0.0000000e+00 -3.8973612e-05 0.0000000e+00 
0.0000000e+00 -4.0465227e-05 0.0000000e+00 
0.0000000e+00 -4.1712363e-05 0.0000000e+00 
0.0000000e+00 -4.2727210e-05 0.0000000e+00 
0.0000000e+00 -4.3521610e-05 0.0000000e+00 
0.0000000e+00 -4.4107052e-05 0.0000000e+00 
0.0000000e+00 -4.4494671e-05 0.0000000e+00 
0.0000000e+00 -4.4695244e-05 0.0000000e+00 
0.0000000e+00 -4.4719189e-05 0.0000000e+00 
0.0000000e+00 -4.4576565e-05 0.0000000e+00 
0.0000000e+00 -4.4277047e-05 0.0000000e+00 
0.0000000e+00 -4.3829950e-05 0.0000000e+00 
0.0000000e+00 -4.3244210e-05 0.0000000e+00 
0.0000000e+00 -4.2528402e-05 0.0000000e+00 
0.0000000e+00 -4.1690735e-05 0.0000000e+00 
0.0000000e+00 -4.0739080e-05 0.0000000e+00 
0.0000000e+00 -3.9680941e-05 0.0000000e+00 
0.0000000e+00 -3.8523503e-05 0.0000000e+00 
0.0000000e+00 -3.7273621e-05 0.0000000e+00 
0.0000000e+00 -3.5937825e-05 0.0000000e+00 
0.0000000e+00 -3.4522338e-05 0.0000000e+00 
0.0000000e+00 -3.3033095e-05 0.0000000e+00 
0.0000000e+00 -3.1475749e-05 0.0000000e+00 
0.0000000e+00 -2.9855681e-05 0.0000000e+00 
0.0000000e+00 -2.8178029e-05 0.0000000e+00 
0.0000000e+00 -2.6447682e-05 0.0000000e+00 
0.0000000e+00 -2.4669300e-05 0.0000000e+00 
0.0000000e+00 -2.2847327e-05 0.0000000e+00 
0.0000000e+00 -2.0986003e-05 0.0000000e+00 
0.0000000e+00 -1.9089384e-05 0.0000000e+00 
0.0000000e+00 -1.7161354e-05 0.0000000e+00 
0.0000000e+00 -1.5205637e-05 0.0000000e+00 
0.0000000e+00 -1.3225822e-05 0.0000000e+00 
0.0000000e+00 -1.1225367e-05 0.0000000e+00 
0.0000000e+00 -9.2076316e-06 0.0000000e+00 
0.0000000e+00 -7.1758800e-06 0.0000000e+00 