# vtk DataFile Version 4.0
vtk output
ASCII
DATASET UNSTRUCTURED_GRID
POINTS 21 float
0.0000000e+00 0.0000000e+00 0.0000000e+00 
1.0000000e+00 0.0000000e+00 0.0000000e+00 
5.0000001e-02 0.0000000e+00 0.0000000e+00 
1.0000000e-01 0.0000000e+00 0.0000000e+00 
1.5000001e-01 0.0000000e+00 0.0000000e+00 
2.0000000e-01 0.0000000e+00 0.0000000e+00 
2.5000000e-01 0.0000000e+00 0.0000000e+00 
3.0000001e-01 0.0000000e+00 0.0000000e+00 
3.4999999e-01 0.0000000e+00 0.0000000e+00 
4.0000001e-01 0.0000000e+00 0.0000000e+00 
4.4999999e-01 0.0000000e+00 0.0000000e+00 
5.0000000e-01 0.0000000e+00 0.0000000e+00 
5.5000001e-01 0.0000000e+00 0.0000000e+00 
6.0000002e-01 0.0000000e+00 0.0000000e+00 
6.4999998e-01 0.0000000e+00 0.0000000e+00 
6.9999999e-01 0.0000000e+00 0.0000000e+00 
7.5000000e-01 0.0000000e+00 0.0000000e+00 
8.0000001e-01 0.0000000e+00 0.0000000e+00 
8.5000002e-01 0.0000000e+00 0.0000000e+00 
8.9999998e-01 0.0000000e+00 0.0000000e+00 
9.4999999e-01 0.0000000e+00 0.0000000e+00 

CELLS 20 60
2 0 2
2 2 3
2 3 4
2 4 5
2 5 6
2 6 7
2 7 8
2 8 9
2 9 10
2 10 11
2 11 12
2 12 13
2 13 14
2 14 15
2 15 16
2 16 17
2 17 18
2 18 19
2 19 20
2 20 1

CELL_TYPES 20
3
3
3
3
3
3
3
3
3
3
3
3
3
3
3
3
3
3
3
3
POINT_DATA 21
FIELD FieldData 1
DISPLACEMENT 3 21  float
0.0000000e+00 0.0000000e+00 0.0000000e+00 
0.0000000e+00 -9.6523967e-05 0.0000000e+00 
0.0000000e+00 -7.5096350e-06 0.0000000e+00 
0.0000000e+00 -1.4977662e-05 0.0000000e+00 
0.0000000e+00 -2.2362476e-05 0.0000000e+00 
0.0000000e+00 -2.9622468e-05 0.0000000e+00 
0.0000000e+00 -3.6716032e-05 0.0000000e+00 
0.0000000e+00 -4.3601558e-05 0.0000000e+00 
0.0000000e+00 -5.0237446e-05 0.0000000e+00 
0.0000000e+00 -5.6582081e-05 0.0000000e+00 
0.0000000e+00 -6.2593856e-05 0.0000000e+00 
0.0000000e+00 -6.8231173e-05 0.0000000e+00 
0.0000000e+00 -7.3452415e-05 0.0000000e+00 
0.0000000e+00 -7.8215977e-05 0.0000000e+00 
0.0000000e+00 -8.2480256e-05 0.0000000e+00 
0.0000000e+00 -8.6203712e-05 0.0000000e+00 
0.0000000e+00 -8.9357127e-05 0.0000000e+00 
0.0000000e+00 -9.1937189e-05 0.0000000e+00 
0.0000000e+00 -9.3943905e-05 0.0000000e+00 
0.0000000e+00 -9.5377276e-05 0.0000000e+00 
0.0000000e+00 -9.6237294e-05 0.0000000e+00 
CELL_DATA 20
FIELD FieldData 1
FORCE 3 20  float
0.0000000e+00 2.4846449e+04 0.0000000e+00 
0.0000000e+00 2.4727393e+04 0.0000000e+00 
0.0000000e+00 2.4489279e+04 0.0000000e+00 
0.0000000e+00 2.4132105e+04 0.0000000e+00 
0.0000000e+00 2.3655867e+04 0.0000000e+00 
0.0000000e+00 2.3060561e+04 0.0000000e+00 
0.0000000e+00 2.2346184e+04 0.0000000e+00 
0.0000000e+00 2.1512730e+04 0.0000000e+00 
0.0000000e+00 2.0560199e+04 0.0000000e+00 
0.0000000e+00 1.9488584e+04 0.0000000e+00 
0.0000000e+00 1.8297902e+04 0.0000000e+00 
0.0000000e+00 1.6987979e+04 0.0000000e+00 
0.0000000e+00 1.5560248e+04 0.0000000e+00 
0.0000000e+00 1.4704869e+04 0.0000000e+00 
0.0000000e+00 1.8181221e+04 0.0000000e+00 
0.0000000e+00 1.4875563e+04 0.0000000e+00 
0.0000000e+00 1.1569896e+04 0.0000000e+00 
0.0000000e+00 8.2642178e+03 0.0000000e+00 
0.0000000e+00 4.9585337e+03 0.0000000e+00 
0.0000000e+00 1.6528450e+03 0.0000000e+00 
