# vtk DataFile Version 4.0
vtk output
ASCII
DATASET UNSTRUCTURED_GRID
POINTS 21 float
0.0000000e+00 0.0000000e+00 0.0000000e+00 
1.0000000e+00 0.0000000e+00 0.0000000e+00 
5.0000001e-02 0.0000000e+00 0.0000000e+00 
1.0000000e-01 0.0000000e+00 0.0000000e+00 
1.5000001e-01 0.0000000e+00 0.0000000e+00 
2.0000000e-01 0.0000000e+00 0.0000000e+00 
2.5000000e-01 0.0000000e+00 0.0000000e+00 
3.0000001e-01 0.0000000e+00 0.0000000e+00 
3.4999999e-01 0.0000000e+00 0.0000000e+00 
4.0000001e-01 0.0000000e+00 0.0000000e+00 
4.4999999e-01 0.0000000e+00 0.0000000e+00 
5.0000000e-01 0.0000000e+00 0.0000000e+00 
5.5000001e-01 0.0000000e+00 0.0000000e+00 
6.0000002e-01 0.0000000e+00 0.0000000e+00 
6.4999998e-01 0.0000000e+00 0.0000000e+00 
6.9999999e-01 0.0000000e+00 0.0000000e+00 
7.5000000e-01 0.0000000e+00 0.0000000e+00 
8.0000001e-01 0.0000000e+00 0.0000000e+00 
8.5000002e-01 0.0000000e+00 0.0000000e+00 
8.9999998e-01 0.0000000e+00 0.0000000e+00 
9.4999999e-01 0.0000000e+00 0.0000000e+00 

CELLS 20 60
2 0 2
2 2 3
2 3 4
2 4 5
2 5 6
2 6 7
2 7 8
2 8 9
2 9 10
2 10 11
2 11 12
2 12 13
2 13 14
2 14 15
2 15 16
2 16 17
2 17 18
2 18 19
2 19 20
2 20 1

CELL_TYPES 20
3
3
3
3
3
3
3
3
3
3
3
3
3
3
3
3
3
3
3
3
POINT_DATA 21
FIELD FieldData 1
DISPLACEMENT 3 21  float
0.0000000e+00 0.0000000e+00 0.0000000e+00 
0.0000000e+00 -2.0924570e-06 0.0000000e+00 
0.0000000e+00 -1.9947966e-07 0.0000000e+00 
0.0000000e+00 -3.9307724e-07 0.0000000e+00 
0.0000000e+00 -5.7665278e-07 0.0000000e+00 
0.0000000e+00 -7.4973821e-07 0.0000000e+00 
0.0000000e+00 -9.1233346e-07 0.0000000e+00 
0.0000000e+00 -1.0644386e-06 0.0000000e+00 
0.0000000e+00 -1.2060536e-06 0.0000000e+00 
0.0000000e+00 -1.3371786e-06 0.0000000e+00 
0.0000000e+00 -1.4578135e-06 0.0000000e+00 
0.0000000e+00 -1.5679584e-06 0.0000000e+00 
0.0000000e+00 -1.6676132e-06 0.0000000e+00 
0.0000000e+00 -1.7567780e-06 0.0000000e+00 
0.0000000e+00 -1.8354528e-06 0.0000000e+00 
0.0000000e+00 -1.9036377e-06 0.0000000e+00 
0.0000000e+00 -1.9613324e-06 0.0000000e+00 
0.0000000e+00 -2.0085374e-06 0.0000000e+00 
0.0000000e+00 -2.0452521e-06 0.0000000e+00 
0.0000000e+00 -2.0714772e-06 0.0000000e+00 
0.0000000e+00 -2.0872121e-06 0.0000000e+00 
CELL_DATA 20
FIELD FieldData 1
FORCE 3 20  float
0.0000000e+00 7.3152246e+03 0.0000000e+00 
0.0000000e+00 7.2940830e+03 0.0000000e+00 
0.0000000e+00 7.8197788e+03 0.0000000e+00 
0.0000000e+00 7.3697749e+03 0.0000000e+00 
0.0000000e+00 6.9202842e+03 0.0000000e+00 
0.0000000e+00 6.4712905e+03 0.0000000e+00 
0.0000000e+00 6.0227734e+03 0.0000000e+00 
0.0000000e+00 5.5747109e+03 0.0000000e+00 
0.0000000e+00 5.1270776e+03 0.0000000e+00 
0.0000000e+00 4.6798457e+03 0.0000000e+00 
0.0000000e+00 4.2329863e+03 0.0000000e+00 
0.0000000e+00 3.7864688e+03 0.0000000e+00 
0.0000000e+00 3.3402598e+03 0.0000000e+00 
0.0000000e+00 2.8943264e+03 0.0000000e+00 
0.0000000e+00 2.4486333e+03 0.0000000e+00 
0.0000000e+00 2.0031454e+03 0.0000000e+00 
0.0000000e+00 1.5578260e+03 0.0000000e+00 
0.0000000e+00 1.1126384e+03 0.0000000e+00 
0.0000000e+00 6.6754523e+02 0.0000000e+00 
0.0000000e+00 2.2250876e+02 0.0000000e+00 
