# vtk DataFile Version 4.0
vtk output
ASCII
DATASET UNSTRUCTURED_GRID
POINTS 21 float
0.0000000e+00 0.0000000e+00 0.0000000e+00 
1.0000000e+00 0.0000000e+00 0.0000000e+00 
5.0000001e-02 0.0000000e+00 0.0000000e+00 
1.0000000e-01 0.0000000e+00 0.0000000e+00 
1.5000001e-01 0.0000000e+00 0.0000000e+00 
2.0000000e-01 0.0000000e+00 0.0000000e+00 
2.5000000e-01 0.0000000e+00 0.0000000e+00 
3.0000001e-01 0.0000000e+00 0.0000000e+00 
3.4999999e-01 0.0000000e+00 0.0000000e+00 
4.0000001e-01 0.0000000e+00 0.0000000e+00 
4.4999999e-01 0.0000000e+00 0.0000000e+00 
5.0000000e-01 0.0000000e+00 0.0000000e+00 
5.5000001e-01 0.0000000e+00 0.0000000e+00 
6.0000002e-01 0.0000000e+00 0.0000000e+00 
6.4999998e-01 0.0000000e+00 0.0000000e+00 
6.9999999e-01 0.0000000e+00 0.0000000e+00 
7.5000000e-01 0.0000000e+00 0.0000000e+00 
8.0000001e-01 0.0000000e+00 0.0000000e+00 
8.5000002e-01 0.0000000e+00 0.0000000e+00 
8.9999998e-01 0.0000000e+00 0.0000000e+00 
9.4999999e-01 0.0000000e+00 0.0000000e+00 

CELLS 20 60
2 0 2
2 2 3
2 3 4
2 4 5
2 5 6
2 6 7
2 7 8
2 8 9
2 9 10
2 10 11
2 11 12
2 12 13
2 13 14
2 14 15
2 15 16
2 16 17
2 17 18
2 18 19
2 19 20
2 20 1

CELL_TYPES 20
3
3
3
3
3
3
3
3
3
3
3
3
3
3
3
3
3
3
3
3
POINT_DATA 21
FIELD FieldData 1
DISPLACEMENT 3 21  float
0.0000000e+00 0.0000000e+00 0.0000000e+00 
0.0000000e+00 -5.3467018e-05 0.0000000e+00 
0.0000000e+00 -4.3843370e-06 0.0000000e+00 
0.0000000e+00 -8.7389717e-06 0.0000000e+00 
0.0000000e+00 -1.3034201e-05 0.0000000e+00 
0.0000000e+00 -1.7240323e-05 0.0000000e+00 
0.0000000e+00 -2.1327638e-05 0.0000000e+00 
0.0000000e+00 -2.5266439e-05 0.0000000e+00 
0.0000000e+00 -2.9027029e-05 0.0000000e+00 
0.0000000e+00 -3.2579701e-05 0.0000000e+00 
0.0000000e+00 -3.5894755e-05 0.0000000e+00 
0.0000000e+00 -3.8942540e-05 0.0000000e+00 
0.0000000e+00 -4.1702191e-05 0.0000000e+00 
0.0000000e+00 -4.4171353e-05 0.0000000e+00 
0.0000000e+00 -4.6350026e-05 0.0000000e+00 
0.0000000e+00 -4.8238206e-05 0.0000000e+00 
0.0000000e+00 -4.9835900e-05 0.0000000e+00 
0.0000000e+00 -5.1143103e-05 0.0000000e+00 
0.0000000e+00 -5.2159816e-05 0.0000000e+00 
0.0000000e+00 -5.2886040e-05 0.0000000e+00 
0.0000000e+00 -5.3321775e-05 0.0000000e+00 
CELL_DATA 20
FIELD FieldData 1
FORCE 3 20  float
0.0000000e+00 2.4915145e+04 0.0000000e+00 
0.0000000e+00 2.4795316e+04 0.0000000e+00 
0.0000000e+00 2.4555660e+04 0.0000000e+00 
0.0000000e+00 2.4196170e+04 0.0000000e+00 
0.0000000e+00 2.3716846e+04 0.0000000e+00 
0.0000000e+00 2.3117680e+04 0.0000000e+00 
0.0000000e+00 2.2398682e+04 0.0000000e+00 
0.0000000e+00 2.1559734e+04 0.0000000e+00 
0.0000000e+00 2.0601809e+04 0.0000000e+00 
0.0000000e+00 2.0016846e+04 0.0000000e+00 
0.0000000e+00 2.2497980e+04 0.0000000e+00 
0.0000000e+00 2.0129828e+04 0.0000000e+00 
0.0000000e+00 1.7761660e+04 0.0000000e+00 
0.0000000e+00 1.5393477e+04 0.0000000e+00 
0.0000000e+00 1.3025279e+04 0.0000000e+00 
0.0000000e+00 1.0657068e+04 0.0000000e+00 
0.0000000e+00 8.2888447e+03 0.0000000e+00 
0.0000000e+00 5.9206104e+03 0.0000000e+00 
0.0000000e+00 3.5523694e+03 0.0000000e+00 
0.0000000e+00 1.1841237e+03 0.0000000e+00 
