# vtk DataFile Version 4.0
vtk output
ASCII
DATASET UNSTRUCTURED_GRID
POINTS 21 float
0.0000000e+00 0.0000000e+00 0.0000000e+00 
1.0000000e+00 0.0000000e+00 0.0000000e+00 
5.0000001e-02 0.0000000e+00 0.0000000e+00 
1.0000000e-01 0.0000000e+00 0.0000000e+00 
1.5000001e-01 0.0000000e+00 0.0000000e+00 
2.0000000e-01 0.0000000e+00 0.0000000e+00 
2.5000000e-01 0.0000000e+00 0.0000000e+00 
3.0000001e-01 0.0000000e+00 0.0000000e+00 
3.4999999e-01 0.0000000e+00 0.0000000e+00 
4.0000001e-01 0.0000000e+00 0.0000000e+00 
4.4999999e-01 0.0000000e+00 0.0000000e+00 
5.0000000e-01 0.0000000e+00 0.0000000e+00 
5.5000001e-01 0.0000000e+00 0.0000000e+00 
6.0000002e-01 0.0000000e+00 0.0000000e+00 
6.4999998e-01 0.0000000e+00 0.0000000e+00 
6.9999999e-01 0.0000000e+00 0.0000000e+00 
7.5000000e-01 0.0000000e+00 0.0000000e+00 
8.0000001e-01 0.0000000e+00 0.0000000e+00 
8.5000002e-01 0.0000000e+00 0.0000000e+00 
8.9999998e-01 0.0000000e+00 0.0000000e+00 
9.4999999e-01 0.0000000e+00 0.0000000e+00 

CELLS 20 60
2 0 2
2 2 3
2 3 4
2 4 5
2 5 6
2 6 7
2 7 8
2 8 9
2 9 10
2 10 11
2 11 12
2 12 13
2 13 14
2 14 15
2 15 16
2 16 17
2 17 18
2 18 19
2 19 20
2 20 1

CELL_TYPES 20
3
3
3
3
3
3
3
3
3
3
3
3
3
3
3
3
3
3
3
3
POINT_DATA 21
FIELD FieldData 1
DISPLACEMENT 3 21  float
0.0000000e+00 0.0000000e+00 0.0000000e+00 
0.0000000e+00 -3.5090932e-05 0.0000000e+00 
0.0000000e+00 -2.9727603e-06 0.0000000e+00 
0.0000000e+00 -5.9217705e-06 0.0000000e+00 
0.0000000e+00 -8.8232810e-06 0.0000000e+00 
0.0000000e+00 -1.1653542e-05 0.0000000e+00 
0.0000000e+00 -1.4388803e-05 0.0000000e+00 
0.0000000e+00 -1.7005315e-05 0.0000000e+00 
0.0000000e+00 -1.9479327e-05 0.0000000e+00 
0.0000000e+00 -2.1787131e-05 0.0000000e+00 
0.0000000e+00 -2.3912045e-05 0.0000000e+00 
0.0000000e+00 -2.5852183e-05 0.0000000e+00 
0.0000000e+00 -2.7607546e-05 0.0000000e+00 
0.0000000e+00 -2.9178134e-05 0.0000000e+00 
0.0000000e+00 -3.0563948e-05 0.0000000e+00 
0.0000000e+00 -3.1764983e-05 0.0000000e+00 
0.0000000e+00 -3.2781249e-05 0.0000000e+00 
0.0000000e+00 -3.3612734e-05 0.0000000e+00 
0.0000000e+00 -3.4259447e-05 0.0000000e+00 
0.0000000e+00 -3.4721383e-05 0.0000000e+00 
0.0000000e+00 -3.4998546e-05 0.0000000e+00 
CELL_DATA 20
FIELD FieldData 1
FORCE 3 20  float
0.0000000e+00 2.2688793e+04 0.0000000e+00 
0.0000000e+00 2.2568967e+04 0.0000000e+00 
0.0000000e+00 2.2329312e+04 0.0000000e+00 
0.0000000e+00 2.1969826e+04 0.0000000e+00 
0.0000000e+00 2.1490516e+04 0.0000000e+00 
0.0000000e+00 2.0891289e+04 0.0000000e+00 
0.0000000e+00 2.0172895e+04 0.0000000e+00 
0.0000000e+00 1.9728953e+04 0.0000000e+00 
0.0000000e+00 2.1721215e+04 0.0000000e+00 
0.0000000e+00 1.9832480e+04 0.0000000e+00 
0.0000000e+00 1.7943734e+04 0.0000000e+00 
0.0000000e+00 1.6054976e+04 0.0000000e+00 
0.0000000e+00 1.4166202e+04 0.0000000e+00 
0.0000000e+00 1.2277414e+04 0.0000000e+00 
0.0000000e+00 1.0388610e+04 0.0000000e+00 
0.0000000e+00 8.4997930e+03 0.0000000e+00 
0.0000000e+00 6.6109644e+03 0.0000000e+00 
0.0000000e+00 4.7221250e+03 0.0000000e+00 
0.0000000e+00 2.8332781e+03 0.0000000e+00 
0.0000000e+00 9.4442651e+02 0.0000000e+00 
