# vtk DataFile Version 4.0
vtk output
ASCII
DATASET UNSTRUCTURED_GRID
POINTS 21 float
0.0000000e+00 0.0000000e+00 0.0000000e+00 
1.0000000e+00 0.0000000e+00 0.0000000e+00 
5.0000001e-02 0.0000000e+00 0.0000000e+00 
1.0000000e-01 0.0000000e+00 0.0000000e+00 
1.5000001e-01 0.0000000e+00 0.0000000e+00 
2.0000000e-01 0.0000000e+00 0.0000000e+00 
2.5000000e-01 0.0000000e+00 0.0000000e+00 
3.0000001e-01 0.0000000e+00 0.0000000e+00 
3.4999999e-01 0.0000000e+00 0.0000000e+00 
4.0000001e-01 0.0000000e+00 0.0000000e+00 
4.4999999e-01 0.0000000e+00 0.0000000e+00 
5.0000000e-01 0.0000000e+00 0.0000000e+00 
5.5000001e-01 0.0000000e+00 0.0000000e+00 
6.0000002e-01 0.0000000e+00 0.0000000e+00 
6.4999998e-01 0.0000000e+00 0.0000000e+00 
6.9999999e-01 0.0000000e+00 0.0000000e+00 
7.5000000e-01 0.0000000e+00 0.0000000e+00 
8.0000001e-01 0.0000000e+00 0.0000000e+00 
8.5000002e-01 0.0000000e+00 0.0000000e+00 
8.9999998e-01 0.0000000e+00 0.0000000e+00 
9.4999999e-01 0.0000000e+00 0.0000000e+00 

CELLS 20 60
2 0 2
2 2 3
2 3 4
2 4 5
2 5 6
2 6 7
2 7 8
2 8 9
2 9 10
2 10 11
2 11 12
2 12 13
2 13 14
2 14 15
2 15 16
2 16 17
2 17 18
2 18 19
2 19 20
2 20 1

CELL_TYPES 20
3
3
3
3
3
3
3
3
3
3
3
3
3
3
3
3
3
3
3
3
POINT_DATA 21
FIELD FieldData 1
DISPLACEMENT 3 21  float
0.0000000e+00 0.0000000e+00 0.0000000e+00 
0.0000000e+00 -7.4288509e-05 0.0000000e+00 
0.0000000e+00 -5.9204381e-06 0.0000000e+00 
0.0000000e+00 -1.1805221e-05 0.0000000e+00 
0.0000000e+00 -1.7618695e-05 0.0000000e+00 
0.0000000e+00 -2.3325205e-05 0.0000000e+00 
0.0000000e+00 -2.8889095e-05 0.0000000e+00 
0.0000000e+00 -3.4274712e-05 0.0000000e+00 
0.0000000e+00 -3.9446400e-05 0.0000000e+00 
0.0000000e+00 -4.4368506e-05 0.0000000e+00 
0.0000000e+00 -4.9005375e-05 0.0000000e+00 
0.0000000e+00 -5.3321350e-05 0.0000000e+00 
0.0000000e+00 -5.7280777e-05 0.0000000e+00 
0.0000000e+00 -6.0848066e-05 0.0000000e+00 
0.0000000e+00 -6.3998174e-05 0.0000000e+00 
0.0000000e+00 -6.6728258e-05 0.0000000e+00 
0.0000000e+00 -6.9038339e-05 0.0000000e+00 
0.0000000e+00 -7.0928400e-05 0.0000000e+00 
0.0000000e+00 -7.2398449e-05 0.0000000e+00 
0.0000000e+00 -7.3448478e-05 0.0000000e+00 
0.0000000e+00 -7.4078504e-05 0.0000000e+00 
CELL_DATA 20
FIELD FieldData 1
FORCE 3 20  float
0.0000000e+00 2.5499188e+04 0.0000000e+00 
0.0000000e+00 2.5380131e+04 0.0000000e+00 
0.0000000e+00 2.5142020e+04 0.0000000e+00 
0.0000000e+00 2.4784846e+04 0.0000000e+00 
0.0000000e+00 2.4308609e+04 0.0000000e+00 
0.0000000e+00 2.3713307e+04 0.0000000e+00 
0.0000000e+00 2.2998932e+04 0.0000000e+00 
0.0000000e+00 2.2165479e+04 0.0000000e+00 
0.0000000e+00 2.1212963e+04 0.0000000e+00 
0.0000000e+00 2.0141236e+04 0.0000000e+00 
0.0000000e+00 1.8951500e+04 0.0000000e+00 
0.0000000e+00 1.8235373e+04 0.0000000e+00 
0.0000000e+00 2.1220299e+04 0.0000000e+00 
0.0000000e+00 1.8390963e+04 0.0000000e+00 
0.0000000e+00 1.5561612e+04 0.0000000e+00 
0.0000000e+00 1.2732248e+04 0.0000000e+00 
0.0000000e+00 9.9028730e+03 0.0000000e+00 
0.0000000e+00 7.0734878e+03 0.0000000e+00 
0.0000000e+00 4.2440957e+03 0.0000000e+00 
0.0000000e+00 1.4146991e+03 0.0000000e+00 
