# vtk DataFile Version 4.0
vtk output
ASCII
DATASET UNSTRUCTURED_GRID
POINTS 21 float
0.0000000e+00 0.0000000e+00 0.0000000e+00 
1.0000000e+00 0.0000000e+00 0.0000000e+00 
5.0000001e-02 0.0000000e+00 0.0000000e+00 
1.0000000e-01 0.0000000e+00 0.0000000e+00 
1.5000001e-01 0.0000000e+00 0.0000000e+00 
2.0000000e-01 0.0000000e+00 0.0000000e+00 
2.5000000e-01 0.0000000e+00 0.0000000e+00 
3.0000001e-01 0.0000000e+00 0.0000000e+00 
3.4999999e-01 0.0000000e+00 0.0000000e+00 
4.0000001e-01 0.0000000e+00 0.0000000e+00 
4.4999999e-01 0.0000000e+00 0.0000000e+00 
5.0000000e-01 0.0000000e+00 0.0000000e+00 
5.5000001e-01 0.0000000e+00 0.0000000e+00 
6.0000002e-01 0.0000000e+00 0.0000000e+00 
6.4999998e-01 0.0000000e+00 0.0000000e+00 
6.9999999e-01 0.0000000e+00 0.0000000e+00 
7.5000000e-01 0.0000000e+00 0.0000000e+00 
8.0000001e-01 0.0000000e+00 0.0000000e+00 
8.5000002e-01 0.0000000e+00 0.0000000e+00 
8.9999998e-01 0.0000000e+00 0.0000000e+00 
9.4999999e-01 0.0000000e+00 0.0000000e+00 

CELLS 20 60
2 0 2
2 2 3
2 3 4
2 4 5
2 5 6
2 6 7
2 7 8
2 8 9
2 9 10
2 10 11
2 11 12
2 12 13
2 13 14
2 14 15
2 15 16
2 16 17
2 17 18
2 18 19
2 19 20
2 20 1

CELL_TYPES 20
3
3
3
3
3
3
3
3
3
3
3
3
3
3
3
3
3
3
3
3
POINT_DATA 21
FIELD FieldData 1
DISPLACEMENT 3 21  float
0.0000000e+00 0.0000000e+00 0.0000000e+00 
0.0000000e+00 -1.4015871e-04 0.0000000e+00 
0.0000000e+00 -1.0561601e-05 0.0000000e+00 
0.0000000e+00 -2.1069691e-05 0.0000000e+00 
0.0000000e+00 -3.1470754e-05 0.0000000e+00 
0.0000000e+00 -4.1711282e-05 0.0000000e+00 
0.0000000e+00 -5.1737767e-05 0.0000000e+00 
0.0000000e+00 -6.1496685e-05 0.0000000e+00 
0.0000000e+00 -7.0934533e-05 0.0000000e+00 
0.0000000e+00 -7.9997801e-05 0.0000000e+00 
0.0000000e+00 -8.8632973e-05 0.0000000e+00 
0.0000000e+00 -9.6786534e-05 0.0000000e+00 
0.0000000e+00 -1.0440498e-04 0.0000000e+00 
0.0000000e+00 -1.1143479e-04 0.0000000e+00 
0.0000000e+00 -1.1782246e-04 0.0000000e+00 
0.0000000e+00 -1.2351447e-04 0.0000000e+00 
0.0000000e+00 -1.2845731e-04 0.0000000e+00 
0.0000000e+00 -1.3259747e-04 0.0000000e+00 
0.0000000e+00 -1.3588145e-04 0.0000000e+00 
0.0000000e+00 -1.3825581e-04 0.0000000e+00 
0.0000000e+00 -1.3968298e-04 0.0000000e+00 
CELL_DATA 20
FIELD FieldData 1
FORCE 3 20  float
0.0000000e+00 1.9254314e+04 0.0000000e+00 
0.0000000e+00 1.9135258e+04 0.0000000e+00 
0.0000000e+00 1.8897143e+04 0.0000000e+00 
0.0000000e+00 1.8539965e+04 0.0000000e+00 
0.0000000e+00 1.8063725e+04 0.0000000e+00 
0.0000000e+00 1.7468416e+04 0.0000000e+00 
0.0000000e+00 1.6754035e+04 0.0000000e+00 
0.0000000e+00 1.5920578e+04 0.0000000e+00 
0.0000000e+00 1.4968043e+04 0.0000000e+00 
0.0000000e+00 1.3896427e+04 0.0000000e+00 
0.0000000e+00 1.2705727e+04 0.0000000e+00 
0.0000000e+00 1.1395940e+04 0.0000000e+00 
0.0000000e+00 9.9670684e+03 0.0000000e+00 
0.0000000e+00 8.4191074e+03 0.0000000e+00 
0.0000000e+00 6.7520850e+03 0.0000000e+00 
0.0000000e+00 4.9657695e+03 0.0000000e+00 
0.0000000e+00 3.0620513e+03 0.0000000e+00 
0.0000000e+00 1.9281871e+03 0.0000000e+00 
0.0000000e+00 6.3874077e+03 0.0000000e+00 
0.0000000e+00 2.1291362e+03 0.0000000e+00 
