# vtk DataFile Version 4.0
vtk output
ASCII
DATASET UNSTRUCTURED_GRID
POINTS 48 float
-1.0000000e+00 -1.0000000e+00 0.0000000e+00 
1.0000000e+00 -1.0000000e+00 0.0000000e+00 
1.0000000e+00 1.0000000e+00 0.0000000e+00 
-1.0000000e+00 1.0000000e+00 0.0000000e+00 
-1.0000000e+00 -1.0000000e+00 1.0000000e+01 
1.0000000e+00 -1.0000000e+00 1.0000000e+01 
1.0000000e+00 1.0000000e+00 1.0000000e+01 
-1.0000000e+00 1.0000000e+00 1.0000000e+01 
-1.0000000e+00 -1.0000000e+00 2.0000000e+00 
-1.0000000e+00 -1.0000000e+00 4.0000000e+00 
-1.0000000e+00 -1.0000000e+00 6.0000000e+00 
-1.0000000e+00 -1.0000000e+00 8.0000000e+00 
1.0000000e+00 -1.0000000e+00 2.0000000e+00 
1.0000000e+00 -1.0000000e+00 4.0000000e+00 
1.0000000e+00 -1.0000000e+00 6.0000000e+00 
1.0000000e+00 -1.0000000e+00 8.0000000e+00 
1.0000000e+00 1.0000000e+00 2.0000000e+00 
1.0000000e+00 1.0000000e+00 4.0000000e+00 
1.0000000e+00 1.0000000e+00 6.0000000e+00 
1.0000000e+00 1.0000000e+00 8.0000000e+00 
-1.0000000e+00 1.0000000e+00 2.0000000e+00 
-1.0000000e+00 1.0000000e+00 4.0000000e+00 
-1.0000000e+00 1.0000000e+00 6.0000000e+00 
-1.0000000e+00 1.0000000e+00 8.0000000e+00 
0.0000000e+00 0.0000000e+00 0.0000000e+00 
0.0000000e+00 -1.0000000e+00 1.0000000e+00 
0.0000000e+00 -1.0000000e+00 9.0000000e+00 
0.0000000e+00 -1.0000000e+00 5.0000000e+00 
0.0000000e+00 -1.0000000e+00 7.0000000e+00 
0.0000000e+00 -1.0000000e+00 3.0000000e+00 
1.0000000e+00 0.0000000e+00 1.0000000e+00 
1.0000000e+00 0.0000000e+00 9.0000000e+00 
1.0000000e+00 0.0000000e+00 3.0000000e+00 
1.0000000e+00 0.0000000e+00 5.0000000e+00 
1.0000000e+00 0.0000000e+00 7.0000000e+00 
0.0000000e+00 1.0000000e+00 1.0000000e+00 
0.0000000e+00 1.0000000e+00 9.0000000e+00 
0.0000000e+00 1.0000000e+00 3.0000000e+00 
0.0000000e+00 1.0000000e+00 5.0000000e+00 
0.0000000e+00 1.0000000e+00 7.0000000e+00 
-1.0000000e+00 0.0000000e+00 1.0000000e+00 
-1.0000000e+00 0.0000000e+00 9.0000000e+00 
-1.0000000e+00 0.0000000e+00 3.0000000e+00 
-1.0000000e+00 0.0000000e+00 5.0000000e+00 
-1.0000000e+00 0.0000000e+00 7.0000000e+00 
0.0000000e+00 0.0000000e+00 1.0000000e+01 
-0.0000000e+00 6.2500000e-01 8.0000000e+00 
0.0000000e+00 0.0000000e+00 8.0000000e+00 

CELLS 113 565
4 21 29 42 32
4 43 38 10 27
4 37 21 42 32
4 16 37 42 32
4 44 14 39 28
4 14 38 27 44
4 20 42 25 30
4 20 25 40 30
4 40 35 20 30
4 38 14 27 33
4 33 27 38 13
4 27 44 38 10
4 28 39 34 14
4 43 38 27 13
4 30 42 25 12
4 32 29 42 12
4 9 29 42 21
4 8 12 42 29
4 17 13 38 32
4 9 29 21 43
4 8 20 25 40
4 20 8 25 42
4 21 17 32 37
4 22 43 38 10
4 22 38 44 10
4 9 29 43 13
4 18 44 38 14
4 44 14 28 10
4 27 9 43 13
4 16 12 42 30
4 22 18 44 38
4 44 27 14 10
4 18 14 38 33
4 39 14 18 34
4 17 21 32 38
4 12 16 42 32
4 42 20 16 30
4 42 20 37 16
4 16 20 35 30
4 13 17 38 33
4 29 21 43 13
4 38 43 21 13
4 32 38 21 13
4 21 29 32 13
4 8 12 25 42
4 18 44 14 39
4 18 22 44 39
4 31 41 45 36
4 26 41 45 31
4 25 40 30 24
4 30 40 35 24
4 28 34 39 47
4 28 39 44 47
4 31 41 36 47
4 41 31 26 47
4 36 46 19 47
4 39 46 23 47
4 39 34 46 47
4 41 46 36 47
4 16 17 37 32
4 8 9 29 42
4 0 8 25 40
4 21 42 20 37
4 3 40 0 24
4 40 35 3 20
4 10 44 11 28
4 10 9 43 27
4 38 21 43 22
4 44 39 22 23
4 41 23 7 36
4 41 45 7 4
4 41 4 11 26
4 18 33 38 17
4 18 19 39 34
4 45 4 26 5
4 26 5 15 31
4 45 5 31 6
4 7 45 36 6
4 31 36 6 19
4 15 14 28 34
4 35 2 16 30
4 27 33 14 13
4 35 3 2 24
4 24 25 0 1
4 13 29 32 12
4 2 30 24 1
4 25 30 12 1
4 23 41 11 47
4 28 11 15 47
4 11 44 23 47
4 19 34 15 47
4 26 15 11 47
4 19 15 31 47
4 19 39 34 46
4 41 23 36 46
4 19 46 34 47
4 23 46 41 47
4 40 25 0 24
4 7 45 41 36
4 4 41 45 26
4 5 26 45 31
4 3 35 40 24
4 30 35 2 24
4 34 28 15 47
4 23 44 39 47
4 11 28 44 47
4 26 11 41 47
4 26 31 15 47
4 19 31 36 47
4 45 31 36 6
4 24 30 25 1
4 36 23 19 46
4 23 39 19 46

CELL_TYPES 113
10
10
10
10
10
10
10
10
10
10
10
10
10
10
10
10
10
10
10
10
10
10
10
10
10
10
10
10
10
10
10
10
10
10
10
10
10
10
10
10
10
10
10
10
10
10
10
10
10
10
10
10
10
10
10
10
10
10
10
10
10
10
10
10
10
10
10
10
10
10
10
10
10
10
10
10
10
10
10
10
10
10
10
10
10
10
10
10
10
10
10
10
10
10
10
10
10
10
10
10
10
10
10
10
10
10
10
10
10
10
10
10
10
POINT_DATA 48
FIELD FieldData 2
DISPLACEMENT 3 48  float
0.0000000e+00 0.0000000e+00 -1.8837138e-05 
0.0000000e+00 0.0000000e+00 -1.8837150e-05 
0.0000000e+00 0.0000000e+00 -1.8837149e-05 
0.0000000e+00 0.0000000e+00 -1.8837136e-05 
0.0000000e+00 0.0000000e+00 -1.9739280e-05 
0.0000000e+00 0.0000000e+00 -1.9739282e-05 
0.0000000e+00 0.0000000e+00 -1.9739284e-05 
0.0000000e+00 0.0000000e+00 -1.9739284e-05 
0.0000000e+00 0.0000000e+00 -1.9017902e-05 
0.0000000e+00 0.0000000e+00 -1.9198504e-05 
0.0000000e+00 0.0000000e+00 -1.9378933e-05 
0.0000000e+00 0.0000000e+00 -1.9559200e-05 
0.0000000e+00 0.0000000e+00 -1.9017914e-05 
0.0000000e+00 0.0000000e+00 -1.9198509e-05 
0.0000000e+00 0.0000000e+00 -1.9378938e-05 
0.0000000e+00 0.0000000e+00 -1.9559193e-05 
0.0000000e+00 0.0000000e+00 -1.9017914e-05 
0.0000000e+00 0.0000000e+00 -1.9198502e-05 
0.0000000e+00 0.0000000e+00 -1.9378931e-05 
0.0000000e+00 0.0000000e+00 -1.9559193e-05 
0.0000000e+00 0.0000000e+00 -1.9017907e-05 
0.0000000e+00 0.0000000e+00 -1.9198513e-05 
0.0000000e+00 0.0000000e+00 -1.9378938e-05 
0.0000000e+00 0.0000000e+00 -1.9559200e-05 
-2.4880058e-11 -2.0673118e-11 -1.8837147e-05 
0.0000000e+00 0.0000000e+00 -1.8927551e-05 
0.0000000e+00 0.0000000e+00 -1.9649262e-05 
0.0000000e+00 0.0000000e+00 -1.9288746e-05 
0.0000000e+00 0.0000000e+00 -1.9469091e-05 
0.0000000e+00 0.0000000e+00 -1.9108238e-05 
0.0000000e+00 0.0000000e+00 -1.8927563e-05 
0.0000000e+00 0.0000000e+00 -1.9649258e-05 
0.0000000e+00 0.0000000e+00 -1.9108234e-05 
0.0000000e+00 0.0000000e+00 -1.9288740e-05 
0.0000000e+00 0.0000000e+00 -1.9469082e-05 
0.0000000e+00 0.0000000e+00 -1.8927551e-05 
0.0000000e+00 0.0000000e+00 -1.9649262e-05 
0.0000000e+00 0.0000000e+00 -1.9108227e-05 
0.0000000e+00 0.0000000e+00 -1.9288755e-05 
0.0000000e+00 0.0000000e+00 -1.9469087e-05 
0.0000000e+00 0.0000000e+00 -1.8927536e-05 
0.0000000e+00 0.0000000e+00 -1.9649262e-05 
0.0000000e+00 0.0000000e+00 -1.9108238e-05 
0.0000000e+00 0.0000000e+00 -1.9288751e-05 
0.0000000e+00 0.0000000e+00 -1.9469104e-05 
-2.0922753e-11 -2.0511004e-11 -1.9739287e-05 
-1.4256755e-11 -1.2004793e-11 -1.9559198e-05 
-2.1294619e-11 -1.9879216e-11 -1.9559200e-05 
VELOCITY 3 48  float
0.0000000e+00 0.0000000e+00 -1.7521144e-05 
0.0000000e+00 0.0000000e+00 -1.7521141e-05 
0.0000000e+00 0.0000000e+00 -1.7521141e-05 
0.0000000e+00 0.0000000e+00 -1.7521144e-05 
0.0000000e+00 0.0000000e+00 -1.7520617e-05 
0.0000000e+00 0.0000000e+00 -1.7520617e-05 
0.0000000e+00 0.0000000e+00 -1.7520617e-05 
0.0000000e+00 0.0000000e+00 -1.7520617e-05 
0.0000000e+00 0.0000000e+00 -1.7520955e-05 
0.0000000e+00 0.0000000e+00 -1.7520808e-05 
0.0000000e+00 0.0000000e+00 -1.7520702e-05 
0.0000000e+00 0.0000000e+00 -1.7520635e-05 
0.0000000e+00 0.0000000e+00 -1.7520953e-05 
0.0000000e+00 0.0000000e+00 -1.7520808e-05 
0.0000000e+00 0.0000000e+00 -1.7520701e-05 
0.0000000e+00 0.0000000e+00 -1.7520639e-05 
0.0000000e+00 0.0000000e+00 -1.7520953e-05 
0.0000000e+00 0.0000000e+00 -1.7520810e-05 
0.0000000e+00 0.0000000e+00 -1.7520704e-05 
0.0000000e+00 0.0000000e+00 -1.7520639e-05 
0.0000000e+00 0.0000000e+00 -1.7520955e-05 
0.0000000e+00 0.0000000e+00 -1.7520806e-05 
0.0000000e+00 0.0000000e+00 -1.7520701e-05 
0.0000000e+00 0.0000000e+00 -1.7520635e-05 
6.2828557e-12 5.2354401e-12 -1.7521141e-05 
0.0000000e+00 0.0000000e+00 -1.7521043e-05 
0.0000000e+00 0.0000000e+00 -1.7520621e-05 
0.0000000e+00 0.0000000e+00 -1.7520748e-05 
0.0000000e+00 0.0000000e+00 -1.7520662e-05 
0.0000000e+00 0.0000000e+00 -1.7520873e-05 
0.0000000e+00 0.0000000e+00 -1.7521039e-05 
0.0000000e+00 0.0000000e+00 -1.7520622e-05 
0.0000000e+00 0.0000000e+00 -1.7520875e-05 
0.0000000e+00 0.0000000e+00 -1.7520750e-05 
0.0000000e+00 0.0000000e+00 -1.7520666e-05 
0.0000000e+00 0.0000000e+00 -1.7521043e-05 
0.0000000e+00 0.0000000e+00 -1.7520621e-05 
0.0000000e+00 0.0000000e+00 -1.7520875e-05 
0.0000000e+00 0.0000000e+00 -1.7520746e-05 
0.0000000e+00 0.0000000e+00 -1.7520664e-05 
0.0000000e+00 0.0000000e+00 -1.7521046e-05 
0.0000000e+00 0.0000000e+00 -1.7520621e-05 
0.0000000e+00 0.0000000e+00 -1.7520873e-05 
0.0000000e+00 0.0000000e+00 -1.7520748e-05 
0.0000000e+00 0.0000000e+00 -1.7520659e-05 
4.8639955e-12 4.6287627e-12 -1.7520615e-05 
3.6896992e-12 3.1301782e-12 -1.7520637e-05 
5.5182629e-12 5.1973729e-12 -1.7520637e-05 
CELL_DATA 113
FIELD FieldData 0
