# vtk DataFile Version 4.0
vtk output
ASCII
DATASET UNSTRUCTURED_GRID
POINTS 3487 float
0.0000000e+00 0.0000000e+00 0.0000000e+00 
2.0000000e+01 0.0000000e+00 0.0000000e+00 
2.0000000e+01 1.0000000e+01 0.0000000e+00 
0.0000000e+00 1.0000000e+01 0.0000000e+00 
0.0000000e+00 0.0000000e+00 1.0000000e+00 
2.0000000e+01 0.0000000e+00 1.0000000e+00 
2.0000000e+01 1.0000000e+01 1.0000000e+00 
0.0000000e+00 1.0000000e+01 1.0000000e+00 
1.0000000e+00 1.0000000e+01 0.0000000e+00 
1.0000000e+00 1.0000000e+01 1.0000000e+00 
5.0000000e+00 1.0000000e+01 0.0000000e+00 
1.0000000e+01 1.0000000e+01 0.0000000e+00 
1.5000000e+01 1.0000000e+01 0.0000000e+00 
1.0000000e+00 0.0000000e+00 0.0000000e+00 
2.0000000e+00 0.0000000e+00 0.0000000e+00 
3.0000000e+00 0.0000000e+00 0.0000000e+00 
4.0000000e+00 0.0000000e+00 0.0000000e+00 
5.0000000e+00 0.0000000e+00 0.0000000e+00 
6.0000000e+00 0.0000000e+00 0.0000000e+00 
7.0000000e+00 0.0000000e+00 0.0000000e+00 
8.0000000e+00 0.0000000e+00 0.0000000e+00 
9.0000000e+00 0.0000000e+00 0.0000000e+00 
1.0000000e+01 0.0000000e+00 0.0000000e+00 
1.1000000e+01 0.0000000e+00 0.0000000e+00 
1.2000000e+01 0.0000000e+00 0.0000000e+00 
1.3000000e+01 0.0000000e+00 0.0000000e+00 
1.4000000e+01 0.0000000e+00 0.0000000e+00 
1.5000000e+01 0.0000000e+00 0.0000000e+00 
1.6000000e+01 0.0000000e+00 0.0000000e+00 
1.7000000e+01 0.0000000e+00 0.0000000e+00 
1.8000000e+01 0.0000000e+00 0.0000000e+00 
1.9000000e+01 0.0000000e+00 0.0000000e+00 
5.0000000e-01 0.0000000e+00 0.0000000e+00 
1.5000000e+00 0.0000000e+00 0.0000000e+00 
2.5000000e+00 0.0000000e+00 0.0000000e+00 
3.5000000e+00 0.0000000e+00 0.0000000e+00 
4.5000000e+00 0.0000000e+00 0.0000000e+00 
5.5000000e+00 0.0000000e+00 0.0000000e+00 
6.5000000e+00 0.0000000e+00 0.0000000e+00 
7.5000000e+00 0.0000000e+00 0.0000000e+00 
8.5000000e+00 0.0000000e+00 0.0000000e+00 
9.5000000e+00 0.0000000e+00 0.0000000e+00 
1.0500000e+01 0.0000000e+00 0.0000000e+00 
1.1500000e+01 0.0000000e+00 0.0000000e+00 
1.2500000e+01 0.0000000e+00 0.0000000e+00 
1.3500000e+01 0.0000000e+00 0.0000000e+00 
1.4500000e+01 0.0000000e+00 0.0000000e+00 
1.5500000e+01 0.0000000e+00 0.0000000e+00 
1.6500000e+01 0.0000000e+00 0.0000000e+00 
1.7500000e+01 0.0000000e+00 0.0000000e+00 
1.8500000e+01 0.0000000e+00 0.0000000e+00 
1.9500000e+01 0.0000000e+00 0.0000000e+00 
2.0000000e+01 1.0000000e+00 0.0000000e+00 
2.0000000e+01 2.0000000e+00 0.0000000e+00 
2.0000000e+01 3.0000000e+00 0.0000000e+00 
2.0000000e+01 4.0000000e+00 0.0000000e+00 
2.0000000e+01 5.0000000e+00 0.0000000e+00 
2.0000000e+01 6.0000000e+00 0.0000000e+00 
2.0000000e+01 7.0000000e+00 0.0000000e+00 
2.0000000e+01 8.0000000e+00 0.0000000e+00 
2.0000000e+01 9.0000000e+00 0.0000000e+00 
2.0000000e+01 5.0000000e-01 0.0000000e+00 
2.0000000e+01 1.5000000e+00 0.0000000e+00 
2.0000000e+01 2.5000000e+00 0.0000000e+00 
2.0000000e+01 3.5000000e+00 0.0000000e+00 
2.0000000e+01 4.5000000e+00 0.0000000e+00 
2.0000000e+01 5.5000000e+00 0.0000000e+00 
2.0000000e+01 6.5000000e+00 0.0000000e+00 
2.0000000e+01 7.5000000e+00 0.0000000e+00 
2.0000000e+01 8.5000000e+00 0.0000000e+00 
2.0000000e+01 9.5000000e+00 0.0000000e+00 
0.0000000e+00 9.0000000e+00 0.0000000e+00 
0.0000000e+00 8.0000000e+00 0.0000000e+00 
0.0000000e+00 7.0000000e+00 0.0000000e+00 
0.0000000e+00 6.0000000e+00 0.0000000e+00 
0.0000000e+00 5.0000000e+00 0.0000000e+00 
0.0000000e+00 4.0000000e+00 0.0000000e+00 
0.0000000e+00 3.0000000e+00 0.0000000e+00 
0.0000000e+00 2.0000000e+00 0.0000000e+00 
0.0000000e+00 1.0000000e+00 0.0000000e+00 
0.0000000e+00 9.5000000e+00 0.0000000e+00 
0.0000000e+00 8.5000000e+00 0.0000000e+00 
0.0000000e+00 7.5000000e+00 0.0000000e+00 
0.0000000e+00 6.5000000e+00 0.0000000e+00 
0.0000000e+00 5.5000000e+00 0.0000000e+00 
0.0000000e+00 4.5000000e+00 0.0000000e+00 
0.0000000e+00 3.5000000e+00 0.0000000e+00 
0.0000000e+00 2.5000000e+00 0.0000000e+00 
0.0000000e+00 1.5000000e+00 0.0000000e+00 
0.0000000e+00 5.0000000e-01 0.0000000e+00 
0.0000000e+00 0.0000000e+00 5.0000000e-01 
2.0000000e+01 0.0000000e+00 5.0000000e-01 
1.0000000e+00 0.0000000e+00 1.0000000e+00 
2.0000000e+00 0.0000000e+00 1.0000000e+00 
3.0000000e+00 0.0000000e+00 1.0000000e+00 
4.0000000e+00 0.0000000e+00 1.0000000e+00 
5.0000000e+00 0.0000000e+00 1.0000000e+00 
6.0000000e+00 0.0000000e+00 1.0000000e+00 
7.0000000e+00 0.0000000e+00 1.0000000e+00 
8.0000000e+00 0.0000000e+00 1.0000000e+00 
9.0000000e+00 0.0000000e+00 1.0000000e+00 
1.0000000e+01 0.0000000e+00 1.0000000e+00 
1.1000000e+01 0.0000000e+00 1.0000000e+00 
1.2000000e+01 0.0000000e+00 1.0000000e+00 
1.3000000e+01 0.0000000e+00 1.0000000e+00 
1.4000000e+01 0.0000000e+00 1.0000000e+00 
1.5000000e+01 0.0000000e+00 1.0000000e+00 
1.6000000e+01 0.0000000e+00 1.0000000e+00 
1.7000000e+01 0.0000000e+00 1.0000000e+00 
1.8000000e+01 0.0000000e+00 1.0000000e+00 
1.9000000e+01 0.0000000e+00 1.0000000e+00 
5.0000000e-01 0.0000000e+00 1.0000000e+00 
1.5000000e+00 0.0000000e+00 1.0000000e+00 
2.5000000e+00 0.0000000e+00 1.0000000e+00 
3.5000000e+00 0.0000000e+00 1.0000000e+00 
4.5000000e+00 0.0000000e+00 1.0000000e+00 
5.5000000e+00 0.0000000e+00 1.0000000e+00 
6.5000000e+00 0.0000000e+00 1.0000000e+00 
7.5000000e+00 0.0000000e+00 1.0000000e+00 
8.5000000e+00 0.0000000e+00 1.0000000e+00 
9.5000000e+00 0.0000000e+00 1.0000000e+00 
1.0500000e+01 0.0000000e+00 1.0000000e+00 
1.1500000e+01 0.0000000e+00 1.0000000e+00 
1.2500000e+01 0.0000000e+00 1.0000000e+00 
1.3500000e+01 0.0000000e+00 1.0000000e+00 
1.4500000e+01 0.0000000e+00 1.0000000e+00 
1.5500000e+01 0.0000000e+00 1.0000000e+00 
1.6500000e+01 0.0000000e+00 1.0000000e+00 
1.7500000e+01 0.0000000e+00 1.0000000e+00 
1.8500000e+01 0.0000000e+00 1.0000000e+00 
1.9500000e+01 0.0000000e+00 1.0000000e+00 
2.0000000e+01 1.0000000e+01 5.0000000e-01 
2.0000000e+01 1.0000000e+00 1.0000000e+00 
2.0000000e+01 2.0000000e+00 1.0000000e+00 
2.0000000e+01 3.0000000e+00 1.0000000e+00 
2.0000000e+01 4.0000000e+00 1.0000000e+00 
2.0000000e+01 5.0000000e+00 1.0000000e+00 
2.0000000e+01 6.0000000e+00 1.0000000e+00 
2.0000000e+01 7.0000000e+00 1.0000000e+00 
2.0000000e+01 8.0000000e+00 1.0000000e+00 
2.0000000e+01 9.0000000e+00 1.0000000e+00 
2.0000000e+01 5.0000000e-01 1.0000000e+00 
2.0000000e+01 1.5000000e+00 1.0000000e+00 
2.0000000e+01 2.5000000e+00 1.0000000e+00 
2.0000000e+01 3.5000000e+00 1.0000000e+00 
2.0000000e+01 4.5000000e+00 1.0000000e+00 
2.0000000e+01 5.5000000e+00 1.0000000e+00 
2.0000000e+01 6.5000000e+00 1.0000000e+00 
2.0000000e+01 7.5000000e+00 1.0000000e+00 
2.0000000e+01 8.5000000e+00 1.0000000e+00 
2.0000000e+01 9.5000000e+00 1.0000000e+00 
0.0000000e+00 1.0000000e+01 5.0000000e-01 
0.0000000e+00 9.0000000e+00 1.0000000e+00 
0.0000000e+00 8.0000000e+00 1.0000000e+00 
0.0000000e+00 7.0000000e+00 1.0000000e+00 
0.0000000e+00 6.0000000e+00 1.0000000e+00 
0.0000000e+00 5.0000000e+00 1.0000000e+00 
0.0000000e+00 4.0000000e+00 1.0000000e+00 
0.0000000e+00 3.0000000e+00 1.0000000e+00 
0.0000000e+00 2.0000000e+00 1.0000000e+00 
0.0000000e+00 1.0000000e+00 1.0000000e+00 
0.0000000e+00 9.5000000e+00 1.0000000e+00 
0.0000000e+00 8.5000000e+00 1.0000000e+00 
0.0000000e+00 7.5000000e+00 1.0000000e+00 
0.0000000e+00 6.5000000e+00 1.0000000e+00 
0.0000000e+00 5.5000000e+00 1.0000000e+00 
0.0000000e+00 4.5000000e+00 1.0000000e+00 
0.0000000e+00 3.5000000e+00 1.0000000e+00 
0.0000000e+00 2.5000000e+00 1.0000000e+00 
0.0000000e+00 1.5000000e+00 1.0000000e+00 
0.0000000e+00 5.0000000e-01 1.0000000e+00 
5.0000000e-01 1.0000000e+01 0.0000000e+00 
1.0000000e+00 1.0000000e+01 5.0000000e-01 
5.0000000e-01 1.0000000e+01 1.0000000e+00 
1.9000000e+01 1.0000000e+01 1.0000000e+00 
1.8000000e+01 1.0000000e+01 1.0000000e+00 
1.7000000e+01 1.0000000e+01 1.0000000e+00 
1.6000000e+01 1.0000000e+01 1.0000000e+00 
1.5000000e+01 1.0000000e+01 1.0000000e+00 
1.4000000e+01 1.0000000e+01 1.0000000e+00 
1.3000000e+01 1.0000000e+01 1.0000000e+00 
1.2000000e+01 1.0000000e+01 1.0000000e+00 
1.1000000e+01 1.0000000e+01 1.0000000e+00 
1.0000000e+01 1.0000000e+01 1.0000000e+00 
9.0000000e+00 1.0000000e+01 1.0000000e+00 
8.0000000e+00 1.0000000e+01 1.0000000e+00 
7.0000000e+00 1.0000000e+01 1.0000000e+00 
6.0000000e+00 1.0000000e+01 1.0000000e+00 
5.0000000e+00 1.0000000e+01 1.0000000e+00 
4.0000000e+00 1.0000000e+01 1.0000000e+00 
3.0000000e+00 1.0000000e+01 1.0000000e+00 
2.0000000e+00 1.0000000e+01 1.0000000e+00 
1.9500000e+01 1.0000000e+01 1.0000000e+00 
1.8500000e+01 1.0000000e+01 1.0000000e+00 
1.7500000e+01 1.0000000e+01 1.0000000e+00 
1.6500000e+01 1.0000000e+01 1.0000000e+00 
1.5500000e+01 1.0000000e+01 1.0000000e+00 
1.4500000e+01 1.0000000e+01 1.0000000e+00 
1.3500000e+01 1.0000000e+01 1.0000000e+00 
1.2500000e+01 1.0000000e+01 1.0000000e+00 
1.1500000e+01 1.0000000e+01 1.0000000e+00 
1.0500000e+01 1.0000000e+01 1.0000000e+00 
9.5000000e+00 1.0000000e+01 1.0000000e+00 
8.5000000e+00 1.0000000e+01 1.0000000e+00 
7.5000000e+00 1.0000000e+01 1.0000000e+00 
6.5000000e+00 1.0000000e+01 1.0000000e+00 
5.5000000e+00 1.0000000e+01 1.0000000e+00 
4.5000000e+00 1.0000000e+01 1.0000000e+00 
3.5000000e+00 1.0000000e+01 1.0000000e+00 
2.5000000e+00 1.0000000e+01 1.0000000e+00 
1.5000000e+00 1.0000000e+01 1.0000000e+00 
6.0000000e+00 1.0000000e+01 0.0000000e+00 
7.0000000e+00 1.0000000e+01 0.0000000e+00 
8.0000000e+00 1.0000000e+01 0.0000000e+00 
9.0000000e+00 1.0000000e+01 0.0000000e+00 
5.5000000e+00 1.0000000e+01 0.0000000e+00 
6.5000000e+00 1.0000000e+01 0.0000000e+00 
7.5000000e+00 1.0000000e+01 0.0000000e+00 
8.5000000e+00 1.0000000e+01 0.0000000e+00 
9.5000000e+00 1.0000000e+01 0.0000000e+00 
1.1000000e+01 1.0000000e+01 0.0000000e+00 
1.2000000e+01 1.0000000e+01 0.0000000e+00 
1.3000000e+01 1.0000000e+01 0.0000000e+00 
1.4000000e+01 1.0000000e+01 0.0000000e+00 
1.0500000e+01 1.0000000e+01 0.0000000e+00 
1.1500000e+01 1.0000000e+01 0.0000000e+00 
1.2500000e+01 1.0000000e+01 0.0000000e+00 
1.3500000e+01 1.0000000e+01 0.0000000e+00 
1.4500000e+01 1.0000000e+01 0.0000000e+00 
1.9000000e+01 1.0000000e+01 0.0000000e+00 
[...]
POINT_DATA 3487
FIELD FieldData 1
VELOCITY 3 3487  float
0.0000000e+00 0.0000000e+00 0.0000000e+00 
0.0000000e+00 0.0000000e+00 0.0000000e+00 
0.0000000e+00 6.7435652e-03 0.0000000e+00 
0.0000000e+00 8.4438044e-01 0.0000000e+00 
0.0000000e+00 0.0000000e+00 0.0000000e+00 
0.0000000e+00 0.0000000e+00 0.0000000e+00 
0.0000000e+00 -2.1307446e-02 0.0000000e+00 
0.0000000e+00 9.5337528e-01 0.0000000e+00 
8.7464303e-02 8.4453833e-01 0.0000000e+00 
8.2956903e-02 8.7580419e-01 0.0000000e+00 
2.6839018e-01 5.5686831e-01 0.0000000e+00 
-1.4483942e-01 -8.4526443e-01 0.0000000e+00 
-1.0755085e-01 6.3509364e-03 0.0000000e+00 
0.0000000e+00 0.0000000e+00 0.0000000e+00 
0.0000000e+00 0.0000000e+00 0.0000000e+00 
0.0000000e+00 0.0000000e+00 0.0000000e+00 
0.0000000e+00 0.0000000e+00 0.0000000e+00 
0.0000000e+00 0.0000000e+00 0.0000000e+00 
0.0000000e+00 0.0000000e+00 0.0000000e+00 
0.0000000e+00 0.0000000e+00 0.0000000e+00 
0.0000000e+00 0.0000000e+00 0.0000000e+00 
0.0000000e+00 0.0000000e+00 0.0000000e+00 
0.0000000e+00 0.0000000e+00 0.0000000e+00 
0.0000000e+00 0.0000000e+00 0.0000000e+00 
0.0000000e+00 0.0000000e+00 0.0000000e+00 
0.0000000e+00 0.0000000e+00 0.0000000e+00 
0.0000000e+00 0.0000000e+00 0.0000000e+00 
0.0000000e+00 0.0000000e+00 0.0000000e+00 
0.0000000e+00 0.0000000e+00 0.0000000e+00 
0.0000000e+00 0.0000000e+00 0.0000000e+00 
0.0000000e+00 0.0000000e+00 0.0000000e+00 
0.0000000e+00 0.0000000e+00 0.0000000e+00 
0.0000000e+00 0.0000000e+00 0.0000000e+00 
0.0000000e+00 0.0000000e+00 0.0000000e+00 
0.0000000e+00 0.0000000e+00 0.0000000e+00 
0.0000000e+00 0.0000000e+00 0.0000000e+00 
0.0000000e+00 0.0000000e+00 0.0000000e+00 
0.0000000e+00 0.0000000e+00 0.0000000e+00 
0.0000000e+00 0.0000000e+00 0.0000000e+00 
0.0000000e+00 0.0000000e+00 0.0000000e+00 
0.0000000e+00 0.0000000e+00 0.0000000e+00 
0.0000000e+00 0.0000000e+00 0.0000000e+00 
0.0000000e+00 0.0000000e+00 0.0000000e+00 
0.0000000e+00 0.0000000e+00 0.0000000e+00 
0.0000000e+00 0.0000000e+00 0.0000000e+00 
0.0000000e+00 0.0000000e+00 0.0000000e+00 
0.0000000e+00 0.0000000e+00 0.0000000e+00 
0.0000000e+00 0.0000000e+00 0.0000000e+00 
0.0000000e+00 0.0000000e+00 0.0000000e+00 
0.0000000e+00 0.0000000e+00 0.0000000e+00 
0.0000000e+00 0.0000000e+00 0.0000000e+00 
0.0000000e+00 0.0000000e+00 0.0000000e+00 
0.0000000e+00 1.0728673e-02 0.0000000e+00 
0.0000000e+00 -3.7675325e-02 0.0000000e+00 
0.0000000e+00 -4.1898776e-02 0.0000000e+00 
0.0000000e+00 -2.0831697e-02 0.0000000e+00 
0.0000000e+00 -1.6718134e-02 0.0000000e+00 
0.0000000e+00 -4.9640719e-02 0.0000000e+00 
0.0000000e+00 -4.7565091e-02 0.0000000e+00 
0.0000000e+00 -1.5456416e-02 0.0000000e+00 
0.0000000e+00 3.5490615e-03 0.0000000e+00 
0.0000000e+00 2.2654708e-02 0.0000000e+00 
0.0000000e+00 -2.6478129e-02 0.0000000e+00 
0.0000000e+00 -4.2259883e-02 0.0000000e+00 
0.0000000e+00 -3.1917971e-02 0.0000000e+00 
0.0000000e+00 -2.6758952e-02 0.0000000e+00 
0.0000000e+00 -2.9315673e-02 0.0000000e+00 
0.0000000e+00 -4.5204017e-02 0.0000000e+00 
0.0000000e+00 -2.4983514e-02 0.0000000e+00 
0.0000000e+00 -1.0670241e-02 0.0000000e+00 
0.0000000e+00 1.6559856e-02 0.0000000e+00 
0.0000000e+00 5.1405770e-01 0.0000000e+00 
0.0000000e+00 1.1642731e-01 0.0000000e+00 
0.0000000e+00 2.9750571e-01 0.0000000e+00 
0.0000000e+00 2.4972899e-01 0.0000000e+00 
0.0000000e+00 1.9630016e-01 0.0000000e+00 
0.0000000e+00 1.9746129e-01 0.0000000e+00 
0.0000000e+00 4.2780347e-02 0.0000000e+00 
0.0000000e+00 2.6218066e-02 0.0000000e+00 
0.0000000e+00 -2.7912983e-03 0.0000000e+00 
0.0000000e+00 7.6101881e-01 0.0000000e+00 
0.0000000e+00 2.2939804e-01 0.0000000e+00 
0.0000000e+00 2.1365356e-01 0.0000000e+00 
0.0000000e+00 2.5167540e-01 0.0000000e+00 
0.0000000e+00 2.6113355e-01 0.0000000e+00 
0.0000000e+00 1.9589941e-01 0.0000000e+00 
0.0000000e+00 1.1293692e-01 0.0000000e+00 
0.0000000e+00 4.7995977e-02 0.0000000e+00 
0.0000000e+00 -6.2810536e-04 0.0000000e+00 
0.0000000e+00 1.1731099e-03 0.0000000e+00 
0.0000000e+00 0.0000000e+00 0.0000000e+00 
0.0000000e+00 0.0000000e+00 0.0000000e+00 
0.0000000e+00 0.0000000e+00 0.0000000e+00 
0.0000000e+00 0.0000000e+00 0.0000000e+00 
0.0000000e+00 0.0000000e+00 0.0000000e+00 
0.0000000e+00 0.0000000e+00 0.0000000e+00 
0.0000000e+00 0.0000000e+00 0.0000000e+00 
0.0000000e+00 0.0000000e+00 0.0000000e+00 
0.0000000e+00 0.0000000e+00 0.0000000e+00 
0.0000000e+00 0.0000000e+00 0.0000000e+00 
0.0000000e+00 0.0000000e+00 0.0000000e+00 
0.0000000e+00 0.0000000e+00 0.0000000e+00 
0.0000000e+00 0.0000000e+00 0.0000000e+00 
0.0000000e+00 0.0000000e+00 0.0000000e+00 
0.0000000e+00 0.0000000e+00 0.0000000e+00 
0.0000000e+00 0.0000000e+00 0.0000000e+00 
0.0000000e+00 0.0000000e+00 0.0000000e+00 
0.0000000e+00 0.0000000e+00 0.0000000e+00 
0.0000000e+00 0.0000000e+00 0.0000000e+00 
0.0000000e+00 0.0000000e+00 0.0000000e+00 
0.0000000e+00 0.0000000e+00 0.0000000e+00 
0.0000000e+00 0.0000000e+00 0.0000000e+00 
0.0000000e+00 0.0000000e+00 0.0000000e+00 
0.0000000e+00 0.0000000e+00 0.0000000e+00 
0.0000000e+00 0.0000000e+00 0.0000000e+00 
0.0000000e+00 0.0000000e+00 0.0000000e+00 
0.0000000e+00 0.0000000e+00 0.0000000e+00 
0.0000000e+00 0.0000000e+00 0.0000000e+00 
0.0000000e+00 0.0000000e+00 0.0000000e+00 
0.0000000e+00 0.0000000e+00 0.0000000e+00 
0.0000000e+00 0.0000000e+00 0.0000000e+00 
0.0000000e+00 0.0000000e+00 0.0000000e+00 
0.0000000e+00 0.0000000e+00 0.0000000e+00 
0.0000000e+00 0.0000000e+00 0.0000000e+00 
0.0000000e+00 0.0000000e+00 0.0000000e+00 
0.0000000e+00 0.0000000e+00 0.0000000e+00 
0.0000000e+00 0.0000000e+00 0.0000000e+00 
0.0000000e+00 0.0000000e+00 0.0000000e+00 
0.0000000e+00 0.0000000e+00 0.0000000e+00 
0.0000000e+00 0.0000000e+00 0.0000000e+00 
0.0000000e+00 0.0000000e+00 0.0000000e+00 
0.0000000e+00 1.3908332e-02 4.6155658e-03 
0.0000000e+00 7.4650780e-03 0.0000000e+00 
0.0000000e+00 -6.1891526e-02 0.0000000e+00 
0.0000000e+00 -4.8287470e-02 0.0000000e+00 
0.0000000e+00 -1.0250553e-02 0.0000000e+00 
0.0000000e+00 -3.9273355e-02 0.0000000e+00 
0.0000000e+00 -4.5283534e-02 0.0000000e+00 
0.0000000e+00 -3.7460253e-02 0.0000000e+00 
0.0000000e+00 -1.0467168e-02 0.0000000e+00 
0.0000000e+00 -2.2875221e-02 0.0000000e+00 
0.0000000e+00 1.0231481e-02 0.0000000e+00 
0.0000000e+00 -2.8951723e-02 0.0000000e+00 
0.0000000e+00 -5.5728596e-02 0.0000000e+00 
0.0000000e+00 -3.5401840e-02 0.0000000e+00 
0.0000000e+00 -2.7458776e-02 0.0000000e+00 
0.0000000e+00 -3.3458125e-02 0.0000000e+00 
0.0000000e+00 -3.8361091e-02 0.0000000e+00 
0.0000000e+00 -2.2253606e-02 0.0000000e+00 
0.0000000e+00 -2.0025067e-02 0.0000000e+00 
0.0000000e+00 -7.6263719e-03 0.0000000e+00 
0.0000000e+00 8.9048147e-01 -8.5718706e-03 
0.0000000e+00 4.5954496e-01 0.0000000e+00 
0.0000000e+00 1.4548910e-01 0.0000000e+00 
0.0000000e+00 2.5904915e-01 0.0000000e+00 
0.0000000e+00 2.3616223e-01 0.0000000e+00 
0.0000000e+00 2.4743262e-01 0.0000000e+00 
0.0000000e+00 1.9338109e-01 0.0000000e+00 
0.0000000e+00 1.1596563e-01 0.0000000e+00 
0.0000000e+00 1.5559345e-02 0.0000000e+00 
0.0000000e+00 3.9079573e-02 0.0000000e+00 
0.0000000e+00 7.8406894e-01 0.0000000e+00 
0.0000000e+00 2.1602809e-01 0.0000000e+00 
0.0000000e+00 2.0489304e-01 0.0000000e+00 
0.0000000e+00 2.4339505e-01 0.0000000e+00 
0.0000000e+00 2.6614416e-01 0.0000000e+00 
0.0000000e+00 2.3995981e-01 0.0000000e+00 
0.0000000e+00 1.3596812e-01 0.0000000e+00 
0.0000000e+00 4.3546494e-02 0.0000000e+00 
0.0000000e+00 5.6905255e-02 0.0000000e+00 
0.0000000e+00 -3.5458643e-03 0.0000000e+00 
5.7115804e-02 9.2477322e-01 0.0000000e+00 
9.3827896e-02 8.6353707e-01 3.7233529e-03 
5.1143099e-02 9.2426062e-01 0.0000000e+00 
-7.5642131e-03 3.9846405e-02 0.0000000e+00 
1.2591591e-02 2.7786491e-03 0.0000000e+00 
-3.7772845e-02 -1.9174373e-03 0.0000000e+00 
-2.1425726e-02 5.1930487e-02 0.0000000e+00 
-1.2795183e-01 1.6044259e-02 0.0000000e+00 
-1.4648618e-02 2.4874946e-02 0.0000000e+00 
-1.6119675e-01 5.1932085e-01 0.0000000e+00 
-8.1516081e-01 2.4721326e-01 0.0000000e+00 
-6.4192897e-01 -8.2639456e-01 0.0000000e+00 
-9.5075622e-02 -8.4186035e-01 0.0000000e+00 
-3.5232522e-03 -5.6618589e-01 0.0000000e+00 
-3.9894884e-03 -3.5462964e-01 0.0000000e+00 
1.5619847e-01 -7.7954374e-02 0.0000000e+00 
2.1561092e-01 2.0132849e-01 0.0000000e+00 
2.7368832e-01 5.9917253e-01 0.0000000e+00 
2.5418338e-01 7.4293548e-01 0.0000000e+00 
2.3314871e-01 8.5607374e-01 0.0000000e+00 
1.2563680e-01 8.4561348e-01 0.0000000e+00 
1.8847315e-02 6.9237091e-02 0.0000000e+00 
8.0491798e-03 -2.0800546e-02 0.0000000e+00 
-9.5153153e-03 1.5703062e-02 0.0000000e+00 
-1.7349085e-02 -7.9884548e-03 0.0000000e+00 
-9.1222286e-02 6.3637532e-02 0.0000000e+00 
-8.3386943e-02 -1.4956247e-02 0.0000000e+00 
-4.1957013e-03 2.3332010e-01 0.0000000e+00 
-5.0113827e-01 5.6624991e-01 0.0000000e+00 
-8.4220642e-01 -3.5094401e-01 0.0000000e+00 
-3.3428735e-01 -9.0368462e-01 0.0000000e+00 
-1.4086171e-03 -6.9227463e-01 0.0000000e+00 
-3.7413031e-02 -4.5155960e-01 0.0000000e+00 
9.6505493e-02 -2.2483046e-01 0.0000000e+00 
1.9789617e-01 8.7138928e-02 0.0000000e+00 
2.5710398e-01 3.8192657e-01 0.0000000e+00 
2.5779372e-01 6.1013991e-01 0.0000000e+00 
2.1328135e-01 7.4613816e-01 0.0000000e+00 
1.7278175e-01 8.4257406e-01 0.0000000e+00 
1.0125558e-01 8.7969285e-01 0.0000000e+00 
2.8586665e-01 2.2837591e-01 0.0000000e+00 
1.5316200e-01 -1.4991875e-01 0.0000000e+00 
-1.6659299e-02 -2.9642111e-01 0.0000000e+00 
-3.7219182e-02 -5.7154983e-01 0.0000000e+00 
2.7332196e-01 3.5142773e-01 0.0000000e+00 
2.3330837e-01 5.6351129e-02 0.0000000e+00 
6.6463344e-02 -2.3402715e-01 0.0000000e+00 
-2.0000737e-02 -4.1146678e-01 0.0000000e+00 
-5.6253858e-02 -7.0144892e-01 0.0000000e+00 
-5.7492411e-01 -7.9735923e-01 0.0000000e+00 
-8.1580460e-01 2.4114786e-01 0.0000000e+00 
-1.7487606e-01 5.0916779e-01 0.0000000e+00 
-1.6025035e-02 2.8803274e-02 0.0000000e+00 
-3.3367044e-01 -8.9034981e-01 0.0000000e+00 
-8.2844484e-01 -3.6248380e-01 0.0000000e+00 
-5.1082593e-01 5.4070383e-01 0.0000000e+00 
-7.5172698e-03 2.7519780e-01 0.0000000e+00 
-7.8266956e-02 -4.0532157e-02 0.0000000e+00 
-1.5878435e-02 3.6584940e-02 0.0000000e+00 
3.6129508e-02 1.0128018e-02 0.0000000e+00 
-5.1550314e-02 -2.0222800e-02 0.0000000e+00 
-2.4415325e-02 7.5908981e-02 0.0000000e+00 
4.4194213e-03 5.1830962e-02 0.0000000e+00 
1.1989177e-02 -1.2181348e-02 0.0000000e+00 
-1.7165985e-02 5.2530564e-02 0.0000000e+00 
-9.6643865e-03 -5.4321028e-02 0.0000000e+00 
-8.4832966e-02 8.3381444e-02 0.0000000e+00 
2.3189281e-01 7.4883240e-01 0.0000000e+00 
2.4553573e-01 8.6218423e-01 0.0000000e+00 
1.7161748e-01 9.3431443e-01 0.0000000e+00 
2.6471189e-01 6.0874480e-01 0.0000000e+00 
2.3478828e-01 7.7328861e-01 0.0000000e+00 
1.7717406e-01 8.2786077e-01 0.0000000e+00 
1.0199325e-01 9.0517539e-01 0.0000000e+00 
-1.2400289e-01 -6.5296650e-01 0.0000000e+00 
-1.2820128e-01 -1.2274594e-02 0.0000000e+00 
1.0227285e-01 1.6776741e-01 0.0000000e+00 
-1.5785244e-01 -7.3795944e-02 0.0000000e+00 
6.2626362e-02 1.6778382e-02 0.0000000e+00 
-5.1069576e-02 1.9494087e-02 0.0000000e+00 
-1.0219844e-02 2.3574466e-01 0.0000000e+00 
9.7547524e-02 -2.4762006e-02 0.0000000e+00 
1.5696825e-02 6.9634371e-02 0.0000000e+00 
9.3426079e-02 -1.6408097e-02 0.0000000e+00 
-2.8736976e-01 -3.7312543e-01 0.0000000e+00 
-5.4448310e-02 -1.6881486e-02 0.0000000e+00 
9.6491143e-02 3.3930448e-01 0.0000000e+00 
-2.2573659e-01 -1.8814428e-01 0.0000000e+00 
-5.0363701e-02 3.3089653e-02 0.0000000e+00 
-3.9039105e-02 2.2567354e-01 0.0000000e+00 
3.8592357e-02 2.1360699e-02 0.0000000e+00 
1.8285660e-02 7.1767382e-03 0.0000000e+00 
1.1820263e-01 -4.3390434e-02 0.0000000e+00 
-1.1595288e-02 4.0560324e-02 0.0000000e+00 
-1.9288904e-04 1.1968078e-01 0.0000000e+00 
2.3205722e-02 3.9763395e-02 0.0000000e+00 
1.4038165e-01 -5.0395302e-02 0.0000000e+00 
1.0059696e-01 2.2275275e-01 0.0000000e+00 
1.1617243e-01 5.8633540e-02 0.0000000e+00 
1.2720734e-01 2.5054790e-02 0.0000000e+00 
1.7131776e-01 1.4740795e-02 0.0000000e+00 
6.1079994e-02 -5.6501471e-02 0.0000000e+00 
2.2372290e-01 -9.5288493e-02 0.0000000e+00 
2.2641957e-01 -1.6564825e-01 0.0000000e+00 
-1.9344322e-01 -5.6767195e-02 0.0000000e+00 
-4.6569966e-02 -1.8125315e-01 0.0000000e+00 
-1.7384729e-01 2.4307495e-02 0.0000000e+00 
-2.1788119e-01 -7.4428469e-02 0.0000000e+00 
-1.7845425e-01 1.2114743e-02 0.0000000e+00 
1.9014034e-01 6.4126901e-02 0.0000000e+00 
-9.3308374e-02 -2.3915645e-02 0.0000000e+00 
-4.2003736e-02 1.2458256e-01 0.0000000e+00 
-1.9756460e-01 -1.9694249e-01 0.0000000e+00 
-6.5660052e-02 5.9230492e-02 0.0000000e+00 
1.1431264e-01 -3.1440318e-01 0.0000000e+00 
1.0077725e-01 -3.9976707e-01 0.0000000e+00 
-3.2008313e-02 -3.9483112e-01 0.0000000e+00 
1.1658183e-01 -5.3722805e-01 0.0000000e+00 
-2.4354112e-01 -3.2280338e-01 0.0000000e+00 
-1.1556608e-01 -5.0613034e-01 0.0000000e+00 
4.4261657e-02 -5.0426638e-01 0.0000000e+00 
3.9465174e-02 -4.3805933e-01 0.0000000e+00 
3.7713047e-02 -1.2779358e-01 0.0000000e+00 
1.8023379e-01 3.4606703e-02 0.0000000e+00 
1.1462062e-01 2.9255816e-01 0.0000000e+00 
1.3657346e-01 3.3961043e-01 0.0000000e+00 
8.2088172e-02 3.0242682e-01 0.0000000e+00 
9.6624896e-02 2.1157406e-01 0.0000000e+00 
-1.2917570e-02 1.3821580e-01 0.0000000e+00 
1.0251395e-01 1.3801962e-01 0.0000000e+00 
6.6227322e-03 1.2117817e-01 0.0000000e+00 
2.0121905e-01 1.3723424e-01 0.0000000e+00 
-3.7262881e-01 -3.5607204e-01 0.0000000e+00 
2.7663147e-03 5.7017606e-02 0.0000000e+00 
7.6781511e-02 1.0228430e-01 0.0000000e+00 
-4.2687528e-02 3.5695088e-01 0.0000000e+00 
8.0406047e-02 3.0865990e-02 0.0000000e+00 
-1.3238506e-01 2.4404398e-01 0.0000000e+00 
-1.2229273e-01 3.7567981e-02 0.0000000e+00 
2.5141604e-02 2.4514604e-02 0.0000000e+00 
-1.1549613e-02 1.0575503e-01 0.0000000e+00 
1.1435821e-01 -2.9832557e-01 0.0000000e+00 
-1.8108805e-01 -2.3101467e-01 0.0000000e+00 
-2.6345348e-03 1.6222654e-01 0.0000000e+00 
-2.0728755e-01 2.1930671e-01 0.0000000e+00 
9.9118806e-02 5.8011714e-02 0.0000000e+00 
1.6854513e-02 4.8310347e-02 0.0000000e+00 
7.1610197e-02 2.6103590e-02 0.0000000e+00 
-1.6485253e-01 1.5216702e-01 0.0000000e+00 
4.7999237e-02 -2.8316519e-01 0.0000000e+00 
-1.4763846e-01 1.9547212e-01 0.0000000e+00 
8.8746168e-02 -4.1272977e-01 0.0000000e+00 
1.6407071e-01 7.0844792e-02 0.0000000e+00 
2.1805443e-02 3.8800891e-02 0.0000000e+00 
-1.0581204e-01 1.9331348e-01 0.0000000e+00 
2.0993795e-02 1.4905904e-01 0.0000000e+00 
-1.3792612e-01 6.3520975e-02 0.0000000e+00 
-3.3146370e-02 1.3534892e-01 0.0000000e+00 
6.0214136e-02 7.8150788e-03 0.0000000e+00 
7.0856929e-02 1.5863199e-02 0.0000000e+00 
-1.4220451e-02 2.9481431e-02 0.0000000e+00 
-3.8586084e-02 1.0567477e-01 0.0000000e+00 
2.9533226e-02 5.1725440e-02 0.0000000e+00 
-2.8433570e-01 -2.6138613e-01 0.0000000e+00 
-2.9918236e-01 -3.9250475e-01 0.0000000e+00 
-1.1802520e-01 1.9919327e-01 0.0000000e+00 
2.9522318e-02 3.7827477e-02 0.0000000e+00 
-6.6511244e-02 1.3916692e-01 0.0000000e+00 
-8.4367462e-02 1.7712186e-01 0.0000000e+00 
-5.2137412e-02 1.4468054e-01 0.0000000e+00 
1.4476253e-01 -1.1847513e-02 0.0000000e+00 
1.2406393e-01 -2.2637650e-02 0.0000000e+00 
2.6604865e-04 2.2863726e-01 0.0000000e+00 
2.1573504e-02 2.1232893e-01 0.0000000e+00 
8.1478320e-02 2.2572589e-01 0.0000000e+00 
9.0517789e-02 2.3786373e-01 0.0000000e+00 
9.6879460e-02 9.2107899e-02 0.0000000e+00 
-4.4454362e-02 2.6741430e-01 0.0000000e+00 
-5.3559273e-02 9.1615349e-02 0.0000000e+00 
-1.0302235e-01 2.6299410e-02 0.0000000e+00 
-1.3038899e-01 7.0186943e-02 0.0000000e+00 
-1.5233174e-01 1.3530566e-01 0.0000000e+00 
-2.1837471e-01 2.9979628e-01 0.0000000e+00 
-2.3361400e-01 4.2456359e-01 0.0000000e+00 
-1.2590364e-02 -2.6117533e-01 0.0000000e+00 
-1.2302931e-01 -5.9714460e-01 0.0000000e+00 
4.2447127e-02 4.2347293e-03 0.0000000e+00 
3.7530083e-02 2.5296740e-03 0.0000000e+00 
2.2017827e-02 3.5026714e-02 0.0000000e+00 
5.9118856e-02 1.7722579e-02 0.0000000e+00 
7.3306069e-02 -1.0908209e-02 0.0000000e+00 
1.7259820e-01 -5.0073229e-02 0.0000000e+00 
-8.2032252e-03 -2.5871219e-03 0.0000000e+00 
1.0330910e-03 7.3783875e-02 0.0000000e+00 
8.0479376e-02 -1.4853070e-02 0.0000000e+00 
7.7165402e-02 9.4432570e-02 0.0000000e+00 
-2.3524840e-03 -1.9444355e-01 0.0000000e+00 
-2.6124848e-02 4.4735357e-02 0.0000000e+00 
-1.0535497e-01 3.1692579e-01 0.0000000e+00 
-2.2778526e-01 1.9651565e-01 0.0000000e+00 
-2.9716852e-01 -8.8711369e-01 0.0000000e+00 
-5.3315528e-02 6.2749758e-02 0.0000000e+00 
8.5876681e-02 1.2258212e-01 0.0000000e+00 
6.0879506e-02 -2.6226437e-01 0.0000000e+00 
9.3240008e-02 -3.7008010e-02 0.0000000e+00 
-9.9482693e-02 -6.0088915e-01 0.0000000e+00 
-1.3126385e-01 7.2079882e-02 0.0000000e+00 
9.7555265e-02 1.4972374e-01 0.0000000e+00 
5.0439224e-02 5.2405037e-02 0.0000000e+00 
-2.8509140e-01 -4.1222140e-01 0.0000000e+00 
-5.1658171e-01 -5.6354475e-01 0.0000000e+00 
-2.3474301e-01 -2.3851173e-01 0.0000000e+00 
-3.6282998e-01 -4.9648297e-01 0.0000000e+00 
-2.0754591e-01 -1.8663169e-01 0.0000000e+00 
1.4626785e-01 1.4409703e-01 0.0000000e+00 
-5.3322006e-02 2.1279877e-01 0.0000000e+00 
-8.6990424e-02 9.7724490e-02 0.0000000e+00 
1.0344803e-01 -1.3806052e-02 0.0000000e+00 
-1.2369739e-01 -2.1348337e-02 0.0000000e+00 
1.5970292e-02 4.8012923e-02 0.0000000e+00 
5.0740581e-02 3.2146182e-02 0.0000000e+00 
3.2609303e-02 1.3895857e-01 0.0000000e+00 
-4.7372270e-02 3.5926506e-02 0.0000000e+00 
-4.8249852e-02 1.5125103e-01 0.0000000e+00 
-1.0235138e-01 2.0166096e-01 0.0000000e+00 
-9.0026580e-02 8.3238319e-02 0.0000000e+00 
-1.2399071e-01 1.9124505e-01 0.0000000e+00 
-2.0620245e-02 8.9353442e-02 0.0000000e+00 
1.1700673e-01 -5.9930384e-02 0.0000000e+00 
-5.5394948e-02 2.0300396e-01 0.0000000e+00 
1.8873040e-02 -1.8796965e-01 0.0000000e+00 
-1.6448615e-01 9.9819221e-02 0.0000000e+00 
1.5485199e-01 1.3764990e-02 0.0000000e+00 
4.7279291e-02 -4.5490167e-01 0.0000000e+00 
1.4988142e-02 -4.8050922e-01 0.0000000e+00 
-7.5080685e-02 1.8617839e-01 0.0000000e+00 
1.7812151e-01 2.3688495e-01 0.0000000e+00 
-2.9414538e-01 -3.4695664e-01 0.0000000e+00 
-1.4195582e-01 2.2518927e-01 0.0000000e+00 
-3.4970391e-01 -3.9918000e-01 0.0000000e+00 
-3.5842890e-01 -2.2107491e-01 0.0000000e+00 
1.0865048e-01 7.5896755e-02 0.0000000e+00 
-2.4963318e-01 -1.5264623e-01 0.0000000e+00 
2.5366655e-02 7.1475454e-02 0.0000000e+00 
-8.7666512e-02 2.1145898e-01 0.0000000e+00 
-1.3862549e-01 2.5346878e-01 0.0000000e+00 
-3.0936921e-01 -3.0838576e-01 0.0000000e+00 
-2.6733956e-01 5.0777119e-01 0.0000000e+00 
1.2119394e-01 8.0421619e-02 0.0000000e+00 
1.6092525e-01 1.6822131e-01 0.0000000e+00 
2.8495541e-02 4.5094323e-01 0.0000000e+00 
5.7808798e-02 6.1312222e-01 0.0000000e+00 
1.4341719e-02 3.2771297e-02 0.0000000e+00 
1.0576445e-01 -2.5551241e-02 0.0000000e+00 
3.7574600e-02 -1.8419297e-02 0.0000000e+00 
1.5861472e-01 -5.2528586e-02 0.0000000e+00 
3.9480802e-02 2.9591409e-02 0.0000000e+00 
-9.7748816e-02 1.8680021e-01 0.0000000e+00 
1.1302570e-01 4.6937307e-03 0.0000000e+00 
-2.4468988e-02 8.1030861e-02 0.0000000e+00 
-1.1980373e-01 4.6117618e-03 0.0000000e+00 
-3.6354858e-01 -4.4575709e-01 0.0000000e+00 
5.2059058e-02 9.8431990e-02 0.0000000e+00 
1.0540257e-01 6.0784630e-02 0.0000000e+00 
-8.0098368e-02 1.3151537e-01 0.0000000e+00 
1.8736289e-03 1.4120587e-02 0.0000000e+00 
2.8151745e-02 2.3617540e-01 0.0000000e+00 
1.4476745e-02 4.2239238e-02 0.0000000e+00 
4.1470367e-02 7.4717455e-02 0.0000000e+00 
-3.5804525e-01 -4.1792065e-01 0.0000000e+00 
-2.6305193e-01 -9.2664391e-02 0.0000000e+00 
-1.0229122e-01 3.0773756e-01 0.0000000e+00 
1.3393892e-02 2.0514892e-01 0.0000000e+00 
-1.3814256e-01 1.1130104e-01 0.0000000e+00 
-4.7726231e-03 6.2143698e-02 0.0000000e+00 
1.2595756e-01 -3.0886164e-02 0.0000000e+00 
1.4356382e-02 1.2685578e-01 0.0000000e+00 
-4.1724348e-01 -5.2453518e-01 0.0000000e+00 
-2.4610867e-01 -2.6120189e-01 0.0000000e+00 
-1.7962001e-02 2.9314002e-01 0.0000000e+00 
5.7279322e-02 -2.6851082e-02 0.0000000e+00 
5.5538088e-02 -5.8398403e-02 0.0000000e+00 
1.4483498e-02 7.3154265e-01 0.0000000e+00 
-4.1404003e-03 1.7090237e-02 0.0000000e+00 
1.9788904e-02 4.9808376e-02 0.0000000e+00 
3.7896812e-02 6.4578146e-02 0.0000000e+00 