# vtk DataFile Version 4.0
vtk output
ASCII
DATASET UNSTRUCTURED_GRID
POINTS 3487 float
0.0000000e+00 0.0000000e+00 0.0000000e+00 
2.0000000e+01 0.0000000e+00 0.0000000e+00 
2.0000000e+01 1.0000000e+01 0.0000000e+00 
0.0000000e+00 1.0000000e+01 0.0000000e+00 
0.0000000e+00 0.0000000e+00 1.0000000e+00 
2.0000000e+01 0.0000000e+00 1.0000000e+00 
2.0000000e+01 1.0000000e+01 1.0000000e+00 
0.0000000e+00 1.0000000e+01 1.0000000e+00 
1.0000000e+00 1.0000000e+01 0.0000000e+00 
1.0000000e+00 1.0000000e+01 1.0000000e+00 
5.0000000e+00 1.0000000e+01 0.0000000e+00 
1.0000000e+01 1.0000000e+01 0.0000000e+00 
1.5000000e+01 1.0000000e+01 0.0000000e+00 
1.0000000e+00 0.0000000e+00 0.0000000e+00 
2.0000000e+00 0.0000000e+00 0.0000000e+00 
3.0000000e+00 0.0000000e+00 0.0000000e+00 
4.0000000e+00 0.0000000e+00 0.0000000e+00 
5.0000000e+00 0.0000000e+00 0.0000000e+00 
6.0000000e+00 0.0000000e+00 0.0000000e+00 
7.0000000e+00 0.0000000e+00 0.0000000e+00 
8.0000000e+00 0.0000000e+00 0.0000000e+00 
9.0000000e+00 0.0000000e+00 0.0000000e+00 
1.0000000e+01 0.0000000e+00 0.0000000e+00 
1.1000000e+01 0.0000000e+00 0.0000000e+00 
1.2000000e+01 0.0000000e+00 0.0000000e+00 
1.3000000e+01 0.0000000e+00 0.0000000e+00 
1.4000000e+01 0.0000000e+00 0.0000000e+00 
1.5000000e+01 0.0000000e+00 0.0000000e+00 
1.6000000e+01 0.0000000e+00 0.0000000e+00 
1.7000000e+01 0.0000000e+00 0.0000000e+00 
1.8000000e+01 0.0000000e+00 0.0000000e+00 
1.9000000e+01 0.0000000e+00 0.0000000e+00 
5.0000000e-01 0.0000000e+00 0.0000000e+00 
1.5000000e+00 0.0000000e+00 0.0000000e+00 
2.5000000e+00 0.0000000e+00 0.0000000e+00 
3.5000000e+00 0.0000000e+00 0.0000000e+00 
4.5000000e+00 0.0000000e+00 0.0000000e+00 
5.5000000e+00 0.0000000e+00 0.0000000e+00 
6.5000000e+00 0.0000000e+00 0.0000000e+00 
7.5000000e+00 0.0000000e+00 0.0000000e+00 
8.5000000e+00 0.0000000e+00 0.0000000e+00 
9.5000000e+00 0.0000000e+00 0.0000000e+00 
1.0500000e+01 0.0000000e+00 0.0000000e+00 
1.1500000e+01 0.0000000e+00 0.0000000e+00 
1.2500000e+01 0.0000000e+00 0.0000000e+00 
1.3500000e+01 0.0000000e+00 0.0000000e+00 
1.4500000e+01 0.0000000e+00 0.0000000e+00 
1.5500000e+01 0.0000000e+00 0.0000000e+00 
1.6500000e+01 0.0000000e+00 0.0000000e+00 
1.7500000e+01 0.0000000e+00 0.0000000e+00 
1.8500000e+01 0.0000000e+00 0.0000000e+00 
1.9500000e+01 0.0000000e+00 0.0000000e+00 
2.0000000e+01 1.0000000e+00 0.0000000e+00 
2.0000000e+01 2.0000000e+00 0.0000000e+00 
2.0000000e+01 3.0000000e+00 0.0000000e+00 
2.0000000e+01 4.0000000e+00 0.0000000e+00 
2.0000000e+01 5.0000000e+00 0.0000000e+00 
2.0000000e+01 6.0000000e+00 0.0000000e+00 
2.0000000e+01 7.0000000e+00 0.0000000e+00 
2.0000000e+01 8.0000000e+00 0.0000000e+00 
2.0000000e+01 9.0000000e+00 0.0000000e+00 
2.0000000e+01 5.0000000e-01 0.0000000e+00 
2.0000000e+01 1.5000000e+00 0.0000000e+00 
2.0000000e+01 2.5000000e+00 0.0000000e+00 
2.0000000e+01 3.5000000e+00 0.0000000e+00 
2.0000000e+01 4.5000000e+00 0.0000000e+00 
2.0000000e+01 5.5000000e+00 0.0000000e+00 
2.0000000e+01 6.5000000e+00 0.0000000e+00 
2.0000000e+01 7.5000000e+00 0.0000000e+00 
2.0000000e+01 8.5000000e+00 0.0000000e+00 
2.0000000e+01 9.5000000e+00 0.0000000e+00 
0.0000000e+00 9.0000000e+00 0.0000000e+00 
0.0000000e+00 8.0000000e+00 0.0000000e+00 
0.0000000e+00 7.0000000e+00 0.0000000e+00 
0.0000000e+00 6.0000000e+00 0.0000000e+00 
0.0000000e+00 5.0000000e+00 0.0000000e+00 
0.0000000e+00 4.0000000e+00 0.0000000e+00 
0.0000000e+00 3.0000000e+00 0.0000000e+00 
0.0000000e+00 2.0000000e+00 0.0000000e+00 
0.0000000e+00 1.0000000e+00 0.0000000e+00 
0.0000000e+00 9.5000000e+00 0.0000000e+00 
0.0000000e+00 8.5000000e+00 0.0000000e+00 
0.0000000e+00 7.5000000e+00 0.0000000e+00 
0.0000000e+00 6.5000000e+00 0.0000000e+00 
0.0000000e+00 5.5000000e+00 0.0000000e+00 
0.0000000e+00 4.5000000e+00 0.0000000e+00 
0.0000000e+00 3.5000000e+00 0.0000000e+00 
0.0000000e+00 2.5000000e+00 0.0000000e+00 
0.0000000e+00 1.5000000e+00 0.0000000e+00 
0.0000000e+00 5.0000000e-01 0.0000000e+00 
0.0000000e+00 0.0000000e+00 5.0000000e-01 
2.0000000e+01 0.0000000e+00 5.0000000e-01 
1.0000000e+00 0.0000000e+00 1.0000000e+00 
2.0000000e+00 0.0000000e+00 1.0000000e+00 
3.0000000e+00 0.0000000e+00 1.0000000e+00 
4.0000000e+00 0.0000000e+00 1.0000000e+00 
5.0000000e+00 0.0000000e+00 1.0000000e+00 
6.0000000e+00 0.0000000e+00 1.0000000e+00 
7.0000000e+00 0.0000000e+00 1.0000000e+00 
8.0000000e+00 0.0000000e+00 1.0000000e+00 
9.0000000e+00 0.0000000e+00 1.0000000e+00 
1.0000000e+01 0.0000000e+00 1.0000000e+00 
1.1000000e+01 0.0000000e+00 1.0000000e+00 
1.2000000e+01 0.0000000e+00 1.0000000e+00 
1.3000000e+01 0.0000000e+00 1.0000000e+00 
1.4000000e+01 0.0000000e+00 1.0000000e+00 
1.5000000e+01 0.0000000e+00 1.0000000e+00 
1.6000000e+01 0.0000000e+00 1.0000000e+00 
1.7000000e+01 0.0000000e+00 1.0000000e+00 
1.8000000e+01 0.0000000e+00 1.0000000e+00 
1.9000000e+01 0.0000000e+00 1.0000000e+00 
5.0000000e-01 0.0000000e+00 1.0000000e+00 
1.5000000e+00 0.0000000e+00 1.0000000e+00 
2.5000000e+00 0.0000000e+00 1.0000000e+00 
3.5000000e+00 0.0000000e+00 1.0000000e+00 
4.5000000e+00 0.0000000e+00 1.0000000e+00 
5.5000000e+00 0.0000000e+00 1.0000000e+00 
6.5000000e+00 0.0000000e+00 1.0000000e+00 
7.5000000e+00 0.0000000e+00 1.0000000e+00 
8.5000000e+00 0.0000000e+00 1.0000000e+00 
9.5000000e+00 0.0000000e+00 1.0000000e+00 
1.0500000e+01 0.0000000e+00 1.0000000e+00 
1.1500000e+01 0.0000000e+00 1.0000000e+00 
1.2500000e+01 0.0000000e+00 1.0000000e+00 
1.3500000e+01 0.0000000e+00 1.0000000e+00 
1.4500000e+01 0.0000000e+00 1.0000000e+00 
1.5500000e+01 0.0000000e+00 1.0000000e+00 
1.6500000e+01 0.0000000e+00 1.0000000e+00 
1.7500000e+01 0.0000000e+00 1.0000000e+00 
1.8500000e+01 0.0000000e+00 1.0000000e+00 
1.9500000e+01 0.0000000e+00 1.0000000e+00 
2.0000000e+01 1.0000000e+01 5.0000000e-01 
2.0000000e+01 1.0000000e+00 1.0000000e+00 
2.0000000e+01 2.0000000e+00 1.0000000e+00 
2.0000000e+01 3.0000000e+00 1.0000000e+00 
2.0000000e+01 4.0000000e+00 1.0000000e+00 
2.0000000e+01 5.0000000e+00 1.0000000e+00 
2.0000000e+01 6.0000000e+00 1.0000000e+00 
2.0000000e+01 7.0000000e+00 1.0000000e+00 
2.0000000e+01 8.0000000e+00 1.0000000e+00 
2.0000000e+01 9.0000000e+00 1.0000000e+00 
2.0000000e+01 5.0000000e-01 1.0000000e+00 
2.0000000e+01 1.5000000e+00 1.0000000e+00 
2.0000000e+01 2.5000000e+00 1.0000000e+00 
2.0000000e+01 3.5000000e+00 1.0000000e+00 
2.0000000e+01 4.5000000e+00 1.0000000e+00 
2.0000000e+01 5.5000000e+00 1.0000000e+00 
2.0000000e+01 6.5000000e+00 1.0000000e+00 
2.0000000e+01 7.5000000e+00 1.0000000e+00 
2.0000000e+01 8.5000000e+00 1.0000000e+00 
2.0000000e+01 9.5000000e+00 1.0000000e+00 
0.0000000e+00 1.0000000e+01 5.0000000e-01 
0.0000000e+00 9.0000000e+00 1.0000000e+00 
0.0000000e+00 8.0000000e+00 1.0000000e+00 
0.0000000e+00 7.0000000e+00 1.0000000e+00 
0.0000000e+00 6.0000000e+00 1.0000000e+00 
0.0000000e+00 5.0000000e+00 1.0000000e+00 
0.0000000e+00 4.0000000e+00 1.0000000e+00 
0.0000000e+00 3.0000000e+00 1.0000000e+00 
0.0000000e+00 2.0000000e+00 1.0000000e+00 
0.0000000e+00 1.0000000e+00 1.0000000e+00 
0.0000000e+00 9.5000000e+00 1.0000000e+00 
0.0000000e+00 8.5000000e+00 1.0000000e+00 
0.0000000e+00 7.5000000e+00 1.0000000e+00 
0.0000000e+00 6.5000000e+00 1.0000000e+00 
0.0000000e+00 5.5000000e+00 1.0000000e+00 
0.0000000e+00 4.5000000e+00 1.0000000e+00 
0.0000000e+00 3.5000000e+00 1.0000000e+00 
0.0000000e+00 2.5000000e+00 1.0000000e+00 
0.0000000e+00 1.5000000e+00 1.0000000e+00 
0.0000000e+00 5.0000000e-01 1.0000000e+00 
5.0000000e-01 1.0000000e+01 0.0000000e+00 
1.0000000e+00 1.0000000e+01 5.0000000e-01 
5.0000000e-01 1.0000000e+01 1.0000000e+00 
1.9000000e+01 1.0000000e+01 1.0000000e+00 
1.8000000e+01 1.0000000e+01 1.0000000e+00 
1.7000000e+01 1.0000000e+01 1.0000000e+00 
1.6000000e+01 1.0000000e+01 1.0000000e+00 
1.5000000e+01 1.0000000e+01 1.0000000e+00 
1.4000000e+01 1.0000000e+01 1.0000000e+00 
1.3000000e+01 1.0000000e+01 1.0000000e+00 
1.2000000e+01 1.0000000e+01 1.0000000e+00 
1.1000000e+01 1.0000000e+01 1.0000000e+00 
1.0000000e+01 1.0000000e+01 1.0000000e+00 
9.0000000e+00 1.0000000e+01 1.0000000e+00 
8.0000000e+00 1.0000000e+01 1.0000000e+00 
7.0000000e+00 1.0000000e+01 1.0000000e+00 
6.0000000e+00 1.0000000e+01 1.0000000e+00 
5.0000000e+00 1.0000000e+01 1.0000000e+00 
4.0000000e+00 1.0000000e+01 1.0000000e+00 
3.0000000e+00 1.0000000e+01 1.0000000e+00 
2.0000000e+00 1.0000000e+01 1.0000000e+00 
1.9500000e+01 1.0000000e+01 1.0000000e+00 
1.8500000e+01 1.0000000e+01 1.0000000e+00 
1.7500000e+01 1.0000000e+01 1.0000000e+00 
1.6500000e+01 1.0000000e+01 1.0000000e+00 
1.5500000e+01 1.0000000e+01 1.0000000e+00 
1.4500000e+01 1.0000000e+01 1.0000000e+00 
1.3500000e+01 1.0000000e+01 1.0000000e+00 
1.2500000e+01 1.0000000e+01 1.0000000e+00 
1.1500000e+01 1.0000000e+01 1.0000000e+00 
1.0500000e+01 1.0000000e+01 1.0000000e+00 
9.5000000e+00 1.0000000e+01 1.0000000e+00 
8.5000000e+00 1.0000000e+01 1.0000000e+00 
7.5000000e+00 1.0000000e+01 1.0000000e+00 
6.5000000e+00 1.0000000e+01 1.0000000e+00 
5.5000000e+00 1.0000000e+01 1.0000000e+00 
4.5000000e+00 1.0000000e+01 1.0000000e+00 
3.5000000e+00 1.0000000e+01 1.0000000e+00 
2.5000000e+00 1.0000000e+01 1.0000000e+00 
1.5000000e+00 1.0000000e+01 1.0000000e+00 
6.0000000e+00 1.0000000e+01 0.0000000e+00 
7.0000000e+00 1.0000000e+01 0.0000000e+00 
8.0000000e+00 1.0000000e+01 0.0000000e+00 
9.0000000e+00 1.0000000e+01 0.0000000e+00 
5.5000000e+00 1.0000000e+01 0.0000000e+00 
6.5000000e+00 1.0000000e+01 0.0000000e+00 
7.5000000e+00 1.0000000e+01 0.0000000e+00 
8.5000000e+00 1.0000000e+01 0.0000000e+00 
9.5000000e+00 1.0000000e+01 0.0000000e+00 
1.1000000e+01 1.0000000e+01 0.0000000e+00 
1.2000000e+01 1.0000000e+01 0.0000000e+00 
1.3000000e+01 1.0000000e+01 0.0000000e+00 
1.4000000e+01 1.0000000e+01 0.0000000e+00 
1.0500000e+01 1.0000000e+01 0.0000000e+00 
1.1500000e+01 1.0000000e+01 0.0000000e+00 
1.2500000e+01 1.0000000e+01 0.0000000e+00 
1.3500000e+01 1.0000000e+01 0.0000000e+00 
1.4500000e+01 1.0000000e+01 0.0000000e+00 
1.9000000e+01 1.0000000e+01 0.0000000e+00 
[...]
POINT_DATA 3487
FIELD FieldData 1
VELOCITY 3 3487  float
0.0000000e+00 0.0000000e+00 0.0000000e+00 
0.0000000e+00 0.0000000e+00 0.0000000e+00 
0.0000000e+00 1.7572945e-04 0.0000000e+00 
0.0000000e+00 -5.5224860e-01 0.0000000e+00 
0.0000000e+00 0.0000000e+00 0.0000000e+00 
0.0000000e+00 0.0000000e+00 0.0000000e+00 
0.0000000e+00 3.3982869e-04 0.0000000e+00 
0.0000000e+00 -4.7915548e-01 0.0000000e+00 
9.9781483e-02 -1.3082000e+00 0.0000000e+00 
2.1651626e-01 -1.1820933e+00 0.0000000e+00 
2.0936055e-01 -7.1645245e-02 0.0000000e+00 
4.0311259e-03 -7.8196684e-03 0.0000000e+00 
-6.6525023e-04 -8.1836170e-04 0.0000000e+00 
0.0000000e+00 0.0000000e+00 0.0000000e+00 
0.0000000e+00 0.0000000e+00 0.0000000e+00 
0.0000000e+00 0.0000000e+00 0.0000000e+00 
0.0000000e+00 0.0000000e+00 0.0000000e+00 
0.0000000e+00 0.0000000e+00 0.0000000e+00 
0.0000000e+00 0.0000000e+00 0.0000000e+00 
0.0000000e+00 0.0000000e+00 0.0000000e+00 
0.0000000e+00 0.0000000e+00 0.0000000e+00 
0.0000000e+00 0.0000000e+00 0.0000000e+00 
0.0000000e+00 0.0000000e+00 0.0000000e+00 
0.0000000e+00 0.0000000e+00 0.0000000e+00 
0.0000000e+00 0.0000000e+00 0.0000000e+00 
0.0000000e+00 0.0000000e+00 0.0000000e+00 
0.0000000e+00 0.0000000e+00 0.0000000e+00 
0.0000000e+00 0.0000000e+00 0.0000000e+00 
0.0000000e+00 0.0000000e+00 0.0000000e+00 
0.0000000e+00 0.0000000e+00 0.0000000e+00 
0.0000000e+00 0.0000000e+00 0.0000000e+00 
0.0000000e+00 0.0000000e+00 0.0000000e+00 
0.0000000e+00 0.0000000e+00 0.0000000e+00 
0.0000000e+00 0.0000000e+00 0.0000000e+00 
0.0000000e+00 0.0000000e+00 0.0000000e+00 
0.0000000e+00 0.0000000e+00 0.0000000e+00 
0.0000000e+00 0.0000000e+00 0.0000000e+00 
0.0000000e+00 0.0000000e+00 0.0000000e+00 
0.0000000e+00 0.0000000e+00 0.0000000e+00 
0.0000000e+00 0.0000000e+00 0.0000000e+00 
0.0000000e+00 0.0000000e+00 0.0000000e+00 
0.0000000e+00 0.0000000e+00 0.0000000e+00 
0.0000000e+00 0.0000000e+00 0.0000000e+00 
0.0000000e+00 0.0000000e+00 0.0000000e+00 
0.0000000e+00 0.0000000e+00 0.0000000e+00 
0.0000000e+00 0.0000000e+00 0.0000000e+00 
0.0000000e+00 0.0000000e+00 0.0000000e+00 
0.0000000e+00 0.0000000e+00 0.0000000e+00 
0.0000000e+00 0.0000000e+00 0.0000000e+00 
0.0000000e+00 0.0000000e+00 0.0000000e+00 
0.0000000e+00 0.0000000e+00 0.0000000e+00 
0.0000000e+00 0.0000000e+00 0.0000000e+00 
0.0000000e+00 -1.5969045e-04 0.0000000e+00 
0.0000000e+00 -3.7042941e-05 0.0000000e+00 
0.0000000e+00 -1.6496495e-04 0.0000000e+00 
0.0000000e+00 -9.0357724e-05 0.0000000e+00 
0.0000000e+00 -1.8759415e-04 0.0000000e+00 
0.0000000e+00 1.0369126e-04 0.0000000e+00 
0.0000000e+00 -4.7214740e-05 0.0000000e+00 
0.0000000e+00 2.9159276e-04 0.0000000e+00 
0.0000000e+00 -2.5220157e-04 0.0000000e+00 
0.0000000e+00 -6.1831634e-05 0.0000000e+00 
0.0000000e+00 2.9396304e-05 0.0000000e+00 
0.0000000e+00 -5.3836233e-05 0.0000000e+00 
0.0000000e+00 7.4904761e-05 0.0000000e+00 
0.0000000e+00 9.6018572e-05 0.0000000e+00 
0.0000000e+00 -2.8869850e-04 0.0000000e+00 
0.0000000e+00 1.5128180e-04 0.0000000e+00 
0.0000000e+00 -1.2564695e-04 0.0000000e+00 
0.0000000e+00 -1.6179233e-04 0.0000000e+00 
0.0000000e+00 9.7461198e-05 0.0000000e+00 
0.0000000e+00 -1.2368847e+00 0.0000000e+00 
0.0000000e+00 -1.1667957e+00 0.0000000e+00 
0.0000000e+00 -1.2183897e+00 0.0000000e+00 
0.0000000e+00 -1.3193257e+00 0.0000000e+00 
0.0000000e+00 -1.6871773e+00 0.0000000e+00 
0.0000000e+00 2.7844426e-01 0.0000000e+00 
0.0000000e+00 -1.2704688e-01 0.0000000e+00 
0.0000000e+00 -1.1583661e-01 0.0000000e+00 
0.0000000e+00 2.8351629e-02 0.0000000e+00 
0.0000000e+00 -8.1004596e-01 0.0000000e+00 
0.0000000e+00 -1.3003469e+00 0.0000000e+00 
0.0000000e+00 -1.2257618e+00 0.0000000e+00 
0.0000000e+00 -1.5845158e+00 0.0000000e+00 
0.0000000e+00 -1.4671224e+00 0.0000000e+00 
0.0000000e+00 -7.2681010e-01 0.0000000e+00 
0.0000000e+00 1.8770696e-01 0.0000000e+00 
0.0000000e+00 1.7707773e-01 0.0000000e+00 
0.0000000e+00 -5.6750877e-03 0.0000000e+00 
0.0000000e+00 -7.4093923e-02 0.0000000e+00 
0.0000000e+00 0.0000000e+00 0.0000000e+00 
0.0000000e+00 0.0000000e+00 0.0000000e+00 
0.0000000e+00 0.0000000e+00 0.0000000e+00 
0.0000000e+00 0.0000000e+00 0.0000000e+00 
0.0000000e+00 0.0000000e+00 0.0000000e+00 
0.0000000e+00 0.0000000e+00 0.0000000e+00 
0.0000000e+00 0.0000000e+00 0.0000000e+00 
0.0000000e+00 0.0000000e+00 0.0000000e+00 
0.0000000e+00 0.0000000e+00 0.0000000e+00 
0.0000000e+00 0.0000000e+00 0.0000000e+00 
0.0000000e+00 0.0000000e+00 0.0000000e+00 
0.0000000e+00 0.0000000e+00 0.0000000e+00 
0.0000000e+00 0.0000000e+00 0.0000000e+00 
0.0000000e+00 0.0000000e+00 0.0000000e+00 
0.0000000e+00 0.0000000e+00 0.0000000e+00 
0.0000000e+00 0.0000000e+00 0.0000000e+00 
0.0000000e+00 0.0000000e+00 0.0000000e+00 
0.0000000e+00 0.0000000e+00 0.0000000e+00 
0.0000000e+00 0.0000000e+00 0.0000000e+00 
0.0000000e+00 0.0000000e+00 0.0000000e+00 
0.0000000e+00 0.0000000e+00 0.0000000e+00 
0.0000000e+00 0.0000000e+00 0.0000000e+00 
0.0000000e+00 0.0000000e+00 0.0000000e+00 
0.0000000e+00 0.0000000e+00 0.0000000e+00 
0.0000000e+00 0.0000000e+00 0.0000000e+00 
0.0000000e+00 0.0000000e+00 0.0000000e+00 
0.0000000e+00 0.0000000e+00 0.0000000e+00 
0.0000000e+00 0.0000000e+00 0.0000000e+00 
0.0000000e+00 0.0000000e+00 0.0000000e+00 
0.0000000e+00 0.0000000e+00 0.0000000e+00 
0.0000000e+00 0.0000000e+00 0.0000000e+00 
0.0000000e+00 0.0000000e+00 0.0000000e+00 
0.0000000e+00 0.0000000e+00 0.0000000e+00 
0.0000000e+00 0.0000000e+00 0.0000000e+00 
0.0000000e+00 0.0000000e+00 0.0000000e+00 
0.0000000e+00 0.0000000e+00 0.0000000e+00 
0.0000000e+00 0.0000000e+00 0.0000000e+00 
0.0000000e+00 0.0000000e+00 0.0000000e+00 
0.0000000e+00 0.0000000e+00 0.0000000e+00 
0.0000000e+00 0.0000000e+00 0.0000000e+00 
0.0000000e+00 0.0000000e+00 0.0000000e+00 
0.0000000e+00 -7.0141061e-05 -7.4783471e-05 
0.0000000e+00 -8.1222155e-05 0.0000000e+00 
0.0000000e+00 -6.2990541e-05 0.0000000e+00 
0.0000000e+00 9.4470852e-06 0.0000000e+00 
0.0000000e+00 5.4183642e-05 0.0000000e+00 
0.0000000e+00 -2.1685759e-05 0.0000000e+00 
0.0000000e+00 4.8133094e-05 0.0000000e+00 
0.0000000e+00 1.7883610e-04 0.0000000e+00 
0.0000000e+00 2.9704772e-04 0.0000000e+00 
0.0000000e+00 2.4719330e-04 0.0000000e+00 
0.0000000e+00 -3.4059300e-05 0.0000000e+00 
0.0000000e+00 5.5202698e-05 0.0000000e+00 
0.0000000e+00 -4.7929614e-05 0.0000000e+00 
0.0000000e+00 -1.2930523e-04 0.0000000e+00 
0.0000000e+00 9.2718707e-05 0.0000000e+00 
0.0000000e+00 -2.2252722e-04 0.0000000e+00 
0.0000000e+00 -1.7477991e-04 0.0000000e+00 
0.0000000e+00 1.1865779e-04 0.0000000e+00 
0.0000000e+00 -9.9513432e-05 0.0000000e+00 
0.0000000e+00 -3.0878402e-04 0.0000000e+00 
0.0000000e+00 -1.3853173e+00 -1.8136444e-02 
0.0000000e+00 -1.4771926e+00 0.0000000e+00 
0.0000000e+00 -1.3924881e+00 0.0000000e+00 
0.0000000e+00 -1.6390185e+00 0.0000000e+00 
0.0000000e+00 -1.1941406e+00 0.0000000e+00 
0.0000000e+00 -1.7180468e+00 0.0000000e+00 
0.0000000e+00 3.1203049e-01 0.0000000e+00 
0.0000000e+00 -3.8573548e-02 0.0000000e+00 
0.0000000e+00 -1.4223247e-02 0.0000000e+00 
0.0000000e+00 -3.4006760e-02 0.0000000e+00 
0.0000000e+00 -8.5216248e-01 0.0000000e+00 
0.0000000e+00 -1.4675133e+00 0.0000000e+00 
0.0000000e+00 -1.5349739e+00 0.0000000e+00 
0.0000000e+00 -1.5306064e+00 0.0000000e+00 
0.0000000e+00 -1.6101438e+00 0.0000000e+00 
0.0000000e+00 -6.1616212e-01 0.0000000e+00 
0.0000000e+00 1.8215587e-02 0.0000000e+00 
0.0000000e+00 1.4739257e-01 0.0000000e+00 
0.0000000e+00 3.6618892e-02 0.0000000e+00 
0.0000000e+00 3.6375374e-02 0.0000000e+00 
1.6976058e-01 -9.0208828e-01 0.0000000e+00 
5.7347789e-02 -1.2425113e+00 3.3138460e-03 
7.9883590e-02 -1.0239034e+00 0.0000000e+00 
6.0544600e-05 2.8810027e-04 0.0000000e+00 
-2.9676501e-04 -4.1295275e-06 0.0000000e+00 
-4.8448870e-04 -2.6034634e-04 0.0000000e+00 
-5.1355688e-04 -5.4181705e-04 0.0000000e+00 
-2.5410755e-04 -6.1398157e-04 0.0000000e+00 
-3.6424675e-04 -4.2221596e-04 0.0000000e+00 
-5.5719743e-04 1.1879543e-03 0.0000000e+00 
2.5063651e-03 -4.0385178e-03 0.0000000e+00 
1.1896782e-02 -8.1477861e-04 0.0000000e+00 
1.0347436e-02 -1.4590828e-02 0.0000000e+00 
-1.2274589e-02 1.4496209e-02 0.0000000e+00 
-1.6686058e-02 9.8937470e-03 0.0000000e+00 
-4.4784718e-03 6.3706316e-02 0.0000000e+00 
4.7230568e-02 5.3647913e-02 0.0000000e+00 
1.8277788e-01 7.1697948e-03 0.0000000e+00 
-3.8212574e-01 1.6685097e-01 0.0000000e+00 
-1.0847174e+00 -6.7534906e-01 0.0000000e+00 
-4.9995336e-01 -1.6920606e+00 0.0000000e+00 
-4.5589011e-05 2.0703493e-04 0.0000000e+00 
1.0515199e-04 -1.3928485e-04 0.0000000e+00 
1.6472144e-04 1.3845824e-04 0.0000000e+00 
7.2056232e-06 3.7584998e-04 0.0000000e+00 
-8.4551779e-04 5.3277682e-04 0.0000000e+00 
-4.4123203e-04 3.3326767e-04 0.0000000e+00 
-9.8934059e-04 -5.2493525e-04 0.0000000e+00 
-1.9138304e-03 2.0817937e-03 0.0000000e+00 
1.3247029e-03 1.4798152e-03 0.0000000e+00 
-7.5882860e-03 4.5679719e-03 0.0000000e+00 
-8.4542325e-03 -3.2823479e-03 0.0000000e+00 
3.4898818e-02 -7.2886422e-03 0.0000000e+00 
3.7099041e-02 2.5726860e-02 0.0000000e+00 
-1.4087412e-02 -7.1383461e-02 0.0000000e+00 
8.7915659e-02 -1.8304722e-02 0.0000000e+00 
1.6087851e-01 1.9554231e-01 0.0000000e+00 
-8.6042643e-01 -7.0149466e-02 0.0000000e+00 
-9.3318182e-01 -1.5895160e+00 0.0000000e+00 
1.1189119e-01 -1.5944937e+00 0.0000000e+00 
-4.5786940e-02 4.1562866e-02 0.0000000e+00 
2.6432145e-02 -6.4280485e-03 0.0000000e+00 
1.0993783e-02 -1.9464098e-02 0.0000000e+00 
1.0736169e-03 -1.6709136e-02 0.0000000e+00 
1.6780555e-01 -7.4106336e-02 0.0000000e+00 
3.9623540e-02 -7.9338979e-03 0.0000000e+00 
3.8099379e-04 6.7512624e-02 0.0000000e+00 
2.2368914e-02 1.8469775e-02 0.0000000e+00 
-1.8132040e-03 1.6858399e-02 0.0000000e+00 
7.5351596e-03 1.2482562e-03 0.0000000e+00 
1.2296957e-03 2.4483486e-03 0.0000000e+00 
1.0475429e-03 1.4008590e-04 0.0000000e+00 
4.1848025e-04 -1.0367370e-03 0.0000000e+00 
4.5892918e-03 4.8127803e-03 0.0000000e+00 
-4.5953761e-03 8.1370393e-04 0.0000000e+00 
2.1692403e-03 -2.1451244e-03 0.0000000e+00 
-1.4296594e-03 -1.2139558e-03 0.0000000e+00 
-8.4714143e-04 2.2854279e-04 0.0000000e+00 
-6.6738714e-05 2.6362337e-04 0.0000000e+00 
-1.2804591e-04 4.5746994e-05 0.0000000e+00 
-2.2178507e-05 3.4337223e-04 0.0000000e+00 
-1.6015430e-04 -4.3119767e-04 0.0000000e+00 
-3.7224108e-05 7.6919059e-05 0.0000000e+00 
4.0830204e-05 6.1006856e-05 0.0000000e+00 
-6.7340507e-04 1.9234444e-04 0.0000000e+00 
-5.2600546e-04 -4.7723352e-04 0.0000000e+00 
-1.5141923e-04 7.8659781e-05 0.0000000e+00 
-3.8337767e-01 -1.0497954e-01 0.0000000e+00 
-9.0800214e-01 -7.7027673e-01 0.0000000e+00 
-6.1063063e-01 -1.7842779e+00 0.0000000e+00 
7.6348400e-03 2.1901278e-01 0.0000000e+00 
-7.8244889e-01 -5.2959837e-02 0.0000000e+00 
-9.1739255e-01 -1.5271089e+00 0.0000000e+00 
-1.9570099e-01 -1.5566260e+00 0.0000000e+00 
-8.2074245e-03 -2.5017972e-03 0.0000000e+00 
3.8941679e-04 -2.8124225e-04 0.0000000e+00 
9.8400436e-02 -8.4581971e-02 0.0000000e+00 
-1.8667573e-03 -6.8840119e-03 0.0000000e+00 
-9.7524066e-04 5.6889869e-05 0.0000000e+00 
-1.8804659e-04 9.2524214e-04 0.0000000e+00 
1.8454425e-01 -7.0688224e-01 0.0000000e+00 
1.7087966e-04 -1.5884073e-04 0.0000000e+00 
2.2471584e-02 1.8934613e-02 0.0000000e+00 
4.2579159e-02 -2.1470731e-02 0.0000000e+00 
1.2694519e-03 1.9038561e-03 0.0000000e+00 
-4.3995540e-05 4.2008178e-05 0.0000000e+00 
-1.7407393e-01 -4.5569547e-02 0.0000000e+00 
3.1994169e-03 -3.9503514e-03 0.0000000e+00 
2.3004834e-05 1.1523978e-04 0.0000000e+00 
2.7385324e-01 -1.3680544e+00 0.0000000e+00 
-2.8655428e-05 9.5160685e-05 0.0000000e+00 
1.0672969e-02 -4.8330553e-02 0.0000000e+00 
8.9199253e-05 -2.3970811e-04 0.0000000e+00 
-5.4065026e-02 1.9085537e-01 0.0000000e+00 
-2.3634905e-01 -1.2906229e+00 0.0000000e+00 
-1.5329920e-04 1.6036669e-04 0.0000000e+00 
-5.7151254e-05 7.4590884e-05 0.0000000e+00 
1.2769535e-01 4.4734666e-01 0.0000000e+00 
1.8612145e-01 -1.7236982e-01 0.0000000e+00 
-1.0692828e-02 2.4836989e-02 0.0000000e+00 
1.4439967e-02 3.8725939e-03 0.0000000e+00 
1.3086135e-03 3.1565244e-03 0.0000000e+00 
6.9930049e-04 4.9645636e-02 0.0000000e+00 
9.3275411e-03 6.7236967e-02 0.0000000e+00 
-3.3539370e-02 -7.3605597e-02 0.0000000e+00 
1.1244242e-02 -1.1208145e-01 0.0000000e+00 
7.8665726e-02 7.2090238e-02 0.0000000e+00 
2.4357220e-02 6.0755452e-03 0.0000000e+00 
7.7287748e-02 1.1550602e-02 0.0000000e+00 
3.5601017e-01 -2.9217440e-01 0.0000000e+00 
5.5357821e-02 5.2200467e-03 0.0000000e+00 
-3.3663094e-02 5.1665334e-03 0.0000000e+00 
-2.5478808e-02 -1.8863032e-02 0.0000000e+00 
-3.2846835e-02 5.8192089e-02 0.0000000e+00 
4.7589708e-03 -1.6351171e-02 0.0000000e+00 
5.1848567e-03 -2.0513218e-03 0.0000000e+00 
6.3000256e-03 -8.4737787e-04 0.0000000e+00 
2.7427201e-03 -4.2880629e-03 0.0000000e+00 
7.3066750e-03 2.4555812e-02 0.0000000e+00 
1.0106670e-02 4.9846084e-03 0.0000000e+00 
9.9596579e-04 -1.8435146e-03 0.0000000e+00 
-1.9005920e-03 -1.5992798e-03 0.0000000e+00 
-3.6585429e-03 -6.0616913e-03 0.0000000e+00 
-2.5270127e-03 -1.3732626e-03 0.0000000e+00 
-2.1929047e-03 -3.1678617e-04 0.0000000e+00 
6.2561908e-04 8.9451968e-04 0.0000000e+00 
-3.5737484e-04 1.8682596e-03 0.0000000e+00 
5.1638641e-04 3.3835336e-04 0.0000000e+00 
3.2214823e-04 1.1118978e-03 0.0000000e+00 
-1.8623599e-04 4.4665008e-04 0.0000000e+00 
5.3714080e-05 1.3923466e-04 0.0000000e+00 
1.9371638e-03 -1.5178425e-03 0.0000000e+00 
1.4528407e-03 3.8390227e-03 0.0000000e+00 
-1.4558219e-04 -1.1740781e-04 0.0000000e+00 
-4.3115669e-04 -2.8639034e-04 0.0000000e+00 
1.2605225e-03 -9.9964358e-04 0.0000000e+00 
-5.6453864e-04 -1.5176917e-04 0.0000000e+00 
4.8603889e-02 -6.0750842e-02 0.0000000e+00 
4.7778753e-03 1.6460530e-02 0.0000000e+00 
-2.8006241e-04 -2.4417017e-04 0.0000000e+00 
-1.1023050e-04 -1.6327581e-04 0.0000000e+00 
3.2404144e-04 3.8644061e-03 0.0000000e+00 
1.7614582e-03 3.0883674e-03 0.0000000e+00 
-1.1892328e-01 -1.6632056e-02 0.0000000e+00 
2.0906206e-03 -5.6523397e-03 0.0000000e+00 
-5.7813787e-04 -3.8914671e-04 0.0000000e+00 
-6.2513689e-04 4.1742009e-05 0.0000000e+00 
-9.3981223e-05 -4.5968022e-04 0.0000000e+00 
-4.5697875e-02 1.8832671e-02 0.0000000e+00 
8.7692738e-03 5.4491521e-03 0.0000000e+00 
2.0843257e-01 -2.8620479e-01 0.0000000e+00 
7.2661566e-04 -4.9903160e-03 0.0000000e+00 
1.2931332e-04 -7.0118031e-04 0.0000000e+00 
-3.8179720e-04 -2.3327870e-05 0.0000000e+00 
3.7827209e-01 -1.0062228e+00 0.0000000e+00 
8.3328646e-01 -6.4040744e-01 0.0000000e+00 
2.5239615e-02 2.0104559e-02 0.0000000e+00 
-4.5430120e-02 -5.1652636e-02 0.0000000e+00 
3.9938232e-04 -5.6338892e-04 0.0000000e+00 
-3.1809989e-04 -1.2980301e-04 0.0000000e+00 
1.3386249e-04 -2.7354708e-04 0.0000000e+00 
3.0633037e-05 1.3782411e-04 0.0000000e+00 
-1.2835233e-04 -1.5345577e-04 0.0000000e+00 
-8.2813008e-03 1.6119072e-02 0.0000000e+00 
-4.2507541e-03 2.2128986e-02 0.0000000e+00 
4.0625907e-02 4.1885022e-02 0.0000000e+00 
8.4837638e-02 -2.4275998e-02 0.0000000e+00 
9.1905921e-04 -3.5990856e-04 0.0000000e+00 
8.2905874e-02 -3.2645617e-02 0.0000000e+00 
1.1490931e-02 8.5890787e-03 0.0000000e+00 
1.7005074e-04 -2.0737956e-04 0.0000000e+00 
2.3025123e-04 -1.1046807e-04 0.0000000e+00 
2.3521750e-01 -3.1410342e-01 0.0000000e+00 
1.0198694e+00 -7.7644795e-01 0.0000000e+00 
6.0999197e-01 -7.0684123e-01 0.0000000e+00 
-2.5565416e-01 -1.3555019e+00 0.0000000e+00 
-2.9226407e-01 -1.7041918e+00 0.0000000e+00 
3.8294473e-01 -1.2071255e+00 0.0000000e+00 
7.8713259e-05 -1.4763957e-04 0.0000000e+00 
2.3453402e-04 -4.8905134e-04 0.0000000e+00 
7.8055070e-04 6.3389039e-04 0.0000000e+00 
-4.6347786e-04 6.5502146e-04 0.0000000e+00 
-5.6384265e-04 -1.0771157e-03 0.0000000e+00 
-1.1423925e-03 -1.2560937e-03 0.0000000e+00 
-3.5547297e-03 -1.3612123e-02 0.0000000e+00 
8.5373089e-04 -1.0547457e-02 0.0000000e+00 
-1.1283156e-04 -3.8579696e-05 0.0000000e+00 
-3.6500327e-04 1.0097107e-04 0.0000000e+00 
-1.6029012e-04 -2.8377408e-04 0.0000000e+00 
1.2350130e-04 -3.3711309e-05 0.0000000e+00 
-1.1006322e-04 4.5441720e-05 0.0000000e+00 
5.3078283e-02 4.2905152e-02 0.0000000e+00 
-3.3981344e-04 -2.8939610e-05 0.0000000e+00 
-4.4667904e-04 -1.0880546e-04 0.0000000e+00 
2.2271147e-02 -1.0429396e-02 0.0000000e+00 
7.4744545e-04 -8.2866789e-04 0.0000000e+00 
1.9337395e-03 5.4344013e-03 0.0000000e+00 
1.4264733e-04 -4.3919505e-04 0.0000000e+00 
9.2940487e-04 1.4036228e-03 0.0000000e+00 
2.3162102e-02 6.9004893e-03 0.0000000e+00 
-1.0966385e-03 7.0098531e-03 0.0000000e+00 
7.7716942e-04 -2.2066597e-04 0.0000000e+00 
3.3699337e-02 -2.7284965e-02 0.0000000e+00 
-6.6599301e-03 -1.5746651e-02 0.0000000e+00 
-1.3855023e-02 1.1249332e-02 0.0000000e+00 
-8.2115259e-04 -2.7903346e-03 0.0000000e+00 
-3.3952238e-03 -9.0205931e-04 0.0000000e+00 
-1.0882422e-04 -8.5173466e-04 0.0000000e+00 
-6.9063553e-04 9.3302988e-05 0.0000000e+00 
-1.7702233e-03 -8.2290480e-03 0.0000000e+00 
5.4129930e-03 -4.7076419e-03 0.0000000e+00 
1.7788251e-03 7.2681485e-04 0.0000000e+00 
5.7994123e-03 -3.2519766e-03 0.0000000e+00 
-1.9330024e-03 4.8508379e-03 0.0000000e+00 
-1.3259223e-03 3.6431535e-03 0.0000000e+00 
6.0022185e-06 1.1649895e-02 0.0000000e+00 
-4.0416868e-05 3.9994702e-04 0.0000000e+00 
-4.9201237e-05 4.9200553e-05 0.0000000e+00 
-3.7252493e-03 -1.9849066e-03 0.0000000e+00 
-1.7389981e-02 -2.4536921e-02 0.0000000e+00 
4.4445641e-02 2.2458943e-02 0.0000000e+00 
-1.9869942e-03 -1.4091698e-03 0.0000000e+00 
-3.1306208e-05 2.1767433e-04 0.0000000e+00 
-1.0510433e-03 8.2729413e-04 0.0000000e+00 
-6.8883807e-04 1.7007331e-03 0.0000000e+00 
1.5574101e-03 -4.2086514e-04 0.0000000e+00 
6.7327596e-04 -7.0183340e-04 0.0000000e+00 
1.2363938e-03 1.3578823e-03 0.0000000e+00 
3.1066882e-06 -9.7223878e-05 0.0000000e+00 
6.2404729e-02 -5.5599846e-02 0.0000000e+00 
-1.7993717e-02 3.3549115e-02 0.0000000e+00 
-4.7918841e-02 5.4518588e-02 0.0000000e+00 
7.0208007e-05 -1.4221651e-04 0.0000000e+00 
3.4303782e-03 4.1125715e-03 0.0000000e+00 
-4.8105572e-03 5.0867908e-03 0.0000000e+00 
-4.9186763e-03 7.0688627e-03 0.0000000e+00 
-1.4177223e-03 -1.8350381e-03 0.0000000e+00 
-1.0111880e-02 -1.0114778e-02 0.0000000e+00 
4.1129872e-02 -4.1654787e-04 0.0000000e+00 
5.3939093e-03 -6.6210181e-03 0.0000000e+00 
1.7674610e-02 2.1584539e-02 0.0000000e+00 
4.9190184e-01 1.1832850e-01 0.0000000e+00 
-2.5910396e-02 -6.0362771e-02 0.0000000e+00 
4.4022471e-01 -4.1677099e-01 0.0000000e+00 
2.5145928e-03 1.8319744e-04 0.0000000e+00 
5.0508208e-04 9.1068237e-04 0.0000000e+00 
1.1335703e-02 3.7648231e-02 0.0000000e+00 
-1.3542558e-04 1.6924454e-04 0.0000000e+00 
3.9643105e-02 -3.8827464e-01 0.0000000e+00 
7.7126789e-01 -6.0666483e-02 0.0000000e+00 
-4.3538651e-01 -1.3438392e+00 0.0000000e+00 
-3.0992925e-01 -1.5071936e+00 0.0000000e+00 
-8.8168904e-02 -9.8139070e-02 0.0000000e+00 
9.9122546e-05 -2.3215893e-04 0.0000000e+00 
-3.3810514e-04 2.7435835e-05 0.0000000e+00 
2.1454266e-04 -4.3978845e-05 0.0000000e+00 
4.9449936e-02 -9.3394205e-02 0.0000000e+00 
-2.0837064e-01 1.8952285e-01 0.0000000e+00 
-1.4796539e-05 -1.2444523e-04 0.0000000e+00 
-5.1625515e-03 -4.3513966e-03 0.0000000e+00 
-2.0661219e-03 -1.0109501e-02 0.0000000e+00 
4.5604776e-03 -6.4974893e-03 0.0000000e+00 
-3.1392120e-03 -6.2634302e-03 0.0000000e+00 
4.8906344e-04 -1.7828847e-03 0.0000000e+00 
7.2694424e-04 -2.0354727e-04 0.0000000e+00 
-1.4618594e-04 -2.7429187e-05 0.0000000e+00 
-1.5901627e-01 -1.6339815e+00 0.0000000e+00 
-8.3064530e-03 6.5101989e-02 0.0000000e+00 
-1.1152460e-02 -2.8648524e-02 0.0000000e+00 
4.8021358e-03 -1.8144745e-02 0.0000000e+00 
4.4072298e-03 5.9555755e-03 0.0000000e+00 
-1.9831154e-04 6.7708327e-04 0.0000000e+00 
5.8257388e-04 -1.3618114e-03 0.0000000e+00 
1.0479344e-04 3.7860402e-04 0.0000000e+00 
2.6240572e-04 1.5122487e-04 0.0000000e+00 
-1.2400572e-04 9.5400501e-05 0.0000000e+00 
1.6132685e-03 2.9998854e-02 0.0000000e+00 
-2.0313254e-03 2.0480908e-03 0.0000000e+00 
-1.1506769e-02 4.7617620e-03 0.0000000e+00 
2.3189718e-01 -1.5334377e+00 0.0000000e+00 
1.5455051e-05 6.7687412e-05 0.0000000e+00 
1.9404320e-05 -3.8930693e-06 0.0000000e+00 
-8.4397152e-02 -1.0469844e+00 0.0000000e+00 
-2.1893529e-02 -2.9677406e-02 0.0000000e+00 