# vtk DataFile Version 4.0
vtk output
ASCII
DATASET UNSTRUCTURED_GRID
POINTS 3487 float
0.0000000e+00 0.0000000e+00 0.0000000e+00 
2.0000000e+01 0.0000000e+00 0.0000000e+00 
2.0000000e+01 1.0000000e+01 0.0000000e+00 
0.0000000e+00 1.0000000e+01 0.0000000e+00 
0.0000000e+00 0.0000000e+00 1.0000000e+00 
2.0000000e+01 0.0000000e+00 1.0000000e+00 
2.0000000e+01 1.0000000e+01 1.0000000e+00 
0.0000000e+00 1.0000000e+01 1.0000000e+00 
1.0000000e+00 1.0000000e+01 0.0000000e+00 
1.0000000e+00 1.0000000e+01 1.0000000e+00 
5.0000000e+00 1.0000000e+01 0.0000000e+00 
1.0000000e+01 1.0000000e+01 0.0000000e+00 
1.5000000e+01 1.0000000e+01 0.0000000e+00 
1.0000000e+00 0.0000000e+00 0.0000000e+00 
2.0000000e+00 0.0000000e+00 0.0000000e+00 
3.0000000e+00 0.0000000e+00 0.0000000e+00 
4.0000000e+00 0.0000000e+00 0.0000000e+00 
5.0000000e+00 0.0000000e+00 0.0000000e+00 
6.0000000e+00 0.0000000e+00 0.0000000e+00 
7.0000000e+00 0.0000000e+00 0.0000000e+00 
8.0000000e+00 0.0000000e+00 0.0000000e+00 
9.0000000e+00 0.0000000e+00 0.0000000e+00 
1.0000000e+01 0.0000000e+00 0.0000000e+00 
1.1000000e+01 0.0000000e+00 0.0000000e+00 
1.2000000e+01 0.0000000e+00 0.0000000e+00 
1.3000000e+01 0.0000000e+00 0.0000000e+00 
1.4000000e+01 0.0000000e+00 0.0000000e+00 
1.5000000e+01 0.0000000e+00 0.0000000e+00 
1.6000000e+01 0.0000000e+00 0.0000000e+00 
1.7000000e+01 0.0000000e+00 0.0000000e+00 
1.8000000e+01 0.0000000e+00 0.0000000e+00 
1.9000000e+01 0.0000000e+00 0.0000000e+00 
5.0000000e-01 0.0000000e+00 0.0000000e+00 
1.5000000e+00 0.0000000e+00 0.0000000e+00 
2.5000000e+00 0.0000000e+00 0.0000000e+00 
3.5000000e+00 0.0000000e+00 0.0000000e+00 
4.5000000e+00 0.0000000e+00 0.0000000e+00 
5.5000000e+00 0.0000000e+00 0.0000000e+00 
6.5000000e+00 0.0000000e+00 0.0000000e+00 
7.5000000e+00 0.0000000e+00 0.0000000e+00 
8.5000000e+00 0.0000000e+00 0.0000000e+00 
9.5000000e+00 0.0000000e+00 0.0000000e+00 
1.0500000e+01 0.0000000e+00 0.0000000e+00 
1.1500000e+01 0.0000000e+00 0.0000000e+00 
1.2500000e+01 0.0000000e+00 0.0000000e+00 
1.3500000e+01 0.0000000e+00 0.0000000e+00 
1.4500000e+01 0.0000000e+00 0.0000000e+00 
1.5500000e+01 0.0000000e+00 0.0000000e+00 
1.6500000e+01 0.0000000e+00 0.0000000e+00 
1.7500000e+01 0.0000000e+00 0.0000000e+00 
1.8500000e+01 0.0000000e+00 0.0000000e+00 
1.9500000e+01 0.0000000e+00 0.0000000e+00 
2.0000000e+01 1.0000000e+00 0.0000000e+00 
2.0000000e+01 2.0000000e+00 0.0000000e+00 
2.0000000e+01 3.0000000e+00 0.0000000e+00 
2.0000000e+01 4.0000000e+00 0.0000000e+00 
2.0000000e+01 5.0000000e+00 0.0000000e+00 
2.0000000e+01 6.0000000e+00 0.0000000e+00 
2.0000000e+01 7.0000000e+00 0.0000000e+00 
2.0000000e+01 8.0000000e+00 0.0000000e+00 
2.0000000e+01 9.0000000e+00 0.0000000e+00 
2.0000000e+01 5.0000000e-01 0.0000000e+00 
2.0000000e+01 1.5000000e+00 0.0000000e+00 
2.0000000e+01 2.5000000e+00 0.0000000e+00 
2.0000000e+01 3.5000000e+00 0.0000000e+00 
2.0000000e+01 4.5000000e+00 0.0000000e+00 
2.0000000e+01 5.5000000e+00 0.0000000e+00 
2.0000000e+01 6.5000000e+00 0.0000000e+00 
2.0000000e+01 7.5000000e+00 0.0000000e+00 
2.0000000e+01 8.5000000e+00 0.0000000e+00 
2.0000000e+01 9.5000000e+00 0.0000000e+00 
0.0000000e+00 9.0000000e+00 0.0000000e+00 
0.0000000e+00 8.0000000e+00 0.0000000e+00 
0.0000000e+00 7.0000000e+00 0.0000000e+00 
0.0000000e+00 6.0000000e+00 0.0000000e+00 
0.0000000e+00 5.0000000e+00 0.0000000e+00 
0.0000000e+00 4.0000000e+00 0.0000000e+00 
0.0000000e+00 3.0000000e+00 0.0000000e+00 
0.0000000e+00 2.0000000e+00 0.0000000e+00 
0.0000000e+00 1.0000000e+00 0.0000000e+00 
0.0000000e+00 9.5000000e+00 0.0000000e+00 
0.0000000e+00 8.5000000e+00 0.0000000e+00 
0.0000000e+00 7.5000000e+00 0.0000000e+00 
0.0000000e+00 6.5000000e+00 0.0000000e+00 
0.0000000e+00 5.5000000e+00 0.0000000e+00 
0.0000000e+00 4.5000000e+00 0.0000000e+00 
0.0000000e+00 3.5000000e+00 0.0000000e+00 
0.0000000e+00 2.5000000e+00 0.0000000e+00 
0.0000000e+00 1.5000000e+00 0.0000000e+00 
0.0000000e+00 5.0000000e-01 0.0000000e+00 
0.0000000e+00 0.0000000e+00 5.0000000e-01 
2.0000000e+01 0.0000000e+00 5.0000000e-01 
1.0000000e+00 0.0000000e+00 1.0000000e+00 
2.0000000e+00 0.0000000e+00 1.0000000e+00 
3.0000000e+00 0.0000000e+00 1.0000000e+00 
4.0000000e+00 0.0000000e+00 1.0000000e+00 
5.0000000e+00 0.0000000e+00 1.0000000e+00 
6.0000000e+00 0.0000000e+00 1.0000000e+00 
7.0000000e+00 0.0000000e+00 1.0000000e+00 
8.0000000e+00 0.0000000e+00 1.0000000e+00 
9.0000000e+00 0.0000000e+00 1.0000000e+00 
1.0000000e+01 0.0000000e+00 1.0000000e+00 
1.1000000e+01 0.0000000e+00 1.0000000e+00 
1.2000000e+01 0.0000000e+00 1.0000000e+00 
1.3000000e+01 0.0000000e+00 1.0000000e+00 
1.4000000e+01 0.0000000e+00 1.0000000e+00 
1.5000000e+01 0.0000000e+00 1.0000000e+00 
1.6000000e+01 0.0000000e+00 1.0000000e+00 
1.7000000e+01 0.0000000e+00 1.0000000e+00 
1.8000000e+01 0.0000000e+00 1.0000000e+00 
1.9000000e+01 0.0000000e+00 1.0000000e+00 
5.0000000e-01 0.0000000e+00 1.0000000e+00 
1.5000000e+00 0.0000000e+00 1.0000000e+00 
2.5000000e+00 0.0000000e+00 1.0000000e+00 
3.5000000e+00 0.0000000e+00 1.0000000e+00 
4.5000000e+00 0.0000000e+00 1.0000000e+00 
5.5000000e+00 0.0000000e+00 1.0000000e+00 
6.5000000e+00 0.0000000e+00 1.0000000e+00 
7.5000000e+00 0.0000000e+00 1.0000000e+00 
8.5000000e+00 0.0000000e+00 1.0000000e+00 
9.5000000e+00 0.0000000e+00 1.0000000e+00 
1.0500000e+01 0.0000000e+00 1.0000000e+00 
1.1500000e+01 0.0000000e+00 1.0000000e+00 
1.2500000e+01 0.0000000e+00 1.0000000e+00 
1.3500000e+01 0.0000000e+00 1.0000000e+00 
1.4500000e+01 0.0000000e+00 1.0000000e+00 
1.5500000e+01 0.0000000e+00 1.0000000e+00 
1.6500000e+01 0.0000000e+00 1.0000000e+00 
1.7500000e+01 0.0000000e+00 1.0000000e+00 
1.8500000e+01 0.0000000e+00 1.0000000e+00 
1.9500000e+01 0.0000000e+00 1.0000000e+00 
2.0000000e+01 1.0000000e+01 5.0000000e-01 
2.0000000e+01 1.0000000e+00 1.0000000e+00 
2.0000000e+01 2.0000000e+00 1.0000000e+00 
2.0000000e+01 3.0000000e+00 1.0000000e+00 
2.0000000e+01 4.0000000e+00 1.0000000e+00 
2.0000000e+01 5.0000000e+00 1.0000000e+00 
2.0000000e+01 6.0000000e+00 1.0000000e+00 
2.0000000e+01 7.0000000e+00 1.0000000e+00 
2.0000000e+01 8.0000000e+00 1.0000000e+00 
2.0000000e+01 9.0000000e+00 1.0000000e+00 
2.0000000e+01 5.0000000e-01 1.0000000e+00 
2.0000000e+01 1.5000000e+00 1.0000000e+00 
2.0000000e+01 2.5000000e+00 1.0000000e+00 
2.0000000e+01 3.5000000e+00 1.0000000e+00 
2.0000000e+01 4.5000000e+00 1.0000000e+00 
2.0000000e+01 5.5000000e+00 1.0000000e+00 
2.0000000e+01 6.5000000e+00 1.0000000e+00 
2.0000000e+01 7.5000000e+00 1.0000000e+00 
2.0000000e+01 8.5000000e+00 1.0000000e+00 
2.0000000e+01 9.5000000e+00 1.0000000e+00 
0.0000000e+00 1.0000000e+01 5.0000000e-01 
0.0000000e+00 9.0000000e+00 1.0000000e+00 
0.0000000e+00 8.0000000e+00 1.0000000e+00 
0.0000000e+00 7.0000000e+00 1.0000000e+00 
0.0000000e+00 6.0000000e+00 1.0000000e+00 
0.0000000e+00 5.0000000e+00 1.0000000e+00 
0.0000000e+00 4.0000000e+00 1.0000000e+00 
0.0000000e+00 3.0000000e+00 1.0000000e+00 
0.0000000e+00 2.0000000e+00 1.0000000e+00 
0.0000000e+00 1.0000000e+00 1.0000000e+00 
0.0000000e+00 9.5000000e+00 1.0000000e+00 
0.0000000e+00 8.5000000e+00 1.0000000e+00 
0.0000000e+00 7.5000000e+00 1.0000000e+00 
0.0000000e+00 6.5000000e+00 1.0000000e+00 
0.0000000e+00 5.5000000e+00 1.0000000e+00 
0.0000000e+00 4.5000000e+00 1.0000000e+00 
0.0000000e+00 3.5000000e+00 1.0000000e+00 
0.0000000e+00 2.5000000e+00 1.0000000e+00 
0.0000000e+00 1.5000000e+00 1.0000000e+00 
0.0000000e+00 5.0000000e-01 1.0000000e+00 
5.0000000e-01 1.0000000e+01 0.0000000e+00 
1.0000000e+00 1.0000000e+01 5.0000000e-01 
5.0000000e-01 1.0000000e+01 1.0000000e+00 
1.9000000e+01 1.0000000e+01 1.0000000e+00 
1.8000000e+01 1.0000000e+01 1.0000000e+00 
1.7000000e+01 1.0000000e+01 1.0000000e+00 
1.6000000e+01 1.0000000e+01 1.0000000e+00 
1.5000000e+01 1.0000000e+01 1.0000000e+00 
1.4000000e+01 1.0000000e+01 1.0000000e+00 
1.3000000e+01 1.0000000e+01 1.0000000e+00 
1.2000000e+01 1.0000000e+01 1.0000000e+00 
1.1000000e+01 1.0000000e+01 1.0000000e+00 
1.0000000e+01 1.0000000e+01 1.0000000e+00 
9.0000000e+00 1.0000000e+01 1.0000000e+00 
8.0000000e+00 1.0000000e+01 1.0000000e+00 
7.0000000e+00 1.0000000e+01 1.0000000e+00 
6.0000000e+00 1.0000000e+01 1.0000000e+00 
5.0000000e+00 1.0000000e+01 1.0000000e+00 
4.0000000e+00 1.0000000e+01 1.0000000e+00 
3.0000000e+00 1.0000000e+01 1.0000000e+00 
2.0000000e+00 1.0000000e+01 1.0000000e+00 
1.9500000e+01 1.0000000e+01 1.0000000e+00 
1.8500000e+01 1.0000000e+01 1.0000000e+00 
1.7500000e+01 1.0000000e+01 1.0000000e+00 
1.6500000e+01 1.0000000e+01 1.0000000e+00 
1.5500000e+01 1.0000000e+01 1.0000000e+00 
1.4500000e+01 1.0000000e+01 1.0000000e+00 
1.3500000e+01 1.0000000e+01 1.0000000e+00 
1.2500000e+01 1.0000000e+01 1.0000000e+00 
1.1500000e+01 1.0000000e+01 1.0000000e+00 
1.0500000e+01 1.0000000e+01 1.0000000e+00 
9.5000000e+00 1.0000000e+01 1.0000000e+00 
8.5000000e+00 1.0000000e+01 1.0000000e+00 
7.5000000e+00 1.0000000e+01 1.0000000e+00 
6.5000000e+00 1.0000000e+01 1.0000000e+00 
5.5000000e+00 1.0000000e+01 1.0000000e+00 
4.5000000e+00 1.0000000e+01 1.0000000e+00 
3.5000000e+00 1.0000000e+01 1.0000000e+00 
2.5000000e+00 1.0000000e+01 1.0000000e+00 
1.5000000e+00 1.0000000e+01 1.0000000e+00 
6.0000000e+00 1.0000000e+01 0.0000000e+00 
7.0000000e+00 1.0000000e+01 0.0000000e+00 
8.0000000e+00 1.0000000e+01 0.0000000e+00 
9.0000000e+00 1.0000000e+01 0.0000000e+00 
5.5000000e+00 1.0000000e+01 0.0000000e+00 
6.5000000e+00 1.0000000e+01 0.0000000e+00 
7.5000000e+00 1.0000000e+01 0.0000000e+00 
8.5000000e+00 1.0000000e+01 0.0000000e+00 
9.5000000e+00 1.0000000e+01 0.0000000e+00 
1.1000000e+01 1.0000000e+01 0.0000000e+00 
1.2000000e+01 1.0000000e+01 0.0000000e+00 
1.3000000e+01 1.0000000e+01 0.0000000e+00 
1.4000000e+01 1.0000000e+01 0.0000000e+00 
1.0500000e+01 1.0000000e+01 0.0000000e+00 
1.1500000e+01 1.0000000e+01 0.0000000e+00 
1.2500000e+01 1.0000000e+01 0.0000000e+00 
1.3500000e+01 1.0000000e+01 0.0000000e+00 
1.4500000e+01 1.0000000e+01 0.0000000e+00 
1.9000000e+01 1.0000000e+01 0.0000000e+00 
[...]
POINT_DATA 3487
FIELD FieldData 1
VELOCITY 3 3487  float
0.0000000e+00 0.0000000e+00 0.0000000e+00 
0.0000000e+00 0.0000000e+00 0.0000000e+00 
0.0000000e+00 -7.1090944e-03 0.0000000e+00 
0.0000000e+00 -1.8886490e+00 0.0000000e+00 
0.0000000e+00 0.0000000e+00 0.0000000e+00 
0.0000000e+00 0.0000000e+00 0.0000000e+00 
0.0000000e+00 -6.0561164e-03 0.0000000e+00 
0.0000000e+00 -2.3344767e+00 0.0000000e+00 
-1.2202713e+00 -2.1623895e+00 0.0000000e+00 
-1.0226250e+00 -1.9769840e+00 0.0000000e+00 
-2.9390508e-02 -3.6038611e-02 0.0000000e+00 
8.6410844e-04 -2.3950564e-03 0.0000000e+00 
2.6549253e-04 1.5438199e-03 0.0000000e+00 
0.0000000e+00 0.0000000e+00 0.0000000e+00 
0.0000000e+00 0.0000000e+00 0.0000000e+00 
0.0000000e+00 0.0000000e+00 0.0000000e+00 
0.0000000e+00 0.0000000e+00 0.0000000e+00 
0.0000000e+00 0.0000000e+00 0.0000000e+00 
0.0000000e+00 0.0000000e+00 0.0000000e+00 
0.0000000e+00 0.0000000e+00 0.0000000e+00 
0.0000000e+00 0.0000000e+00 0.0000000e+00 
0.0000000e+00 0.0000000e+00 0.0000000e+00 
0.0000000e+00 0.0000000e+00 0.0000000e+00 
0.0000000e+00 0.0000000e+00 0.0000000e+00 
0.0000000e+00 0.0000000e+00 0.0000000e+00 
0.0000000e+00 0.0000000e+00 0.0000000e+00 
0.0000000e+00 0.0000000e+00 0.0000000e+00 
0.0000000e+00 0.0000000e+00 0.0000000e+00 
0.0000000e+00 0.0000000e+00 0.0000000e+00 
0.0000000e+00 0.0000000e+00 0.0000000e+00 
0.0000000e+00 0.0000000e+00 0.0000000e+00 
0.0000000e+00 0.0000000e+00 0.0000000e+00 
0.0000000e+00 0.0000000e+00 0.0000000e+00 
0.0000000e+00 0.0000000e+00 0.0000000e+00 
0.0000000e+00 0.0000000e+00 0.0000000e+00 
0.0000000e+00 0.0000000e+00 0.0000000e+00 
0.0000000e+00 0.0000000e+00 0.0000000e+00 
0.0000000e+00 0.0000000e+00 0.0000000e+00 
0.0000000e+00 0.0000000e+00 0.0000000e+00 
0.0000000e+00 0.0000000e+00 0.0000000e+00 
0.0000000e+00 0.0000000e+00 0.0000000e+00 
0.0000000e+00 0.0000000e+00 0.0000000e+00 
0.0000000e+00 0.0000000e+00 0.0000000e+00 
0.0000000e+00 0.0000000e+00 0.0000000e+00 
0.0000000e+00 0.0000000e+00 0.0000000e+00 
0.0000000e+00 0.0000000e+00 0.0000000e+00 
0.0000000e+00 0.0000000e+00 0.0000000e+00 
0.0000000e+00 0.0000000e+00 0.0000000e+00 
0.0000000e+00 0.0000000e+00 0.0000000e+00 
0.0000000e+00 0.0000000e+00 0.0000000e+00 
0.0000000e+00 0.0000000e+00 0.0000000e+00 
0.0000000e+00 0.0000000e+00 0.0000000e+00 
0.0000000e+00 -1.8907072e-04 0.0000000e+00 
0.0000000e+00 -5.7370373e-04 0.0000000e+00 
0.0000000e+00 -1.3557685e-03 0.0000000e+00 
0.0000000e+00 -2.7887120e-03 0.0000000e+00 
0.0000000e+00 -3.1549972e-03 0.0000000e+00 
0.0000000e+00 -4.1233338e-03 0.0000000e+00 
0.0000000e+00 -3.7715575e-03 0.0000000e+00 
0.0000000e+00 -5.9393356e-03 0.0000000e+00 
0.0000000e+00 -8.4403567e-03 0.0000000e+00 
0.0000000e+00 -1.9748567e-04 0.0000000e+00 
0.0000000e+00 -1.2345031e-03 0.0000000e+00 
0.0000000e+00 -1.8982813e-03 0.0000000e+00 
0.0000000e+00 -7.3212560e-04 0.0000000e+00 
0.0000000e+00 -2.3433594e-03 0.0000000e+00 
0.0000000e+00 -4.9417047e-03 0.0000000e+00 
0.0000000e+00 -2.7062718e-03 0.0000000e+00 
0.0000000e+00 -3.1954085e-03 0.0000000e+00 
0.0000000e+00 -7.3739083e-04 0.0000000e+00 
0.0000000e+00 -3.1292122e-03 0.0000000e+00 
0.0000000e+00 -2.9656494e+00 0.0000000e+00 
0.0000000e+00 -3.0931797e+00 0.0000000e+00 
0.0000000e+00 3.5561651e-01 0.0000000e+00 
0.0000000e+00 -9.8291874e-02 0.0000000e+00 
0.0000000e+00 -9.1503061e-02 0.0000000e+00 
0.0000000e+00 7.3378749e-02 0.0000000e+00 
0.0000000e+00 2.2488397e-02 0.0000000e+00 
0.0000000e+00 5.4115928e-03 0.0000000e+00 
0.0000000e+00 5.1388089e-03 0.0000000e+00 
0.0000000e+00 -2.5710015e+00 0.0000000e+00 
0.0000000e+00 -2.8311510e+00 0.0000000e+00 
0.0000000e+00 -1.7310693e+00 0.0000000e+00 
0.0000000e+00 4.3387082e-01 0.0000000e+00 
0.0000000e+00 2.0792459e-01 0.0000000e+00 
0.0000000e+00 -1.5003245e-01 0.0000000e+00 
0.0000000e+00 5.2040715e-02 0.0000000e+00 
0.0000000e+00 -1.9400364e-02 0.0000000e+00 
0.0000000e+00 -8.6094467e-03 0.0000000e+00 
0.0000000e+00 -4.1734632e-03 0.0000000e+00 
0.0000000e+00 0.0000000e+00 0.0000000e+00 
0.0000000e+00 0.0000000e+00 0.0000000e+00 
0.0000000e+00 0.0000000e+00 0.0000000e+00 
0.0000000e+00 0.0000000e+00 0.0000000e+00 
0.0000000e+00 0.0000000e+00 0.0000000e+00 
0.0000000e+00 0.0000000e+00 0.0000000e+00 
0.0000000e+00 0.0000000e+00 0.0000000e+00 
0.0000000e+00 0.0000000e+00 0.0000000e+00 
0.0000000e+00 0.0000000e+00 0.0000000e+00 
0.0000000e+00 0.0000000e+00 0.0000000e+00 
0.0000000e+00 0.0000000e+00 0.0000000e+00 
0.0000000e+00 0.0000000e+00 0.0000000e+00 
0.0000000e+00 0.0000000e+00 0.0000000e+00 
0.0000000e+00 0.0000000e+00 0.0000000e+00 
0.0000000e+00 0.0000000e+00 0.0000000e+00 
0.0000000e+00 0.0000000e+00 0.0000000e+00 
0.0000000e+00 0.0000000e+00 0.0000000e+00 
0.0000000e+00 0.0000000e+00 0.0000000e+00 
0.0000000e+00 0.0000000e+00 0.0000000e+00 
0.0000000e+00 0.0000000e+00 0.0000000e+00 
0.0000000e+00 0.0000000e+00 0.0000000e+00 
0.0000000e+00 0.0000000e+00 0.0000000e+00 
0.0000000e+00 0.0000000e+00 0.0000000e+00 
0.0000000e+00 0.0000000e+00 0.0000000e+00 
0.0000000e+00 0.0000000e+00 0.0000000e+00 
0.0000000e+00 0.0000000e+00 0.0000000e+00 
0.0000000e+00 0.0000000e+00 0.0000000e+00 
0.0000000e+00 0.0000000e+00 0.0000000e+00 
0.0000000e+00 0.0000000e+00 0.0000000e+00 
0.0000000e+00 0.0000000e+00 0.0000000e+00 
0.0000000e+00 0.0000000e+00 0.0000000e+00 
0.0000000e+00 0.0000000e+00 0.0000000e+00 
0.0000000e+00 0.0000000e+00 0.0000000e+00 
0.0000000e+00 0.0000000e+00 0.0000000e+00 
0.0000000e+00 0.0000000e+00 0.0000000e+00 
0.0000000e+00 0.0000000e+00 0.0000000e+00 
0.0000000e+00 0.0000000e+00 0.0000000e+00 
0.0000000e+00 0.0000000e+00 0.0000000e+00 
0.0000000e+00 0.0000000e+00 0.0000000e+00 
0.0000000e+00 0.0000000e+00 0.0000000e+00 
0.0000000e+00 0.0000000e+00 0.0000000e+00 
0.0000000e+00 -4.9444316e-03 -1.0281117e-04 
0.0000000e+00 -7.4396969e-04 0.0000000e+00 
0.0000000e+00 -8.0848730e-04 0.0000000e+00 
0.0000000e+00 -9.1630197e-04 0.0000000e+00 
0.0000000e+00 -2.0404845e-03 0.0000000e+00 
0.0000000e+00 -3.5727946e-03 0.0000000e+00 
0.0000000e+00 -4.0297573e-03 0.0000000e+00 
0.0000000e+00 -6.1660134e-03 0.0000000e+00 
0.0000000e+00 -7.6494156e-03 0.0000000e+00 
0.0000000e+00 -8.3279749e-03 0.0000000e+00 
0.0000000e+00 -4.4020006e-04 0.0000000e+00 
0.0000000e+00 -6.1089959e-04 0.0000000e+00 
0.0000000e+00 -1.2435629e-04 0.0000000e+00 
0.0000000e+00 -1.8388116e-03 0.0000000e+00 
0.0000000e+00 -2.8325126e-03 0.0000000e+00 
0.0000000e+00 -5.6408998e-03 0.0000000e+00 
0.0000000e+00 -4.1861273e-03 0.0000000e+00 
0.0000000e+00 -7.2300988e-03 0.0000000e+00 
0.0000000e+00 -1.5171045e-03 0.0000000e+00 
0.0000000e+00 -1.1396880e-03 0.0000000e+00 
0.0000000e+00 -2.8914094e+00 5.5525389e-02 
0.0000000e+00 -2.8145382e+00 0.0000000e+00 
0.0000000e+00 -3.2497621e+00 0.0000000e+00 
0.0000000e+00 9.8738603e-02 0.0000000e+00 
0.0000000e+00 -3.0315933e-01 0.0000000e+00 
0.0000000e+00 -2.4164587e-01 0.0000000e+00 
0.0000000e+00 -4.8997179e-02 0.0000000e+00 
0.0000000e+00 2.3404617e-02 0.0000000e+00 
0.0000000e+00 2.0395437e-02 0.0000000e+00 
0.0000000e+00 4.4146343e-03 0.0000000e+00 
0.0000000e+00 -2.7464197e+00 0.0000000e+00 
0.0000000e+00 -2.9469321e+00 0.0000000e+00 
0.0000000e+00 -2.0388603e+00 0.0000000e+00 
0.0000000e+00 4.0058035e-01 0.0000000e+00 
0.0000000e+00 9.7605705e-02 0.0000000e+00 
0.0000000e+00 2.7727050e-01 0.0000000e+00 
0.0000000e+00 2.8314808e-02 0.0000000e+00 
0.0000000e+00 -2.3736095e-02 0.0000000e+00 
0.0000000e+00 -5.5085081e-03 0.0000000e+00 
0.0000000e+00 -2.3292145e-03 0.0000000e+00 
-2.1447359e-01 -2.2687469e+00 0.0000000e+00 
-9.6955389e-01 -2.1483099e+00 3.8228072e-02 
-5.5680972e-01 -2.1123469e+00 0.0000000e+00 
-1.9795433e-04 -7.9990728e-03 0.0000000e+00 
-6.1082345e-04 -3.5282017e-03 0.0000000e+00 
-1.8782436e-04 -2.8326698e-03 0.0000000e+00 
-1.0076790e-04 -5.7859911e-04 0.0000000e+00 
-6.9034581e-06 8.8682829e-04 0.0000000e+00 
-7.1021385e-04 2.0275686e-03 0.0000000e+00 
-7.4500690e-04 5.0368690e-04 0.0000000e+00 
-7.0908858e-04 -3.9505060e-03 0.0000000e+00 
4.2466895e-04 -4.1986012e-05 0.0000000e+00 
3.5071054e-03 -8.7943481e-04 0.0000000e+00 
-5.7230238e-04 3.5671808e-03 0.0000000e+00 
4.0607220e-03 4.6148403e-03 0.0000000e+00 
-3.5197994e-05 2.5935052e-02 0.0000000e+00 
6.5738991e-02 1.2644234e-03 0.0000000e+00 
-9.3835577e-02 5.5291213e-02 0.0000000e+00 
4.2243246e-02 4.7267757e-02 0.0000000e+00 
3.6095675e-02 2.1939096e-01 0.0000000e+00 
-7.1784323e-01 -8.5843104e-01 0.0000000e+00 
-4.7237895e-04 -3.7003197e-03 0.0000000e+00 
-2.2245405e-04 -1.7079901e-03 0.0000000e+00 
-5.3270574e-04 -2.4752636e-04 0.0000000e+00 
-2.4994733e-04 3.7858152e-04 0.0000000e+00 
-2.0976747e-04 1.0445276e-03 0.0000000e+00 
-9.4921718e-04 6.1748910e-04 0.0000000e+00 
-9.0421020e-04 2.9442492e-03 0.0000000e+00 
-1.2946326e-03 3.4371691e-04 0.0000000e+00 
4.5844316e-04 1.5003844e-03 0.0000000e+00 
-1.4881326e-03 -4.3831365e-03 0.0000000e+00 
4.6291505e-03 -4.5547104e-03 0.0000000e+00 
3.9700596e-03 -2.3364709e-03 0.0000000e+00 
-1.1645583e-02 -1.0577857e-03 0.0000000e+00 
-5.0912979e-03 -3.1023411e-02 0.0000000e+00 
-4.6233822e-02 3.2924261e-02 0.0000000e+00 
8.8177294e-02 4.7572054e-02 0.0000000e+00 
3.4181260e-02 -2.9154183e-02 0.0000000e+00 
-2.4284685e-01 2.6148123e-01 0.0000000e+00 
-7.3639536e-01 -1.4239198e+00 0.0000000e+00 
1.7506339e-02 1.1975806e-02 0.0000000e+00 
-3.0649364e-02 8.0726715e-03 0.0000000e+00 
3.5836943e-04 2.5764357e-03 0.0000000e+00 
-1.5684200e-04 4.9746898e-04 0.0000000e+00 
2.7134696e-02 1.1262977e-02 0.0000000e+00 
-4.9955207e-03 -7.1657889e-02 0.0000000e+00 
-4.4291778e-03 8.9289639e-03 0.0000000e+00 
7.5325585e-04 8.5885711e-03 0.0000000e+00 
5.9377396e-04 -5.1435577e-03 0.0000000e+00 
1.9687454e-03 -9.2854298e-04 0.0000000e+00 
8.2366157e-04 -1.6051152e-03 0.0000000e+00 
5.6714279e-04 2.7725562e-03 0.0000000e+00 
-3.5276008e-04 8.8196067e-04 0.0000000e+00 
-1.2304033e-03 -1.0628194e-03 0.0000000e+00 
-1.1014622e-03 -5.0119967e-03 0.0000000e+00 
-3.2370127e-04 -1.5377713e-03 0.0000000e+00 
-1.4011931e-04 3.8313770e-03 0.0000000e+00 
-2.3489994e-04 1.0747269e-03 0.0000000e+00 
-5.5232958e-04 -8.1949607e-03 0.0000000e+00 
-3.2949660e-04 -5.7560238e-03 0.0000000e+00 
-1.9805580e-04 -2.2718399e-03 0.0000000e+00 
-4.5564090e-04 -7.5865194e-04 0.0000000e+00 
-2.1323601e-04 -1.8530162e-03 0.0000000e+00 
-1.1596010e-04 -2.3024254e-03 0.0000000e+00 
-2.2501324e-04 -2.8024595e-03 0.0000000e+00 
2.3346281e-04 -2.2955206e-03 0.0000000e+00 
-2.7469732e-04 3.9807116e-04 0.0000000e+00 
1.4875174e-01 1.0625746e-01 0.0000000e+00 
1.9716714e-01 2.4811564e-02 0.0000000e+00 
-6.5600801e-01 -9.3967396e-01 0.0000000e+00 
1.2643822e-01 4.7690041e-02 0.0000000e+00 
-1.2631599e-02 -1.4233626e-01 0.0000000e+00 
-2.7880716e-01 2.2885607e-01 0.0000000e+00 
-6.2573278e-01 -1.3996178e+00 0.0000000e+00 
1.9832191e-03 4.4919578e-03 0.0000000e+00 
-4.1503189e-04 -7.9382694e-04 0.0000000e+00 
1.1106807e-02 4.0440463e-02 0.0000000e+00 
4.5083356e-03 -1.5428822e-03 0.0000000e+00 
-1.0119133e-03 -2.5502998e-06 0.0000000e+00 
2.1178027e-04 -1.0922569e-03 0.0000000e+00 
2.0970685e-02 -8.9147910e-02 0.0000000e+00 
-4.1913714e-05 -2.7564783e-03 0.0000000e+00 
5.7156279e-04 1.9715554e-03 0.0000000e+00 
-3.4805576e-03 -1.3968848e-03 0.0000000e+00 
1.4387661e-03 -1.1576822e-03 0.0000000e+00 
-1.0913609e-04 -2.0724377e-03 0.0000000e+00 
-9.5080070e-02 -1.3592595e-01 0.0000000e+00 
1.0245782e-03 -4.3703223e-04 0.0000000e+00 
-1.8421319e-05 -4.6038529e-04 0.0000000e+00 
2.7682966e-01 3.1830344e-01 0.0000000e+00 
-5.0207250e-06 -4.3310719e-03 0.0000000e+00 
9.3192409e-04 9.9506248e-03 0.0000000e+00 
4.9034584e-06 -1.4720145e-03 0.0000000e+00 
-2.6222726e-02 -3.6020163e-02 0.0000000e+00 
1.0750111e+00 -1.9497740e+00 0.0000000e+00 
-1.2737526e-04 -5.8109588e-03 0.0000000e+00 
-5.5849330e-05 -4.8204290e-04 0.0000000e+00 
1.1947493e-01 1.0087130e-01 0.0000000e+00 
2.7689444e-02 1.0055444e-01 0.0000000e+00 
-3.0172076e-03 7.5663151e-03 0.0000000e+00 
1.7803354e-04 -3.1889901e-02 0.0000000e+00 
-1.5923446e-03 -2.5303869e-02 0.0000000e+00 
1.4100290e-02 -3.3887494e-02 0.0000000e+00 
-3.4462524e-04 -6.5901545e-03 0.0000000e+00 
1.6283762e-02 2.2719109e-03 0.0000000e+00 
-1.1701972e-02 2.4526794e-02 0.0000000e+00 
4.9652248e-03 -1.9935301e-02 0.0000000e+00 
8.1589036e-03 2.7660072e-02 0.0000000e+00 
1.0668765e-02 2.3428215e-02 0.0000000e+00 
-6.8733534e-03 5.5241279e-02 0.0000000e+00 
1.3300438e-02 2.8591538e-02 0.0000000e+00 
3.9645042e-03 2.1336753e-02 0.0000000e+00 
1.0208287e-03 1.8370293e-02 0.0000000e+00 
-6.1062768e-02 -4.6288695e-02 0.0000000e+00 
-7.8741200e-03 4.1834060e-03 0.0000000e+00 
-5.6616492e-03 5.6050364e-03 0.0000000e+00 
-2.3050845e-04 9.5599529e-04 0.0000000e+00 
5.8787414e-03 -2.6488800e-03 0.0000000e+00 
1.4672858e-04 -2.8039929e-03 0.0000000e+00 
3.9294586e-03 -4.9216808e-03 0.0000000e+00 
6.1797919e-03 -4.0787077e-03 0.0000000e+00 
-5.9916405e-04 -2.1842232e-03 0.0000000e+00 
1.8953357e-03 -4.2182775e-03 0.0000000e+00 
-1.6927694e-03 -2.7944518e-03 0.0000000e+00 
-9.3944557e-04 -2.5594549e-03 0.0000000e+00 
-1.2899851e-03 -1.3253484e-03 0.0000000e+00 
-1.1816503e-03 -2.3886764e-03 0.0000000e+00 
-8.0446061e-04 -2.6593502e-03 0.0000000e+00 
-6.5459375e-04 -1.5199858e-03 0.0000000e+00 
2.6152781e-04 -2.2999672e-03 0.0000000e+00 
-2.2708588e-04 -1.8522749e-03 0.0000000e+00 
-6.0291402e-04 -1.8239032e-03 0.0000000e+00 
4.9172218e-08 -2.0884927e-03 0.0000000e+00 
1.7514818e-04 -2.8209970e-03 0.0000000e+00 
-3.3381275e-05 -2.0350406e-03 0.0000000e+00 
-1.0938322e-03 -2.0022811e-03 0.0000000e+00 
1.8171032e-04 -2.0437494e-03 0.0000000e+00 
-4.2027459e-02 -1.9246067e-03 0.0000000e+00 
3.0376150e-03 2.3211839e-03 0.0000000e+00 
7.5818549e-05 -1.7648962e-03 0.0000000e+00 
1.3464941e-04 -1.7074522e-03 0.0000000e+00 
6.0470873e-03 -2.5462701e-03 0.0000000e+00 
-5.2258554e-03 6.0845232e-03 0.0000000e+00 
-3.8889204e-03 -7.1058981e-02 0.0000000e+00 
-1.6739106e-02 9.2831673e-03 0.0000000e+00 
4.0854976e-04 -1.9395816e-03 0.0000000e+00 
-1.2210119e-04 -2.3725955e-03 0.0000000e+00 
-8.8784354e-06 -1.5418241e-03 0.0000000e+00 
-4.7796047e-03 -1.4215537e-03 0.0000000e+00 
-4.9325526e-03 8.4282778e-04 0.0000000e+00 
-2.2364365e-02 -9.9361472e-02 0.0000000e+00 
3.5196852e-03 3.2440796e-03 0.0000000e+00 
1.9051609e-04 -1.9167273e-03 0.0000000e+00 
-8.3648061e-05 -2.5959755e-03 0.0000000e+00 
9.9431993e-03 8.9512594e-02 0.0000000e+00 
-8.4187269e-02 3.8103640e-02 0.0000000e+00 
-4.5911671e-04 -1.0023686e-03 0.0000000e+00 
9.8720221e-03 1.0880543e-02 0.0000000e+00 
2.5698246e-04 -6.3889415e-04 0.0000000e+00 
2.5668740e-04 -2.2674557e-03 0.0000000e+00 
8.9909563e-06 -2.5121043e-03 0.0000000e+00 
-1.6336290e-04 -1.6785405e-03 0.0000000e+00 
-2.3141403e-05 -3.4893281e-03 0.0000000e+00 
-1.7109482e-02 1.3356622e-02 0.0000000e+00 
-2.7575970e-03 -9.4949990e-04 0.0000000e+00 
-6.4931451e-03 2.1276646e-03 0.0000000e+00 
-2.0662216e-02 -3.1127818e-03 0.0000000e+00 
4.7850197e-05 -2.1905822e-03 0.0000000e+00 
-4.8516899e-02 1.4690397e-02 0.0000000e+00 
-5.5218739e-03 -3.5632534e-03 0.0000000e+00 
-3.0828689e-04 -1.8187719e-03 0.0000000e+00 
1.1371749e-04 -8.5962430e-04 0.0000000e+00 
2.0192033e-02 -1.4267056e-01 0.0000000e+00 
1.6729496e-01 -1.1714070e-01 0.0000000e+00 
-2.6785067e-01 -1.8161029e-01 0.0000000e+00 
-9.8286249e-02 -7.6933932e-01 0.0000000e+00 
9.9102962e-01 -5.0203240e-01 0.0000000e+00 
1.3395336e-01 3.5134324e-01 0.0000000e+00 
-2.6296612e-04 -9.9771144e-04 0.0000000e+00 
-1.1781692e-04 -1.3656812e-03 0.0000000e+00 
-4.9144123e-04 -1.0783065e-03 0.0000000e+00 
-8.6013263e-04 -2.2701989e-03 0.0000000e+00 
-9.1920741e-04 -6.2002992e-04 0.0000000e+00 
-1.1383649e-03 -2.2945425e-03 0.0000000e+00 
-2.1847553e-04 1.9848691e-03 0.0000000e+00 
3.3728899e-03 6.2505883e-04 0.0000000e+00 
-1.6364682e-04 -2.9627085e-03 0.0000000e+00 
-3.4395760e-04 -4.2085978e-03 0.0000000e+00 
-2.4821397e-04 -4.0414301e-03 0.0000000e+00 
3.5849259e-06 -2.5443616e-03 0.0000000e+00 
1.1139282e-04 -2.5151337e-03 0.0000000e+00 
4.4790069e-03 9.0880571e-03 0.0000000e+00 
-2.7466941e-04 -1.6507481e-03 0.0000000e+00 
-4.8798908e-04 -1.7698549e-03 0.0000000e+00 
-1.4296051e-02 -1.7990572e-02 0.0000000e+00 
9.4282103e-04 -4.2445282e-03 0.0000000e+00 
2.3567618e-03 -1.7130178e-03 0.0000000e+00 
-5.5510626e-04 -1.8286668e-03 0.0000000e+00 
5.8801870e-05 -3.6425120e-03 0.0000000e+00 
1.0767267e-02 2.6896270e-03 0.0000000e+00 
1.6435405e-03 -5.3584302e-04 0.0000000e+00 
-1.5567322e-04 2.2264713e-04 0.0000000e+00 
8.1301201e-03 -1.4941055e-02 0.0000000e+00 
-4.2161015e-03 2.8871628e-03 0.0000000e+00 
-8.6105289e-03 1.1611702e-03 0.0000000e+00 
3.6782906e-03 -3.0324436e-04 0.0000000e+00 
-2.4039303e-04 -1.4677446e-04 0.0000000e+00 
-3.3993984e-04 -1.2192625e-03 0.0000000e+00 
-1.6746151e-04 -1.9167955e-03 0.0000000e+00 
2.5286034e-03 -1.3043098e-03 0.0000000e+00 
2.9416615e-03 -1.5117109e-03 0.0000000e+00 
1.3040679e-03 -3.2724548e-04 0.0000000e+00 
4.4452222e-03 -5.2124118e-03 0.0000000e+00 
1.0259749e-04 -1.9017723e-03 0.0000000e+00 
-1.3676214e-03 -1.1952344e-03 0.0000000e+00 
-2.1139116e-03 -2.5560267e-04 0.0000000e+00 
2.4803465e-05 -3.6677186e-04 0.0000000e+00 
1.7781516e-05 -4.4828275e-04 0.0000000e+00 
-2.9999921e-03 -1.5863361e-03 0.0000000e+00 
1.3641465e-03 5.2341805e-03 0.0000000e+00 
-4.0234490e-03 1.0633478e-02 0.0000000e+00 
-5.3430459e-04 1.5501554e-04 0.0000000e+00 
-3.8925066e-04 -2.4197006e-04 0.0000000e+00 
-1.7598876e-03 -4.2308858e-04 0.0000000e+00 
-1.7355173e-03 -1.5346652e-03 0.0000000e+00 
-6.5893092e-04 -4.6002923e-04 0.0000000e+00 
-7.0021173e-04 -1.1837292e-03 0.0000000e+00 
-7.6264238e-05 -3.5263042e-04 0.0000000e+00 
7.1490990e-06 -1.7389623e-03 0.0000000e+00 
-1.1630692e-01 -1.4219442e-01 0.0000000e+00 
-1.1197707e-02 -6.9278926e-03 0.0000000e+00 
-2.5787950e-02 -3.1849176e-02 0.0000000e+00 
-2.7404074e-04 -5.0224585e-04 0.0000000e+00 
6.4726849e-03 9.1907213e-04 0.0000000e+00 
8.5005108e-03 -1.8803545e-03 0.0000000e+00 
-6.1683655e-03 2.3531208e-03 0.0000000e+00 
-1.5480781e-03 -1.9645186e-03 0.0000000e+00 
3.3507086e-03 -1.9590722e-03 0.0000000e+00 
-5.2414141e-03 -6.3158125e-02 0.0000000e+00 
4.4817328e-03 -5.7460540e-03 0.0000000e+00 
-9.1260104e-03 9.2737218e-03 0.0000000e+00 
1.3312091e-01 -9.6280994e-03 0.0000000e+00 
-1.0373109e-02 2.5612852e-02 0.0000000e+00 
2.7099732e-02 6.9517486e-02 0.0000000e+00 
-1.1352903e-03 -2.7202365e-03 0.0000000e+00 
-1.4117785e-03 -1.1104873e-03 0.0000000e+00 
-4.4356207e-03 -6.8157800e-03 0.0000000e+00 
-6.4747926e-04 -3.0826197e-03 0.0000000e+00 
-1.6077735e-01 -3.5242659e-01 0.0000000e+00 
2.0161757e-02 -1.4828041e-02 0.0000000e+00 
5.0240308e-01 2.8098997e-01 0.0000000e+00 
1.3649525e-01 -1.2541778e+00 0.0000000e+00 
-8.7329037e-03 -3.4109761e-03 0.0000000e+00 
-6.7020992e-05 -8.3261245e-04 0.0000000e+00 
-3.5484924e-04 -4.3997043e-03 0.0000000e+00 
1.0641632e-04 -9.4269752e-04 0.0000000e+00 
8.9117209e-04 2.6875686e-02 0.0000000e+00 
-1.0952945e-01 -1.3712113e-01 0.0000000e+00 
-1.7524880e-04 -2.3487858e-03 0.0000000e+00 
9.6366717e-04 -2.7578671e-03 0.0000000e+00 
6.4813386e-05 -3.0042760e-03 0.0000000e+00 
4.1897194e-03 -8.6013982e-03 0.0000000e+00 
-1.4863070e-03 3.7749542e-03 0.0000000e+00 
-4.7043886e-04 -1.8886410e-03 0.0000000e+00 
-2.2491443e-04 -9.9319406e-04 0.0000000e+00 
-1.6828408e-04 -4.7868215e-03 0.0000000e+00 
2.4593115e-01 -1.5916191e+00 0.0000000e+00 
-6.8716258e-03 1.6120870e-02 0.0000000e+00 
7.4285571e-03 5.1789340e-03 0.0000000e+00 
5.0211828e-03 -6.2150741e-03 0.0000000e+00 
-2.5976871e-04 -2.2039725e-03 0.0000000e+00 
-1.6568576e-03 -1.3432882e-03 0.0000000e+00 
-1.4931675e-03 -1.2927799e-03 0.0000000e+00 
6.0201386e-05 -1.1445627e-03 0.0000000e+00 
-7.0376234e-05 -4.6723452e-04 0.0000000e+00 
1.0985303e-04 -1.0182617e-03 0.0000000e+00 
-4.9893791e-03 5.3106993e-03 0.0000000e+00 
4.3634176e-03 -3.9429334e-03 0.0000000e+00 
6.9409882e-04 -2.3567486e-03 0.0000000e+00 
7.4750021e-02 2.7389219e-01 0.0000000e+00 
-2.7936514e-05 -2.9612326e-03 0.0000000e+00 
-3.9079332e-06 -2.2768168e-04 0.0000000e+00 