# vtk DataFile Version 4.0
vtk output
ASCII
DATASET UNSTRUCTURED_GRID
POINTS 16368 float
0.0000000e+00 0.0000000e+00 0.0000000e+00 
2.0000000e+01 0.0000000e+00 0.0000000e+00 
2.0000000e+01 1.0000000e+01 0.0000000e+00 
0.0000000e+00 1.0000000e+01 0.0000000e+00 
0.0000000e+00 0.0000000e+00 1.0000000e+00 
2.0000000e+01 0.0000000e+00 1.0000000e+00 
2.0000000e+01 1.0000000e+01 1.0000000e+00 
0.0000000e+00 1.0000000e+01 1.0000000e+00 
1.0000000e+00 1.0000000e+01 0.0000000e+00 
1.0000000e+00 1.0000000e+01 1.0000000e+00 
5.0000000e+00 1.0000000e+01 0.0000000e+00 
1.0000000e+01 1.0000000e+01 0.0000000e+00 
1.5000000e+01 1.0000000e+01 0.0000000e+00 
5.0000000e-01 0.0000000e+00 0.0000000e+00 
1.0000000e+00 0.0000000e+00 0.0000000e+00 
1.5000000e+00 0.0000000e+00 0.0000000e+00 
2.0000000e+00 0.0000000e+00 0.0000000e+00 
2.5000000e+00 0.0000000e+00 0.0000000e+00 
3.0000000e+00 0.0000000e+00 0.0000000e+00 
3.5000000e+00 0.0000000e+00 0.0000000e+00 
4.0000000e+00 0.0000000e+00 0.0000000e+00 
4.5000000e+00 0.0000000e+00 0.0000000e+00 
5.0000000e+00 0.0000000e+00 0.0000000e+00 
5.5000000e+00 0.0000000e+00 0.0000000e+00 
6.0000000e+00 0.0000000e+00 0.0000000e+00 
6.5000000e+00 0.0000000e+00 0.0000000e+00 
7.0000000e+00 0.0000000e+00 0.0000000e+00 
7.5000000e+00 0.0000000e+00 0.0000000e+00 
8.0000000e+00 0.0000000e+00 0.0000000e+00 
8.5000000e+00 0.0000000e+00 0.0000000e+00 
9.0000000e+00 0.0000000e+00 0.0000000e+00 
9.5000000e+00 0.0000000e+00 0.0000000e+00 
1.0000000e+01 0.0000000e+00 0.0000000e+00 
1.0500000e+01 0.0000000e+00 0.0000000e+00 
1.1000000e+01 0.0000000e+00 0.0000000e+00 
1.1500000e+01 0.0000000e+00 0.0000000e+00 
1.2000000e+01 0.0000000e+00 0.0000000e+00 
1.2500000e+01 0.0000000e+00 0.0000000e+00 
1.3000000e+01 0.0000000e+00 0.0000000e+00 
1.3500000e+01 0.0000000e+00 0.0000000e+00 
1.4000000e+01 0.0000000e+00 0.0000000e+00 
1.4500000e+01 0.0000000e+00 0.0000000e+00 
1.5000000e+01 0.0000000e+00 0.0000000e+00 
1.5500000e+01 0.0000000e+00 0.0000000e+00 
1.6000000e+01 0.0000000e+00 0.0000000e+00 
1.6500000e+01 0.0000000e+00 0.0000000e+00 
1.7000000e+01 0.0000000e+00 0.0000000e+00 
1.7500000e+01 0.0000000e+00 0.0000000e+00 
1.8000000e+01 0.0000000e+00 0.0000000e+00 
1.8500000e+01 0.0000000e+00 0.0000000e+00 
1.9000000e+01 0.0000000e+00 0.0000000e+00 
1.9500000e+01 0.0000000e+00 0.0000000e+00 
2.5000000e-01 0.0000000e+00 0.0000000e+00 
7.5000000e-01 0.0000000e+00 0.0000000e+00 
1.2500000e+00 0.0000000e+00 0.0000000e+00 
1.7500000e+00 0.0000000e+00 0.0000000e+00 
2.2500000e+00 0.0000000e+00 0.0000000e+00 
2.7500000e+00 0.0000000e+00 0.0000000e+00 
3.2500000e+00 0.0000000e+00 0.0000000e+00 
3.7500000e+00 0.0000000e+00 0.0000000e+00 
4.2500000e+00 0.0000000e+00 0.0000000e+00 
4.7500000e+00 0.0000000e+00 0.0000000e+00 
5.2500000e+00 0.0000000e+00 0.0000000e+00 
5.7500000e+00 0.0000000e+00 0.0000000e+00 
6.2500000e+00 0.0000000e+00 0.0000000e+00 
6.7500000e+00 0.0000000e+00 0.0000000e+00 
7.2500000e+00 0.0000000e+00 0.0000000e+00 
7.7500000e+00 0.0000000e+00 0.0000000e+00 
8.2500000e+00 0.0000000e+00 0.0000000e+00 
8.7500000e+00 0.0000000e+00 0.0000000e+00 
9.2500000e+00 0.0000000e+00 0.0000000e+00 
9.7500000e+00 0.0000000e+00 0.0000000e+00 
1.0250000e+01 0.0000000e+00 0.0000000e+00 
1.0750000e+01 0.0000000e+00 0.0000000e+00 
1.1250000e+01 0.0000000e+00 0.0000000e+00 
1.1750000e+01 0.0000000e+00 0.0000000e+00 
1.2250000e+01 0.0000000e+00 0.0000000e+00 
1.2750000e+01 0.0000000e+00 0.0000000e+00 
1.3250000e+01 0.0000000e+00 0.0000000e+00 
1.3750000e+01 0.0000000e+00 0.0000000e+00 
1.4250000e+01 0.0000000e+00 0.0000000e+00 
1.4750000e+01 0.0000000e+00 0.0000000e+00 
1.5250000e+01 0.0000000e+00 0.0000000e+00 
1.5750000e+01 0.0000000e+00 0.0000000e+00 
1.6250000e+01 0.0000000e+00 0.0000000e+00 
1.6750000e+01 0.0000000e+00 0.0000000e+00 
1.7250000e+01 0.0000000e+00 0.0000000e+00 
1.7750000e+01 0.0000000e+00 0.0000000e+00 
1.8250000e+01 0.0000000e+00 0.0000000e+00 
1.8750000e+01 0.0000000e+00 0.0000000e+00 
1.9250000e+01 0.0000000e+00 0.0000000e+00 
1.9750000e+01 0.0000000e+00 0.0000000e+00 
2.0000000e+01 5.0000000e-01 0.0000000e+00 
2.0000000e+01 1.0000000e+00 0.0000000e+00 
2.0000000e+01 1.5000000e+00 0.0000000e+00 
2.0000000e+01 2.0000000e+00 0.0000000e+00 
2.0000000e+01 2.5000000e+00 0.0000000e+00 
2.0000000e+01 3.0000000e+00 0.0000000e+00 
2.0000000e+01 3.5000000e+00 0.0000000e+00 
2.0000000e+01 4.0000000e+00 0.0000000e+00 
2.0000000e+01 4.5000000e+00 0.0000000e+00 
2.0000000e+01 5.0000000e+00 0.0000000e+00 
2.0000000e+01 5.5000000e+00 0.0000000e+00 
2.0000000e+01 6.0000000e+00 0.0000000e+00 
2.0000000e+01 6.5000000e+00 0.0000000e+00 
2.0000000e+01 7.0000000e+00 0.0000000e+00 
2.0000000e+01 7.5000000e+00 0.0000000e+00 
2.0000000e+01 8.0000000e+00 0.0000000e+00 
2.0000000e+01 8.5000000e+00 0.0000000e+00 
2.0000000e+01 9.0000000e+00 0.0000000e+00 
2.0000000e+01 9.5000000e+00 0.0000000e+00 
2.0000000e+01 2.5000000e-01 0.0000000e+00 
2.0000000e+01 7.5000000e-01 0.0000000e+00 
2.0000000e+01 1.2500000e+00 0.0000000e+00 
2.0000000e+01 1.7500000e+00 0.0000000e+00 
2.0000000e+01 2.2500000e+00 0.0000000e+00 
2.0000000e+01 2.7500000e+00 0.0000000e+00 
2.0000000e+01 3.2500000e+00 0.0000000e+00 
2.0000000e+01 3.7500000e+00 0.0000000e+00 
2.0000000e+01 4.2500000e+00 0.0000000e+00 
2.0000000e+01 4.7500000e+00 0.0000000e+00 
2.0000000e+01 5.2500000e+00 0.0000000e+00 
2.0000000e+01 5.7500000e+00 0.0000000e+00 
2.0000000e+01 6.2500000e+00 0.0000000e+00 
2.0000000e+01 6.7500000e+00 0.0000000e+00 
2.0000000e+01 7.2500000e+00 0.0000000e+00 
2.0000000e+01 7.7500000e+00 0.0000000e+00 
2.0000000e+01 8.2500000e+00 0.0000000e+00 
2.0000000e+01 8.7500000e+00 0.0000000e+00 
2.0000000e+01 9.2500000e+00 0.0000000e+00 
2.0000000e+01 9.7500000e+00 0.0000000e+00 
0.0000000e+00 9.5000000e+00 0.0000000e+00 
0.0000000e+00 9.0000000e+00 0.0000000e+00 
0.0000000e+00 8.5000000e+00 0.0000000e+00 
0.0000000e+00 8.0000000e+00 0.0000000e+00 
0.0000000e+00 7.5000000e+00 0.0000000e+00 
0.0000000e+00 7.0000000e+00 0.0000000e+00 
0.0000000e+00 6.5000000e+00 0.0000000e+00 
0.0000000e+00 6.0000000e+00 0.0000000e+00 
0.0000000e+00 5.5000000e+00 0.0000000e+00 
0.0000000e+00 5.0000000e+00 0.0000000e+00 
0.0000000e+00 4.5000000e+00 0.0000000e+00 
0.0000000e+00 4.0000000e+00 0.0000000e+00 
0.0000000e+00 3.5000000e+00 0.0000000e+00 
0.0000000e+00 3.0000000e+00 0.0000000e+00 
0.0000000e+00 2.5000000e+00 0.0000000e+00 
0.0000000e+00 2.0000000e+00 0.0000000e+00 
0.0000000e+00 1.5000000e+00 0.0000000e+00 
0.0000000e+00 1.0000000e+00 0.0000000e+00 
0.0000000e+00 5.0000000e-01 0.0000000e+00 
0.0000000e+00 9.7500000e+00 0.0000000e+00 
0.0000000e+00 9.2500000e+00 0.0000000e+00 
0.0000000e+00 8.7500000e+00 0.0000000e+00 
0.0000000e+00 8.2500000e+00 0.0000000e+00 
0.0000000e+00 7.7500000e+00 0.0000000e+00 
0.0000000e+00 7.2500000e+00 0.0000000e+00 
0.0000000e+00 6.7500000e+00 0.0000000e+00 
0.0000000e+00 6.2500000e+00 0.0000000e+00 
0.0000000e+00 5.7500000e+00 0.0000000e+00 
0.0000000e+00 5.2500000e+00 0.0000000e+00 
0.0000000e+00 4.7500000e+00 0.0000000e+00 
0.0000000e+00 4.2500000e+00 0.0000000e+00 
0.0000000e+00 3.7500000e+00 0.0000000e+00 
0.0000000e+00 3.2500000e+00 0.0000000e+00 
0.0000000e+00 2.7500000e+00 0.0000000e+00 
0.0000000e+00 2.2500000e+00 0.0000000e+00 
0.0000000e+00 1.7500000e+00 0.0000000e+00 
0.0000000e+00 1.2500000e+00 0.0000000e+00 
0.0000000e+00 7.5000000e-01 0.0000000e+00 
0.0000000e+00 2.5000000e-01 0.0000000e+00 
0.0000000e+00 0.0000000e+00 5.0000000e-01 
0.0000000e+00 0.0000000e+00 2.5000000e-01 
0.0000000e+00 0.0000000e+00 7.5000000e-01 
2.0000000e+01 0.0000000e+00 5.0000000e-01 
2.0000000e+01 0.0000000e+00 2.5000000e-01 
2.0000000e+01 0.0000000e+00 7.5000000e-01 
5.0000000e-01 0.0000000e+00 1.0000000e+00 
1.0000000e+00 0.0000000e+00 1.0000000e+00 
1.5000000e+00 0.0000000e+00 1.0000000e+00 
2.0000000e+00 0.0000000e+00 1.0000000e+00 
2.5000000e+00 0.0000000e+00 1.0000000e+00 
3.0000000e+00 0.0000000e+00 1.0000000e+00 
3.5000000e+00 0.0000000e+00 1.0000000e+00 
4.0000000e+00 0.0000000e+00 1.0000000e+00 
4.5000000e+00 0.0000000e+00 1.0000000e+00 
5.0000000e+00 0.0000000e+00 1.0000000e+00 
5.5000000e+00 0.0000000e+00 1.0000000e+00 
6.0000000e+00 0.0000000e+00 1.0000000e+00 
6.5000000e+00 0.0000000e+00 1.0000000e+00 
7.0000000e+00 0.0000000e+00 1.0000000e+00 
7.5000000e+00 0.0000000e+00 1.0000000e+00 
8.0000000e+00 0.0000000e+00 1.0000000e+00 
8.5000000e+00 0.0000000e+00 1.0000000e+00 
9.0000000e+00 0.0000000e+00 1.0000000e+00 
9.5000000e+00 0.0000000e+00 1.0000000e+00 
1.0000000e+01 0.0000000e+00 1.0000000e+00 
1.0500000e+01 0.0000000e+00 1.0000000e+00 
1.1000000e+01 0.0000000e+00 1.0000000e+00 
1.1500000e+01 0.0000000e+00 1.0000000e+00 
1.2000000e+01 0.0000000e+00 1.0000000e+00 
1.2500000e+01 0.0000000e+00 1.0000000e+00 
1.3000000e+01 0.0000000e+00 1.0000000e+00 
1.3500000e+01 0.0000000e+00 1.0000000e+00 
1.4000000e+01 0.0000000e+00 1.0000000e+00 
1.4500000e+01 0.0000000e+00 1.0000000e+00 
1.5000000e+01 0.0000000e+00 1.0000000e+00 
1.5500000e+01 0.0000000e+00 1.0000000e+00 
1.6000000e+01 0.0000000e+00 1.0000000e+00 
1.6500000e+01 0.0000000e+00 1.0000000e+00 
1.7000000e+01 0.0000000e+00 1.0000000e+00 
1.7500000e+01 0.0000000e+00 1.0000000e+00 
1.8000000e+01 0.0000000e+00 1.0000000e+00 
1.8500000e+01 0.0000000e+00 1.0000000e+00 
1.9000000e+01 0.0000000e+00 1.0000000e+00 
1.9500000e+01 0.0000000e+00 1.0000000e+00 
2.5000000e-01 0.0000000e+00 1.0000000e+00 
7.5000000e-01 0.0000000e+00 1.0000000e+00 
1.2500000e+00 0.0000000e+00 1.0000000e+00 
1.7500000e+00 0.0000000e+00 1.0000000e+00 
2.2500000e+00 0.0000000e+00 1.0000000e+00 
2.7500000e+00 0.0000000e+00 1.0000000e+00 
3.2500000e+00 0.0000000e+00 1.0000000e+00 
3.7500000e+00 0.0000000e+00 1.0000000e+00 
4.2500000e+00 0.0000000e+00 1.0000000e+00 
4.7500000e+00 0.0000000e+00 1.0000000e+00 
5.2500000e+00 0.0000000e+00 1.0000000e+00 
5.7500000e+00 0.0000000e+00 1.0000000e+00 
6.2500000e+00 0.0000000e+00 1.0000000e+00 
6.7500000e+00 0.0000000e+00 1.0000000e+00 
7.2500000e+00 0.0000000e+00 1.0000000e+00 
[...]
POINT_DATA 16368
FIELD FieldData 1
VELOCITY 3 16368  float
0.0000000e+00 0.0000000e+00 0.0000000e+00 
0.0000000e+00 0.0000000e+00 0.0000000e+00 
0.0000000e+00 6.6495105e-04 0.0000000e+00 
0.0000000e+00 -2.7686822e-01 0.0000000e+00 
0.0000000e+00 0.0000000e+00 0.0000000e+00 
0.0000000e+00 0.0000000e+00 0.0000000e+00 
0.0000000e+00 7.0789829e-04 0.0000000e+00 
0.0000000e+00 -2.7724665e-01 0.0000000e+00 
1.3752024e-03 -2.8997937e-01 0.0000000e+00 
-1.2602786e-03 -2.8374773e-01 0.0000000e+00 
-3.0738767e-03 -3.5208803e-01 0.0000000e+00 
-9.0284145e-01 -2.4657361e-01 0.0000000e+00 
-1.4247145e-02 9.7649591e-03 0.0000000e+00 
0.0000000e+00 0.0000000e+00 0.0000000e+00 
0.0000000e+00 0.0000000e+00 0.0000000e+00 
0.0000000e+00 0.0000000e+00 0.0000000e+00 
0.0000000e+00 0.0000000e+00 0.0000000e+00 
0.0000000e+00 0.0000000e+00 0.0000000e+00 
0.0000000e+00 0.0000000e+00 0.0000000e+00 
0.0000000e+00 0.0000000e+00 0.0000000e+00 
0.0000000e+00 0.0000000e+00 0.0000000e+00 
0.0000000e+00 0.0000000e+00 0.0000000e+00 
0.0000000e+00 0.0000000e+00 0.0000000e+00 
0.0000000e+00 0.0000000e+00 0.0000000e+00 
0.0000000e+00 0.0000000e+00 0.0000000e+00 
0.0000000e+00 0.0000000e+00 0.0000000e+00 
0.0000000e+00 0.0000000e+00 0.0000000e+00 
0.0000000e+00 0.0000000e+00 0.0000000e+00 
0.0000000e+00 0.0000000e+00 0.0000000e+00 
0.0000000e+00 0.0000000e+00 0.0000000e+00 
0.0000000e+00 0.0000000e+00 0.0000000e+00 
0.0000000e+00 0.0000000e+00 0.0000000e+00 
0.0000000e+00 0.0000000e+00 0.0000000e+00 
0.0000000e+00 0.0000000e+00 0.0000000e+00 
0.0000000e+00 0.0000000e+00 0.0000000e+00 
0.0000000e+00 0.0000000e+00 0.0000000e+00 
0.0000000e+00 0.0000000e+00 0.0000000e+00 
0.0000000e+00 0.0000000e+00 0.0000000e+00 
0.0000000e+00 0.0000000e+00 0.0000000e+00 
0.0000000e+00 0.0000000e+00 0.0000000e+00 
0.0000000e+00 0.0000000e+00 0.0000000e+00 
0.0000000e+00 0.0000000e+00 0.0000000e+00 
0.0000000e+00 0.0000000e+00 0.0000000e+00 
0.0000000e+00 0.0000000e+00 0.0000000e+00 
0.0000000e+00 0.0000000e+00 0.0000000e+00 
0.0000000e+00 0.0000000e+00 0.0000000e+00 
0.0000000e+00 0.0000000e+00 0.0000000e+00 
0.0000000e+00 0.0000000e+00 0.0000000e+00 
0.0000000e+00 0.0000000e+00 0.0000000e+00 
0.0000000e+00 0.0000000e+00 0.0000000e+00 
0.0000000e+00 0.0000000e+00 0.0000000e+00 
0.0000000e+00 0.0000000e+00 0.0000000e+00 
0.0000000e+00 0.0000000e+00 0.0000000e+00 
0.0000000e+00 0.0000000e+00 0.0000000e+00 
0.0000000e+00 0.0000000e+00 0.0000000e+00 
0.0000000e+00 0.0000000e+00 0.0000000e+00 
0.0000000e+00 0.0000000e+00 0.0000000e+00 
0.0000000e+00 0.0000000e+00 0.0000000e+00 
0.0000000e+00 0.0000000e+00 0.0000000e+00 
0.0000000e+00 0.0000000e+00 0.0000000e+00 
0.0000000e+00 0.0000000e+00 0.0000000e+00 
0.0000000e+00 0.0000000e+00 0.0000000e+00 
0.0000000e+00 0.0000000e+00 0.0000000e+00 
0.0000000e+00 0.0000000e+00 0.0000000e+00 
0.0000000e+00 0.0000000e+00 0.0000000e+00 
0.0000000e+00 0.0000000e+00 0.0000000e+00 
0.0000000e+00 0.0000000e+00 0.0000000e+00 
0.0000000e+00 0.0000000e+00 0.0000000e+00 
0.0000000e+00 0.0000000e+00 0.0000000e+00 
0.0000000e+00 0.0000000e+00 0.0000000e+00 
0.0000000e+00 0.0000000e+00 0.0000000e+00 
0.0000000e+00 0.0000000e+00 0.0000000e+00 
0.0000000e+00 0.0000000e+00 0.0000000e+00 
0.0000000e+00 0.0000000e+00 0.0000000e+00 
0.0000000e+00 0.0000000e+00 0.0000000e+00 
0.0000000e+00 0.0000000e+00 0.0000000e+00 
0.0000000e+00 0.0000000e+00 0.0000000e+00 
0.0000000e+00 0.0000000e+00 0.0000000e+00 
0.0000000e+00 0.0000000e+00 0.0000000e+00 
0.0000000e+00 0.0000000e+00 0.0000000e+00 
0.0000000e+00 0.0000000e+00 0.0000000e+00 
0.0000000e+00 0.0000000e+00 0.0000000e+00 
0.0000000e+00 0.0000000e+00 0.0000000e+00 
0.0000000e+00 0.0000000e+00 0.0000000e+00 
0.0000000e+00 0.0000000e+00 0.0000000e+00 
0.0000000e+00 0.0000000e+00 0.0000000e+00 
0.0000000e+00 0.0000000e+00 0.0000000e+00 
0.0000000e+00 0.0000000e+00 0.0000000e+00 
0.0000000e+00 0.0000000e+00 0.0000000e+00 
0.0000000e+00 0.0000000e+00 0.0000000e+00 
0.0000000e+00 0.0000000e+00 0.0000000e+00 
0.0000000e+00 0.0000000e+00 0.0000000e+00 
0.0000000e+00 3.0800538e-06 0.0000000e+00 
0.0000000e+00 1.5218689e-05 0.0000000e+00 
0.0000000e+00 -1.3953905e-06 0.0000000e+00 
0.0000000e+00 -9.8462069e-06 0.0000000e+00 
0.0000000e+00 -5.4933702e-05 0.0000000e+00 
0.0000000e+00 -6.7312489e-05 0.0000000e+00 
0.0000000e+00 -4.7409012e-05 0.0000000e+00 
0.0000000e+00 -8.4557345e-05 0.0000000e+00 
0.0000000e+00 -1.4672379e-04 0.0000000e+00 
0.0000000e+00 -2.3547201e-04 0.0000000e+00 
0.0000000e+00 -1.5626899e-04 0.0000000e+00 
0.0000000e+00 -1.4698936e-04 0.0000000e+00 
0.0000000e+00 -1.8622902e-04 0.0000000e+00 
0.0000000e+00 -2.2266984e-04 0.0000000e+00 
0.0000000e+00 -3.0216039e-04 0.0000000e+00 
0.0000000e+00 -2.0555669e-04 0.0000000e+00 
0.0000000e+00 -1.6398181e-04 0.0000000e+00 
0.0000000e+00 -1.1210276e-04 0.0000000e+00 
0.0000000e+00 1.1766625e-04 0.0000000e+00 
0.0000000e+00 5.3941735e-06 0.0000000e+00 
0.0000000e+00 1.5971440e-05 0.0000000e+00 
0.0000000e+00 2.9199216e-06 0.0000000e+00 
0.0000000e+00 2.7256413e-06 0.0000000e+00 
0.0000000e+00 -2.2437818e-05 0.0000000e+00 
0.0000000e+00 -5.0189956e-05 0.0000000e+00 
0.0000000e+00 -3.3118122e-05 0.0000000e+00 
0.0000000e+00 -5.3716270e-05 0.0000000e+00 
0.0000000e+00 -8.9070185e-05 0.0000000e+00 
0.0000000e+00 -1.6555126e-04 0.0000000e+00 
0.0000000e+00 -1.5603140e-04 0.0000000e+00 
0.0000000e+00 -1.4535239e-04 0.0000000e+00 
0.0000000e+00 -1.4586397e-04 0.0000000e+00 
0.0000000e+00 -1.6846819e-04 0.0000000e+00 
0.0000000e+00 -2.4322839e-04 0.0000000e+00 
0.0000000e+00 -2.2554127e-04 0.0000000e+00 
0.0000000e+00 -1.5287779e-04 0.0000000e+00 
0.0000000e+00 -1.1378854e-04 0.0000000e+00 
0.0000000e+00 3.7564099e-05 0.0000000e+00 
0.0000000e+00 2.9369493e-04 0.0000000e+00 
0.0000000e+00 -2.8434587e-01 0.0000000e+00 
0.0000000e+00 -2.4101052e-01 0.0000000e+00 
0.0000000e+00 -1.3596143e-01 0.0000000e+00 
0.0000000e+00 1.8027641e-01 0.0000000e+00 
0.0000000e+00 4.4098333e-01 0.0000000e+00 
0.0000000e+00 2.8852674e-01 0.0000000e+00 
0.0000000e+00 2.1719241e-01 0.0000000e+00 
0.0000000e+00 1.9844629e-01 0.0000000e+00 
0.0000000e+00 2.1732692e-01 0.0000000e+00 
0.0000000e+00 2.2712775e-01 0.0000000e+00 
0.0000000e+00 2.3148818e-01 0.0000000e+00 
0.0000000e+00 2.0040725e-01 0.0000000e+00 
0.0000000e+00 1.9560710e-01 0.0000000e+00 
0.0000000e+00 1.9454168e-01 0.0000000e+00 
0.0000000e+00 2.2752014e-01 0.0000000e+00 
0.0000000e+00 2.0953274e-01 0.0000000e+00 
0.0000000e+00 1.2283905e-01 0.0000000e+00 
0.0000000e+00 7.8050822e-02 0.0000000e+00 
0.0000000e+00 3.9131798e-02 0.0000000e+00 
0.0000000e+00 -2.8364685e-01 0.0000000e+00 
0.0000000e+00 -2.6944500e-01 0.0000000e+00 
0.0000000e+00 -2.0346114e-01 0.0000000e+00 
0.0000000e+00 -5.9468872e-03 0.0000000e+00 
0.0000000e+00 3.6122102e-01 0.0000000e+00 
0.0000000e+00 3.8910839e-01 0.0000000e+00 
0.0000000e+00 2.3441002e-01 0.0000000e+00 
0.0000000e+00 2.0429875e-01 0.0000000e+00 
0.0000000e+00 2.0481431e-01 0.0000000e+00 
0.0000000e+00 2.2719102e-01 0.0000000e+00 
0.0000000e+00 2.3072408e-01 0.0000000e+00 
0.0000000e+00 2.1513897e-01 0.0000000e+00 
0.0000000e+00 1.9508673e-01 0.0000000e+00 
0.0000000e+00 1.9745070e-01 0.0000000e+00 
0.0000000e+00 2.0761696e-01 0.0000000e+00 
0.0000000e+00 2.3348047e-01 0.0000000e+00 
0.0000000e+00 1.6663432e-01 0.0000000e+00 
0.0000000e+00 9.3771361e-02 0.0000000e+00 
0.0000000e+00 5.9639249e-02 0.0000000e+00 
0.0000000e+00 1.6306113e-02 0.0000000e+00 
0.0000000e+00 0.0000000e+00 0.0000000e+00 
0.0000000e+00 0.0000000e+00 0.0000000e+00 
0.0000000e+00 0.0000000e+00 0.0000000e+00 
0.0000000e+00 0.0000000e+00 0.0000000e+00 
0.0000000e+00 0.0000000e+00 0.0000000e+00 
0.0000000e+00 0.0000000e+00 0.0000000e+00 
0.0000000e+00 0.0000000e+00 0.0000000e+00 
0.0000000e+00 0.0000000e+00 0.0000000e+00 
0.0000000e+00 0.0000000e+00 0.0000000e+00 
0.0000000e+00 0.0000000e+00 0.0000000e+00 
0.0000000e+00 0.0000000e+00 0.0000000e+00 
0.0000000e+00 0.0000000e+00 0.0000000e+00 
0.0000000e+00 0.0000000e+00 0.0000000e+00 
0.0000000e+00 0.0000000e+00 0.0000000e+00 
0.0000000e+00 0.0000000e+00 0.0000000e+00 
0.0000000e+00 0.0000000e+00 0.0000000e+00 
0.0000000e+00 0.0000000e+00 0.0000000e+00 
0.0000000e+00 0.0000000e+00 0.0000000e+00 
0.0000000e+00 0.0000000e+00 0.0000000e+00 
0.0000000e+00 0.0000000e+00 0.0000000e+00 
0.0000000e+00 0.0000000e+00 0.0000000e+00 
0.0000000e+00 0.0000000e+00 0.0000000e+00 
0.0000000e+00 0.0000000e+00 0.0000000e+00 
0.0000000e+00 0.0000000e+00 0.0000000e+00 
0.0000000e+00 0.0000000e+00 0.0000000e+00 
0.0000000e+00 0.0000000e+00 0.0000000e+00 
0.0000000e+00 0.0000000e+00 0.0000000e+00 
0.0000000e+00 0.0000000e+00 0.0000000e+00 
0.0000000e+00 0.0000000e+00 0.0000000e+00 
0.0000000e+00 0.0000000e+00 0.0000000e+00 
0.0000000e+00 0.0000000e+00 0.0000000e+00 
0.0000000e+00 0.0000000e+00 0.0000000e+00 
0.0000000e+00 0.0000000e+00 0.0000000e+00 
0.0000000e+00 0.0000000e+00 0.0000000e+00 
0.0000000e+00 0.0000000e+00 0.0000000e+00 
0.0000000e+00 0.0000000e+00 0.0000000e+00 
0.0000000e+00 0.0000000e+00 0.0000000e+00 
0.0000000e+00 0.0000000e+00 0.0000000e+00 
0.0000000e+00 0.0000000e+00 0.0000000e+00 
0.0000000e+00 0.0000000e+00 0.0000000e+00 
0.0000000e+00 0.0000000e+00 0.0000000e+00 
0.0000000e+00 0.0000000e+00 0.0000000e+00 
0.0000000e+00 0.0000000e+00 0.0000000e+00 
0.0000000e+00 0.0000000e+00 0.0000000e+00 
0.0000000e+00 0.0000000e+00 0.0000000e+00 
0.0000000e+00 0.0000000e+00 0.0000000e+00 
0.0000000e+00 0.0000000e+00 0.0000000e+00 
0.0000000e+00 0.0000000e+00 0.0000000e+00 
0.0000000e+00 0.0000000e+00 0.0000000e+00 
0.0000000e+00 0.0000000e+00 0.0000000e+00 
0.0000000e+00 0.0000000e+00 0.0000000e+00 
0.0000000e+00 0.0000000e+00 0.0000000e+00 
0.0000000e+00 0.0000000e+00 0.0000000e+00 
0.0000000e+00 0.0000000e+00 0.0000000e+00 
0.0000000e+00 0.0000000e+00 0.0000000e+00 
0.0000000e+00 0.0000000e+00 0.0000000e+00 
0.0000000e+00 0.0000000e+00 0.0000000e+00 
0.0000000e+00 0.0000000e+00 0.0000000e+00 
0.0000000e+00 0.0000000e+00 0.0000000e+00 
0.0000000e+00 0.0000000e+00 0.0000000e+00 
0.0000000e+00 0.0000000e+00 0.0000000e+00 
0.0000000e+00 0.0000000e+00 0.0000000e+00 
0.0000000e+00 0.0000000e+00 0.0000000e+00 
0.0000000e+00 0.0000000e+00 0.0000000e+00 
0.0000000e+00 0.0000000e+00 0.0000000e+00 
0.0000000e+00 0.0000000e+00 0.0000000e+00 
0.0000000e+00 0.0000000e+00 0.0000000e+00 
0.0000000e+00 0.0000000e+00 0.0000000e+00 
0.0000000e+00 0.0000000e+00 0.0000000e+00 
0.0000000e+00 0.0000000e+00 0.0000000e+00 
0.0000000e+00 0.0000000e+00 0.0000000e+00 
0.0000000e+00 0.0000000e+00 0.0000000e+00 
0.0000000e+00 0.0000000e+00 0.0000000e+00 
0.0000000e+00 0.0000000e+00 0.0000000e+00 
0.0000000e+00 0.0000000e+00 0.0000000e+00 
0.0000000e+00 0.0000000e+00 0.0000000e+00 
0.0000000e+00 0.0000000e+00 0.0000000e+00 
0.0000000e+00 0.0000000e+00 0.0000000e+00 
0.0000000e+00 0.0000000e+00 0.0000000e+00 
0.0000000e+00 0.0000000e+00 0.0000000e+00 
0.0000000e+00 0.0000000e+00 0.0000000e+00 
0.0000000e+00 0.0000000e+00 0.0000000e+00 
0.0000000e+00 0.0000000e+00 0.0000000e+00 
0.0000000e+00 0.0000000e+00 0.0000000e+00 
0.0000000e+00 0.0000000e+00 0.0000000e+00 
0.0000000e+00 7.6123438e-04 -1.8098150e-06 
0.0000000e+00 7.3041080e-04 -3.6219040e-05 
0.0000000e+00 7.4134237e-04 2.6452670e-05 
0.0000000e+00 7.8442545e-06 0.0000000e+00 
0.0000000e+00 8.1535291e-06 0.0000000e+00 
0.0000000e+00 -1.1202725e-05 0.0000000e+00 
0.0000000e+00 3.0666970e-06 0.0000000e+00 
0.0000000e+00 -5.3457621e-05 0.0000000e+00 
0.0000000e+00 -5.9898270e-05 0.0000000e+00 
0.0000000e+00 -6.2118153e-05 0.0000000e+00 
0.0000000e+00 -6.3871019e-05 0.0000000e+00 
0.0000000e+00 -1.4454623e-04 0.0000000e+00 
0.0000000e+00 -2.1716869e-04 0.0000000e+00 
0.0000000e+00 -1.5430200e-04 0.0000000e+00 
0.0000000e+00 -1.5320531e-04 0.0000000e+00 
0.0000000e+00 -1.9014777e-04 0.0000000e+00 
0.0000000e+00 -2.2037835e-04 0.0000000e+00 
0.0000000e+00 -2.4907870e-04 0.0000000e+00 
0.0000000e+00 -2.1244543e-04 0.0000000e+00 
0.0000000e+00 -1.8447440e-04 0.0000000e+00 
0.0000000e+00 -6.9397538e-05 0.0000000e+00 
0.0000000e+00 1.1317749e-04 0.0000000e+00 
0.0000000e+00 8.7855615e-06 0.0000000e+00 
0.0000000e+00 1.3625368e-05 0.0000000e+00 
0.0000000e+00 -2.2321053e-06 0.0000000e+00 
0.0000000e+00 8.3753011e-06 0.0000000e+00 
0.0000000e+00 -2.0663068e-05 0.0000000e+00 
0.0000000e+00 -4.1114083e-05 0.0000000e+00 
0.0000000e+00 -4.3076143e-05 0.0000000e+00 
0.0000000e+00 -4.7102796e-05 0.0000000e+00 
0.0000000e+00 -8.1623730e-05 0.0000000e+00 
0.0000000e+00 -1.5094345e-04 0.0000000e+00 
0.0000000e+00 -1.4988000e-04 0.0000000e+00 
0.0000000e+00 -1.4739347e-04 0.0000000e+00 
0.0000000e+00 -1.5559171e-04 0.0000000e+00 
0.0000000e+00 -1.6302060e-04 0.0000000e+00 
0.0000000e+00 -2.1992407e-04 0.0000000e+00 
0.0000000e+00 -2.1094452e-04 0.0000000e+00 
0.0000000e+00 -1.5897838e-04 0.0000000e+00 
0.0000000e+00 -8.8028552e-05 0.0000000e+00 
0.0000000e+00 2.7580303e-05 0.0000000e+00 
0.0000000e+00 3.3563451e-04 0.0000000e+00 
0.0000000e+00 -2.8859702e-01 -1.5370741e-03 
0.0000000e+00 -2.8323251e-01 -1.5910494e-03 
0.0000000e+00 -2.8595063e-01 -3.2085292e-03 
0.0000000e+00 -2.8375983e-01 0.0000000e+00 
0.0000000e+00 -2.4444246e-01 0.0000000e+00 
0.0000000e+00 -1.3494158e-01 0.0000000e+00 
0.0000000e+00 1.8050554e-01 0.0000000e+00 
0.0000000e+00 4.4258964e-01 0.0000000e+00 
0.0000000e+00 2.9306719e-01 0.0000000e+00 
0.0000000e+00 2.1465397e-01 0.0000000e+00 
0.0000000e+00 1.9273451e-01 0.0000000e+00 
0.0000000e+00 2.1969604e-01 0.0000000e+00 
0.0000000e+00 2.2369738e-01 0.0000000e+00 
0.0000000e+00 2.3634106e-01 0.0000000e+00 
0.0000000e+00 1.9734266e-01 0.0000000e+00 
0.0000000e+00 1.9634254e-01 0.0000000e+00 
0.0000000e+00 1.9532621e-01 0.0000000e+00 
0.0000000e+00 2.2699594e-01 0.0000000e+00 
0.0000000e+00 2.0898509e-01 0.0000000e+00 
0.0000000e+00 1.2249418e-01 0.0000000e+00 
0.0000000e+00 7.5941093e-02 0.0000000e+00 
0.0000000e+00 4.0415358e-02 0.0000000e+00 
0.0000000e+00 -2.8321403e-01 0.0000000e+00 
0.0000000e+00 -2.7022979e-01 0.0000000e+00 
0.0000000e+00 -2.0564461e-01 0.0000000e+00 
0.0000000e+00 -5.4902127e-03 0.0000000e+00 
0.0000000e+00 3.6215928e-01 0.0000000e+00 
0.0000000e+00 3.9170095e-01 0.0000000e+00 
0.0000000e+00 2.3688963e-01 0.0000000e+00 
0.0000000e+00 1.9788569e-01 0.0000000e+00 
0.0000000e+00 2.0614219e-01 0.0000000e+00 
0.0000000e+00 2.2484693e-01 0.0000000e+00 
0.0000000e+00 2.3098791e-01 0.0000000e+00 
0.0000000e+00 2.1718131e-01 0.0000000e+00 
0.0000000e+00 1.9309555e-01 0.0000000e+00 
0.0000000e+00 1.9808370e-01 0.0000000e+00 
0.0000000e+00 2.0870827e-01 0.0000000e+00 
0.0000000e+00 2.3267612e-01 0.0000000e+00 
0.0000000e+00 1.6596839e-01 0.0000000e+00 
0.0000000e+00 9.3386367e-02 0.0000000e+00 
0.0000000e+00 5.8560032e-02 0.0000000e+00 
0.0000000e+00 1.7396437e-02 0.0000000e+00 
1.8264732e-04 -2.8504694e-01 0.0000000e+00 
-3.1964688e-04 -2.8203073e-01 0.0000000e+00 
1.3717439e-03 -2.8835407e-01 0.0000000e+00 
4.8550642e-03 -2.9021701e-01 -3.1405941e-03 
2.0941708e-03 -2.8989318e-01 -1.2360791e-03 
1.7482621e-03 -2.8618935e-01 -2.5206306e-03 
-6.1070831e-03 -2.8373533e-01 0.0000000e+00 
-2.6617255e-03 -2.8350565e-01 0.0000000e+00 
-3.6631254e-03 -2.8403431e-01 0.0000000e+00 
5.8027874e-03 1.5043281e-03 0.0000000e+00 
2.1886395e-02 4.8657716e-03 0.0000000e+00 
5.8346443e-02 1.3452504e-02 0.0000000e+00 
9.8525509e-02 2.2356492e-02 0.0000000e+00 
1.1634685e-01 2.2951737e-02 0.0000000e+00 
1.0963313e-01 2.2389019e-02 0.0000000e+00 
7.5810313e-02 1.5073486e-02 0.0000000e+00 
3.3590093e-02 2.3694041e-03 0.0000000e+00 
-1.7111988e-03 3.6536094e-03 0.0000000e+00 
-1.4378930e-02 7.9933889e-03 0.0000000e+00 
-4.7702316e-02 -4.3727346e-03 0.0000000e+00 
-4.8826855e-02 4.8387855e-02 0.0000000e+00 
-7.4055336e-02 -2.4962675e-02 0.0000000e+00 
-7.3118187e-02 1.1418828e-01 0.0000000e+00 
-1.3853538e-01 4.0149316e-02 0.0000000e+00 
-2.2671629e-02 7.1669623e-02 0.0000000e+00 
-1.2276761e-01 5.6428695e-01 0.0000000e+00 
-5.6549639e-01 4.5546773e-01 0.0000000e+00 
-7.1472484e-01 1.7502749e-01 0.0000000e+00 
-9.0422481e-01 -2.5380436e-01 0.0000000e+00 
-7.5166976e-01 -9.2847514e-01 0.0000000e+00 
-3.1036562e-01 -1.0858238e+00 0.0000000e+00 
-5.1127821e-02 -8.6588120e-01 0.0000000e+00 
6.9168550e-03 -6.3693339e-01 0.0000000e+00 
4.6046404e-03 -5.1405090e-01 0.0000000e+00 
1.2663129e-03 -4.5960766e-01 0.0000000e+00 
6.9497279e-03 -4.2029333e-01 0.0000000e+00 
2.6316342e-03 -3.8348350e-01 0.0000000e+00 
8.9504546e-04 -3.6912414e-01 0.0000000e+00 
-1.9578398e-03 -3.4568793e-01 0.0000000e+00 
-2.1332253e-03 -3.3129659e-01 0.0000000e+00 
-7.3424405e-03 -3.2074326e-01 0.0000000e+00 
4.4223346e-04 -3.2252568e-01 0.0000000e+00 
3.5954905e-03 -2.9779568e-01 0.0000000e+00 
-1.0825220e-02 -2.8447211e-01 0.0000000e+00 
-5.5824728e-03 -2.8996664e-01 0.0000000e+00 
7.1926526e-04 -2.9376608e-01 0.0000000e+00 
2.3887411e-03 8.4718579e-04 0.0000000e+00 
1.1465881e-02 2.5661287e-03 0.0000000e+00 
3.7976913e-02 9.3282210e-03 0.0000000e+00 
8.0094665e-02 1.7523142e-02 0.0000000e+00 
1.0974643e-01 2.3465790e-02 0.0000000e+00 
1.1650070e-01 2.4198672e-02 0.0000000e+00 
9.6759811e-02 1.7637489e-02 0.0000000e+00 
5.1993083e-02 7.1271304e-03 0.0000000e+00 
1.5203099e-02 7.3515801e-03 0.0000000e+00 
-7.3345737e-03 -2.5785537e-03 0.0000000e+00 
-3.5695903e-02 1.3822640e-02 0.0000000e+00 
-3.6180370e-02 6.7742914e-03 0.0000000e+00 
-8.3527431e-02 2.5647078e-02 0.0000000e+00 
-5.0476782e-02 3.5964355e-02 0.0000000e+00 
-1.2413781e-01 9.4993792e-02 0.0000000e+00 
-9.2610985e-02 6.3855406e-03 0.0000000e+00 
3.6119585e-04 2.9851145e-01 0.0000000e+00 
-3.6614296e-01 6.0783643e-01 0.0000000e+00 
-6.5128016e-01 2.8813246e-01 0.0000000e+00 
-8.1699854e-01 1.7060138e-02 0.0000000e+00 
-8.8532174e-01 -6.0903233e-01 0.0000000e+00 
-5.2956009e-01 -1.0835090e+00 0.0000000e+00 
-1.5435168e-01 -9.9474585e-01 0.0000000e+00 
-5.2852319e-03 -7.4059576e-01 0.0000000e+00 
6.2033692e-03 -5.6416374e-01 0.0000000e+00 
2.7770821e-03 -4.8110273e-01 0.0000000e+00 
5.1695188e-03 -4.4186980e-01 0.0000000e+00 
3.8903304e-03 -4.0015391e-01 0.0000000e+00 
1.5782203e-03 -3.7749884e-01 0.0000000e+00 
-6.4539263e-04 -3.5490909e-01 0.0000000e+00 
-2.1513305e-03 -3.3998901e-01 0.0000000e+00 
-3.7814295e-03 -3.2200798e-01 0.0000000e+00 
-4.0008421e-03 -3.2347441e-01 0.0000000e+00 
3.6082626e-03 -3.1096616e-01 0.0000000e+00 
-2.6590521e-03 -2.9257637e-01 0.0000000e+00 
-9.6812285e-03 -2.8750864e-01 0.0000000e+00 
-1.9008273e-03 -2.9219481e-01 0.0000000e+00 
5.5332354e-04 -2.8702691e-01 0.0000000e+00 
-1.3125129e-03 -3.6903155e-01 0.0000000e+00 
1.6845393e-03 -3.8388327e-01 0.0000000e+00 
5.9280144e-03 -4.1982821e-01 0.0000000e+00 
2.4599703e-03 -4.5933041e-01 0.0000000e+00 
3.4452794e-04 -5.1099569e-01 0.0000000e+00 
7.4069141e-03 -6.3161641e-01 0.0000000e+00 
-4.4684459e-02 -8.7836760e-01 0.0000000e+00 
-3.1603491e-01 -1.0950462e+00 0.0000000e+00 
-7.5789481e-01 -9.0610033e-01 0.0000000e+00 
-2.8795917e-03 -3.5905144e-01 0.0000000e+00 
1.4744945e-03 -3.7621993e-01 0.0000000e+00 
1.6455433e-03 -3.9879870e-01 0.0000000e+00 
5.6237662e-03 -4.4099361e-01 0.0000000e+00 
7.9129951e-04 -4.8178959e-01 0.0000000e+00 
4.4519287e-03 -5.5804378e-01 0.0000000e+00 
-4.7445289e-04 -7.4504238e-01 0.0000000e+00 
-1.5287945e-01 -1.0084972e+00 0.0000000e+00 
-5.3817642e-01 -1.0783741e+00 0.0000000e+00 
-8.8182765e-01 -5.9449416e-01 0.0000000e+00 
-7.1087575e-01 1.6098112e-01 0.0000000e+00 
-5.6660557e-01 4.4216797e-01 0.0000000e+00 
-1.2989780e-01 5.7929981e-01 0.0000000e+00 
-1.8338103e-02 6.7924559e-02 0.0000000e+00 
-1.4116240e-01 4.0219236e-02 0.0000000e+00 
-7.2553374e-02 1.0995106e-01 0.0000000e+00 
-7.3086478e-02 -1.8145058e-02 0.0000000e+00 
-5.3320065e-02 4.5934524e-02 0.0000000e+00 
-4.6726603e-02 -6.8360353e-03 0.0000000e+00 
-8.1467855e-01 1.2435958e-02 0.0000000e+00 
-6.4728755e-01 2.7400547e-01 0.0000000e+00 
-3.7075236e-01 6.0891169e-01 0.0000000e+00 
6.2633995e-03 3.0424565e-01 0.0000000e+00 
-9.2732266e-02 1.3655621e-03 0.0000000e+00 
-1.2355223e-01 9.6246578e-02 0.0000000e+00 
-5.1501870e-02 3.6081303e-02 0.0000000e+00 