# vtk DataFile Version 4.0
vtk output
ASCII
DATASET UNSTRUCTURED_GRID
POINTS 3487 float
0.0000000e+00 0.0000000e+00 0.0000000e+00 
2.0000000e+01 0.0000000e+00 0.0000000e+00 
2.0000000e+01 1.0000000e+01 0.0000000e+00 
0.0000000e+00 1.0000000e+01 0.0000000e+00 
0.0000000e+00 0.0000000e+00 1.0000000e+00 
2.0000000e+01 0.0000000e+00 1.0000000e+00 
2.0000000e+01 1.0000000e+01 1.0000000e+00 
0.0000000e+00 1.0000000e+01 1.0000000e+00 
1.0000000e+00 1.0000000e+01 0.0000000e+00 
1.0000000e+00 1.0000000e+01 1.0000000e+00 
5.0000000e+00 1.0000000e+01 0.0000000e+00 
1.0000000e+01 1.0000000e+01 0.0000000e+00 
1.5000000e+01 1.0000000e+01 0.0000000e+00 
1.0000000e+00 0.0000000e+00 0.0000000e+00 
2.0000000e+00 0.0000000e+00 0.0000000e+00 
3.0000000e+00 0.0000000e+00 0.0000000e+00 
4.0000000e+00 0.0000000e+00 0.0000000e+00 
5.0000000e+00 0.0000000e+00 0.0000000e+00 
6.0000000e+00 0.0000000e+00 0.0000000e+00 
7.0000000e+00 0.0000000e+00 0.0000000e+00 
8.0000000e+00 0.0000000e+00 0.0000000e+00 
9.0000000e+00 0.0000000e+00 0.0000000e+00 
1.0000000e+01 0.0000000e+00 0.0000000e+00 
1.1000000e+01 0.0000000e+00 0.0000000e+00 
1.2000000e+01 0.0000000e+00 0.0000000e+00 
1.3000000e+01 0.0000000e+00 0.0000000e+00 
1.4000000e+01 0.0000000e+00 0.0000000e+00 
1.5000000e+01 0.0000000e+00 0.0000000e+00 
1.6000000e+01 0.0000000e+00 0.0000000e+00 
1.7000000e+01 0.0000000e+00 0.0000000e+00 
1.8000000e+01 0.0000000e+00 0.0000000e+00 
1.9000000e+01 0.0000000e+00 0.0000000e+00 
5.0000000e-01 0.0000000e+00 0.0000000e+00 
1.5000000e+00 0.0000000e+00 0.0000000e+00 
2.5000000e+00 0.0000000e+00 0.0000000e+00 
3.5000000e+00 0.0000000e+00 0.0000000e+00 
4.5000000e+00 0.0000000e+00 0.0000000e+00 
5.5000000e+00 0.0000000e+00 0.0000000e+00 
6.5000000e+00 0.0000000e+00 0.0000000e+00 
7.5000000e+00 0.0000000e+00 0.0000000e+00 
8.5000000e+00 0.0000000e+00 0.0000000e+00 
9.5000000e+00 0.0000000e+00 0.0000000e+00 
1.0500000e+01 0.0000000e+00 0.0000000e+00 
1.1500000e+01 0.0000000e+00 0.0000000e+00 
1.2500000e+01 0.0000000e+00 0.0000000e+00 
1.3500000e+01 0.0000000e+00 0.0000000e+00 
1.4500000e+01 0.0000000e+00 0.0000000e+00 
1.5500000e+01 0.0000000e+00 0.0000000e+00 
1.6500000e+01 0.0000000e+00 0.0000000e+00 
1.7500000e+01 0.0000000e+00 0.0000000e+00 
1.8500000e+01 0.0000000e+00 0.0000000e+00 
1.9500000e+01 0.0000000e+00 0.0000000e+00 
2.0000000e+01 1.0000000e+00 0.0000000e+00 
2.0000000e+01 2.0000000e+00 0.0000000e+00 
2.0000000e+01 3.0000000e+00 0.0000000e+00 
2.0000000e+01 4.0000000e+00 0.0000000e+00 
2.0000000e+01 5.0000000e+00 0.0000000e+00 
2.0000000e+01 6.0000000e+00 0.0000000e+00 
2.0000000e+01 7.0000000e+00 0.0000000e+00 
2.0000000e+01 8.0000000e+00 0.0000000e+00 
2.0000000e+01 9.0000000e+00 0.0000000e+00 
2.0000000e+01 5.0000000e-01 0.0000000e+00 
2.0000000e+01 1.5000000e+00 0.0000000e+00 
2.0000000e+01 2.5000000e+00 0.0000000e+00 
2.0000000e+01 3.5000000e+00 0.0000000e+00 
2.0000000e+01 4.5000000e+00 0.0000000e+00 
2.0000000e+01 5.5000000e+00 0.0000000e+00 
2.0000000e+01 6.5000000e+00 0.0000000e+00 
2.0000000e+01 7.5000000e+00 0.0000000e+00 
2.0000000e+01 8.5000000e+00 0.0000000e+00 
2.0000000e+01 9.5000000e+00 0.0000000e+00 
0.0000000e+00 9.0000000e+00 0.0000000e+00 
0.0000000e+00 8.0000000e+00 0.0000000e+00 
0.0000000e+00 7.0000000e+00 0.0000000e+00 
0.0000000e+00 6.0000000e+00 0.0000000e+00 
0.0000000e+00 5.0000000e+00 0.0000000e+00 
0.0000000e+00 4.0000000e+00 0.0000000e+00 
0.0000000e+00 3.0000000e+00 0.0000000e+00 
0.0000000e+00 2.0000000e+00 0.0000000e+00 
0.0000000e+00 1.0000000e+00 0.0000000e+00 
0.0000000e+00 9.5000000e+00 0.0000000e+00 
0.0000000e+00 8.5000000e+00 0.0000000e+00 
0.0000000e+00 7.5000000e+00 0.0000000e+00 
0.0000000e+00 6.5000000e+00 0.0000000e+00 
0.0000000e+00 5.5000000e+00 0.0000000e+00 
0.0000000e+00 4.5000000e+00 0.0000000e+00 
0.0000000e+00 3.5000000e+00 0.0000000e+00 
0.0000000e+00 2.5000000e+00 0.0000000e+00 
0.0000000e+00 1.5000000e+00 0.0000000e+00 
0.0000000e+00 5.0000000e-01 0.0000000e+00 
0.0000000e+00 0.0000000e+00 5.0000000e-01 
2.0000000e+01 0.0000000e+00 5.0000000e-01 
1.0000000e+00 0.0000000e+00 1.0000000e+00 
2.0000000e+00 0.0000000e+00 1.0000000e+00 
3.0000000e+00 0.0000000e+00 1.0000000e+00 
4.0000000e+00 0.0000000e+00 1.0000000e+00 
5.0000000e+00 0.0000000e+00 1.0000000e+00 
6.0000000e+00 0.0000000e+00 1.0000000e+00 
7.0000000e+00 0.0000000e+00 1.0000000e+00 
8.0000000e+00 0.0000000e+00 1.0000000e+00 
9.0000000e+00 0.0000000e+00 1.0000000e+00 
1.0000000e+01 0.0000000e+00 1.0000000e+00 
1.1000000e+01 0.0000000e+00 1.0000000e+00 
1.2000000e+01 0.0000000e+00 1.0000000e+00 
1.3000000e+01 0.0000000e+00 1.0000000e+00 
1.4000000e+01 0.0000000e+00 1.0000000e+00 
1.5000000e+01 0.0000000e+00 1.0000000e+00 
1.6000000e+01 0.0000000e+00 1.0000000e+00 
1.7000000e+01 0.0000000e+00 1.0000000e+00 
1.8000000e+01 0.0000000e+00 1.0000000e+00 
1.9000000e+01 0.0000000e+00 1.0000000e+00 
5.0000000e-01 0.0000000e+00 1.0000000e+00 
1.5000000e+00 0.0000000e+00 1.0000000e+00 
2.5000000e+00 0.0000000e+00 1.0000000e+00 
3.5000000e+00 0.0000000e+00 1.0000000e+00 
4.5000000e+00 0.0000000e+00 1.0000000e+00 
5.5000000e+00 0.0000000e+00 1.0000000e+00 
6.5000000e+00 0.0000000e+00 1.0000000e+00 
7.5000000e+00 0.0000000e+00 1.0000000e+00 
8.5000000e+00 0.0000000e+00 1.0000000e+00 
9.5000000e+00 0.0000000e+00 1.0000000e+00 
1.0500000e+01 0.0000000e+00 1.0000000e+00 
1.1500000e+01 0.0000000e+00 1.0000000e+00 
1.2500000e+01 0.0000000e+00 1.0000000e+00 
1.3500000e+01 0.0000000e+00 1.0000000e+00 
1.4500000e+01 0.0000000e+00 1.0000000e+00 
1.5500000e+01 0.0000000e+00 1.0000000e+00 
1.6500000e+01 0.0000000e+00 1.0000000e+00 
1.7500000e+01 0.0000000e+00 1.0000000e+00 
1.8500000e+01 0.0000000e+00 1.0000000e+00 
1.9500000e+01 0.0000000e+00 1.0000000e+00 
2.0000000e+01 1.0000000e+01 5.0000000e-01 
2.0000000e+01 1.0000000e+00 1.0000000e+00 
2.0000000e+01 2.0000000e+00 1.0000000e+00 
2.0000000e+01 3.0000000e+00 1.0000000e+00 
2.0000000e+01 4.0000000e+00 1.0000000e+00 
2.0000000e+01 5.0000000e+00 1.0000000e+00 
2.0000000e+01 6.0000000e+00 1.0000000e+00 
2.0000000e+01 7.0000000e+00 1.0000000e+00 
2.0000000e+01 8.0000000e+00 1.0000000e+00 
2.0000000e+01 9.0000000e+00 1.0000000e+00 
2.0000000e+01 5.0000000e-01 1.0000000e+00 
2.0000000e+01 1.5000000e+00 1.0000000e+00 
2.0000000e+01 2.5000000e+00 1.0000000e+00 
2.0000000e+01 3.5000000e+00 1.0000000e+00 
2.0000000e+01 4.5000000e+00 1.0000000e+00 
2.0000000e+01 5.5000000e+00 1.0000000e+00 
2.0000000e+01 6.5000000e+00 1.0000000e+00 
2.0000000e+01 7.5000000e+00 1.0000000e+00 
2.0000000e+01 8.5000000e+00 1.0000000e+00 
2.0000000e+01 9.5000000e+00 1.0000000e+00 
0.0000000e+00 1.0000000e+01 5.0000000e-01 
0.0000000e+00 9.0000000e+00 1.0000000e+00 
0.0000000e+00 8.0000000e+00 1.0000000e+00 
0.0000000e+00 7.0000000e+00 1.0000000e+00 
0.0000000e+00 6.0000000e+00 1.0000000e+00 
0.0000000e+00 5.0000000e+00 1.0000000e+00 
0.0000000e+00 4.0000000e+00 1.0000000e+00 
0.0000000e+00 3.0000000e+00 1.0000000e+00 
0.0000000e+00 2.0000000e+00 1.0000000e+00 
0.0000000e+00 1.0000000e+00 1.0000000e+00 
0.0000000e+00 9.5000000e+00 1.0000000e+00 
0.0000000e+00 8.5000000e+00 1.0000000e+00 
0.0000000e+00 7.5000000e+00 1.0000000e+00 
0.0000000e+00 6.5000000e+00 1.0000000e+00 
0.0000000e+00 5.5000000e+00 1.0000000e+00 
0.0000000e+00 4.5000000e+00 1.0000000e+00 
0.0000000e+00 3.5000000e+00 1.0000000e+00 
0.0000000e+00 2.5000000e+00 1.0000000e+00 
0.0000000e+00 1.5000000e+00 1.0000000e+00 
0.0000000e+00 5.0000000e-01 1.0000000e+00 
5.0000000e-01 1.0000000e+01 0.0000000e+00 
1.0000000e+00 1.0000000e+01 5.0000000e-01 
5.0000000e-01 1.0000000e+01 1.0000000e+00 
1.9000000e+01 1.0000000e+01 1.0000000e+00 
1.8000000e+01 1.0000000e+01 1.0000000e+00 
1.7000000e+01 1.0000000e+01 1.0000000e+00 
1.6000000e+01 1.0000000e+01 1.0000000e+00 
1.5000000e+01 1.0000000e+01 1.0000000e+00 
1.4000000e+01 1.0000000e+01 1.0000000e+00 
1.3000000e+01 1.0000000e+01 1.0000000e+00 
1.2000000e+01 1.0000000e+01 1.0000000e+00 
1.1000000e+01 1.0000000e+01 1.0000000e+00 
1.0000000e+01 1.0000000e+01 1.0000000e+00 
9.0000000e+00 1.0000000e+01 1.0000000e+00 
8.0000000e+00 1.0000000e+01 1.0000000e+00 
7.0000000e+00 1.0000000e+01 1.0000000e+00 
6.0000000e+00 1.0000000e+01 1.0000000e+00 
5.0000000e+00 1.0000000e+01 1.0000000e+00 
4.0000000e+00 1.0000000e+01 1.0000000e+00 
3.0000000e+00 1.0000000e+01 1.0000000e+00 
2.0000000e+00 1.0000000e+01 1.0000000e+00 
1.9500000e+01 1.0000000e+01 1.0000000e+00 
1.8500000e+01 1.0000000e+01 1.0000000e+00 
1.7500000e+01 1.0000000e+01 1.0000000e+00 
1.6500000e+01 1.0000000e+01 1.0000000e+00 
1.5500000e+01 1.0000000e+01 1.0000000e+00 
1.4500000e+01 1.0000000e+01 1.0000000e+00 
1.3500000e+01 1.0000000e+01 1.0000000e+00 
1.2500000e+01 1.0000000e+01 1.0000000e+00 
1.1500000e+01 1.0000000e+01 1.0000000e+00 
1.0500000e+01 1.0000000e+01 1.0000000e+00 
9.5000000e+00 1.0000000e+01 1.0000000e+00 
8.5000000e+00 1.0000000e+01 1.0000000e+00 
7.5000000e+00 1.0000000e+01 1.0000000e+00 
6.5000000e+00 1.0000000e+01 1.0000000e+00 
5.5000000e+00 1.0000000e+01 1.0000000e+00 
4.5000000e+00 1.0000000e+01 1.0000000e+00 
3.5000000e+00 1.0000000e+01 1.0000000e+00 
2.5000000e+00 1.0000000e+01 1.0000000e+00 
1.5000000e+00 1.0000000e+01 1.0000000e+00 
6.0000000e+00 1.0000000e+01 0.0000000e+00 
7.0000000e+00 1.0000000e+01 0.0000000e+00 
8.0000000e+00 1.0000000e+01 0.0000000e+00 
9.0000000e+00 1.0000000e+01 0.0000000e+00 
5.5000000e+00 1.0000000e+01 0.0000000e+00 
6.5000000e+00 1.0000000e+01 0.0000000e+00 
7.5000000e+00 1.0000000e+01 0.0000000e+00 
8.5000000e+00 1.0000000e+01 0.0000000e+00 
9.5000000e+00 1.0000000e+01 0.0000000e+00 
1.1000000e+01 1.0000000e+01 0.0000000e+00 
1.2000000e+01 1.0000000e+01 0.0000000e+00 
1.3000000e+01 1.0000000e+01 0.0000000e+00 
1.4000000e+01 1.0000000e+01 0.0000000e+00 
1.0500000e+01 1.0000000e+01 0.0000000e+00 
1.1500000e+01 1.0000000e+01 0.0000000e+00 
1.2500000e+01 1.0000000e+01 0.0000000e+00 
1.3500000e+01 1.0000000e+01 0.0000000e+00 
1.4500000e+01 1.0000000e+01 0.0000000e+00 
1.9000000e+01 1.0000000e+01 0.0000000e+00 
[...]
POINT_DATA 3487
FIELD FieldData 1
VELOCITY 3 3487  float
0.0000000e+00 0.0000000e+00 0.0000000e+00 
0.0000000e+00 0.0000000e+00 0.0000000e+00 
0.0000000e+00 1.2176989e-03 0.0000000e+00 
0.0000000e+00 -5.1938063e-01 0.0000000e+00 
0.0000000e+00 0.0000000e+00 0.0000000e+00 
0.0000000e+00 0.0000000e+00 0.0000000e+00 
0.0000000e+00 -4.0412629e-03 0.0000000e+00 
0.0000000e+00 -4.7231326e-01 0.0000000e+00 
1.1344980e-02 -4.5633733e-01 0.0000000e+00 
-8.4443882e-02 -4.9211857e-01 0.0000000e+00 
-2.6501905e-02 -7.1533871e-01 0.0000000e+00 
-7.5067498e-02 -8.6322516e-02 0.0000000e+00 
-3.3913217e-03 7.3985569e-03 0.0000000e+00 
0.0000000e+00 0.0000000e+00 0.0000000e+00 
0.0000000e+00 0.0000000e+00 0.0000000e+00 
0.0000000e+00 0.0000000e+00 0.0000000e+00 
0.0000000e+00 0.0000000e+00 0.0000000e+00 
0.0000000e+00 0.0000000e+00 0.0000000e+00 
0.0000000e+00 0.0000000e+00 0.0000000e+00 
0.0000000e+00 0.0000000e+00 0.0000000e+00 
0.0000000e+00 0.0000000e+00 0.0000000e+00 
0.0000000e+00 0.0000000e+00 0.0000000e+00 
0.0000000e+00 0.0000000e+00 0.0000000e+00 
0.0000000e+00 0.0000000e+00 0.0000000e+00 
0.0000000e+00 0.0000000e+00 0.0000000e+00 
0.0000000e+00 0.0000000e+00 0.0000000e+00 
0.0000000e+00 0.0000000e+00 0.0000000e+00 
0.0000000e+00 0.0000000e+00 0.0000000e+00 
0.0000000e+00 0.0000000e+00 0.0000000e+00 
0.0000000e+00 0.0000000e+00 0.0000000e+00 
0.0000000e+00 0.0000000e+00 0.0000000e+00 
0.0000000e+00 0.0000000e+00 0.0000000e+00 
0.0000000e+00 0.0000000e+00 0.0000000e+00 
0.0000000e+00 0.0000000e+00 0.0000000e+00 
0.0000000e+00 0.0000000e+00 0.0000000e+00 
0.0000000e+00 0.0000000e+00 0.0000000e+00 
0.0000000e+00 0.0000000e+00 0.0000000e+00 
0.0000000e+00 0.0000000e+00 0.0000000e+00 
0.0000000e+00 0.0000000e+00 0.0000000e+00 
0.0000000e+00 0.0000000e+00 0.0000000e+00 
0.0000000e+00 0.0000000e+00 0.0000000e+00 
0.0000000e+00 0.0000000e+00 0.0000000e+00 
0.0000000e+00 0.0000000e+00 0.0000000e+00 
0.0000000e+00 0.0000000e+00 0.0000000e+00 
0.0000000e+00 0.0000000e+00 0.0000000e+00 
0.0000000e+00 0.0000000e+00 0.0000000e+00 
0.0000000e+00 0.0000000e+00 0.0000000e+00 
0.0000000e+00 0.0000000e+00 0.0000000e+00 
0.0000000e+00 0.0000000e+00 0.0000000e+00 
0.0000000e+00 0.0000000e+00 0.0000000e+00 
0.0000000e+00 0.0000000e+00 0.0000000e+00 
0.0000000e+00 0.0000000e+00 0.0000000e+00 
0.0000000e+00 2.6687577e-03 0.0000000e+00 
0.0000000e+00 -2.6932575e-03 0.0000000e+00 
0.0000000e+00 -9.8382101e-05 0.0000000e+00 
0.0000000e+00 -4.2646676e-05 0.0000000e+00 
0.0000000e+00 1.2082134e-04 0.0000000e+00 
0.0000000e+00 -2.0517209e-03 0.0000000e+00 
0.0000000e+00 -1.9921226e-04 0.0000000e+00 
0.0000000e+00 1.6938087e-03 0.0000000e+00 
0.0000000e+00 2.0986078e-03 0.0000000e+00 
0.0000000e+00 5.7709659e-04 0.0000000e+00 
0.0000000e+00 7.9325464e-04 0.0000000e+00 
0.0000000e+00 -1.7633868e-03 0.0000000e+00 
0.0000000e+00 2.8608425e-04 0.0000000e+00 
0.0000000e+00 6.9120107e-04 0.0000000e+00 
0.0000000e+00 -1.0169472e-03 0.0000000e+00 
0.0000000e+00 1.0687571e-03 0.0000000e+00 
0.0000000e+00 -1.1646774e-03 0.0000000e+00 
0.0000000e+00 5.3188665e-04 0.0000000e+00 
0.0000000e+00 2.8868478e-03 0.0000000e+00 
0.0000000e+00 -4.6445298e-01 0.0000000e+00 
0.0000000e+00 -3.9991006e-01 0.0000000e+00 
0.0000000e+00 -4.8668358e-01 0.0000000e+00 
0.0000000e+00 -4.7679535e-01 0.0000000e+00 
0.0000000e+00 -2.4479118e-01 0.0000000e+00 
0.0000000e+00 -7.0915204e-01 0.0000000e+00 
0.0000000e+00 2.7835427e-02 0.0000000e+00 
0.0000000e+00 1.2686370e-01 0.0000000e+00 
0.0000000e+00 5.6633797e-02 0.0000000e+00 
0.0000000e+00 -4.4682607e-01 0.0000000e+00 
0.0000000e+00 -4.3627277e-01 0.0000000e+00 
0.0000000e+00 -4.2308709e-01 0.0000000e+00 
0.0000000e+00 -4.5106378e-01 0.0000000e+00 
0.0000000e+00 -3.9613855e-01 0.0000000e+00 
0.0000000e+00 -4.6920049e-01 0.0000000e+00 
0.0000000e+00 -3.8925606e-01 0.0000000e+00 
0.0000000e+00 1.7817393e-01 0.0000000e+00 
0.0000000e+00 7.1138449e-02 0.0000000e+00 
0.0000000e+00 2.8794896e-02 0.0000000e+00 
0.0000000e+00 0.0000000e+00 0.0000000e+00 
0.0000000e+00 0.0000000e+00 0.0000000e+00 
0.0000000e+00 0.0000000e+00 0.0000000e+00 
0.0000000e+00 0.0000000e+00 0.0000000e+00 
0.0000000e+00 0.0000000e+00 0.0000000e+00 
0.0000000e+00 0.0000000e+00 0.0000000e+00 
0.0000000e+00 0.0000000e+00 0.0000000e+00 
0.0000000e+00 0.0000000e+00 0.0000000e+00 
0.0000000e+00 0.0000000e+00 0.0000000e+00 
0.0000000e+00 0.0000000e+00 0.0000000e+00 
0.0000000e+00 0.0000000e+00 0.0000000e+00 
0.0000000e+00 0.0000000e+00 0.0000000e+00 
0.0000000e+00 0.0000000e+00 0.0000000e+00 
0.0000000e+00 0.0000000e+00 0.0000000e+00 
0.0000000e+00 0.0000000e+00 0.0000000e+00 
0.0000000e+00 0.0000000e+00 0.0000000e+00 
0.0000000e+00 0.0000000e+00 0.0000000e+00 
0.0000000e+00 0.0000000e+00 0.0000000e+00 
0.0000000e+00 0.0000000e+00 0.0000000e+00 
0.0000000e+00 0.0000000e+00 0.0000000e+00 
0.0000000e+00 0.0000000e+00 0.0000000e+00 
0.0000000e+00 0.0000000e+00 0.0000000e+00 
0.0000000e+00 0.0000000e+00 0.0000000e+00 
0.0000000e+00 0.0000000e+00 0.0000000e+00 
0.0000000e+00 0.0000000e+00 0.0000000e+00 
0.0000000e+00 0.0000000e+00 0.0000000e+00 
0.0000000e+00 0.0000000e+00 0.0000000e+00 
0.0000000e+00 0.0000000e+00 0.0000000e+00 
0.0000000e+00 0.0000000e+00 0.0000000e+00 
0.0000000e+00 0.0000000e+00 0.0000000e+00 
0.0000000e+00 0.0000000e+00 0.0000000e+00 
0.0000000e+00 0.0000000e+00 0.0000000e+00 
0.0000000e+00 0.0000000e+00 0.0000000e+00 
0.0000000e+00 0.0000000e+00 0.0000000e+00 
0.0000000e+00 0.0000000e+00 0.0000000e+00 
0.0000000e+00 0.0000000e+00 0.0000000e+00 
0.0000000e+00 0.0000000e+00 0.0000000e+00 
0.0000000e+00 0.0000000e+00 0.0000000e+00 
0.0000000e+00 0.0000000e+00 0.0000000e+00 
0.0000000e+00 0.0000000e+00 0.0000000e+00 
0.0000000e+00 0.0000000e+00 0.0000000e+00 
0.0000000e+00 -4.3415828e-03 9.4192626e-04 
0.0000000e+00 -2.8304944e-03 0.0000000e+00 
0.0000000e+00 2.4709923e-03 0.0000000e+00 
0.0000000e+00 1.1050762e-03 0.0000000e+00 
0.0000000e+00 3.9455593e-03 0.0000000e+00 
0.0000000e+00 -3.5317044e-04 0.0000000e+00 
0.0000000e+00 -3.4357528e-03 0.0000000e+00 
0.0000000e+00 3.7264526e-03 0.0000000e+00 
0.0000000e+00 1.2612202e-03 0.0000000e+00 
0.0000000e+00 2.2015344e-04 0.0000000e+00 
0.0000000e+00 -2.7705848e-03 0.0000000e+00 
0.0000000e+00 -1.2953647e-03 0.0000000e+00 
0.0000000e+00 1.1975971e-03 0.0000000e+00 
0.0000000e+00 1.8166001e-03 0.0000000e+00 
0.0000000e+00 2.4287014e-03 0.0000000e+00 
0.0000000e+00 -2.3546892e-03 0.0000000e+00 
0.0000000e+00 -1.8382305e-03 0.0000000e+00 
0.0000000e+00 2.2364703e-04 0.0000000e+00 
0.0000000e+00 6.7482615e-05 0.0000000e+00 
0.0000000e+00 -6.6586660e-04 0.0000000e+00 
0.0000000e+00 -3.9051497e-01 2.1325964e-02 
0.0000000e+00 -4.1209102e-01 0.0000000e+00 
0.0000000e+00 -4.1121727e-01 0.0000000e+00 
0.0000000e+00 -5.1094913e-01 0.0000000e+00 
0.0000000e+00 -5.1613069e-01 0.0000000e+00 
0.0000000e+00 -3.8235468e-01 0.0000000e+00 
0.0000000e+00 -6.8005997e-01 0.0000000e+00 
0.0000000e+00 7.1462080e-02 0.0000000e+00 
0.0000000e+00 1.6640833e-01 0.0000000e+00 
0.0000000e+00 1.0549110e-02 0.0000000e+00 
0.0000000e+00 -4.3643171e-01 0.0000000e+00 
0.0000000e+00 -3.7866777e-01 0.0000000e+00 
0.0000000e+00 -4.9254742e-01 0.0000000e+00 
0.0000000e+00 -4.6640807e-01 0.0000000e+00 
0.0000000e+00 -5.4274422e-01 0.0000000e+00 
0.0000000e+00 -4.8639804e-01 0.0000000e+00 
0.0000000e+00 -3.5867870e-01 0.0000000e+00 
0.0000000e+00 1.9853209e-01 0.0000000e+00 
0.0000000e+00 4.3804791e-02 0.0000000e+00 
0.0000000e+00 -1.4643757e-02 0.0000000e+00 
1.4478747e-02 -4.3762857e-01 0.0000000e+00 
-1.7605245e-04 -4.4278279e-01 -1.0770913e-02 
-8.5481256e-03 -4.2201725e-01 0.0000000e+00 
-1.4740522e-03 -5.2591139e-03 0.0000000e+00 
-2.0776024e-04 -8.0335588e-04 0.0000000e+00 
1.1085193e-03 5.4048072e-03 0.0000000e+00 
-8.1089325e-03 -3.4426895e-03 0.0000000e+00 
-1.0777374e-02 1.1967847e-02 0.0000000e+00 
2.6825629e-02 5.5689372e-02 0.0000000e+00 
1.4849523e-01 -1.0351424e-02 0.0000000e+00 
1.0681370e-01 -9.4414860e-02 0.0000000e+00 
-9.5247701e-03 1.4616397e-01 0.0000000e+00 
-1.4634279e-02 -8.6291835e-02 0.0000000e+00 
-9.2692710e-02 2.5120306e-01 0.0000000e+00 
-6.6267818e-01 3.1784642e-01 0.0000000e+00 
-8.6789030e-01 -7.1022749e-01 0.0000000e+00 
-2.3000966e-01 -1.1231999e+00 0.0000000e+00 
-2.8141711e-02 -7.9267496e-01 0.0000000e+00 
-3.0997282e-02 -5.3585273e-01 0.0000000e+00 
4.0023129e-02 -4.9180809e-01 0.0000000e+00 
2.8972116e-03 -5.1446962e-01 0.0000000e+00 
1.2938951e-03 3.7597350e-03 0.0000000e+00 
6.0414622e-04 4.0691989e-03 0.0000000e+00 
-4.5290971e-04 4.3454207e-03 0.0000000e+00 
-3.7386608e-03 8.7641383e-04 0.0000000e+00 
3.8622294e-03 3.0689645e-03 0.0000000e+00 
2.0517753e-03 -1.5093459e-02 0.0000000e+00 
5.0576944e-02 -1.4876225e-02 0.0000000e+00 
1.1685335e-01 7.1610115e-02 0.0000000e+00 
1.0841041e-01 9.3006454e-03 0.0000000e+00 
-8.1092693e-02 -3.3236917e-02 0.0000000e+00 
-2.6466236e-02 7.3572040e-02 0.0000000e+00 
-3.1349266e-01 3.9754695e-01 0.0000000e+00 
-9.1696376e-01 -1.2280577e-01 0.0000000e+00 
-5.6833458e-01 -1.0317786e+00 0.0000000e+00 
-6.7809775e-02 -9.0710706e-01 0.0000000e+00 
4.5168931e-03 -5.7763350e-01 0.0000000e+00 
-1.1467765e-02 -5.1278341e-01 0.0000000e+00 
3.0551314e-02 -4.2027301e-01 0.0000000e+00 
-2.9457228e-03 -4.4079301e-01 0.0000000e+00 
-2.1542613e-01 -1.0894352e+00 0.0000000e+00 
-8.5665441e-01 -7.3242569e-01 0.0000000e+00 
-5.9345770e-01 4.1604000e-01 0.0000000e+00 
-3.4578420e-02 2.2000067e-01 0.0000000e+00 
-4.8367556e-02 -8.7928414e-01 0.0000000e+00 
-5.6791550e-01 -1.0376828e+00 0.0000000e+00 
-8.8413578e-01 -9.4404951e-02 0.0000000e+00 
-2.7584285e-01 4.5414907e-01 0.0000000e+00 
-2.4285713e-02 3.0873092e-02 0.0000000e+00 
-1.3554150e-02 7.0942692e-02 0.0000000e+00 
1.0584432e-01 3.7787454e-03 0.0000000e+00 
1.4427890e-01 -2.5310244e-02 0.0000000e+00 
6.2503610e-03 5.2458528e-02 0.0000000e+00 
-6.4686984e-02 2.7364943e-02 0.0000000e+00 
7.9104736e-02 2.3307609e-03 0.0000000e+00 
1.4573435e-01 5.6122340e-02 0.0000000e+00 
4.3534767e-02 -3.1621349e-03 0.0000000e+00 
-3.2848842e-03 -2.0647561e-02 0.0000000e+00 
-3.4241946e-04 6.4961088e-04 0.0000000e+00 
4.3264148e-03 2.5188923e-03 0.0000000e+00 
6.2113102e-03 -8.6973161e-03 0.0000000e+00 
-9.9644829e-03 -1.3888407e-02 0.0000000e+00 
6.2259781e-04 2.1484177e-04 0.0000000e+00 
2.2157660e-04 -3.4799530e-05 0.0000000e+00 
-6.3330228e-03 2.6813666e-03 0.0000000e+00 
2.5466466e-04 7.6993364e-03 0.0000000e+00 
1.0054288e-02 1.3836589e-02 0.0000000e+00 
-1.9620104e-02 -5.7879084e-01 0.0000000e+00 
-7.7110506e-03 -5.7191002e-01 0.0000000e+00 
2.5340829e-02 -3.9413050e-01 0.0000000e+00 
-1.9539315e-02 -6.2494928e-01 0.0000000e+00 
-1.4813072e-02 -4.8685870e-01 0.0000000e+00 
4.5469485e-02 -4.1690332e-01 0.0000000e+00 
-6.8117385e-03 -4.0195957e-01 0.0000000e+00 
-1.7932814e-01 1.0549507e-01 0.0000000e+00 
5.1339772e-03 -8.0149733e-03 0.0000000e+00 
-2.7986577e-01 -8.5065943e-01 0.0000000e+00 
4.6852183e-01 -1.9262360e-01 0.0000000e+00 
-1.0799085e-02 -1.9026222e-02 0.0000000e+00 
-5.9880465e-03 5.4741539e-03 0.0000000e+00 
-2.7580461e-02 -4.5230821e-01 0.0000000e+00 
-1.1833017e-03 3.1862915e-03 0.0000000e+00 
-1.9509071e-02 8.1366949e-02 0.0000000e+00 
-3.0246282e-01 -1.0558852e-01 0.0000000e+00 
7.2524630e-02 -1.8931256e-03 0.0000000e+00 
-2.3448302e-03 2.1996472e-03 0.0000000e+00 
-2.6942655e-02 -4.5632815e-01 0.0000000e+00 
2.1396747e-01 -1.7191036e-01 0.0000000e+00 
3.2008216e-03 1.2236938e-03 0.0000000e+00 
2.0404827e-02 -3.9969200e-01 0.0000000e+00 
-1.1686587e-03 -1.7465962e-03 0.0000000e+00 
8.1476547e-02 2.2185996e-02 0.0000000e+00 
3.6695246e-03 7.7405496e-04 0.0000000e+00 
3.6210053e-02 1.5288419e-01 0.0000000e+00 
-1.1396400e-02 -3.8708052e-01 0.0000000e+00 
-1.4732272e-03 9.8855398e-04 0.0000000e+00 
-4.1793895e-04 1.7839666e-03 0.0000000e+00 
-9.6177779e-02 -6.9564962e-01 0.0000000e+00 
-1.9827938e-01 -7.4884295e-01 0.0000000e+00 
-1.7642410e-01 -1.0091691e+00 0.0000000e+00 
-1.9361907e-01 -8.0768037e-01 0.0000000e+00 
-1.6672018e-01 -9.0187174e-01 0.0000000e+00 
-1.7014788e-01 -8.7594968e-01 0.0000000e+00 
-1.1085247e-01 -4.0900528e-01 0.0000000e+00 
-9.8981127e-02 -5.4795241e-01 0.0000000e+00 
1.7464912e-01 1.2853490e-01 0.0000000e+00 
-2.5723532e-01 -7.9576224e-01 0.0000000e+00 
-1.5655614e-01 -5.5618972e-01 0.0000000e+00 
-2.2884606e-01 -7.8929836e-01 0.0000000e+00 
-1.1850494e-01 -7.3037958e-01 0.0000000e+00 
3.2446429e-02 -4.6242642e-01 0.0000000e+00 
-3.4404832e-01 -7.4181461e-01 0.0000000e+00 
4.6064550e-01 -3.0878021e-03 0.0000000e+00 
-2.1937248e-01 -7.1176004e-01 0.0000000e+00 
6.7021213e-02 2.0194162e-01 0.0000000e+00 
1.7681536e-01 2.4438992e-01 0.0000000e+00 
7.0029244e-02 2.4749517e-01 0.0000000e+00 
1.1075827e-01 4.1430309e-02 0.0000000e+00 
1.2847996e-01 6.5103710e-02 0.0000000e+00 
2.1200053e-01 6.2229179e-02 0.0000000e+00 
1.7987403e-01 4.7849484e-02 0.0000000e+00 
1.9521007e-01 -6.8921708e-02 0.0000000e+00 
1.6823238e-01 -2.8075788e-02 0.0000000e+00 
1.6342990e-01 -7.6169498e-02 0.0000000e+00 
1.1137946e-01 -4.9292758e-02 0.0000000e+00 
2.2591764e-02 8.9685479e-03 0.0000000e+00 
1.0360379e-02 9.2543010e-03 0.0000000e+00 
-6.1068772e-03 2.0782268e-03 0.0000000e+00 
5.6332815e-03 1.2161965e-02 0.0000000e+00 
3.0035435e-03 -1.1675136e-02 0.0000000e+00 
-1.3997202e-03 -8.2734618e-03 0.0000000e+00 
-1.2071572e-02 -3.0031757e-02 0.0000000e+00 
2.3783335e-01 -1.2227622e-01 0.0000000e+00 
-9.8153437e-04 -5.6820395e-03 0.0000000e+00 
-2.6387044e-03 5.6539448e-03 0.0000000e+00 
6.0804680e-02 -3.9059289e-02 0.0000000e+00 
-2.5894258e-03 -5.4520094e-03 0.0000000e+00 
-2.1624663e-01 -7.4196565e-01 0.0000000e+00 
5.5483252e-01 -9.3112826e-02 0.0000000e+00 
1.0167967e-03 4.6207481e-03 0.0000000e+00 
1.7138229e-03 -1.5582237e-03 0.0000000e+00 
1.2659152e-01 5.0052175e-05 0.0000000e+00 
2.7380490e-01 -2.1391956e-02 0.0000000e+00 
-1.2733673e-01 -5.3689855e-01 0.0000000e+00 
-2.0096867e-01 -6.4440882e-01 0.0000000e+00 
4.0091933e-03 1.0886036e-03 0.0000000e+00 
4.1061467e-03 2.4718177e-03 0.0000000e+00 
-7.4052848e-03 3.7627842e-03 0.0000000e+00 
-2.9908016e-01 -5.6552029e-01 0.0000000e+00 
-4.3934058e-02 3.4816605e-01 0.0000000e+00 
-1.5052472e-01 -5.7419890e-01 0.0000000e+00 
-1.6071538e-02 1.3688181e-01 0.0000000e+00 
-7.3797749e-03 -3.8140032e-03 0.0000000e+00 
6.9616560e-04 -4.1125095e-03 0.0000000e+00 
-1.2091183e-01 -5.8627278e-01 0.0000000e+00 
-7.0584729e-02 -5.1236475e-01 0.0000000e+00 
2.8010187e-01 -2.0985389e-01 0.0000000e+00 
6.2187898e-01 8.0728084e-02 0.0000000e+00 
5.6146277e-04 -4.5985645e-03 0.0000000e+00 
3.1503700e-03 -3.1324043e-03 0.0000000e+00 
5.3339666e-03 9.9188567e-04 0.0000000e+00 
6.0651503e-03 3.4243643e-04 0.0000000e+00 
-3.2128789e-03 1.1801244e-03 0.0000000e+00 
2.9721397e-01 3.1512100e-02 0.0000000e+00 
3.0135265e-01 -3.0940600e-02 0.0000000e+00 
4.8602107e-01 -4.7478277e-02 0.0000000e+00 
1.8865632e-01 8.8263325e-02 0.0000000e+00 
-5.3366711e-03 -2.5154809e-03 0.0000000e+00 
-1.2008578e-01 -1.9400607e-01 0.0000000e+00 
4.9764016e-01 1.7503114e-02 0.0000000e+00 
-3.3872626e-03 3.2040020e-04 0.0000000e+00 
1.4018156e-03 -8.1416388e-04 0.0000000e+00 
-6.1210129e-02 -4.4895440e-01 0.0000000e+00 
-6.9220275e-02 -4.5460573e-01 0.0000000e+00 
-5.1815100e-02 -4.7241133e-01 0.0000000e+00 
-3.5503577e-02 -4.9804837e-01 0.0000000e+00 
-1.8196922e-02 -3.9745083e-01 0.0000000e+00 
-2.7431700e-02 -5.3963435e-01 0.0000000e+00 
-8.4454753e-03 1.6064220e-03 0.0000000e+00 
4.3281255e-04 5.7745911e-04 0.0000000e+00 
-3.8937617e-03 -6.8272459e-03 0.0000000e+00 
1.9586397e-02 1.8304328e-02 0.0000000e+00 
3.1775147e-02 -2.3554463e-02 0.0000000e+00 
9.0066619e-02 -3.5158537e-02 0.0000000e+00 
-1.4267540e-01 2.7800837e-01 0.0000000e+00 
-7.8483939e-02 7.0813403e-02 0.0000000e+00 
-9.8351191e-04 -3.5880178e-03 0.0000000e+00 
-6.2436593e-04 1.9462247e-04 0.0000000e+00 
-1.6822318e-03 -6.9732552e-05 0.0000000e+00 
-1.7449782e-03 2.4285557e-05 0.0000000e+00 
3.0749750e-03 1.4668127e-03 0.0000000e+00 
-1.8503466e-01 -5.8708161e-01 0.0000000e+00 
3.9967806e-03 -2.4325473e-03 0.0000000e+00 
2.9846132e-03 -3.1998591e-03 0.0000000e+00 
-2.1184610e-01 -7.3708141e-01 0.0000000e+00 
1.6577552e-01 4.5817059e-02 0.0000000e+00 
8.8476770e-02 -4.1376583e-02 0.0000000e+00 
1.3147134e-03 7.8922836e-03 0.0000000e+00 
1.4747429e-01 8.9267399e-03 0.0000000e+00 
3.8721785e-01 -3.4989071e-01 0.0000000e+00 
-2.1634188e-03 3.2309167e-02 0.0000000e+00 
1.0599311e-03 1.1448377e-02 0.0000000e+00 
-2.9570574e-01 -1.0511757e+00 0.0000000e+00 
-3.1586471e-01 3.7618473e-01 0.0000000e+00 
-2.1926570e-01 2.3062865e-01 0.0000000e+00 
5.5401783e-02 1.1966124e-01 0.0000000e+00 
1.1105125e-01 -7.8135366e-03 0.0000000e+00 
5.2060140e-03 4.0297648e-03 0.0000000e+00 
3.6866945e-04 2.6898796e-03 0.0000000e+00 
3.6623064e-01 -3.1092718e-01 0.0000000e+00 
3.2568243e-01 -2.2831777e-01 0.0000000e+00 
2.4709500e-01 -1.9116773e-01 0.0000000e+00 
2.6701882e-01 -1.6922525e-01 0.0000000e+00 
2.6652816e-01 -1.4941111e-01 0.0000000e+00 
1.9405017e-02 -3.1401157e-02 0.0000000e+00 
3.4918237e-02 -3.0775819e-02 0.0000000e+00 
-3.5140400e-03 -5.0606322e-03 0.0000000e+00 
2.6745577e-03 -8.9860172e-05 0.0000000e+00 
1.7696489e-01 -7.7609196e-02 0.0000000e+00 
1.3569216e-01 3.2651018e-02 0.0000000e+00 
-6.8570212e-02 8.8863946e-02 0.0000000e+00 
-2.6090797e-03 3.3117852e-03 0.0000000e+00 
3.0665841e-02 8.5773589e-03 0.0000000e+00 
1.8222611e-02 -1.4674992e-02 0.0000000e+00 
-4.9801362e-03 -2.5515680e-03 0.0000000e+00 
3.8335790e-04 1.3000277e-02 0.0000000e+00 
1.6029829e-02 1.5797608e-02 0.0000000e+00 
-1.0019742e-02 -1.2608553e-02 0.0000000e+00 
4.5681386e-03 1.0982940e-03 0.0000000e+00 
-6.4631730e-02 -4.8439798e-01 0.0000000e+00 
-8.8542141e-02 -9.7704649e-02 0.0000000e+00 
-1.6720721e-01 -7.9873860e-01 0.0000000e+00 
-3.4539332e-04 5.2672587e-03 0.0000000e+00 
3.6741950e-02 1.0449422e-01 0.0000000e+00 
5.4111004e-02 6.0861133e-02 0.0000000e+00 
7.3574924e-01 1.5379505e-01 0.0000000e+00 
4.1654080e-02 2.8108202e-02 0.0000000e+00 
2.8961536e-01 -2.3867254e-01 0.0000000e+00 
-1.2385559e-01 -7.1106362e-01 0.0000000e+00 
2.7479413e-01 -2.3766829e-02 0.0000000e+00 
3.0654621e-01 1.3574618e-01 0.0000000e+00 
-1.2823392e-01 -5.4087251e-01 0.0000000e+00 
2.8624448e-01 5.0741777e-02 0.0000000e+00 
-1.2443788e-01 -6.3962871e-01 0.0000000e+00 
5.9491452e-03 -6.9415872e-03 0.0000000e+00 
3.0336594e-02 -7.5609935e-03 0.0000000e+00 
2.1110940e-01 -8.5740024e-03 0.0000000e+00 
1.3029374e-01 3.5880573e-02 0.0000000e+00 
-6.5249383e-02 -5.5340016e-01 0.0000000e+00 
-1.0980730e-01 -5.2492154e-01 0.0000000e+00 
-2.1405715e-02 -4.3272260e-01 0.0000000e+00 
2.3678243e-02 -4.5440730e-01 0.0000000e+00 
3.4458779e-02 -8.3581351e-02 0.0000000e+00 
-1.0970498e-04 2.6796976e-04 0.0000000e+00 
9.4737054e-04 -2.1794396e-03 0.0000000e+00 
8.7720639e-04 -2.3548659e-03 0.0000000e+00 
-5.9534265e-03 9.4892628e-02 0.0000000e+00 
-6.0777571e-02 -7.1816713e-01 0.0000000e+00 
-1.2807121e-03 2.1975858e-03 0.0000000e+00 
1.6537197e-01 9.6736833e-02 0.0000000e+00 
4.1505471e-01 -9.6030019e-02 0.0000000e+00 
2.8727582e-01 -7.5312234e-02 0.0000000e+00 
1.5089621e-01 3.0688930e-01 0.0000000e+00 
-7.2768554e-03 4.6942858e-03 0.0000000e+00 
-1.1939119e-02 -8.1130551e-05 0.0000000e+00 
-4.3609945e-04 1.7595252e-03 0.0000000e+00 
-3.9259043e-02 -5.0042301e-01 0.0000000e+00 
3.7465012e-01 2.2874708e-01 0.0000000e+00 
4.6885228e-01 3.4209147e-01 0.0000000e+00 
2.6584429e-01 -1.2263360e-01 0.0000000e+00 
2.2731714e-01 -9.5670082e-02 0.0000000e+00 
4.4631455e-02 -3.2834940e-02 0.0000000e+00 
5.8000949e-03 -1.9282646e-02 0.0000000e+00 
3.5147041e-03 1.6638837e-03 0.0000000e+00 
3.3332296e-03 -4.5680106e-03 0.0000000e+00 
1.1247515e-03 -4.4401484e-03 0.0000000e+00 
4.0166721e-01 1.6109911e-01 0.0000000e+00 
3.4102088e-01 -1.1912562e-01 0.0000000e+00 
2.9996338e-01 -1.4811486e-01 0.0000000e+00 
-7.6486528e-02 -5.8996242e-01 0.0000000e+00 
-1.3258919e-03 7.1247626e-04 0.0000000e+00 
-1.2709628e-04 -2.1530108e-03 0.0000000e+00 
1.7805852e-03 -3.9826894e-01 0.0000000e+00 
4.2524904e-02 -3.2472536e-02 0.0000000e+00 