# vtk DataFile Version 4.0
vtk output
ASCII
DATASET UNSTRUCTURED_GRID
POINTS 16368 float
0.0000000e+00 0.0000000e+00 0.0000000e+00 
2.0000000e+01 0.0000000e+00 0.0000000e+00 
2.0000000e+01 1.0000000e+01 0.0000000e+00 
0.0000000e+00 1.0000000e+01 0.0000000e+00 
0.0000000e+00 0.0000000e+00 1.0000000e+00 
2.0000000e+01 0.0000000e+00 1.0000000e+00 
2.0000000e+01 1.0000000e+01 1.0000000e+00 
0.0000000e+00 1.0000000e+01 1.0000000e+00 
1.0000000e+00 1.0000000e+01 0.0000000e+00 
1.0000000e+00 1.0000000e+01 1.0000000e+00 
5.0000000e+00 1.0000000e+01 0.0000000e+00 
1.0000000e+01 1.0000000e+01 0.0000000e+00 
1.5000000e+01 1.0000000e+01 0.0000000e+00 
5.0000000e-01 0.0000000e+00 0.0000000e+00 
1.0000000e+00 0.0000000e+00 0.0000000e+00 
1.5000000e+00 0.0000000e+00 0.0000000e+00 
2.0000000e+00 0.0000000e+00 0.0000000e+00 
2.5000000e+00 0.0000000e+00 0.0000000e+00 
3.0000000e+00 0.0000000e+00 0.0000000e+00 
3.5000000e+00 0.0000000e+00 0.0000000e+00 
4.0000000e+00 0.0000000e+00 0.0000000e+00 
4.5000000e+00 0.0000000e+00 0.0000000e+00 
5.0000000e+00 0.0000000e+00 0.0000000e+00 
5.5000000e+00 0.0000000e+00 0.0000000e+00 
6.0000000e+00 0.0000000e+00 0.0000000e+00 
6.5000000e+00 0.0000000e+00 0.0000000e+00 
7.0000000e+00 0.0000000e+00 0.0000000e+00 
7.5000000e+00 0.0000000e+00 0.0000000e+00 
8.0000000e+00 0.0000000e+00 0.0000000e+00 
8.5000000e+00 0.0000000e+00 0.0000000e+00 
9.0000000e+00 0.0000000e+00 0.0000000e+00 
9.5000000e+00 0.0000000e+00 0.0000000e+00 
1.0000000e+01 0.0000000e+00 0.0000000e+00 
1.0500000e+01 0.0000000e+00 0.0000000e+00 
1.1000000e+01 0.0000000e+00 0.0000000e+00 
1.1500000e+01 0.0000000e+00 0.0000000e+00 
1.2000000e+01 0.0000000e+00 0.0000000e+00 
1.2500000e+01 0.0000000e+00 0.0000000e+00 
1.3000000e+01 0.0000000e+00 0.0000000e+00 
1.3500000e+01 0.0000000e+00 0.0000000e+00 
1.4000000e+01 0.0000000e+00 0.0000000e+00 
1.4500000e+01 0.0000000e+00 0.0000000e+00 
1.5000000e+01 0.0000000e+00 0.0000000e+00 
1.5500000e+01 0.0000000e+00 0.0000000e+00 
1.6000000e+01 0.0000000e+00 0.0000000e+00 
1.6500000e+01 0.0000000e+00 0.0000000e+00 
1.7000000e+01 0.0000000e+00 0.0000000e+00 
1.7500000e+01 0.0000000e+00 0.0000000e+00 
1.8000000e+01 0.0000000e+00 0.0000000e+00 
1.8500000e+01 0.0000000e+00 0.0000000e+00 
1.9000000e+01 0.0000000e+00 0.0000000e+00 
1.9500000e+01 0.0000000e+00 0.0000000e+00 
2.5000000e-01 0.0000000e+00 0.0000000e+00 
7.5000000e-01 0.0000000e+00 0.0000000e+00 
1.2500000e+00 0.0000000e+00 0.0000000e+00 
1.7500000e+00 0.0000000e+00 0.0000000e+00 
2.2500000e+00 0.0000000e+00 0.0000000e+00 
2.7500000e+00 0.0000000e+00 0.0000000e+00 
3.2500000e+00 0.0000000e+00 0.0000000e+00 
3.7500000e+00 0.0000000e+00 0.0000000e+00 
4.2500000e+00 0.0000000e+00 0.0000000e+00 
4.7500000e+00 0.0000000e+00 0.0000000e+00 
5.2500000e+00 0.0000000e+00 0.0000000e+00 
5.7500000e+00 0.0000000e+00 0.0000000e+00 
6.2500000e+00 0.0000000e+00 0.0000000e+00 
6.7500000e+00 0.0000000e+00 0.0000000e+00 
7.2500000e+00 0.0000000e+00 0.0000000e+00 
7.7500000e+00 0.0000000e+00 0.0000000e+00 
8.2500000e+00 0.0000000e+00 0.0000000e+00 
8.7500000e+00 0.0000000e+00 0.0000000e+00 
9.2500000e+00 0.0000000e+00 0.0000000e+00 
9.7500000e+00 0.0000000e+00 0.0000000e+00 
1.0250000e+01 0.0000000e+00 0.0000000e+00 
1.0750000e+01 0.0000000e+00 0.0000000e+00 
1.1250000e+01 0.0000000e+00 0.0000000e+00 
1.1750000e+01 0.0000000e+00 0.0000000e+00 
1.2250000e+01 0.0000000e+00 0.0000000e+00 
1.2750000e+01 0.0000000e+00 0.0000000e+00 
1.3250000e+01 0.0000000e+00 0.0000000e+00 
1.3750000e+01 0.0000000e+00 0.0000000e+00 
1.4250000e+01 0.0000000e+00 0.0000000e+00 
1.4750000e+01 0.0000000e+00 0.0000000e+00 
1.5250000e+01 0.0000000e+00 0.0000000e+00 
1.5750000e+01 0.0000000e+00 0.0000000e+00 
1.6250000e+01 0.0000000e+00 0.0000000e+00 
1.6750000e+01 0.0000000e+00 0.0000000e+00 
1.7250000e+01 0.0000000e+00 0.0000000e+00 
1.7750000e+01 0.0000000e+00 0.0000000e+00 
1.8250000e+01 0.0000000e+00 0.0000000e+00 
1.8750000e+01 0.0000000e+00 0.0000000e+00 
1.9250000e+01 0.0000000e+00 0.0000000e+00 
1.9750000e+01 0.0000000e+00 0.0000000e+00 
2.0000000e+01 5.0000000e-01 0.0000000e+00 
2.0000000e+01 1.0000000e+00 0.0000000e+00 
2.0000000e+01 1.5000000e+00 0.0000000e+00 
2.0000000e+01 2.0000000e+00 0.0000000e+00 
2.0000000e+01 2.5000000e+00 0.0000000e+00 
2.0000000e+01 3.0000000e+00 0.0000000e+00 
2.0000000e+01 3.5000000e+00 0.0000000e+00 
2.0000000e+01 4.0000000e+00 0.0000000e+00 
2.0000000e+01 4.5000000e+00 0.0000000e+00 
2.0000000e+01 5.0000000e+00 0.0000000e+00 
2.0000000e+01 5.5000000e+00 0.0000000e+00 
2.0000000e+01 6.0000000e+00 0.0000000e+00 
2.0000000e+01 6.5000000e+00 0.0000000e+00 
2.0000000e+01 7.0000000e+00 0.0000000e+00 
2.0000000e+01 7.5000000e+00 0.0000000e+00 
2.0000000e+01 8.0000000e+00 0.0000000e+00 
2.0000000e+01 8.5000000e+00 0.0000000e+00 
2.0000000e+01 9.0000000e+00 0.0000000e+00 
2.0000000e+01 9.5000000e+00 0.0000000e+00 
2.0000000e+01 2.5000000e-01 0.0000000e+00 
2.0000000e+01 7.5000000e-01 0.0000000e+00 
2.0000000e+01 1.2500000e+00 0.0000000e+00 
2.0000000e+01 1.7500000e+00 0.0000000e+00 
2.0000000e+01 2.2500000e+00 0.0000000e+00 
2.0000000e+01 2.7500000e+00 0.0000000e+00 
2.0000000e+01 3.2500000e+00 0.0000000e+00 
2.0000000e+01 3.7500000e+00 0.0000000e+00 
2.0000000e+01 4.2500000e+00 0.0000000e+00 
2.0000000e+01 4.7500000e+00 0.0000000e+00 
2.0000000e+01 5.2500000e+00 0.0000000e+00 
2.0000000e+01 5.7500000e+00 0.0000000e+00 
2.0000000e+01 6.2500000e+00 0.0000000e+00 
2.0000000e+01 6.7500000e+00 0.0000000e+00 
2.0000000e+01 7.2500000e+00 0.0000000e+00 
2.0000000e+01 7.7500000e+00 0.0000000e+00 
2.0000000e+01 8.2500000e+00 0.0000000e+00 
2.0000000e+01 8.7500000e+00 0.0000000e+00 
2.0000000e+01 9.2500000e+00 0.0000000e+00 
2.0000000e+01 9.7500000e+00 0.0000000e+00 
0.0000000e+00 9.5000000e+00 0.0000000e+00 
0.0000000e+00 9.0000000e+00 0.0000000e+00 
0.0000000e+00 8.5000000e+00 0.0000000e+00 
0.0000000e+00 8.0000000e+00 0.0000000e+00 
0.0000000e+00 7.5000000e+00 0.0000000e+00 
0.0000000e+00 7.0000000e+00 0.0000000e+00 
0.0000000e+00 6.5000000e+00 0.0000000e+00 
0.0000000e+00 6.0000000e+00 0.0000000e+00 
0.0000000e+00 5.5000000e+00 0.0000000e+00 
0.0000000e+00 5.0000000e+00 0.0000000e+00 
0.0000000e+00 4.5000000e+00 0.0000000e+00 
0.0000000e+00 4.0000000e+00 0.0000000e+00 
0.0000000e+00 3.5000000e+00 0.0000000e+00 
0.0000000e+00 3.0000000e+00 0.0000000e+00 
0.0000000e+00 2.5000000e+00 0.0000000e+00 
0.0000000e+00 2.0000000e+00 0.0000000e+00 
0.0000000e+00 1.5000000e+00 0.0000000e+00 
0.0000000e+00 1.0000000e+00 0.0000000e+00 
0.0000000e+00 5.0000000e-01 0.0000000e+00 
0.0000000e+00 9.7500000e+00 0.0000000e+00 
0.0000000e+00 9.2500000e+00 0.0000000e+00 
0.0000000e+00 8.7500000e+00 0.0000000e+00 
0.0000000e+00 8.2500000e+00 0.0000000e+00 
0.0000000e+00 7.7500000e+00 0.0000000e+00 
0.0000000e+00 7.2500000e+00 0.0000000e+00 
0.0000000e+00 6.7500000e+00 0.0000000e+00 
0.0000000e+00 6.2500000e+00 0.0000000e+00 
0.0000000e+00 5.7500000e+00 0.0000000e+00 
0.0000000e+00 5.2500000e+00 0.0000000e+00 
0.0000000e+00 4.7500000e+00 0.0000000e+00 
0.0000000e+00 4.2500000e+00 0.0000000e+00 
0.0000000e+00 3.7500000e+00 0.0000000e+00 
0.0000000e+00 3.2500000e+00 0.0000000e+00 
0.0000000e+00 2.7500000e+00 0.0000000e+00 
0.0000000e+00 2.2500000e+00 0.0000000e+00 
0.0000000e+00 1.7500000e+00 0.0000000e+00 
0.0000000e+00 1.2500000e+00 0.0000000e+00 
0.0000000e+00 7.5000000e-01 0.0000000e+00 
0.0000000e+00 2.5000000e-01 0.0000000e+00 
0.0000000e+00 0.0000000e+00 5.0000000e-01 
0.0000000e+00 0.0000000e+00 2.5000000e-01 
0.0000000e+00 0.0000000e+00 7.5000000e-01 
2.0000000e+01 0.0000000e+00 5.0000000e-01 
2.0000000e+01 0.0000000e+00 2.5000000e-01 
2.0000000e+01 0.0000000e+00 7.5000000e-01 
5.0000000e-01 0.0000000e+00 1.0000000e+00 
1.0000000e+00 0.0000000e+00 1.0000000e+00 
1.5000000e+00 0.0000000e+00 1.0000000e+00 
2.0000000e+00 0.0000000e+00 1.0000000e+00 
2.5000000e+00 0.0000000e+00 1.0000000e+00 
3.0000000e+00 0.0000000e+00 1.0000000e+00 
3.5000000e+00 0.0000000e+00 1.0000000e+00 
4.0000000e+00 0.0000000e+00 1.0000000e+00 
4.5000000e+00 0.0000000e+00 1.0000000e+00 
5.0000000e+00 0.0000000e+00 1.0000000e+00 
5.5000000e+00 0.0000000e+00 1.0000000e+00 
6.0000000e+00 0.0000000e+00 1.0000000e+00 
6.5000000e+00 0.0000000e+00 1.0000000e+00 
7.0000000e+00 0.0000000e+00 1.0000000e+00 
7.5000000e+00 0.0000000e+00 1.0000000e+00 
8.0000000e+00 0.0000000e+00 1.0000000e+00 
8.5000000e+00 0.0000000e+00 1.0000000e+00 
9.0000000e+00 0.0000000e+00 1.0000000e+00 
9.5000000e+00 0.0000000e+00 1.0000000e+00 
1.0000000e+01 0.0000000e+00 1.0000000e+00 
1.0500000e+01 0.0000000e+00 1.0000000e+00 
1.1000000e+01 0.0000000e+00 1.0000000e+00 
1.1500000e+01 0.0000000e+00 1.0000000e+00 
1.2000000e+01 0.0000000e+00 1.0000000e+00 
1.2500000e+01 0.0000000e+00 1.0000000e+00 
1.3000000e+01 0.0000000e+00 1.0000000e+00 
1.3500000e+01 0.0000000e+00 1.0000000e+00 
1.4000000e+01 0.0000000e+00 1.0000000e+00 
1.4500000e+01 0.0000000e+00 1.0000000e+00 
1.5000000e+01 0.0000000e+00 1.0000000e+00 
1.5500000e+01 0.0000000e+00 1.0000000e+00 
1.6000000e+01 0.0000000e+00 1.0000000e+00 
1.6500000e+01 0.0000000e+00 1.0000000e+00 
1.7000000e+01 0.0000000e+00 1.0000000e+00 
1.7500000e+01 0.0000000e+00 1.0000000e+00 
1.8000000e+01 0.0000000e+00 1.0000000e+00 
1.8500000e+01 0.0000000e+00 1.0000000e+00 
1.9000000e+01 0.0000000e+00 1.0000000e+00 
1.9500000e+01 0.0000000e+00 1.0000000e+00 
2.5000000e-01 0.0000000e+00 1.0000000e+00 
7.5000000e-01 0.0000000e+00 1.0000000e+00 
1.2500000e+00 0.0000000e+00 1.0000000e+00 
1.7500000e+00 0.0000000e+00 1.0000000e+00 
2.2500000e+00 0.0000000e+00 1.0000000e+00 
2.7500000e+00 0.0000000e+00 1.0000000e+00 
3.2500000e+00 0.0000000e+00 1.0000000e+00 
3.7500000e+00 0.0000000e+00 1.0000000e+00 
4.2500000e+00 0.0000000e+00 1.0000000e+00 
4.7500000e+00 0.0000000e+00 1.0000000e+00 
5.2500000e+00 0.0000000e+00 1.0000000e+00 
5.7500000e+00 0.0000000e+00 1.0000000e+00 
6.2500000e+00 0.0000000e+00 1.0000000e+00 
6.7500000e+00 0.0000000e+00 1.0000000e+00 
7.2500000e+00 0.0000000e+00 1.0000000e+00 
[...]
POINT_DATA 16368
FIELD FieldData 1
VELOCITY 3 16368  float
0.0000000e+00 0.0000000e+00 0.0000000e+00 
0.0000000e+00 0.0000000e+00 0.0000000e+00 
0.0000000e+00 4.4942417e-04 0.0000000e+00 
0.0000000e+00 -1.1123358e+00 0.0000000e+00 
0.0000000e+00 0.0000000e+00 0.0000000e+00 
0.0000000e+00 0.0000000e+00 0.0000000e+00 
0.0000000e+00 4.5968613e-04 0.0000000e+00 
0.0000000e+00 -1.1484274e+00 0.0000000e+00 
2.6902216e-02 -1.2574675e+00 0.0000000e+00 
8.8626016e-03 -1.2457263e+00 0.0000000e+00 
6.2127002e-02 1.0892074e-01 0.0000000e+00 
4.1119176e-05 -6.0608040e-04 0.0000000e+00 
4.9572595e-06 3.6969337e-05 0.0000000e+00 
0.0000000e+00 0.0000000e+00 0.0000000e+00 
0.0000000e+00 0.0000000e+00 0.0000000e+00 
0.0000000e+00 0.0000000e+00 0.0000000e+00 
0.0000000e+00 0.0000000e+00 0.0000000e+00 
0.0000000e+00 0.0000000e+00 0.0000000e+00 
0.0000000e+00 0.0000000e+00 0.0000000e+00 
0.0000000e+00 0.0000000e+00 0.0000000e+00 
0.0000000e+00 0.0000000e+00 0.0000000e+00 
0.0000000e+00 0.0000000e+00 0.0000000e+00 
0.0000000e+00 0.0000000e+00 0.0000000e+00 
0.0000000e+00 0.0000000e+00 0.0000000e+00 
0.0000000e+00 0.0000000e+00 0.0000000e+00 
0.0000000e+00 0.0000000e+00 0.0000000e+00 
0.0000000e+00 0.0000000e+00 0.0000000e+00 
0.0000000e+00 0.0000000e+00 0.0000000e+00 
0.0000000e+00 0.0000000e+00 0.0000000e+00 
0.0000000e+00 0.0000000e+00 0.0000000e+00 
0.0000000e+00 0.0000000e+00 0.0000000e+00 
0.0000000e+00 0.0000000e+00 0.0000000e+00 
0.0000000e+00 0.0000000e+00 0.0000000e+00 
0.0000000e+00 0.0000000e+00 0.0000000e+00 
0.0000000e+00 0.0000000e+00 0.0000000e+00 
0.0000000e+00 0.0000000e+00 0.0000000e+00 
0.0000000e+00 0.0000000e+00 0.0000000e+00 
0.0000000e+00 0.0000000e+00 0.0000000e+00 
0.0000000e+00 0.0000000e+00 0.0000000e+00 
0.0000000e+00 0.0000000e+00 0.0000000e+00 
0.0000000e+00 0.0000000e+00 0.0000000e+00 
0.0000000e+00 0.0000000e+00 0.0000000e+00 
0.0000000e+00 0.0000000e+00 0.0000000e+00 
0.0000000e+00 0.0000000e+00 0.0000000e+00 
0.0000000e+00 0.0000000e+00 0.0000000e+00 
0.0000000e+00 0.0000000e+00 0.0000000e+00 
0.0000000e+00 0.0000000e+00 0.0000000e+00 
0.0000000e+00 0.0000000e+00 0.0000000e+00 
0.0000000e+00 0.0000000e+00 0.0000000e+00 
0.0000000e+00 0.0000000e+00 0.0000000e+00 
0.0000000e+00 0.0000000e+00 0.0000000e+00 
0.0000000e+00 0.0000000e+00 0.0000000e+00 
0.0000000e+00 0.0000000e+00 0.0000000e+00 
0.0000000e+00 0.0000000e+00 0.0000000e+00 
0.0000000e+00 0.0000000e+00 0.0000000e+00 
0.0000000e+00 0.0000000e+00 0.0000000e+00 
0.0000000e+00 0.0000000e+00 0.0000000e+00 
0.0000000e+00 0.0000000e+00 0.0000000e+00 
0.0000000e+00 0.0000000e+00 0.0000000e+00 
0.0000000e+00 0.0000000e+00 0.0000000e+00 
0.0000000e+00 0.0000000e+00 0.0000000e+00 
0.0000000e+00 0.0000000e+00 0.0000000e+00 
0.0000000e+00 0.0000000e+00 0.0000000e+00 
0.0000000e+00 0.0000000e+00 0.0000000e+00 
0.0000000e+00 0.0000000e+00 0.0000000e+00 
0.0000000e+00 0.0000000e+00 0.0000000e+00 
0.0000000e+00 0.0000000e+00 0.0000000e+00 
0.0000000e+00 0.0000000e+00 0.0000000e+00 
0.0000000e+00 0.0000000e+00 0.0000000e+00 
0.0000000e+00 0.0000000e+00 0.0000000e+00 
0.0000000e+00 0.0000000e+00 0.0000000e+00 
0.0000000e+00 0.0000000e+00 0.0000000e+00 
0.0000000e+00 0.0000000e+00 0.0000000e+00 
0.0000000e+00 0.0000000e+00 0.0000000e+00 
0.0000000e+00 0.0000000e+00 0.0000000e+00 
0.0000000e+00 0.0000000e+00 0.0000000e+00 
0.0000000e+00 0.0000000e+00 0.0000000e+00 
0.0000000e+00 0.0000000e+00 0.0000000e+00 
0.0000000e+00 0.0000000e+00 0.0000000e+00 
0.0000000e+00 0.0000000e+00 0.0000000e+00 
0.0000000e+00 0.0000000e+00 0.0000000e+00 
0.0000000e+00 0.0000000e+00 0.0000000e+00 
0.0000000e+00 0.0000000e+00 0.0000000e+00 
0.0000000e+00 0.0000000e+00 0.0000000e+00 
0.0000000e+00 0.0000000e+00 0.0000000e+00 
0.0000000e+00 0.0000000e+00 0.0000000e+00 
0.0000000e+00 0.0000000e+00 0.0000000e+00 
0.0000000e+00 0.0000000e+00 0.0000000e+00 
0.0000000e+00 0.0000000e+00 0.0000000e+00 
0.0000000e+00 0.0000000e+00 0.0000000e+00 
0.0000000e+00 0.0000000e+00 0.0000000e+00 
0.0000000e+00 0.0000000e+00 0.0000000e+00 
0.0000000e+00 5.8864531e-05 0.0000000e+00 
0.0000000e+00 7.5154101e-05 0.0000000e+00 
0.0000000e+00 1.1790925e-04 0.0000000e+00 
0.0000000e+00 1.4069807e-04 0.0000000e+00 
0.0000000e+00 1.8684572e-04 0.0000000e+00 
0.0000000e+00 2.3222290e-04 0.0000000e+00 
0.0000000e+00 2.7260449e-04 0.0000000e+00 
0.0000000e+00 3.0542034e-04 0.0000000e+00 
0.0000000e+00 3.3526341e-04 0.0000000e+00 
0.0000000e+00 3.6092411e-04 0.0000000e+00 
0.0000000e+00 3.8138599e-04 0.0000000e+00 
0.0000000e+00 3.9575939e-04 0.0000000e+00 
0.0000000e+00 3.9994169e-04 0.0000000e+00 
0.0000000e+00 4.1354861e-04 0.0000000e+00 
0.0000000e+00 4.2747494e-04 0.0000000e+00 
0.0000000e+00 4.3670528e-04 0.0000000e+00 
0.0000000e+00 4.3633694e-04 0.0000000e+00 
0.0000000e+00 4.4690570e-04 0.0000000e+00 
0.0000000e+00 4.5237926e-04 0.0000000e+00 
0.0000000e+00 1.3936684e-05 0.0000000e+00 
0.0000000e+00 -5.1116916e-07 0.0000000e+00 
0.0000000e+00 1.0769157e-05 0.0000000e+00 
0.0000000e+00 2.5156798e-05 0.0000000e+00 
0.0000000e+00 1.3048517e-05 0.0000000e+00 
0.0000000e+00 4.4150493e-05 0.0000000e+00 
0.0000000e+00 2.9710374e-05 0.0000000e+00 
0.0000000e+00 5.0491963e-05 0.0000000e+00 
0.0000000e+00 5.9431306e-05 0.0000000e+00 
0.0000000e+00 6.2935425e-05 0.0000000e+00 
0.0000000e+00 7.0200593e-05 0.0000000e+00 
0.0000000e+00 6.8248715e-05 0.0000000e+00 
0.0000000e+00 5.9231283e-05 0.0000000e+00 
0.0000000e+00 6.9866830e-05 0.0000000e+00 
0.0000000e+00 7.8531499e-05 0.0000000e+00 
0.0000000e+00 5.5567572e-05 0.0000000e+00 
0.0000000e+00 7.2116389e-05 0.0000000e+00 
0.0000000e+00 6.9128248e-05 0.0000000e+00 
0.0000000e+00 8.2946906e-05 0.0000000e+00 
0.0000000e+00 8.0355450e-05 0.0000000e+00 
0.0000000e+00 -1.0786880e+00 0.0000000e+00 
0.0000000e+00 -1.1508480e+00 0.0000000e+00 
0.0000000e+00 -1.1307317e+00 0.0000000e+00 
0.0000000e+00 -1.3345324e+00 0.0000000e+00 
0.0000000e+00 -1.5958288e+00 0.0000000e+00 
0.0000000e+00 -1.7383540e+00 0.0000000e+00 
0.0000000e+00 -1.7410712e+00 0.0000000e+00 
0.0000000e+00 -1.1900449e+00 0.0000000e+00 
0.0000000e+00 -1.5511519e+00 0.0000000e+00 
0.0000000e+00 -1.4120120e+00 0.0000000e+00 
0.0000000e+00 -1.7025863e-01 0.0000000e+00 
0.0000000e+00 -1.1914106e-02 0.0000000e+00 
0.0000000e+00 8.0552511e-03 0.0000000e+00 
0.0000000e+00 -1.0371796e-02 0.0000000e+00 
0.0000000e+00 -3.4803837e-03 0.0000000e+00 
0.0000000e+00 -4.5617536e-04 0.0000000e+00 
0.0000000e+00 -2.5942648e-04 0.0000000e+00 
0.0000000e+00 7.3340016e-05 0.0000000e+00 
0.0000000e+00 1.5498294e-05 0.0000000e+00 
0.0000000e+00 -1.0115402e+00 0.0000000e+00 
0.0000000e+00 -1.0990381e+00 0.0000000e+00 
0.0000000e+00 -1.1828058e+00 0.0000000e+00 
0.0000000e+00 -1.1725228e+00 0.0000000e+00 
0.0000000e+00 -1.4533815e+00 0.0000000e+00 
0.0000000e+00 -1.6763700e+00 0.0000000e+00 
0.0000000e+00 -1.7565696e+00 0.0000000e+00 
0.0000000e+00 -1.4310853e+00 0.0000000e+00 
0.0000000e+00 -1.2600764e+00 0.0000000e+00 
0.0000000e+00 -1.7860885e+00 0.0000000e+00 
0.0000000e+00 -5.6420839e-01 0.0000000e+00 
0.0000000e+00 -9.0464644e-02 0.0000000e+00 
0.0000000e+00 7.5902413e-03 0.0000000e+00 
0.0000000e+00 5.5126878e-03 0.0000000e+00 
0.0000000e+00 2.4185113e-04 0.0000000e+00 
0.0000000e+00 9.1629990e-05 0.0000000e+00 
0.0000000e+00 -1.0130473e-04 0.0000000e+00 
0.0000000e+00 -1.4915277e-04 0.0000000e+00 
0.0000000e+00 -2.9302735e-04 0.0000000e+00 
0.0000000e+00 7.4777112e-05 0.0000000e+00 
0.0000000e+00 0.0000000e+00 0.0000000e+00 
0.0000000e+00 0.0000000e+00 0.0000000e+00 
0.0000000e+00 0.0000000e+00 0.0000000e+00 
0.0000000e+00 0.0000000e+00 0.0000000e+00 
0.0000000e+00 0.0000000e+00 0.0000000e+00 
0.0000000e+00 0.0000000e+00 0.0000000e+00 
0.0000000e+00 0.0000000e+00 0.0000000e+00 
0.0000000e+00 0.0000000e+00 0.0000000e+00 
0.0000000e+00 0.0000000e+00 0.0000000e+00 
0.0000000e+00 0.0000000e+00 0.0000000e+00 
0.0000000e+00 0.0000000e+00 0.0000000e+00 
0.0000000e+00 0.0000000e+00 0.0000000e+00 
0.0000000e+00 0.0000000e+00 0.0000000e+00 
0.0000000e+00 0.0000000e+00 0.0000000e+00 
0.0000000e+00 0.0000000e+00 0.0000000e+00 
0.0000000e+00 0.0000000e+00 0.0000000e+00 
0.0000000e+00 0.0000000e+00 0.0000000e+00 
0.0000000e+00 0.0000000e+00 0.0000000e+00 
0.0000000e+00 0.0000000e+00 0.0000000e+00 
0.0000000e+00 0.0000000e+00 0.0000000e+00 
0.0000000e+00 0.0000000e+00 0.0000000e+00 
0.0000000e+00 0.0000000e+00 0.0000000e+00 
0.0000000e+00 0.0000000e+00 0.0000000e+00 
0.0000000e+00 0.0000000e+00 0.0000000e+00 
0.0000000e+00 0.0000000e+00 0.0000000e+00 
0.0000000e+00 0.0000000e+00 0.0000000e+00 
0.0000000e+00 0.0000000e+00 0.0000000e+00 
0.0000000e+00 0.0000000e+00 0.0000000e+00 
0.0000000e+00 0.0000000e+00 0.0000000e+00 
0.0000000e+00 0.0000000e+00 0.0000000e+00 
0.0000000e+00 0.0000000e+00 0.0000000e+00 
0.0000000e+00 0.0000000e+00 0.0000000e+00 
0.0000000e+00 0.0000000e+00 0.0000000e+00 
0.0000000e+00 0.0000000e+00 0.0000000e+00 
0.0000000e+00 0.0000000e+00 0.0000000e+00 
0.0000000e+00 0.0000000e+00 0.0000000e+00 
0.0000000e+00 0.0000000e+00 0.0000000e+00 
0.0000000e+00 0.0000000e+00 0.0000000e+00 
0.0000000e+00 0.0000000e+00 0.0000000e+00 
0.0000000e+00 0.0000000e+00 0.0000000e+00 
0.0000000e+00 0.0000000e+00 0.0000000e+00 
0.0000000e+00 0.0000000e+00 0.0000000e+00 
0.0000000e+00 0.0000000e+00 0.0000000e+00 
0.0000000e+00 0.0000000e+00 0.0000000e+00 
0.0000000e+00 0.0000000e+00 0.0000000e+00 
0.0000000e+00 0.0000000e+00 0.0000000e+00 
0.0000000e+00 0.0000000e+00 0.0000000e+00 
0.0000000e+00 0.0000000e+00 0.0000000e+00 
0.0000000e+00 0.0000000e+00 0.0000000e+00 
0.0000000e+00 0.0000000e+00 0.0000000e+00 
0.0000000e+00 0.0000000e+00 0.0000000e+00 
0.0000000e+00 0.0000000e+00 0.0000000e+00 
0.0000000e+00 0.0000000e+00 0.0000000e+00 
0.0000000e+00 0.0000000e+00 0.0000000e+00 
0.0000000e+00 0.0000000e+00 0.0000000e+00 
0.0000000e+00 0.0000000e+00 0.0000000e+00 
0.0000000e+00 0.0000000e+00 0.0000000e+00 
0.0000000e+00 0.0000000e+00 0.0000000e+00 
0.0000000e+00 0.0000000e+00 0.0000000e+00 
0.0000000e+00 0.0000000e+00 0.0000000e+00 
0.0000000e+00 0.0000000e+00 0.0000000e+00 
0.0000000e+00 0.0000000e+00 0.0000000e+00 
0.0000000e+00 0.0000000e+00 0.0000000e+00 
0.0000000e+00 0.0000000e+00 0.0000000e+00 
0.0000000e+00 0.0000000e+00 0.0000000e+00 
0.0000000e+00 0.0000000e+00 0.0000000e+00 
0.0000000e+00 0.0000000e+00 0.0000000e+00 
0.0000000e+00 0.0000000e+00 0.0000000e+00 
0.0000000e+00 0.0000000e+00 0.0000000e+00 
0.0000000e+00 0.0000000e+00 0.0000000e+00 
0.0000000e+00 0.0000000e+00 0.0000000e+00 
0.0000000e+00 0.0000000e+00 0.0000000e+00 
0.0000000e+00 0.0000000e+00 0.0000000e+00 
0.0000000e+00 0.0000000e+00 0.0000000e+00 
0.0000000e+00 0.0000000e+00 0.0000000e+00 
0.0000000e+00 0.0000000e+00 0.0000000e+00 
0.0000000e+00 0.0000000e+00 0.0000000e+00 
0.0000000e+00 0.0000000e+00 0.0000000e+00 
0.0000000e+00 0.0000000e+00 0.0000000e+00 
0.0000000e+00 0.0000000e+00 0.0000000e+00 
0.0000000e+00 0.0000000e+00 0.0000000e+00 
0.0000000e+00 0.0000000e+00 0.0000000e+00 
0.0000000e+00 0.0000000e+00 0.0000000e+00 
0.0000000e+00 0.0000000e+00 0.0000000e+00 
0.0000000e+00 0.0000000e+00 0.0000000e+00 
0.0000000e+00 4.6740583e-04 3.0506413e-07 
0.0000000e+00 8.5536274e-05 1.7716265e-07 
0.0000000e+00 7.5188393e-05 -6.8546927e-07 
0.0000000e+00 5.4980796e-05 0.0000000e+00 
0.0000000e+00 7.8901066e-05 0.0000000e+00 
0.0000000e+00 1.2072124e-04 0.0000000e+00 
0.0000000e+00 1.4186271e-04 0.0000000e+00 
0.0000000e+00 1.8300007e-04 0.0000000e+00 
0.0000000e+00 2.3225772e-04 0.0000000e+00 
0.0000000e+00 2.7000700e-04 0.0000000e+00 
0.0000000e+00 3.0907441e-04 0.0000000e+00 
0.0000000e+00 3.3515878e-04 0.0000000e+00 
0.0000000e+00 3.5679218e-04 0.0000000e+00 
0.0000000e+00 3.8392894e-04 0.0000000e+00 
0.0000000e+00 3.9541599e-04 0.0000000e+00 
0.0000000e+00 3.9833676e-04 0.0000000e+00 
0.0000000e+00 4.1568198e-04 0.0000000e+00 
0.0000000e+00 4.2456377e-04 0.0000000e+00 
0.0000000e+00 4.3829434e-04 0.0000000e+00 
0.0000000e+00 4.3576845e-04 0.0000000e+00 
0.0000000e+00 4.4875671e-04 0.0000000e+00 
0.0000000e+00 4.5365444e-04 0.0000000e+00 
0.0000000e+00 1.1392858e-05 0.0000000e+00 
0.0000000e+00 1.8860642e-06 0.0000000e+00 
0.0000000e+00 5.9298613e-06 0.0000000e+00 
0.0000000e+00 2.9676636e-05 0.0000000e+00 
0.0000000e+00 1.5128175e-05 0.0000000e+00 
0.0000000e+00 4.1919844e-05 0.0000000e+00 
0.0000000e+00 4.3866523e-05 0.0000000e+00 
0.0000000e+00 5.0482788e-05 0.0000000e+00 
0.0000000e+00 5.5990302e-05 0.0000000e+00 
0.0000000e+00 6.2573199e-05 0.0000000e+00 
0.0000000e+00 6.9979746e-05 0.0000000e+00 
0.0000000e+00 6.5226777e-05 0.0000000e+00 
0.0000000e+00 6.2638457e-05 0.0000000e+00 
0.0000000e+00 6.6508845e-05 0.0000000e+00 
0.0000000e+00 7.7927143e-05 0.0000000e+00 
0.0000000e+00 5.9290778e-05 0.0000000e+00 
0.0000000e+00 7.2825795e-05 0.0000000e+00 
0.0000000e+00 6.6919689e-05 0.0000000e+00 
0.0000000e+00 7.6641853e-05 0.0000000e+00 
0.0000000e+00 7.9077457e-05 0.0000000e+00 
0.0000000e+00 -1.1809425e+00 2.1413092e-02 
0.0000000e+00 -1.1012515e+00 7.1184523e-03 
0.0000000e+00 -1.1536041e+00 7.3571559e-03 
0.0000000e+00 -1.1002678e+00 0.0000000e+00 
0.0000000e+00 -1.1259096e+00 0.0000000e+00 
0.0000000e+00 -1.2378811e+00 0.0000000e+00 
0.0000000e+00 -1.3919907e+00 0.0000000e+00 
0.0000000e+00 -1.5982870e+00 0.0000000e+00 
0.0000000e+00 -1.7163218e+00 0.0000000e+00 
0.0000000e+00 -1.6996974e+00 0.0000000e+00 
0.0000000e+00 -1.2602364e+00 0.0000000e+00 
0.0000000e+00 -1.5771977e+00 0.0000000e+00 
0.0000000e+00 -1.3892511e+00 0.0000000e+00 
0.0000000e+00 -1.8565531e-01 0.0000000e+00 
0.0000000e+00 4.9884715e-03 0.0000000e+00 
0.0000000e+00 2.8769746e-03 0.0000000e+00 
0.0000000e+00 -8.5887546e-03 0.0000000e+00 
0.0000000e+00 -2.2908957e-03 0.0000000e+00 
0.0000000e+00 -9.7144002e-05 0.0000000e+00 
0.0000000e+00 -6.6979649e-04 0.0000000e+00 
0.0000000e+00 -3.4220357e-05 0.0000000e+00 
0.0000000e+00 -4.9315808e-05 0.0000000e+00 
0.0000000e+00 -1.0509863e+00 0.0000000e+00 
0.0000000e+00 -1.1327639e+00 0.0000000e+00 
0.0000000e+00 -1.2209284e+00 0.0000000e+00 
0.0000000e+00 -1.2576611e+00 0.0000000e+00 
0.0000000e+00 -1.5277303e+00 0.0000000e+00 
0.0000000e+00 -1.6292113e+00 0.0000000e+00 
0.0000000e+00 -1.7946900e+00 0.0000000e+00 
0.0000000e+00 -1.3914679e+00 0.0000000e+00 
0.0000000e+00 -1.3113664e+00 0.0000000e+00 
0.0000000e+00 -1.7828523e+00 0.0000000e+00 
0.0000000e+00 -5.4345548e-01 0.0000000e+00 
0.0000000e+00 -1.1519258e-01 0.0000000e+00 
0.0000000e+00 6.3559739e-03 0.0000000e+00 
0.0000000e+00 -2.9988659e-03 0.0000000e+00 
0.0000000e+00 1.2777870e-03 0.0000000e+00 
0.0000000e+00 -5.4536975e-04 0.0000000e+00 
0.0000000e+00 1.1965006e-04 0.0000000e+00 
0.0000000e+00 -1.1000857e-04 0.0000000e+00 
0.0000000e+00 -1.2067264e-04 0.0000000e+00 
0.0000000e+00 -1.2533639e-05 0.0000000e+00 
-4.0164206e-02 -1.0675021e+00 0.0000000e+00 
8.0220429e-03 -1.0275248e+00 0.0000000e+00 
-9.4180770e-02 -1.0990596e+00 0.0000000e+00 
5.3754676e-02 -1.1865749e+00 7.0089563e-03 
1.8410830e-02 -1.2556150e+00 -1.6133334e-02 
2.4973726e-02 -1.2422684e+00 6.2248245e-02 
-9.6436068e-02 -1.0707754e+00 0.0000000e+00 
-8.6852632e-02 -1.0981302e+00 0.0000000e+00 
-6.3877895e-02 -9.6000105e-01 0.0000000e+00 
-1.1303418e-06 4.3234383e-04 0.0000000e+00 
-4.9728760e-07 4.3062790e-04 0.0000000e+00 
-1.2481404e-06 3.8654549e-04 0.0000000e+00 
5.4388141e-07 3.3973093e-04 0.0000000e+00 
-5.7839014e-07 3.0330822e-04 0.0000000e+00 
-1.1950020e-06 2.2892340e-04 0.0000000e+00 
1.7228265e-06 1.6781087e-04 0.0000000e+00 
4.6996047e-06 9.2248425e-05 0.0000000e+00 
4.7616431e-06 5.8201447e-05 0.0000000e+00 
9.0648482e-06 2.0963233e-05 0.0000000e+00 
3.7291336e-06 -1.4168900e-06 0.0000000e+00 
-9.0619005e-06 -1.3648887e-05 0.0000000e+00 
-7.2830576e-06 -6.6516950e-05 0.0000000e+00 
-5.4002453e-06 -4.6378947e-05 0.0000000e+00 
-1.0055869e-05 -1.3076022e-04 0.0000000e+00 
-1.0626120e-05 -1.7772650e-04 0.0000000e+00 
2.0388208e-05 -2.3859314e-04 0.0000000e+00 
-1.9146971e-06 -4.5816012e-04 0.0000000e+00 
-8.5858125e-07 -5.9729256e-04 0.0000000e+00 
2.3187633e-05 -6.5356336e-04 0.0000000e+00 
7.9545047e-05 -7.8613602e-04 0.0000000e+00 
-6.8195783e-05 -3.6827190e-04 0.0000000e+00 
1.7467817e-05 -4.7851598e-04 0.0000000e+00 
-1.6141833e-04 -3.9026712e-03 0.0000000e+00 
-2.4811577e-03 3.0369528e-03 0.0000000e+00 
-3.6668412e-03 1.4416900e-02 0.0000000e+00 
8.7278364e-03 2.3361389e-02 0.0000000e+00 
5.4298587e-02 1.0637033e-03 0.0000000e+00 
1.3077772e-01 -4.7457926e-02 0.0000000e+00 
7.6783575e-02 1.2821032e-01 0.0000000e+00 
1.7593491e-01 -2.6672643e-02 0.0000000e+00 
-3.3545861e-01 4.7455904e-01 0.0000000e+00 
-9.0252233e-01 -2.3520465e-01 0.0000000e+00 
-9.9498200e-01 -7.9776371e-01 0.0000000e+00 
-1.0338373e+00 -1.0294595e+00 0.0000000e+00 
-4.9020624e-01 -1.7481269e+00 0.0000000e+00 
2.2887552e-02 -1.4716305e+00 0.0000000e+00 
2.5257577e-07 8.5365486e-05 0.0000000e+00 
-7.4532728e-08 5.5962064e-05 0.0000000e+00 
-1.0215252e-06 6.7210443e-05 0.0000000e+00 
-9.7441807e-07 8.1903483e-05 0.0000000e+00 
-1.3977534e-06 5.8501199e-05 0.0000000e+00 
-1.7910251e-06 5.7590616e-05 0.0000000e+00 
-2.3670325e-06 3.5758210e-05 0.0000000e+00 
-6.9081082e-08 9.8826622e-06 0.0000000e+00 
1.0132164e-06 1.4109211e-05 0.0000000e+00 
3.0617737e-06 -1.4467481e-05 0.0000000e+00 
-5.5298478e-06 2.0763930e-05 0.0000000e+00 
-3.8647636e-06 -5.0235276e-06 0.0000000e+00 
7.0730530e-06 -1.6371972e-05 0.0000000e+00 
8.6532091e-06 -3.1395197e-05 0.0000000e+00 
-3.2603168e-07 -2.4125087e-05 0.0000000e+00 
3.8992116e-06 2.6402518e-05 0.0000000e+00 
5.3352283e-06 1.0877528e-05 0.0000000e+00 
6.9344655e-06 5.2076561e-05 0.0000000e+00 
-8.0940836e-06 -7.4503034e-05 0.0000000e+00 
1.7628288e-05 -9.8301476e-05 0.0000000e+00 
-1.3258185e-05 -5.2483629e-05 0.0000000e+00 
-5.2467498e-05 -5.8717360e-05 0.0000000e+00 
-4.0425977e-05 -3.3673833e-04 0.0000000e+00 
6.3053722e-04 8.9740852e-04 0.0000000e+00 
1.4520510e-03 2.7522456e-03 0.0000000e+00 
5.8776420e-03 -8.0377686e-05 0.0000000e+00 
5.8614868e-03 -1.1700329e-02 0.0000000e+00 
8.4127877e-03 -1.9468309e-02 0.0000000e+00 
7.0836537e-02 2.6723742e-02 0.0000000e+00 
1.5848391e-01 7.5711057e-02 0.0000000e+00 
6.9384128e-02 -6.5742806e-02 0.0000000e+00 
2.6042486e-02 3.3478642e-01 0.0000000e+00 
-7.3008579e-01 1.3474250e-01 0.0000000e+00 
-9.9115890e-01 -4.8505309e-01 0.0000000e+00 
-9.6091920e-01 -9.1901499e-01 0.0000000e+00 
-8.5356009e-01 -1.4901884e+00 0.0000000e+00 
-1.8994221e-01 -1.7466937e+00 0.0000000e+00 
4.2964958e-04 -1.2741550e+00 0.0000000e+00 
1.2750570e-01 -1.9772265e-02 0.0000000e+00 
4.3167409e-02 3.6101972e-03 0.0000000e+00 
6.4584995e-03 1.0464137e-02 0.0000000e+00 
-5.0573354e-03 1.4097195e-02 0.0000000e+00 
-2.3437494e-03 2.0351780e-03 0.0000000e+00 
-1.1964692e-03 -2.6929695e-03 0.0000000e+00 
-9.6235046e-05 -1.6878530e-03 0.0000000e+00 
-1.2442343e-04 -5.8761484e-04 0.0000000e+00 
3.2337910e-05 -6.8651926e-04 0.0000000e+00 
1.5464196e-01 7.1419992e-02 0.0000000e+00 
7.9502955e-02 3.4821827e-02 0.0000000e+00 
1.3191047e-02 -7.4738064e-03 0.0000000e+00 
3.9080083e-03 -5.4921312e-03 0.0000000e+00 
7.1093789e-03 2.2781803e-03 0.0000000e+00 
1.1768116e-03 4.0964736e-04 0.0000000e+00 
-5.0413422e-05 1.5722592e-03 0.0000000e+00 
1.3193882e-04 4.1862048e-04 0.0000000e+00 
2.2869408e-05 -1.1693712e-04 0.0000000e+00 
2.1294858e-05 -1.0265249e-04 0.0000000e+00 
4.3108685e-05 -6.1207515e-04 0.0000000e+00 
-9.9578892e-06 -4.4211786e-04 0.0000000e+00 
2.5201707e-05 -2.7168967e-04 0.0000000e+00 
-5.4204829e-06 -1.6874113e-04 0.0000000e+00 
-1.1716501e-05 -1.2287263e-04 0.0000000e+00 
-6.8403078e-06 -4.7963349e-05 0.0000000e+00 
-8.2369552e-06 -6.8007597e-05 0.0000000e+00 
-1.0305738e-05 -4.2772790e-06 0.0000000e+00 
-8.8490253e-08 5.2839118e-06 0.0000000e+00 
5.9467434e-06 -1.2149952e-04 0.0000000e+00 
-8.0017526e-06 -9.8638055e-05 0.0000000e+00 
-3.9098068e-06 2.3087310e-05 0.0000000e+00 
-8.5965183e-07 1.1355872e-05 0.0000000e+00 
4.9700811e-06 1.6779362e-05 0.0000000e+00 
-7.4810458e-07 -2.1744005e-05 0.0000000e+00 
7.6380338e-06 -3.1521060e-05 0.0000000e+00 