# vtk DataFile Version 4.0
vtk output
ASCII
DATASET UNSTRUCTURED_GRID
POINTS 3487 float
0.0000000e+00 0.0000000e+00 0.0000000e+00 
2.0000000e+01 0.0000000e+00 0.0000000e+00 
2.0000000e+01 1.0000000e+01 0.0000000e+00 
0.0000000e+00 1.0000000e+01 0.0000000e+00 
0.0000000e+00 0.0000000e+00 1.0000000e+00 
2.0000000e+01 0.0000000e+00 1.0000000e+00 
2.0000000e+01 1.0000000e+01 1.0000000e+00 
0.0000000e+00 1.0000000e+01 1.0000000e+00 
1.0000000e+00 1.0000000e+01 0.0000000e+00 
1.0000000e+00 1.0000000e+01 1.0000000e+00 
5.0000000e+00 1.0000000e+01 0.0000000e+00 
1.0000000e+01 1.0000000e+01 0.0000000e+00 
1.5000000e+01 1.0000000e+01 0.0000000e+00 
1.0000000e+00 0.0000000e+00 0.0000000e+00 
2.0000000e+00 0.0000000e+00 0.0000000e+00 
3.0000000e+00 0.0000000e+00 0.0000000e+00 
4.0000000e+00 0.0000000e+00 0.0000000e+00 
5.0000000e+00 0.0000000e+00 0.0000000e+00 
6.0000000e+00 0.0000000e+00 0.0000000e+00 
7.0000000e+00 0.0000000e+00 0.0000000e+00 
8.0000000e+00 0.0000000e+00 0.0000000e+00 
9.0000000e+00 0.0000000e+00 0.0000000e+00 
1.0000000e+01 0.0000000e+00 0.0000000e+00 
1.1000000e+01 0.0000000e+00 0.0000000e+00 
1.2000000e+01 0.0000000e+00 0.0000000e+00 
1.3000000e+01 0.0000000e+00 0.0000000e+00 
1.4000000e+01 0.0000000e+00 0.0000000e+00 
1.5000000e+01 0.0000000e+00 0.0000000e+00 
1.6000000e+01 0.0000000e+00 0.0000000e+00 
1.7000000e+01 0.0000000e+00 0.0000000e+00 
1.8000000e+01 0.0000000e+00 0.0000000e+00 
1.9000000e+01 0.0000000e+00 0.0000000e+00 
5.0000000e-01 0.0000000e+00 0.0000000e+00 
1.5000000e+00 0.0000000e+00 0.0000000e+00 
2.5000000e+00 0.0000000e+00 0.0000000e+00 
3.5000000e+00 0.0000000e+00 0.0000000e+00 
4.5000000e+00 0.0000000e+00 0.0000000e+00 
5.5000000e+00 0.0000000e+00 0.0000000e+00 
6.5000000e+00 0.0000000e+00 0.0000000e+00 
7.5000000e+00 0.0000000e+00 0.0000000e+00 
8.5000000e+00 0.0000000e+00 0.0000000e+00 
9.5000000e+00 0.0000000e+00 0.0000000e+00 
1.0500000e+01 0.0000000e+00 0.0000000e+00 
1.1500000e+01 0.0000000e+00 0.0000000e+00 
1.2500000e+01 0.0000000e+00 0.0000000e+00 
1.3500000e+01 0.0000000e+00 0.0000000e+00 
1.4500000e+01 0.0000000e+00 0.0000000e+00 
1.5500000e+01 0.0000000e+00 0.0000000e+00 
1.6500000e+01 0.0000000e+00 0.0000000e+00 
1.7500000e+01 0.0000000e+00 0.0000000e+00 
1.8500000e+01 0.0000000e+00 0.0000000e+00 
1.9500000e+01 0.0000000e+00 0.0000000e+00 
2.0000000e+01 1.0000000e+00 0.0000000e+00 
2.0000000e+01 2.0000000e+00 0.0000000e+00 
2.0000000e+01 3.0000000e+00 0.0000000e+00 
2.0000000e+01 4.0000000e+00 0.0000000e+00 
2.0000000e+01 5.0000000e+00 0.0000000e+00 
2.0000000e+01 6.0000000e+00 0.0000000e+00 
2.0000000e+01 7.0000000e+00 0.0000000e+00 
2.0000000e+01 8.0000000e+00 0.0000000e+00 
2.0000000e+01 9.0000000e+00 0.0000000e+00 
2.0000000e+01 5.0000000e-01 0.0000000e+00 
2.0000000e+01 1.5000000e+00 0.0000000e+00 
2.0000000e+01 2.5000000e+00 0.0000000e+00 
2.0000000e+01 3.5000000e+00 0.0000000e+00 
2.0000000e+01 4.5000000e+00 0.0000000e+00 
2.0000000e+01 5.5000000e+00 0.0000000e+00 
2.0000000e+01 6.5000000e+00 0.0000000e+00 
2.0000000e+01 7.5000000e+00 0.0000000e+00 
2.0000000e+01 8.5000000e+00 0.0000000e+00 
2.0000000e+01 9.5000000e+00 0.0000000e+00 
0.0000000e+00 9.0000000e+00 0.0000000e+00 
0.0000000e+00 8.0000000e+00 0.0000000e+00 
0.0000000e+00 7.0000000e+00 0.0000000e+00 
0.0000000e+00 6.0000000e+00 0.0000000e+00 
0.0000000e+00 5.0000000e+00 0.0000000e+00 
0.0000000e+00 4.0000000e+00 0.0000000e+00 
0.0000000e+00 3.0000000e+00 0.0000000e+00 
0.0000000e+00 2.0000000e+00 0.0000000e+00 
0.0000000e+00 1.0000000e+00 0.0000000e+00 
0.0000000e+00 9.5000000e+00 0.0000000e+00 
0.0000000e+00 8.5000000e+00 0.0000000e+00 
0.0000000e+00 7.5000000e+00 0.0000000e+00 
0.0000000e+00 6.5000000e+00 0.0000000e+00 
0.0000000e+00 5.5000000e+00 0.0000000e+00 
0.0000000e+00 4.5000000e+00 0.0000000e+00 
0.0000000e+00 3.5000000e+00 0.0000000e+00 
0.0000000e+00 2.5000000e+00 0.0000000e+00 
0.0000000e+00 1.5000000e+00 0.0000000e+00 
0.0000000e+00 5.0000000e-01 0.0000000e+00 
0.0000000e+00 0.0000000e+00 5.0000000e-01 
2.0000000e+01 0.0000000e+00 5.0000000e-01 
1.0000000e+00 0.0000000e+00 1.0000000e+00 
2.0000000e+00 0.0000000e+00 1.0000000e+00 
3.0000000e+00 0.0000000e+00 1.0000000e+00 
4.0000000e+00 0.0000000e+00 1.0000000e+00 
5.0000000e+00 0.0000000e+00 1.0000000e+00 
6.0000000e+00 0.0000000e+00 1.0000000e+00 
7.0000000e+00 0.0000000e+00 1.0000000e+00 
8.0000000e+00 0.0000000e+00 1.0000000e+00 
9.0000000e+00 0.0000000e+00 1.0000000e+00 
1.0000000e+01 0.0000000e+00 1.0000000e+00 
1.1000000e+01 0.0000000e+00 1.0000000e+00 
1.2000000e+01 0.0000000e+00 1.0000000e+00 
1.3000000e+01 0.0000000e+00 1.0000000e+00 
1.4000000e+01 0.0000000e+00 1.0000000e+00 
1.5000000e+01 0.0000000e+00 1.0000000e+00 
1.6000000e+01 0.0000000e+00 1.0000000e+00 
1.7000000e+01 0.0000000e+00 1.0000000e+00 
1.8000000e+01 0.0000000e+00 1.0000000e+00 
1.9000000e+01 0.0000000e+00 1.0000000e+00 
5.0000000e-01 0.0000000e+00 1.0000000e+00 
1.5000000e+00 0.0000000e+00 1.0000000e+00 
2.5000000e+00 0.0000000e+00 1.0000000e+00 
3.5000000e+00 0.0000000e+00 1.0000000e+00 
4.5000000e+00 0.0000000e+00 1.0000000e+00 
5.5000000e+00 0.0000000e+00 1.0000000e+00 
6.5000000e+00 0.0000000e+00 1.0000000e+00 
7.5000000e+00 0.0000000e+00 1.0000000e+00 
8.5000000e+00 0.0000000e+00 1.0000000e+00 
9.5000000e+00 0.0000000e+00 1.0000000e+00 
1.0500000e+01 0.0000000e+00 1.0000000e+00 
1.1500000e+01 0.0000000e+00 1.0000000e+00 
1.2500000e+01 0.0000000e+00 1.0000000e+00 
1.3500000e+01 0.0000000e+00 1.0000000e+00 
1.4500000e+01 0.0000000e+00 1.0000000e+00 
1.5500000e+01 0.0000000e+00 1.0000000e+00 
1.6500000e+01 0.0000000e+00 1.0000000e+00 
1.7500000e+01 0.0000000e+00 1.0000000e+00 
1.8500000e+01 0.0000000e+00 1.0000000e+00 
1.9500000e+01 0.0000000e+00 1.0000000e+00 
2.0000000e+01 1.0000000e+01 5.0000000e-01 
2.0000000e+01 1.0000000e+00 1.0000000e+00 
2.0000000e+01 2.0000000e+00 1.0000000e+00 
2.0000000e+01 3.0000000e+00 1.0000000e+00 
2.0000000e+01 4.0000000e+00 1.0000000e+00 
2.0000000e+01 5.0000000e+00 1.0000000e+00 
2.0000000e+01 6.0000000e+00 1.0000000e+00 
2.0000000e+01 7.0000000e+00 1.0000000e+00 
2.0000000e+01 8.0000000e+00 1.0000000e+00 
2.0000000e+01 9.0000000e+00 1.0000000e+00 
2.0000000e+01 5.0000000e-01 1.0000000e+00 
2.0000000e+01 1.5000000e+00 1.0000000e+00 
2.0000000e+01 2.5000000e+00 1.0000000e+00 
2.0000000e+01 3.5000000e+00 1.0000000e+00 
2.0000000e+01 4.5000000e+00 1.0000000e+00 
2.0000000e+01 5.5000000e+00 1.0000000e+00 
2.0000000e+01 6.5000000e+00 1.0000000e+00 
2.0000000e+01 7.5000000e+00 1.0000000e+00 
2.0000000e+01 8.5000000e+00 1.0000000e+00 
2.0000000e+01 9.5000000e+00 1.0000000e+00 
0.0000000e+00 1.0000000e+01 5.0000000e-01 
0.0000000e+00 9.0000000e+00 1.0000000e+00 
0.0000000e+00 8.0000000e+00 1.0000000e+00 
0.0000000e+00 7.0000000e+00 1.0000000e+00 
0.0000000e+00 6.0000000e+00 1.0000000e+00 
0.0000000e+00 5.0000000e+00 1.0000000e+00 
0.0000000e+00 4.0000000e+00 1.0000000e+00 
0.0000000e+00 3.0000000e+00 1.0000000e+00 
0.0000000e+00 2.0000000e+00 1.0000000e+00 
0.0000000e+00 1.0000000e+00 1.0000000e+00 
0.0000000e+00 9.5000000e+00 1.0000000e+00 
0.0000000e+00 8.5000000e+00 1.0000000e+00 
0.0000000e+00 7.5000000e+00 1.0000000e+00 
0.0000000e+00 6.5000000e+00 1.0000000e+00 
0.0000000e+00 5.5000000e+00 1.0000000e+00 
0.0000000e+00 4.5000000e+00 1.0000000e+00 
0.0000000e+00 3.5000000e+00 1.0000000e+00 
0.0000000e+00 2.5000000e+00 1.0000000e+00 
0.0000000e+00 1.5000000e+00 1.0000000e+00 
0.0000000e+00 5.0000000e-01 1.0000000e+00 
5.0000000e-01 1.0000000e+01 0.0000000e+00 
1.0000000e+00 1.0000000e+01 5.0000000e-01 
5.0000000e-01 1.0000000e+01 1.0000000e+00 
1.9000000e+01 1.0000000e+01 1.0000000e+00 
1.8000000e+01 1.0000000e+01 1.0000000e+00 
1.7000000e+01 1.0000000e+01 1.0000000e+00 
1.6000000e+01 1.0000000e+01 1.0000000e+00 
1.5000000e+01 1.0000000e+01 1.0000000e+00 
1.4000000e+01 1.0000000e+01 1.0000000e+00 
1.3000000e+01 1.0000000e+01 1.0000000e+00 
1.2000000e+01 1.0000000e+01 1.0000000e+00 
1.1000000e+01 1.0000000e+01 1.0000000e+00 
1.0000000e+01 1.0000000e+01 1.0000000e+00 
9.0000000e+00 1.0000000e+01 1.0000000e+00 
8.0000000e+00 1.0000000e+01 1.0000000e+00 
7.0000000e+00 1.0000000e+01 1.0000000e+00 
6.0000000e+00 1.0000000e+01 1.0000000e+00 
5.0000000e+00 1.0000000e+01 1.0000000e+00 
4.0000000e+00 1.0000000e+01 1.0000000e+00 
3.0000000e+00 1.0000000e+01 1.0000000e+00 
2.0000000e+00 1.0000000e+01 1.0000000e+00 
1.9500000e+01 1.0000000e+01 1.0000000e+00 
1.8500000e+01 1.0000000e+01 1.0000000e+00 
1.7500000e+01 1.0000000e+01 1.0000000e+00 
1.6500000e+01 1.0000000e+01 1.0000000e+00 
1.5500000e+01 1.0000000e+01 1.0000000e+00 
1.4500000e+01 1.0000000e+01 1.0000000e+00 
1.3500000e+01 1.0000000e+01 1.0000000e+00 
1.2500000e+01 1.0000000e+01 1.0000000e+00 
1.1500000e+01 1.0000000e+01 1.0000000e+00 
1.0500000e+01 1.0000000e+01 1.0000000e+00 
9.5000000e+00 1.0000000e+01 1.0000000e+00 
8.5000000e+00 1.0000000e+01 1.0000000e+00 
7.5000000e+00 1.0000000e+01 1.0000000e+00 
6.5000000e+00 1.0000000e+01 1.0000000e+00 
5.5000000e+00 1.0000000e+01 1.0000000e+00 
4.5000000e+00 1.0000000e+01 1.0000000e+00 
3.5000000e+00 1.0000000e+01 1.0000000e+00 
2.5000000e+00 1.0000000e+01 1.0000000e+00 
1.5000000e+00 1.0000000e+01 1.0000000e+00 
6.0000000e+00 1.0000000e+01 0.0000000e+00 
7.0000000e+00 1.0000000e+01 0.0000000e+00 
8.0000000e+00 1.0000000e+01 0.0000000e+00 
9.0000000e+00 1.0000000e+01 0.0000000e+00 
5.5000000e+00 1.0000000e+01 0.0000000e+00 
6.5000000e+00 1.0000000e+01 0.0000000e+00 
7.5000000e+00 1.0000000e+01 0.0000000e+00 
8.5000000e+00 1.0000000e+01 0.0000000e+00 
9.5000000e+00 1.0000000e+01 0.0000000e+00 
1.1000000e+01 1.0000000e+01 0.0000000e+00 
1.2000000e+01 1.0000000e+01 0.0000000e+00 
1.3000000e+01 1.0000000e+01 0.0000000e+00 
1.4000000e+01 1.0000000e+01 0.0000000e+00 
1.0500000e+01 1.0000000e+01 0.0000000e+00 
1.1500000e+01 1.0000000e+01 0.0000000e+00 
1.2500000e+01 1.0000000e+01 0.0000000e+00 
1.3500000e+01 1.0000000e+01 0.0000000e+00 
1.4500000e+01 1.0000000e+01 0.0000000e+00 
1.9000000e+01 1.0000000e+01 0.0000000e+00 
[...]
POINT_DATA 3487
FIELD FieldData 1
VELOCITY 3 3487  float
0.0000000e+00 0.0000000e+00 0.0000000e+00 
0.0000000e+00 0.0000000e+00 0.0000000e+00 
0.0000000e+00 -6.9452316e-04 0.0000000e+00 
0.0000000e+00 -6.4903939e-01 0.0000000e+00 
0.0000000e+00 0.0000000e+00 0.0000000e+00 
0.0000000e+00 0.0000000e+00 0.0000000e+00 
0.0000000e+00 3.0407717e-03 0.0000000e+00 
0.0000000e+00 -5.9500861e-01 0.0000000e+00 
-4.9405668e-02 -5.8910853e-01 0.0000000e+00 
1.4481777e-02 -5.3016955e-01 0.0000000e+00 
-5.9581083e-01 -1.2714342e+00 0.0000000e+00 
2.0909269e-01 -8.5225612e-02 0.0000000e+00 
-4.0346608e-03 -7.5497502e-03 0.0000000e+00 
0.0000000e+00 0.0000000e+00 0.0000000e+00 
0.0000000e+00 0.0000000e+00 0.0000000e+00 
0.0000000e+00 0.0000000e+00 0.0000000e+00 
0.0000000e+00 0.0000000e+00 0.0000000e+00 
0.0000000e+00 0.0000000e+00 0.0000000e+00 
0.0000000e+00 0.0000000e+00 0.0000000e+00 
0.0000000e+00 0.0000000e+00 0.0000000e+00 
0.0000000e+00 0.0000000e+00 0.0000000e+00 
0.0000000e+00 0.0000000e+00 0.0000000e+00 
0.0000000e+00 0.0000000e+00 0.0000000e+00 
0.0000000e+00 0.0000000e+00 0.0000000e+00 
0.0000000e+00 0.0000000e+00 0.0000000e+00 
0.0000000e+00 0.0000000e+00 0.0000000e+00 
0.0000000e+00 0.0000000e+00 0.0000000e+00 
0.0000000e+00 0.0000000e+00 0.0000000e+00 
0.0000000e+00 0.0000000e+00 0.0000000e+00 
0.0000000e+00 0.0000000e+00 0.0000000e+00 
0.0000000e+00 0.0000000e+00 0.0000000e+00 
0.0000000e+00 0.0000000e+00 0.0000000e+00 
0.0000000e+00 0.0000000e+00 0.0000000e+00 
0.0000000e+00 0.0000000e+00 0.0000000e+00 
0.0000000e+00 0.0000000e+00 0.0000000e+00 
0.0000000e+00 0.0000000e+00 0.0000000e+00 
0.0000000e+00 0.0000000e+00 0.0000000e+00 
0.0000000e+00 0.0000000e+00 0.0000000e+00 
0.0000000e+00 0.0000000e+00 0.0000000e+00 
0.0000000e+00 0.0000000e+00 0.0000000e+00 
0.0000000e+00 0.0000000e+00 0.0000000e+00 
0.0000000e+00 0.0000000e+00 0.0000000e+00 
0.0000000e+00 0.0000000e+00 0.0000000e+00 
0.0000000e+00 0.0000000e+00 0.0000000e+00 
0.0000000e+00 0.0000000e+00 0.0000000e+00 
0.0000000e+00 0.0000000e+00 0.0000000e+00 
0.0000000e+00 0.0000000e+00 0.0000000e+00 
0.0000000e+00 0.0000000e+00 0.0000000e+00 
0.0000000e+00 0.0000000e+00 0.0000000e+00 
0.0000000e+00 0.0000000e+00 0.0000000e+00 
0.0000000e+00 0.0000000e+00 0.0000000e+00 
0.0000000e+00 0.0000000e+00 0.0000000e+00 
0.0000000e+00 -1.0942314e-03 0.0000000e+00 
0.0000000e+00 1.5476588e-03 0.0000000e+00 
0.0000000e+00 1.6042154e-04 0.0000000e+00 
0.0000000e+00 -1.5562390e-03 0.0000000e+00 
0.0000000e+00 9.6683670e-04 0.0000000e+00 
0.0000000e+00 4.6414163e-04 0.0000000e+00 
0.0000000e+00 -2.2441717e-03 0.0000000e+00 
0.0000000e+00 3.6955327e-05 0.0000000e+00 
0.0000000e+00 -5.1146094e-04 0.0000000e+00 
0.0000000e+00 6.1652792e-04 0.0000000e+00 
0.0000000e+00 3.2205071e-04 0.0000000e+00 
0.0000000e+00 5.6507095e-04 0.0000000e+00 
0.0000000e+00 -1.5540650e-03 0.0000000e+00 
0.0000000e+00 1.5899756e-04 0.0000000e+00 
0.0000000e+00 4.0207730e-04 0.0000000e+00 
0.0000000e+00 -1.4053645e-03 0.0000000e+00 
0.0000000e+00 4.4918404e-04 0.0000000e+00 
0.0000000e+00 -7.3387293e-04 0.0000000e+00 
0.0000000e+00 -1.0432993e-03 0.0000000e+00 
0.0000000e+00 -4.7062966e-01 0.0000000e+00 
0.0000000e+00 -5.6647843e-01 0.0000000e+00 
0.0000000e+00 -6.5436363e-01 0.0000000e+00 
0.0000000e+00 -6.5812981e-01 0.0000000e+00 
0.0000000e+00 -7.4067491e-01 0.0000000e+00 
0.0000000e+00 -7.7237773e-01 0.0000000e+00 
0.0000000e+00 -1.0206949e+00 0.0000000e+00 
0.0000000e+00 -5.9361470e-01 0.0000000e+00 
0.0000000e+00 -7.0136631e-01 0.0000000e+00 
0.0000000e+00 -5.4487425e-01 0.0000000e+00 
0.0000000e+00 -5.0886089e-01 0.0000000e+00 
0.0000000e+00 -5.5503261e-01 0.0000000e+00 
0.0000000e+00 -6.4899027e-01 0.0000000e+00 
0.0000000e+00 -6.8689656e-01 0.0000000e+00 
0.0000000e+00 -7.9072446e-01 0.0000000e+00 
0.0000000e+00 -8.6262411e-01 0.0000000e+00 
0.0000000e+00 -7.6970106e-01 0.0000000e+00 
0.0000000e+00 -7.9891491e-01 0.0000000e+00 
0.0000000e+00 -2.0085256e-01 0.0000000e+00 
0.0000000e+00 0.0000000e+00 0.0000000e+00 
0.0000000e+00 0.0000000e+00 0.0000000e+00 
0.0000000e+00 0.0000000e+00 0.0000000e+00 
0.0000000e+00 0.0000000e+00 0.0000000e+00 
0.0000000e+00 0.0000000e+00 0.0000000e+00 
0.0000000e+00 0.0000000e+00 0.0000000e+00 
0.0000000e+00 0.0000000e+00 0.0000000e+00 
0.0000000e+00 0.0000000e+00 0.0000000e+00 
0.0000000e+00 0.0000000e+00 0.0000000e+00 
0.0000000e+00 0.0000000e+00 0.0000000e+00 
0.0000000e+00 0.0000000e+00 0.0000000e+00 
0.0000000e+00 0.0000000e+00 0.0000000e+00 
0.0000000e+00 0.0000000e+00 0.0000000e+00 
0.0000000e+00 0.0000000e+00 0.0000000e+00 
0.0000000e+00 0.0000000e+00 0.0000000e+00 
0.0000000e+00 0.0000000e+00 0.0000000e+00 
0.0000000e+00 0.0000000e+00 0.0000000e+00 
0.0000000e+00 0.0000000e+00 0.0000000e+00 
0.0000000e+00 0.0000000e+00 0.0000000e+00 
0.0000000e+00 0.0000000e+00 0.0000000e+00 
0.0000000e+00 0.0000000e+00 0.0000000e+00 
0.0000000e+00 0.0000000e+00 0.0000000e+00 
0.0000000e+00 0.0000000e+00 0.0000000e+00 
0.0000000e+00 0.0000000e+00 0.0000000e+00 
0.0000000e+00 0.0000000e+00 0.0000000e+00 
0.0000000e+00 0.0000000e+00 0.0000000e+00 
0.0000000e+00 0.0000000e+00 0.0000000e+00 
0.0000000e+00 0.0000000e+00 0.0000000e+00 
0.0000000e+00 0.0000000e+00 0.0000000e+00 
0.0000000e+00 0.0000000e+00 0.0000000e+00 
0.0000000e+00 0.0000000e+00 0.0000000e+00 
0.0000000e+00 0.0000000e+00 0.0000000e+00 
0.0000000e+00 0.0000000e+00 0.0000000e+00 
0.0000000e+00 0.0000000e+00 0.0000000e+00 
0.0000000e+00 0.0000000e+00 0.0000000e+00 
0.0000000e+00 0.0000000e+00 0.0000000e+00 
0.0000000e+00 0.0000000e+00 0.0000000e+00 
0.0000000e+00 0.0000000e+00 0.0000000e+00 
0.0000000e+00 0.0000000e+00 0.0000000e+00 
0.0000000e+00 0.0000000e+00 0.0000000e+00 
0.0000000e+00 0.0000000e+00 0.0000000e+00 
0.0000000e+00 1.3152636e-03 -6.3090591e-04 
0.0000000e+00 5.1588903e-04 0.0000000e+00 
0.0000000e+00 -2.0706588e-04 0.0000000e+00 
0.0000000e+00 3.3676522e-04 0.0000000e+00 
0.0000000e+00 -1.3249825e-03 0.0000000e+00 
0.0000000e+00 4.0456851e-04 0.0000000e+00 
0.0000000e+00 1.0109377e-03 0.0000000e+00 
0.0000000e+00 -7.2228321e-04 0.0000000e+00 
0.0000000e+00 7.1322327e-05 0.0000000e+00 
0.0000000e+00 -4.3513434e-04 0.0000000e+00 
0.0000000e+00 7.3314679e-04 0.0000000e+00 
0.0000000e+00 2.6308949e-04 0.0000000e+00 
0.0000000e+00 -2.5320187e-04 0.0000000e+00 
0.0000000e+00 6.5145869e-04 0.0000000e+00 
0.0000000e+00 -1.4940168e-03 0.0000000e+00 
0.0000000e+00 1.1238036e-03 0.0000000e+00 
0.0000000e+00 1.4062928e-03 0.0000000e+00 
0.0000000e+00 -4.5776687e-04 0.0000000e+00 
0.0000000e+00 3.6162917e-05 0.0000000e+00 
0.0000000e+00 2.5309177e-04 0.0000000e+00 
0.0000000e+00 -5.0581741e-01 -1.0421601e-02 
0.0000000e+00 -5.0001657e-01 0.0000000e+00 
0.0000000e+00 -6.2815559e-01 0.0000000e+00 
0.0000000e+00 -5.9358978e-01 0.0000000e+00 
0.0000000e+00 -6.5421569e-01 0.0000000e+00 
0.0000000e+00 -6.5702367e-01 0.0000000e+00 
0.0000000e+00 -7.9568881e-01 0.0000000e+00 
0.0000000e+00 -9.5505643e-01 0.0000000e+00 
0.0000000e+00 -5.8905303e-01 0.0000000e+00 
0.0000000e+00 -7.0300531e-01 0.0000000e+00 
0.0000000e+00 -5.4217017e-01 0.0000000e+00 
0.0000000e+00 -6.0318238e-01 0.0000000e+00 
0.0000000e+00 -5.9462333e-01 0.0000000e+00 
0.0000000e+00 -6.3985032e-01 0.0000000e+00 
0.0000000e+00 -5.7831466e-01 0.0000000e+00 
0.0000000e+00 -7.8658384e-01 0.0000000e+00 
0.0000000e+00 -9.1901183e-01 0.0000000e+00 
0.0000000e+00 -6.2980866e-01 0.0000000e+00 
0.0000000e+00 -8.3503419e-01 0.0000000e+00 
0.0000000e+00 -2.1457873e-01 0.0000000e+00 
-1.0763736e-02 -5.4104012e-01 0.0000000e+00 
-1.1749147e-02 -5.6154716e-01 -2.4311801e-02 
1.1875245e-02 -5.0308293e-01 0.0000000e+00 
-6.1171420e-04 2.7316280e-03 0.0000000e+00 
-1.3655687e-03 3.5356090e-03 0.0000000e+00 
2.4101376e-03 3.3444623e-03 0.0000000e+00 
-5.6222775e-03 4.9491692e-03 0.0000000e+00 
-2.1353383e-03 -5.4210583e-03 0.0000000e+00 
1.6420217e-02 -8.9997239e-03 0.0000000e+00 
-1.3415456e-02 6.9098235e-03 0.0000000e+00 
-1.6515322e-02 4.1088447e-02 0.0000000e+00 
8.3070964e-02 9.5855519e-02 0.0000000e+00 
1.9960724e-01 -9.9780671e-02 0.0000000e+00 
-1.9319380e-02 5.4380070e-02 0.0000000e+00 
-5.9674392e-03 -3.4461264e-02 0.0000000e+00 
-2.8266451e-01 3.3276090e-01 0.0000000e+00 
-9.8879218e-01 -2.5128675e-01 0.0000000e+00 
-5.7697928e-01 -1.1110426e+00 0.0000000e+00 
-7.7831902e-02 -1.1177926e+00 0.0000000e+00 
4.6378583e-02 -7.1557826e-01 0.0000000e+00 
6.0696892e-02 -5.7130396e-01 0.0000000e+00 
-4.0842447e-04 -1.5973431e-03 0.0000000e+00 
1.0036860e-03 -1.4411032e-03 0.0000000e+00 
-2.5452618e-04 -2.0028411e-03 0.0000000e+00 
-1.8165864e-03 -4.8902247e-04 0.0000000e+00 
3.5245013e-03 8.6405082e-04 0.0000000e+00 
2.7035894e-03 3.4269867e-03 0.0000000e+00 
-1.0048506e-02 -2.2171130e-03 0.0000000e+00 
1.6138621e-02 -4.4325559e-04 0.0000000e+00 
1.4594983e-02 -1.7820027e-02 0.0000000e+00 
6.6519305e-02 2.2329401e-02 0.0000000e+00 
1.4692765e-01 6.2284708e-02 0.0000000e+00 
-5.0752670e-02 -9.5837586e-02 0.0000000e+00 
-8.0459245e-02 2.1433389e-01 0.0000000e+00 
-6.9656026e-01 2.8763217e-01 0.0000000e+00 
-8.6799026e-01 -8.3814526e-01 0.0000000e+00 
-2.9163662e-01 -1.1234618e+00 0.0000000e+00 
-3.6349881e-02 -7.6366001e-01 0.0000000e+00 
4.7173724e-02 -5.8997303e-01 0.0000000e+00 
4.9110591e-02 -4.9148190e-01 0.0000000e+00 
-9.0862280e-01 -7.3273346e-02 0.0000000e+00 
-3.8015342e-01 2.5916213e-01 0.0000000e+00 
2.3652541e-02 1.3293464e-01 0.0000000e+00 
-4.8681084e-02 -2.5087412e-02 0.0000000e+00 
-8.5471106e-01 -8.6637086e-01 0.0000000e+00 
-6.5940791e-01 1.9575179e-01 0.0000000e+00 
-1.2340456e-01 2.8546432e-01 0.0000000e+00 
-2.4248217e-03 -1.3562876e-01 0.0000000e+00 
1.2941597e-01 1.3756216e-01 0.0000000e+00 
3.9797183e-02 6.7616776e-02 0.0000000e+00 
-2.5333259e-02 4.0210851e-02 0.0000000e+00 
1.0730359e-03 2.5262595e-03 0.0000000e+00 
7.7575690e-04 -4.7578099e-03 0.0000000e+00 
8.5345246e-02 2.8712109e-03 0.0000000e+00 
6.6990461e-03 -3.7168358e-02 0.0000000e+00 
7.7566225e-03 7.5564487e-03 0.0000000e+00 
-5.2428450e-03 1.0679605e-03 0.0000000e+00 
4.6106013e-03 1.1030456e-02 0.0000000e+00 
-9.2069780e-07 -7.7641936e-04 0.0000000e+00 
-1.1398083e-04 -3.3322063e-03 0.0000000e+00 
1.8333495e-03 3.1472513e-04 0.0000000e+00 
3.5227155e-03 -9.5438753e-04 0.0000000e+00 
5.2534899e-04 -4.4300763e-05 0.0000000e+00 
1.0787121e-03 7.0369808e-04 0.0000000e+00 
-1.8262375e-03 1.6876825e-03 0.0000000e+00 
3.3373133e-05 1.0530971e-03 0.0000000e+00 
6.1611507e-05 2.4739529e-03 0.0000000e+00 
-1.8313805e-02 -9.6148193e-01 0.0000000e+00 
-8.9223590e-03 -7.4287903e-01 0.0000000e+00 
8.1609033e-02 -6.2567848e-01 0.0000000e+00 
-2.2120492e-01 -1.1323717e+00 0.0000000e+00 
2.9636649e-02 -7.7485466e-01 0.0000000e+00 
6.5702978e-03 -5.7396281e-01 0.0000000e+00 
3.3337597e-02 -5.1385373e-01 0.0000000e+00 
1.3767175e-01 1.4459395e-01 0.0000000e+00 
-1.7162472e-04 2.7116137e-03 0.0000000e+00 
-3.5122100e-01 -8.1142569e-01 0.0000000e+00 
-4.8428323e-02 -7.9236999e-03 0.0000000e+00 
2.1132003e-03 9.6766260e-03 0.0000000e+00 
-1.8636896e-03 5.6829531e-04 0.0000000e+00 
-1.1048254e-01 -7.1228260e-01 0.0000000e+00 
-3.1522990e-04 -1.0371793e-03 0.0000000e+00 
2.2914112e-01 -6.1070943e-01 0.0000000e+00 
-2.1340518e-01 2.8179139e-01 0.0000000e+00 
8.4981564e-03 -2.0228541e-02 0.0000000e+00 
-1.7752147e-03 3.1282590e-03 0.0000000e+00 
-1.0487941e-01 -7.9708141e-01 0.0000000e+00 
6.5062307e-03 2.9520409e-02 0.0000000e+00 
-4.7812513e-03 -2.2668825e-03 0.0000000e+00 
-2.8522538e-02 -5.5518222e-01 0.0000000e+00 
5.6275015e-04 1.1983034e-03 0.0000000e+00 
3.4835202e-01 -7.5895840e-01 0.0000000e+00 
-3.4346289e-04 6.3349609e-04 0.0000000e+00 
1.7999841e-01 -6.4849073e-01 0.0000000e+00 
-2.6504643e-02 -6.2599444e-01 0.0000000e+00 
-1.2046630e-03 1.0831229e-03 0.0000000e+00 
1.6016878e-04 -1.0675600e-03 0.0000000e+00 
-3.2441002e-01 -1.1677848e+00 0.0000000e+00 
-1.9969703e-01 -1.0792663e+00 0.0000000e+00 
-2.1302575e-01 -1.8419397e-01 0.0000000e+00 
-1.0061906e-01 -6.0235769e-01 0.0000000e+00 
3.8409632e-02 1.5033384e-01 0.0000000e+00 
1.2821376e-01 5.7791930e-02 0.0000000e+00 
2.2703101e-01 2.8756031e-01 0.0000000e+00 
3.3027729e-01 1.8948629e-01 0.0000000e+00 
2.5201178e-01 -3.5270467e-02 0.0000000e+00 
3.4997642e-01 -3.4476582e-02 0.0000000e+00 
4.4708008e-01 -1.1326135e-02 0.0000000e+00 
5.1658225e-01 -2.2983454e-02 0.0000000e+00 
-2.8586969e-01 -9.4811696e-01 0.0000000e+00 
3.8784397e-01 -1.8239796e-01 0.0000000e+00 
6.0790426e-01 -1.3445421e-01 0.0000000e+00 
3.6959335e-01 -2.3340766e-01 0.0000000e+00 
6.2109604e-02 -6.7492306e-01 0.0000000e+00 
1.6887935e-01 -4.5987390e-02 0.0000000e+00 
2.4183916e-01 9.2673721e-03 0.0000000e+00 
2.2489649e-01 1.2523687e-02 0.0000000e+00 
2.0611119e-01 -1.0927137e-01 0.0000000e+00 
2.4438590e-01 -1.3992302e-01 0.0000000e+00 
3.8521416e-02 -9.3090544e-03 0.0000000e+00 
2.2591418e-02 -3.0028181e-02 0.0000000e+00 
-1.8695721e-02 -2.2059905e-03 0.0000000e+00 
-1.3097829e-02 -1.1231210e-02 0.0000000e+00 
2.5633143e-02 1.5870519e-02 0.0000000e+00 
2.1123242e-02 1.1215497e-02 0.0000000e+00 
-1.3140803e-02 -6.7018373e-03 0.0000000e+00 
-2.8684703e-03 1.2348645e-03 0.0000000e+00 
9.7282726e-04 2.4222431e-03 0.0000000e+00 
-7.6528774e-03 -1.8077043e-03 0.0000000e+00 
3.3954531e-03 4.7697481e-03 0.0000000e+00 
-2.1499640e-03 -5.9683658e-03 0.0000000e+00 
5.3696390e-03 -8.4374991e-04 0.0000000e+00 
-9.0383291e-03 -7.4857748e-03 0.0000000e+00 
-3.9774668e-03 2.5784934e-03 0.0000000e+00 
-5.4022139e-03 1.8967112e-03 0.0000000e+00 
-3.8472523e-03 5.4548327e-03 0.0000000e+00 
9.5285149e-04 5.0166552e-03 0.0000000e+00 
5.2875131e-01 -4.7803843e-01 0.0000000e+00 
4.0128890e-01 -2.5899297e-01 0.0000000e+00 
-1.3757814e-03 -1.7443516e-03 0.0000000e+00 
-6.5218931e-04 -1.6281424e-03 0.0000000e+00 
2.1344500e-02 -5.0607868e-03 0.0000000e+00 
3.2504597e-01 -3.2306316e-01 0.0000000e+00 
-3.5659927e-01 -8.5626137e-01 0.0000000e+00 
4.3720755e-01 -4.0940899e-01 0.0000000e+00 
-1.5992338e-03 -1.2565469e-03 0.0000000e+00 
-9.5066329e-04 2.1294539e-03 0.0000000e+00 
3.2631105e-03 4.1021014e-04 0.0000000e+00 
6.0030496e-01 -4.1643101e-01 0.0000000e+00 
8.6488180e-02 1.7122485e-02 0.0000000e+00 
-2.7603206e-01 -1.0153503e+00 0.0000000e+00 
1.8035415e-01 1.2262487e-02 0.0000000e+00 
-3.4568144e-03 -5.3440360e-03 0.0000000e+00 
-1.0666518e-04 -1.8807087e-03 0.0000000e+00 
-2.3352954e-01 -8.2900673e-01 0.0000000e+00 
-1.4129949e-01 -7.3182499e-01 0.0000000e+00 
3.4405127e-01 -4.0558121e-01 0.0000000e+00 
2.5242859e-01 -5.7587695e-01 0.0000000e+00 
7.2561012e-04 1.3723660e-03 0.0000000e+00 
1.8939495e-04 -2.5306491e-03 0.0000000e+00 
4.5421848e-04 -4.2800742e-04 0.0000000e+00 
-2.5465030e-03 -4.5230640e-03 0.0000000e+00 
3.1517309e-04 1.1256589e-03 0.0000000e+00 
3.6917192e-01 -1.7273729e-01 0.0000000e+00 
2.7292460e-01 -2.2377390e-01 0.0000000e+00 
4.7494528e-01 -4.1447183e-01 0.0000000e+00 
2.2976740e-01 -5.5562407e-01 0.0000000e+00 
3.6964677e-03 1.6574733e-03 0.0000000e+00 
3.8414687e-01 -6.4059812e-01 0.0000000e+00 
3.3603463e-01 -3.6968443e-01 0.0000000e+00 
1.6655012e-03 2.4937082e-03 0.0000000e+00 
3.4912408e-04 8.8230276e-04 0.0000000e+00 
-1.7057411e-01 -8.2488805e-01 0.0000000e+00 
-1.0619567e-01 -7.1611464e-01 0.0000000e+00 
-1.3968043e-01 -6.6175485e-01 0.0000000e+00 
-7.2173633e-02 -5.3481376e-01 0.0000000e+00 
-4.9568351e-02 -6.0468912e-01 0.0000000e+00 
-1.6001168e-01 -6.8762010e-01 0.0000000e+00 
-7.1375072e-03 2.9703362e-03 0.0000000e+00 
-6.1169462e-03 2.6015798e-03 0.0000000e+00 
3.4780442e-03 1.7324416e-04 0.0000000e+00 
9.1258306e-03 -6.1628157e-03 0.0000000e+00 
-2.9218399e-03 1.6526291e-02 0.0000000e+00 
-1.1340437e-03 -7.3310342e-03 0.0000000e+00 
9.1162309e-02 3.7468441e-02 0.0000000e+00 
1.4013126e-01 -3.5020292e-02 0.0000000e+00 
-5.8773981e-04 2.0763546e-03 0.0000000e+00 
4.5910175e-04 -9.4626375e-05 0.0000000e+00 
1.3648826e-03 4.0804583e-04 0.0000000e+00 
-5.5859878e-04 -1.7277962e-03 0.0000000e+00 
3.3761968e-04 -5.8222376e-04 0.0000000e+00 
-1.6595088e-01 2.8681311e-01 0.0000000e+00 
2.1502704e-03 2.1372221e-03 0.0000000e+00 
2.8640308e-04 -1.0520428e-04 0.0000000e+00 
-1.2256361e-01 -8.1045932e-01 0.0000000e+00 
-8.1515573e-03 5.5017048e-03 0.0000000e+00 
1.4697051e-03 1.5481856e-02 0.0000000e+00 
-7.4595690e-04 7.2711828e-04 0.0000000e+00 
-4.2072847e-03 -1.5714029e-02 0.0000000e+00 
3.8947737e-01 -3.8020030e-01 0.0000000e+00 
9.4875976e-02 -1.1927698e-02 0.0000000e+00 
1.1850997e-03 9.4604015e-04 0.0000000e+00 
-3.3840209e-01 2.2236532e-01 0.0000000e+00 
-1.9288624e-02 -8.2677104e-02 0.0000000e+00 
-1.3898742e-02 1.9545510e-01 0.0000000e+00 
4.9712386e-02 3.3769172e-03 0.0000000e+00 
1.6339941e-04 -1.8164996e-03 0.0000000e+00 
5.7370015e-03 -2.1343974e-03 0.0000000e+00 
7.5911509e-04 3.3036110e-03 0.0000000e+00 
2.9250959e-02 -2.2748102e-02 0.0000000e+00 
1.9902539e-02 -9.4800862e-03 0.0000000e+00 
-3.0920865e-02 5.4496843e-03 0.0000000e+00 
1.7480372e-02 2.3075349e-03 0.0000000e+00 
6.3926857e-03 -8.0776578e-03 0.0000000e+00 
-3.0427575e-04 -1.9505160e-02 0.0000000e+00 
-1.2391184e-02 -1.4411091e-02 0.0000000e+00 
5.9518631e-04 2.7293006e-03 0.0000000e+00 
-7.8575651e-04 -3.0335768e-03 0.0000000e+00 
8.9090178e-04 4.6169646e-02 0.0000000e+00 
2.0791106e-01 -7.7255297e-01 0.0000000e+00 
2.9940256e-01 -9.2222667e-01 0.0000000e+00 
-1.2515209e-02 -8.9986259e-03 0.0000000e+00 
1.7333196e-02 1.3988469e-02 0.0000000e+00 
2.0426027e-02 2.7219823e-02 0.0000000e+00 
1.0330290e-02 1.9239765e-02 0.0000000e+00 
1.8063477e-03 6.3942629e-03 0.0000000e+00 
2.4028374e-03 1.5407855e-03 0.0000000e+00 
-8.3650490e-03 -1.6975084e-02 0.0000000e+00 
-5.7754701e-04 1.0182994e-03 0.0000000e+00 
6.6029005e-02 -8.7815893e-01 0.0000000e+00 
7.1768880e-02 3.4470955e-01 0.0000000e+00 
-1.8934719e-01 -7.3779786e-01 0.0000000e+00 
-7.4462616e-04 -8.7888422e-04 0.0000000e+00 
7.7858888e-02 7.9402355e-03 0.0000000e+00 
1.2203026e-01 -4.1873641e-02 0.0000000e+00 
3.9418870e-01 -4.6075228e-01 0.0000000e+00 
-7.2794696e-03 -3.2468378e-03 0.0000000e+00 
1.0170218e-03 4.2691387e-02 0.0000000e+00 
1.3379095e-02 -8.0681980e-01 0.0000000e+00 
3.1571269e-02 3.8566585e-03 0.0000000e+00 
3.3060783e-01 -6.2181931e-02 0.0000000e+00 
-2.3544297e-01 -9.6523893e-01 0.0000000e+00 
3.1495804e-01 -1.1421820e-01 0.0000000e+00 
-3.1107929e-01 -9.8364955e-01 0.0000000e+00 
5.5597140e-03 1.0257761e-02 0.0000000e+00 
5.0618248e-03 -1.3546482e-02 0.0000000e+00 
2.5126439e-01 -1.7789255e-01 0.0000000e+00 
1.4717089e-03 -3.1696872e-03 0.0000000e+00 
-1.6595981e-01 -7.0898622e-01 0.0000000e+00 
-1.3889147e-01 -9.0279692e-01 0.0000000e+00 
-2.9578624e-02 -6.2601608e-01 0.0000000e+00 
-1.8909479e-02 -4.8149085e-01 0.0000000e+00 
4.9922630e-02 -7.2828513e-01 0.0000000e+00 
-1.1667604e-04 -2.5826163e-04 0.0000000e+00 
-4.6569643e-05 5.5251596e-04 0.0000000e+00 
1.0056756e-04 -1.9513142e-05 0.0000000e+00 
1.5542889e-01 -4.7339290e-01 0.0000000e+00 
-1.5100606e-01 -8.6310142e-01 0.0000000e+00 
3.3258813e-04 -3.5355424e-05 0.0000000e+00 
4.1673235e-03 6.4401224e-02 0.0000000e+00 
4.3079287e-02 -1.2894803e-01 0.0000000e+00 
6.5412209e-04 -3.5530318e-02 0.0000000e+00 
9.3736835e-02 -2.0614876e-01 0.0000000e+00 
-2.1356530e-04 -1.1401548e-02 0.0000000e+00 
-2.9055506e-03 -7.0547881e-03 0.0000000e+00 
-9.2757680e-04 3.4515257e-04 0.0000000e+00 
-7.4302298e-03 -5.2561873e-01 0.0000000e+00 
2.8921694e-01 -4.5844251e-01 0.0000000e+00 
3.9238840e-01 -4.5020652e-01 0.0000000e+00 
2.9695382e-02 1.9493863e-02 0.0000000e+00 
-7.3536672e-03 -2.8030764e-02 0.0000000e+00 
-1.0596721e-02 -1.8615523e-02 0.0000000e+00 
9.3903895e-03 7.5066965e-03 0.0000000e+00 
3.0905969e-04 8.6699966e-03 0.0000000e+00 
-4.6418044e-03 2.0040087e-03 0.0000000e+00 
-8.2398707e-04 1.4639010e-03 0.0000000e+00 
3.5339597e-01 -6.3819945e-01 0.0000000e+00 
-4.3357402e-02 2.4582522e-02 0.0000000e+00 
2.0224841e-01 -2.0325173e-01 0.0000000e+00 
-4.0341049e-02 -6.0395324e-01 0.0000000e+00 
-1.0891345e-04 6.2339584e-04 0.0000000e+00 
3.9632653e-04 1.2494501e-04 0.0000000e+00 
-1.0603691e-02 -5.6399417e-01 0.0000000e+00 
1.3659255e-01 -4.9370280e-01 0.0000000e+00 