# vtk DataFile Version 4.0
vtk output
ASCII
DATASET UNSTRUCTURED_GRID
POINTS 16368 float
0.0000000e+00 0.0000000e+00 0.0000000e+00 
2.0000000e+01 0.0000000e+00 0.0000000e+00 
2.0000000e+01 1.0000000e+01 0.0000000e+00 
0.0000000e+00 1.0000000e+01 0.0000000e+00 
0.0000000e+00 0.0000000e+00 1.0000000e+00 
2.0000000e+01 0.0000000e+00 1.0000000e+00 
2.0000000e+01 1.0000000e+01 1.0000000e+00 
0.0000000e+00 1.0000000e+01 1.0000000e+00 
1.0000000e+00 1.0000000e+01 0.0000000e+00 
1.0000000e+00 1.0000000e+01 1.0000000e+00 
5.0000000e+00 1.0000000e+01 0.0000000e+00 
1.0000000e+01 1.0000000e+01 0.0000000e+00 
1.5000000e+01 1.0000000e+01 0.0000000e+00 
5.0000000e-01 0.0000000e+00 0.0000000e+00 
1.0000000e+00 0.0000000e+00 0.0000000e+00 
1.5000000e+00 0.0000000e+00 0.0000000e+00 
2.0000000e+00 0.0000000e+00 0.0000000e+00 
2.5000000e+00 0.0000000e+00 0.0000000e+00 
3.0000000e+00 0.0000000e+00 0.0000000e+00 
3.5000000e+00 0.0000000e+00 0.0000000e+00 
4.0000000e+00 0.0000000e+00 0.0000000e+00 
4.5000000e+00 0.0000000e+00 0.0000000e+00 
5.0000000e+00 0.0000000e+00 0.0000000e+00 
5.5000000e+00 0.0000000e+00 0.0000000e+00 
6.0000000e+00 0.0000000e+00 0.0000000e+00 
6.5000000e+00 0.0000000e+00 0.0000000e+00 
7.0000000e+00 0.0000000e+00 0.0000000e+00 
7.5000000e+00 0.0000000e+00 0.0000000e+00 
8.0000000e+00 0.0000000e+00 0.0000000e+00 
8.5000000e+00 0.0000000e+00 0.0000000e+00 
9.0000000e+00 0.0000000e+00 0.0000000e+00 
9.5000000e+00 0.0000000e+00 0.0000000e+00 
1.0000000e+01 0.0000000e+00 0.0000000e+00 
1.0500000e+01 0.0000000e+00 0.0000000e+00 
1.1000000e+01 0.0000000e+00 0.0000000e+00 
1.1500000e+01 0.0000000e+00 0.0000000e+00 
1.2000000e+01 0.0000000e+00 0.0000000e+00 
1.2500000e+01 0.0000000e+00 0.0000000e+00 
1.3000000e+01 0.0000000e+00 0.0000000e+00 
1.3500000e+01 0.0000000e+00 0.0000000e+00 
1.4000000e+01 0.0000000e+00 0.0000000e+00 
1.4500000e+01 0.0000000e+00 0.0000000e+00 
1.5000000e+01 0.0000000e+00 0.0000000e+00 
1.5500000e+01 0.0000000e+00 0.0000000e+00 
1.6000000e+01 0.0000000e+00 0.0000000e+00 
1.6500000e+01 0.0000000e+00 0.0000000e+00 
1.7000000e+01 0.0000000e+00 0.0000000e+00 
1.7500000e+01 0.0000000e+00 0.0000000e+00 
1.8000000e+01 0.0000000e+00 0.0000000e+00 
1.8500000e+01 0.0000000e+00 0.0000000e+00 
1.9000000e+01 0.0000000e+00 0.0000000e+00 
1.9500000e+01 0.0000000e+00 0.0000000e+00 
2.5000000e-01 0.0000000e+00 0.0000000e+00 
7.5000000e-01 0.0000000e+00 0.0000000e+00 
1.2500000e+00 0.0000000e+00 0.0000000e+00 
1.7500000e+00 0.0000000e+00 0.0000000e+00 
2.2500000e+00 0.0000000e+00 0.0000000e+00 
2.7500000e+00 0.0000000e+00 0.0000000e+00 
3.2500000e+00 0.0000000e+00 0.0000000e+00 
3.7500000e+00 0.0000000e+00 0.0000000e+00 
4.2500000e+00 0.0000000e+00 0.0000000e+00 
4.7500000e+00 0.0000000e+00 0.0000000e+00 
5.2500000e+00 0.0000000e+00 0.0000000e+00 
5.7500000e+00 0.0000000e+00 0.0000000e+00 
6.2500000e+00 0.0000000e+00 0.0000000e+00 
6.7500000e+00 0.0000000e+00 0.0000000e+00 
7.2500000e+00 0.0000000e+00 0.0000000e+00 
7.7500000e+00 0.0000000e+00 0.0000000e+00 
8.2500000e+00 0.0000000e+00 0.0000000e+00 
8.7500000e+00 0.0000000e+00 0.0000000e+00 
9.2500000e+00 0.0000000e+00 0.0000000e+00 
9.7500000e+00 0.0000000e+00 0.0000000e+00 
1.0250000e+01 0.0000000e+00 0.0000000e+00 
1.0750000e+01 0.0000000e+00 0.0000000e+00 
1.1250000e+01 0.0000000e+00 0.0000000e+00 
1.1750000e+01 0.0000000e+00 0.0000000e+00 
1.2250000e+01 0.0000000e+00 0.0000000e+00 
1.2750000e+01 0.0000000e+00 0.0000000e+00 
1.3250000e+01 0.0000000e+00 0.0000000e+00 
1.3750000e+01 0.0000000e+00 0.0000000e+00 
1.4250000e+01 0.0000000e+00 0.0000000e+00 
1.4750000e+01 0.0000000e+00 0.0000000e+00 
1.5250000e+01 0.0000000e+00 0.0000000e+00 
1.5750000e+01 0.0000000e+00 0.0000000e+00 
1.6250000e+01 0.0000000e+00 0.0000000e+00 
1.6750000e+01 0.0000000e+00 0.0000000e+00 
1.7250000e+01 0.0000000e+00 0.0000000e+00 
1.7750000e+01 0.0000000e+00 0.0000000e+00 
1.8250000e+01 0.0000000e+00 0.0000000e+00 
1.8750000e+01 0.0000000e+00 0.0000000e+00 
1.9250000e+01 0.0000000e+00 0.0000000e+00 
1.9750000e+01 0.0000000e+00 0.0000000e+00 
2.0000000e+01 5.0000000e-01 0.0000000e+00 
2.0000000e+01 1.0000000e+00 0.0000000e+00 
2.0000000e+01 1.5000000e+00 0.0000000e+00 
2.0000000e+01 2.0000000e+00 0.0000000e+00 
2.0000000e+01 2.5000000e+00 0.0000000e+00 
2.0000000e+01 3.0000000e+00 0.0000000e+00 
2.0000000e+01 3.5000000e+00 0.0000000e+00 
2.0000000e+01 4.0000000e+00 0.0000000e+00 
2.0000000e+01 4.5000000e+00 0.0000000e+00 
2.0000000e+01 5.0000000e+00 0.0000000e+00 
2.0000000e+01 5.5000000e+00 0.0000000e+00 
2.0000000e+01 6.0000000e+00 0.0000000e+00 
2.0000000e+01 6.5000000e+00 0.0000000e+00 
2.0000000e+01 7.0000000e+00 0.0000000e+00 
2.0000000e+01 7.5000000e+00 0.0000000e+00 
2.0000000e+01 8.0000000e+00 0.0000000e+00 
2.0000000e+01 8.5000000e+00 0.0000000e+00 
2.0000000e+01 9.0000000e+00 0.0000000e+00 
2.0000000e+01 9.5000000e+00 0.0000000e+00 
2.0000000e+01 2.5000000e-01 0.0000000e+00 
2.0000000e+01 7.5000000e-01 0.0000000e+00 
2.0000000e+01 1.2500000e+00 0.0000000e+00 
2.0000000e+01 1.7500000e+00 0.0000000e+00 
2.0000000e+01 2.2500000e+00 0.0000000e+00 
2.0000000e+01 2.7500000e+00 0.0000000e+00 
2.0000000e+01 3.2500000e+00 0.0000000e+00 
2.0000000e+01 3.7500000e+00 0.0000000e+00 
2.0000000e+01 4.2500000e+00 0.0000000e+00 
2.0000000e+01 4.7500000e+00 0.0000000e+00 
2.0000000e+01 5.2500000e+00 0.0000000e+00 
2.0000000e+01 5.7500000e+00 0.0000000e+00 
2.0000000e+01 6.2500000e+00 0.0000000e+00 
2.0000000e+01 6.7500000e+00 0.0000000e+00 
2.0000000e+01 7.2500000e+00 0.0000000e+00 
2.0000000e+01 7.7500000e+00 0.0000000e+00 
2.0000000e+01 8.2500000e+00 0.0000000e+00 
2.0000000e+01 8.7500000e+00 0.0000000e+00 
2.0000000e+01 9.2500000e+00 0.0000000e+00 
2.0000000e+01 9.7500000e+00 0.0000000e+00 
0.0000000e+00 9.5000000e+00 0.0000000e+00 
0.0000000e+00 9.0000000e+00 0.0000000e+00 
0.0000000e+00 8.5000000e+00 0.0000000e+00 
0.0000000e+00 8.0000000e+00 0.0000000e+00 
0.0000000e+00 7.5000000e+00 0.0000000e+00 
0.0000000e+00 7.0000000e+00 0.0000000e+00 
0.0000000e+00 6.5000000e+00 0.0000000e+00 
0.0000000e+00 6.0000000e+00 0.0000000e+00 
0.0000000e+00 5.5000000e+00 0.0000000e+00 
0.0000000e+00 5.0000000e+00 0.0000000e+00 
0.0000000e+00 4.5000000e+00 0.0000000e+00 
0.0000000e+00 4.0000000e+00 0.0000000e+00 
0.0000000e+00 3.5000000e+00 0.0000000e+00 
0.0000000e+00 3.0000000e+00 0.0000000e+00 
0.0000000e+00 2.5000000e+00 0.0000000e+00 
0.0000000e+00 2.0000000e+00 0.0000000e+00 
0.0000000e+00 1.5000000e+00 0.0000000e+00 
0.0000000e+00 1.0000000e+00 0.0000000e+00 
0.0000000e+00 5.0000000e-01 0.0000000e+00 
0.0000000e+00 9.7500000e+00 0.0000000e+00 
0.0000000e+00 9.2500000e+00 0.0000000e+00 
0.0000000e+00 8.7500000e+00 0.0000000e+00 
0.0000000e+00 8.2500000e+00 0.0000000e+00 
0.0000000e+00 7.7500000e+00 0.0000000e+00 
0.0000000e+00 7.2500000e+00 0.0000000e+00 
0.0000000e+00 6.7500000e+00 0.0000000e+00 
0.0000000e+00 6.2500000e+00 0.0000000e+00 
0.0000000e+00 5.7500000e+00 0.0000000e+00 
0.0000000e+00 5.2500000e+00 0.0000000e+00 
0.0000000e+00 4.7500000e+00 0.0000000e+00 
0.0000000e+00 4.2500000e+00 0.0000000e+00 
0.0000000e+00 3.7500000e+00 0.0000000e+00 
0.0000000e+00 3.2500000e+00 0.0000000e+00 
0.0000000e+00 2.7500000e+00 0.0000000e+00 
0.0000000e+00 2.2500000e+00 0.0000000e+00 
0.0000000e+00 1.7500000e+00 0.0000000e+00 
0.0000000e+00 1.2500000e+00 0.0000000e+00 
0.0000000e+00 7.5000000e-01 0.0000000e+00 
0.0000000e+00 2.5000000e-01 0.0000000e+00 
0.0000000e+00 0.0000000e+00 5.0000000e-01 
0.0000000e+00 0.0000000e+00 2.5000000e-01 
0.0000000e+00 0.0000000e+00 7.5000000e-01 
2.0000000e+01 0.0000000e+00 5.0000000e-01 
2.0000000e+01 0.0000000e+00 2.5000000e-01 
2.0000000e+01 0.0000000e+00 7.5000000e-01 
5.0000000e-01 0.0000000e+00 1.0000000e+00 
1.0000000e+00 0.0000000e+00 1.0000000e+00 
1.5000000e+00 0.0000000e+00 1.0000000e+00 
2.0000000e+00 0.0000000e+00 1.0000000e+00 
2.5000000e+00 0.0000000e+00 1.0000000e+00 
3.0000000e+00 0.0000000e+00 1.0000000e+00 
3.5000000e+00 0.0000000e+00 1.0000000e+00 
4.0000000e+00 0.0000000e+00 1.0000000e+00 
4.5000000e+00 0.0000000e+00 1.0000000e+00 
5.0000000e+00 0.0000000e+00 1.0000000e+00 
5.5000000e+00 0.0000000e+00 1.0000000e+00 
6.0000000e+00 0.0000000e+00 1.0000000e+00 
6.5000000e+00 0.0000000e+00 1.0000000e+00 
7.0000000e+00 0.0000000e+00 1.0000000e+00 
7.5000000e+00 0.0000000e+00 1.0000000e+00 
8.0000000e+00 0.0000000e+00 1.0000000e+00 
8.5000000e+00 0.0000000e+00 1.0000000e+00 
9.0000000e+00 0.0000000e+00 1.0000000e+00 
9.5000000e+00 0.0000000e+00 1.0000000e+00 
1.0000000e+01 0.0000000e+00 1.0000000e+00 
1.0500000e+01 0.0000000e+00 1.0000000e+00 
1.1000000e+01 0.0000000e+00 1.0000000e+00 
1.1500000e+01 0.0000000e+00 1.0000000e+00 
1.2000000e+01 0.0000000e+00 1.0000000e+00 
1.2500000e+01 0.0000000e+00 1.0000000e+00 
1.3000000e+01 0.0000000e+00 1.0000000e+00 
1.3500000e+01 0.0000000e+00 1.0000000e+00 
1.4000000e+01 0.0000000e+00 1.0000000e+00 
1.4500000e+01 0.0000000e+00 1.0000000e+00 
1.5000000e+01 0.0000000e+00 1.0000000e+00 
1.5500000e+01 0.0000000e+00 1.0000000e+00 
1.6000000e+01 0.0000000e+00 1.0000000e+00 
1.6500000e+01 0.0000000e+00 1.0000000e+00 
1.7000000e+01 0.0000000e+00 1.0000000e+00 
1.7500000e+01 0.0000000e+00 1.0000000e+00 
1.8000000e+01 0.0000000e+00 1.0000000e+00 
1.8500000e+01 0.0000000e+00 1.0000000e+00 
1.9000000e+01 0.0000000e+00 1.0000000e+00 
1.9500000e+01 0.0000000e+00 1.0000000e+00 
2.5000000e-01 0.0000000e+00 1.0000000e+00 
7.5000000e-01 0.0000000e+00 1.0000000e+00 
1.2500000e+00 0.0000000e+00 1.0000000e+00 
1.7500000e+00 0.0000000e+00 1.0000000e+00 
2.2500000e+00 0.0000000e+00 1.0000000e+00 
2.7500000e+00 0.0000000e+00 1.0000000e+00 
3.2500000e+00 0.0000000e+00 1.0000000e+00 
3.7500000e+00 0.0000000e+00 1.0000000e+00 
4.2500000e+00 0.0000000e+00 1.0000000e+00 
4.7500000e+00 0.0000000e+00 1.0000000e+00 
5.2500000e+00 0.0000000e+00 1.0000000e+00 
5.7500000e+00 0.0000000e+00 1.0000000e+00 
6.2500000e+00 0.0000000e+00 1.0000000e+00 
6.7500000e+00 0.0000000e+00 1.0000000e+00 
7.2500000e+00 0.0000000e+00 1.0000000e+00 
[...]
POINT_DATA 16368
FIELD FieldData 1
VELOCITY 3 16368  float
0.0000000e+00 0.0000000e+00 0.0000000e+00 
0.0000000e+00 0.0000000e+00 0.0000000e+00 
0.0000000e+00 -8.8777124e-05 0.0000000e+00 
0.0000000e+00 -4.8691472e-01 0.0000000e+00 
0.0000000e+00 0.0000000e+00 0.0000000e+00 
0.0000000e+00 0.0000000e+00 0.0000000e+00 
0.0000000e+00 -8.8543937e-05 0.0000000e+00 
0.0000000e+00 -5.2666605e-01 0.0000000e+00 
-7.3205349e-03 -5.4591030e-01 0.0000000e+00 
-1.6435632e-02 -5.4026300e-01 0.0000000e+00 
-6.4876860e-01 -1.2830142e+00 0.0000000e+00 
1.3285424e-01 4.1782130e-02 0.0000000e+00 
1.0661615e-05 -1.9294776e-04 0.0000000e+00 
0.0000000e+00 0.0000000e+00 0.0000000e+00 
0.0000000e+00 0.0000000e+00 0.0000000e+00 
0.0000000e+00 0.0000000e+00 0.0000000e+00 
0.0000000e+00 0.0000000e+00 0.0000000e+00 
0.0000000e+00 0.0000000e+00 0.0000000e+00 
0.0000000e+00 0.0000000e+00 0.0000000e+00 
0.0000000e+00 0.0000000e+00 0.0000000e+00 
0.0000000e+00 0.0000000e+00 0.0000000e+00 
0.0000000e+00 0.0000000e+00 0.0000000e+00 
0.0000000e+00 0.0000000e+00 0.0000000e+00 
0.0000000e+00 0.0000000e+00 0.0000000e+00 
0.0000000e+00 0.0000000e+00 0.0000000e+00 
0.0000000e+00 0.0000000e+00 0.0000000e+00 
0.0000000e+00 0.0000000e+00 0.0000000e+00 
0.0000000e+00 0.0000000e+00 0.0000000e+00 
0.0000000e+00 0.0000000e+00 0.0000000e+00 
0.0000000e+00 0.0000000e+00 0.0000000e+00 
0.0000000e+00 0.0000000e+00 0.0000000e+00 
0.0000000e+00 0.0000000e+00 0.0000000e+00 
0.0000000e+00 0.0000000e+00 0.0000000e+00 
0.0000000e+00 0.0000000e+00 0.0000000e+00 
0.0000000e+00 0.0000000e+00 0.0000000e+00 
0.0000000e+00 0.0000000e+00 0.0000000e+00 
0.0000000e+00 0.0000000e+00 0.0000000e+00 
0.0000000e+00 0.0000000e+00 0.0000000e+00 
0.0000000e+00 0.0000000e+00 0.0000000e+00 
0.0000000e+00 0.0000000e+00 0.0000000e+00 
0.0000000e+00 0.0000000e+00 0.0000000e+00 
0.0000000e+00 0.0000000e+00 0.0000000e+00 
0.0000000e+00 0.0000000e+00 0.0000000e+00 
0.0000000e+00 0.0000000e+00 0.0000000e+00 
0.0000000e+00 0.0000000e+00 0.0000000e+00 
0.0000000e+00 0.0000000e+00 0.0000000e+00 
0.0000000e+00 0.0000000e+00 0.0000000e+00 
0.0000000e+00 0.0000000e+00 0.0000000e+00 
0.0000000e+00 0.0000000e+00 0.0000000e+00 
0.0000000e+00 0.0000000e+00 0.0000000e+00 
0.0000000e+00 0.0000000e+00 0.0000000e+00 
0.0000000e+00 0.0000000e+00 0.0000000e+00 
0.0000000e+00 0.0000000e+00 0.0000000e+00 
0.0000000e+00 0.0000000e+00 0.0000000e+00 
0.0000000e+00 0.0000000e+00 0.0000000e+00 
0.0000000e+00 0.0000000e+00 0.0000000e+00 
0.0000000e+00 0.0000000e+00 0.0000000e+00 
0.0000000e+00 0.0000000e+00 0.0000000e+00 
0.0000000e+00 0.0000000e+00 0.0000000e+00 
0.0000000e+00 0.0000000e+00 0.0000000e+00 
0.0000000e+00 0.0000000e+00 0.0000000e+00 
0.0000000e+00 0.0000000e+00 0.0000000e+00 
0.0000000e+00 0.0000000e+00 0.0000000e+00 
0.0000000e+00 0.0000000e+00 0.0000000e+00 
0.0000000e+00 0.0000000e+00 0.0000000e+00 
0.0000000e+00 0.0000000e+00 0.0000000e+00 
0.0000000e+00 0.0000000e+00 0.0000000e+00 
0.0000000e+00 0.0000000e+00 0.0000000e+00 
0.0000000e+00 0.0000000e+00 0.0000000e+00 
0.0000000e+00 0.0000000e+00 0.0000000e+00 
0.0000000e+00 0.0000000e+00 0.0000000e+00 
0.0000000e+00 0.0000000e+00 0.0000000e+00 
0.0000000e+00 0.0000000e+00 0.0000000e+00 
0.0000000e+00 0.0000000e+00 0.0000000e+00 
0.0000000e+00 0.0000000e+00 0.0000000e+00 
0.0000000e+00 0.0000000e+00 0.0000000e+00 
0.0000000e+00 0.0000000e+00 0.0000000e+00 
0.0000000e+00 0.0000000e+00 0.0000000e+00 
0.0000000e+00 0.0000000e+00 0.0000000e+00 
0.0000000e+00 0.0000000e+00 0.0000000e+00 
0.0000000e+00 0.0000000e+00 0.0000000e+00 
0.0000000e+00 0.0000000e+00 0.0000000e+00 
0.0000000e+00 0.0000000e+00 0.0000000e+00 
0.0000000e+00 0.0000000e+00 0.0000000e+00 
0.0000000e+00 0.0000000e+00 0.0000000e+00 
0.0000000e+00 0.0000000e+00 0.0000000e+00 
0.0000000e+00 0.0000000e+00 0.0000000e+00 
0.0000000e+00 0.0000000e+00 0.0000000e+00 
0.0000000e+00 0.0000000e+00 0.0000000e+00 
0.0000000e+00 0.0000000e+00 0.0000000e+00 
0.0000000e+00 0.0000000e+00 0.0000000e+00 
0.0000000e+00 0.0000000e+00 0.0000000e+00 
0.0000000e+00 -9.5467076e-06 0.0000000e+00 
0.0000000e+00 -1.2308764e-05 0.0000000e+00 
0.0000000e+00 -1.9725328e-05 0.0000000e+00 
0.0000000e+00 -2.3727578e-05 0.0000000e+00 
0.0000000e+00 -3.0943338e-05 0.0000000e+00 
0.0000000e+00 -3.9146136e-05 0.0000000e+00 
0.0000000e+00 -4.5957069e-05 0.0000000e+00 
0.0000000e+00 -5.2939115e-05 0.0000000e+00 
0.0000000e+00 -5.8203623e-05 0.0000000e+00 
0.0000000e+00 -6.3807362e-05 0.0000000e+00 
0.0000000e+00 -6.9599548e-05 0.0000000e+00 
0.0000000e+00 -7.3988471e-05 0.0000000e+00 
0.0000000e+00 -7.5967313e-05 0.0000000e+00 
0.0000000e+00 -7.9448480e-05 0.0000000e+00 
0.0000000e+00 -8.3142651e-05 0.0000000e+00 
0.0000000e+00 -8.5289379e-05 0.0000000e+00 
0.0000000e+00 -8.6211738e-05 0.0000000e+00 
0.0000000e+00 -8.7594068e-05 0.0000000e+00 
0.0000000e+00 -8.8434688e-05 0.0000000e+00 
0.0000000e+00 -2.3022537e-06 0.0000000e+00 
0.0000000e+00 -1.9272797e-07 0.0000000e+00 
0.0000000e+00 -2.6630419e-06 0.0000000e+00 
0.0000000e+00 -4.2087941e-06 0.0000000e+00 
0.0000000e+00 -2.5026100e-06 0.0000000e+00 
0.0000000e+00 -7.3794527e-06 0.0000000e+00 
0.0000000e+00 -4.9739119e-06 0.0000000e+00 
0.0000000e+00 -7.7820878e-06 0.0000000e+00 
0.0000000e+00 -9.2695745e-06 0.0000000e+00 
0.0000000e+00 -1.0078101e-05 0.0000000e+00 
0.0000000e+00 -1.0985838e-05 0.0000000e+00 
0.0000000e+00 -1.2808498e-05 0.0000000e+00 
0.0000000e+00 -1.2631386e-05 0.0000000e+00 
0.0000000e+00 -1.2390337e-05 0.0000000e+00 
0.0000000e+00 -1.4273326e-05 0.0000000e+00 
0.0000000e+00 -1.4131904e-05 0.0000000e+00 
0.0000000e+00 -1.4752576e-05 0.0000000e+00 
0.0000000e+00 -1.4365220e-05 0.0000000e+00 
0.0000000e+00 -1.4878713e-05 0.0000000e+00 
0.0000000e+00 -1.4995990e-05 0.0000000e+00 
0.0000000e+00 -4.8279110e-01 0.0000000e+00 
0.0000000e+00 -5.2592564e-01 0.0000000e+00 
0.0000000e+00 -4.9761745e-01 0.0000000e+00 
0.0000000e+00 -5.0351375e-01 0.0000000e+00 
0.0000000e+00 -5.5986345e-01 0.0000000e+00 
0.0000000e+00 -6.1071646e-01 0.0000000e+00 
0.0000000e+00 -5.6388527e-01 0.0000000e+00 
0.0000000e+00 -5.8900130e-01 0.0000000e+00 
0.0000000e+00 -6.3803351e-01 0.0000000e+00 
0.0000000e+00 -6.9492608e-01 0.0000000e+00 
0.0000000e+00 -7.2731829e-01 0.0000000e+00 
0.0000000e+00 -8.4904307e-01 0.0000000e+00 
0.0000000e+00 -8.5259002e-01 0.0000000e+00 
0.0000000e+00 -7.4329412e-01 0.0000000e+00 
0.0000000e+00 -6.5810502e-01 0.0000000e+00 
0.0000000e+00 -6.1818534e-01 0.0000000e+00 
0.0000000e+00 -6.1079079e-01 0.0000000e+00 
0.0000000e+00 -5.7634681e-01 0.0000000e+00 
0.0000000e+00 -5.1309121e-01 0.0000000e+00 
0.0000000e+00 -4.9103472e-01 0.0000000e+00 
0.0000000e+00 -5.0160849e-01 0.0000000e+00 
0.0000000e+00 -5.1911491e-01 0.0000000e+00 
0.0000000e+00 -4.9339339e-01 0.0000000e+00 
0.0000000e+00 -5.3813952e-01 0.0000000e+00 
0.0000000e+00 -5.8023310e-01 0.0000000e+00 
0.0000000e+00 -5.9603959e-01 0.0000000e+00 
0.0000000e+00 -5.7340664e-01 0.0000000e+00 
0.0000000e+00 -6.1415434e-01 0.0000000e+00 
0.0000000e+00 -6.5952384e-01 0.0000000e+00 
0.0000000e+00 -7.1064079e-01 0.0000000e+00 
0.0000000e+00 -7.8183901e-01 0.0000000e+00 
0.0000000e+00 -8.7271172e-01 0.0000000e+00 
0.0000000e+00 -8.0219400e-01 0.0000000e+00 
0.0000000e+00 -7.0218277e-01 0.0000000e+00 
0.0000000e+00 -6.5082467e-01 0.0000000e+00 
0.0000000e+00 -5.9506261e-01 0.0000000e+00 
0.0000000e+00 -6.2331408e-01 0.0000000e+00 
0.0000000e+00 -5.5452955e-01 0.0000000e+00 
0.0000000e+00 -3.5224193e-01 0.0000000e+00 
0.0000000e+00 0.0000000e+00 0.0000000e+00 
0.0000000e+00 0.0000000e+00 0.0000000e+00 
0.0000000e+00 0.0000000e+00 0.0000000e+00 
0.0000000e+00 0.0000000e+00 0.0000000e+00 
0.0000000e+00 0.0000000e+00 0.0000000e+00 
0.0000000e+00 0.0000000e+00 0.0000000e+00 
0.0000000e+00 0.0000000e+00 0.0000000e+00 
0.0000000e+00 0.0000000e+00 0.0000000e+00 
0.0000000e+00 0.0000000e+00 0.0000000e+00 
0.0000000e+00 0.0000000e+00 0.0000000e+00 
0.0000000e+00 0.0000000e+00 0.0000000e+00 
0.0000000e+00 0.0000000e+00 0.0000000e+00 
0.0000000e+00 0.0000000e+00 0.0000000e+00 
0.0000000e+00 0.0000000e+00 0.0000000e+00 
0.0000000e+00 0.0000000e+00 0.0000000e+00 
0.0000000e+00 0.0000000e+00 0.0000000e+00 
0.0000000e+00 0.0000000e+00 0.0000000e+00 
0.0000000e+00 0.0000000e+00 0.0000000e+00 
0.0000000e+00 0.0000000e+00 0.0000000e+00 
0.0000000e+00 0.0000000e+00 0.0000000e+00 
0.0000000e+00 0.0000000e+00 0.0000000e+00 
0.0000000e+00 0.0000000e+00 0.0000000e+00 
0.0000000e+00 0.0000000e+00 0.0000000e+00 
0.0000000e+00 0.0000000e+00 0.0000000e+00 
0.0000000e+00 0.0000000e+00 0.0000000e+00 
0.0000000e+00 0.0000000e+00 0.0000000e+00 
0.0000000e+00 0.0000000e+00 0.0000000e+00 
0.0000000e+00 0.0000000e+00 0.0000000e+00 
0.0000000e+00 0.0000000e+00 0.0000000e+00 
0.0000000e+00 0.0000000e+00 0.0000000e+00 
0.0000000e+00 0.0000000e+00 0.0000000e+00 
0.0000000e+00 0.0000000e+00 0.0000000e+00 
0.0000000e+00 0.0000000e+00 0.0000000e+00 
0.0000000e+00 0.0000000e+00 0.0000000e+00 
0.0000000e+00 0.0000000e+00 0.0000000e+00 
0.0000000e+00 0.0000000e+00 0.0000000e+00 
0.0000000e+00 0.0000000e+00 0.0000000e+00 
0.0000000e+00 0.0000000e+00 0.0000000e+00 
0.0000000e+00 0.0000000e+00 0.0000000e+00 
0.0000000e+00 0.0000000e+00 0.0000000e+00 
0.0000000e+00 0.0000000e+00 0.0000000e+00 
0.0000000e+00 0.0000000e+00 0.0000000e+00 
0.0000000e+00 0.0000000e+00 0.0000000e+00 
0.0000000e+00 0.0000000e+00 0.0000000e+00 
0.0000000e+00 0.0000000e+00 0.0000000e+00 
0.0000000e+00 0.0000000e+00 0.0000000e+00 
0.0000000e+00 0.0000000e+00 0.0000000e+00 
0.0000000e+00 0.0000000e+00 0.0000000e+00 
0.0000000e+00 0.0000000e+00 0.0000000e+00 
0.0000000e+00 0.0000000e+00 0.0000000e+00 
0.0000000e+00 0.0000000e+00 0.0000000e+00 
0.0000000e+00 0.0000000e+00 0.0000000e+00 
0.0000000e+00 0.0000000e+00 0.0000000e+00 
0.0000000e+00 0.0000000e+00 0.0000000e+00 
0.0000000e+00 0.0000000e+00 0.0000000e+00 
0.0000000e+00 0.0000000e+00 0.0000000e+00 
0.0000000e+00 0.0000000e+00 0.0000000e+00 
0.0000000e+00 0.0000000e+00 0.0000000e+00 
0.0000000e+00 0.0000000e+00 0.0000000e+00 
0.0000000e+00 0.0000000e+00 0.0000000e+00 
0.0000000e+00 0.0000000e+00 0.0000000e+00 
0.0000000e+00 0.0000000e+00 0.0000000e+00 
0.0000000e+00 0.0000000e+00 0.0000000e+00 
0.0000000e+00 0.0000000e+00 0.0000000e+00 
0.0000000e+00 0.0000000e+00 0.0000000e+00 
0.0000000e+00 0.0000000e+00 0.0000000e+00 
0.0000000e+00 0.0000000e+00 0.0000000e+00 
0.0000000e+00 0.0000000e+00 0.0000000e+00 
0.0000000e+00 0.0000000e+00 0.0000000e+00 
0.0000000e+00 0.0000000e+00 0.0000000e+00 
0.0000000e+00 0.0000000e+00 0.0000000e+00 
0.0000000e+00 0.0000000e+00 0.0000000e+00 
0.0000000e+00 0.0000000e+00 0.0000000e+00 
0.0000000e+00 0.0000000e+00 0.0000000e+00 
0.0000000e+00 0.0000000e+00 0.0000000e+00 
0.0000000e+00 0.0000000e+00 0.0000000e+00 
0.0000000e+00 0.0000000e+00 0.0000000e+00 
0.0000000e+00 0.0000000e+00 0.0000000e+00 
0.0000000e+00 0.0000000e+00 0.0000000e+00 
0.0000000e+00 0.0000000e+00 0.0000000e+00 
0.0000000e+00 0.0000000e+00 0.0000000e+00 
0.0000000e+00 0.0000000e+00 0.0000000e+00 
0.0000000e+00 0.0000000e+00 0.0000000e+00 
0.0000000e+00 0.0000000e+00 0.0000000e+00 
0.0000000e+00 0.0000000e+00 0.0000000e+00 
0.0000000e+00 -8.8674460e-05 5.5441731e-09 
0.0000000e+00 -1.4752785e-05 1.0355613e-08 
0.0000000e+00 -1.4846295e-05 -2.1729244e-08 
0.0000000e+00 -9.1014563e-06 0.0000000e+00 
0.0000000e+00 -1.2897352e-05 0.0000000e+00 
0.0000000e+00 -1.9912752e-05 0.0000000e+00 
0.0000000e+00 -2.3781713e-05 0.0000000e+00 
0.0000000e+00 -3.0580035e-05 0.0000000e+00 
0.0000000e+00 -3.9368559e-05 0.0000000e+00 
0.0000000e+00 -4.5847737e-05 0.0000000e+00 
0.0000000e+00 -5.2558058e-05 0.0000000e+00 
0.0000000e+00 -5.8304064e-05 0.0000000e+00 
0.0000000e+00 -6.3966370e-05 0.0000000e+00 
0.0000000e+00 -6.9648726e-05 0.0000000e+00 
0.0000000e+00 -7.4014060e-05 0.0000000e+00 
0.0000000e+00 -7.5931181e-05 0.0000000e+00 
0.0000000e+00 -7.9480880e-05 0.0000000e+00 
0.0000000e+00 -8.2956765e-05 0.0000000e+00 
0.0000000e+00 -8.5274129e-05 0.0000000e+00 
0.0000000e+00 -8.6247856e-05 0.0000000e+00 
0.0000000e+00 -8.7426386e-05 0.0000000e+00 
0.0000000e+00 -8.8447625e-05 0.0000000e+00 
0.0000000e+00 -1.8666798e-06 0.0000000e+00 
0.0000000e+00 -5.3838414e-07 0.0000000e+00 
0.0000000e+00 -2.0365594e-06 0.0000000e+00 
0.0000000e+00 -4.9663422e-06 0.0000000e+00 
0.0000000e+00 -2.7853980e-06 0.0000000e+00 
0.0000000e+00 -5.8531041e-06 0.0000000e+00 
0.0000000e+00 -6.4028145e-06 0.0000000e+00 
0.0000000e+00 -7.6928145e-06 0.0000000e+00 
0.0000000e+00 -8.8795023e-06 0.0000000e+00 
0.0000000e+00 -1.0150642e-05 0.0000000e+00 
0.0000000e+00 -1.1002558e-05 0.0000000e+00 
0.0000000e+00 -1.2958821e-05 0.0000000e+00 
0.0000000e+00 -1.2475970e-05 0.0000000e+00 
0.0000000e+00 -1.2183079e-05 0.0000000e+00 
0.0000000e+00 -1.4516443e-05 0.0000000e+00 
0.0000000e+00 -1.4279337e-05 0.0000000e+00 
0.0000000e+00 -1.4539706e-05 0.0000000e+00 
0.0000000e+00 -1.4256310e-05 0.0000000e+00 
0.0000000e+00 -1.5007941e-05 0.0000000e+00 
0.0000000e+00 -1.4703636e-05 0.0000000e+00 
0.0000000e+00 -5.2401394e-01 1.5656761e-04 
0.0000000e+00 -5.1558977e-01 -5.4423180e-03 
0.0000000e+00 -5.1407057e-01 6.6724718e-03 
0.0000000e+00 -4.7415638e-01 0.0000000e+00 
0.0000000e+00 -5.3436261e-01 0.0000000e+00 
0.0000000e+00 -5.1027471e-01 0.0000000e+00 
0.0000000e+00 -5.2000660e-01 0.0000000e+00 
0.0000000e+00 -5.4788470e-01 0.0000000e+00 
0.0000000e+00 -6.1119449e-01 0.0000000e+00 
0.0000000e+00 -5.8596277e-01 0.0000000e+00 
0.0000000e+00 -5.7349861e-01 0.0000000e+00 
0.0000000e+00 -6.1423838e-01 0.0000000e+00 
0.0000000e+00 -6.7771399e-01 0.0000000e+00 
0.0000000e+00 -7.4208099e-01 0.0000000e+00 
0.0000000e+00 -8.4428728e-01 0.0000000e+00 
0.0000000e+00 -8.6293519e-01 0.0000000e+00 
0.0000000e+00 -7.5229591e-01 0.0000000e+00 
0.0000000e+00 -6.6374421e-01 0.0000000e+00 
0.0000000e+00 -6.1302090e-01 0.0000000e+00 
0.0000000e+00 -6.1096573e-01 0.0000000e+00 
0.0000000e+00 -5.8715379e-01 0.0000000e+00 
0.0000000e+00 -5.1477897e-01 0.0000000e+00 
0.0000000e+00 -4.9992269e-01 0.0000000e+00 
0.0000000e+00 -4.9706480e-01 0.0000000e+00 
0.0000000e+00 -5.3358340e-01 0.0000000e+00 
0.0000000e+00 -5.0445843e-01 0.0000000e+00 
0.0000000e+00 -5.3562742e-01 0.0000000e+00 
0.0000000e+00 -5.7815790e-01 0.0000000e+00 
0.0000000e+00 -6.0752541e-01 0.0000000e+00 
0.0000000e+00 -5.6605422e-01 0.0000000e+00 
0.0000000e+00 -6.0604292e-01 0.0000000e+00 
0.0000000e+00 -6.3920617e-01 0.0000000e+00 
0.0000000e+00 -7.1157318e-01 0.0000000e+00 
0.0000000e+00 -7.7658355e-01 0.0000000e+00 
0.0000000e+00 -8.8186538e-01 0.0000000e+00 
0.0000000e+00 -8.1069624e-01 0.0000000e+00 
0.0000000e+00 -7.0482051e-01 0.0000000e+00 
0.0000000e+00 -6.5650749e-01 0.0000000e+00 
0.0000000e+00 -5.9243864e-01 0.0000000e+00 
0.0000000e+00 -6.3005775e-01 0.0000000e+00 
0.0000000e+00 -5.4896396e-01 0.0000000e+00 
0.0000000e+00 -3.6802679e-01 0.0000000e+00 
-1.3094225e-02 -5.0865299e-01 0.0000000e+00 
8.9881504e-03 -5.1368690e-01 0.0000000e+00 
-1.0337201e-02 -5.0918114e-01 0.0000000e+00 
4.6954524e-02 -5.1319706e-01 -1.0668244e-03 
1.3897379e-02 -5.3128159e-01 -1.2529207e-02 
1.3655502e-02 -5.2814990e-01 9.8647736e-03 
-2.1048045e-02 -5.0644761e-01 0.0000000e+00 
-1.6806837e-02 -5.1515669e-01 0.0000000e+00 
9.0223964e-04 -5.2150732e-01 0.0000000e+00 
-1.5561158e-08 -8.9342975e-05 0.0000000e+00 
1.4623834e-07 -8.9333829e-05 0.0000000e+00 
-9.8247725e-08 -9.0346344e-05 0.0000000e+00 
2.8769190e-07 -9.2401031e-05 0.0000000e+00 
5.9074779e-07 -9.5319709e-05 0.0000000e+00 
-1.6329780e-06 -9.5028707e-05 0.0000000e+00 
-3.3151439e-06 -9.4919109e-05 0.0000000e+00 
2.0909999e-06 -9.2378694e-05 0.0000000e+00 
-8.7924911e-07 -1.1180237e-04 0.0000000e+00 
-5.9868862e-06 -1.1182671e-04 0.0000000e+00 
-5.9525978e-06 1.1181613e-06 0.0000000e+00 
2.8432976e-05 -8.3376421e-05 0.0000000e+00 
1.4527199e-04 -7.6838856e-04 0.0000000e+00 
-1.2029867e-04 -4.3963641e-04 0.0000000e+00 
3.6401398e-04 5.5110332e-04 0.0000000e+00 
2.4068921e-03 6.6454604e-04 0.0000000e+00 
1.2000676e-02 3.0248463e-03 0.0000000e+00 
5.3348470e-02 8.3732409e-03 0.0000000e+00 
1.1079580e-01 1.9775312e-02 0.0000000e+00 
1.3266125e-01 4.3852396e-02 0.0000000e+00 
1.2644584e-01 3.6569906e-03 0.0000000e+00 
4.6083838e-02 3.3231802e-02 0.0000000e+00 
2.1610675e-04 -2.1104112e-03 0.0000000e+00 
-1.5901831e-01 3.7752654e-02 0.0000000e+00 
-2.4397282e-02 1.0436226e-01 0.0000000e+00 
-2.8641403e-01 4.5827878e-01 0.0000000e+00 
-7.9831511e-01 2.5948137e-01 0.0000000e+00 
-8.0794752e-01 -2.8583357e-01 0.0000000e+00 
-9.5853972e-01 -6.2171000e-01 0.0000000e+00 
-6.3420236e-01 -1.2970976e+00 0.0000000e+00 
-1.6251402e-01 -1.2390492e+00 0.0000000e+00 
-1.5121926e-02 -9.0306747e-01 0.0000000e+00 
1.1128061e-02 -7.5625509e-01 0.0000000e+00 
-1.2622333e-02 -6.1665660e-01 0.0000000e+00 
3.1269114e-02 -5.8919585e-01 0.0000000e+00 
1.8495375e-02 -5.8080626e-01 0.0000000e+00 
-3.9752470e-03 -5.0864667e-01 0.0000000e+00 
-2.6638261e-08 -1.4918506e-05 0.0000000e+00 
1.8400584e-08 -1.5185688e-05 0.0000000e+00 
-1.1792111e-07 -1.5053025e-05 0.0000000e+00 
-9.6071506e-10 -1.5085620e-05 0.0000000e+00 
3.1737728e-09 -1.4855208e-05 0.0000000e+00 
5.8627162e-08 -1.5955286e-05 0.0000000e+00 
1.4160097e-06 -2.1153879e-05 0.0000000e+00 
-6.6693752e-07 -1.7382376e-05 0.0000000e+00 
-7.6700809e-07 -3.1199223e-05 0.0000000e+00 
3.2732385e-06 -1.5246924e-05 0.0000000e+00 
-3.8257685e-06 -4.6325793e-05 0.0000000e+00 
-1.9857656e-05 -1.2850517e-04 0.0000000e+00 
-4.2945419e-05 -2.4704044e-05 0.0000000e+00 
3.2948614e-05 3.0731701e-04 0.0000000e+00 
4.5210621e-04 -1.1579728e-05 0.0000000e+00 
9.0651901e-04 -2.0198408e-04 0.0000000e+00 
5.2197534e-03 4.2859474e-04 0.0000000e+00 
2.4518680e-02 5.8086943e-03 0.0000000e+00 
8.5256636e-02 2.4352552e-02 0.0000000e+00 
1.3349168e-01 2.4058554e-02 0.0000000e+00 
1.2159048e-01 2.0070884e-02 0.0000000e+00 
1.0429967e-01 3.9032124e-02 0.0000000e+00 
1.4336491e-02 -1.7468113e-02 0.0000000e+00 
-7.5436108e-02 8.9201733e-02 0.0000000e+00 
-9.6759222e-02 -4.3602034e-02 0.0000000e+00 
-1.0928012e-01 3.1606933e-01 0.0000000e+00 
-5.5666316e-01 4.8472208e-01 0.0000000e+00 
-8.4487671e-01 -7.5791322e-02 0.0000000e+00 
-8.6803043e-01 -3.7214527e-01 0.0000000e+00 
-8.7018865e-01 -1.0030462e+00 0.0000000e+00 
-3.6206731e-01 -1.3594185e+00 0.0000000e+00 
-6.6091672e-02 -1.0445831e+00 0.0000000e+00 
7.0233969e-03 -8.0870378e-01 0.0000000e+00 
1.1870941e-02 -6.8031627e-01 0.0000000e+00 
6.0401955e-03 -6.0770184e-01 0.0000000e+00 
1.7980959e-02 -5.8952063e-01 0.0000000e+00 
8.1382571e-03 -5.4844677e-01 0.0000000e+00 
-1.6636215e-02 -5.0966448e-01 0.0000000e+00 
-9.4508290e-01 -6.1652786e-01 0.0000000e+00 
-8.0830866e-01 -3.2418850e-01 0.0000000e+00 
-8.0011564e-01 2.8325236e-01 0.0000000e+00 
-3.0931440e-01 4.7173029e-01 0.0000000e+00 
-1.1974042e-02 9.0401486e-02 0.0000000e+00 
-1.6484559e-01 2.5889749e-02 0.0000000e+00 
6.8782945e-03 1.1104723e-02 0.0000000e+00 
4.2693336e-02 3.2667011e-02 0.0000000e+00 
1.2253236e-01 4.4991672e-03 0.0000000e+00 
-8.7334955e-01 -9.8886269e-01 0.0000000e+00 
-8.4667176e-01 -3.8429093e-01 0.0000000e+00 
-8.5407895e-01 -8.8138282e-02 0.0000000e+00 
-5.6063354e-01 4.8575553e-01 0.0000000e+00 
-1.0932548e-01 3.3964512e-01 0.0000000e+00 
-9.9698231e-02 -5.7770360e-02 0.0000000e+00 
-7.3294833e-02 8.3709419e-02 0.0000000e+00 
1.7565086e-02 -1.3723159e-02 0.0000000e+00 
1.0368194e-01 3.7111908e-02 0.0000000e+00 
1.2332916e-01 1.9266423e-02 0.0000000e+00 
1.1032879e-01 2.1841932e-02 0.0000000e+00 
5.3617198e-02 7.0485286e-03 0.0000000e+00 
1.1747863e-02 2.5146161e-03 0.0000000e+00 
2.7518789e-03 7.8920205e-04 0.0000000e+00 
3.1522202e-04 8.4934372e-04 0.0000000e+00 
-1.8848380e-04 -7.7717086e-05 0.0000000e+00 
1.0220861e-04 -4.1250707e-04 0.0000000e+00 
2.8026489e-05 -7.2199568e-05 0.0000000e+00 
-4.5836892e-05 -1.5542193e-04 0.0000000e+00 
1.3257562e-01 2.5560310e-02 0.0000000e+00 
8.4929556e-02 2.4748879e-02 0.0000000e+00 
2.5058098e-02 5.8223070e-03 0.0000000e+00 
4.8366259e-03 3.2006009e-04 0.0000000e+00 
9.1746700e-04 -5.4516905e-04 0.0000000e+00 