# vtk DataFile Version 4.0
vtk output
ASCII
DATASET UNSTRUCTURED_GRID
POINTS 217 float
0.0000000e+00 -1.0000000e-01 0.0000000e+00 
1.0000000e+00 -1.0000000e-01 0.0000000e+00 
1.0000000e+00 0.0000000e+00 0.0000000e+00 
0.0000000e+00 0.0000000e+00 0.0000000e+00 
5.0000001e-02 -1.0000000e-01 0.0000000e+00 
1.0000000e-01 -1.0000000e-01 0.0000000e+00 
1.5000001e-01 -1.0000000e-01 0.0000000e+00 
2.0000000e-01 -1.0000000e-01 0.0000000e+00 
2.5000000e-01 -1.0000000e-01 0.0000000e+00 
3.0000001e-01 -1.0000000e-01 0.0000000e+00 
3.4999999e-01 -1.0000000e-01 0.0000000e+00 
4.0000001e-01 -1.0000000e-01 0.0000000e+00 
4.4999999e-01 -1.0000000e-01 0.0000000e+00 
5.0000000e-01 -1.0000000e-01 0.0000000e+00 
5.5000001e-01 -1.0000000e-01 0.0000000e+00 
6.0000002e-01 -1.0000000e-01 0.0000000e+00 
6.4999998e-01 -1.0000000e-01 0.0000000e+00 
6.9999999e-01 -1.0000000e-01 0.0000000e+00 
7.5000000e-01 -1.0000000e-01 0.0000000e+00 
8.0000001e-01 -1.0000000e-01 0.0000000e+00 
8.5000002e-01 -1.0000000e-01 0.0000000e+00 
8.9999998e-01 -1.0000000e-01 0.0000000e+00 
9.4999999e-01 -1.0000000e-01 0.0000000e+00 
2.5000000e-02 -1.0000000e-01 0.0000000e+00 
7.5000003e-02 -1.0000000e-01 0.0000000e+00 
1.2500000e-01 -1.0000000e-01 0.0000000e+00 
1.7500000e-01 -1.0000000e-01 0.0000000e+00 
2.2499999e-01 -1.0000000e-01 0.0000000e+00 
2.7500001e-01 -1.0000000e-01 0.0000000e+00 
3.2499999e-01 -1.0000000e-01 0.0000000e+00 
3.7500000e-01 -1.0000000e-01 0.0000000e+00 
4.2500001e-01 -1.0000000e-01 0.0000000e+00 
4.7499999e-01 -1.0000000e-01 0.0000000e+00 
5.2499998e-01 -1.0000000e-01 0.0000000e+00 
5.7499999e-01 -1.0000000e-01 0.0000000e+00 
6.2500000e-01 -1.0000000e-01 0.0000000e+00 
6.7500001e-01 -1.0000000e-01 0.0000000e+00 
7.2500002e-01 -1.0000000e-01 0.0000000e+00 
7.7499998e-01 -1.0000000e-01 0.0000000e+00 
8.2499999e-01 -1.0000000e-01 0.0000000e+00 
8.7500000e-01 -1.0000000e-01 0.0000000e+00 
9.2500001e-01 -1.0000000e-01 0.0000000e+00 
9.7500002e-01 -1.0000000e-01 0.0000000e+00 
1.0000000e+00 -5.0000001e-02 0.0000000e+00 
1.0000000e+00 -7.5000003e-02 0.0000000e+00 
1.0000000e+00 -2.5000000e-02 0.0000000e+00 
9.4999999e-01 0.0000000e+00 0.0000000e+00 
8.9999998e-01 0.0000000e+00 0.0000000e+00 
8.5000002e-01 0.0000000e+00 0.0000000e+00 
8.0000001e-01 0.0000000e+00 0.0000000e+00 
7.5000000e-01 0.0000000e+00 0.0000000e+00 
6.9999999e-01 0.0000000e+00 0.0000000e+00 
6.4999998e-01 0.0000000e+00 0.0000000e+00 
6.0000002e-01 0.0000000e+00 0.0000000e+00 
5.5000001e-01 0.0000000e+00 0.0000000e+00 
5.0000000e-01 0.0000000e+00 0.0000000e+00 
4.4999999e-01 0.0000000e+00 0.0000000e+00 
4.0000001e-01 0.0000000e+00 0.0000000e+00 
3.4999999e-01 0.0000000e+00 0.0000000e+00 
3.0000001e-01 0.0000000e+00 0.0000000e+00 
2.5000000e-01 0.0000000e+00 0.0000000e+00 
2.0000000e-01 0.0000000e+00 0.0000000e+00 
1.5000001e-01 0.0000000e+00 0.0000000e+00 
1.0000000e-01 0.0000000e+00 0.0000000e+00 
5.0000001e-02 0.0000000e+00 0.0000000e+00 
9.7500002e-01 0.0000000e+00 0.0000000e+00 
9.2500001e-01 0.0000000e+00 0.0000000e+00 
8.7500000e-01 0.0000000e+00 0.0000000e+00 
8.2499999e-01 0.0000000e+00 0.0000000e+00 
7.7499998e-01 0.0000000e+00 0.0000000e+00 
7.2500002e-01 0.0000000e+00 0.0000000e+00 
6.7500001e-01 0.0000000e+00 0.0000000e+00 
6.2500000e-01 0.0000000e+00 0.0000000e+00 
5.7499999e-01 0.0000000e+00 0.0000000e+00 
5.2499998e-01 0.0000000e+00 0.0000000e+00 
4.7499999e-01 0.0000000e+00 0.0000000e+00 
4.2500001e-01 0.0000000e+00 0.0000000e+00 
3.7500000e-01 0.0000000e+00 0.0000000e+00 
3.2499999e-01 0.0000000e+00 0.0000000e+00 
2.7500001e-01 0.0000000e+00 0.0000000e+00 
2.2499999e-01 0.0000000e+00 0.0000000e+00 
1.7500000e-01 0.0000000e+00 0.0000000e+00 
1.2500000e-01 0.0000000e+00 0.0000000e+00 
7.5000003e-02 0.0000000e+00 0.0000000e+00 
2.5000000e-02 0.0000000e+00 0.0000000e+00 
0.0000000e+00 -5.0000001e-02 0.0000000e+00 
0.0000000e+00 -2.5000000e-02 0.0000000e+00 
0.0000000e+00 -7.5000003e-02 0.0000000e+00 
6.2482655e-01 -4.8086077e-02 0.0000000e+00 
8.2508671e-01 -5.1763725e-02 0.0000000e+00 
3.7500000e-01 -4.9304143e-02 0.0000000e+00 
5.2493805e-01 -5.2249055e-02 0.0000000e+00 
1.2500000e-01 -4.9304143e-02 0.0000000e+00 
7.2491330e-01 -5.1763725e-02 0.0000000e+00 
9.2500001e-01 -4.3301269e-02 0.0000000e+00 
2.2493739e-01 -4.7616642e-02 0.0000000e+00 
4.7499263e-01 -4.8962854e-02 0.0000000e+00 
3.2487729e-01 -5.0790776e-02 0.0000000e+00 
4.2499876e-01 -4.9711168e-02 0.0000000e+00 
1.7499255e-01 -5.1095106e-02 0.0000000e+00 
7.7499998e-01 -5.0587907e-02 0.0000000e+00 
7.5000003e-02 -5.5115875e-02 0.0000000e+00 
8.7536418e-01 -5.2243404e-02 0.0000000e+00 
5.7496077e-01 -5.0055854e-02 0.0000000e+00 
6.7495662e-01 -4.9974967e-02 0.0000000e+00 
2.7496910e-01 -4.9734570e-02 0.0000000e+00 
9.6712744e-01 -6.3315883e-02 0.0000000e+00 
3.2797970e-02 -3.6339462e-02 0.0000000e+00 
2.9650923e-02 -7.0272885e-02 0.0000000e+00 
9.7100937e-01 -2.8899103e-02 0.0000000e+00 
8.1254333e-01 -2.5881862e-02 0.0000000e+00 
8.3754337e-01 -2.5881862e-02 0.0000000e+00 
6.3741326e-01 -7.4043036e-02 0.0000000e+00 
6.1241329e-01 -7.4043036e-02 0.0000000e+00 
9.3750000e-01 -7.1650632e-02 0.0000000e+00 
9.1250002e-01 -7.1650632e-02 0.0000000e+00 
3.8749999e-01 -7.4652068e-02 0.0000000e+00 
3.6250001e-01 -7.4652068e-02 0.0000000e+00 
5.1246905e-01 -2.6124528e-02 0.0000000e+00 
5.3746903e-01 -2.6124528e-02 0.0000000e+00 
1.3750000e-01 -7.4652068e-02 0.0000000e+00 
1.1250000e-01 -7.4652068e-02 0.0000000e+00 
7.8750002e-01 -7.5293951e-02 0.0000000e+00 
7.6249999e-01 -7.5293951e-02 0.0000000e+00 
7.1245664e-01 -2.5881862e-02 0.0000000e+00 
7.3745662e-01 -2.5881862e-02 0.0000000e+00 
2.3746869e-01 -7.3808320e-02 0.0000000e+00 
2.1246870e-01 -7.3808320e-02 0.0000000e+00 
4.8749632e-01 -7.4481428e-02 0.0000000e+00 
4.6249631e-01 -7.4481428e-02 0.0000000e+00 
6.8747830e-01 -2.4987483e-02 0.0000000e+00 
6.9993496e-01 -5.0869346e-02 0.0000000e+00 
8.5022545e-01 -5.2003562e-02 0.0000000e+00 
8.6268210e-01 -2.6121702e-02 0.0000000e+00 
5.9989369e-01 -4.9070965e-02 0.0000000e+00 
5.8748037e-01 -7.5027928e-02 0.0000000e+00 
2.8748456e-01 -2.4867285e-02 0.0000000e+00 
2.9992321e-01 -5.0262675e-02 0.0000000e+00 
3.1243864e-01 -2.5395388e-02 0.0000000e+00 
2.6248455e-01 -2.4867285e-02 0.0000000e+00 
5.6248039e-01 -7.5027928e-02 0.0000000e+00 
6.6247833e-01 -2.4987483e-02 0.0000000e+00 
8.8768208e-01 -2.6121702e-02 0.0000000e+00 
6.2500000e-02 -2.7557937e-02 0.0000000e+00 
8.7499999e-02 -2.7557937e-02 0.0000000e+00 
3.3743864e-01 -2.5395388e-02 0.0000000e+00 
4.1249940e-01 -2.4855584e-02 0.0000000e+00 
4.3749937e-01 -2.4855584e-02 0.0000000e+00 
1.6249627e-01 -2.5547553e-02 0.0000000e+00 
1.8749627e-01 -2.5547553e-02 0.0000000e+00 
3.4993863e-01 -5.0047461e-02 0.0000000e+00 
3.3743864e-01 -7.5395390e-02 0.0000000e+00 
1.6249627e-01 -7.5547554e-02 0.0000000e+00 
1.4999628e-01 -5.0199624e-02 0.0000000e+00 
4.1249940e-01 -7.4855581e-02 0.0000000e+00 
3.9999938e-01 -4.9507655e-02 0.0000000e+00 
1.9996497e-01 -4.9355872e-02 0.0000000e+00 
1.8749627e-01 -7.5547554e-02 0.0000000e+00 
4.4999570e-01 -4.9337011e-02 0.0000000e+00 
4.3749937e-01 -7.4855581e-02 0.0000000e+00 
1.0000000e-01 -5.2210007e-02 0.0000000e+00 
8.7499999e-02 -7.7557936e-02 0.0000000e+00 
4.9996534e-01 -5.0605956e-02 0.0000000e+00 
5.1246905e-01 -7.6124527e-02 0.0000000e+00 
7.4995667e-01 -5.1175814e-02 0.0000000e+00 
7.6249999e-01 -2.5293954e-02 0.0000000e+00 
4.8749632e-01 -2.4481427e-02 0.0000000e+00 
7.8750002e-01 -2.5293954e-02 0.0000000e+00 
8.0004334e-01 -5.1175814e-02 0.0000000e+00 
7.3745662e-01 -7.5881861e-02 0.0000000e+00 
8.1254333e-01 -7.5881861e-02 0.0000000e+00 
9.0018207e-01 -4.7772337e-02 0.0000000e+00 
8.8768208e-01 -7.6121703e-02 0.0000000e+00 
5.4994941e-01 -5.1152457e-02 0.0000000e+00 
5.6248039e-01 -2.5027927e-02 0.0000000e+00 
6.6247833e-01 -7.4987486e-02 0.0000000e+00 
6.4989161e-01 -4.9030524e-02 0.0000000e+00 
2.6248455e-01 -7.4867286e-02 0.0000000e+00 
2.4995326e-01 -4.8675604e-02 0.0000000e+00 
3.6250001e-01 -2.4652071e-02 0.0000000e+00 
4.6249631e-01 -2.4481427e-02 0.0000000e+00 
2.1246870e-01 -2.3808321e-02 0.0000000e+00 
3.8749999e-01 -2.4652071e-02 0.0000000e+00 
1.1250000e-01 -2.4652071e-02 0.0000000e+00 
1.3750000e-01 -2.4652071e-02 0.0000000e+00 
5.3746903e-01 -7.6124527e-02 0.0000000e+00 
6.3741326e-01 -2.4043038e-02 0.0000000e+00 
9.1250002e-01 -2.1650635e-02 0.0000000e+00 
2.3746869e-01 -2.3808321e-02 0.0000000e+00 
9.5856369e-01 -8.1657946e-02 0.0000000e+00 
9.4606370e-01 -5.3308576e-02 0.0000000e+00 
4.1398987e-02 -1.8169731e-02 0.0000000e+00 
5.3898986e-02 -4.5727666e-02 0.0000000e+00 
2.8748456e-01 -7.4867286e-02 0.0000000e+00 
3.1243864e-01 -7.5395390e-02 0.0000000e+00 
6.2500000e-02 -7.7557936e-02 0.0000000e+00 
8.6268210e-01 -7.6121703e-02 0.0000000e+00 
8.3754337e-01 -7.5881861e-02 0.0000000e+00 
5.8748037e-01 -2.5027927e-02 0.0000000e+00 
6.8747830e-01 -7.4987486e-02 0.0000000e+00 
7.1245664e-01 -7.5881861e-02 0.0000000e+00 
6.1241329e-01 -2.4043038e-02 0.0000000e+00 
9.3750000e-01 -2.1650635e-02 0.0000000e+00 
9.8356372e-01 -8.1657946e-02 0.0000000e+00 
9.8356372e-01 -5.6657944e-02 0.0000000e+00 
1.6398985e-02 -4.3169729e-02 0.0000000e+00 
1.6398985e-02 -1.8169731e-02 0.0000000e+00 
5.2325461e-02 -6.2694378e-02 0.0000000e+00 
3.9825462e-02 -8.5136443e-02 0.0000000e+00 
9.4800472e-01 -3.6100186e-02 0.0000000e+00 
9.6050471e-01 -1.4449552e-02 0.0000000e+00 
3.1224446e-02 -5.3306174e-02 0.0000000e+00 
9.6906841e-01 -4.6107493e-02 0.0000000e+00 
1.4825461e-02 -8.5136443e-02 0.0000000e+00 
1.4825461e-02 -6.0136441e-02 0.0000000e+00 
9.8550469e-01 -1.4449552e-02 0.0000000e+00 
9.8550469e-01 -3.9449550e-02 0.0000000e+00 

CELLS 126 722
6 49 89 48 110 111 68
6 16 88 15 112 113 35
6 22 94 21 114 115 41
6 11 90 10 116 117 30
6 55 91 54 118 119 74
6 6 92 5 120 121 25
6 19 100 18 122 123 38
6 51 93 50 124 125 70
6 8 95 7 126 127 27
6 13 96 12 128 129 32
6 51 104 93 130 131 124
6 89 102 48 132 133 111
6 88 103 15 134 135 113
6 59 105 97 136 137 138
6 60 105 59 139 136 79
6 15 103 14 135 140 34
6 52 104 51 141 130 71
6 48 102 47 133 142 67
6 64 101 63 143 144 83
6 59 97 58 138 145 78
6 57 98 56 146 147 76
6 62 99 61 148 149 81
6 90 97 10 150 151 117
6 6 99 92 152 153 120
6 11 98 90 154 155 116
6 95 99 7 156 157 127
6 96 98 12 158 159 129
6 92 101 5 160 161 121
6 91 96 13 162 128 163
6 93 100 50 164 165 125
6 55 96 91 166 162 118
6 49 100 89 167 168 110
6 18 100 93 123 164 169
6 89 100 19 168 122 170
6 94 102 21 171 172 115
6 91 103 54 173 174 119
6 16 104 88 175 176 112
6 8 105 95 177 178 126
6 58 97 90 145 150 179
6 56 98 96 147 158 180
6 61 99 95 149 156 181
6 90 98 57 155 146 182
6 63 101 92 144 160 183
6 92 99 62 153 148 184
6 14 103 91 140 173 185
6 88 104 52 176 141 186
6 47 102 94 142 171 187
6 95 105 60 178 139 188
6 22 106 94 189 190 114
6 64 107 101 191 192 143
6 97 105 9 137 193 194
6 7 99 6 157 152 26
6 10 97 9 151 194 29
6 12 98 11 159 154 31
6 5 101 4 161 195 24
6 21 102 20 172 196 40
6 20 102 89 196 132 197
6 54 103 53 174 198 73
6 17 104 16 199 175 36
6 93 104 17 131 199 200
6 53 103 88 198 134 201
6 9 105 8 193 177 28
6 20 89 19 197 170 39
6 47 94 46 187 202 66
6 53 88 52 201 186 72
6 58 90 57 179 182 77
6 14 91 13 185 163 33
6 63 92 62 183 184 82
6 56 96 55 180 166 75
6 18 93 17 169 200 37
6 50 100 49 165 167 69
6 61 95 60 181 188 80
6 1 106 22 203 189 42
6 43 106 1 204 203 44
6 85 107 3 205 206 86
6 3 107 64 206 191 84
6 101 108 4 207 208 195
6 94 109 46 209 210 202
6 107 108 101 211 207 192
6 106 109 94 212 209 190
6 4 108 0 208 213 23
6 0 108 85 213 214 87
6 46 109 2 210 215 65
6 2 109 43 215 216 45
6 43 109 106 216 212 204
6 85 108 107 214 211 205
2 2 65
2 65 46
2 46 66
2 66 47
2 47 67
2 67 48
2 48 68
2 68 49
2 49 69
2 69 50
2 50 70
2 70 51
2 51 71
2 71 52
2 52 72
2 72 53
2 53 73
2 73 54
2 54 74
2 74 55
2 55 75
2 75 56
2 56 76
2 76 57
2 57 77
2 77 58
2 58 78
2 78 59
2 59 79
2 79 60
2 60 80
2 80 61
2 61 81
2 81 62
2 62 82
2 82 63
2 63 83
2 83 64
2 64 84
2 84 3

CELL_TYPES 126
22
22
22
22
22
22
22
22
22
22
22
22
22
22
22
22
22
22
22
22
22
22
22
22
22
22
22
22
22
22
22
22
22
22
22
22
22
22
22
22
22
22
22
22
22
22
22
22
22
22
22
22
22
22
22
22
22
22
22
22
22
22
22
22
22
22
22
22
22
22
22
22
22
22
22
22
22
22
22
22
22
22
22
22
22
22
3
3
3
3
3
3
3
3
3
3
3
3
3
3
3
3
3
3
3
3
3
3
3
3
3
3
3
3
3
3
3
3
3
3
3
3
3
3
3
3
POINT_DATA 217
FIELD FieldData 1
DISPLACEMENT 3 217  float
0.0000000e+00 0.0000000e+00 0.0000000e+00 
0.0000000e+00 0.0000000e+00 0.0000000e+00 
0.0000000e+00 0.0000000e+00 0.0000000e+00 
0.0000000e+00 0.0000000e+00 0.0000000e+00 
0.0000000e+00 0.0000000e+00 0.0000000e+00 
0.0000000e+00 0.0000000e+00 0.0000000e+00 
0.0000000e+00 0.0000000e+00 0.0000000e+00 
0.0000000e+00 0.0000000e+00 0.0000000e+00 
0.0000000e+00 0.0000000e+00 0.0000000e+00 
0.0000000e+00 0.0000000e+00 0.0000000e+00 
0.0000000e+00 0.0000000e+00 0.0000000e+00 
0.0000000e+00 0.0000000e+00 0.0000000e+00 
0.0000000e+00 0.0000000e+00 0.0000000e+00 
0.0000000e+00 0.0000000e+00 0.0000000e+00 
0.0000000e+00 0.0000000e+00 0.0000000e+00 
0.0000000e+00 0.0000000e+00 0.0000000e+00 
0.0000000e+00 0.0000000e+00 0.0000000e+00 
0.0000000e+00 0.0000000e+00 0.0000000e+00 
0.0000000e+00 0.0000000e+00 0.0000000e+00 
0.0000000e+00 0.0000000e+00 0.0000000e+00 
0.0000000e+00 0.0000000e+00 0.0000000e+00 
0.0000000e+00 0.0000000e+00 0.0000000e+00 
0.0000000e+00 0.0000000e+00 0.0000000e+00 
0.0000000e+00 0.0000000e+00 0.0000000e+00 
0.0000000e+00 0.0000000e+00 0.0000000e+00 
0.0000000e+00 0.0000000e+00 0.0000000e+00 
0.0000000e+00 0.0000000e+00 0.0000000e+00 
0.0000000e+00 0.0000000e+00 0.0000000e+00 
0.0000000e+00 0.0000000e+00 0.0000000e+00 
0.0000000e+00 0.0000000e+00 0.0000000e+00 
0.0000000e+00 0.0000000e+00 0.0000000e+00 
0.0000000e+00 0.0000000e+00 0.0000000e+00 
0.0000000e+00 0.0000000e+00 0.0000000e+00 
0.0000000e+00 0.0000000e+00 0.0000000e+00 
0.0000000e+00 0.0000000e+00 0.0000000e+00 
0.0000000e+00 0.0000000e+00 0.0000000e+00 
0.0000000e+00 0.0000000e+00 0.0000000e+00 
0.0000000e+00 0.0000000e+00 0.0000000e+00 
0.0000000e+00 0.0000000e+00 0.0000000e+00 
0.0000000e+00 0.0000000e+00 0.0000000e+00 
0.0000000e+00 0.0000000e+00 0.0000000e+00 
0.0000000e+00 0.0000000e+00 0.0000000e+00 
0.0000000e+00 0.0000000e+00 0.0000000e+00 
0.0000000e+00 0.0000000e+00 0.0000000e+00 
0.0000000e+00 0.0000000e+00 0.0000000e+00 
0.0000000e+00 0.0000000e+00 0.0000000e+00 
-1.8366777e-12 -3.3715639e-07 0.0000000e+00 
-2.8943675e-12 -6.6853471e-07 0.0000000e+00 
-3.4832348e-12 -9.8835073e-07 0.0000000e+00 
-3.7300670e-12 -1.2908087e-06 0.0000000e+00 
-3.6924426e-12 -1.5700964e-06 0.0000000e+00 
-3.4077199e-12 -1.8203801e-06 0.0000000e+00 
-2.9076002e-12 -2.0358004e-06 0.0000000e+00 
-2.2252859e-12 -2.2104673e-06 0.0000000e+00 
-1.3983289e-12 -2.3384569e-06 0.0000000e+00 
-4.6862481e-13 -2.4138092e-06 0.0000000e+00 
5.1906114e-13 -2.4305250e-06 0.0000000e+00 
1.5113609e-12 -2.3825655e-06 0.0000000e+00 
2.4509064e-12 -2.2638510e-06 0.0000000e+00 
3.2698286e-12 -2.0682628e-06 0.0000000e+00 
3.8873149e-12 -1.7896444e-06 0.0000000e+00 
4.1926861e-12 -1.4218055e-06 0.0000000e+00 
4.0224651e-12 -9.6792678e-07 0.0000000e+00 
3.2338923e-12 -5.0497897e-07 0.0000000e+00 
1.8433349e-12 -1.4494162e-07 0.0000000e+00 
-1.0866324e-12 -1.6893924e-07 0.0000000e+00 
-2.4569676e-12 -5.0392913e-07 0.0000000e+00 
-3.2507799e-12 -8.3024992e-07 0.0000000e+00 
-3.6568244e-12 -1.1421122e-06 0.0000000e+00 
-3.7547305e-12 -1.4337128e-06 0.0000000e+00 
-3.5881916e-12 -1.6992293e-06 0.0000000e+00 
-3.1904470e-12 -1.9328156e-06 0.0000000e+00 
-2.5935380e-12 -2.1285973e-06 0.0000000e+00 
-1.8324441e-12 -2.2806682e-06 0.0000000e+00 
-9.4663416e-13 -2.3830867e-06 0.0000000e+00 
2.0223930e-14 -2.4298731e-06 0.0000000e+00 
1.0192629e-12 -2.4150086e-06 0.0000000e+00 
1.9954166e-12 -2.3324340e-06 0.0000000e+00 
2.8866384e-12 -2.1760500e-06 0.0000000e+00 
3.6200192e-12 -1.9397185e-06 0.0000000e+00 
4.1027823e-12 -1.6172656e-06 0.0000000e+00 
4.1986987e-12 -1.2029369e-06 0.0000000e+00 
3.7316847e-12 -7.3060090e-07 0.0000000e+00 
2.6247895e-12 -3.0508468e-07 0.0000000e+00 
9.6749149e-13 -3.8572512e-08 0.0000000e+00 
0.0000000e+00 0.0000000e+00 0.0000000e+00 
0.0000000e+00 0.0000000e+00 0.0000000e+00 
0.0000000e+00 0.0000000e+00 0.0000000e+00 
6.9994137e-08 -1.1008030e-06 0.0000000e+00 
1.1901655e-07 -5.4844423e-07 0.0000000e+00 
-5.1304365e-08 -1.1750766e-06 0.0000000e+00 
2.8787145e-08 -1.1321155e-06 0.0000000e+00 
-1.5692387e-07 -3.7487223e-07 0.0000000e+00 
1.0096419e-07 -8.1638314e-07 0.0000000e+00 
1.0175835e-07 -2.8381442e-07 0.0000000e+00 
-1.4347319e-07 -8.3822874e-07 0.0000000e+00 
4.5509476e-09 -1.2338353e-06 0.0000000e+00 
-8.2356479e-08 -1.0626158e-06 0.0000000e+00 
-2.2238240e-08 -1.2076301e-06 0.0000000e+00 
-1.6262180e-07 -5.8279920e-07 0.0000000e+00 
1.1219029e-07 -7.0558599e-07 0.0000000e+00 
-1.1445396e-07 -1.5236691e-07 0.0000000e+00 
1.1878386e-07 -3.9382539e-07 0.0000000e+00 
5.0752529e-08 -1.1338898e-06 0.0000000e+00 
8.6963055e-08 -9.6295935e-07 0.0000000e+00 
-1.1410798e-07 -9.6650444e-07 0.0000000e+00 
5.9745652e-08 -8.3541302e-08 0.0000000e+00 
-5.2538560e-08 -5.7083390e-08 0.0000000e+00 
-4.3546862e-08 -3.3705692e-08 0.0000000e+00 
4.8708568e-08 -1.3444298e-07 0.0000000e+00 
9.0664940e-08 -9.0027442e-07 0.0000000e+00 
9.2265630e-08 -7.8809688e-07 0.0000000e+00 
5.7225158e-08 -5.3665769e-07 0.0000000e+00 
5.0302042e-08 -5.5904519e-07 0.0000000e+00 
7.8613631e-08 -1.2216017e-07 0.0000000e+00 
8.9359148e-08 -1.6708799e-07 0.0000000e+00 
-3.3260772e-08 -5.9123727e-07 0.0000000e+00 
-4.4631285e-08 -5.7597873e-07 0.0000000e+00 
1.7974219e-08 -1.7697461e-06 0.0000000e+00 
2.6828269e-08 -1.7420122e-06 0.0000000e+00 
-1.2106693e-07 -2.1735600e-07 0.0000000e+00 
-1.1268790e-07 -1.6297446e-07 0.0000000e+00 
8.5054417e-08 -3.3446784e-07 0.0000000e+00 
8.1611951e-08 -3.6863324e-07 0.0000000e+00 
7.5261148e-08 -1.3031228e-06 0.0000000e+00 
8.0117630e-08 -1.2104564e-06 0.0000000e+00 
-1.0567169e-07 -4.3897390e-07 0.0000000e+00 
-1.1552585e-07 -3.9137680e-07 0.0000000e+00 
8.1148155e-09 -6.1261795e-07 0.0000000e+00 
-1.5569279e-09 -6.1448651e-07 0.0000000e+00 
6.8251168e-08 -1.4063774e-06 0.0000000e+00 
9.4320967e-08 -8.9077412e-07 0.0000000e+00 
1.2000233e-07 -4.7181939e-07 0.0000000e+00 
9.2923898e-08 -6.6953083e-07 0.0000000e+00 
6.0691768e-08 -1.1210304e-06 0.0000000e+00 
4.1814136e-08 -5.5642084e-07 0.0000000e+00 
-7.9239285e-08 -1.5028244e-06 0.0000000e+00 
-9.8246950e-08 -1.0203357e-06 0.0000000e+00 
-6.8285281e-08 -1.5803053e-06 0.0000000e+00 
-9.1048719e-08 -1.3979019e-06 0.0000000e+00 
3.4089869e-08 -5.7215664e-07 0.0000000e+00 
6.2436158e-08 -1.4870726e-06 0.0000000e+00 
9.0893181e-08 -5.5094881e-07 0.0000000e+00 
-8.2503988e-08 -1.6897424e-07 0.0000000e+00 
-1.0575435e-07 -2.9797974e-07 0.0000000e+00 
-5.6324058e-08 -1.6534123e-06 0.0000000e+00 
-2.1743718e-08 -1.8002895e-06 0.0000000e+00 
-1.1307674e-08 -1.8183730e-06 0.0000000e+00 
-1.2714003e-07 -8.0619907e-07 0.0000000e+00 
-1.2304389e-07 -9.7382531e-07 0.0000000e+00 
-6.6660135e-08 -1.1230857e-06 0.0000000e+00 
-5.5292833e-08 -5.3949827e-07 0.0000000e+00 
-1.2034459e-07 -2.6364148e-07 0.0000000e+00 
-1.6359361e-07 -4.8125656e-07 0.0000000e+00 
-2.2145192e-08 -5.9706775e-07 0.0000000e+00 
-3.6520689e-08 -1.1958797e-06 0.0000000e+00 
-1.5523206e-07 -7.1166846e-07 0.0000000e+00 
-1.1730395e-07 -3.1611955e-07 0.0000000e+00 
-8.5678193e-09 -1.2247777e-06 0.0000000e+00 
-1.1606104e-08 -6.0333389e-07 0.0000000e+00 
-1.4031734e-07 -2.5110606e-07 0.0000000e+00 
-8.9731166e-08 -1.0090253e-07 0.0000000e+00 
1.6977156e-08 -1.1862091e-06 0.0000000e+00 
1.6613175e-08 -5.6764526e-07 0.0000000e+00 
1.0698416e-07 -7.6356531e-07 0.0000000e+00 
8.3124945e-08 -1.1208423e-06 0.0000000e+00 
8.2426475e-09 -1.8269521e-06 0.0000000e+00 
8.6644327e-08 -1.0165528e-06 0.0000000e+00 
1.1619871e-07 -6.2758795e-07 0.0000000e+00 
7.6205758e-08 -3.9161708e-07 0.0000000e+00 
8.6266219e-08 -2.9160952e-07 0.0000000e+00 
1.1368791e-07 -3.4714552e-07 0.0000000e+00 
8.5085560e-08 -1.7871947e-07 0.0000000e+00 
4.0074241e-08 -1.1368096e-06 0.0000000e+00 
3.4278930e-08 -1.7297394e-06 0.0000000e+00 
6.2160758e-08 -4.9276906e-07 0.0000000e+00 
7.8806423e-08 -1.0335395e-06 0.0000000e+00 
-9.1782766e-08 -4.6154065e-07 0.0000000e+00 
-1.2937262e-07 -9.0972060e-07 0.0000000e+00 
-4.3665523e-08 -1.7292248e-06 0.0000000e+00 
-1.2659994e-09 -1.8331830e-06 0.0000000e+00 
-1.0949904e-07 -1.1542468e-06 0.0000000e+00 
-3.2442635e-08 -1.7740174e-06 0.0000000e+00 
-1.1387558e-07 -4.6734689e-07 0.0000000e+00 
-1.2243120e-07 -6.3995168e-07 0.0000000e+00 
2.5083063e-08 -5.5890951e-07 0.0000000e+00 
5.4655462e-08 -1.5803547e-06 0.0000000e+00 
7.5298232e-08 -4.5687702e-07 0.0000000e+00 
-9.9458411e-08 -1.2946717e-06 0.0000000e+00 
4.7229612e-08 -5.5782262e-08 0.0000000e+00 
8.6751356e-08 -1.7001462e-07 0.0000000e+00 
-4.3045826e-08 -9.1315357e-08 0.0000000e+00 
-8.7170974e-08 -1.0756327e-07 0.0000000e+00 
-8.0005428e-08 -4.9661872e-07 0.0000000e+00 
-6.7072314e-08 -5.1526052e-07 0.0000000e+00 
-7.0375272e-08 -6.4128294e-08 0.0000000e+00 
8.7223654e-08 -2.1610508e-07 0.0000000e+00 
8.7782560e-08 -2.5558390e-07 0.0000000e+00 
4.2030361e-08 -1.6818317e-06 0.0000000e+00 
6.7988978e-08 -4.6611621e-07 0.0000000e+00 
7.1531602e-08 -4.2150762e-07 0.0000000e+00 
4.7996810e-08 -1.6465816e-06 0.0000000e+00 
6.6296309e-08 -3.2555695e-07 0.0000000e+00 
2.4875577e-08 -2.7052838e-08 0.0000000e+00 
3.5640703e-08 -4.9904678e-08 0.0000000e+00 
-2.7898011e-08 -2.2254795e-08 0.0000000e+00 
-1.6097406e-08 -2.0092081e-08 0.0000000e+00 
-8.0027384e-08 -7.7724081e-08 0.0000000e+00 
-3.5679022e-08 -2.6636695e-08 0.0000000e+00 
7.9575280e-08 -2.2050024e-07 0.0000000e+00 
3.8467476e-08 -2.2322308e-07 0.0000000e+00 
-5.3459299e-08 -4.6421516e-08 0.0000000e+00 
6.0217985e-08 -1.1099996e-07 0.0000000e+00 
-1.5864336e-08 -1.2187773e-08 0.0000000e+00 
-2.5416391e-08 -1.9227491e-08 0.0000000e+00 
1.9762455e-08 -7.7507814e-08 0.0000000e+00 
3.1244689e-08 -5.6468043e-08 0.0000000e+00 
CELL_DATA 126
FIELD FieldData 0
