# vtk DataFile Version 4.0
vtk output
ASCII
DATASET UNSTRUCTURED_GRID
POINTS 217 float
0.0000000e+00 -1.0000000e-01 0.0000000e+00 
1.0000000e+00 -1.0000000e-01 0.0000000e+00 
1.0000000e+00 0.0000000e+00 0.0000000e+00 
0.0000000e+00 0.0000000e+00 0.0000000e+00 
5.0000001e-02 -1.0000000e-01 0.0000000e+00 
1.0000000e-01 -1.0000000e-01 0.0000000e+00 
1.5000001e-01 -1.0000000e-01 0.0000000e+00 
2.0000000e-01 -1.0000000e-01 0.0000000e+00 
2.5000000e-01 -1.0000000e-01 0.0000000e+00 
3.0000001e-01 -1.0000000e-01 0.0000000e+00 
3.4999999e-01 -1.0000000e-01 0.0000000e+00 
4.0000001e-01 -1.0000000e-01 0.0000000e+00 
4.4999999e-01 -1.0000000e-01 0.0000000e+00 
5.0000000e-01 -1.0000000e-01 0.0000000e+00 
5.5000001e-01 -1.0000000e-01 0.0000000e+00 
6.0000002e-01 -1.0000000e-01 0.0000000e+00 
6.4999998e-01 -1.0000000e-01 0.0000000e+00 
6.9999999e-01 -1.0000000e-01 0.0000000e+00 
7.5000000e-01 -1.0000000e-01 0.0000000e+00 
8.0000001e-01 -1.0000000e-01 0.0000000e+00 
8.5000002e-01 -1.0000000e-01 0.0000000e+00 
8.9999998e-01 -1.0000000e-01 0.0000000e+00 
9.4999999e-01 -1.0000000e-01 0.0000000e+00 
2.5000000e-02 -1.0000000e-01 0.0000000e+00 
7.5000003e-02 -1.0000000e-01 0.0000000e+00 
1.2500000e-01 -1.0000000e-01 0.0000000e+00 
1.7500000e-01 -1.0000000e-01 0.0000000e+00 
2.2499999e-01 -1.0000000e-01 0.0000000e+00 
2.7500001e-01 -1.0000000e-01 0.0000000e+00 
3.2499999e-01 -1.0000000e-01 0.0000000e+00 
3.7500000e-01 -1.0000000e-01 0.0000000e+00 
4.2500001e-01 -1.0000000e-01 0.0000000e+00 
4.7499999e-01 -1.0000000e-01 0.0000000e+00 
5.2499998e-01 -1.0000000e-01 0.0000000e+00 
5.7499999e-01 -1.0000000e-01 0.0000000e+00 
6.2500000e-01 -1.0000000e-01 0.0000000e+00 
6.7500001e-01 -1.0000000e-01 0.0000000e+00 
7.2500002e-01 -1.0000000e-01 0.0000000e+00 
7.7499998e-01 -1.0000000e-01 0.0000000e+00 
8.2499999e-01 -1.0000000e-01 0.0000000e+00 
8.7500000e-01 -1.0000000e-01 0.0000000e+00 
9.2500001e-01 -1.0000000e-01 0.0000000e+00 
9.7500002e-01 -1.0000000e-01 0.0000000e+00 
1.0000000e+00 -5.0000001e-02 0.0000000e+00 
1.0000000e+00 -7.5000003e-02 0.0000000e+00 
1.0000000e+00 -2.5000000e-02 0.0000000e+00 
9.4999999e-01 0.0000000e+00 0.0000000e+00 
8.9999998e-01 0.0000000e+00 0.0000000e+00 
8.5000002e-01 0.0000000e+00 0.0000000e+00 
8.0000001e-01 0.0000000e+00 0.0000000e+00 
7.5000000e-01 0.0000000e+00 0.0000000e+00 
6.9999999e-01 0.0000000e+00 0.0000000e+00 
6.4999998e-01 0.0000000e+00 0.0000000e+00 
6.0000002e-01 0.0000000e+00 0.0000000e+00 
5.5000001e-01 0.0000000e+00 0.0000000e+00 
5.0000000e-01 0.0000000e+00 0.0000000e+00 
4.4999999e-01 0.0000000e+00 0.0000000e+00 
4.0000001e-01 0.0000000e+00 0.0000000e+00 
3.4999999e-01 0.0000000e+00 0.0000000e+00 
3.0000001e-01 0.0000000e+00 0.0000000e+00 
2.5000000e-01 0.0000000e+00 0.0000000e+00 
2.0000000e-01 0.0000000e+00 0.0000000e+00 
1.5000001e-01 0.0000000e+00 0.0000000e+00 
1.0000000e-01 0.0000000e+00 0.0000000e+00 
5.0000001e-02 0.0000000e+00 0.0000000e+00 
9.7500002e-01 0.0000000e+00 0.0000000e+00 
9.2500001e-01 0.0000000e+00 0.0000000e+00 
8.7500000e-01 0.0000000e+00 0.0000000e+00 
8.2499999e-01 0.0000000e+00 0.0000000e+00 
7.7499998e-01 0.0000000e+00 0.0000000e+00 
7.2500002e-01 0.0000000e+00 0.0000000e+00 
6.7500001e-01 0.0000000e+00 0.0000000e+00 
6.2500000e-01 0.0000000e+00 0.0000000e+00 
5.7499999e-01 0.0000000e+00 0.0000000e+00 
5.2499998e-01 0.0000000e+00 0.0000000e+00 
4.7499999e-01 0.0000000e+00 0.0000000e+00 
4.2500001e-01 0.0000000e+00 0.0000000e+00 
3.7500000e-01 0.0000000e+00 0.0000000e+00 
3.2499999e-01 0.0000000e+00 0.0000000e+00 
2.7500001e-01 0.0000000e+00 0.0000000e+00 
2.2499999e-01 0.0000000e+00 0.0000000e+00 
1.7500000e-01 0.0000000e+00 0.0000000e+00 
1.2500000e-01 0.0000000e+00 0.0000000e+00 
7.5000003e-02 0.0000000e+00 0.0000000e+00 
2.5000000e-02 0.0000000e+00 0.0000000e+00 
0.0000000e+00 -5.0000001e-02 0.0000000e+00 
0.0000000e+00 -2.5000000e-02 0.0000000e+00 
0.0000000e+00 -7.5000003e-02 0.0000000e+00 
6.2482655e-01 -4.8086077e-02 0.0000000e+00 
8.2508671e-01 -5.1763725e-02 0.0000000e+00 
3.7500000e-01 -4.9304143e-02 0.0000000e+00 
5.2493805e-01 -5.2249055e-02 0.0000000e+00 
1.2500000e-01 -4.9304143e-02 0.0000000e+00 
7.2491330e-01 -5.1763725e-02 0.0000000e+00 
9.2500001e-01 -4.3301269e-02 0.0000000e+00 
2.2493739e-01 -4.7616642e-02 0.0000000e+00 
4.7499263e-01 -4.8962854e-02 0.0000000e+00 
3.2487729e-01 -5.0790776e-02 0.0000000e+00 
4.2499876e-01 -4.9711168e-02 0.0000000e+00 
1.7499255e-01 -5.1095106e-02 0.0000000e+00 
7.7499998e-01 -5.0587907e-02 0.0000000e+00 
7.5000003e-02 -5.5115875e-02 0.0000000e+00 
8.7536418e-01 -5.2243404e-02 0.0000000e+00 
5.7496077e-01 -5.0055854e-02 0.0000000e+00 
6.7495662e-01 -4.9974967e-02 0.0000000e+00 
2.7496910e-01 -4.9734570e-02 0.0000000e+00 
9.6712744e-01 -6.3315883e-02 0.0000000e+00 
3.2797970e-02 -3.6339462e-02 0.0000000e+00 
2.9650923e-02 -7.0272885e-02 0.0000000e+00 
9.7100937e-01 -2.8899103e-02 0.0000000e+00 
8.1254333e-01 -2.5881862e-02 0.0000000e+00 
8.3754337e-01 -2.5881862e-02 0.0000000e+00 
6.3741326e-01 -7.4043036e-02 0.0000000e+00 
6.1241329e-01 -7.4043036e-02 0.0000000e+00 
9.3750000e-01 -7.1650632e-02 0.0000000e+00 
9.1250002e-01 -7.1650632e-02 0.0000000e+00 
3.8749999e-01 -7.4652068e-02 0.0000000e+00 
3.6250001e-01 -7.4652068e-02 0.0000000e+00 
5.1246905e-01 -2.6124528e-02 0.0000000e+00 
5.3746903e-01 -2.6124528e-02 0.0000000e+00 
1.3750000e-01 -7.4652068e-02 0.0000000e+00 
1.1250000e-01 -7.4652068e-02 0.0000000e+00 
7.8750002e-01 -7.5293951e-02 0.0000000e+00 
7.6249999e-01 -7.5293951e-02 0.0000000e+00 
7.1245664e-01 -2.5881862e-02 0.0000000e+00 
7.3745662e-01 -2.5881862e-02 0.0000000e+00 
2.3746869e-01 -7.3808320e-02 0.0000000e+00 
2.1246870e-01 -7.3808320e-02 0.0000000e+00 
4.8749632e-01 -7.4481428e-02 0.0000000e+00 
4.6249631e-01 -7.4481428e-02 0.0000000e+00 
6.8747830e-01 -2.4987483e-02 0.0000000e+00 
6.9993496e-01 -5.0869346e-02 0.0000000e+00 
8.5022545e-01 -5.2003562e-02 0.0000000e+00 
8.6268210e-01 -2.6121702e-02 0.0000000e+00 
5.9989369e-01 -4.9070965e-02 0.0000000e+00 
5.8748037e-01 -7.5027928e-02 0.0000000e+00 
2.8748456e-01 -2.4867285e-02 0.0000000e+00 
2.9992321e-01 -5.0262675e-02 0.0000000e+00 
3.1243864e-01 -2.5395388e-02 0.0000000e+00 
2.6248455e-01 -2.4867285e-02 0.0000000e+00 
5.6248039e-01 -7.5027928e-02 0.0000000e+00 
6.6247833e-01 -2.4987483e-02 0.0000000e+00 
8.8768208e-01 -2.6121702e-02 0.0000000e+00 
6.2500000e-02 -2.7557937e-02 0.0000000e+00 
8.7499999e-02 -2.7557937e-02 0.0000000e+00 
3.3743864e-01 -2.5395388e-02 0.0000000e+00 
4.1249940e-01 -2.4855584e-02 0.0000000e+00 
4.3749937e-01 -2.4855584e-02 0.0000000e+00 
1.6249627e-01 -2.5547553e-02 0.0000000e+00 
1.8749627e-01 -2.5547553e-02 0.0000000e+00 
3.4993863e-01 -5.0047461e-02 0.0000000e+00 
3.3743864e-01 -7.5395390e-02 0.0000000e+00 
1.6249627e-01 -7.5547554e-02 0.0000000e+00 
1.4999628e-01 -5.0199624e-02 0.0000000e+00 
4.1249940e-01 -7.4855581e-02 0.0000000e+00 
3.9999938e-01 -4.9507655e-02 0.0000000e+00 
1.9996497e-01 -4.9355872e-02 0.0000000e+00 
1.8749627e-01 -7.5547554e-02 0.0000000e+00 
4.4999570e-01 -4.9337011e-02 0.0000000e+00 
4.3749937e-01 -7.4855581e-02 0.0000000e+00 
1.0000000e-01 -5.2210007e-02 0.0000000e+00 
8.7499999e-02 -7.7557936e-02 0.0000000e+00 
4.9996534e-01 -5.0605956e-02 0.0000000e+00 
5.1246905e-01 -7.6124527e-02 0.0000000e+00 
7.4995667e-01 -5.1175814e-02 0.0000000e+00 
7.6249999e-01 -2.5293954e-02 0.0000000e+00 
4.8749632e-01 -2.4481427e-02 0.0000000e+00 
7.8750002e-01 -2.5293954e-02 0.0000000e+00 
8.0004334e-01 -5.1175814e-02 0.0000000e+00 
7.3745662e-01 -7.5881861e-02 0.0000000e+00 
8.1254333e-01 -7.5881861e-02 0.0000000e+00 
9.0018207e-01 -4.7772337e-02 0.0000000e+00 
8.8768208e-01 -7.6121703e-02 0.0000000e+00 
5.4994941e-01 -5.1152457e-02 0.0000000e+00 
5.6248039e-01 -2.5027927e-02 0.0000000e+00 
6.6247833e-01 -7.4987486e-02 0.0000000e+00 
6.4989161e-01 -4.9030524e-02 0.0000000e+00 
2.6248455e-01 -7.4867286e-02 0.0000000e+00 
2.4995326e-01 -4.8675604e-02 0.0000000e+00 
3.6250001e-01 -2.4652071e-02 0.0000000e+00 
4.6249631e-01 -2.4481427e-02 0.0000000e+00 
2.1246870e-01 -2.3808321e-02 0.0000000e+00 
3.8749999e-01 -2.4652071e-02 0.0000000e+00 
1.1250000e-01 -2.4652071e-02 0.0000000e+00 
1.3750000e-01 -2.4652071e-02 0.0000000e+00 
5.3746903e-01 -7.6124527e-02 0.0000000e+00 
6.3741326e-01 -2.4043038e-02 0.0000000e+00 
9.1250002e-01 -2.1650635e-02 0.0000000e+00 
2.3746869e-01 -2.3808321e-02 0.0000000e+00 
9.5856369e-01 -8.1657946e-02 0.0000000e+00 
9.4606370e-01 -5.3308576e-02 0.0000000e+00 
4.1398987e-02 -1.8169731e-02 0.0000000e+00 
5.3898986e-02 -4.5727666e-02 0.0000000e+00 
2.8748456e-01 -7.4867286e-02 0.0000000e+00 
3.1243864e-01 -7.5395390e-02 0.0000000e+00 
6.2500000e-02 -7.7557936e-02 0.0000000e+00 
8.6268210e-01 -7.6121703e-02 0.0000000e+00 
8.3754337e-01 -7.5881861e-02 0.0000000e+00 
5.8748037e-01 -2.5027927e-02 0.0000000e+00 
6.8747830e-01 -7.4987486e-02 0.0000000e+00 
7.1245664e-01 -7.5881861e-02 0.0000000e+00 
6.1241329e-01 -2.4043038e-02 0.0000000e+00 
9.3750000e-01 -2.1650635e-02 0.0000000e+00 
9.8356372e-01 -8.1657946e-02 0.0000000e+00 
9.8356372e-01 -5.6657944e-02 0.0000000e+00 
1.6398985e-02 -4.3169729e-02 0.0000000e+00 
1.6398985e-02 -1.8169731e-02 0.0000000e+00 
5.2325461e-02 -6.2694378e-02 0.0000000e+00 
3.9825462e-02 -8.5136443e-02 0.0000000e+00 
9.4800472e-01 -3.6100186e-02 0.0000000e+00 
9.6050471e-01 -1.4449552e-02 0.0000000e+00 
3.1224446e-02 -5.3306174e-02 0.0000000e+00 
9.6906841e-01 -4.6107493e-02 0.0000000e+00 
1.4825461e-02 -8.5136443e-02 0.0000000e+00 
1.4825461e-02 -6.0136441e-02 0.0000000e+00 
9.8550469e-01 -1.4449552e-02 0.0000000e+00 
9.8550469e-01 -3.9449550e-02 0.0000000e+00 

CELLS 126 722
6 49 89 48 110 111 68
6 16 88 15 112 113 35
6 22 94 21 114 115 41
6 11 90 10 116 117 30
6 55 91 54 118 119 74
6 6 92 5 120 121 25
6 19 100 18 122 123 38
6 51 93 50 124 125 70
6 8 95 7 126 127 27
6 13 96 12 128 129 32
6 51 104 93 130 131 124
6 89 102 48 132 133 111
6 88 103 15 134 135 113
6 59 105 97 136 137 138
6 60 105 59 139 136 79
6 15 103 14 135 140 34
6 52 104 51 141 130 71
6 48 102 47 133 142 67
6 64 101 63 143 144 83
6 59 97 58 138 145 78
6 57 98 56 146 147 76
6 62 99 61 148 149 81
6 90 97 10 150 151 117
6 6 99 92 152 153 120
6 11 98 90 154 155 116
6 95 99 7 156 157 127
6 96 98 12 158 159 129
6 92 101 5 160 161 121
6 91 96 13 162 128 163
6 93 100 50 164 165 125
6 55 96 91 166 162 118
6 49 100 89 167 168 110
6 18 100 93 123 164 169
6 89 100 19 168 122 170
6 94 102 21 171 172 115
6 91 103 54 173 174 119
6 16 104 88 175 176 112
6 8 105 95 177 178 126
6 58 97 90 145 150 179
6 56 98 96 147 158 180
6 61 99 95 149 156 181
6 90 98 57 155 146 182
6 63 101 92 144 160 183
6 92 99 62 153 148 184
6 14 103 91 140 173 185
6 88 104 52 176 141 186
6 47 102 94 142 171 187
6 95 105 60 178 139 188
6 22 106 94 189 190 114
6 64 107 101 191 192 143
6 97 105 9 137 193 194
6 7 99 6 157 152 26
6 10 97 9 151 194 29
6 12 98 11 159 154 31
6 5 101 4 161 195 24
6 21 102 20 172 196 40
6 20 102 89 196 132 197
6 54 103 53 174 198 73
6 17 104 16 199 175 36
6 93 104 17 131 199 200
6 53 103 88 198 134 201
6 9 105 8 193 177 28
6 20 89 19 197 170 39
6 47 94 46 187 202 66
6 53 88 52 201 186 72
6 58 90 57 179 182 77
6 14 91 13 185 163 33
6 63 92 62 183 184 82
6 56 96 55 180 166 75
6 18 93 17 169 200 37
6 50 100 49 165 167 69
6 61 95 60 181 188 80
6 1 106 22 203 189 42
6 43 106 1 204 203 44
6 85 107 3 205 206 86
6 3 107 64 206 191 84
6 101 108 4 207 208 195
6 94 109 46 209 210 202
6 107 108 101 211 207 192
6 106 109 94 212 209 190
6 4 108 0 208 213 23
6 0 108 85 213 214 87
6 46 109 2 210 215 65
6 2 109 43 215 216 45
6 43 109 106 216 212 204
6 85 108 107 214 211 205
2 2 65
2 65 46
2 46 66
2 66 47
2 47 67
2 67 48
2 48 68
2 68 49
2 49 69
2 69 50
2 50 70
2 70 51
2 51 71
2 71 52
2 52 72
2 72 53
2 53 73
2 73 54
2 54 74
2 74 55
2 55 75
2 75 56
2 56 76
2 76 57
2 57 77
2 77 58
2 58 78
2 78 59
2 59 79
2 79 60
2 60 80
2 80 61
2 61 81
2 81 62
2 62 82
2 82 63
2 63 83
2 83 64
2 64 84
2 84 3

CELL_TYPES 126
22
22
22
22
22
22
22
22
22
22
22
22
22
22
22
22
22
22
22
22
22
22
22
22
22
22
22
22
22
22
22
22
22
22
22
22
22
22
22
22
22
22
22
22
22
22
22
22
22
22
22
22
22
22
22
22
22
22
22
22
22
22
22
22
22
22
22
22
22
22
22
22
22
22
22
22
22
22
22
22
22
22
22
22
22
22
3
3
3
3
3
3
3
3
3
3
3
3
3
3
3
3
3
3
3
3
3
3
3
3
3
3
3
3
3
3
3
3
3
3
3
3
3
3
3
3
POINT_DATA 217
FIELD FieldData 1
DISPLACEMENT 3 217  float
0.0000000e+00 0.0000000e+00 0.0000000e+00 
0.0000000e+00 0.0000000e+00 0.0000000e+00 
0.0000000e+00 0.0000000e+00 0.0000000e+00 
0.0000000e+00 0.0000000e+00 0.0000000e+00 
0.0000000e+00 0.0000000e+00 0.0000000e+00 
0.0000000e+00 0.0000000e+00 0.0000000e+00 
0.0000000e+00 0.0000000e+00 0.0000000e+00 
0.0000000e+00 0.0000000e+00 0.0000000e+00 
0.0000000e+00 0.0000000e+00 0.0000000e+00 
0.0000000e+00 0.0000000e+00 0.0000000e+00 
0.0000000e+00 0.0000000e+00 0.0000000e+00 
0.0000000e+00 0.0000000e+00 0.0000000e+00 
0.0000000e+00 0.0000000e+00 0.0000000e+00 
0.0000000e+00 0.0000000e+00 0.0000000e+00 
0.0000000e+00 0.0000000e+00 0.0000000e+00 
0.0000000e+00 0.0000000e+00 0.0000000e+00 
0.0000000e+00 0.0000000e+00 0.0000000e+00 
0.0000000e+00 0.0000000e+00 0.0000000e+00 
0.0000000e+00 0.0000000e+00 0.0000000e+00 
0.0000000e+00 0.0000000e+00 0.0000000e+00 
0.0000000e+00 0.0000000e+00 0.0000000e+00 
0.0000000e+00 0.0000000e+00 0.0000000e+00 
0.0000000e+00 0.0000000e+00 0.0000000e+00 
0.0000000e+00 0.0000000e+00 0.0000000e+00 
0.0000000e+00 0.0000000e+00 0.0000000e+00 
0.0000000e+00 0.0000000e+00 0.0000000e+00 
0.0000000e+00 0.0000000e+00 0.0000000e+00 
0.0000000e+00 0.0000000e+00 0.0000000e+00 
0.0000000e+00 0.0000000e+00 0.0000000e+00 
0.0000000e+00 0.0000000e+00 0.0000000e+00 
0.0000000e+00 0.0000000e+00 0.0000000e+00 
0.0000000e+00 0.0000000e+00 0.0000000e+00 
0.0000000e+00 0.0000000e+00 0.0000000e+00 
0.0000000e+00 0.0000000e+00 0.0000000e+00 
0.0000000e+00 0.0000000e+00 0.0000000e+00 
0.0000000e+00 0.0000000e+00 0.0000000e+00 
0.0000000e+00 0.0000000e+00 0.0000000e+00 
0.0000000e+00 0.0000000e+00 0.0000000e+00 
0.0000000e+00 0.0000000e+00 0.0000000e+00 
0.0000000e+00 0.0000000e+00 0.0000000e+00 
0.0000000e+00 0.0000000e+00 0.0000000e+00 
0.0000000e+00 0.0000000e+00 0.0000000e+00 
0.0000000e+00 0.0000000e+00 0.0000000e+00 
0.0000000e+00 0.0000000e+00 0.0000000e+00 
0.0000000e+00 0.0000000e+00 0.0000000e+00 
0.0000000e+00 0.0000000e+00 0.0000000e+00 
-2.4094940e-11 -6.0427160e-06 0.0000000e+00 
-3.4032107e-11 -1.1859527e-05 0.0000000e+00 
-3.5459087e-11 -1.7224420e-05 0.0000000e+00 
-3.0879094e-11 -2.1911175e-05 0.0000000e+00 
-2.1722891e-11 -2.5693293e-05 0.0000000e+00 
-9.2653003e-12 -2.8343904e-05 0.0000000e+00 
5.0625892e-12 -2.9668721e-05 0.0000000e+00 
1.9743989e-11 -2.9732271e-05 0.0000000e+00 
3.3569217e-11 -2.8721626e-05 0.0000000e+00 
4.5637834e-11 -2.6824124e-05 0.0000000e+00 
5.5281259e-11 -2.4226618e-05 0.0000000e+00 
6.1967258e-11 -2.1115522e-05 0.0000000e+00 
6.5351516e-11 -1.7676844e-05 0.0000000e+00 
6.5237905e-11 -1.4096250e-05 0.0000000e+00 
6.1589109e-11 -1.0559109e-05 0.0000000e+00 
5.4515597e-11 -7.2505582e-06 0.0000000e+00 
4.4303502e-11 -4.3555610e-06 0.0000000e+00 
3.1373022e-11 -2.0589607e-06 0.0000000e+00 
1.6384758e-11 -5.4552811e-07 0.0000000e+00 
-1.5092889e-11 -3.0354754e-06 0.0000000e+00 
-3.0731050e-11 -8.9934820e-06 0.0000000e+00 
-3.5854864e-11 -1.4612596e-05 0.0000000e+00 
-3.4012959e-11 -1.9666713e-05 0.0000000e+00 
-2.6946020e-11 -2.3929484e-05 0.0000000e+00 
-1.5925787e-11 -2.7174232e-05 0.0000000e+00 
-2.2773344e-12 -2.9175466e-05 0.0000000e+00 
1.2450169e-11 -2.9846498e-05 0.0000000e+00 
2.6870169e-11 -2.9349501e-05 0.0000000e+00 
3.9948315e-11 -2.7872044e-05 0.0000000e+00 
5.0905898e-11 -2.5601212e-05 0.0000000e+00 
5.9140859e-11 -2.2723634e-05 0.0000000e+00 
6.4221579e-11 -1.9425519e-05 0.0000000e+00 
6.5875604e-11 -1.5892694e-05 0.0000000e+00 
6.3988419e-11 -1.2310672e-05 0.0000000e+00 
5.8596607e-11 -8.8646957e-06 0.0000000e+00 
4.9892996e-11 -5.7398106e-06 0.0000000e+00 
3.8236428e-11 -3.1209120e-06 0.0000000e+00 
2.4156779e-11 -1.1928020e-06 0.0000000e+00 
8.3245381e-12 -1.4023050e-07 0.0000000e+00 
0.0000000e+00 0.0000000e+00 0.0000000e+00 
0.0000000e+00 0.0000000e+00 0.0000000e+00 
0.0000000e+00 0.0000000e+00 0.0000000e+00 
7.6606938e-08 -1.5388279e-05 0.0000000e+00 
1.7865578e-06 -9.4076522e-06 0.0000000e+00 
-1.3551456e-06 -9.8267792e-06 0.0000000e+00 
-7.1453303e-07 -1.3233264e-05 0.0000000e+00 
-8.8604122e-07 -1.6480046e-06 0.0000000e+00 
1.0405577e-06 -1.2992669e-05 0.0000000e+00 
1.7366979e-06 -5.0523827e-06 0.0000000e+00 
-1.2993431e-06 -4.6711257e-06 0.0000000e+00 
-1.0053113e-06 -1.3010309e-05 0.0000000e+00 
-1.4139880e-06 -7.8122484e-06 0.0000000e+00 
-1.2189079e-06 -1.1389013e-05 0.0000000e+00 
-1.1305374e-06 -2.8549412e-06 0.0000000e+00 
1.4690274e-06 -1.1728056e-05 0.0000000e+00 
-5.6380941e-07 -6.2118306e-07 0.0000000e+00 
1.9344700e-06 -6.9069997e-06 0.0000000e+00 
-3.5273499e-07 -1.4567133e-05 0.0000000e+00 
5.5861426e-07 -1.4472236e-05 0.0000000e+00 
-1.3965777e-06 -6.1999203e-06 0.0000000e+00 
1.0409534e-06 -1.4928016e-06 0.0000000e+00 
-2.3846115e-07 -2.1581477e-07 0.0000000e+00 
-1.9926709e-07 -1.3520855e-07 0.0000000e+00 
8.5251213e-07 -2.4135077e-06 0.0000000e+00 
1.3269625e-06 -1.5377078e-05 0.0000000e+00 
1.4222260e-06 -1.3639752e-05 0.0000000e+00 
1.5081974e-07 -7.6249257e-06 0.0000000e+00 
-2.4561560e-08 -7.6397664e-06 0.0000000e+00 
1.3505309e-06 -2.1710687e-06 0.0000000e+00 
1.5095748e-06 -2.9547416e-06 0.0000000e+00 
-1.0029975e-06 -5.1149436e-06 0.0000000e+00 
-1.0399617e-06 -4.6870523e-06 0.0000000e+00 
-6.1823874e-07 -2.0181777e-05 0.0000000e+00 
-4.9296602e-07 -2.0880430e-05 0.0000000e+00 
-7.2041678e-07 -1.0015835e-06 0.0000000e+00 
-6.1588310e-07 -7.1800804e-07 0.0000000e+00 
1.1587655e-06 -5.5873429e-06 0.0000000e+00 
1.0180300e-06 -6.0445404e-06 0.0000000e+00 
7.1330282e-07 -2.0536427e-05 0.0000000e+00 
8.9210334e-07 -1.9557874e-05 0.0000000e+00 
-1.0280178e-06 -2.5665979e-06 0.0000000e+00 
-9.7710404e-07 -2.1412934e-06 0.0000000e+00 
-7.1316731e-07 -6.6347889e-06 0.0000000e+00 
-8.0818847e-07 -6.3111497e-06 0.0000000e+00 
5.1250527e-07 -2.1535639e-05 0.0000000e+00 
8.0337560e-07 -1.3803267e-05 0.0000000e+00 
1.8855178e-06 -8.1928692e-06 0.0000000e+00 
1.4910172e-06 -1.1716073e-05 0.0000000e+00 
-1.4517529e-07 -1.5042685e-05 0.0000000e+00 
-1.8458090e-07 -7.2927928e-06 0.0000000e+00 
-1.0572911e-06 -9.9220288e-06 0.0000000e+00 
-1.4143217e-06 -7.0128885e-06 0.0000000e+00 
-1.0787770e-06 -1.1183544e-05 0.0000000e+00 
-1.0363960e-06 -8.5954753e-06 0.0000000e+00 
-3.3407431e-07 -7.1744380e-06 0.0000000e+00 
3.2541027e-07 -2.2033792e-05 0.0000000e+00 
1.5036829e-06 -9.7268221e-06 0.0000000e+00 
-3.8849413e-07 -6.5714795e-07 0.0000000e+00 
-5.2607675e-07 -1.2053341e-06 0.0000000e+00 
-1.0710172e-06 -1.2516986e-05 0.0000000e+00 
-9.4629917e-07 -1.6462254e-05 0.0000000e+00 
-8.8104849e-07 -1.7628954e-05 0.0000000e+00 
-8.2392711e-07 -3.7734756e-06 0.0000000e+00 
-9.0281355e-07 -4.8487600e-06 0.0000000e+00 
-1.3938419e-06 -8.8151519e-06 0.0000000e+00 
-1.0414963e-06 -4.1211038e-06 0.0000000e+00 
-7.9342749e-07 -1.2798714e-06 0.0000000e+00 
-1.0171088e-06 -2.2257591e-06 0.0000000e+00 
-9.4633117e-07 -5.4808847e-06 0.0000000e+00 
-1.2959699e-06 -1.0631847e-05 0.0000000e+00 
-1.2251759e-06 -3.7097236e-06 0.0000000e+00 
-8.7069850e-07 -1.6260902e-06 0.0000000e+00 
-1.1210489e-06 -1.2226612e-05 0.0000000e+00 
-8.8041008e-07 -5.8640799e-06 0.0000000e+00 
-7.3484199e-07 -1.0587604e-06 0.0000000e+00 
-4.5768357e-07 -4.2989251e-07 0.0000000e+00 
-8.6952906e-07 -1.3183901e-05 0.0000000e+00 
-5.7658127e-07 -6.4691035e-06 0.0000000e+00 
1.2647704e-06 -1.2439982e-05 0.0000000e+00 
1.0411809e-06 -1.8504266e-05 0.0000000e+00 
-6.9940523e-07 -1.9779838e-05 0.0000000e+00 
1.1855893e-06 -1.7093722e-05 0.0000000e+00 
1.6431248e-06 -1.0611371e-05 0.0000000e+00 
8.4481411e-07 -6.2830190e-06 0.0000000e+00 
1.2578358e-06 -4.9488262e-06 0.0000000e+00 
1.9008249e-06 -6.1393148e-06 0.0000000e+00 
1.4045008e-06 -3.1364871e-06 0.0000000e+00 
-5.4232771e-07 -1.3946626e-05 0.0000000e+00 
-3.4341912e-07 -2.1744336e-05 0.0000000e+00 
3.2713226e-07 -7.2561661e-06 0.0000000e+00 
3.1366696e-07 -1.5006436e-05 0.0000000e+00 
-1.0360823e-06 -2.8891498e-06 0.0000000e+00 
-1.3574017e-06 -5.4393763e-06 0.0000000e+00 
-1.0281569e-06 -1.3973666e-05 0.0000000e+00 
-7.9308097e-07 -1.8801084e-05 0.0000000e+00 
-9.2334125e-07 -6.1465303e-06 0.0000000e+00 
-9.9180068e-07 -1.5267007e-05 0.0000000e+00 
-6.0728854e-07 -1.9709807e-06 0.0000000e+00 
-7.1332505e-07 -2.8339100e-06 0.0000000e+00 
-4.5678360e-07 -6.6881726e-06 0.0000000e+00 
1.3864820e-07 -2.2572869e-05 0.0000000e+00 
1.2757422e-06 -8.1246690e-06 0.0000000e+00 
-9.7196994e-07 -7.4048539e-06 0.0000000e+00 
8.1995245e-07 -9.9241106e-07 0.0000000e+00 
1.4983858e-06 -3.0341055e-06 0.0000000e+00 
-1.9487842e-07 -3.4162920e-07 0.0000000e+00 
-4.0942686e-07 -4.2131543e-07 0.0000000e+00 
-1.0574114e-06 -3.3257270e-06 0.0000000e+00 
-1.0491515e-06 -3.6883882e-06 0.0000000e+00 
-3.3963596e-07 -2.6563103e-07 0.0000000e+00 
1.3957443e-06 -3.7586185e-06 0.0000000e+00 
1.3486593e-06 -4.3960745e-06 0.0000000e+00 
-1.9378112e-07 -2.2120335e-05 0.0000000e+00 
5.1049761e-07 -7.0890342e-06 0.0000000e+00 
6.7518516e-07 -6.5955219e-06 0.0000000e+00 
-3.0952130e-08 -2.2599374e-05 0.0000000e+00 
1.1435401e-06 -5.8199221e-06 0.0000000e+00 
4.3598035e-07 -4.8134689e-07 0.0000000e+00 
6.2421873e-07 -8.9341199e-07 0.0000000e+00 
-1.2564705e-07 -8.3099984e-08 0.0000000e+00 
-7.2225049e-08 -6.9987017e-08 0.0000000e+00 
-3.7855949e-07 -3.1173440e-07 0.0000000e+00 
-1.6557337e-07 -1.1016150e-07 0.0000000e+00 
1.3779592e-06 -3.9443080e-06 0.0000000e+00 
6.7240279e-07 -4.0053128e-06 0.0000000e+00 
-2.4475366e-07 -1.8028925e-07 0.0000000e+00 
1.0507810e-06 -1.9887564e-06 0.0000000e+00 
-7.1123459e-08 -5.0922463e-08 0.0000000e+00 
-1.1473825e-07 -7.5609670e-08 0.0000000e+00 
3.4876268e-07 -1.3951143e-06 0.0000000e+00 
5.4842872e-07 -1.0144129e-06 0.0000000e+00 
CELL_DATA 126
FIELD FieldData 0
