# vtk DataFile Version 4.0
vtk output
ASCII
DATASET UNSTRUCTURED_GRID
POINTS 217 float
0.0000000e+00 -1.0000000e-01 0.0000000e+00 
1.0000000e+00 -1.0000000e-01 0.0000000e+00 
1.0000000e+00 0.0000000e+00 0.0000000e+00 
0.0000000e+00 0.0000000e+00 0.0000000e+00 
5.0000001e-02 -1.0000000e-01 0.0000000e+00 
1.0000000e-01 -1.0000000e-01 0.0000000e+00 
1.5000001e-01 -1.0000000e-01 0.0000000e+00 
2.0000000e-01 -1.0000000e-01 0.0000000e+00 
2.5000000e-01 -1.0000000e-01 0.0000000e+00 
3.0000001e-01 -1.0000000e-01 0.0000000e+00 
3.4999999e-01 -1.0000000e-01 0.0000000e+00 
4.0000001e-01 -1.0000000e-01 0.0000000e+00 
4.4999999e-01 -1.0000000e-01 0.0000000e+00 
5.0000000e-01 -1.0000000e-01 0.0000000e+00 
5.5000001e-01 -1.0000000e-01 0.0000000e+00 
6.0000002e-01 -1.0000000e-01 0.0000000e+00 
6.4999998e-01 -1.0000000e-01 0.0000000e+00 
6.9999999e-01 -1.0000000e-01 0.0000000e+00 
7.5000000e-01 -1.0000000e-01 0.0000000e+00 
8.0000001e-01 -1.0000000e-01 0.0000000e+00 
8.5000002e-01 -1.0000000e-01 0.0000000e+00 
8.9999998e-01 -1.0000000e-01 0.0000000e+00 
9.4999999e-01 -1.0000000e-01 0.0000000e+00 
2.5000000e-02 -1.0000000e-01 0.0000000e+00 
7.5000003e-02 -1.0000000e-01 0.0000000e+00 
1.2500000e-01 -1.0000000e-01 0.0000000e+00 
1.7500000e-01 -1.0000000e-01 0.0000000e+00 
2.2499999e-01 -1.0000000e-01 0.0000000e+00 
2.7500001e-01 -1.0000000e-01 0.0000000e+00 
3.2499999e-01 -1.0000000e-01 0.0000000e+00 
3.7500000e-01 -1.0000000e-01 0.0000000e+00 
4.2500001e-01 -1.0000000e-01 0.0000000e+00 
4.7499999e-01 -1.0000000e-01 0.0000000e+00 
5.2499998e-01 -1.0000000e-01 0.0000000e+00 
5.7499999e-01 -1.0000000e-01 0.0000000e+00 
6.2500000e-01 -1.0000000e-01 0.0000000e+00 
6.7500001e-01 -1.0000000e-01 0.0000000e+00 
7.2500002e-01 -1.0000000e-01 0.0000000e+00 
7.7499998e-01 -1.0000000e-01 0.0000000e+00 
8.2499999e-01 -1.0000000e-01 0.0000000e+00 
8.7500000e-01 -1.0000000e-01 0.0000000e+00 
9.2500001e-01 -1.0000000e-01 0.0000000e+00 
9.7500002e-01 -1.0000000e-01 0.0000000e+00 
1.0000000e+00 -5.0000001e-02 0.0000000e+00 
1.0000000e+00 -7.5000003e-02 0.0000000e+00 
1.0000000e+00 -2.5000000e-02 0.0000000e+00 
9.4999999e-01 0.0000000e+00 0.0000000e+00 
8.9999998e-01 0.0000000e+00 0.0000000e+00 
8.5000002e-01 0.0000000e+00 0.0000000e+00 
8.0000001e-01 0.0000000e+00 0.0000000e+00 
7.5000000e-01 0.0000000e+00 0.0000000e+00 
6.9999999e-01 0.0000000e+00 0.0000000e+00 
6.4999998e-01 0.0000000e+00 0.0000000e+00 
6.0000002e-01 0.0000000e+00 0.0000000e+00 
5.5000001e-01 0.0000000e+00 0.0000000e+00 
5.0000000e-01 0.0000000e+00 0.0000000e+00 
4.4999999e-01 0.0000000e+00 0.0000000e+00 
4.0000001e-01 0.0000000e+00 0.0000000e+00 
3.4999999e-01 0.0000000e+00 0.0000000e+00 
3.0000001e-01 0.0000000e+00 0.0000000e+00 
2.5000000e-01 0.0000000e+00 0.0000000e+00 
2.0000000e-01 0.0000000e+00 0.0000000e+00 
1.5000001e-01 0.0000000e+00 0.0000000e+00 
1.0000000e-01 0.0000000e+00 0.0000000e+00 
5.0000001e-02 0.0000000e+00 0.0000000e+00 
9.7500002e-01 0.0000000e+00 0.0000000e+00 
9.2500001e-01 0.0000000e+00 0.0000000e+00 
8.7500000e-01 0.0000000e+00 0.0000000e+00 
8.2499999e-01 0.0000000e+00 0.0000000e+00 
7.7499998e-01 0.0000000e+00 0.0000000e+00 
7.2500002e-01 0.0000000e+00 0.0000000e+00 
6.7500001e-01 0.0000000e+00 0.0000000e+00 
6.2500000e-01 0.0000000e+00 0.0000000e+00 
5.7499999e-01 0.0000000e+00 0.0000000e+00 
5.2499998e-01 0.0000000e+00 0.0000000e+00 
4.7499999e-01 0.0000000e+00 0.0000000e+00 
4.2500001e-01 0.0000000e+00 0.0000000e+00 
3.7500000e-01 0.0000000e+00 0.0000000e+00 
3.2499999e-01 0.0000000e+00 0.0000000e+00 
2.7500001e-01 0.0000000e+00 0.0000000e+00 
2.2499999e-01 0.0000000e+00 0.0000000e+00 
1.7500000e-01 0.0000000e+00 0.0000000e+00 
1.2500000e-01 0.0000000e+00 0.0000000e+00 
7.5000003e-02 0.0000000e+00 0.0000000e+00 
2.5000000e-02 0.0000000e+00 0.0000000e+00 
0.0000000e+00 -5.0000001e-02 0.0000000e+00 
0.0000000e+00 -2.5000000e-02 0.0000000e+00 
0.0000000e+00 -7.5000003e-02 0.0000000e+00 
6.2482655e-01 -4.8086077e-02 0.0000000e+00 
8.2508671e-01 -5.1763725e-02 0.0000000e+00 
3.7500000e-01 -4.9304143e-02 0.0000000e+00 
5.2493805e-01 -5.2249055e-02 0.0000000e+00 
1.2500000e-01 -4.9304143e-02 0.0000000e+00 
7.2491330e-01 -5.1763725e-02 0.0000000e+00 
9.2500001e-01 -4.3301269e-02 0.0000000e+00 
2.2493739e-01 -4.7616642e-02 0.0000000e+00 
4.7499263e-01 -4.8962854e-02 0.0000000e+00 
3.2487729e-01 -5.0790776e-02 0.0000000e+00 
4.2499876e-01 -4.9711168e-02 0.0000000e+00 
1.7499255e-01 -5.1095106e-02 0.0000000e+00 
7.7499998e-01 -5.0587907e-02 0.0000000e+00 
7.5000003e-02 -5.5115875e-02 0.0000000e+00 
8.7536418e-01 -5.2243404e-02 0.0000000e+00 
5.7496077e-01 -5.0055854e-02 0.0000000e+00 
6.7495662e-01 -4.9974967e-02 0.0000000e+00 
2.7496910e-01 -4.9734570e-02 0.0000000e+00 
9.6712744e-01 -6.3315883e-02 0.0000000e+00 
3.2797970e-02 -3.6339462e-02 0.0000000e+00 
2.9650923e-02 -7.0272885e-02 0.0000000e+00 
9.7100937e-01 -2.8899103e-02 0.0000000e+00 
8.1254333e-01 -2.5881862e-02 0.0000000e+00 
8.3754337e-01 -2.5881862e-02 0.0000000e+00 
6.3741326e-01 -7.4043036e-02 0.0000000e+00 
6.1241329e-01 -7.4043036e-02 0.0000000e+00 
9.3750000e-01 -7.1650632e-02 0.0000000e+00 
9.1250002e-01 -7.1650632e-02 0.0000000e+00 
3.8749999e-01 -7.4652068e-02 0.0000000e+00 
3.6250001e-01 -7.4652068e-02 0.0000000e+00 
5.1246905e-01 -2.6124528e-02 0.0000000e+00 
5.3746903e-01 -2.6124528e-02 0.0000000e+00 
1.3750000e-01 -7.4652068e-02 0.0000000e+00 
1.1250000e-01 -7.4652068e-02 0.0000000e+00 
7.8750002e-01 -7.5293951e-02 0.0000000e+00 
7.6249999e-01 -7.5293951e-02 0.0000000e+00 
7.1245664e-01 -2.5881862e-02 0.0000000e+00 
7.3745662e-01 -2.5881862e-02 0.0000000e+00 
2.3746869e-01 -7.3808320e-02 0.0000000e+00 
2.1246870e-01 -7.3808320e-02 0.0000000e+00 
4.8749632e-01 -7.4481428e-02 0.0000000e+00 
4.6249631e-01 -7.4481428e-02 0.0000000e+00 
6.8747830e-01 -2.4987483e-02 0.0000000e+00 
6.9993496e-01 -5.0869346e-02 0.0000000e+00 
8.5022545e-01 -5.2003562e-02 0.0000000e+00 
8.6268210e-01 -2.6121702e-02 0.0000000e+00 
5.9989369e-01 -4.9070965e-02 0.0000000e+00 
5.8748037e-01 -7.5027928e-02 0.0000000e+00 
2.8748456e-01 -2.4867285e-02 0.0000000e+00 
2.9992321e-01 -5.0262675e-02 0.0000000e+00 
3.1243864e-01 -2.5395388e-02 0.0000000e+00 
2.6248455e-01 -2.4867285e-02 0.0000000e+00 
5.6248039e-01 -7.5027928e-02 0.0000000e+00 
6.6247833e-01 -2.4987483e-02 0.0000000e+00 
8.8768208e-01 -2.6121702e-02 0.0000000e+00 
6.2500000e-02 -2.7557937e-02 0.0000000e+00 
8.7499999e-02 -2.7557937e-02 0.0000000e+00 
3.3743864e-01 -2.5395388e-02 0.0000000e+00 
4.1249940e-01 -2.4855584e-02 0.0000000e+00 
4.3749937e-01 -2.4855584e-02 0.0000000e+00 
1.6249627e-01 -2.5547553e-02 0.0000000e+00 
1.8749627e-01 -2.5547553e-02 0.0000000e+00 
3.4993863e-01 -5.0047461e-02 0.0000000e+00 
3.3743864e-01 -7.5395390e-02 0.0000000e+00 
1.6249627e-01 -7.5547554e-02 0.0000000e+00 
1.4999628e-01 -5.0199624e-02 0.0000000e+00 
4.1249940e-01 -7.4855581e-02 0.0000000e+00 
3.9999938e-01 -4.9507655e-02 0.0000000e+00 
1.9996497e-01 -4.9355872e-02 0.0000000e+00 
1.8749627e-01 -7.5547554e-02 0.0000000e+00 
4.4999570e-01 -4.9337011e-02 0.0000000e+00 
4.3749937e-01 -7.4855581e-02 0.0000000e+00 
1.0000000e-01 -5.2210007e-02 0.0000000e+00 
8.7499999e-02 -7.7557936e-02 0.0000000e+00 
4.9996534e-01 -5.0605956e-02 0.0000000e+00 
5.1246905e-01 -7.6124527e-02 0.0000000e+00 
7.4995667e-01 -5.1175814e-02 0.0000000e+00 
7.6249999e-01 -2.5293954e-02 0.0000000e+00 
4.8749632e-01 -2.4481427e-02 0.0000000e+00 
7.8750002e-01 -2.5293954e-02 0.0000000e+00 
8.0004334e-01 -5.1175814e-02 0.0000000e+00 
7.3745662e-01 -7.5881861e-02 0.0000000e+00 
8.1254333e-01 -7.5881861e-02 0.0000000e+00 
9.0018207e-01 -4.7772337e-02 0.0000000e+00 
8.8768208e-01 -7.6121703e-02 0.0000000e+00 
5.4994941e-01 -5.1152457e-02 0.0000000e+00 
5.6248039e-01 -2.5027927e-02 0.0000000e+00 
6.6247833e-01 -7.4987486e-02 0.0000000e+00 
6.4989161e-01 -4.9030524e-02 0.0000000e+00 
2.6248455e-01 -7.4867286e-02 0.0000000e+00 
2.4995326e-01 -4.8675604e-02 0.0000000e+00 
3.6250001e-01 -2.4652071e-02 0.0000000e+00 
4.6249631e-01 -2.4481427e-02 0.0000000e+00 
2.1246870e-01 -2.3808321e-02 0.0000000e+00 
3.8749999e-01 -2.4652071e-02 0.0000000e+00 
1.1250000e-01 -2.4652071e-02 0.0000000e+00 
1.3750000e-01 -2.4652071e-02 0.0000000e+00 
5.3746903e-01 -7.6124527e-02 0.0000000e+00 
6.3741326e-01 -2.4043038e-02 0.0000000e+00 
9.1250002e-01 -2.1650635e-02 0.0000000e+00 
2.3746869e-01 -2.3808321e-02 0.0000000e+00 
9.5856369e-01 -8.1657946e-02 0.0000000e+00 
9.4606370e-01 -5.3308576e-02 0.0000000e+00 
4.1398987e-02 -1.8169731e-02 0.0000000e+00 
5.3898986e-02 -4.5727666e-02 0.0000000e+00 
2.8748456e-01 -7.4867286e-02 0.0000000e+00 
3.1243864e-01 -7.5395390e-02 0.0000000e+00 
6.2500000e-02 -7.7557936e-02 0.0000000e+00 
8.6268210e-01 -7.6121703e-02 0.0000000e+00 
8.3754337e-01 -7.5881861e-02 0.0000000e+00 
5.8748037e-01 -2.5027927e-02 0.0000000e+00 
6.8747830e-01 -7.4987486e-02 0.0000000e+00 
7.1245664e-01 -7.5881861e-02 0.0000000e+00 
6.1241329e-01 -2.4043038e-02 0.0000000e+00 
9.3750000e-01 -2.1650635e-02 0.0000000e+00 
9.8356372e-01 -8.1657946e-02 0.0000000e+00 
9.8356372e-01 -5.6657944e-02 0.0000000e+00 
1.6398985e-02 -4.3169729e-02 0.0000000e+00 
1.6398985e-02 -1.8169731e-02 0.0000000e+00 
5.2325461e-02 -6.2694378e-02 0.0000000e+00 
3.9825462e-02 -8.5136443e-02 0.0000000e+00 
9.4800472e-01 -3.6100186e-02 0.0000000e+00 
9.6050471e-01 -1.4449552e-02 0.0000000e+00 
3.1224446e-02 -5.3306174e-02 0.0000000e+00 
9.6906841e-01 -4.6107493e-02 0.0000000e+00 
1.4825461e-02 -8.5136443e-02 0.0000000e+00 
1.4825461e-02 -6.0136441e-02 0.0000000e+00 
9.8550469e-01 -1.4449552e-02 0.0000000e+00 
9.8550469e-01 -3.9449550e-02 0.0000000e+00 

CELLS 126 722
6 49 89 48 110 111 68
6 16 88 15 112 113 35
6 22 94 21 114 115 41
6 11 90 10 116 117 30
6 55 91 54 118 119 74
6 6 92 5 120 121 25
6 19 100 18 122 123 38
6 51 93 50 124 125 70
6 8 95 7 126 127 27
6 13 96 12 128 129 32
6 51 104 93 130 131 124
6 89 102 48 132 133 111
6 88 103 15 134 135 113
6 59 105 97 136 137 138
6 60 105 59 139 136 79
6 15 103 14 135 140 34
6 52 104 51 141 130 71
6 48 102 47 133 142 67
6 64 101 63 143 144 83
6 59 97 58 138 145 78
6 57 98 56 146 147 76
6 62 99 61 148 149 81
6 90 97 10 150 151 117
6 6 99 92 152 153 120
6 11 98 90 154 155 116
6 95 99 7 156 157 127
6 96 98 12 158 159 129
6 92 101 5 160 161 121
6 91 96 13 162 128 163
6 93 100 50 164 165 125
6 55 96 91 166 162 118
6 49 100 89 167 168 110
6 18 100 93 123 164 169
6 89 100 19 168 122 170
6 94 102 21 171 172 115
6 91 103 54 173 174 119
6 16 104 88 175 176 112
6 8 105 95 177 178 126
6 58 97 90 145 150 179
6 56 98 96 147 158 180
6 61 99 95 149 156 181
6 90 98 57 155 146 182
6 63 101 92 144 160 183
6 92 99 62 153 148 184
6 14 103 91 140 173 185
6 88 104 52 176 141 186
6 47 102 94 142 171 187
6 95 105 60 178 139 188
6 22 106 94 189 190 114
6 64 107 101 191 192 143
6 97 105 9 137 193 194
6 7 99 6 157 152 26
6 10 97 9 151 194 29
6 12 98 11 159 154 31
6 5 101 4 161 195 24
6 21 102 20 172 196 40
6 20 102 89 196 132 197
6 54 103 53 174 198 73
6 17 104 16 199 175 36
6 93 104 17 131 199 200
6 53 103 88 198 134 201
6 9 105 8 193 177 28
6 20 89 19 197 170 39
6 47 94 46 187 202 66
6 53 88 52 201 186 72
6 58 90 57 179 182 77
6 14 91 13 185 163 33
6 63 92 62 183 184 82
6 56 96 55 180 166 75
6 18 93 17 169 200 37
6 50 100 49 165 167 69
6 61 95 60 181 188 80
6 1 106 22 203 189 42
6 43 106 1 204 203 44
6 85 107 3 205 206 86
6 3 107 64 206 191 84
6 101 108 4 207 208 195
6 94 109 46 209 210 202
6 107 108 101 211 207 192
6 106 109 94 212 209 190
6 4 108 0 208 213 23
6 0 108 85 213 214 87
6 46 109 2 210 215 65
6 2 109 43 215 216 45
6 43 109 106 216 212 204
6 85 108 107 214 211 205
2 2 65
2 65 46
2 46 66
2 66 47
2 47 67
2 67 48
2 48 68
2 68 49
2 49 69
2 69 50
2 50 70
2 70 51
2 51 71
2 71 52
2 52 72
2 72 53
2 53 73
2 73 54
2 54 74
2 74 55
2 55 75
2 75 56
2 56 76
2 76 57
2 57 77
2 77 58
2 58 78
2 78 59
2 59 79
2 79 60
2 60 80
2 80 61
2 61 81
2 81 62
2 62 82
2 82 63
2 63 83
2 83 64
2 64 84
2 84 3

CELL_TYPES 126
22
22
22
22
22
22
22
22
22
22
22
22
22
22
22
22
22
22
22
22
22
22
22
22
22
22
22
22
22
22
22
22
22
22
22
22
22
22
22
22
22
22
22
22
22
22
22
22
22
22
22
22
22
22
22
22
22
22
22
22
22
22
22
22
22
22
22
22
22
22
22
22
22
22
22
22
22
22
22
22
22
22
22
22
22
22
3
3
3
3
3
3
3
3
3
3
3
3
3
3
3
3
3
3
3
3
3
3
3
3
3
3
3
3
3
3
3
3
3
3
3
3
3
3
3
3
POINT_DATA 217
FIELD FieldData 1
DISPLACEMENT 3 217  float
0.0000000e+00 0.0000000e+00 0.0000000e+00 
0.0000000e+00 0.0000000e+00 0.0000000e+00 
0.0000000e+00 0.0000000e+00 0.0000000e+00 
0.0000000e+00 0.0000000e+00 0.0000000e+00 
0.0000000e+00 0.0000000e+00 0.0000000e+00 
0.0000000e+00 0.0000000e+00 0.0000000e+00 
0.0000000e+00 0.0000000e+00 0.0000000e+00 
0.0000000e+00 0.0000000e+00 0.0000000e+00 
0.0000000e+00 0.0000000e+00 0.0000000e+00 
0.0000000e+00 0.0000000e+00 0.0000000e+00 
0.0000000e+00 0.0000000e+00 0.0000000e+00 
0.0000000e+00 0.0000000e+00 0.0000000e+00 
0.0000000e+00 0.0000000e+00 0.0000000e+00 
0.0000000e+00 0.0000000e+00 0.0000000e+00 
0.0000000e+00 0.0000000e+00 0.0000000e+00 
0.0000000e+00 0.0000000e+00 0.0000000e+00 
0.0000000e+00 0.0000000e+00 0.0000000e+00 
0.0000000e+00 0.0000000e+00 0.0000000e+00 
0.0000000e+00 0.0000000e+00 0.0000000e+00 
0.0000000e+00 0.0000000e+00 0.0000000e+00 
0.0000000e+00 0.0000000e+00 0.0000000e+00 
0.0000000e+00 0.0000000e+00 0.0000000e+00 
0.0000000e+00 0.0000000e+00 0.0000000e+00 
0.0000000e+00 0.0000000e+00 0.0000000e+00 
0.0000000e+00 0.0000000e+00 0.0000000e+00 
0.0000000e+00 0.0000000e+00 0.0000000e+00 
0.0000000e+00 0.0000000e+00 0.0000000e+00 
0.0000000e+00 0.0000000e+00 0.0000000e+00 
0.0000000e+00 0.0000000e+00 0.0000000e+00 
0.0000000e+00 0.0000000e+00 0.0000000e+00 
0.0000000e+00 0.0000000e+00 0.0000000e+00 
0.0000000e+00 0.0000000e+00 0.0000000e+00 
0.0000000e+00 0.0000000e+00 0.0000000e+00 
0.0000000e+00 0.0000000e+00 0.0000000e+00 
0.0000000e+00 0.0000000e+00 0.0000000e+00 
0.0000000e+00 0.0000000e+00 0.0000000e+00 
0.0000000e+00 0.0000000e+00 0.0000000e+00 
0.0000000e+00 0.0000000e+00 0.0000000e+00 
0.0000000e+00 0.0000000e+00 0.0000000e+00 
0.0000000e+00 0.0000000e+00 0.0000000e+00 
0.0000000e+00 0.0000000e+00 0.0000000e+00 
0.0000000e+00 0.0000000e+00 0.0000000e+00 
0.0000000e+00 0.0000000e+00 0.0000000e+00 
0.0000000e+00 0.0000000e+00 0.0000000e+00 
0.0000000e+00 0.0000000e+00 0.0000000e+00 
0.0000000e+00 0.0000000e+00 0.0000000e+00 
-5.3618230e-12 -1.0387953e-06 0.0000000e+00 
-8.3206480e-12 -2.0579455e-06 0.0000000e+00 
-9.8338325e-12 -3.0377864e-06 0.0000000e+00 
-1.0295449e-11 -3.9586189e-06 0.0000000e+00 
-9.8881311e-12 -4.8006927e-06 0.0000000e+00 
-8.7338982e-12 -5.5441928e-06 0.0000000e+00 
-6.9385452e-12 -6.1692240e-06 0.0000000e+00 
-4.6141619e-12 -6.6557991e-06 0.0000000e+00 
-1.8882005e-12 -6.9838302e-06 0.0000000e+00 
1.0965133e-12 -7.1331178e-06 0.0000000e+00 
4.1859151e-12 -7.0833471e-06 0.0000000e+00 
7.1927659e-12 -6.8140866e-06 0.0000000e+00 
9.9057316e-12 -6.3047855e-06 0.0000000e+00 
1.2052670e-11 -5.5347823e-06 0.0000000e+00 
1.3277089e-11 -4.4974317e-06 0.0000000e+00 
1.3226575e-11 -3.2969033e-06 0.0000000e+00 
1.1745951e-11 -2.0899217e-06 0.0000000e+00 
8.8732945e-12 -1.0334777e-06 0.0000000e+00 
4.8448142e-12 -2.8452479e-07 0.0000000e+00 
-3.1998965e-12 -5.2062524e-07 0.0000000e+00 
-7.1233444e-12 -1.5520544e-06 0.0000000e+00 
-9.2680594e-12 -2.5540098e-06 0.0000000e+00 
-1.0218327e-11 -3.5068117e-06 0.0000000e+00 
-1.0223852e-11 -4.3907371e-06 0.0000000e+00 
-9.4252852e-12 -5.1860061e-06 0.0000000e+00 
-7.9325765e-12 -5.8727637e-06 0.0000000e+00 
-5.8534358e-12 -6.4310716e-06 0.0000000e+00 
-3.3063144e-12 -6.8408926e-06 0.0000000e+00 
-4.2543402e-13 -7.0820838e-06 0.0000000e+00 
2.6398426e-12 -7.1343889e-06 0.0000000e+00 
5.7200958e-12 -6.9774346e-06 0.0000000e+00 
8.6185928e-12 -6.5907298e-06 0.0000000e+00 
1.1098594e-11 -5.9536674e-06 0.0000000e+00 
1.2848418e-11 -5.0462090e-06 0.0000000e+00 
1.3478224e-11 -3.9077877e-06 0.0000000e+00 
1.2719025e-11 -2.6844061e-06 0.0000000e+00 
1.0521950e-11 -1.5330723e-06 0.0000000e+00 
7.0182484e-12 -6.1075605e-07 0.0000000e+00 
2.5023278e-12 -7.4400603e-08 0.0000000e+00 
0.0000000e+00 0.0000000e+00 0.0000000e+00 
0.0000000e+00 0.0000000e+00 0.0000000e+00 
0.0000000e+00 0.0000000e+00 0.0000000e+00 
1.9361471e-07 -3.3253511e-06 0.0000000e+00 
3.6163181e-07 -1.6839358e-06 0.0000000e+00 
-2.1374879e-07 -3.3175281e-06 0.0000000e+00 
5.3773938e-08 -3.3633150e-06 0.0000000e+00 
-3.8143682e-07 -7.9915390e-07 0.0000000e+00 
2.9905169e-07 -2.4913807e-06 0.0000000e+00 
3.1236414e-07 -8.7416061e-07 0.0000000e+00 
-4.4517265e-07 -2.0383195e-06 0.0000000e+00 
-2.8228078e-08 -3.6212566e-06 0.0000000e+00 
-3.1077397e-07 -2.9031837e-06 0.0000000e+00 
-1.1810999e-07 -3.4870563e-06 0.0000000e+00 
-4.4262481e-07 -1.3196213e-06 0.0000000e+00 
3.3749819e-07 -2.1607655e-06 0.0000000e+00 
-2.5826543e-07 -3.1180178e-07 0.0000000e+00 
3.6324963e-07 -1.2114803e-06 0.0000000e+00 
1.2818447e-07 -3.4004049e-06 0.0000000e+00 
2.5127000e-07 -2.9256207e-06 0.0000000e+00 
-3.9568317e-07 -2.5145350e-06 0.0000000e+00 
1.8372276e-07 -2.5741258e-07 0.0000000e+00 
-1.1341450e-07 -1.1236489e-07 0.0000000e+00 
-9.4457477e-08 -6.8328930e-08 0.0000000e+00 
1.4980695e-07 -4.1435462e-07 0.0000000e+00 
2.7490967e-07 -2.7628696e-06 0.0000000e+00 
2.8087629e-07 -2.4212927e-06 0.0000000e+00 
1.6041776e-07 -1.6231216e-06 0.0000000e+00 
1.3688418e-07 -1.6853515e-06 0.0000000e+00 
2.4146831e-07 -3.7624150e-07 0.0000000e+00 
2.7409422e-07 -5.1439059e-07 0.0000000e+00 
-1.4364089e-07 -1.6785648e-06 0.0000000e+00 
-1.8031638e-07 -1.6134785e-06 0.0000000e+00 
2.7045372e-08 -5.2448108e-06 0.0000000e+00 
5.7032963e-08 -5.1899960e-06 0.0000000e+00 
-3.0279966e-07 -4.7500603e-07 0.0000000e+00 
-2.6908137e-07 -3.4750065e-07 0.0000000e+00 
2.5659543e-07 -1.0247443e-06 0.0000000e+00 
2.4469981e-07 -1.1277006e-06 0.0000000e+00 
2.2182689e-07 -3.9732959e-06 0.0000000e+00 
2.3840998e-07 -3.6979948e-06 0.0000000e+00 
-3.3673689e-07 -1.0909835e-06 0.0000000e+00 
-3.4631694e-07 -9.4005600e-07 0.0000000e+00 
-5.7706049e-09 -1.8030565e-06 0.0000000e+00 
-3.8374594e-08 -1.7958414e-06 0.0000000e+00 
1.9873231e-07 -4.2786105e-06 0.0000000e+00 
2.7634422e-07 -2.7127310e-06 0.0000000e+00 
3.6592161e-07 -1.4501701e-06 0.0000000e+00 
2.8377812e-07 -2.0589534e-06 0.0000000e+00 
1.6195345e-07 -3.3748697e-06 0.0000000e+00 
1.0890326e-07 -1.6712892e-06 0.0000000e+00 
-2.8333855e-07 -3.9662846e-06 0.0000000e+00 
-3.5577378e-07 -2.7269632e-06 0.0000000e+00 
-2.5362195e-07 -4.2756005e-06 0.0000000e+00 
-3.1120445e-07 -3.5781682e-06 0.0000000e+00 
8.2678071e-08 -1.7114427e-06 0.0000000e+00 
1.7894094e-07 -4.5127490e-06 0.0000000e+00 
2.7826127e-07 -1.6955786e-06 0.0000000e+00 
-1.8160274e-07 -3.3749384e-07 0.0000000e+00 
-2.3979189e-07 -6.0751148e-07 0.0000000e+00 
-2.1749062e-07 -4.5635647e-06 0.0000000e+00 
-1.0529666e-07 -5.1751535e-06 0.0000000e+00 
-7.0517189e-08 -5.2766377e-06 0.0000000e+00 
-3.3355022e-07 -1.7802429e-06 0.0000000e+00 
-3.4567827e-07 -2.2272873e-06 0.0000000e+00 
-2.6262026e-07 -3.1242685e-06 0.0000000e+00 
-2.1274680e-07 -1.4869115e-06 0.0000000e+00 
-3.1811157e-07 -5.9305540e-07 0.0000000e+00 
-4.1908896e-07 -1.0551202e-06 0.0000000e+00 
-1.0687636e-07 -1.7142949e-06 0.0000000e+00 
-1.6541493e-07 -3.4177801e-06 0.0000000e+00 
-4.5111275e-07 -1.6685871e-06 0.0000000e+00 
-3.2986219e-07 -7.3420313e-07 0.0000000e+00 
-7.2360855e-08 -3.5676928e-06 0.0000000e+00 
-7.1773343e-08 -1.7488865e-06 0.0000000e+00 
-3.2728877e-07 -5.2323583e-07 0.0000000e+00 
-2.0636345e-07 -2.1122946e-07 0.0000000e+00 
1.3722985e-08 -3.5041469e-06 0.0000000e+00 
2.4417238e-08 -1.6808881e-06 0.0000000e+00 
3.1961375e-07 -2.3345328e-06 0.0000000e+00 
2.4926007e-07 -3.4301365e-06 0.0000000e+00 
-4.4351993e-09 -5.3817839e-06 0.0000000e+00 
2.6142089e-07 -3.1156542e-06 0.0000000e+00 
3.5148511e-07 -1.9246179e-06 0.0000000e+00 
2.2673215e-07 -1.1959144e-06 0.0000000e+00 
2.6155220e-07 -8.9460502e-07 0.0000000e+00 
3.4840016e-07 -1.0686329e-06 0.0000000e+00 
2.6049383e-07 -5.4984423e-07 0.0000000e+00 
9.1971728e-08 -3.3942094e-06 0.0000000e+00 
8.3241339e-08 -5.1774609e-06 0.0000000e+00 
1.7803082e-07 -1.4946567e-06 0.0000000e+00 
2.2353034e-07 -3.1316283e-06 0.0000000e+00 
-3.0902910e-07 -1.1844162e-06 0.0000000e+00 
-4.2608889e-07 -2.2925408e-06 0.0000000e+00 
-1.7676773e-07 -4.8508350e-06 0.0000000e+00 
-3.6487886e-08 -5.3626900e-06 0.0000000e+00 
-3.3080971e-07 -2.7424007e-06 0.0000000e+00 
-1.4038523e-07 -5.0431963e-06 0.0000000e+00 
-2.6818935e-07 -9.7428006e-07 0.0000000e+00 
-3.0276644e-07 -1.3701547e-06 0.0000000e+00 
5.3111854e-08 -1.6639229e-06 0.0000000e+00 
1.5333673e-07 -4.7822045e-06 0.0000000e+00 
2.3096223e-07 -1.4069100e-06 0.0000000e+00 
-3.2133354e-07 -3.1975474e-06 0.0000000e+00 
1.4519806e-07 -1.7182474e-07 0.0000000e+00 
2.6656997e-07 -5.2378431e-07 0.0000000e+00 
-9.2762519e-08 -1.7880518e-07 0.0000000e+00 
-1.9166974e-07 -2.1558968e-07 0.0000000e+00 
-2.8266336e-07 -1.3106849e-06 0.0000000e+00 
-2.4733234e-07 -1.3925488e-06 0.0000000e+00 
-1.5708113e-07 -1.3222478e-07 0.0000000e+00 
2.6636974e-07 -6.6434842e-07 0.0000000e+00 
2.6721611e-07 -7.8497163e-07 0.0000000e+00 
1.0955213e-07 -5.0547064e-06 0.0000000e+00 
1.9787106e-07 -1.4174226e-06 0.0000000e+00 
2.1076761e-07 -1.2846374e-06 0.0000000e+00 
1.3070560e-07 -4.9666719e-06 0.0000000e+00 
2.0364635e-07 -1.0029780e-06 0.0000000e+00 
7.6534398e-08 -8.3331685e-08 0.0000000e+00 
1.0964072e-07 -1.5378833e-07 0.0000000e+00 
-5.9981247e-08 -4.3532207e-08 0.0000000e+00 
-3.4518450e-08 -3.8004210e-08 0.0000000e+00 
-1.7668715e-07 -1.5762832e-07 0.0000000e+00 
-7.7984076e-08 -5.4844051e-08 0.0000000e+00 
2.4454394e-07 -6.7940579e-07 0.0000000e+00 
1.1828237e-07 -6.8789382e-07 0.0000000e+00 
-1.1596815e-07 -9.2600679e-08 0.0000000e+00 
1.8518308e-07 -3.4207477e-07 0.0000000e+00 
-3.4044529e-08 -2.5214346e-08 0.0000000e+00 
-5.4728492e-08 -3.8579650e-08 0.0000000e+00 
6.0810748e-08 -2.3891445e-07 0.0000000e+00 
9.6123529e-08 -1.7405154e-07 0.0000000e+00 
CELL_DATA 126
FIELD FieldData 0
