# vtk DataFile Version 4.0
vtk output
ASCII
DATASET UNSTRUCTURED_GRID
POINTS 235 float
0.0000000e+00 0.0000000e+00 0.0000000e+00 
1.0000000e+00 0.0000000e+00 0.0000000e+00 
1.0000000e+00 1.0000000e+01 0.0000000e+00 
0.0000000e+00 1.0000000e+01 0.0000000e+00 
0.0000000e+00 0.0000000e+00 1.0000000e+00 
1.0000000e+00 0.0000000e+00 1.0000000e+00 
1.0000000e+00 1.0000000e+01 1.0000000e+00 
0.0000000e+00 1.0000000e+01 1.0000000e+00 
5.0000000e-01 0.0000000e+00 0.0000000e+00 
1.0000000e+00 2.0000000e+00 0.0000000e+00 
1.0000000e+00 4.0000000e+00 0.0000000e+00 
1.0000000e+00 6.0000000e+00 0.0000000e+00 
1.0000000e+00 8.0000000e+00 0.0000000e+00 
1.0000000e+00 1.0000000e+00 0.0000000e+00 
1.0000000e+00 3.0000000e+00 0.0000000e+00 
1.0000000e+00 5.0000000e+00 0.0000000e+00 
1.0000000e+00 7.0000000e+00 0.0000000e+00 
1.0000000e+00 9.0000000e+00 0.0000000e+00 
5.0000000e-01 1.0000000e+01 0.0000000e+00 
0.0000000e+00 8.0000000e+00 0.0000000e+00 
0.0000000e+00 6.0000000e+00 0.0000000e+00 
0.0000000e+00 4.0000000e+00 0.0000000e+00 
0.0000000e+00 2.0000000e+00 0.0000000e+00 
0.0000000e+00 9.0000000e+00 0.0000000e+00 
0.0000000e+00 7.0000000e+00 0.0000000e+00 
0.0000000e+00 5.0000000e+00 0.0000000e+00 
0.0000000e+00 3.0000000e+00 0.0000000e+00 
0.0000000e+00 1.0000000e+00 0.0000000e+00 
0.0000000e+00 0.0000000e+00 5.0000000e-01 
1.0000000e+00 0.0000000e+00 5.0000000e-01 
5.0000000e-01 0.0000000e+00 1.0000000e+00 
1.0000000e+00 1.0000000e+01 5.0000000e-01 
1.0000000e+00 2.0000000e+00 1.0000000e+00 
1.0000000e+00 4.0000000e+00 1.0000000e+00 
1.0000000e+00 6.0000000e+00 1.0000000e+00 
1.0000000e+00 8.0000000e+00 1.0000000e+00 
1.0000000e+00 1.0000000e+00 1.0000000e+00 
1.0000000e+00 3.0000000e+00 1.0000000e+00 
1.0000000e+00 5.0000000e+00 1.0000000e+00 
1.0000000e+00 7.0000000e+00 1.0000000e+00 
1.0000000e+00 9.0000000e+00 1.0000000e+00 
0.0000000e+00 1.0000000e+01 5.0000000e-01 
5.0000000e-01 1.0000000e+01 1.0000000e+00 
0.0000000e+00 8.0000000e+00 1.0000000e+00 
0.0000000e+00 6.0000000e+00 1.0000000e+00 
0.0000000e+00 4.0000000e+00 1.0000000e+00 
0.0000000e+00 2.0000000e+00 1.0000000e+00 
0.0000000e+00 9.0000000e+00 1.0000000e+00 
0.0000000e+00 7.0000000e+00 1.0000000e+00 
0.0000000e+00 5.0000000e+00 1.0000000e+00 
0.0000000e+00 3.0000000e+00 1.0000000e+00 
0.0000000e+00 1.0000000e+00 1.0000000e+00 
5.0000000e-01 9.0000000e+00 0.0000000e+00 
5.0000000e-01 7.0000000e+00 0.0000000e+00 
5.0000000e-01 1.0000000e+00 0.0000000e+00 
5.0000000e-01 3.0000000e+00 0.0000000e+00 
5.0000000e-01 5.0000000e+00 0.0000000e+00 
7.5000000e-01 5.0000000e-01 0.0000000e+00 
2.5000000e-01 5.0000000e-01 0.0000000e+00 
2.5000000e-01 1.5000000e+00 0.0000000e+00 
7.5000000e-01 1.5000000e+00 0.0000000e+00 
2.5000000e-01 9.5000000e+00 0.0000000e+00 
7.5000000e-01 9.5000000e+00 0.0000000e+00 
7.5000000e-01 8.5000000e+00 0.0000000e+00 
2.5000000e-01 8.5000000e+00 0.0000000e+00 
7.5000000e-01 3.5000000e+00 0.0000000e+00 
7.5000000e-01 2.5000000e+00 0.0000000e+00 
5.0000000e-01 2.0000000e+00 0.0000000e+00 
2.5000000e-01 2.5000000e+00 0.0000000e+00 
7.5000000e-01 5.5000000e+00 0.0000000e+00 
7.5000000e-01 4.5000000e+00 0.0000000e+00 
2.5000000e-01 3.5000000e+00 0.0000000e+00 
5.0000000e-01 4.0000000e+00 0.0000000e+00 
2.5000000e-01 4.5000000e+00 0.0000000e+00 
7.5000000e-01 7.5000000e+00 0.0000000e+00 
7.5000000e-01 6.5000000e+00 0.0000000e+00 
2.5000000e-01 6.5000000e+00 0.0000000e+00 
5.0000000e-01 6.0000000e+00 0.0000000e+00 
2.5000000e-01 5.5000000e+00 0.0000000e+00 
5.0000000e-01 8.0000000e+00 0.0000000e+00 
2.5000000e-01 7.5000000e+00 0.0000000e+00 
5.0000000e-01 0.0000000e+00 5.0000000e-01 
2.5000000e-01 0.0000000e+00 2.5000000e-01 
7.5000000e-01 0.0000000e+00 2.5000000e-01 
2.5000000e-01 0.0000000e+00 7.5000000e-01 
7.5000000e-01 0.0000000e+00 7.5000000e-01 
1.0000000e+00 9.0000000e+00 5.0000000e-01 
1.0000000e+00 5.0000000e+00 5.0000000e-01 
1.0000000e+00 1.0000000e+00 5.0000000e-01 
1.0000000e+00 3.0000000e+00 5.0000000e-01 
1.0000000e+00 7.0000000e+00 5.0000000e-01 
1.0000000e+00 5.0000000e-01 7.5000000e-01 
1.0000000e+00 5.0000000e-01 2.5000000e-01 
1.0000000e+00 1.5000000e+00 2.5000000e-01 
1.0000000e+00 9.5000000e+00 2.5000000e-01 
1.0000000e+00 9.5000000e+00 7.5000000e-01 
1.0000000e+00 8.5000000e+00 2.5000000e-01 
1.0000000e+00 1.5000000e+00 7.5000000e-01 
1.0000000e+00 8.5000000e+00 7.5000000e-01 
1.0000000e+00 2.5000000e+00 2.5000000e-01 
1.0000000e+00 3.5000000e+00 2.5000000e-01 
1.0000000e+00 2.0000000e+00 5.0000000e-01 
1.0000000e+00 2.5000000e+00 7.5000000e-01 
1.0000000e+00 4.5000000e+00 2.5000000e-01 
1.0000000e+00 5.5000000e+00 2.5000000e-01 
1.0000000e+00 4.5000000e+00 7.5000000e-01 
1.0000000e+00 4.0000000e+00 5.0000000e-01 
1.0000000e+00 3.5000000e+00 7.5000000e-01 
1.0000000e+00 6.5000000e+00 2.5000000e-01 
1.0000000e+00 7.5000000e+00 2.5000000e-01 
1.0000000e+00 5.5000000e+00 7.5000000e-01 
1.0000000e+00 6.0000000e+00 5.0000000e-01 
1.0000000e+00 6.5000000e+00 7.5000000e-01 
1.0000000e+00 8.0000000e+00 5.0000000e-01 
1.0000000e+00 7.5000000e+00 7.5000000e-01 
5.0000000e-01 1.0000000e+01 5.0000000e-01 
7.5000000e-01 1.0000000e+01 2.5000000e-01 
2.5000000e-01 1.0000000e+01 2.5000000e-01 
7.5000000e-01 1.0000000e+01 7.5000000e-01 
2.5000000e-01 1.0000000e+01 7.5000000e-01 
0.0000000e+00 9.0000000e+00 5.0000000e-01 
0.0000000e+00 1.0000000e+00 5.0000000e-01 
0.0000000e+00 7.0000000e+00 5.0000000e-01 
0.0000000e+00 5.0000000e+00 5.0000000e-01 
0.0000000e+00 3.0000000e+00 5.0000000e-01 
0.0000000e+00 5.0000000e-01 2.5000000e-01 
0.0000000e+00 5.0000000e-01 7.5000000e-01 
0.0000000e+00 1.5000000e+00 2.5000000e-01 
0.0000000e+00 9.5000000e+00 7.5000000e-01 
0.0000000e+00 9.5000000e+00 2.5000000e-01 
0.0000000e+00 8.5000000e+00 2.5000000e-01 
0.0000000e+00 1.5000000e+00 7.5000000e-01 
0.0000000e+00 8.5000000e+00 7.5000000e-01 
0.0000000e+00 7.5000000e+00 2.5000000e-01 
0.0000000e+00 6.5000000e+00 2.5000000e-01 
0.0000000e+00 8.0000000e+00 5.0000000e-01 
0.0000000e+00 7.5000000e+00 7.5000000e-01 
0.0000000e+00 5.5000000e+00 2.5000000e-01 
0.0000000e+00 4.5000000e+00 2.5000000e-01 
0.0000000e+00 6.5000000e+00 7.5000000e-01 
0.0000000e+00 6.0000000e+00 5.0000000e-01 
0.0000000e+00 5.5000000e+00 7.5000000e-01 
0.0000000e+00 3.5000000e+00 2.5000000e-01 
0.0000000e+00 2.5000000e+00 2.5000000e-01 
0.0000000e+00 4.5000000e+00 7.5000000e-01 
0.0000000e+00 4.0000000e+00 5.0000000e-01 
0.0000000e+00 3.5000000e+00 7.5000000e-01 
0.0000000e+00 2.0000000e+00 5.0000000e-01 
0.0000000e+00 2.5000000e+00 7.5000000e-01 
5.0000000e-01 9.0000000e+00 1.0000000e+00 
5.0000000e-01 1.0000000e+00 1.0000000e+00 
5.0000000e-01 3.0000000e+00 1.0000000e+00 
5.0000000e-01 5.0000000e+00 1.0000000e+00 
5.0000000e-01 7.0000000e+00 1.0000000e+00 
7.5000000e-01 5.0000000e-01 1.0000000e+00 
2.5000000e-01 5.0000000e-01 1.0000000e+00 
2.5000000e-01 1.5000000e+00 1.0000000e+00 
7.5000000e-01 1.5000000e+00 1.0000000e+00 
2.5000000e-01 9.5000000e+00 1.0000000e+00 
7.5000000e-01 9.5000000e+00 1.0000000e+00 
7.5000000e-01 8.5000000e+00 1.0000000e+00 
2.5000000e-01 8.5000000e+00 1.0000000e+00 
7.5000000e-01 3.5000000e+00 1.0000000e+00 
7.5000000e-01 2.5000000e+00 1.0000000e+00 
5.0000000e-01 2.0000000e+00 1.0000000e+00 
2.5000000e-01 2.5000000e+00 1.0000000e+00 
7.5000000e-01 5.5000000e+00 1.0000000e+00 
7.5000000e-01 4.5000000e+00 1.0000000e+00 
2.5000000e-01 3.5000000e+00 1.0000000e+00 
5.0000000e-01 4.0000000e+00 1.0000000e+00 
2.5000000e-01 4.5000000e+00 1.0000000e+00 
7.5000000e-01 7.5000000e+00 1.0000000e+00 
7.5000000e-01 6.5000000e+00 1.0000000e+00 
2.5000000e-01 5.5000000e+00 1.0000000e+00 
5.0000000e-01 6.0000000e+00 1.0000000e+00 
2.5000000e-01 6.5000000e+00 1.0000000e+00 
5.0000000e-01 8.0000000e+00 1.0000000e+00 
2.5000000e-01 7.5000000e+00 1.0000000e+00 
2.5000000e-01 1.0000000e+00 7.5000000e-01 
2.5000000e-01 3.0000000e+00 2.5000000e-01 
2.5000000e-01 7.0000000e+00 2.5000000e-01 
7.5000000e-01 7.0000000e+00 7.5000000e-01 
2.5000000e-01 7.0000000e+00 7.5000000e-01 
2.5000000e-01 5.0000000e+00 7.5000000e-01 
7.5000000e-01 3.0000000e+00 7.5000000e-01 
2.5000000e-01 3.0000000e+00 7.5000000e-01 
7.5000000e-01 3.0000000e+00 2.5000000e-01 
7.5000000e-01 1.0000000e+00 7.5000000e-01 
7.5000000e-01 5.0000000e+00 7.5000000e-01 
2.5000000e-01 9.0000000e+00 7.5000000e-01 
7.5000000e-01 9.0000000e+00 7.5000000e-01 
2.5000000e-01 1.0000000e+00 2.5000000e-01 
2.5000000e-01 9.0000000e+00 2.5000000e-01 
7.5000000e-01 9.0000000e+00 2.5000000e-01 
7.5000000e-01 7.0000000e+00 2.5000000e-01 
2.5000000e-01 5.0000000e+00 2.5000000e-01 
7.5000000e-01 5.0000000e+00 2.5000000e-01 
7.5000000e-01 1.0000000e+00 2.5000000e-01 
5.0000000e-01 1.0000000e+00 5.0000000e-01 
2.5000000e-01 5.0000000e-01 5.0000000e-01 
7.5000000e-01 5.0000000e-01 5.0000000e-01 
5.0000000e-01 5.0000000e-01 7.5000000e-01 
5.0000000e-01 5.0000000e-01 2.5000000e-01 
2.5000000e-01 9.5000000e+00 5.0000000e-01 
5.0000000e-01 9.5000000e+00 7.5000000e-01 
5.0000000e-01 9.0000000e+00 5.0000000e-01 
7.5000000e-01 9.5000000e+00 5.0000000e-01 
5.0000000e-01 9.5000000e+00 2.5000000e-01 
5.0000000e-01 5.0000000e+00 5.0000000e-01 
5.0000000e-01 4.5000000e+00 2.5000000e-01 
5.0000000e-01 7.0000000e+00 5.0000000e-01 
5.0000000e-01 7.5000000e+00 7.5000000e-01 
2.5000000e-01 7.5000000e+00 5.0000000e-01 
2.5000000e-01 4.5000000e+00 5.0000000e-01 
5.0000000e-01 3.0000000e+00 5.0000000e-01 
5.0000000e-01 2.5000000e+00 7.5000000e-01 
5.0000000e-01 1.5000000e+00 2.5000000e-01 
7.5000000e-01 1.5000000e+00 5.0000000e-01 
5.0000000e-01 3.5000000e+00 2.5000000e-01 
5.0000000e-01 6.5000000e+00 7.5000000e-01 
7.5000000e-01 6.5000000e+00 5.0000000e-01 
5.0000000e-01 8.5000000e+00 7.5000000e-01 
7.5000000e-01 8.5000000e+00 5.0000000e-01 
7.5000000e-01 3.5000000e+00 5.0000000e-01 
5.0000000e-01 5.5000000e+00 2.5000000e-01 
2.5000000e-01 5.5000000e+00 5.0000000e-01 
5.0000000e-01 2.5000000e+00 2.5000000e-01 
7.5000000e-01 5.5000000e+00 5.0000000e-01 
2.5000000e-01 3.5000000e+00 5.0000000e-01 
5.0000000e-01 4.5000000e+00 7.5000000e-01 
5.0000000e-01 2.0000000e+00 5.0000000e-01 
5.0000000e-01 7.5000000e+00 2.5000000e-01 
5.0000000e-01 6.0000000e+00 5.0000000e-01 
5.0000000e-01 8.0000000e+00 5.0000000e-01 
5.0000000e-01 4.0000000e+00 5.0000000e-01 

CELLS 100 1100
10 121 46 4 150 131 51 126 178 156 155
10 55 22 124 21 68 143 179 71 26 142
10 20 19 122 53 24 133 134 76 80 180
10 35 34 153 90 39 172 171 114 112 181
10 153 43 122 44 177 136 182 175 48 139
10 123 44 45 152 141 49 144 183 173 170
10 89 151 32 33 184 163 102 107 162 37
10 124 45 46 151 146 50 148 185 168 165
10 89 55 10 9 186 65 100 99 66 14
10 32 150 88 5 157 187 97 36 154 91
10 87 33 34 152 105 38 110 188 167 166
10 7 43 120 149 47 132 128 158 161 189
10 149 6 35 86 159 40 160 190 95 98
10 0 22 121 54 27 127 125 58 59 191
10 120 19 3 52 130 23 129 192 64 61
10 2 12 86 52 17 96 94 62 63 193
10 53 12 90 11 74 109 194 75 16 108
10 123 21 20 56 138 25 137 195 73 78
10 87 11 10 56 104 15 103 196 69 70
10 9 88 54 1 93 197 60 13 92 57
10 88 121 81 150 198 199 200 187 178 201
10 121 88 81 54 198 200 199 191 197 202
10 120 115 149 86 203 204 189 205 206 190
10 120 115 86 52 203 206 205 192 207 193
10 21 123 87 56 138 208 209 73 195 196
10 122 90 43 153 210 211 136 182 181 177
10 90 122 43 53 210 136 211 194 180 212
10 87 123 21 152 208 138 209 188 183 213
10 151 46 124 89 165 148 185 184 215 214
10 54 121 88 9 191 198 197 60 216 93
10 121 150 88 9 178 187 198 216 217 93
10 89 124 10 55 214 218 100 186 179 65
10 122 153 34 90 182 172 219 210 181 112
10 90 34 122 53 112 219 210 194 220 180
10 120 86 35 52 205 98 221 192 193 222
10 86 120 35 149 205 221 98 190 189 160
10 124 89 10 151 214 100 218 185 184 223
10 123 87 20 152 208 224 137 183 188 225
10 87 123 20 56 208 137 224 196 195 78
10 89 124 55 9 214 179 186 99 226 66
10 152 34 87 11 166 110 188 227 111 104
10 149 43 120 35 161 132 189 160 176 221
10 87 20 11 56 224 77 104 196 78 69
10 45 21 123 152 145 138 144 170 213 183
10 33 89 151 10 107 184 162 106 100 223
10 124 10 55 21 218 65 179 142 72 71
10 124 21 45 151 142 145 146 185 228 168
10 89 151 46 32 184 165 215 102 163 164
10 21 45 87 152 145 229 209 213 170 188
10 33 87 45 152 105 229 169 167 188 170
10 122 153 44 34 182 175 139 219 172 174
10 54 22 121 9 59 127 191 60 67 216
10 124 10 21 151 218 72 142 185 223 228
10 32 88 150 9 97 187 157 101 93 217
10 89 46 124 9 215 148 214 99 230 226
10 43 19 90 53 135 231 211 212 80 194
10 123 20 44 152 137 140 141 183 225 173
10 35 153 43 90 171 177 176 114 181 211
10 43 122 19 53 136 133 135 212 180 80
10 34 20 122 53 232 134 219 220 76 180
10 53 90 34 11 194 112 220 75 108 111
10 35 19 120 52 233 130 221 222 64 192
10 35 86 12 52 98 96 113 222 193 63
10 12 90 19 53 109 231 79 74 194 80
10 87 20 152 11 224 225 188 104 77 227
10 10 21 87 56 72 209 103 70 73 196
10 22 55 124 9 68 179 143 67 66 226
10 150 121 46 9 178 131 156 217 216 230
10 54 88 81 1 197 200 202 57 92 83
10 88 150 81 5 187 201 200 91 154 85
10 81 0 121 54 82 125 199 202 58 191
10 81 121 4 150 199 126 84 201 178 155
10 7 120 115 149 128 203 119 158 189 204
10 2 86 115 52 94 206 116 62 193 207
10 6 149 115 86 159 204 118 95 190 206
10 115 120 3 52 203 129 117 207 192 61
10 35 19 90 43 233 231 114 176 135 211
10 43 19 120 35 135 130 132 176 233 221
10 20 34 152 11 232 166 225 77 111 227
10 21 87 33 10 209 105 234 72 103 106
10 45 21 87 33 145 209 229 169 234 105
10 21 33 151 10 234 162 228 72 106 223
10 33 21 151 45 234 228 162 169 145 168
10 44 20 122 34 140 134 139 174 232 219
10 34 44 20 152 174 140 232 166 173 225
10 19 35 90 12 233 114 231 79 113 109
10 53 34 20 11 220 232 76 75 111 77
10 46 22 124 9 147 143 148 230 67 226
10 19 35 12 52 233 113 79 64 222 63
10 46 89 32 9 215 102 164 230 99 101
10 121 22 46 9 127 147 131 216 67 230
10 32 150 46 9 157 156 164 101 217 230
10 115 6 86 2 118 95 206 116 31 94
10 3 120 115 7 129 203 117 41 128 119
10 81 88 5 1 200 91 85 83 92 29
10 150 4 81 5 155 84 201 154 30 85
10 121 4 0 81 126 28 125 199 84 82
10 149 115 7 6 204 119 158 159 118 42
10 115 3 2 52 117 18 116 207 61 62
10 54 81 0 1 202 82 58 57 83 8

CELL_TYPES 100
24
24
24
24
24
24
24
24
24
24
24
24
24
24
24
24
24
24
24
24
24
24
24
24
24
24
24
24
24
24
24
24
24
24
24
24
24
24
24
24
24
24
24
24
24
24
24
24
24
24
24
24
24
24
24
24
24
24
24
24
24
24
24
24
24
24
24
24
24
24
24
24
24
24
24
24
24
24
24
24
24
24
24
24
24
24
24
24
24
24
24
24
24
24
24
24
24
24
24
24
POINT_DATA 235
FIELD FieldData 2
DISPLACEMENT 3 235  float
0.0000000e+00 -4.3306873e-06 0.0000000e+00 
0.0000000e+00 -4.3306882e-06 0.0000000e+00 
0.0000000e+00 -5.2374244e-06 0.0000000e+00 
0.0000000e+00 -5.2374130e-06 0.0000000e+00 
0.0000000e+00 -4.3306873e-06 0.0000000e+00 
0.0000000e+00 -4.3306877e-06 0.0000000e+00 
0.0000000e+00 -5.2374203e-06 0.0000000e+00 
0.0000000e+00 -5.2374189e-06 0.0000000e+00 
0.0000000e+00 -4.3306977e-06 0.0000000e+00 
0.0000000e+00 -4.5132088e-06 0.0000000e+00 
0.0000000e+00 -4.6949981e-06 0.0000000e+00 
0.0000000e+00 -4.8763522e-06 0.0000000e+00 
0.0000000e+00 -5.0571975e-06 0.0000000e+00 
0.0000000e+00 -4.4220396e-06 0.0000000e+00 
0.0000000e+00 -4.6041341e-06 0.0000000e+00 
0.0000000e+00 -4.7857025e-06 0.0000000e+00 
0.0000000e+00 -4.9668511e-06 0.0000000e+00 
0.0000000e+00 -5.1473721e-06 0.0000000e+00 
0.0000000e+00 -5.2374471e-06 0.0000000e+00 
0.0000000e+00 -5.0571980e-06 0.0000000e+00 
0.0000000e+00 -4.8763404e-06 0.0000000e+00 
0.0000000e+00 -4.6949949e-06 0.0000000e+00 
0.0000000e+00 -4.5132042e-06 0.0000000e+00 
0.0000000e+00 -5.1473799e-06 0.0000000e+00 
0.0000000e+00 -4.9668502e-06 0.0000000e+00 
0.0000000e+00 -4.7857015e-06 0.0000000e+00 
0.0000000e+00 -4.6041300e-06 0.0000000e+00 
0.0000000e+00 -4.4220383e-06 0.0000000e+00 
0.0000000e+00 -4.3306973e-06 0.0000000e+00 
0.0000000e+00 -4.3306977e-06 0.0000000e+00 
0.0000000e+00 -4.3306973e-06 0.0000000e+00 
0.0000000e+00 -5.2374558e-06 0.0000000e+00 
0.0000000e+00 -4.5132037e-06 0.0000000e+00 
0.0000000e+00 -4.6950017e-06 0.0000000e+00 
0.0000000e+00 -4.8763591e-06 0.0000000e+00 
0.0000000e+00 -5.0571980e-06 0.0000000e+00 
0.0000000e+00 -4.4220383e-06 0.0000000e+00 
0.0000000e+00 -4.6041350e-06 0.0000000e+00 
0.0000000e+00 -4.7857006e-06 0.0000000e+00 
0.0000000e+00 -4.9668483e-06 0.0000000e+00 
0.0000000e+00 -5.1473639e-06 0.0000000e+00 
0.0000000e+00 -5.2374489e-06 0.0000000e+00 
0.0000000e+00 -5.2374508e-06 0.0000000e+00 
0.0000000e+00 -5.0571985e-06 0.0000000e+00 
0.0000000e+00 -4.8763477e-06 0.0000000e+00 
0.0000000e+00 -4.6950031e-06 0.0000000e+00 
0.0000000e+00 -4.5132033e-06 0.0000000e+00 
0.0000000e+00 -5.1473730e-06 0.0000000e+00 
0.0000000e+00 -4.9668529e-06 0.0000000e+00 
0.0000000e+00 -4.7857034e-06 0.0000000e+00 
0.0000000e+00 -4.6041323e-06 0.0000000e+00 
0.0000000e+00 -4.4220387e-06 0.0000000e+00 
0.0000000e+00 -5.1473889e-06 0.0000000e+00 
0.0000000e+00 -4.9668465e-06 0.0000000e+00 
0.0000000e+00 -4.4220405e-06 0.0000000e+00 
0.0000000e+00 -4.6041296e-06 0.0000000e+00 
0.0000000e+00 -4.7856997e-06 0.0000000e+00 
0.0000000e+00 -4.3763766e-06 0.0000000e+00 
0.0000000e+00 -4.3763762e-06 0.0000000e+00 
0.0000000e+00 -4.4676535e-06 0.0000000e+00 
0.0000000e+00 -4.4676563e-06 0.0000000e+00 
0.0000000e+00 -5.1924139e-06 0.0000000e+00 
0.0000000e+00 -5.1924135e-06 0.0000000e+00 
0.0000000e+00 -5.1023057e-06 0.0000000e+00 
0.0000000e+00 -5.1023080e-06 0.0000000e+00 
0.0000000e+00 -4.6495720e-06 0.0000000e+00 
0.0000000e+00 -4.5586798e-06 0.0000000e+00 
0.0000000e+00 -4.5132024e-06 0.0000000e+00 
0.0000000e+00 -4.5586776e-06 0.0000000e+00 
0.0000000e+00 -4.8310289e-06 0.0000000e+00 
0.0000000e+00 -4.7403632e-06 0.0000000e+00 
0.0000000e+00 -4.6495702e-06 0.0000000e+00 
0.0000000e+00 -4.6949945e-06 0.0000000e+00 
0.0000000e+00 -4.7403628e-06 0.0000000e+00 
0.0000000e+00 -5.0120457e-06 0.0000000e+00 
0.0000000e+00 -4.9216205e-06 0.0000000e+00 
0.0000000e+00 -4.9216178e-06 0.0000000e+00 
0.0000000e+00 -4.8763450e-06 0.0000000e+00 
0.0000000e+00 -4.8310253e-06 0.0000000e+00 
0.0000000e+00 -5.0571948e-06 0.0000000e+00 
0.0000000e+00 -5.0120475e-06 0.0000000e+00 
-1.7169090e-13 -4.3306950e-06 1.3300788e-13 
5.6282856e-14 -4.3306950e-06 2.1644180e-13 
-3.0757330e-13 -4.3306954e-06 2.6402508e-13 
1.0968643e-13 -4.3306950e-06 -1.0108524e-13 
-2.6520195e-13 -4.3306950e-06 -4.5852204e-14 
0.0000000e+00 -5.1473844e-06 0.0000000e+00 
0.0000000e+00 -4.7856961e-06 0.0000000e+00 
0.0000000e+00 -4.4220401e-06 0.0000000e+00 
0.0000000e+00 -4.6041291e-06 0.0000000e+00 
0.0000000e+00 -4.9668333e-06 0.0000000e+00 
0.0000000e+00 -4.3763762e-06 0.0000000e+00 
0.0000000e+00 -4.3763766e-06 0.0000000e+00 
0.0000000e+00 -4.4676563e-06 0.0000000e+00 
0.0000000e+00 -5.1924162e-06 0.0000000e+00 
0.0000000e+00 -5.1924112e-06 0.0000000e+00 
0.0000000e+00 -5.1023057e-06 0.0000000e+00 
0.0000000e+00 -4.4676531e-06 0.0000000e+00 
0.0000000e+00 -5.1023053e-06 0.0000000e+00 
0.0000000e+00 -4.5586821e-06 0.0000000e+00 
0.0000000e+00 -4.6495729e-06 0.0000000e+00 
0.0000000e+00 -4.5132010e-06 0.0000000e+00 
0.0000000e+00 -4.5586808e-06 0.0000000e+00 
0.0000000e+00 -4.7403641e-06 0.0000000e+00 
0.0000000e+00 -4.8310303e-06 0.0000000e+00 
0.0000000e+00 -4.7403664e-06 0.0000000e+00 
0.0000000e+00 -4.6949954e-06 0.0000000e+00 
0.0000000e+00 -4.6495752e-06 0.0000000e+00 
0.0000000e+00 -4.9216160e-06 0.0000000e+00 
0.0000000e+00 -5.0120443e-06 0.0000000e+00 
0.0000000e+00 -4.8310308e-06 0.0000000e+00 
0.0000000e+00 -4.8763527e-06 0.0000000e+00 
0.0000000e+00 -4.9216092e-06 0.0000000e+00 
0.0000000e+00 -5.0571966e-06 0.0000000e+00 
0.0000000e+00 -5.0120520e-06 0.0000000e+00 
6.3035357e-13 -5.2374221e-06 8.8563793e-14 
1.5358037e-12 -5.2374385e-06 -3.3365078e-13 
-9.8038168e-13 -5.2374326e-06 -7.6072070e-13 
1.1571346e-12 -5.2374389e-06 3.3861997e-13 
-6.3423897e-13 -5.2374362e-06 6.3733524e-13 
0.0000000e+00 -5.1473862e-06 0.0000000e+00 
0.0000000e+00 -4.4220392e-06 0.0000000e+00 
0.0000000e+00 -4.9668492e-06 0.0000000e+00 
0.0000000e+00 -4.7857011e-06 0.0000000e+00 
0.0000000e+00 -4.6041255e-06 0.0000000e+00 
0.0000000e+00 -4.3763757e-06 0.0000000e+00 
0.0000000e+00 -4.3763757e-06 0.0000000e+00 
0.0000000e+00 -4.4676540e-06 0.0000000e+00 
0.0000000e+00 -5.1924130e-06 0.0000000e+00 
0.0000000e+00 -5.1924148e-06 0.0000000e+00 
0.0000000e+00 -5.1023067e-06 0.0000000e+00 
0.0000000e+00 -4.4676549e-06 0.0000000e+00 
0.0000000e+00 -5.1023057e-06 0.0000000e+00 
0.0000000e+00 -5.0120439e-06 0.0000000e+00 
0.0000000e+00 -4.9216178e-06 0.0000000e+00 
0.0000000e+00 -5.0571934e-06 0.0000000e+00 
0.0000000e+00 -5.0120448e-06 0.0000000e+00 
0.0000000e+00 -4.8310253e-06 0.0000000e+00 
0.0000000e+00 -4.7403632e-06 0.0000000e+00 
0.0000000e+00 -4.9216210e-06 0.0000000e+00 
0.0000000e+00 -4.8763432e-06 0.0000000e+00 
0.0000000e+00 -4.8310289e-06 0.0000000e+00 
0.0000000e+00 -4.6495707e-06 0.0000000e+00 
0.0000000e+00 -4.5586780e-06 0.0000000e+00 
0.0000000e+00 -4.7403655e-06 0.0000000e+00 
0.0000000e+00 -4.6949976e-06 0.0000000e+00 
0.0000000e+00 -4.6495738e-06 0.0000000e+00 
0.0000000e+00 -4.5131978e-06 0.0000000e+00 
0.0000000e+00 -4.5586780e-06 0.0000000e+00 
0.0000000e+00 -5.1473876e-06 0.0000000e+00 
0.0000000e+00 -4.4220396e-06 0.0000000e+00 
0.0000000e+00 -4.6041287e-06 0.0000000e+00 
0.0000000e+00 -4.7856934e-06 0.0000000e+00 
0.0000000e+00 -4.9668429e-06 0.0000000e+00 
0.0000000e+00 -4.3763757e-06 0.0000000e+00 
0.0000000e+00 -4.3763757e-06 0.0000000e+00 
0.0000000e+00 -4.4676549e-06 0.0000000e+00 
0.0000000e+00 -4.4676544e-06 0.0000000e+00 
0.0000000e+00 -5.1924135e-06 0.0000000e+00 
0.0000000e+00 -5.1924098e-06 0.0000000e+00 
0.0000000e+00 -5.1023089e-06 0.0000000e+00 
0.0000000e+00 -5.1023085e-06 0.0000000e+00 
0.0000000e+00 -4.6495793e-06 0.0000000e+00 
0.0000000e+00 -4.5586780e-06 0.0000000e+00 
0.0000000e+00 -4.5131997e-06 0.0000000e+00 
0.0000000e+00 -4.5586767e-06 0.0000000e+00 
0.0000000e+00 -4.8310339e-06 0.0000000e+00 
0.0000000e+00 -4.7403619e-06 0.0000000e+00 
0.0000000e+00 -4.6495766e-06 0.0000000e+00 
0.0000000e+00 -4.6949976e-06 0.0000000e+00 
0.0000000e+00 -4.7403651e-06 0.0000000e+00 
0.0000000e+00 -5.0120493e-06 0.0000000e+00 
0.0000000e+00 -4.9216155e-06 0.0000000e+00 
0.0000000e+00 -4.8310294e-06 0.0000000e+00 
0.0000000e+00 -4.8763513e-06 0.0000000e+00 
0.0000000e+00 -4.9216201e-06 0.0000000e+00 
0.0000000e+00 -5.0571985e-06 0.0000000e+00 
0.0000000e+00 -5.0120452e-06 0.0000000e+00 
9.3420975e-15 -4.4220392e-06 -1.3358017e-15 
-2.0249288e-14 -4.6041282e-06 -1.5173752e-13 
2.4682657e-13 -4.9668470e-06 3.0286177e-13 
-1.2394741e-12 -4.9668402e-06 -4.5341018e-13 
2.2507502e-13 -4.9668474e-06 2.1503432e-14 
-1.3988382e-13 -4.7856993e-06 -6.6632863e-14 
-9.2064750e-14 -4.6041305e-06 -2.6951431e-13 
1.9360689e-13 -4.6041287e-06 -1.7118043e-13 
1.4967232e-13 -4.6041318e-06 -1.9299587e-13 
1.4521095e-13 -4.4220392e-06 7.2066695e-14 
-3.3405220e-13 -4.7856956e-06 -1.6678577e-13 
-8.5590562e-13 -5.1473844e-06 1.0726662e-12 
7.3404065e-13 -5.1473785e-06 1.3788793e-12 
-9.7668449e-14 -4.4220392e-06 -8.7841979e-14 
-1.0772055e-12 -5.1473844e-06 -1.0653521e-12 
3.2995744e-13 -5.1473821e-06 -1.0337433e-12 
3.9393751e-13 -4.9668406e-06 -1.6341761e-13 
-1.6463484e-13 -4.7857011e-06 -3.0801277e-15 
-2.8473358e-13 -4.7856993e-06 1.9526108e-13 
-8.8625017e-14 -4.4220396e-06 7.7065700e-14 
8.1307836e-15 -4.4220392e-06 8.9038206e-14 
-1.6946919e-13 -4.3763762e-06 -1.6960640e-15 
1.4587658e-13 -4.3763766e-06 1.9046678e-14 
2.4785075e-14 -4.3763757e-06 1.5990558e-13 
-1.3985554e-14 -4.3763762e-06 -1.0161650e-13 
1.1716364e-12 -5.1924117e-06 -2.6469590e-13 
-6.9497251e-13 -5.1924130e-06 -1.0671350e-12 
-1.7371562e-13 -5.1473821e-06 6.2166109e-13 
-2.2292884e-12 -5.1924135e-06 -9.9513341e-14 
-7.4736533e-13 -5.1924126e-06 1.1793861e-12 
-3.3575096e-13 -4.7856997e-06 -2.4606975e-14 
-1.5170021e-13 -4.7403651e-06 4.4988736e-13 
1.9401820e-13 -4.9668420e-06 -1.5120205e-13 
-1.3646919e-12 -5.0120439e-06 -5.0846312e-13 
-8.0047909e-13 -5.0120434e-06 -4.7560729e-13 
-9.3627092e-14 -4.7403651e-06 4.2941754e-13 
3.6123236e-15 -4.6041287e-06 -5.8193191e-13 
-2.6143974e-13 -4.5586785e-06 -6.0941695e-15 
-5.4045760e-13 -4.4676558e-06 4.4823406e-13 
-2.8234744e-13 -4.4676553e-06 5.4312978e-13 
2.0536642e-13 -4.6495716e-06 -3.1267483e-13 
3.0768482e-12 -4.9216196e-06 8.0210437e-13 
2.7864898e-12 -4.9216164e-06 1.4249289e-12 
2.1581291e-13 -5.1023003e-06 4.9880147e-14 
2.7386676e-13 -5.1022994e-06 -1.6598942e-14 
7.4058544e-14 -4.6495738e-06 -4.3948660e-14 
-9.9635176e-13 -4.8310271e-06 -8.5414043e-13 
-1.3680156e-12 -4.8310276e-06 -7.6605763e-13 
4.3862673e-14 -4.5586794e-06 -3.9318071e-13 
-7.2285082e-13 -4.8310299e-06 -5.7366666e-13 
4.2106409e-13 -4.6495734e-06 1.8681142e-13 
-3.3422101e-13 -4.7403651e-06 6.5677758e-13 
-3.5516529e-14 -4.5132001e-06 -1.5587946e-13 
-3.3921330e-13 -5.0120443e-06 -7.3729271e-13 
4.8831767e-13 -4.8763486e-06 1.1879981e-13 
2.0158859e-12 -5.0571912e-06 1.5826923e-12 
3.7496915e-13 -4.6949935e-06 4.4291090e-13 
VELOCITY 3 235  float
0.0000000e+00 -2.0249096e-05 0.0000000e+00 
0.0000000e+00 -2.0249063e-05 0.0000000e+00 
0.0000000e+00 -2.0241638e-05 0.0000000e+00 
0.0000000e+00 -2.0259331e-05 0.0000000e+00 
0.0000000e+00 -2.0249139e-05 0.0000000e+00 
0.0000000e+00 -2.0249077e-05 0.0000000e+00 
0.0000000e+00 -2.0241318e-05 0.0000000e+00 
0.0000000e+00 -2.0249199e-05 0.0000000e+00 
0.0000000e+00 -2.0247573e-05 0.0000000e+00 
0.0000000e+00 -2.0206671e-05 0.0000000e+00 
0.0000000e+00 -2.0237150e-05 0.0000000e+00 
0.0000000e+00 -2.0238920e-05 0.0000000e+00 
0.0000000e+00 -2.0247080e-05 0.0000000e+00 
0.0000000e+00 -2.0251000e-05 0.0000000e+00 
0.0000000e+00 -2.0229356e-05 0.0000000e+00 
0.0000000e+00 -2.0228901e-05 0.0000000e+00 
0.0000000e+00 -2.0234649e-05 0.0000000e+00 
0.0000000e+00 -2.0200347e-05 0.0000000e+00 
0.0000000e+00 -2.0152647e-05 0.0000000e+00 
0.0000000e+00 -2.0239217e-05 0.0000000e+00 
0.0000000e+00 -2.0239797e-05 0.0000000e+00 
0.0000000e+00 -2.0242347e-05 0.0000000e+00 
0.0000000e+00 -2.0206486e-05 0.0000000e+00 
0.0000000e+00 -2.0187048e-05 0.0000000e+00 
0.0000000e+00 -2.0247162e-05 0.0000000e+00 
0.0000000e+00 -2.0228545e-05 0.0000000e+00 
0.0000000e+00 -2.0231255e-05 0.0000000e+00 
0.0000000e+00 -2.0251138e-05 0.0000000e+00 
0.0000000e+00 -2.0247788e-05 0.0000000e+00 
0.0000000e+00 -2.0247662e-05 0.0000000e+00 
0.0000000e+00 -2.0247653e-05 0.0000000e+00 
0.0000000e+00 -2.0159121e-05 0.0000000e+00 
0.0000000e+00 -2.0206960e-05 0.0000000e+00 
0.0000000e+00 -2.0232843e-05 0.0000000e+00 
0.0000000e+00 -2.0242065e-05 0.0000000e+00 
0.0000000e+00 -2.0210651e-05 0.0000000e+00 
0.0000000e+00 -2.0251066e-05 0.0000000e+00 
0.0000000e+00 -2.0230140e-05 0.0000000e+00 
0.0000000e+00 -2.0232335e-05 0.0000000e+00 
0.0000000e+00 -2.0254160e-05 0.0000000e+00 
0.0000000e+00 -2.0211392e-05 0.0000000e+00 
0.0000000e+00 -2.0158213e-05 0.0000000e+00 
0.0000000e+00 -2.0157600e-05 0.0000000e+00 
0.0000000e+00 -2.0240775e-05 0.0000000e+00 
0.0000000e+00 -2.0245243e-05 0.0000000e+00 
0.0000000e+00 -2.0236814e-05 0.0000000e+00 
0.0000000e+00 -2.0205431e-05 0.0000000e+00 
0.0000000e+00 -2.0202138e-05 0.0000000e+00 
0.0000000e+00 -2.0236395e-05 0.0000000e+00 
0.0000000e+00 -2.0228661e-05 0.0000000e+00 
0.0000000e+00 -2.0230200e-05 0.0000000e+00 
0.0000000e+00 -2.0250500e-05 0.0000000e+00 
0.0000000e+00 -2.0194522e-05 0.0000000e+00 
0.0000000e+00 -2.0248266e-05 0.0000000e+00 
0.0000000e+00 -2.0252362e-05 0.0000000e+00 
0.0000000e+00 -2.0230780e-05 0.0000000e+00 
0.0000000e+00 -2.0228284e-05 0.0000000e+00 
0.0000000e+00 -2.0258633e-05 0.0000000e+00 
0.0000000e+00 -2.0258683e-05 0.0000000e+00 
0.0000000e+00 -2.0231004e-05 0.0000000e+00 
0.0000000e+00 -2.0230984e-05 0.0000000e+00 
0.0000000e+00 -2.0253687e-05 0.0000000e+00 
0.0000000e+00 -2.0253805e-05 0.0000000e+00 
0.0000000e+00 -2.0228639e-05 0.0000000e+00 
0.0000000e+00 -2.0225694e-05 0.0000000e+00 
0.0000000e+00 -2.0241670e-05 0.0000000e+00 
0.0000000e+00 -2.0213649e-05 0.0000000e+00 
0.0000000e+00 -2.0209196e-05 0.0000000e+00 
0.0000000e+00 -2.0214668e-05 0.0000000e+00 
0.0000000e+00 -2.0237712e-05 0.0000000e+00 
0.0000000e+00 -2.0225216e-05 0.0000000e+00 
0.0000000e+00 -2.0243213e-05 0.0000000e+00 
0.0000000e+00 -2.0238147e-05 0.0000000e+00 
0.0000000e+00 -2.0226071e-05 0.0000000e+00 
0.0000000e+00 -2.0235242e-05 0.0000000e+00 
0.0000000e+00 -2.0231262e-05 0.0000000e+00 
0.0000000e+00 -2.0235359e-05 0.0000000e+00 
0.0000000e+00 -2.0237077e-05 0.0000000e+00 
0.0000000e+00 -2.0237523e-05 0.0000000e+00 
0.0000000e+00 -2.0243011e-05 0.0000000e+00 
0.0000000e+00 -2.0241227e-05 0.0000000e+00 
4.5535374e-11 -2.0247342e-05 -1.7976979e-11 
2.6368650e-11 -2.0247811e-05 -7.5741594e-11 
5.3765180e-11 -2.0247717e-05 -5.3961884e-11 
-1.7285890e-11 -2.0247882e-05 3.9136406e-11 
7.7035878e-11 -2.0247788e-05 -4.4183979e-12 
0.0000000e+00 -2.0198242e-05 0.0000000e+00 
0.0000000e+00 -2.0227169e-05 0.0000000e+00 
0.0000000e+00 -2.0252401e-05 0.0000000e+00 
0.0000000e+00 -2.0231208e-05 0.0000000e+00 
0.0000000e+00 -2.0275773e-05 0.0000000e+00 
0.0000000e+00 -2.0258605e-05 0.0000000e+00 
0.0000000e+00 -2.0258633e-05 0.0000000e+00 
0.0000000e+00 -2.0231077e-05 0.0000000e+00 
0.0000000e+00 -2.0251771e-05 0.0000000e+00 
0.0000000e+00 -2.0252632e-05 0.0000000e+00 
0.0000000e+00 -2.0219821e-05 0.0000000e+00 
0.0000000e+00 -2.0231188e-05 0.0000000e+00 
0.0000000e+00 -2.0235744e-05 0.0000000e+00 
0.0000000e+00 -2.0212681e-05 0.0000000e+00 
0.0000000e+00 -2.0241674e-05 0.0000000e+00 
0.0000000e+00 -2.0210498e-05 0.0000000e+00 
0.0000000e+00 -2.0213654e-05 0.0000000e+00 
0.0000000e+00 -2.0224281e-05 0.0000000e+00 
0.0000000e+00 -2.0240343e-05 0.0000000e+00 
0.0000000e+00 -2.0223408e-05 0.0000000e+00 
0.0000000e+00 -2.0234216e-05 0.0000000e+00 
0.0000000e+00 -2.0240303e-05 0.0000000e+00 
0.0000000e+00 -2.0228954e-05 0.0000000e+00 
0.0000000e+00 -2.0241081e-05 0.0000000e+00 
0.0000000e+00 -2.0242480e-05 0.0000000e+00 
0.0000000e+00 -2.0234809e-05 0.0000000e+00 
0.0000000e+00 -2.0243808e-05 0.0000000e+00 
0.0000000e+00 -2.0230762e-05 0.0000000e+00 
0.0000000e+00 -2.0214868e-05 0.0000000e+00 
-6.8282563e-10 -2.0227510e-05 6.5856165e-10 
-5.3283250e-10 -2.0198433e-05 -8.5313956e-10 