# vtk DataFile Version 4.0
vtk output
ASCII
DATASET UNSTRUCTURED_GRID
POINTS 663 float
0.0000000e+00 0.0000000e+00 0.0000000e+00 
5.0000000e+00 0.0000000e+00 0.0000000e+00 
5.0000000e+00 1.0000000e+00 0.0000000e+00 
0.0000000e+00 1.0000000e+00 0.0000000e+00 
1.0000000e-01 0.0000000e+00 0.0000000e+00 
2.0000000e-01 0.0000000e+00 0.0000000e+00 
3.0000001e-01 0.0000000e+00 0.0000000e+00 
4.0000001e-01 0.0000000e+00 0.0000000e+00 
5.0000000e-01 0.0000000e+00 0.0000000e+00 
6.0000002e-01 0.0000000e+00 0.0000000e+00 
6.9999999e-01 0.0000000e+00 0.0000000e+00 
8.0000001e-01 0.0000000e+00 0.0000000e+00 
8.9999998e-01 0.0000000e+00 0.0000000e+00 
1.0000000e+00 0.0000000e+00 0.0000000e+00 
1.1000000e+00 0.0000000e+00 0.0000000e+00 
1.2000000e+00 0.0000000e+00 0.0000000e+00 
1.3000000e+00 0.0000000e+00 0.0000000e+00 
1.4000000e+00 0.0000000e+00 0.0000000e+00 
1.5000000e+00 0.0000000e+00 0.0000000e+00 
1.6000000e+00 0.0000000e+00 0.0000000e+00 
1.7000000e+00 0.0000000e+00 0.0000000e+00 
1.8000000e+00 0.0000000e+00 0.0000000e+00 
1.9000000e+00 0.0000000e+00 0.0000000e+00 
2.0000000e+00 0.0000000e+00 0.0000000e+00 
2.0999999e+00 0.0000000e+00 0.0000000e+00 
2.2000000e+00 0.0000000e+00 0.0000000e+00 
2.3000000e+00 0.0000000e+00 0.0000000e+00 
2.4000001e+00 0.0000000e+00 0.0000000e+00 
2.5000000e+00 0.0000000e+00 0.0000000e+00 
2.5999999e+00 0.0000000e+00 0.0000000e+00 
2.7000000e+00 0.0000000e+00 0.0000000e+00 
2.8000000e+00 0.0000000e+00 0.0000000e+00 
2.9000001e+00 0.0000000e+00 0.0000000e+00 
3.0000000e+00 0.0000000e+00 0.0000000e+00 
3.0999999e+00 0.0000000e+00 0.0000000e+00 
3.2000000e+00 0.0000000e+00 0.0000000e+00 
3.3000000e+00 0.0000000e+00 0.0000000e+00 
3.4000001e+00 0.0000000e+00 0.0000000e+00 
3.5000000e+00 0.0000000e+00 0.0000000e+00 
3.5999999e+00 0.0000000e+00 0.0000000e+00 
3.7000000e+00 0.0000000e+00 0.0000000e+00 
3.8000000e+00 0.0000000e+00 0.0000000e+00 
3.9000001e+00 0.0000000e+00 0.0000000e+00 
4.0000000e+00 0.0000000e+00 0.0000000e+00 
4.0999999e+00 0.0000000e+00 0.0000000e+00 
4.1999998e+00 0.0000000e+00 0.0000000e+00 
4.3000002e+00 0.0000000e+00 0.0000000e+00 
4.4000001e+00 0.0000000e+00 0.0000000e+00 
4.5000000e+00 0.0000000e+00 0.0000000e+00 
4.5999999e+00 0.0000000e+00 0.0000000e+00 
4.6999998e+00 0.0000000e+00 0.0000000e+00 
4.8000002e+00 0.0000000e+00 0.0000000e+00 
4.9000001e+00 0.0000000e+00 0.0000000e+00 
5.0000000e+00 1.0000000e-01 0.0000000e+00 
5.0000000e+00 2.0000000e-01 0.0000000e+00 
5.0000000e+00 3.0000001e-01 0.0000000e+00 
5.0000000e+00 4.0000001e-01 0.0000000e+00 
5.0000000e+00 5.0000000e-01 0.0000000e+00 
5.0000000e+00 6.0000002e-01 0.0000000e+00 
5.0000000e+00 6.9999999e-01 0.0000000e+00 
5.0000000e+00 8.0000001e-01 0.0000000e+00 
5.0000000e+00 8.9999998e-01 0.0000000e+00 
4.9000001e+00 1.0000000e+00 0.0000000e+00 
4.8000002e+00 1.0000000e+00 0.0000000e+00 
4.6999998e+00 1.0000000e+00 0.0000000e+00 
4.5999999e+00 1.0000000e+00 0.0000000e+00 
4.5000000e+00 1.0000000e+00 0.0000000e+00 
4.4000001e+00 1.0000000e+00 0.0000000e+00 
4.3000002e+00 1.0000000e+00 0.0000000e+00 
4.1999998e+00 1.0000000e+00 0.0000000e+00 
4.0999999e+00 1.0000000e+00 0.0000000e+00 
4.0000000e+00 1.0000000e+00 0.0000000e+00 
3.9000001e+00 1.0000000e+00 0.0000000e+00 
3.8000000e+00 1.0000000e+00 0.0000000e+00 
3.7000000e+00 1.0000000e+00 0.0000000e+00 
3.5999999e+00 1.0000000e+00 0.0000000e+00 
3.5000000e+00 1.0000000e+00 0.0000000e+00 
3.4000001e+00 1.0000000e+00 0.0000000e+00 
3.3000000e+00 1.0000000e+00 0.0000000e+00 
3.2000000e+00 1.0000000e+00 0.0000000e+00 
3.0999999e+00 1.0000000e+00 0.0000000e+00 
3.0000000e+00 1.0000000e+00 0.0000000e+00 
2.9000001e+00 1.0000000e+00 0.0000000e+00 
2.8000000e+00 1.0000000e+00 0.0000000e+00 
2.7000000e+00 1.0000000e+00 0.0000000e+00 
2.5999999e+00 1.0000000e+00 0.0000000e+00 
2.5000000e+00 1.0000000e+00 0.0000000e+00 
2.4000001e+00 1.0000000e+00 0.0000000e+00 
2.3000000e+00 1.0000000e+00 0.0000000e+00 
2.2000000e+00 1.0000000e+00 0.0000000e+00 
2.0999999e+00 1.0000000e+00 0.0000000e+00 
2.0000000e+00 1.0000000e+00 0.0000000e+00 
1.9000000e+00 1.0000000e+00 0.0000000e+00 
1.8000000e+00 1.0000000e+00 0.0000000e+00 
1.7000000e+00 1.0000000e+00 0.0000000e+00 
1.6000000e+00 1.0000000e+00 0.0000000e+00 
1.5000000e+00 1.0000000e+00 0.0000000e+00 
1.4000000e+00 1.0000000e+00 0.0000000e+00 
1.3000000e+00 1.0000000e+00 0.0000000e+00 
1.2000000e+00 1.0000000e+00 0.0000000e+00 
1.1000000e+00 1.0000000e+00 0.0000000e+00 
1.0000000e+00 1.0000000e+00 0.0000000e+00 
8.9999998e-01 1.0000000e+00 0.0000000e+00 
8.0000001e-01 1.0000000e+00 0.0000000e+00 
6.9999999e-01 1.0000000e+00 0.0000000e+00 
6.0000002e-01 1.0000000e+00 0.0000000e+00 
5.0000000e-01 1.0000000e+00 0.0000000e+00 
4.0000001e-01 1.0000000e+00 0.0000000e+00 
3.0000001e-01 1.0000000e+00 0.0000000e+00 
2.0000000e-01 1.0000000e+00 0.0000000e+00 
1.0000000e-01 1.0000000e+00 0.0000000e+00 
0.0000000e+00 8.9999998e-01 0.0000000e+00 
0.0000000e+00 8.0000001e-01 0.0000000e+00 
0.0000000e+00 6.9999999e-01 0.0000000e+00 
0.0000000e+00 6.0000002e-01 0.0000000e+00 
0.0000000e+00 5.0000000e-01 0.0000000e+00 
0.0000000e+00 4.0000001e-01 0.0000000e+00 
0.0000000e+00 3.0000001e-01 0.0000000e+00 
0.0000000e+00 2.0000000e-01 0.0000000e+00 
0.0000000e+00 1.0000000e-01 0.0000000e+00 
4.3499999e+00 8.6602539e-02 0.0000000e+00 
2.2500000e+00 9.1339743e-01 0.0000000e+00 
4.0500002e+00 9.1339743e-01 0.0000000e+00 
2.7500000e+00 8.3308272e-02 0.0000000e+00 
3.2500000e+00 8.6602539e-02 0.0000000e+00 
3.7500000e+00 8.6602539e-02 0.0000000e+00 
1.2500000e+00 9.1339743e-01 0.0000000e+00 
1.7500000e+00 9.1339743e-01 0.0000000e+00 
9.4999999e-01 9.1339743e-01 0.0000000e+00 
5.5000001e-01 9.1339743e-01 0.0000000e+00 
7.5000000e-01 8.3308272e-02 0.0000000e+00 
1.4524696e+00 8.1907488e-02 0.0000000e+00 
1.9500000e+00 8.6602539e-02 0.0000000e+00 
3.4500000e+00 9.1339743e-01 0.0000000e+00 
2.9500000e+00 9.1339743e-01 0.0000000e+00 
2.4500000e+00 8.6602539e-02 0.0000000e+00 
4.4499998e+00 9.1339743e-01 0.0000000e+00 
2.6500001e+00 9.1339743e-01 0.0000000e+00 
1.1500000e+00 8.6602539e-02 0.0000000e+00 
4.0517640e+00 7.8262508e-02 0.0000000e+00 
3.7500000e+00 9.1339743e-01 0.0000000e+00 
9.5000088e-02 4.6391028e-01 0.0000000e+00 
4.9059730e+00 4.6363035e-01 0.0000000e+00 
4.5246965e-01 8.1907488e-02 0.0000000e+00 
4.6500001e+00 8.6602539e-02 0.0000000e+00 
4.6500001e+00 9.1339743e-01 0.0000000e+00 
7.5000000e-01 9.1339743e-01 0.0000000e+00 
4.9111457e+00 6.5092021e-01 0.0000000e+00 
2.2500000e+00 8.6602539e-02 0.0000000e+00 
3.2500000e+00 9.1339743e-01 0.0000000e+00 
9.4999999e-01 8.6602539e-02 0.0000000e+00 
2.9500000e+00 8.6602539e-02 0.0000000e+00 
3.4500000e+00 8.6602539e-02 0.0000000e+00 
2.4500000e+00 9.1339743e-01 0.0000000e+00 
1.9500000e+00 9.1339743e-01 0.0000000e+00 
1.5500000e+00 9.1339743e-01 0.0000000e+00 
1.6500000e+00 8.6602539e-02 0.0000000e+00 
3.4999999e-01 9.1339743e-01 0.0000000e+00 
9.0659410e-02 6.5153849e-01 0.0000000e+00 
4.2500000e+00 9.1339743e-01 0.0000000e+00 
2.5402120e-01 7.9592258e-02 0.0000000e+00 
4.9112749e+00 2.5204152e-01 0.0000000e+00 
8.6602539e-02 2.5000000e-01 0.0000000e+00 
4.9094305e+00 8.4081745e-01 0.0000000e+00 
9.0569727e-02 8.4081745e-01 0.0000000e+00 
4.8445559e+00 9.5495284e-02 0.0000000e+00 
3.9500000e+00 9.1339743e-01 0.0000000e+00 
4.0000000e+00 8.2679492e-01 0.0000000e+00 
4.0999999e+00 8.2679492e-01 0.0000000e+00 
4.0500002e+00 7.4019235e-01 0.0000000e+00 
4.1500001e+00 7.4019235e-01 0.0000000e+00 
4.0999999e+00 6.5358984e-01 0.0000000e+00 
4.1999998e+00 6.5358984e-01 0.0000000e+00 
4.0000000e+00 6.5358984e-01 0.0000000e+00 
4.1500001e+00 5.6698728e-01 0.0000000e+00 
4.2500000e+00 5.6698728e-01 0.0000000e+00 
4.1999998e+00 4.8038477e-01 0.0000000e+00 
4.3000002e+00 4.8038477e-01 0.0000000e+00 
4.3499999e+00 5.6698728e-01 0.0000000e+00 
4.4000001e+00 4.8038477e-01 0.0000000e+00 
4.4499998e+00 5.6698728e-01 0.0000000e+00 
4.5000000e+00 4.8038477e-01 0.0000000e+00 
4.0999999e+00 4.8038477e-01 0.0000000e+00 
4.5500002e+00 5.6698728e-01 0.0000000e+00 
4.2500000e+00 3.9378223e-01 0.0000000e+00 
4.4499998e+00 3.9378223e-01 0.0000000e+00 
4.5500002e+00 3.9378223e-01 0.0000000e+00 
4.5024695e+00 3.0860552e-01 0.0000000e+00 
4.5000000e+00 6.5358984e-01 0.0000000e+00 
4.5999999e+00 6.5358984e-01 0.0000000e+00 
4.6500001e+00 5.6698728e-01 0.0000000e+00 
4.6004114e+00 3.0741730e-01 0.0000000e+00 
4.6999998e+00 6.5358984e-01 0.0000000e+00 
4.5500002e+00 7.4019235e-01 0.0000000e+00 
4.4499998e+00 7.4019235e-01 0.0000000e+00 
4.4028811e+00 3.1213742e-01 0.0000000e+00 
3.9000001e+00 8.2679492e-01 0.0000000e+00 
4.2500000e+00 7.4019235e-01 0.0000000e+00 
4.6500688e+00 3.9382184e-01 0.0000000e+00 
4.7000799e+00 3.0722588e-01 0.0000000e+00 
4.7507491e+00 5.6669539e-01 0.0000000e+00 
4.5510750e+00 2.2357146e-01 0.0000000e+00 
4.7483096e+00 3.9479813e-01 0.0000000e+00 
4.8143229e+00 3.0351433e-01 0.0000000e+00 
4.7489839e+00 2.2150035e-01 0.0000000e+00 
4.8026423e+00 6.5280432e-01 0.0000000e+00 
4.7504406e+00 7.4006146e-01 0.0000000e+00 
4.8507943e+00 7.4260241e-01 0.0000000e+00 
4.8009601e+00 8.2998371e-01 0.0000000e+00 
4.8518200e+00 5.6202388e-01 0.0000000e+00 
4.8002234e+00 4.7973469e-01 0.0000000e+00 
4.7002335e+00 8.2730454e-01 0.0000000e+00 
4.6500239e+00 2.2246142e-01 0.0000000e+00 
4.5000000e+00 8.2679492e-01 0.0000000e+00 
4.4000001e+00 8.2679492e-01 0.0000000e+00 
4.6000390e+00 8.2687986e-01 0.0000000e+00 
4.6501188e+00 7.4026966e-01 0.0000000e+00 
4.1999998e+00 8.2679492e-01 0.0000000e+00 
4.1500001e+00 9.1339743e-01 0.0000000e+00 
4.1500001e+00 3.9378223e-01 0.0000000e+00 
4.0500002e+00 3.9378223e-01 0.0000000e+00 
4.1999998e+00 3.0717969e-01 0.0000000e+00 
4.0000000e+00 4.8038477e-01 0.0000000e+00 
3.9500000e+00 3.9378223e-01 0.0000000e+00 
3.9000001e+00 4.8038477e-01 0.0000000e+00 
3.8499999e+00 3.9378223e-01 0.0000000e+00 
3.8000000e+00 4.8038477e-01 0.0000000e+00 
3.7500000e+00 3.9378223e-01 0.0000000e+00 
3.7000000e+00 4.8038477e-01 0.0000000e+00 
3.6500001e+00 3.9378223e-01 0.0000000e+00 
[...]
POINT_DATA 663
FIELD FieldData 2
DISPLACEMENT 3 663  float
0.0000000e+00 0.0000000e+00 0.0000000e+00 
0.0000000e+00 0.0000000e+00 0.0000000e+00 
0.0000000e+00 -3.3744295e-06 0.0000000e+00 
0.0000000e+00 -1.8109745e-08 0.0000000e+00 
0.0000000e+00 0.0000000e+00 0.0000000e+00 
0.0000000e+00 0.0000000e+00 0.0000000e+00 
0.0000000e+00 0.0000000e+00 0.0000000e+00 
0.0000000e+00 0.0000000e+00 0.0000000e+00 
0.0000000e+00 0.0000000e+00 0.0000000e+00 
0.0000000e+00 0.0000000e+00 0.0000000e+00 
0.0000000e+00 0.0000000e+00 0.0000000e+00 
0.0000000e+00 0.0000000e+00 0.0000000e+00 
0.0000000e+00 0.0000000e+00 0.0000000e+00 
0.0000000e+00 0.0000000e+00 0.0000000e+00 
0.0000000e+00 0.0000000e+00 0.0000000e+00 
0.0000000e+00 0.0000000e+00 0.0000000e+00 
0.0000000e+00 0.0000000e+00 0.0000000e+00 
0.0000000e+00 0.0000000e+00 0.0000000e+00 
0.0000000e+00 0.0000000e+00 0.0000000e+00 
0.0000000e+00 0.0000000e+00 0.0000000e+00 
0.0000000e+00 0.0000000e+00 0.0000000e+00 
0.0000000e+00 0.0000000e+00 0.0000000e+00 
0.0000000e+00 0.0000000e+00 0.0000000e+00 
0.0000000e+00 0.0000000e+00 0.0000000e+00 
0.0000000e+00 0.0000000e+00 0.0000000e+00 
0.0000000e+00 0.0000000e+00 0.0000000e+00 
0.0000000e+00 0.0000000e+00 0.0000000e+00 
0.0000000e+00 0.0000000e+00 0.0000000e+00 
0.0000000e+00 0.0000000e+00 0.0000000e+00 
0.0000000e+00 0.0000000e+00 0.0000000e+00 
0.0000000e+00 0.0000000e+00 0.0000000e+00 
0.0000000e+00 0.0000000e+00 0.0000000e+00 
0.0000000e+00 0.0000000e+00 0.0000000e+00 
0.0000000e+00 0.0000000e+00 0.0000000e+00 
0.0000000e+00 0.0000000e+00 0.0000000e+00 
0.0000000e+00 0.0000000e+00 0.0000000e+00 
0.0000000e+00 0.0000000e+00 0.0000000e+00 
0.0000000e+00 0.0000000e+00 0.0000000e+00 
0.0000000e+00 0.0000000e+00 0.0000000e+00 
0.0000000e+00 0.0000000e+00 0.0000000e+00 
0.0000000e+00 0.0000000e+00 0.0000000e+00 
0.0000000e+00 0.0000000e+00 0.0000000e+00 
0.0000000e+00 0.0000000e+00 0.0000000e+00 
0.0000000e+00 0.0000000e+00 0.0000000e+00 
0.0000000e+00 0.0000000e+00 0.0000000e+00 
0.0000000e+00 0.0000000e+00 0.0000000e+00 
0.0000000e+00 0.0000000e+00 0.0000000e+00 
0.0000000e+00 0.0000000e+00 0.0000000e+00 
0.0000000e+00 0.0000000e+00 0.0000000e+00 
0.0000000e+00 0.0000000e+00 0.0000000e+00 
0.0000000e+00 0.0000000e+00 0.0000000e+00 
0.0000000e+00 0.0000000e+00 0.0000000e+00 
0.0000000e+00 0.0000000e+00 0.0000000e+00 
0.0000000e+00 -1.5873516e-07 0.0000000e+00 
0.0000000e+00 -3.2990241e-07 0.0000000e+00 
0.0000000e+00 -5.1618576e-07 0.0000000e+00 
0.0000000e+00 -7.2299150e-07 0.0000000e+00 
0.0000000e+00 -9.5981773e-07 0.0000000e+00 
0.0000000e+00 -1.2391481e-06 0.0000000e+00 
0.0000000e+00 -1.5721387e-06 0.0000000e+00 
0.0000000e+00 -2.0042924e-06 0.0000000e+00 
0.0000000e+00 -2.5687932e-06 0.0000000e+00 
3.8079054e-07 -2.6403175e-06 0.0000000e+00 
4.8985044e-07 -1.5970065e-06 0.0000000e+00 
4.5483412e-07 -1.0910876e-06 0.0000000e+00 
3.8729368e-07 -7.4225619e-07 0.0000000e+00 
3.0421253e-07 -5.0281324e-07 0.0000000e+00 
2.2502316e-07 -3.5642321e-07 0.0000000e+00 
1.6061139e-07 -2.7719744e-07 0.0000000e+00 
1.1800373e-07 -2.3890576e-07 0.0000000e+00 
9.6089927e-08 -2.0733026e-07 0.0000000e+00 
7.9484224e-08 -1.6069575e-07 0.0000000e+00 
5.2832835e-08 -1.1092632e-07 0.0000000e+00 
1.8280083e-08 -8.6103213e-08 0.0000000e+00 
-7.2821824e-09 -9.5957517e-08 0.0000000e+00 
-1.0606925e-08 -1.2027546e-07 0.0000000e+00 
4.2078714e-09 -1.2863219e-07 0.0000000e+00 
1.9849647e-08 -1.0947985e-07 0.0000000e+00 
2.3117810e-08 -7.8565641e-08 0.0000000e+00 
1.6364385e-08 -5.8432072e-08 0.0000000e+00 
1.1496954e-08 -5.5610105e-08 0.0000000e+00 
1.6972701e-08 -5.8551390e-08 0.0000000e+00 
3.0508026e-08 -5.0135053e-08 0.0000000e+00 
4.1364000e-08 -2.4570703e-08 0.0000000e+00 
4.0859792e-08 8.3260465e-09 0.0000000e+00 
2.7596549e-08 3.3857482e-08 0.0000000e+00 
7.6009350e-09 3.9020559e-08 0.0000000e+00 
-7.7498958e-09 2.3503729e-08 0.0000000e+00 
-1.1035022e-08 2.3358235e-10 0.0000000e+00 
-4.0403236e-09 -1.0798193e-08 0.0000000e+00 
1.5992503e-09 -4.8841686e-09 0.0000000e+00 
-1.0293238e-09 2.7171481e-09 0.0000000e+00 
-6.4534271e-09 -4.9906497e-09 0.0000000e+00 
-4.5931019e-09 -2.5580100e-08 0.0000000e+00 
7.8913143e-09 -4.4325866e-08 0.0000000e+00 
2.6515911e-08 -4.7359421e-08 0.0000000e+00 
4.3128036e-08 -2.7423596e-08 0.0000000e+00 
4.5108635e-08 9.0947392e-09 0.0000000e+00 
3.0206568e-08 3.4836336e-08 0.0000000e+00 
1.1020306e-08 3.4299489e-08 0.0000000e+00 
-6.8392692e-10 1.5744998e-08 0.0000000e+00 
-1.8867936e-09 -7.5468929e-09 0.0000000e+00 
4.7474513e-09 -1.9505848e-08 0.0000000e+00 
7.3658346e-09 -1.3857728e-08 0.0000000e+00 
1.1959425e-09 -7.3622481e-09 0.0000000e+00 
-8.2909599e-09 -8.2743430e-09 0.0000000e+00 
-1.5288267e-08 -2.3556376e-08 0.0000000e+00 
-1.0444403e-08 -4.0848565e-08 0.0000000e+00 
-1.1026622e-09 -4.9480512e-08 0.0000000e+00 
9.5594279e-09 -4.1571504e-08 0.0000000e+00 
9.5495558e-09 -2.9084616e-08 0.0000000e+00 
0.0000000e+00 -1.9632973e-08 0.0000000e+00 
0.0000000e+00 -2.0842030e-08 0.0000000e+00 
0.0000000e+00 -2.0112497e-08 0.0000000e+00 
0.0000000e+00 -1.9270466e-08 0.0000000e+00 
0.0000000e+00 -1.6815704e-08 0.0000000e+00 
0.0000000e+00 -1.3990022e-08 0.0000000e+00 
0.0000000e+00 -1.0652638e-08 0.0000000e+00 
0.0000000e+00 -6.8630790e-09 0.0000000e+00 
0.0000000e+00 -3.5210361e-09 0.0000000e+00 
-5.7255736e-08 -5.8679120e-08 0.0000000e+00 
-1.8811397e-09 -7.4097755e-09 0.0000000e+00 
4.9521066e-08 -1.8008632e-07 0.0000000e+00 
-1.0937817e-08 -1.7924493e-09 0.0000000e+00 
-1.1163612e-08 -1.2494429e-08 0.0000000e+00 
-2.1738549e-08 -2.1628296e-08 0.0000000e+00 
1.8561684e-08 3.8524316e-08 0.0000000e+00 
9.7531005e-09 -3.7661152e-08 0.0000000e+00 
8.6936875e-09 -1.6050315e-08 0.0000000e+00 
-4.2154280e-09 -1.3175750e-08 0.0000000e+00 
3.4608667e-09 -1.5268242e-09 0.0000000e+00 
-3.4467855e-09 -2.8495237e-09 0.0000000e+00 
4.4985113e-09 3.3466940e-10 0.0000000e+00 
9.6770636e-10 -1.2223347e-07 0.0000000e+00 
1.3466240e-08 -5.7751432e-08 0.0000000e+00 
5.2059584e-10 -2.0507078e-09 0.0000000e+00 
1.3177664e-07 -4.1075063e-07 0.0000000e+00 
1.9096289e-08 2.4026230e-08 0.0000000e+00 
3.1599621e-09 1.0719774e-09 0.0000000e+00 
-3.3525637e-08 -2.6528971e-08 0.0000000e+00 
1.3771155e-09 -8.3954568e-08 0.0000000e+00 
7.2202372e-10 -1.9296532e-08 0.0000000e+00 
-7.4101685e-08 -8.4115499e-07 0.0000000e+00 
5.7681127e-09 -3.0317937e-09 0.0000000e+00 
-5.5890514e-08 -1.0345910e-07 0.0000000e+00 
1.4455107e-07 -8.9154065e-07 0.0000000e+00 
3.8185886e-09 -8.3112237e-09 0.0000000e+00 
-9.7906870e-08 -1.3372382e-06 0.0000000e+00 
2.8284908e-09 -1.7215712e-09 0.0000000e+00 
5.4210108e-09 -6.5665063e-08 0.0000000e+00 
3.9320418e-09 -1.6339912e-09 0.0000000e+00 
-1.4005940e-08 -8.0974862e-09 0.0000000e+00 
-1.5155099e-08 -1.4112066e-08 0.0000000e+00 
5.2721449e-09 3.4929919e-08 0.0000000e+00 
7.3835077e-10 4.7201476e-10 0.0000000e+00 
2.3733849e-08 -4.1147565e-08 0.0000000e+00 
-2.3050689e-10 -8.0394278e-09 0.0000000e+00 
-4.5421017e-10 -4.7190749e-08 0.0000000e+00 
1.4860227e-09 -2.4927205e-08 0.0000000e+00 
8.7100595e-08 -2.4798342e-07 0.0000000e+00 
2.4134028e-09 -4.3817927e-09 0.0000000e+00 
-4.2973777e-08 -4.1529785e-07 0.0000000e+00 
8.0710777e-10 -9.9923954e-09 0.0000000e+00 
-1.0231327e-07 -2.0216942e-06 0.0000000e+00 
2.0115307e-09 -2.5205107e-08 0.0000000e+00 
-3.3789011e-08 -1.4077533e-07 0.0000000e+00 
3.1986989e-08 -1.2859829e-07 0.0000000e+00 
3.9525498e-09 -1.4663557e-07 0.0000000e+00 
1.6421463e-08 -1.9168232e-07 0.0000000e+00 
-2.8054252e-08 -1.5890224e-07 0.0000000e+00 
-2.3322803e-08 -1.9941798e-07 0.0000000e+00 
-6.2242883e-08 -1.6638673e-07 0.0000000e+00 
-6.7467873e-08 -2.0818480e-07 0.0000000e+00 
-5.8897424e-08 -1.2684481e-07 0.0000000e+00 
-9.5051035e-08 -1.7177844e-07 0.0000000e+00 
-1.0909957e-07 -2.1879892e-07 0.0000000e+00 
-1.2129284e-07 -1.7546711e-07 0.0000000e+00 
-1.4020537e-07 -2.2751421e-07 0.0000000e+00 
-1.2973187e-07 -2.8514668e-07 0.0000000e+00 
-1.6137548e-07 -3.0036676e-07 0.0000000e+00 
-1.5530436e-07 -3.8381060e-07 0.0000000e+00 
-1.8009455e-07 -4.0005199e-07 0.0000000e+00 
-1.0534961e-07 -1.3617610e-07 0.0000000e+00 
-1.8051126e-07 -5.2017646e-07 0.0000000e+00 
-1.3569985e-07 -1.7466402e-07 0.0000000e+00 
-1.7109612e-07 -2.9855133e-07 0.0000000e+00 
-1.7891441e-07 -3.8688202e-07 0.0000000e+00 
-1.5947063e-07 -2.7631268e-07 0.0000000e+00 
-1.3819358e-07 -4.7870361e-07 0.0000000e+00 
-1.7260525e-07 -6.6193155e-07 0.0000000e+00 
-1.9551292e-07 -6.8835192e-07 0.0000000e+00 
-1.5645470e-07 -3.4266824e-07 0.0000000e+00 
-1.9279744e-07 -8.9122113e-07 0.0000000e+00 
-1.0184613e-07 -5.8845853e-07 0.0000000e+00 
-6.4591937e-08 -4.1484785e-07 0.0000000e+00 
-1.5142795e-07 -2.1794717e-07 0.0000000e+00 
-5.0031610e-09 -1.0193362e-07 0.0000000e+00 
-2.5099103e-08 -2.4041648e-07 0.0000000e+00 
-1.7212548e-07 -4.8590306e-07 0.0000000e+00 
-1.3818465e-07 -4.1201190e-07 0.0000000e+00 
-1.8484052e-07 -8.7017128e-07 0.0000000e+00 
-1.3025603e-07 -2.2654537e-07 0.0000000e+00 
-1.4700906e-07 -5.8094275e-07 0.0000000e+00 
-9.6960939e-08 -4.7304513e-07 0.0000000e+00 
-9.8453150e-08 -3.1184226e-07 0.0000000e+00 
-1.7497510e-07 -1.1385681e-06 0.0000000e+00 
-1.6909411e-07 -1.1512110e-06 0.0000000e+00 
-1.5308768e-07 -1.4794845e-06 0.0000000e+00 
-1.1106032e-07 -1.4912839e-06 0.0000000e+00 
-1.3386716e-07 -1.0169723e-06 0.0000000e+00 
-1.4543207e-07 -7.8260473e-07 0.0000000e+00 
-6.2179815e-08 -1.0524903e-06 0.0000000e+00 
-1.2065217e-07 -2.7126330e-07 0.0000000e+00 
9.1187307e-09 -4.9445902e-07 0.0000000e+00 
2.5920794e-08 -3.4997046e-07 0.0000000e+00 
-2.0520403e-08 -7.2365867e-07 0.0000000e+00 
-1.4183324e-07 -8.3594296e-07 0.0000000e+00 
2.7126241e-08 -2.2612944e-07 0.0000000e+00 
6.7247221e-08 -2.1821413e-07 0.0000000e+00 
-1.1759222e-07 -1.3476205e-07 0.0000000e+00 
-1.0029431e-07 -1.0537315e-07 0.0000000e+00 
-1.1821611e-07 -1.2687092e-07 0.0000000e+00 
-8.9706688e-08 -1.0642754e-07 0.0000000e+00 
-8.2629995e-08 -8.6496264e-08 0.0000000e+00 
-7.2135606e-08 -8.8049184e-08 0.0000000e+00 
-6.5211957e-08 -7.7804636e-08 0.0000000e+00 
-5.4351567e-08 -8.1849983e-08 0.0000000e+00 
-5.1013878e-08 -7.5487549e-08 0.0000000e+00 
-4.1198074e-08 -8.2959573e-08 0.0000000e+00 
-4.3058975e-08 -7.3345866e-08 0.0000000e+00 
-3.6306169e-08 -8.3006427e-08 0.0000000e+00 
-4.1496751e-08 -6.7219879e-08 0.0000000e+00 
-3.8546446e-08 -7.6676407e-08 0.0000000e+00 
-4.3094012e-08 -5.8073017e-08 0.0000000e+00 
-4.2664219e-08 -6.5731030e-08 0.0000000e+00 
-4.3480373e-08 -5.0781058e-08 0.0000000e+00 
-4.3591051e-08 -5.6598086e-08 0.0000000e+00 
-4.0913690e-08 -4.8048836e-08 0.0000000e+00 
-4.0042838e-08 -5.3129558e-08 0.0000000e+00 
-3.6091809e-08 -4.8202047e-08 0.0000000e+00 
-3.4309473e-08 -5.2522211e-08 0.0000000e+00 
-3.2000077e-08 -4.5720356e-08 0.0000000e+00 
-2.9586946e-08 -4.7618762e-08 0.0000000e+00 
-2.9905308e-08 -3.6138854e-08 0.0000000e+00 
-2.7186816e-08 -3.4213393e-08 0.0000000e+00 
-2.8816881e-08 -2.0106897e-08 0.0000000e+00 
-2.6022954e-08 -1.4805265e-08 0.0000000e+00 
-2.6861464e-08 -3.2440002e-09 0.0000000e+00 
-2.3535875e-08 4.0228496e-09 0.0000000e+00 
-2.2188756e-08 8.5507583e-09 0.0000000e+00 
-1.7957067e-08 1.5679277e-08 0.0000000e+00 
-1.4465598e-08 1.2260521e-08 0.0000000e+00 
-9.8323376e-09 1.7088396e-08 0.0000000e+00 
-5.3804938e-09 8.5539513e-09 0.0000000e+00 
-1.2514387e-09 1.0706721e-08 0.0000000e+00 
2.5730140e-09 2.1803146e-09 0.0000000e+00 
5.2325682e-09 2.6583693e-09 0.0000000e+00 
8.1212574e-09 -2.0457891e-09 0.0000000e+00 
8.3140419e-09 -2.0221842e-09 0.0000000e+00 
1.0556478e-08 -2.4084528e-09 0.0000000e+00 
8.9141272e-09 -3.0115064e-09 0.0000000e+00 
1.0610663e-08 -2.0593010e-09 0.0000000e+00 
8.4525364e-09 -5.5767151e-09 0.0000000e+00 
9.3090327e-09 -6.6964883e-09 0.0000000e+00 
7.4717619e-09 -1.4583122e-08 0.0000000e+00 
7.0281141e-09 -1.7440122e-08 0.0000000e+00 
6.0042487e-09 -2.6779016e-08 0.0000000e+00 
4.1905848e-09 -2.7992838e-08 0.0000000e+00 
4.0057269e-09 -3.3928242e-08 0.0000000e+00 
1.0123061e-09 -3.0160709e-08 0.0000000e+00 
1.5297064e-09 -3.0166646e-08 0.0000000e+00 
-2.1572195e-09 -2.1401251e-08 0.0000000e+00 
-7.1095041e-10 -1.5842865e-08 0.0000000e+00 
-3.5090986e-09 -6.5664403e-09 0.0000000e+00 
-4.8339621e-10 1.9762210e-09 0.0000000e+00 
-1.1584210e-09 6.3218497e-09 0.0000000e+00 
3.2417740e-09 1.3331162e-08 0.0000000e+00 
3.9223611e-09 1.1153318e-08 0.0000000e+00 
8.1314777e-09 1.2446105e-08 0.0000000e+00 
8.5442631e-09 6.4491967e-09 0.0000000e+00 
1.1975041e-08 2.7563887e-09 0.0000000e+00 
1.1050536e-08 -2.4449647e-09 0.0000000e+00 
1.4678341e-08 -6.1088352e-09 0.0000000e+00 
1.2627654e-08 -7.5064124e-09 0.0000000e+00 
1.6277401e-08 -8.3875440e-09 0.0000000e+00 
1.4647739e-08 -7.0256307e-09 0.0000000e+00 
1.6967814e-08 -6.2457088e-09 0.0000000e+00 
1.7097257e-08 -5.3287090e-09 0.0000000e+00 
1.7960435e-08 -4.6393662e-09 0.0000000e+00 
1.9536602e-08 -6.0246887e-09 0.0000000e+00 
1.8830745e-08 -8.9282386e-09 0.0000000e+00 
2.0171797e-08 -1.1097526e-08 0.0000000e+00 
1.7306554e-08 -1.9977911e-08 0.0000000e+00 
1.7019342e-08 -1.9910807e-08 0.0000000e+00 
-3.0265099e-08 -9.1261285e-08 0.0000000e+00 
-3.8842391e-08 -7.0247623e-08 0.0000000e+00 
-2.8294354e-08 -5.4216166e-08 0.0000000e+00 
-2.1547171e-08 -6.5465571e-09 0.0000000e+00 
-1.1335031e-08 2.2971806e-08 0.0000000e+00 
2.9353822e-09 1.0569231e-08 0.0000000e+00 
5.9469460e-09 -4.8519793e-09 0.0000000e+00 
6.8514603e-09 -2.2480872e-08 0.0000000e+00 
5.7156742e-09 -3.6187000e-08 0.0000000e+00 
4.2728869e-09 1.1919694e-08 0.0000000e+00 
1.5658706e-08 -1.2984265e-09 0.0000000e+00 
1.6390356e-08 -8.5521039e-09 0.0000000e+00 
1.5516227e-08 -5.3796048e-09 0.0000000e+00 
1.3453803e-08 -3.0510019e-08 0.0000000e+00 
1.3508671e-08 -2.9254794e-08 0.0000000e+00 
1.1251666e-08 -2.6343889e-08 0.0000000e+00 
1.8404831e-08 -6.4496199e-09 0.0000000e+00 
2.2857945e-10 6.8271424e-09 0.0000000e+00 
5.6206355e-09 -1.8494081e-08 0.0000000e+00 
1.0915738e-08 -7.2730183e-10 0.0000000e+00 
-1.6851095e-08 7.0746364e-09 0.0000000e+00 
-3.0957999e-08 -4.0831239e-08 0.0000000e+00 
-4.2589644e-08 -5.7764954e-08 0.0000000e+00 
-6.9340274e-08 -7.0036712e-08 0.0000000e+00 
9.8675077e-09 -3.8086714e-08 0.0000000e+00 
9.1780752e-09 -3.7219074e-08 0.0000000e+00 
1.4257056e-08 -1.6233924e-08 0.0000000e+00 
1.0320365e-08 -7.0076269e-09 0.0000000e+00 
8.6868228e-09 1.8555401e-09 0.0000000e+00 
-2.0258981e-09 -2.2944526e-08 0.0000000e+00 
5.0196036e-10 7.8727774e-10 0.0000000e+00 
-2.9812462e-08 -2.2595742e-08 0.0000000e+00 
-3.9529020e-08 -4.2632561e-08 0.0000000e+00 
6.6579910e-09 -4.3404253e-08 0.0000000e+00 
8.4769649e-09 -1.9282695e-08 0.0000000e+00 
1.0728785e-08 -2.3195911e-08 0.0000000e+00 
-5.6353848e-08 -8.6066088e-08 0.0000000e+00 
6.5693273e-09 -3.1432212e-08 0.0000000e+00 
6.3877748e-09 -1.4857246e-08 0.0000000e+00 
5.2044800e-09 -3.7440582e-08 0.0000000e+00 
9.5934771e-09 -1.1690459e-08 0.0000000e+00 
5.6678298e-09 -2.5924180e-08 0.0000000e+00 
1.3312449e-08 -9.0443049e-09 0.0000000e+00 
5.3055600e-09 -1.2398072e-08 0.0000000e+00 
4.1437151e-09 -3.7094750e-08 0.0000000e+00 
4.9026752e-09 -4.4036668e-08 0.0000000e+00 
2.1189628e-09 -3.3302452e-08 0.0000000e+00 
2.4897961e-09 -4.1525762e-08 0.0000000e+00 
1.8997217e-09 -2.8623253e-08 0.0000000e+00 
2.9333347e-09 -1.6651828e-08 0.0000000e+00 
6.1780634e-09 -4.4546880e-08 0.0000000e+00 
-1.0156658e-07 -9.8583612e-08 0.0000000e+00 
-9.2315652e-08 -8.5651983e-08 0.0000000e+00 
-1.0842679e-07 -1.1388791e-07 0.0000000e+00 
-7.9036852e-08 -6.8973264e-08 0.0000000e+00 
-7.5966412e-08 -6.9640016e-08 0.0000000e+00 
9.3813108e-09 -4.6664681e-09 0.0000000e+00 
7.9328970e-09 -7.0700318e-10 0.0000000e+00 
6.4788077e-09 3.7302454e-09 0.0000000e+00 
7.5133606e-09 -4.8591695e-09 0.0000000e+00 
8.3789020e-09 -5.6672071e-09 0.0000000e+00 
1.4718705e-07 -5.9918045e-07 0.0000000e+00 
-6.0791301e-08 -8.8278284e-08 0.0000000e+00 
-5.8668839e-08 -7.0145290e-08 0.0000000e+00 
-9.8200324e-08 -1.1952963e-07 0.0000000e+00 
-1.5482735e-07 -2.2862143e-07 0.0000000e+00 
1.0461712e-07 -1.3010688e-06 0.0000000e+00 
8.4385281e-09 1.8180170e-08 0.0000000e+00 
9.5143040e-09 2.1308567e-08 0.0000000e+00 
6.6395560e-09 5.1891531e-09 0.0000000e+00 
1.3300135e-08 1.9972227e-08 0.0000000e+00 
1.1208417e-08 1.8914601e-08 0.0000000e+00 
1.0170163e-08 -7.4459310e-09 0.0000000e+00 
6.7209966e-09 -1.8804132e-08 0.0000000e+00 
1.1682113e-08 -3.2565502e-08 0.0000000e+00 
1.5657674e-08 8.5214502e-09 0.0000000e+00 
1.4074006e-08 2.8265735e-08 0.0000000e+00 
1.6569409e-08 1.8727242e-08 0.0000000e+00 
1.6262057e-08 7.2498141e-09 0.0000000e+00 
1.7557513e-08 1.7113327e-09 0.0000000e+00 
1.6163945e-08 1.3569789e-08 0.0000000e+00 
1.7452782e-08 -5.6820366e-09 0.0000000e+00 
1.5609801e-08 -1.1487198e-08 0.0000000e+00 
1.5656486e-08 -1.1049318e-08 0.0000000e+00 
1.1412553e-08 -1.2227495e-08 0.0000000e+00 
1.2874524e-08 -7.4862045e-09 0.0000000e+00 
8.2857952e-09 -5.4779452e-09 0.0000000e+00 
1.1417177e-08 -3.5548109e-09 0.0000000e+00 
-1.2650834e-08 -1.2772643e-08 0.0000000e+00 
-2.1882983e-08 -2.3628720e-08 0.0000000e+00 
-2.0584961e-08 -2.4391134e-08 0.0000000e+00 
-2.8967015e-08 -3.3078628e-08 0.0000000e+00 
-2.5294121e-08 -2.4901508e-08 0.0000000e+00 
-2.7673030e-08 -2.7250094e-08 0.0000000e+00 
1.5453191e-08 -4.7286899e-09 0.0000000e+00 
7.2324222e-09 -1.7320543e-08 0.0000000e+00 
-8.9086954e-10 -5.2450324e-09 0.0000000e+00 
1.7132635e-08 -8.5853351e-09 0.0000000e+00 
2.3235514e-09 -2.5614664e-09 0.0000000e+00 
5.3022879e-09 -3.7585668e-09 0.0000000e+00 
6.4689312e-09 -1.8709534e-09 0.0000000e+00 
7.9730462e-09 -3.7802064e-09 0.0000000e+00 
-5.3034331e-08 -6.0086325e-07 0.0000000e+00 
1.0961699e-07 -3.0190262e-07 0.0000000e+00 
1.7102577e-08 -4.9541235e-08 0.0000000e+00 
1.4588140e-08 -4.3824326e-08 0.0000000e+00 
1.0776048e-08 -2.8168198e-08 0.0000000e+00 
1.2053694e-08 -3.6250295e-08 0.0000000e+00 
8.6029432e-09 -2.0936579e-08 0.0000000e+00 
-3.4340477e-08 -8.4670162e-08 0.0000000e+00 
-2.8685504e-08 -8.8564953e-08 0.0000000e+00 
-3.1102434e-08 -6.9932305e-08 0.0000000e+00 
-2.3453921e-08 -1.0265781e-07 0.0000000e+00 
-2.0579254e-08 -8.6028074e-08 0.0000000e+00 
-1.9817373e-08 -6.5210713e-08 0.0000000e+00 
-2.8779564e-08 -5.8687938e-08 0.0000000e+00 
-1.5954264e-08 -5.6829705e-08 0.0000000e+00 
6.3888845e-09 -4.8458482e-09 0.0000000e+00 
1.2502666e-08 1.0701201e-08 0.0000000e+00 
-1.3617556e-07 -1.6772643e-07 0.0000000e+00 
-3.8435535e-09 -6.8172201e-10 0.0000000e+00 
-2.5341877e-09 1.7392994e-09 0.0000000e+00 
-4.8942432e-09 -5.9049672e-09 0.0000000e+00 
4.5257003e-09 -9.3594899e-08 0.0000000e+00 
1.1314644e-10 1.2599119e-08 0.0000000e+00 
2.8642200e-09 3.3216530e-09 0.0000000e+00 
-2.7356517e-10 -8.2039424e-09 0.0000000e+00 
3.0428828e-09 -1.3588454e-09 0.0000000e+00 
3.8997655e-10 -6.2542260e-09 0.0000000e+00 
4.8058397e-09 1.4087536e-08 0.0000000e+00 
-1.4067170e-09 -5.3262847e-09 0.0000000e+00 
2.8822400e-10 -3.9452841e-09 0.0000000e+00 
3.9054546e-09 -3.0876495e-09 0.0000000e+00 
5.2504165e-09 2.4710692e-08 0.0000000e+00 
6.4354375e-09 3.8798962e-08 0.0000000e+00 
3.4590557e-09 3.0635551e-08 0.0000000e+00 
-1.8771840e-10 3.3950741e-08 0.0000000e+00 
6.5525652e-09 3.2927666e-08 0.0000000e+00 
-3.9839718e-09 1.9304903e-08 0.0000000e+00 
6.1756884e-09 8.0920390e-09 0.0000000e+00 
-6.3964856e-09 -7.9511073e-09 0.0000000e+00 
5.1710773e-09 -2.4120975e-08 0.0000000e+00 
-7.6230915e-09 -3.6016814e-08 0.0000000e+00 
3.3793506e-09 -4.9409270e-08 0.0000000e+00 
-8.7688328e-09 -5.3259182e-08 0.0000000e+00 
-1.7253939e-08 -4.3060751e-08 0.0000000e+00 
7.4557099e-10 -5.8431350e-08 0.0000000e+00 
-1.1527848e-08 -5.7096184e-08 0.0000000e+00 
8.2348146e-09 -5.8188537e-08 0.0000000e+00 
1.9002515e-08 -4.0009567e-08 0.0000000e+00 
1.2726736e-08 4.1171116e-08 0.0000000e+00 
-4.1119289e-08 -5.0267023e-08 0.0000000e+00 
-1.7871971e-08 1.3399399e-08 0.0000000e+00 
-2.7997502e-09 -6.2031575e-09 0.0000000e+00 
-2.4213327e-09 -1.4521487e-08 0.0000000e+00 
1.6282387e-09 -1.4522130e-08 0.0000000e+00 
-4.8319273e-09 -1.0697411e-07 0.0000000e+00 