# vtk DataFile Version 4.0
vtk output
ASCII
DATASET UNSTRUCTURED_GRID
POINTS 663 float
0.0000000e+00 0.0000000e+00 0.0000000e+00 
5.0000000e+00 0.0000000e+00 0.0000000e+00 
5.0000000e+00 1.0000000e+00 0.0000000e+00 
0.0000000e+00 1.0000000e+00 0.0000000e+00 
1.0000000e-01 0.0000000e+00 0.0000000e+00 
2.0000000e-01 0.0000000e+00 0.0000000e+00 
3.0000001e-01 0.0000000e+00 0.0000000e+00 
4.0000001e-01 0.0000000e+00 0.0000000e+00 
5.0000000e-01 0.0000000e+00 0.0000000e+00 
6.0000002e-01 0.0000000e+00 0.0000000e+00 
6.9999999e-01 0.0000000e+00 0.0000000e+00 
8.0000001e-01 0.0000000e+00 0.0000000e+00 
8.9999998e-01 0.0000000e+00 0.0000000e+00 
1.0000000e+00 0.0000000e+00 0.0000000e+00 
1.1000000e+00 0.0000000e+00 0.0000000e+00 
1.2000000e+00 0.0000000e+00 0.0000000e+00 
1.3000000e+00 0.0000000e+00 0.0000000e+00 
1.4000000e+00 0.0000000e+00 0.0000000e+00 
1.5000000e+00 0.0000000e+00 0.0000000e+00 
1.6000000e+00 0.0000000e+00 0.0000000e+00 
1.7000000e+00 0.0000000e+00 0.0000000e+00 
1.8000000e+00 0.0000000e+00 0.0000000e+00 
1.9000000e+00 0.0000000e+00 0.0000000e+00 
2.0000000e+00 0.0000000e+00 0.0000000e+00 
2.0999999e+00 0.0000000e+00 0.0000000e+00 
2.2000000e+00 0.0000000e+00 0.0000000e+00 
2.3000000e+00 0.0000000e+00 0.0000000e+00 
2.4000001e+00 0.0000000e+00 0.0000000e+00 
2.5000000e+00 0.0000000e+00 0.0000000e+00 
2.5999999e+00 0.0000000e+00 0.0000000e+00 
2.7000000e+00 0.0000000e+00 0.0000000e+00 
2.8000000e+00 0.0000000e+00 0.0000000e+00 
2.9000001e+00 0.0000000e+00 0.0000000e+00 
3.0000000e+00 0.0000000e+00 0.0000000e+00 
3.0999999e+00 0.0000000e+00 0.0000000e+00 
3.2000000e+00 0.0000000e+00 0.0000000e+00 
3.3000000e+00 0.0000000e+00 0.0000000e+00 
3.4000001e+00 0.0000000e+00 0.0000000e+00 
3.5000000e+00 0.0000000e+00 0.0000000e+00 
3.5999999e+00 0.0000000e+00 0.0000000e+00 
3.7000000e+00 0.0000000e+00 0.0000000e+00 
3.8000000e+00 0.0000000e+00 0.0000000e+00 
3.9000001e+00 0.0000000e+00 0.0000000e+00 
4.0000000e+00 0.0000000e+00 0.0000000e+00 
4.0999999e+00 0.0000000e+00 0.0000000e+00 
4.1999998e+00 0.0000000e+00 0.0000000e+00 
4.3000002e+00 0.0000000e+00 0.0000000e+00 
4.4000001e+00 0.0000000e+00 0.0000000e+00 
4.5000000e+00 0.0000000e+00 0.0000000e+00 
4.5999999e+00 0.0000000e+00 0.0000000e+00 
4.6999998e+00 0.0000000e+00 0.0000000e+00 
4.8000002e+00 0.0000000e+00 0.0000000e+00 
4.9000001e+00 0.0000000e+00 0.0000000e+00 
5.0000000e+00 1.0000000e-01 0.0000000e+00 
5.0000000e+00 2.0000000e-01 0.0000000e+00 
5.0000000e+00 3.0000001e-01 0.0000000e+00 
5.0000000e+00 4.0000001e-01 0.0000000e+00 
5.0000000e+00 5.0000000e-01 0.0000000e+00 
5.0000000e+00 6.0000002e-01 0.0000000e+00 
5.0000000e+00 6.9999999e-01 0.0000000e+00 
5.0000000e+00 8.0000001e-01 0.0000000e+00 
5.0000000e+00 8.9999998e-01 0.0000000e+00 
4.9000001e+00 1.0000000e+00 0.0000000e+00 
4.8000002e+00 1.0000000e+00 0.0000000e+00 
4.6999998e+00 1.0000000e+00 0.0000000e+00 
4.5999999e+00 1.0000000e+00 0.0000000e+00 
4.5000000e+00 1.0000000e+00 0.0000000e+00 
4.4000001e+00 1.0000000e+00 0.0000000e+00 
4.3000002e+00 1.0000000e+00 0.0000000e+00 
4.1999998e+00 1.0000000e+00 0.0000000e+00 
4.0999999e+00 1.0000000e+00 0.0000000e+00 
4.0000000e+00 1.0000000e+00 0.0000000e+00 
3.9000001e+00 1.0000000e+00 0.0000000e+00 
3.8000000e+00 1.0000000e+00 0.0000000e+00 
3.7000000e+00 1.0000000e+00 0.0000000e+00 
3.5999999e+00 1.0000000e+00 0.0000000e+00 
3.5000000e+00 1.0000000e+00 0.0000000e+00 
3.4000001e+00 1.0000000e+00 0.0000000e+00 
3.3000000e+00 1.0000000e+00 0.0000000e+00 
3.2000000e+00 1.0000000e+00 0.0000000e+00 
3.0999999e+00 1.0000000e+00 0.0000000e+00 
3.0000000e+00 1.0000000e+00 0.0000000e+00 
2.9000001e+00 1.0000000e+00 0.0000000e+00 
2.8000000e+00 1.0000000e+00 0.0000000e+00 
2.7000000e+00 1.0000000e+00 0.0000000e+00 
2.5999999e+00 1.0000000e+00 0.0000000e+00 
2.5000000e+00 1.0000000e+00 0.0000000e+00 
2.4000001e+00 1.0000000e+00 0.0000000e+00 
2.3000000e+00 1.0000000e+00 0.0000000e+00 
2.2000000e+00 1.0000000e+00 0.0000000e+00 
2.0999999e+00 1.0000000e+00 0.0000000e+00 
2.0000000e+00 1.0000000e+00 0.0000000e+00 
1.9000000e+00 1.0000000e+00 0.0000000e+00 
1.8000000e+00 1.0000000e+00 0.0000000e+00 
1.7000000e+00 1.0000000e+00 0.0000000e+00 
1.6000000e+00 1.0000000e+00 0.0000000e+00 
1.5000000e+00 1.0000000e+00 0.0000000e+00 
1.4000000e+00 1.0000000e+00 0.0000000e+00 
1.3000000e+00 1.0000000e+00 0.0000000e+00 
1.2000000e+00 1.0000000e+00 0.0000000e+00 
1.1000000e+00 1.0000000e+00 0.0000000e+00 
1.0000000e+00 1.0000000e+00 0.0000000e+00 
8.9999998e-01 1.0000000e+00 0.0000000e+00 
8.0000001e-01 1.0000000e+00 0.0000000e+00 
6.9999999e-01 1.0000000e+00 0.0000000e+00 
6.0000002e-01 1.0000000e+00 0.0000000e+00 
5.0000000e-01 1.0000000e+00 0.0000000e+00 
4.0000001e-01 1.0000000e+00 0.0000000e+00 
3.0000001e-01 1.0000000e+00 0.0000000e+00 
2.0000000e-01 1.0000000e+00 0.0000000e+00 
1.0000000e-01 1.0000000e+00 0.0000000e+00 
0.0000000e+00 8.9999998e-01 0.0000000e+00 
0.0000000e+00 8.0000001e-01 0.0000000e+00 
0.0000000e+00 6.9999999e-01 0.0000000e+00 
0.0000000e+00 6.0000002e-01 0.0000000e+00 
0.0000000e+00 5.0000000e-01 0.0000000e+00 
0.0000000e+00 4.0000001e-01 0.0000000e+00 
0.0000000e+00 3.0000001e-01 0.0000000e+00 
0.0000000e+00 2.0000000e-01 0.0000000e+00 
0.0000000e+00 1.0000000e-01 0.0000000e+00 
4.3499999e+00 8.6602539e-02 0.0000000e+00 
2.2500000e+00 9.1339743e-01 0.0000000e+00 
4.0500002e+00 9.1339743e-01 0.0000000e+00 
2.7500000e+00 8.3308272e-02 0.0000000e+00 
3.2500000e+00 8.6602539e-02 0.0000000e+00 
3.7500000e+00 8.6602539e-02 0.0000000e+00 
1.2500000e+00 9.1339743e-01 0.0000000e+00 
1.7500000e+00 9.1339743e-01 0.0000000e+00 
9.4999999e-01 9.1339743e-01 0.0000000e+00 
5.5000001e-01 9.1339743e-01 0.0000000e+00 
7.5000000e-01 8.3308272e-02 0.0000000e+00 
1.4524696e+00 8.1907488e-02 0.0000000e+00 
1.9500000e+00 8.6602539e-02 0.0000000e+00 
3.4500000e+00 9.1339743e-01 0.0000000e+00 
2.9500000e+00 9.1339743e-01 0.0000000e+00 
2.4500000e+00 8.6602539e-02 0.0000000e+00 
4.4499998e+00 9.1339743e-01 0.0000000e+00 
2.6500001e+00 9.1339743e-01 0.0000000e+00 
1.1500000e+00 8.6602539e-02 0.0000000e+00 
4.0517640e+00 7.8262508e-02 0.0000000e+00 
3.7500000e+00 9.1339743e-01 0.0000000e+00 
9.5000088e-02 4.6391028e-01 0.0000000e+00 
4.9059730e+00 4.6363035e-01 0.0000000e+00 
4.5246965e-01 8.1907488e-02 0.0000000e+00 
4.6500001e+00 8.6602539e-02 0.0000000e+00 
4.6500001e+00 9.1339743e-01 0.0000000e+00 
7.5000000e-01 9.1339743e-01 0.0000000e+00 
4.9111457e+00 6.5092021e-01 0.0000000e+00 
2.2500000e+00 8.6602539e-02 0.0000000e+00 
3.2500000e+00 9.1339743e-01 0.0000000e+00 
9.4999999e-01 8.6602539e-02 0.0000000e+00 
2.9500000e+00 8.6602539e-02 0.0000000e+00 
3.4500000e+00 8.6602539e-02 0.0000000e+00 
2.4500000e+00 9.1339743e-01 0.0000000e+00 
1.9500000e+00 9.1339743e-01 0.0000000e+00 
1.5500000e+00 9.1339743e-01 0.0000000e+00 
1.6500000e+00 8.6602539e-02 0.0000000e+00 
3.4999999e-01 9.1339743e-01 0.0000000e+00 
9.0659410e-02 6.5153849e-01 0.0000000e+00 
4.2500000e+00 9.1339743e-01 0.0000000e+00 
2.5402120e-01 7.9592258e-02 0.0000000e+00 
4.9112749e+00 2.5204152e-01 0.0000000e+00 
8.6602539e-02 2.5000000e-01 0.0000000e+00 
4.9094305e+00 8.4081745e-01 0.0000000e+00 
9.0569727e-02 8.4081745e-01 0.0000000e+00 
4.8445559e+00 9.5495284e-02 0.0000000e+00 
3.9500000e+00 9.1339743e-01 0.0000000e+00 
4.0000000e+00 8.2679492e-01 0.0000000e+00 
4.0999999e+00 8.2679492e-01 0.0000000e+00 
4.0500002e+00 7.4019235e-01 0.0000000e+00 
4.1500001e+00 7.4019235e-01 0.0000000e+00 
4.0999999e+00 6.5358984e-01 0.0000000e+00 
4.1999998e+00 6.5358984e-01 0.0000000e+00 
4.0000000e+00 6.5358984e-01 0.0000000e+00 
4.1500001e+00 5.6698728e-01 0.0000000e+00 
4.2500000e+00 5.6698728e-01 0.0000000e+00 
4.1999998e+00 4.8038477e-01 0.0000000e+00 
4.3000002e+00 4.8038477e-01 0.0000000e+00 
4.3499999e+00 5.6698728e-01 0.0000000e+00 
4.4000001e+00 4.8038477e-01 0.0000000e+00 
4.4499998e+00 5.6698728e-01 0.0000000e+00 
4.5000000e+00 4.8038477e-01 0.0000000e+00 
4.0999999e+00 4.8038477e-01 0.0000000e+00 
4.5500002e+00 5.6698728e-01 0.0000000e+00 
4.2500000e+00 3.9378223e-01 0.0000000e+00 
4.4499998e+00 3.9378223e-01 0.0000000e+00 
4.5500002e+00 3.9378223e-01 0.0000000e+00 
4.5024695e+00 3.0860552e-01 0.0000000e+00 
4.5000000e+00 6.5358984e-01 0.0000000e+00 
4.5999999e+00 6.5358984e-01 0.0000000e+00 
4.6500001e+00 5.6698728e-01 0.0000000e+00 
4.6004114e+00 3.0741730e-01 0.0000000e+00 
4.6999998e+00 6.5358984e-01 0.0000000e+00 
4.5500002e+00 7.4019235e-01 0.0000000e+00 
4.4499998e+00 7.4019235e-01 0.0000000e+00 
4.4028811e+00 3.1213742e-01 0.0000000e+00 
3.9000001e+00 8.2679492e-01 0.0000000e+00 
4.2500000e+00 7.4019235e-01 0.0000000e+00 
4.6500688e+00 3.9382184e-01 0.0000000e+00 
4.7000799e+00 3.0722588e-01 0.0000000e+00 
4.7507491e+00 5.6669539e-01 0.0000000e+00 
4.5510750e+00 2.2357146e-01 0.0000000e+00 
4.7483096e+00 3.9479813e-01 0.0000000e+00 
4.8143229e+00 3.0351433e-01 0.0000000e+00 
4.7489839e+00 2.2150035e-01 0.0000000e+00 
4.8026423e+00 6.5280432e-01 0.0000000e+00 
4.7504406e+00 7.4006146e-01 0.0000000e+00 
4.8507943e+00 7.4260241e-01 0.0000000e+00 
4.8009601e+00 8.2998371e-01 0.0000000e+00 
4.8518200e+00 5.6202388e-01 0.0000000e+00 
4.8002234e+00 4.7973469e-01 0.0000000e+00 
4.7002335e+00 8.2730454e-01 0.0000000e+00 
4.6500239e+00 2.2246142e-01 0.0000000e+00 
4.5000000e+00 8.2679492e-01 0.0000000e+00 
4.4000001e+00 8.2679492e-01 0.0000000e+00 
4.6000390e+00 8.2687986e-01 0.0000000e+00 
4.6501188e+00 7.4026966e-01 0.0000000e+00 
4.1999998e+00 8.2679492e-01 0.0000000e+00 
4.1500001e+00 9.1339743e-01 0.0000000e+00 
4.1500001e+00 3.9378223e-01 0.0000000e+00 
4.0500002e+00 3.9378223e-01 0.0000000e+00 
4.1999998e+00 3.0717969e-01 0.0000000e+00 
4.0000000e+00 4.8038477e-01 0.0000000e+00 
3.9500000e+00 3.9378223e-01 0.0000000e+00 
3.9000001e+00 4.8038477e-01 0.0000000e+00 
3.8499999e+00 3.9378223e-01 0.0000000e+00 
3.8000000e+00 4.8038477e-01 0.0000000e+00 
3.7500000e+00 3.9378223e-01 0.0000000e+00 
3.7000000e+00 4.8038477e-01 0.0000000e+00 
3.6500001e+00 3.9378223e-01 0.0000000e+00 
[...]
POINT_DATA 663
FIELD FieldData 2
DISPLACEMENT 3 663  float
0.0000000e+00 0.0000000e+00 0.0000000e+00 
0.0000000e+00 0.0000000e+00 0.0000000e+00 
0.0000000e+00 -1.3250907e-07 0.0000000e+00 
0.0000000e+00 -1.5487792e-07 0.0000000e+00 
0.0000000e+00 0.0000000e+00 0.0000000e+00 
0.0000000e+00 0.0000000e+00 0.0000000e+00 
0.0000000e+00 0.0000000e+00 0.0000000e+00 
0.0000000e+00 0.0000000e+00 0.0000000e+00 
0.0000000e+00 0.0000000e+00 0.0000000e+00 
0.0000000e+00 0.0000000e+00 0.0000000e+00 
0.0000000e+00 0.0000000e+00 0.0000000e+00 
0.0000000e+00 0.0000000e+00 0.0000000e+00 
0.0000000e+00 0.0000000e+00 0.0000000e+00 
0.0000000e+00 0.0000000e+00 0.0000000e+00 
0.0000000e+00 0.0000000e+00 0.0000000e+00 
0.0000000e+00 0.0000000e+00 0.0000000e+00 
0.0000000e+00 0.0000000e+00 0.0000000e+00 
0.0000000e+00 0.0000000e+00 0.0000000e+00 
0.0000000e+00 0.0000000e+00 0.0000000e+00 
0.0000000e+00 0.0000000e+00 0.0000000e+00 
0.0000000e+00 0.0000000e+00 0.0000000e+00 
0.0000000e+00 0.0000000e+00 0.0000000e+00 
0.0000000e+00 0.0000000e+00 0.0000000e+00 
0.0000000e+00 0.0000000e+00 0.0000000e+00 
0.0000000e+00 0.0000000e+00 0.0000000e+00 
0.0000000e+00 0.0000000e+00 0.0000000e+00 
0.0000000e+00 0.0000000e+00 0.0000000e+00 
0.0000000e+00 0.0000000e+00 0.0000000e+00 
0.0000000e+00 0.0000000e+00 0.0000000e+00 
0.0000000e+00 0.0000000e+00 0.0000000e+00 
0.0000000e+00 0.0000000e+00 0.0000000e+00 
0.0000000e+00 0.0000000e+00 0.0000000e+00 
0.0000000e+00 0.0000000e+00 0.0000000e+00 
0.0000000e+00 0.0000000e+00 0.0000000e+00 
0.0000000e+00 0.0000000e+00 0.0000000e+00 
0.0000000e+00 0.0000000e+00 0.0000000e+00 
0.0000000e+00 0.0000000e+00 0.0000000e+00 
0.0000000e+00 0.0000000e+00 0.0000000e+00 
0.0000000e+00 0.0000000e+00 0.0000000e+00 
0.0000000e+00 0.0000000e+00 0.0000000e+00 
0.0000000e+00 0.0000000e+00 0.0000000e+00 
0.0000000e+00 0.0000000e+00 0.0000000e+00 
0.0000000e+00 0.0000000e+00 0.0000000e+00 
0.0000000e+00 0.0000000e+00 0.0000000e+00 
0.0000000e+00 0.0000000e+00 0.0000000e+00 
0.0000000e+00 0.0000000e+00 0.0000000e+00 
0.0000000e+00 0.0000000e+00 0.0000000e+00 
0.0000000e+00 0.0000000e+00 0.0000000e+00 
0.0000000e+00 0.0000000e+00 0.0000000e+00 
0.0000000e+00 0.0000000e+00 0.0000000e+00 
0.0000000e+00 0.0000000e+00 0.0000000e+00 
0.0000000e+00 0.0000000e+00 0.0000000e+00 
0.0000000e+00 0.0000000e+00 0.0000000e+00 
0.0000000e+00 -2.2992818e-08 0.0000000e+00 
0.0000000e+00 -4.6926502e-08 0.0000000e+00 
0.0000000e+00 -7.0388325e-08 0.0000000e+00 
0.0000000e+00 -9.1898492e-08 0.0000000e+00 
0.0000000e+00 -1.0988879e-07 0.0000000e+00 
0.0000000e+00 -1.2416409e-07 0.0000000e+00 
0.0000000e+00 -1.3372359e-07 0.0000000e+00 
0.0000000e+00 -1.3829410e-07 0.0000000e+00 
0.0000000e+00 -1.3784194e-07 0.0000000e+00 
3.4429789e-08 -1.2809922e-07 0.0000000e+00 
6.7380022e-08 -1.1670206e-07 0.0000000e+00 
9.6817551e-08 -9.5515787e-08 0.0000000e+00 
1.1967990e-07 -6.4103460e-08 0.0000000e+00 
1.3218539e-07 -2.3805741e-08 0.0000000e+00 
1.3081228e-07 2.0845171e-08 0.0000000e+00 
1.1376183e-07 6.2163537e-08 0.0000000e+00 
8.2110418e-08 9.0773241e-08 0.0000000e+00 
4.0156152e-08 9.8086502e-08 0.0000000e+00 
-5.3957825e-09 7.8802643e-08 0.0000000e+00 
-4.7241837e-08 3.2095080e-08 0.0000000e+00 
-7.9472365e-08 -3.9711086e-08 0.0000000e+00 
-9.8235304e-08 -1.3591276e-07 0.0000000e+00 
-9.7776073e-08 -2.6881807e-07 0.0000000e+00 
-4.6334087e-08 -5.3007932e-07 0.0000000e+00 
4.6859050e-08 -5.4922049e-07 0.0000000e+00 
1.0377419e-07 -3.0463377e-07 0.0000000e+00 
1.0940995e-07 -1.8675669e-07 0.0000000e+00 
9.3854176e-08 -1.0649861e-07 0.0000000e+00 
6.4421677e-08 -5.9712391e-08 0.0000000e+00 
3.0920241e-08 -5.0361752e-08 0.0000000e+00 
5.1373386e-09 -7.1429362e-08 0.0000000e+00 
-7.5340818e-09 -1.0252405e-07 0.0000000e+00 
-1.3193590e-08 -1.2411834e-07 0.0000000e+00 
-2.3167667e-08 -1.3308268e-07 0.0000000e+00 
-4.3490676e-08 -1.3793512e-07 0.0000000e+00 
-7.5796805e-08 -1.4691729e-07 0.0000000e+00 
-1.2029695e-07 -1.7861559e-07 0.0000000e+00 
-1.6753967e-07 -2.4499360e-07 0.0000000e+00 
-2.0931613e-07 -3.3694167e-07 0.0000000e+00 
-2.4297205e-07 -4.6069354e-07 0.0000000e+00 
-2.7122309e-07 -6.0478999e-07 0.0000000e+00 
-2.9610510e-07 -7.9817033e-07 0.0000000e+00 
-3.0119901e-07 -1.1060198e-06 0.0000000e+00 
-1.8304485e-07 -1.8292262e-06 0.0000000e+00 
5.4728670e-08 -1.8754200e-06 0.0000000e+00 
2.0342168e-07 -1.1652173e-06 0.0000000e+00 
2.2758155e-07 -8.3552038e-07 0.0000000e+00 
2.1096538e-07 -5.9130946e-07 0.0000000e+00 
1.6268925e-07 -4.1204996e-07 0.0000000e+00 
1.0369530e-07 -3.1850757e-07 0.0000000e+00 
6.8898146e-08 -2.9976971e-07 0.0000000e+00 
7.3592425e-08 -2.9465812e-07 0.0000000e+00 
9.0271051e-08 -2.4984655e-07 0.0000000e+00 
8.2055941e-08 -1.8570432e-07 0.0000000e+00 
5.4623442e-08 -1.4613305e-07 0.0000000e+00 
2.9171490e-08 -1.1607782e-07 0.0000000e+00 
-4.1397463e-10 -1.1658857e-07 0.0000000e+00 
-1.0685643e-08 -1.5769103e-07 0.0000000e+00 
0.0000000e+00 -1.6557023e-07 0.0000000e+00 
0.0000000e+00 -1.6077105e-07 0.0000000e+00 
0.0000000e+00 -1.4773110e-07 0.0000000e+00 
0.0000000e+00 -1.4279914e-07 0.0000000e+00 
0.0000000e+00 -1.3163127e-07 0.0000000e+00 
0.0000000e+00 -1.0871251e-07 0.0000000e+00 
0.0000000e+00 -7.9976864e-08 0.0000000e+00 
0.0000000e+00 -5.1992185e-08 0.0000000e+00 
0.0000000e+00 -2.5836403e-08 0.0000000e+00 
-3.3803476e-09 1.6472737e-09 0.0000000e+00 
-6.4536700e-08 -1.5129437e-07 0.0000000e+00 
3.3567513e-08 9.7590814e-08 0.0000000e+00 
8.6473033e-09 -1.1337502e-08 0.0000000e+00 
7.7744957e-09 -1.8745071e-08 0.0000000e+00 
2.5607040e-08 -6.3396546e-09 0.0000000e+00 
1.2124052e-09 -9.7492909e-07 0.0000000e+00 
-1.2430921e-07 -6.8729076e-07 0.0000000e+00 
5.0760136e-08 -3.4893941e-07 0.0000000e+00 
4.6938187e-08 -2.1386202e-07 0.0000000e+00 
-3.0801861e-08 -4.2963222e-08 0.0000000e+00 
-6.3663355e-09 -8.0747306e-08 0.0000000e+00 
3.8254825e-08 -5.7301648e-08 0.0000000e+00 
1.1212551e-08 -4.5249888e-07 0.0000000e+00 
3.7611834e-08 -4.7472067e-08 0.0000000e+00 
2.0527166e-08 -1.8768196e-08 0.0000000e+00 
1.0125818e-07 -1.1891100e-09 0.0000000e+00 
5.4888725e-09 -1.1189530e-07 0.0000000e+00 
-3.4514549e-08 -8.4839918e-08 0.0000000e+00 
1.3567935e-08 5.0911613e-09 0.0000000e+00 
-1.7288171e-08 -8.2028691e-08 0.0000000e+00 
-5.5990174e-10 -1.2234922e-07 0.0000000e+00 
6.0639577e-10 -1.0097876e-07 0.0000000e+00 
-1.3909234e-08 -2.6610079e-08 0.0000000e+00 
-8.4129077e-09 -1.1779455e-08 0.0000000e+00 
8.4647382e-08 -8.4165080e-08 0.0000000e+00 
4.2620290e-08 -2.9954234e-07 0.0000000e+00 
8.9395273e-09 -1.2687593e-07 0.0000000e+00 
3.0344740e-08 -3.0295357e-08 0.0000000e+00 
3.4836077e-08 -2.3743536e-07 0.0000000e+00 
-4.0992031e-08 -6.9304136e-08 0.0000000e+00 
4.3701269e-09 -1.3615941e-08 0.0000000e+00 
1.6619959e-08 -1.7935223e-08 0.0000000e+00 
-2.1540469e-08 -1.2960824e-07 0.0000000e+00 
-1.2593151e-07 -3.8987642e-07 0.0000000e+00 
-1.8798989e-08 -1.3093361e-06 0.0000000e+00 
1.6858085e-08 -8.0217220e-08 0.0000000e+00 
1.8929910e-08 -1.2741818e-07 0.0000000e+00 
-5.9767231e-09 -1.3876853e-07 0.0000000e+00 
8.0817820e-08 8.2761261e-08 0.0000000e+00 
-1.0236169e-08 -2.3662201e-08 0.0000000e+00 
-4.0508730e-09 -5.7659960e-08 0.0000000e+00 
-8.9044399e-09 -6.6768003e-08 0.0000000e+00 
2.0401307e-08 -1.3608334e-07 0.0000000e+00 
4.9741615e-09 -1.5521256e-07 0.0000000e+00 
-5.1216151e-09 -1.9814767e-08 0.0000000e+00 
9.2285477e-09 6.3960030e-08 0.0000000e+00 
4.1666596e-08 8.2765737e-08 0.0000000e+00 
5.2381846e-08 1.0200123e-07 0.0000000e+00 
5.6063477e-08 8.9347331e-08 0.0000000e+00 
5.6798825e-08 9.5030110e-08 0.0000000e+00 
5.7653033e-08 8.5550404e-08 0.0000000e+00 
5.1544060e-08 8.0118575e-08 0.0000000e+00 
6.4145127e-08 6.8145319e-08 0.0000000e+00 
5.0587385e-08 7.3934217e-08 0.0000000e+00 
4.0322060e-08 6.0696500e-08 0.0000000e+00 
3.8276852e-08 5.7453651e-08 0.0000000e+00 
2.6182795e-08 3.9969848e-08 0.0000000e+00 
3.1892018e-08 3.3393725e-08 0.0000000e+00 
1.6867533e-08 1.2935574e-08 0.0000000e+00 
2.5537517e-08 -1.5423760e-09 0.0000000e+00 
1.0544315e-08 -1.8132159e-08 0.0000000e+00 
5.2013856e-08 6.0780906e-08 0.0000000e+00 
2.0802165e-08 -3.7609809e-08 0.0000000e+00 
2.3744560e-08 3.9173234e-08 0.0000000e+00 
3.3725105e-09 -3.3389911e-09 0.0000000e+00 
-1.5434485e-09 -2.8885369e-08 0.0000000e+00 
-6.7213874e-09 -1.4378096e-08 0.0000000e+00 
3.7747132e-08 -2.1294003e-08 0.0000000e+00 
3.3106232e-08 -5.9539421e-08 0.0000000e+00 
1.6838918e-08 -6.9667259e-08 0.0000000e+00 
-9.4329264e-09 -3.3057113e-08 0.0000000e+00 
2.7165935e-08 -9.0827292e-08 0.0000000e+00 
5.2722928e-08 -4.3841904e-08 0.0000000e+00 
5.6491288e-08 -5.8001054e-10 0.0000000e+00 
-1.9347218e-10 5.1789022e-09 0.0000000e+00 
3.3469185e-08 3.5899223e-08 0.0000000e+00 
5.7653036e-08 7.7272439e-08 0.0000000e+00 
-3.5702283e-09 -5.2205657e-08 0.0000000e+00 
-9.2453671e-09 -4.9534904e-08 0.0000000e+00 
1.2725078e-08 -9.4711496e-08 0.0000000e+00 
-1.1818059e-08 -1.8042490e-08 0.0000000e+00 
-3.5835288e-09 -7.0700139e-08 0.0000000e+00 
-6.9224044e-09 -6.2741634e-08 0.0000000e+00 
-1.0478704e-08 -4.0613379e-08 0.0000000e+00 
1.9180982e-08 -1.1348437e-07 0.0000000e+00 
3.5740396e-08 -1.0912719e-07 0.0000000e+00 
2.2955497e-08 -1.2725400e-07 0.0000000e+00 
4.1164672e-08 -1.2236606e-07 0.0000000e+00 
7.6092794e-09 -1.1073541e-07 0.0000000e+00 
2.9018794e-09 -9.2048211e-08 0.0000000e+00 
5.7317067e-08 -9.9358168e-08 0.0000000e+00 
-1.2371023e-08 -3.0532846e-08 0.0000000e+00 
7.5389785e-08 -2.3764882e-08 0.0000000e+00 
7.6088789e-08 2.2485189e-08 0.0000000e+00 
6.9051637e-08 -6.5965729e-08 0.0000000e+00 
4.5905573e-08 -8.1121016e-08 0.0000000e+00 
6.3107144e-08 9.4330424e-08 0.0000000e+00 
5.8938475e-08 1.0280941e-07 0.0000000e+00 
3.8144339e-08 4.7731074e-08 0.0000000e+00 
5.3186941e-08 4.3782919e-08 0.0000000e+00 
2.2965502e-08 3.2410362e-08 0.0000000e+00 
6.5480698e-08 4.7637080e-08 0.0000000e+00 
6.6447555e-08 2.6955201e-08 0.0000000e+00 
7.6311458e-08 1.8906798e-08 0.0000000e+00 
7.5390162e-08 -3.5006587e-10 0.0000000e+00 
8.2090359e-08 -2.1114669e-08 0.0000000e+00 
7.7990975e-08 -3.3247744e-08 0.0000000e+00 
8.0805776e-08 -6.5114136e-08 0.0000000e+00 
7.3382466e-08 -6.5377172e-08 0.0000000e+00 
7.1746030e-08 -1.0416187e-07 0.0000000e+00 
6.2436939e-08 -9.0546614e-08 0.0000000e+00 
5.6513286e-08 -1.3034089e-07 0.0000000e+00 
4.7656442e-08 -1.0455663e-07 0.0000000e+00 
3.9068780e-08 -1.3918567e-07 0.0000000e+00 
3.3292192e-08 -1.0678151e-07 0.0000000e+00 
2.4374339e-08 -1.3108807e-07 0.0000000e+00 
2.1987155e-08 -9.9010897e-08 0.0000000e+00 
1.6169517e-08 -1.1084760e-07 0.0000000e+00 
1.6416138e-08 -8.2699621e-08 0.0000000e+00 
1.5652519e-08 -8.6236120e-08 0.0000000e+00 
1.6792848e-08 -6.5311362e-08 0.0000000e+00 
2.0538737e-08 -6.5550083e-08 0.0000000e+00 
2.0785684e-08 -5.2232302e-08 0.0000000e+00 
2.6862667e-08 -5.4215477e-08 0.0000000e+00 
2.5601747e-08 -4.5731131e-08 0.0000000e+00 
3.1141745e-08 -5.2990419e-08 0.0000000e+00 
2.9265033e-08 -4.6032195e-08 0.0000000e+00 
3.2308588e-08 -5.8838051e-08 0.0000000e+00 
3.1781017e-08 -5.1425378e-08 0.0000000e+00 
3.2402838e-08 -6.7464406e-08 0.0000000e+00 
3.5269487e-08 -5.9910249e-08 0.0000000e+00 
3.5057248e-08 -7.6860275e-08 0.0000000e+00 
4.2262670e-08 -7.1130735e-08 0.0000000e+00 
4.2820837e-08 -8.9222453e-08 0.0000000e+00 
5.3489678e-08 -8.6885159e-08 0.0000000e+00 
5.5486232e-08 -1.0993194e-07 0.0000000e+00 
6.8256924e-08 -1.1171489e-07 0.0000000e+00 
7.0943216e-08 -1.4435625e-07 0.0000000e+00 
8.4117289e-08 -1.4845649e-07 0.0000000e+00 
8.6284565e-08 -1.9435301e-07 0.0000000e+00 
9.6723788e-08 -1.9511276e-07 0.0000000e+00 
9.8533377e-08 -2.5798107e-07 0.0000000e+00 
1.0308194e-07 -2.5029840e-07 0.0000000e+00 
1.0434359e-07 -3.3095600e-07 0.0000000e+00 
1.0096499e-07 -3.0864976e-07 0.0000000e+00 
1.0066724e-07 -4.0694056e-07 0.0000000e+00 
8.8358341e-08 -3.6378904e-07 0.0000000e+00 
8.4652193e-08 -4.7803167e-07 0.0000000e+00 
6.3788541e-08 -4.0915074e-07 0.0000000e+00 
5.4055018e-08 -5.3512548e-07 0.0000000e+00 
2.7807765e-08 -4.3964690e-07 0.0000000e+00 
9.9055821e-09 -5.6952945e-07 0.0000000e+00 
-1.5896621e-08 -4.5247441e-07 0.0000000e+00 
-4.1251084e-08 -5.7513608e-07 0.0000000e+00 
-5.9898440e-08 -4.4733954e-07 0.0000000e+00 
-8.8168662e-08 -5.5002829e-07 0.0000000e+00 
-9.5845358e-08 -4.2437421e-07 0.0000000e+00 
-1.1950459e-07 -4.9689783e-07 0.0000000e+00 
-1.1695498e-07 -3.8422701e-07 0.0000000e+00 
-1.2968856e-07 -4.2427240e-07 0.0000000e+00 
-1.2129429e-07 -3.3037398e-07 0.0000000e+00 
-1.2216253e-07 -3.4615977e-07 0.0000000e+00 
-1.1304709e-07 -2.7092196e-07 0.0000000e+00 
-1.0729437e-07 -2.7778606e-07 0.0000000e+00 
-1.0045638e-07 -2.1684043e-07 0.0000000e+00 
-9.6076889e-08 -2.2866234e-07 0.0000000e+00 
-9.0914156e-08 -1.7676686e-07 0.0000000e+00 
-9.2403205e-08 -1.9729924e-07 0.0000000e+00 
-8.5812658e-08 -1.5185971e-07 0.0000000e+00 
-8.9711975e-08 -1.7372403e-07 0.0000000e+00 
-7.9658982e-08 -1.3641221e-07 0.0000000e+00 
-7.7694807e-08 -1.4999284e-07 0.0000000e+00 
-6.6022139e-08 -1.2382257e-07 0.0000000e+00 
7.6842134e-08 -1.0906597e-07 0.0000000e+00 
2.5636474e-08 -1.7190760e-07 0.0000000e+00 
1.7059346e-08 -8.1297877e-08 0.0000000e+00 
3.4034784e-08 -6.4008873e-08 0.0000000e+00 
2.9564671e-08 -8.3953928e-08 0.0000000e+00 
3.7893834e-08 -1.0678671e-07 0.0000000e+00 
7.8602909e-08 -2.4621872e-07 0.0000000e+00 
9.7333427e-08 -4.2169663e-07 0.0000000e+00 
7.4228730e-08 -6.1016794e-07 0.0000000e+00 
-7.3886994e-08 -6.9516233e-07 0.0000000e+00 
-1.2680638e-07 -4.2916162e-07 0.0000000e+00 
-9.0511854e-08 -2.7778972e-07 0.0000000e+00 
-8.3277008e-08 -2.1554918e-07 0.0000000e+00 
-5.3963760e-08 -1.2817809e-07 0.0000000e+00 
-5.7472558e-08 -1.4449077e-07 0.0000000e+00 
-4.4837098e-08 -1.1280109e-07 0.0000000e+00 
-6.7168799e-08 -1.1127864e-07 0.0000000e+00 
-6.8767370e-08 -3.3216500e-07 0.0000000e+00 
8.5548365e-08 -2.6332256e-07 0.0000000e+00 
8.7218055e-08 -1.4194248e-07 0.0000000e+00 
3.2262413e-08 -4.3545562e-08 0.0000000e+00 
1.4586752e-08 -6.0476268e-08 0.0000000e+00 
6.1627951e-08 -5.7278147e-08 0.0000000e+00 
6.2731729e-08 9.8913429e-09 0.0000000e+00 
-3.3089975e-08 -1.2113844e-07 0.0000000e+00 
-3.3925179e-08 -1.2961274e-07 0.0000000e+00 
-4.9100223e-08 -9.8089927e-08 0.0000000e+00 
-9.7627677e-08 -2.0030811e-07 0.0000000e+00 
-1.0633160e-07 -2.8648370e-07 0.0000000e+00 
3.7237630e-08 -3.2230096e-07 0.0000000e+00 
4.7937640e-08 -6.5277845e-08 0.0000000e+00 
1.8814099e-08 -3.9935319e-08 0.0000000e+00 
3.7420705e-08 -7.9102833e-08 0.0000000e+00 
-2.3279634e-08 -1.1768971e-07 0.0000000e+00 
-3.4872439e-08 -9.1762956e-08 0.0000000e+00 
-4.8984109e-08 -1.6918969e-07 0.0000000e+00 
7.9453123e-08 9.3026635e-11 0.0000000e+00 
-2.0347954e-08 -1.4874087e-07 0.0000000e+00 
-2.5388374e-08 -2.0382669e-07 0.0000000e+00 
-1.4784860e-08 -1.1966523e-07 0.0000000e+00 
-3.2628456e-08 -7.0032542e-08 0.0000000e+00 
-2.3253412e-08 -1.0668166e-07 0.0000000e+00 
-4.0413450e-08 -7.5581646e-08 0.0000000e+00 
-2.4750785e-08 -6.5973211e-08 0.0000000e+00 
-1.4912860e-08 -1.2600215e-07 0.0000000e+00 
-1.7595482e-08 -1.1861043e-07 0.0000000e+00 
-5.4545692e-09 -1.3094642e-07 0.0000000e+00 
1.3999127e-09 -1.1759971e-07 0.0000000e+00 
-4.9948379e-09 -1.2986621e-07 0.0000000e+00 
-1.8562529e-08 -8.4465377e-08 0.0000000e+00 
-2.0108123e-08 -1.2172617e-07 0.0000000e+00 
3.7668929e-08 3.4238752e-08 0.0000000e+00 
2.1602176e-08 2.2236101e-08 0.0000000e+00 
9.6186952e-09 1.8570741e-08 0.0000000e+00 
3.4882678e-08 2.0894191e-08 0.0000000e+00 
8.9271595e-09 1.2056755e-08 0.0000000e+00 
-1.0654152e-07 -2.4617577e-07 0.0000000e+00 
-8.6979014e-08 -1.9768562e-07 0.0000000e+00 
-8.0087176e-08 -2.1816456e-07 0.0000000e+00 
-8.4875744e-08 -1.6819307e-07 0.0000000e+00 
-7.6278546e-08 -1.3604111e-07 0.0000000e+00 
9.7290098e-08 -4.6352472e-08 0.0000000e+00 
-8.5057756e-09 -7.3531488e-09 0.0000000e+00 
-6.6712427e-09 -2.5440188e-09 0.0000000e+00 
-6.6427401e-09 2.4883895e-10 0.0000000e+00 
1.1848196e-08 2.0747956e-08 0.0000000e+00 
6.5514044e-08 -1.1150360e-07 0.0000000e+00 
-1.1612132e-07 -6.3170154e-07 0.0000000e+00 
-1.0852109e-07 -7.9548551e-07 0.0000000e+00 
-5.4912647e-08 -8.5970009e-07 0.0000000e+00 
-1.3237474e-07 -6.7163489e-07 0.0000000e+00 
-9.6913382e-08 -9.9590477e-07 0.0000000e+00 
-2.9696327e-08 -1.0409739e-06 0.0000000e+00 
8.7756371e-09 -8.4723740e-07 0.0000000e+00 
3.4378591e-08 -9.6505994e-07 0.0000000e+00 
-7.9439310e-08 -1.2479129e-06 0.0000000e+00 
-1.2498299e-07 -8.4364075e-07 0.0000000e+00 
-1.1546052e-07 -6.5093775e-07 0.0000000e+00 
-1.2673188e-07 -5.2769707e-07 0.0000000e+00 
-9.0732179e-08 -4.7942723e-07 0.0000000e+00 
-5.0390280e-08 -5.7875792e-07 0.0000000e+00 
-1.0417462e-07 -4.0278908e-07 0.0000000e+00 
-6.1630750e-08 -3.5969265e-07 0.0000000e+00 
-7.8873462e-08 -3.2006565e-07 0.0000000e+00 
-3.8671480e-08 -3.0336227e-07 0.0000000e+00 
-6.3528994e-08 -2.7986331e-07 0.0000000e+00 
-2.8783777e-08 -2.8537306e-07 0.0000000e+00 
-6.0546256e-08 -2.5614023e-07 0.0000000e+00 
1.1815045e-08 -1.9086350e-08 0.0000000e+00 
1.7583254e-08 -3.9458499e-08 0.0000000e+00 
1.1916205e-08 -3.7656395e-08 0.0000000e+00 
1.9160098e-08 -5.7870672e-08 0.0000000e+00 
2.5400613e-08 -3.9615127e-08 0.0000000e+00 
3.2345032e-08 -3.3362547e-08 0.0000000e+00 
-8.3607716e-08 -2.4276076e-07 0.0000000e+00 
4.3678352e-08 -2.9973933e-07 0.0000000e+00 
4.6745125e-08 -2.7784930e-07 0.0000000e+00 
-1.0785186e-07 -3.3876620e-07 0.0000000e+00 
2.5289598e-08 -2.3848047e-08 0.0000000e+00 
4.6085081e-08 -5.0098453e-08 0.0000000e+00 
5.5763277e-08 -6.5329864e-08 0.0000000e+00 
6.1690841e-08 -7.7468883e-08 0.0000000e+00 
-2.4992741e-09 -7.9240209e-08 0.0000000e+00 
9.5621580e-08 4.4882349e-08 0.0000000e+00 
-8.9273556e-08 -9.2170757e-07 0.0000000e+00 
-6.6397959e-10 -7.7134735e-07 0.0000000e+00 
-2.6955615e-08 -5.8894290e-07 0.0000000e+00 
4.9092701e-08 -6.4033179e-07 0.0000000e+00 
3.4042962e-08 -4.9483651e-07 0.0000000e+00 
4.4262606e-08 -1.7487082e-07 0.0000000e+00 
2.6995728e-08 -2.2068023e-07 0.0000000e+00 
1.0369654e-08 -1.9654574e-07 0.0000000e+00 
4.9070476e-08 -2.1045250e-07 0.0000000e+00 
7.9503844e-09 -2.6033032e-07 0.0000000e+00 
8.7342844e-10 -2.0283095e-07 0.0000000e+00 
5.6072338e-09 -1.5062318e-07 0.0000000e+00 
7.1169142e-09 -1.3484367e-07 0.0000000e+00 
-2.7882422e-08 -2.5869451e-07 0.0000000e+00 
-1.3329617e-07 -5.3494222e-07 0.0000000e+00 
1.0118018e-08 2.2434756e-08 0.0000000e+00 
-3.5254640e-08 -3.3847894e-07 0.0000000e+00 
-4.1828795e-08 -2.3313396e-07 0.0000000e+00 
-1.4735650e-08 -2.4231861e-07 0.0000000e+00 
6.1153154e-09 -3.7702893e-07 0.0000000e+00 
-4.1833186e-08 -1.3448685e-07 0.0000000e+00 
-2.6653391e-08 -1.3545025e-07 0.0000000e+00 
-3.4599687e-08 -1.6792939e-07 0.0000000e+00 
-2.7204622e-10 -1.4543080e-07 0.0000000e+00 
4.5369086e-09 -1.9324115e-07 0.0000000e+00 
1.0961823e-09 -1.2122025e-07 0.0000000e+00 
-4.0420606e-08 -2.3229099e-07 0.0000000e+00 
1.2358171e-08 -2.6991401e-07 0.0000000e+00 
3.2214370e-08 -1.6242478e-07 0.0000000e+00 
-1.4070753e-08 -1.2376843e-07 0.0000000e+00 
-2.6070257e-10 -1.1952852e-07 0.0000000e+00 
7.6849771e-09 -1.1182002e-07 0.0000000e+00 
1.6525622e-08 -1.0690266e-07 0.0000000e+00 
1.2223424e-08 -1.1268260e-07 0.0000000e+00 
2.5789200e-08 -9.6375501e-08 0.0000000e+00 
2.2583800e-08 -9.4285063e-08 0.0000000e+00 
3.2557843e-08 -7.7018477e-08 0.0000000e+00 
2.9421191e-08 -6.7513120e-08 0.0000000e+00 
3.3471398e-08 -5.8455775e-08 0.0000000e+00 
3.1538846e-08 -5.0158675e-08 0.0000000e+00 
2.7717105e-08 -5.6841479e-08 0.0000000e+00 
3.0879644e-08 -5.7639433e-08 0.0000000e+00 
2.8956492e-08 -6.0718229e-08 0.0000000e+00 
1.7652038e-08 -8.2632319e-08 0.0000000e+00 
4.6293188e-08 -7.6076830e-08 0.0000000e+00 
2.6217826e-08 -5.5196640e-08 0.0000000e+00 
-5.9188983e-09 -1.2526495e-07 0.0000000e+00 
5.0932965e-08 -7.3194030e-08 0.0000000e+00 
3.1829522e-08 -7.4762688e-08 0.0000000e+00 
4.9530722e-09 -8.1329063e-08 0.0000000e+00 
2.0516298e-08 -1.6905527e-07 0.0000000e+00 
3.8695632e-08 -1.4892284e-07 0.0000000e+00 
-9.9508828e-09 -1.9358434e-07 0.0000000e+00 
3.3909494e-08 -1.2883832e-07 0.0000000e+00 