# vtk DataFile Version 4.0
vtk output
ASCII
DATASET UNSTRUCTURED_GRID
POINTS 663 float
0.0000000e+00 0.0000000e+00 0.0000000e+00 
5.0000000e+00 0.0000000e+00 0.0000000e+00 
5.0000000e+00 1.0000000e+00 0.0000000e+00 
0.0000000e+00 1.0000000e+00 0.0000000e+00 
1.0000000e-01 0.0000000e+00 0.0000000e+00 
2.0000000e-01 0.0000000e+00 0.0000000e+00 
3.0000001e-01 0.0000000e+00 0.0000000e+00 
4.0000001e-01 0.0000000e+00 0.0000000e+00 
5.0000000e-01 0.0000000e+00 0.0000000e+00 
6.0000002e-01 0.0000000e+00 0.0000000e+00 
6.9999999e-01 0.0000000e+00 0.0000000e+00 
8.0000001e-01 0.0000000e+00 0.0000000e+00 
8.9999998e-01 0.0000000e+00 0.0000000e+00 
1.0000000e+00 0.0000000e+00 0.0000000e+00 
1.1000000e+00 0.0000000e+00 0.0000000e+00 
1.2000000e+00 0.0000000e+00 0.0000000e+00 
1.3000000e+00 0.0000000e+00 0.0000000e+00 
1.4000000e+00 0.0000000e+00 0.0000000e+00 
1.5000000e+00 0.0000000e+00 0.0000000e+00 
1.6000000e+00 0.0000000e+00 0.0000000e+00 
1.7000000e+00 0.0000000e+00 0.0000000e+00 
1.8000000e+00 0.0000000e+00 0.0000000e+00 
1.9000000e+00 0.0000000e+00 0.0000000e+00 
2.0000000e+00 0.0000000e+00 0.0000000e+00 
2.0999999e+00 0.0000000e+00 0.0000000e+00 
2.2000000e+00 0.0000000e+00 0.0000000e+00 
2.3000000e+00 0.0000000e+00 0.0000000e+00 
2.4000001e+00 0.0000000e+00 0.0000000e+00 
2.5000000e+00 0.0000000e+00 0.0000000e+00 
2.5999999e+00 0.0000000e+00 0.0000000e+00 
2.7000000e+00 0.0000000e+00 0.0000000e+00 
2.8000000e+00 0.0000000e+00 0.0000000e+00 
2.9000001e+00 0.0000000e+00 0.0000000e+00 
3.0000000e+00 0.0000000e+00 0.0000000e+00 
3.0999999e+00 0.0000000e+00 0.0000000e+00 
3.2000000e+00 0.0000000e+00 0.0000000e+00 
3.3000000e+00 0.0000000e+00 0.0000000e+00 
3.4000001e+00 0.0000000e+00 0.0000000e+00 
3.5000000e+00 0.0000000e+00 0.0000000e+00 
3.5999999e+00 0.0000000e+00 0.0000000e+00 
3.7000000e+00 0.0000000e+00 0.0000000e+00 
3.8000000e+00 0.0000000e+00 0.0000000e+00 
3.9000001e+00 0.0000000e+00 0.0000000e+00 
4.0000000e+00 0.0000000e+00 0.0000000e+00 
4.0999999e+00 0.0000000e+00 0.0000000e+00 
4.1999998e+00 0.0000000e+00 0.0000000e+00 
4.3000002e+00 0.0000000e+00 0.0000000e+00 
4.4000001e+00 0.0000000e+00 0.0000000e+00 
4.5000000e+00 0.0000000e+00 0.0000000e+00 
4.5999999e+00 0.0000000e+00 0.0000000e+00 
4.6999998e+00 0.0000000e+00 0.0000000e+00 
4.8000002e+00 0.0000000e+00 0.0000000e+00 
4.9000001e+00 0.0000000e+00 0.0000000e+00 
5.0000000e+00 1.0000000e-01 0.0000000e+00 
5.0000000e+00 2.0000000e-01 0.0000000e+00 
5.0000000e+00 3.0000001e-01 0.0000000e+00 
5.0000000e+00 4.0000001e-01 0.0000000e+00 
5.0000000e+00 5.0000000e-01 0.0000000e+00 
5.0000000e+00 6.0000002e-01 0.0000000e+00 
5.0000000e+00 6.9999999e-01 0.0000000e+00 
5.0000000e+00 8.0000001e-01 0.0000000e+00 
5.0000000e+00 8.9999998e-01 0.0000000e+00 
4.9000001e+00 1.0000000e+00 0.0000000e+00 
4.8000002e+00 1.0000000e+00 0.0000000e+00 
4.6999998e+00 1.0000000e+00 0.0000000e+00 
4.5999999e+00 1.0000000e+00 0.0000000e+00 
4.5000000e+00 1.0000000e+00 0.0000000e+00 
4.4000001e+00 1.0000000e+00 0.0000000e+00 
4.3000002e+00 1.0000000e+00 0.0000000e+00 
4.1999998e+00 1.0000000e+00 0.0000000e+00 
4.0999999e+00 1.0000000e+00 0.0000000e+00 
4.0000000e+00 1.0000000e+00 0.0000000e+00 
3.9000001e+00 1.0000000e+00 0.0000000e+00 
3.8000000e+00 1.0000000e+00 0.0000000e+00 
3.7000000e+00 1.0000000e+00 0.0000000e+00 
3.5999999e+00 1.0000000e+00 0.0000000e+00 
3.5000000e+00 1.0000000e+00 0.0000000e+00 
3.4000001e+00 1.0000000e+00 0.0000000e+00 
3.3000000e+00 1.0000000e+00 0.0000000e+00 
3.2000000e+00 1.0000000e+00 0.0000000e+00 
3.0999999e+00 1.0000000e+00 0.0000000e+00 
3.0000000e+00 1.0000000e+00 0.0000000e+00 
2.9000001e+00 1.0000000e+00 0.0000000e+00 
2.8000000e+00 1.0000000e+00 0.0000000e+00 
2.7000000e+00 1.0000000e+00 0.0000000e+00 
2.5999999e+00 1.0000000e+00 0.0000000e+00 
2.5000000e+00 1.0000000e+00 0.0000000e+00 
2.4000001e+00 1.0000000e+00 0.0000000e+00 
2.3000000e+00 1.0000000e+00 0.0000000e+00 
2.2000000e+00 1.0000000e+00 0.0000000e+00 
2.0999999e+00 1.0000000e+00 0.0000000e+00 
2.0000000e+00 1.0000000e+00 0.0000000e+00 
1.9000000e+00 1.0000000e+00 0.0000000e+00 
1.8000000e+00 1.0000000e+00 0.0000000e+00 
1.7000000e+00 1.0000000e+00 0.0000000e+00 
1.6000000e+00 1.0000000e+00 0.0000000e+00 
1.5000000e+00 1.0000000e+00 0.0000000e+00 
1.4000000e+00 1.0000000e+00 0.0000000e+00 
1.3000000e+00 1.0000000e+00 0.0000000e+00 
1.2000000e+00 1.0000000e+00 0.0000000e+00 
1.1000000e+00 1.0000000e+00 0.0000000e+00 
1.0000000e+00 1.0000000e+00 0.0000000e+00 
8.9999998e-01 1.0000000e+00 0.0000000e+00 
8.0000001e-01 1.0000000e+00 0.0000000e+00 
6.9999999e-01 1.0000000e+00 0.0000000e+00 
6.0000002e-01 1.0000000e+00 0.0000000e+00 
5.0000000e-01 1.0000000e+00 0.0000000e+00 
4.0000001e-01 1.0000000e+00 0.0000000e+00 
3.0000001e-01 1.0000000e+00 0.0000000e+00 
2.0000000e-01 1.0000000e+00 0.0000000e+00 
1.0000000e-01 1.0000000e+00 0.0000000e+00 
0.0000000e+00 8.9999998e-01 0.0000000e+00 
0.0000000e+00 8.0000001e-01 0.0000000e+00 
0.0000000e+00 6.9999999e-01 0.0000000e+00 
0.0000000e+00 6.0000002e-01 0.0000000e+00 
0.0000000e+00 5.0000000e-01 0.0000000e+00 
0.0000000e+00 4.0000001e-01 0.0000000e+00 
0.0000000e+00 3.0000001e-01 0.0000000e+00 
0.0000000e+00 2.0000000e-01 0.0000000e+00 
0.0000000e+00 1.0000000e-01 0.0000000e+00 
4.3499999e+00 8.6602539e-02 0.0000000e+00 
2.2500000e+00 9.1339743e-01 0.0000000e+00 
4.0500002e+00 9.1339743e-01 0.0000000e+00 
2.7500000e+00 8.3308272e-02 0.0000000e+00 
3.2500000e+00 8.6602539e-02 0.0000000e+00 
3.7500000e+00 8.6602539e-02 0.0000000e+00 
1.2500000e+00 9.1339743e-01 0.0000000e+00 
1.7500000e+00 9.1339743e-01 0.0000000e+00 
9.4999999e-01 9.1339743e-01 0.0000000e+00 
5.5000001e-01 9.1339743e-01 0.0000000e+00 
7.5000000e-01 8.3308272e-02 0.0000000e+00 
1.4524696e+00 8.1907488e-02 0.0000000e+00 
1.9500000e+00 8.6602539e-02 0.0000000e+00 
3.4500000e+00 9.1339743e-01 0.0000000e+00 
2.9500000e+00 9.1339743e-01 0.0000000e+00 
2.4500000e+00 8.6602539e-02 0.0000000e+00 
4.4499998e+00 9.1339743e-01 0.0000000e+00 
2.6500001e+00 9.1339743e-01 0.0000000e+00 
1.1500000e+00 8.6602539e-02 0.0000000e+00 
4.0517640e+00 7.8262508e-02 0.0000000e+00 
3.7500000e+00 9.1339743e-01 0.0000000e+00 
9.5000088e-02 4.6391028e-01 0.0000000e+00 
4.9059730e+00 4.6363035e-01 0.0000000e+00 
4.5246965e-01 8.1907488e-02 0.0000000e+00 
4.6500001e+00 8.6602539e-02 0.0000000e+00 
4.6500001e+00 9.1339743e-01 0.0000000e+00 
7.5000000e-01 9.1339743e-01 0.0000000e+00 
4.9111457e+00 6.5092021e-01 0.0000000e+00 
2.2500000e+00 8.6602539e-02 0.0000000e+00 
3.2500000e+00 9.1339743e-01 0.0000000e+00 
9.4999999e-01 8.6602539e-02 0.0000000e+00 
2.9500000e+00 8.6602539e-02 0.0000000e+00 
3.4500000e+00 8.6602539e-02 0.0000000e+00 
2.4500000e+00 9.1339743e-01 0.0000000e+00 
1.9500000e+00 9.1339743e-01 0.0000000e+00 
1.5500000e+00 9.1339743e-01 0.0000000e+00 
1.6500000e+00 8.6602539e-02 0.0000000e+00 
3.4999999e-01 9.1339743e-01 0.0000000e+00 
9.0659410e-02 6.5153849e-01 0.0000000e+00 
4.2500000e+00 9.1339743e-01 0.0000000e+00 
2.5402120e-01 7.9592258e-02 0.0000000e+00 
4.9112749e+00 2.5204152e-01 0.0000000e+00 
8.6602539e-02 2.5000000e-01 0.0000000e+00 
4.9094305e+00 8.4081745e-01 0.0000000e+00 
9.0569727e-02 8.4081745e-01 0.0000000e+00 
4.8445559e+00 9.5495284e-02 0.0000000e+00 
3.9500000e+00 9.1339743e-01 0.0000000e+00 
4.0000000e+00 8.2679492e-01 0.0000000e+00 
4.0999999e+00 8.2679492e-01 0.0000000e+00 
4.0500002e+00 7.4019235e-01 0.0000000e+00 
4.1500001e+00 7.4019235e-01 0.0000000e+00 
4.0999999e+00 6.5358984e-01 0.0000000e+00 
4.1999998e+00 6.5358984e-01 0.0000000e+00 
4.0000000e+00 6.5358984e-01 0.0000000e+00 
4.1500001e+00 5.6698728e-01 0.0000000e+00 
4.2500000e+00 5.6698728e-01 0.0000000e+00 
4.1999998e+00 4.8038477e-01 0.0000000e+00 
4.3000002e+00 4.8038477e-01 0.0000000e+00 
4.3499999e+00 5.6698728e-01 0.0000000e+00 
4.4000001e+00 4.8038477e-01 0.0000000e+00 
4.4499998e+00 5.6698728e-01 0.0000000e+00 
4.5000000e+00 4.8038477e-01 0.0000000e+00 
4.0999999e+00 4.8038477e-01 0.0000000e+00 
4.5500002e+00 5.6698728e-01 0.0000000e+00 
4.2500000e+00 3.9378223e-01 0.0000000e+00 
4.4499998e+00 3.9378223e-01 0.0000000e+00 
4.5500002e+00 3.9378223e-01 0.0000000e+00 
4.5024695e+00 3.0860552e-01 0.0000000e+00 
4.5000000e+00 6.5358984e-01 0.0000000e+00 
4.5999999e+00 6.5358984e-01 0.0000000e+00 
4.6500001e+00 5.6698728e-01 0.0000000e+00 
4.6004114e+00 3.0741730e-01 0.0000000e+00 
4.6999998e+00 6.5358984e-01 0.0000000e+00 
4.5500002e+00 7.4019235e-01 0.0000000e+00 
4.4499998e+00 7.4019235e-01 0.0000000e+00 
4.4028811e+00 3.1213742e-01 0.0000000e+00 
3.9000001e+00 8.2679492e-01 0.0000000e+00 
4.2500000e+00 7.4019235e-01 0.0000000e+00 
4.6500688e+00 3.9382184e-01 0.0000000e+00 
4.7000799e+00 3.0722588e-01 0.0000000e+00 
4.7507491e+00 5.6669539e-01 0.0000000e+00 
4.5510750e+00 2.2357146e-01 0.0000000e+00 
4.7483096e+00 3.9479813e-01 0.0000000e+00 
4.8143229e+00 3.0351433e-01 0.0000000e+00 
4.7489839e+00 2.2150035e-01 0.0000000e+00 
4.8026423e+00 6.5280432e-01 0.0000000e+00 
4.7504406e+00 7.4006146e-01 0.0000000e+00 
4.8507943e+00 7.4260241e-01 0.0000000e+00 
4.8009601e+00 8.2998371e-01 0.0000000e+00 
4.8518200e+00 5.6202388e-01 0.0000000e+00 
4.8002234e+00 4.7973469e-01 0.0000000e+00 
4.7002335e+00 8.2730454e-01 0.0000000e+00 
4.6500239e+00 2.2246142e-01 0.0000000e+00 
4.5000000e+00 8.2679492e-01 0.0000000e+00 
4.4000001e+00 8.2679492e-01 0.0000000e+00 
4.6000390e+00 8.2687986e-01 0.0000000e+00 
4.6501188e+00 7.4026966e-01 0.0000000e+00 
4.1999998e+00 8.2679492e-01 0.0000000e+00 
4.1500001e+00 9.1339743e-01 0.0000000e+00 
4.1500001e+00 3.9378223e-01 0.0000000e+00 
4.0500002e+00 3.9378223e-01 0.0000000e+00 
4.1999998e+00 3.0717969e-01 0.0000000e+00 
4.0000000e+00 4.8038477e-01 0.0000000e+00 
3.9500000e+00 3.9378223e-01 0.0000000e+00 
3.9000001e+00 4.8038477e-01 0.0000000e+00 
3.8499999e+00 3.9378223e-01 0.0000000e+00 
3.8000000e+00 4.8038477e-01 0.0000000e+00 
3.7500000e+00 3.9378223e-01 0.0000000e+00 
3.7000000e+00 4.8038477e-01 0.0000000e+00 
3.6500001e+00 3.9378223e-01 0.0000000e+00 
[...]
POINT_DATA 663
FIELD FieldData 2
DISPLACEMENT 3 663  float
0.0000000e+00 0.0000000e+00 0.0000000e+00 
0.0000000e+00 0.0000000e+00 0.0000000e+00 
0.0000000e+00 -9.7378503e-08 0.0000000e+00 
0.0000000e+00 1.9698822e-07 0.0000000e+00 
0.0000000e+00 0.0000000e+00 0.0000000e+00 
0.0000000e+00 0.0000000e+00 0.0000000e+00 
0.0000000e+00 0.0000000e+00 0.0000000e+00 
0.0000000e+00 0.0000000e+00 0.0000000e+00 
0.0000000e+00 0.0000000e+00 0.0000000e+00 
0.0000000e+00 0.0000000e+00 0.0000000e+00 
0.0000000e+00 0.0000000e+00 0.0000000e+00 
0.0000000e+00 0.0000000e+00 0.0000000e+00 
0.0000000e+00 0.0000000e+00 0.0000000e+00 
0.0000000e+00 0.0000000e+00 0.0000000e+00 
0.0000000e+00 0.0000000e+00 0.0000000e+00 
0.0000000e+00 0.0000000e+00 0.0000000e+00 
0.0000000e+00 0.0000000e+00 0.0000000e+00 
0.0000000e+00 0.0000000e+00 0.0000000e+00 
0.0000000e+00 0.0000000e+00 0.0000000e+00 
0.0000000e+00 0.0000000e+00 0.0000000e+00 
0.0000000e+00 0.0000000e+00 0.0000000e+00 
0.0000000e+00 0.0000000e+00 0.0000000e+00 
0.0000000e+00 0.0000000e+00 0.0000000e+00 
0.0000000e+00 0.0000000e+00 0.0000000e+00 
0.0000000e+00 0.0000000e+00 0.0000000e+00 
0.0000000e+00 0.0000000e+00 0.0000000e+00 
0.0000000e+00 0.0000000e+00 0.0000000e+00 
0.0000000e+00 0.0000000e+00 0.0000000e+00 
0.0000000e+00 0.0000000e+00 0.0000000e+00 
0.0000000e+00 0.0000000e+00 0.0000000e+00 
0.0000000e+00 0.0000000e+00 0.0000000e+00 
0.0000000e+00 0.0000000e+00 0.0000000e+00 
0.0000000e+00 0.0000000e+00 0.0000000e+00 
0.0000000e+00 0.0000000e+00 0.0000000e+00 
0.0000000e+00 0.0000000e+00 0.0000000e+00 
0.0000000e+00 0.0000000e+00 0.0000000e+00 
0.0000000e+00 0.0000000e+00 0.0000000e+00 
0.0000000e+00 0.0000000e+00 0.0000000e+00 
0.0000000e+00 0.0000000e+00 0.0000000e+00 
0.0000000e+00 0.0000000e+00 0.0000000e+00 
0.0000000e+00 0.0000000e+00 0.0000000e+00 
0.0000000e+00 0.0000000e+00 0.0000000e+00 
0.0000000e+00 0.0000000e+00 0.0000000e+00 
0.0000000e+00 0.0000000e+00 0.0000000e+00 
0.0000000e+00 0.0000000e+00 0.0000000e+00 
0.0000000e+00 0.0000000e+00 0.0000000e+00 
0.0000000e+00 0.0000000e+00 0.0000000e+00 
0.0000000e+00 0.0000000e+00 0.0000000e+00 
0.0000000e+00 0.0000000e+00 0.0000000e+00 
0.0000000e+00 0.0000000e+00 0.0000000e+00 
0.0000000e+00 0.0000000e+00 0.0000000e+00 
0.0000000e+00 0.0000000e+00 0.0000000e+00 
0.0000000e+00 0.0000000e+00 0.0000000e+00 
0.0000000e+00 -1.6476225e-08 0.0000000e+00 
0.0000000e+00 -3.3090888e-08 0.0000000e+00 
0.0000000e+00 -4.9743441e-08 0.0000000e+00 
0.0000000e+00 -6.5629870e-08 0.0000000e+00 
0.0000000e+00 -7.9301145e-08 0.0000000e+00 
0.0000000e+00 -8.9581818e-08 0.0000000e+00 
0.0000000e+00 -9.5561752e-08 0.0000000e+00 
0.0000000e+00 -9.7596214e-08 0.0000000e+00 
0.0000000e+00 -9.7440015e-08 0.0000000e+00 
-6.6501897e-09 -1.0155907e-07 0.0000000e+00 
-1.7128693e-08 -1.1585639e-07 0.0000000e+00 
-3.3016189e-08 -1.5356805e-07 0.0000000e+00 
-4.7432795e-08 -2.4187437e-07 0.0000000e+00 
-2.1809969e-08 -4.8364308e-07 0.0000000e+00 
4.4988568e-08 -5.1180933e-07 0.0000000e+00 
8.5309011e-08 -2.9915589e-07 0.0000000e+00 
9.1165589e-08 -2.2284740e-07 0.0000000e+00 
9.3636707e-08 -1.7656984e-07 0.0000000e+00 
9.3833549e-08 -1.4092733e-07 0.0000000e+00 
8.9867150e-08 -1.1397181e-07 0.0000000e+00 
8.2007162e-08 -9.7191624e-08 0.0000000e+00 
7.1891677e-08 -8.9350593e-08 0.0000000e+00 
6.0123824e-08 -8.6496023e-08 0.0000000e+00 
4.5298684e-08 -8.6209354e-08 0.0000000e+00 
2.5685450e-08 -9.1127781e-08 0.0000000e+00 
1.6330116e-09 -1.0725105e-07 0.0000000e+00 
-2.4622819e-08 -1.3870992e-07 0.0000000e+00 
-5.1769014e-08 -1.8620869e-07 0.0000000e+00 
-8.0472759e-08 -2.5159329e-07 0.0000000e+00 
-1.1088446e-07 -3.4066920e-07 0.0000000e+00 
-1.4182383e-07 -4.6111745e-07 0.0000000e+00 
-1.7213189e-07 -6.3108172e-07 0.0000000e+00 
-1.8678958e-07 -9.1452995e-07 0.0000000e+00 
-8.0554919e-08 -1.6109282e-06 0.0000000e+00 
1.3518361e-07 -1.6210848e-06 0.0000000e+00 
2.4503507e-07 -8.8692548e-07 0.0000000e+00 
2.2601576e-07 -5.6435459e-07 0.0000000e+00 
1.7832379e-07 -3.5659087e-07 0.0000000e+00 
1.1884533e-07 -2.1710791e-07 0.0000000e+00 
5.6692844e-08 -1.4109082e-07 0.0000000e+00 
6.0900547e-09 -1.2143441e-07 0.0000000e+00 
-1.9586757e-08 -1.3274128e-07 0.0000000e+00 
-2.1387969e-08 -1.3660060e-07 0.0000000e+00 
-1.3640316e-08 -1.1091971e-07 0.0000000e+00 
-1.6597028e-08 -6.4451939e-08 0.0000000e+00 
-3.0252803e-08 -3.4315534e-08 0.0000000e+00 
-3.5778697e-08 -3.2201818e-08 0.0000000e+00 
-2.3548427e-08 -3.3451034e-08 0.0000000e+00 
-3.1843876e-09 -1.6311629e-08 0.0000000e+00 
1.3671679e-08 1.5073239e-08 0.0000000e+00 
2.5001089e-08 5.4391176e-08 0.0000000e+00 
2.4879833e-08 1.0199523e-07 0.0000000e+00 
9.1127461e-09 1.3159689e-07 0.0000000e+00 
2.3082107e-10 1.2859125e-07 0.0000000e+00 
8.5871230e-09 1.3263883e-07 0.0000000e+00 
1.3839221e-08 1.4092639e-07 0.0000000e+00 
2.0175891e-08 1.6046874e-07 0.0000000e+00 
1.5110436e-08 1.8354939e-07 0.0000000e+00 
0.0000000e+00 1.8835455e-07 0.0000000e+00 
0.0000000e+00 1.7958111e-07 0.0000000e+00 
0.0000000e+00 1.6024657e-07 0.0000000e+00 
0.0000000e+00 1.4046428e-07 0.0000000e+00 
0.0000000e+00 1.1696199e-07 0.0000000e+00 
0.0000000e+00 8.8702180e-08 0.0000000e+00 
0.0000000e+00 6.0166379e-08 0.0000000e+00 
0.0000000e+00 3.5492864e-08 0.0000000e+00 
0.0000000e+00 1.6001309e-08 0.0000000e+00 
2.4546236e-09 -2.2525072e-08 0.0000000e+00 
2.3355362e-08 -6.9239286e-07 0.0000000e+00 
6.5054067e-08 -1.5730555e-07 0.0000000e+00 
1.8518874e-08 -4.8272010e-08 0.0000000e+00 
2.6226306e-08 -2.2502199e-08 0.0000000e+00 
1.0004771e-08 -1.7514568e-08 0.0000000e+00 
-4.5533575e-08 -3.1304531e-08 0.0000000e+00 
-1.8847498e-08 -1.2237969e-07 0.0000000e+00 
-1.7443444e-08 -3.7094650e-09 0.0000000e+00 
-4.7708997e-09 1.3138563e-07 0.0000000e+00 
-2.0581590e-08 2.6533056e-09 0.0000000e+00 
-2.6378624e-08 -1.4397838e-08 0.0000000e+00 
-3.2619859e-08 -3.2554858e-08 0.0000000e+00 
4.2832895e-08 -8.3848356e-08 0.0000000e+00 
-1.9275181e-08 -2.8769787e-07 0.0000000e+00 
-6.2489791e-09 -5.7131487e-08 0.0000000e+00 
2.4129669e-08 -4.0494015e-07 0.0000000e+00 
7.2816846e-09 -7.4085790e-07 0.0000000e+00 
-2.8104708e-08 -5.0609548e-09 0.0000000e+00 
1.7642369e-09 -2.0765249e-08 0.0000000e+00 
6.9642205e-08 -9.0424273e-08 0.0000000e+00 
-1.2126754e-08 1.0425620e-07 0.0000000e+00 
4.1922923e-09 -7.6121431e-08 0.0000000e+00 
-1.1444358e-08 1.7888055e-08 0.0000000e+00 
1.7406364e-09 -1.7132312e-08 0.0000000e+00 
1.7738675e-08 -1.8576571e-07 0.0000000e+00 
-4.0157708e-09 7.6573080e-08 0.0000000e+00 
8.8645171e-09 -9.5456379e-08 0.0000000e+00 
-2.3890131e-08 -5.1648737e-08 0.0000000e+00 
1.6339539e-08 -1.1691036e-07 0.0000000e+00 
-2.4843816e-08 -5.0336673e-09 0.0000000e+00 
2.6931788e-08 -3.8085410e-08 0.0000000e+00 
2.1633927e-08 -1.7987974e-08 0.0000000e+00 
2.0969351e-08 -1.3400228e-06 0.0000000e+00 
1.9310079e-08 -1.6617304e-07 0.0000000e+00 
-3.8462929e-08 -1.2614896e-07 0.0000000e+00 
-2.5307385e-08 -2.0461986e-08 0.0000000e+00 
3.5747068e-09 1.3496302e-07 0.0000000e+00 
-5.0113913e-09 1.4500881e-07 0.0000000e+00 
3.7207510e-08 -2.5220564e-07 0.0000000e+00 
-7.3447302e-09 1.6028936e-08 0.0000000e+00 
7.8617246e-10 -4.2300410e-08 0.0000000e+00 
-9.6263859e-09 4.7501086e-08 0.0000000e+00 
7.0383397e-09 -1.0004124e-07 0.0000000e+00 
-1.0188129e-09 1.8112883e-07 0.0000000e+00 
6.7392592e-10 -1.6400957e-08 0.0000000e+00 
7.0764784e-08 -1.2559408e-07 0.0000000e+00 
4.9669367e-08 -1.3912553e-07 0.0000000e+00 
3.8309931e-08 -1.7281833e-07 0.0000000e+00 
3.2107494e-08 -1.5001807e-07 0.0000000e+00 
2.0738790e-08 -1.8137239e-07 0.0000000e+00 
2.0570983e-08 -1.5347530e-07 0.0000000e+00 
1.3328242e-08 -1.7690712e-07 0.0000000e+00 
3.0275224e-08 -1.2907614e-07 0.0000000e+00 
1.4350818e-08 -1.4663370e-07 0.0000000e+00 
1.1726229e-08 -1.5861207e-07 0.0000000e+00 
1.0993944e-08 -1.3020195e-07 0.0000000e+00 
1.0660876e-08 -1.3287723e-07 0.0000000e+00 
1.3968728e-08 -1.6139471e-07 0.0000000e+00 
1.2621739e-08 -1.2836918e-07 0.0000000e+00 
1.9143885e-08 -1.5395186e-07 0.0000000e+00 
1.4960703e-08 -1.1834901e-07 0.0000000e+00 
1.4432461e-08 -1.2050620e-07 0.0000000e+00 
2.3363281e-08 -1.3855295e-07 0.0000000e+00 
8.4316172e-09 -1.0782682e-07 0.0000000e+00 
9.4822399e-09 -9.8158210e-08 0.0000000e+00 
9.8064623e-09 -8.9045813e-08 0.0000000e+00 
6.3496524e-09 -7.1714545e-08 0.0000000e+00 
2.8986838e-08 -1.8192557e-07 0.0000000e+00 
3.3585227e-08 -1.5583075e-07 0.0000000e+00 
2.3401888e-08 -1.1991010e-07 0.0000000e+00 
5.6697398e-09 -6.4642094e-08 0.0000000e+00 
2.9639068e-08 -1.2765834e-07 0.0000000e+00 
4.1178303e-08 -2.0809638e-07 0.0000000e+00 
2.8140894e-08 -2.3891303e-07 0.0000000e+00 
6.5101240e-09 -7.9367915e-08 0.0000000e+00 
5.7845604e-08 -1.1252703e-07 0.0000000e+00 
1.1854045e-08 -2.1538125e-07 0.0000000e+00 
8.9884322e-09 -7.9984758e-08 0.0000000e+00 
4.4356234e-09 -5.8687203e-08 0.0000000e+00 
1.8749228e-08 -1.0319519e-07 0.0000000e+00 
4.1188462e-09 -4.8863036e-08 0.0000000e+00 
7.0939996e-09 -7.2924642e-08 0.0000000e+00 
2.5724116e-09 -5.3262802e-08 0.0000000e+00 
2.1275186e-09 -4.0451550e-08 0.0000000e+00 
2.0032898e-08 -1.0652083e-07 0.0000000e+00 
2.8869170e-08 -1.2487766e-07 0.0000000e+00 
1.6473075e-08 -1.0541060e-07 0.0000000e+00 
1.8340454e-08 -1.1500425e-07 0.0000000e+00 
1.1236163e-08 -9.1836370e-08 0.0000000e+00 
1.0010276e-08 -8.4113921e-08 0.0000000e+00 
3.1794229e-08 -1.4955360e-07 0.0000000e+00 
3.2010017e-09 -4.4096097e-08 0.0000000e+00 
4.0746340e-08 -2.8694237e-07 0.0000000e+00 
1.6527288e-08 -3.0693664e-07 0.0000000e+00 
4.5859505e-08 -2.1664788e-07 0.0000000e+00 
4.0160369e-08 -1.6237982e-07 0.0000000e+00 
2.4227557e-08 -2.1412343e-07 0.0000000e+00 
5.4520651e-08 -1.9716330e-07 0.0000000e+00 
9.8536841e-09 -1.0480692e-07 0.0000000e+00 
1.3536795e-08 -9.6172990e-08 0.0000000e+00 
6.5917827e-09 -8.3987103e-08 0.0000000e+00 
2.0566210e-08 -1.0583135e-07 0.0000000e+00 
1.9585595e-08 -8.3815834e-08 0.0000000e+00 
2.8471879e-08 -8.9389083e-08 0.0000000e+00 
2.7723516e-08 -7.0884774e-08 0.0000000e+00 
3.7355957e-08 -7.4749970e-08 0.0000000e+00 
3.7466581e-08 -6.0706938e-08 0.0000000e+00 
4.6765500e-08 -6.4910687e-08 0.0000000e+00 
4.8225157e-08 -5.5619164e-08 0.0000000e+00 
5.6641813e-08 -6.1468036e-08 0.0000000e+00 
5.9378817e-08 -5.6403852e-08 0.0000000e+00 
6.7072889e-08 -6.4751141e-08 0.0000000e+00 
7.0257293e-08 -6.2735360e-08 0.0000000e+00 
7.7783575e-08 -7.4664420e-08 0.0000000e+00 
7.9699440e-08 -7.3812473e-08 0.0000000e+00 
8.7830294e-08 -9.1328779e-08 0.0000000e+00 
8.7502400e-08 -9.0603095e-08 0.0000000e+00 
9.6205497e-08 -1.1526744e-07 0.0000000e+00 
9.2320548e-08 -1.1310239e-07 0.0000000e+00 
1.0200682e-07 -1.4660650e-07 0.0000000e+00 
9.3678047e-08 -1.4039439e-07 0.0000000e+00 
1.0475426e-07 -1.8567295e-07 0.0000000e+00 
9.2031726e-08 -1.7409477e-07 0.0000000e+00 
1.0353124e-07 -2.3332436e-07 0.0000000e+00 
8.5832184e-08 -2.1291535e-07 0.0000000e+00 
9.5763227e-08 -2.8825551e-07 0.0000000e+00 
7.2541788e-08 -2.5332753e-07 0.0000000e+00 
7.7811606e-08 -3.4376157e-07 0.0000000e+00 
4.9980827e-08 -2.8855192e-07 0.0000000e+00 
4.7555044e-08 -3.8762499e-07 0.0000000e+00 
1.9083245e-08 -3.1076280e-07 0.0000000e+00 
7.2125186e-09 -4.0799236e-07 0.0000000e+00 
-1.6300374e-08 -3.1422962e-07 0.0000000e+00 
-3.6728295e-08 -3.9946300e-07 0.0000000e+00 
-4.9960942e-08 -3.0051882e-07 0.0000000e+00 
-7.5565865e-08 -3.6426758e-07 0.0000000e+00 
-7.8943913e-08 -2.7223209e-07 0.0000000e+00 
-1.0218415e-07 -3.0917076e-07 0.0000000e+00 
-9.8216070e-08 -2.2769981e-07 0.0000000e+00 
-1.1391614e-07 -2.4482517e-07 0.0000000e+00 
-1.0616023e-07 -1.7896912e-07 0.0000000e+00 
-1.1478523e-07 -1.8397721e-07 0.0000000e+00 
-1.0663442e-07 -1.3612630e-07 0.0000000e+00 
-1.1087290e-07 -1.3696670e-07 0.0000000e+00 
-1.0331363e-07 -1.0418374e-07 0.0000000e+00 
-1.0714519e-07 -1.0756594e-07 0.0000000e+00 
-9.9283049e-08 -8.5639144e-08 0.0000000e+00 
-1.0585629e-07 -9.2823363e-08 0.0000000e+00 
-9.5556288e-08 -7.7384094e-08 0.0000000e+00 
-1.0515580e-07 -8.4558067e-08 0.0000000e+00 
-9.1597357e-08 -7.1903543e-08 0.0000000e+00 
-1.0146518e-07 -7.4446113e-08 0.0000000e+00 
-8.6832593e-08 -6.2300714e-08 0.0000000e+00 
-9.3910693e-08 -6.0108746e-08 0.0000000e+00 
-8.2283840e-08 -4.8402079e-08 0.0000000e+00 
-8.5828610e-08 -4.6182304e-08 0.0000000e+00 
-8.0282469e-08 -3.5588570e-08 0.0000000e+00 
-8.1945934e-08 -3.7008430e-08 0.0000000e+00 
-8.2448672e-08 -2.6901111e-08 0.0000000e+00 
-8.3519723e-08 -2.8790611e-08 0.0000000e+00 
-8.6690434e-08 -1.8294349e-08 0.0000000e+00 
-8.6698364e-08 -1.3337109e-08 0.0000000e+00 
-8.7941089e-08 -3.7511696e-09 0.0000000e+00 
-8.6551815e-08 1.0712311e-08 0.0000000e+00 
-8.2864346e-08 1.6302721e-08 0.0000000e+00 
-8.1397012e-08 3.5081133e-08 0.0000000e+00 
-7.2853304e-08 3.4669497e-08 0.0000000e+00 
-7.1799299e-08 5.1709954e-08 0.0000000e+00 
-6.1344799e-08 4.5905828e-08 0.0000000e+00 
-5.8299978e-08 6.1530649e-08 0.0000000e+00 
-5.0302223e-08 5.2733157e-08 0.0000000e+00 
-4.3442764e-08 7.0179645e-08 0.0000000e+00 
-4.0037072e-08 6.0458270e-08 0.0000000e+00 
5.3838949e-08 -6.8218327e-08 0.0000000e+00 
8.0021174e-08 -8.6972349e-08 0.0000000e+00 
1.0642290e-07 -1.8448654e-07 0.0000000e+00 
1.0283992e-07 -3.8005336e-07 0.0000000e+00 
4.0746222e-08 -5.0436495e-07 0.0000000e+00 
-6.4508349e-08 -4.8402114e-07 0.0000000e+00 
-1.1819139e-07 -2.4179758e-07 0.0000000e+00 
-1.0448485e-07 -1.3120815e-07 0.0000000e+00 
-1.0522637e-07 -9.9645263e-08 0.0000000e+00 
-9.4581864e-08 -5.3152640e-08 0.0000000e+00 
-7.7993626e-08 -2.5362713e-08 0.0000000e+00 
-7.7292256e-08 2.8316956e-08 0.0000000e+00 
-6.0712651e-08 7.0713526e-08 0.0000000e+00 
-3.2400592e-08 7.8992777e-08 0.0000000e+00 
-3.2777173e-08 8.9695220e-08 0.0000000e+00 
-3.1780395e-08 6.9270001e-08 0.0000000e+00 
-4.5901672e-08 4.0435125e-08 0.0000000e+00 
-7.3650313e-08 -3.3460655e-08 0.0000000e+00 
-8.6932566e-08 -7.7404167e-08 0.0000000e+00 
-8.9893831e-08 -1.6277535e-07 0.0000000e+00 
2.6249253e-08 -2.2400373e-07 0.0000000e+00 
8.0725556e-08 -1.0269657e-07 0.0000000e+00 
4.7670763e-08 -4.7627776e-08 0.0000000e+00 
1.8344247e-08 -6.3263364e-08 0.0000000e+00 
-2.7711490e-08 9.5194444e-08 0.0000000e+00 
-2.5178370e-08 1.0293630e-07 0.0000000e+00 
-3.5153491e-08 5.2692968e-08 0.0000000e+00 
-7.6156972e-08 2.2534874e-10 0.0000000e+00 
-7.8322635e-08 -1.6820698e-08 0.0000000e+00 
-7.6802586e-08 -6.3100231e-08 0.0000000e+00 
-3.0293563e-08 -2.3043724e-07 0.0000000e+00 
7.3633018e-08 -1.5053580e-07 0.0000000e+00 
6.7073799e-08 -5.7769626e-08 0.0000000e+00 
-1.9413108e-08 1.1176476e-07 0.0000000e+00 
-2.9388080e-08 5.7924364e-08 0.0000000e+00 
-3.0530579e-08 1.0216144e-07 0.0000000e+00 
3.8189047e-08 -9.0489927e-08 0.0000000e+00 
-1.9676063e-08 1.1234225e-07 0.0000000e+00 
-2.5073328e-08 1.1470905e-07 0.0000000e+00 
-2.3436248e-08 1.0660141e-07 0.0000000e+00 
-2.6944040e-08 4.2751743e-08 0.0000000e+00 
-2.5439292e-08 7.6874890e-08 0.0000000e+00 
-3.0148176e-08 4.1343867e-08 0.0000000e+00 
-2.2492866e-08 4.3114358e-08 0.0000000e+00 
-1.1586372e-08 1.2964659e-07 0.0000000e+00 
-6.3479049e-09 1.3318825e-07 0.0000000e+00 
-5.5686677e-09 1.5252677e-07 0.0000000e+00 
-3.3071272e-09 1.5208073e-07 0.0000000e+00 
-1.5731331e-08 1.2075259e-07 0.0000000e+00 
-2.0632775e-08 6.0036918e-08 0.0000000e+00 
-1.3345155e-08 1.1701479e-07 0.0000000e+00 
8.2730063e-09 -8.0486437e-08 0.0000000e+00 
4.7701136e-09 -6.0584057e-08 0.0000000e+00 
4.6220840e-09 -6.2709510e-08 0.0000000e+00 
6.5266166e-09 -5.8068572e-08 0.0000000e+00 
3.0678722e-09 -4.1552550e-08 0.0000000e+00 
-7.9813383e-08 -1.0815818e-08 0.0000000e+00 
-6.3346860e-08 -1.0594660e-08 0.0000000e+00 
-6.3310310e-08 -1.2800132e-08 0.0000000e+00 
-6.1085750e-08 -7.6762134e-09 0.0000000e+00 
-5.5366773e-08 4.9057541e-10 0.0000000e+00 
3.7766569e-08 -3.0831333e-07 0.0000000e+00 
2.2712117e-09 -1.8863258e-08 0.0000000e+00 
2.4659128e-09 -1.9994697e-08 0.0000000e+00 
3.7789256e-09 -3.9943892e-08 0.0000000e+00 
8.6873149e-09 -1.0535274e-07 0.0000000e+00 
7.7374196e-09 -1.2960992e-07 0.0000000e+00 
-8.3993299e-08 -4.2783849e-08 0.0000000e+00 
-8.7693351e-08 -4.4704851e-08 0.0000000e+00 
-9.9129949e-08 -6.1302835e-08 0.0000000e+00 
-7.6265430e-08 -3.9922760e-08 0.0000000e+00 
-8.4822062e-08 -4.8842420e-08 0.0000000e+00 
-8.9729284e-08 -7.7666421e-08 0.0000000e+00 
-1.0294194e-07 -8.6099064e-08 0.0000000e+00 
-8.4146620e-08 -1.0798470e-07 0.0000000e+00 
-6.9391184e-08 -6.2221780e-08 0.0000000e+00 
-7.3606941e-08 -3.8101511e-08 0.0000000e+00 
-6.3347777e-08 -3.8037857e-08 0.0000000e+00 
-6.9675622e-08 -3.4625170e-08 0.0000000e+00 
-5.6580859e-08 -2.8397810e-08 0.0000000e+00 
-4.7277645e-08 -3.5894704e-08 0.0000000e+00 
-6.6895382e-08 -1.5790080e-08 0.0000000e+00 
-5.2073215e-08 -2.2195270e-09 0.0000000e+00 
-6.5287615e-08 1.4649510e-08 0.0000000e+00 
-4.8972666e-08 3.1709540e-08 0.0000000e+00 
-6.2934831e-08 4.6435183e-08 0.0000000e+00 
-4.5055707e-08 6.7819073e-08 0.0000000e+00 
-5.5921795e-08 7.4413563e-08 0.0000000e+00 
2.4274811e-08 -1.9776744e-08 0.0000000e+00 
4.6442246e-08 -4.0012822e-08 0.0000000e+00 
4.9736677e-08 -4.7857569e-08 0.0000000e+00 
6.4552125e-08 -6.0597763e-08 0.0000000e+00 
4.2990973e-08 -3.5487318e-08 0.0000000e+00 
3.5598312e-08 -3.0512272e-08 0.0000000e+00 
-7.2109458e-08 5.3241294e-08 0.0000000e+00 
-8.8317780e-09 3.1858800e-08 0.0000000e+00 
-3.2935796e-09 1.2083062e-07 0.0000000e+00 
-7.8640490e-08 -1.2589705e-09 0.0000000e+00 
-1.5727737e-08 -5.5428718e-08 0.0000000e+00 
-3.5896999e-08 -1.1016697e-07 0.0000000e+00 
-4.9499988e-08 -1.0138989e-07 0.0000000e+00 
-5.6433311e-08 -1.5824065e-07 0.0000000e+00 
1.7001759e-09 -5.8666721e-08 0.0000000e+00 
1.1023988e-08 -3.5177905e-07 0.0000000e+00 
-3.1582289e-08 -1.3482379e-07 0.0000000e+00 
-4.5197954e-08 -1.2598571e-07 0.0000000e+00 
-3.6702232e-08 -1.2017576e-07 0.0000000e+00 
-6.5943375e-08 -1.2110122e-07 0.0000000e+00 
-6.6283796e-08 -1.3315048e-07 0.0000000e+00 
7.0177244e-08 -7.2925111e-08 0.0000000e+00 
6.8159125e-08 -8.1298303e-08 0.0000000e+00 
7.6032336e-08 -1.0013802e-07 0.0000000e+00 
6.2212969e-08 -7.2496910e-08 0.0000000e+00 
6.0036307e-08 -9.0449362e-08 0.0000000e+00 
6.4061361e-08 -1.1502468e-07 0.0000000e+00 
8.4945015e-08 -1.3034243e-07 0.0000000e+00 
6.9593220e-08 -1.5311998e-07 0.0000000e+00 
-3.5951466e-08 1.0067259e-07 0.0000000e+00 
-7.8443406e-08 -3.7209105e-08 0.0000000e+00 
6.3699948e-09 -8.4456474e-08 0.0000000e+00 
-7.3541131e-08 -4.6834423e-08 0.0000000e+00 
-6.1190981e-08 -2.9177981e-08 0.0000000e+00 
-6.0722556e-08 -4.1060957e-08 0.0000000e+00 
2.9829806e-08 -9.3423509e-08 0.0000000e+00 
-3.1015084e-08 -1.0898931e-06 0.0000000e+00 
-8.1609130e-08 -7.8682052e-07 0.0000000e+00 
-6.6217417e-08 -5.3414311e-07 0.0000000e+00 
-1.0710243e-07 -5.8148311e-07 0.0000000e+00 
-1.0434808e-07 -4.0867968e-07 0.0000000e+00 
-7.4258715e-08 -7.4095436e-07 0.0000000e+00 
-4.9475169e-08 -3.4533610e-07 0.0000000e+00 
-9.0790458e-08 -2.7128814e-07 0.0000000e+00 
-1.1747695e-07 -4.3460207e-07 0.0000000e+00 
-3.8526732e-08 -9.9433385e-07 0.0000000e+00 
5.7833276e-08 -1.0046235e-06 0.0000000e+00 
2.4823468e-10 -8.1195140e-07 0.0000000e+00 
7.3888408e-08 -7.6491767e-07 0.0000000e+00 
9.5897349e-08 -8.2185812e-07 0.0000000e+00 
1.0478117e-07 -6.3322472e-07 0.0000000e+00 
7.5006781e-08 -6.0377948e-07 0.0000000e+00 
1.0243313e-07 -4.8756033e-07 0.0000000e+00 
5.5854890e-08 -4.4634402e-07 0.0000000e+00 
9.3242797e-08 -3.6803149e-07 0.0000000e+00 
4.5364050e-08 -3.2992705e-07 0.0000000e+00 
8.4164327e-08 -2.7525661e-07 0.0000000e+00 
1.0894311e-07 -2.9824685e-07 0.0000000e+00 
4.0844320e-08 -2.4341514e-07 0.0000000e+00 
7.6265231e-08 -2.0539125e-07 0.0000000e+00 
-9.0466683e-09 -2.1181525e-07 0.0000000e+00 
-2.4746322e-08 -3.9102977e-07 0.0000000e+00 
6.6434986e-08 -1.1038925e-06 0.0000000e+00 
5.8289036e-08 -5.1122495e-08 0.0000000e+00 
8.0600451e-08 -4.5359184e-07 0.0000000e+00 
-2.5138480e-08 -1.7870017e-08 0.0000000e+00 
-4.6402842e-08 -3.7920458e-08 0.0000000e+00 
-4.5708674e-08 -3.8844604e-08 0.0000000e+00 
6.3505532e-08 -8.4821842e-08 0.0000000e+00 