# vtk DataFile Version 4.0
vtk output
ASCII
DATASET UNSTRUCTURED_GRID
POINTS 663 float
0.0000000e+00 0.0000000e+00 0.0000000e+00 
5.0000000e+00 0.0000000e+00 0.0000000e+00 
5.0000000e+00 1.0000000e+00 0.0000000e+00 
0.0000000e+00 1.0000000e+00 0.0000000e+00 
1.0000000e-01 0.0000000e+00 0.0000000e+00 
2.0000000e-01 0.0000000e+00 0.0000000e+00 
3.0000001e-01 0.0000000e+00 0.0000000e+00 
4.0000001e-01 0.0000000e+00 0.0000000e+00 
5.0000000e-01 0.0000000e+00 0.0000000e+00 
6.0000002e-01 0.0000000e+00 0.0000000e+00 
6.9999999e-01 0.0000000e+00 0.0000000e+00 
8.0000001e-01 0.0000000e+00 0.0000000e+00 
8.9999998e-01 0.0000000e+00 0.0000000e+00 
1.0000000e+00 0.0000000e+00 0.0000000e+00 
1.1000000e+00 0.0000000e+00 0.0000000e+00 
1.2000000e+00 0.0000000e+00 0.0000000e+00 
1.3000000e+00 0.0000000e+00 0.0000000e+00 
1.4000000e+00 0.0000000e+00 0.0000000e+00 
1.5000000e+00 0.0000000e+00 0.0000000e+00 
1.6000000e+00 0.0000000e+00 0.0000000e+00 
1.7000000e+00 0.0000000e+00 0.0000000e+00 
1.8000000e+00 0.0000000e+00 0.0000000e+00 
1.9000000e+00 0.0000000e+00 0.0000000e+00 
2.0000000e+00 0.0000000e+00 0.0000000e+00 
2.0999999e+00 0.0000000e+00 0.0000000e+00 
2.2000000e+00 0.0000000e+00 0.0000000e+00 
2.3000000e+00 0.0000000e+00 0.0000000e+00 
2.4000001e+00 0.0000000e+00 0.0000000e+00 
2.5000000e+00 0.0000000e+00 0.0000000e+00 
2.5999999e+00 0.0000000e+00 0.0000000e+00 
2.7000000e+00 0.0000000e+00 0.0000000e+00 
2.8000000e+00 0.0000000e+00 0.0000000e+00 
2.9000001e+00 0.0000000e+00 0.0000000e+00 
3.0000000e+00 0.0000000e+00 0.0000000e+00 
3.0999999e+00 0.0000000e+00 0.0000000e+00 
3.2000000e+00 0.0000000e+00 0.0000000e+00 
3.3000000e+00 0.0000000e+00 0.0000000e+00 
3.4000001e+00 0.0000000e+00 0.0000000e+00 
3.5000000e+00 0.0000000e+00 0.0000000e+00 
3.5999999e+00 0.0000000e+00 0.0000000e+00 
3.7000000e+00 0.0000000e+00 0.0000000e+00 
3.8000000e+00 0.0000000e+00 0.0000000e+00 
3.9000001e+00 0.0000000e+00 0.0000000e+00 
4.0000000e+00 0.0000000e+00 0.0000000e+00 
4.0999999e+00 0.0000000e+00 0.0000000e+00 
4.1999998e+00 0.0000000e+00 0.0000000e+00 
4.3000002e+00 0.0000000e+00 0.0000000e+00 
4.4000001e+00 0.0000000e+00 0.0000000e+00 
4.5000000e+00 0.0000000e+00 0.0000000e+00 
4.5999999e+00 0.0000000e+00 0.0000000e+00 
4.6999998e+00 0.0000000e+00 0.0000000e+00 
4.8000002e+00 0.0000000e+00 0.0000000e+00 
4.9000001e+00 0.0000000e+00 0.0000000e+00 
5.0000000e+00 1.0000000e-01 0.0000000e+00 
5.0000000e+00 2.0000000e-01 0.0000000e+00 
5.0000000e+00 3.0000001e-01 0.0000000e+00 
5.0000000e+00 4.0000001e-01 0.0000000e+00 
5.0000000e+00 5.0000000e-01 0.0000000e+00 
5.0000000e+00 6.0000002e-01 0.0000000e+00 
5.0000000e+00 6.9999999e-01 0.0000000e+00 
5.0000000e+00 8.0000001e-01 0.0000000e+00 
5.0000000e+00 8.9999998e-01 0.0000000e+00 
4.9000001e+00 1.0000000e+00 0.0000000e+00 
4.8000002e+00 1.0000000e+00 0.0000000e+00 
4.6999998e+00 1.0000000e+00 0.0000000e+00 
4.5999999e+00 1.0000000e+00 0.0000000e+00 
4.5000000e+00 1.0000000e+00 0.0000000e+00 
4.4000001e+00 1.0000000e+00 0.0000000e+00 
4.3000002e+00 1.0000000e+00 0.0000000e+00 
4.1999998e+00 1.0000000e+00 0.0000000e+00 
4.0999999e+00 1.0000000e+00 0.0000000e+00 
4.0000000e+00 1.0000000e+00 0.0000000e+00 
3.9000001e+00 1.0000000e+00 0.0000000e+00 
3.8000000e+00 1.0000000e+00 0.0000000e+00 
3.7000000e+00 1.0000000e+00 0.0000000e+00 
3.5999999e+00 1.0000000e+00 0.0000000e+00 
3.5000000e+00 1.0000000e+00 0.0000000e+00 
3.4000001e+00 1.0000000e+00 0.0000000e+00 
3.3000000e+00 1.0000000e+00 0.0000000e+00 
3.2000000e+00 1.0000000e+00 0.0000000e+00 
3.0999999e+00 1.0000000e+00 0.0000000e+00 
3.0000000e+00 1.0000000e+00 0.0000000e+00 
2.9000001e+00 1.0000000e+00 0.0000000e+00 
2.8000000e+00 1.0000000e+00 0.0000000e+00 
2.7000000e+00 1.0000000e+00 0.0000000e+00 
2.5999999e+00 1.0000000e+00 0.0000000e+00 
2.5000000e+00 1.0000000e+00 0.0000000e+00 
2.4000001e+00 1.0000000e+00 0.0000000e+00 
2.3000000e+00 1.0000000e+00 0.0000000e+00 
2.2000000e+00 1.0000000e+00 0.0000000e+00 
2.0999999e+00 1.0000000e+00 0.0000000e+00 
2.0000000e+00 1.0000000e+00 0.0000000e+00 
1.9000000e+00 1.0000000e+00 0.0000000e+00 
1.8000000e+00 1.0000000e+00 0.0000000e+00 
1.7000000e+00 1.0000000e+00 0.0000000e+00 
1.6000000e+00 1.0000000e+00 0.0000000e+00 
1.5000000e+00 1.0000000e+00 0.0000000e+00 
1.4000000e+00 1.0000000e+00 0.0000000e+00 
1.3000000e+00 1.0000000e+00 0.0000000e+00 
1.2000000e+00 1.0000000e+00 0.0000000e+00 
1.1000000e+00 1.0000000e+00 0.0000000e+00 
1.0000000e+00 1.0000000e+00 0.0000000e+00 
8.9999998e-01 1.0000000e+00 0.0000000e+00 
8.0000001e-01 1.0000000e+00 0.0000000e+00 
6.9999999e-01 1.0000000e+00 0.0000000e+00 
6.0000002e-01 1.0000000e+00 0.0000000e+00 
5.0000000e-01 1.0000000e+00 0.0000000e+00 
4.0000001e-01 1.0000000e+00 0.0000000e+00 
3.0000001e-01 1.0000000e+00 0.0000000e+00 
2.0000000e-01 1.0000000e+00 0.0000000e+00 
1.0000000e-01 1.0000000e+00 0.0000000e+00 
0.0000000e+00 8.9999998e-01 0.0000000e+00 
0.0000000e+00 8.0000001e-01 0.0000000e+00 
0.0000000e+00 6.9999999e-01 0.0000000e+00 
0.0000000e+00 6.0000002e-01 0.0000000e+00 
0.0000000e+00 5.0000000e-01 0.0000000e+00 
0.0000000e+00 4.0000001e-01 0.0000000e+00 
0.0000000e+00 3.0000001e-01 0.0000000e+00 
0.0000000e+00 2.0000000e-01 0.0000000e+00 
0.0000000e+00 1.0000000e-01 0.0000000e+00 
4.3499999e+00 8.6602539e-02 0.0000000e+00 
2.2500000e+00 9.1339743e-01 0.0000000e+00 
4.0500002e+00 9.1339743e-01 0.0000000e+00 
2.7500000e+00 8.3308272e-02 0.0000000e+00 
3.2500000e+00 8.6602539e-02 0.0000000e+00 
3.7500000e+00 8.6602539e-02 0.0000000e+00 
1.2500000e+00 9.1339743e-01 0.0000000e+00 
1.7500000e+00 9.1339743e-01 0.0000000e+00 
9.4999999e-01 9.1339743e-01 0.0000000e+00 
5.5000001e-01 9.1339743e-01 0.0000000e+00 
7.5000000e-01 8.3308272e-02 0.0000000e+00 
1.4524696e+00 8.1907488e-02 0.0000000e+00 
1.9500000e+00 8.6602539e-02 0.0000000e+00 
3.4500000e+00 9.1339743e-01 0.0000000e+00 
2.9500000e+00 9.1339743e-01 0.0000000e+00 
2.4500000e+00 8.6602539e-02 0.0000000e+00 
4.4499998e+00 9.1339743e-01 0.0000000e+00 
2.6500001e+00 9.1339743e-01 0.0000000e+00 
1.1500000e+00 8.6602539e-02 0.0000000e+00 
4.0517640e+00 7.8262508e-02 0.0000000e+00 
3.7500000e+00 9.1339743e-01 0.0000000e+00 
9.5000088e-02 4.6391028e-01 0.0000000e+00 
4.9059730e+00 4.6363035e-01 0.0000000e+00 
4.5246965e-01 8.1907488e-02 0.0000000e+00 
4.6500001e+00 8.6602539e-02 0.0000000e+00 
4.6500001e+00 9.1339743e-01 0.0000000e+00 
7.5000000e-01 9.1339743e-01 0.0000000e+00 
4.9111457e+00 6.5092021e-01 0.0000000e+00 
2.2500000e+00 8.6602539e-02 0.0000000e+00 
3.2500000e+00 9.1339743e-01 0.0000000e+00 
9.4999999e-01 8.6602539e-02 0.0000000e+00 
2.9500000e+00 8.6602539e-02 0.0000000e+00 
3.4500000e+00 8.6602539e-02 0.0000000e+00 
2.4500000e+00 9.1339743e-01 0.0000000e+00 
1.9500000e+00 9.1339743e-01 0.0000000e+00 
1.5500000e+00 9.1339743e-01 0.0000000e+00 
1.6500000e+00 8.6602539e-02 0.0000000e+00 
3.4999999e-01 9.1339743e-01 0.0000000e+00 
9.0659410e-02 6.5153849e-01 0.0000000e+00 
4.2500000e+00 9.1339743e-01 0.0000000e+00 
2.5402120e-01 7.9592258e-02 0.0000000e+00 
4.9112749e+00 2.5204152e-01 0.0000000e+00 
8.6602539e-02 2.5000000e-01 0.0000000e+00 
4.9094305e+00 8.4081745e-01 0.0000000e+00 
9.0569727e-02 8.4081745e-01 0.0000000e+00 
4.8445559e+00 9.5495284e-02 0.0000000e+00 
3.9500000e+00 9.1339743e-01 0.0000000e+00 
4.0000000e+00 8.2679492e-01 0.0000000e+00 
4.0999999e+00 8.2679492e-01 0.0000000e+00 
4.0500002e+00 7.4019235e-01 0.0000000e+00 
4.1500001e+00 7.4019235e-01 0.0000000e+00 
4.0999999e+00 6.5358984e-01 0.0000000e+00 
4.1999998e+00 6.5358984e-01 0.0000000e+00 
4.0000000e+00 6.5358984e-01 0.0000000e+00 
4.1500001e+00 5.6698728e-01 0.0000000e+00 
4.2500000e+00 5.6698728e-01 0.0000000e+00 
4.1999998e+00 4.8038477e-01 0.0000000e+00 
4.3000002e+00 4.8038477e-01 0.0000000e+00 
4.3499999e+00 5.6698728e-01 0.0000000e+00 
4.4000001e+00 4.8038477e-01 0.0000000e+00 
4.4499998e+00 5.6698728e-01 0.0000000e+00 
4.5000000e+00 4.8038477e-01 0.0000000e+00 
4.0999999e+00 4.8038477e-01 0.0000000e+00 
4.5500002e+00 5.6698728e-01 0.0000000e+00 
4.2500000e+00 3.9378223e-01 0.0000000e+00 
4.4499998e+00 3.9378223e-01 0.0000000e+00 
4.5500002e+00 3.9378223e-01 0.0000000e+00 
4.5024695e+00 3.0860552e-01 0.0000000e+00 
4.5000000e+00 6.5358984e-01 0.0000000e+00 
4.5999999e+00 6.5358984e-01 0.0000000e+00 
4.6500001e+00 5.6698728e-01 0.0000000e+00 
4.6004114e+00 3.0741730e-01 0.0000000e+00 
4.6999998e+00 6.5358984e-01 0.0000000e+00 
4.5500002e+00 7.4019235e-01 0.0000000e+00 
4.4499998e+00 7.4019235e-01 0.0000000e+00 
4.4028811e+00 3.1213742e-01 0.0000000e+00 
3.9000001e+00 8.2679492e-01 0.0000000e+00 
4.2500000e+00 7.4019235e-01 0.0000000e+00 
4.6500688e+00 3.9382184e-01 0.0000000e+00 
4.7000799e+00 3.0722588e-01 0.0000000e+00 
4.7507491e+00 5.6669539e-01 0.0000000e+00 
4.5510750e+00 2.2357146e-01 0.0000000e+00 
4.7483096e+00 3.9479813e-01 0.0000000e+00 
4.8143229e+00 3.0351433e-01 0.0000000e+00 
4.7489839e+00 2.2150035e-01 0.0000000e+00 
4.8026423e+00 6.5280432e-01 0.0000000e+00 
4.7504406e+00 7.4006146e-01 0.0000000e+00 
4.8507943e+00 7.4260241e-01 0.0000000e+00 
4.8009601e+00 8.2998371e-01 0.0000000e+00 
4.8518200e+00 5.6202388e-01 0.0000000e+00 
4.8002234e+00 4.7973469e-01 0.0000000e+00 
4.7002335e+00 8.2730454e-01 0.0000000e+00 
4.6500239e+00 2.2246142e-01 0.0000000e+00 
4.5000000e+00 8.2679492e-01 0.0000000e+00 
4.4000001e+00 8.2679492e-01 0.0000000e+00 
4.6000390e+00 8.2687986e-01 0.0000000e+00 
4.6501188e+00 7.4026966e-01 0.0000000e+00 
4.1999998e+00 8.2679492e-01 0.0000000e+00 
4.1500001e+00 9.1339743e-01 0.0000000e+00 
4.1500001e+00 3.9378223e-01 0.0000000e+00 
4.0500002e+00 3.9378223e-01 0.0000000e+00 
4.1999998e+00 3.0717969e-01 0.0000000e+00 
4.0000000e+00 4.8038477e-01 0.0000000e+00 
3.9500000e+00 3.9378223e-01 0.0000000e+00 
3.9000001e+00 4.8038477e-01 0.0000000e+00 
3.8499999e+00 3.9378223e-01 0.0000000e+00 
3.8000000e+00 4.8038477e-01 0.0000000e+00 
3.7500000e+00 3.9378223e-01 0.0000000e+00 
3.7000000e+00 4.8038477e-01 0.0000000e+00 
3.6500001e+00 3.9378223e-01 0.0000000e+00 
[...]
POINT_DATA 663
FIELD FieldData 2
DISPLACEMENT 3 663  float
0.0000000e+00 0.0000000e+00 0.0000000e+00 
0.0000000e+00 0.0000000e+00 0.0000000e+00 
0.0000000e+00 -4.8538521e-07 0.0000000e+00 
0.0000000e+00 2.2361623e-07 0.0000000e+00 
0.0000000e+00 0.0000000e+00 0.0000000e+00 
0.0000000e+00 0.0000000e+00 0.0000000e+00 
0.0000000e+00 0.0000000e+00 0.0000000e+00 
0.0000000e+00 0.0000000e+00 0.0000000e+00 
0.0000000e+00 0.0000000e+00 0.0000000e+00 
0.0000000e+00 0.0000000e+00 0.0000000e+00 
0.0000000e+00 0.0000000e+00 0.0000000e+00 
0.0000000e+00 0.0000000e+00 0.0000000e+00 
0.0000000e+00 0.0000000e+00 0.0000000e+00 
0.0000000e+00 0.0000000e+00 0.0000000e+00 
0.0000000e+00 0.0000000e+00 0.0000000e+00 
0.0000000e+00 0.0000000e+00 0.0000000e+00 
0.0000000e+00 0.0000000e+00 0.0000000e+00 
0.0000000e+00 0.0000000e+00 0.0000000e+00 
0.0000000e+00 0.0000000e+00 0.0000000e+00 
0.0000000e+00 0.0000000e+00 0.0000000e+00 
0.0000000e+00 0.0000000e+00 0.0000000e+00 
0.0000000e+00 0.0000000e+00 0.0000000e+00 
0.0000000e+00 0.0000000e+00 0.0000000e+00 
0.0000000e+00 0.0000000e+00 0.0000000e+00 
0.0000000e+00 0.0000000e+00 0.0000000e+00 
0.0000000e+00 0.0000000e+00 0.0000000e+00 
0.0000000e+00 0.0000000e+00 0.0000000e+00 
0.0000000e+00 0.0000000e+00 0.0000000e+00 
0.0000000e+00 0.0000000e+00 0.0000000e+00 
0.0000000e+00 0.0000000e+00 0.0000000e+00 
0.0000000e+00 0.0000000e+00 0.0000000e+00 
0.0000000e+00 0.0000000e+00 0.0000000e+00 
0.0000000e+00 0.0000000e+00 0.0000000e+00 
0.0000000e+00 0.0000000e+00 0.0000000e+00 
0.0000000e+00 0.0000000e+00 0.0000000e+00 
0.0000000e+00 0.0000000e+00 0.0000000e+00 
0.0000000e+00 0.0000000e+00 0.0000000e+00 
0.0000000e+00 0.0000000e+00 0.0000000e+00 
0.0000000e+00 0.0000000e+00 0.0000000e+00 
0.0000000e+00 0.0000000e+00 0.0000000e+00 
0.0000000e+00 0.0000000e+00 0.0000000e+00 
0.0000000e+00 0.0000000e+00 0.0000000e+00 
0.0000000e+00 0.0000000e+00 0.0000000e+00 
0.0000000e+00 0.0000000e+00 0.0000000e+00 
0.0000000e+00 0.0000000e+00 0.0000000e+00 
0.0000000e+00 0.0000000e+00 0.0000000e+00 
0.0000000e+00 0.0000000e+00 0.0000000e+00 
0.0000000e+00 0.0000000e+00 0.0000000e+00 
0.0000000e+00 0.0000000e+00 0.0000000e+00 
0.0000000e+00 0.0000000e+00 0.0000000e+00 
0.0000000e+00 0.0000000e+00 0.0000000e+00 
0.0000000e+00 0.0000000e+00 0.0000000e+00 
0.0000000e+00 0.0000000e+00 0.0000000e+00 
0.0000000e+00 -8.2736435e-08 0.0000000e+00 
0.0000000e+00 -1.6472853e-07 0.0000000e+00 
0.0000000e+00 -2.4385358e-07 0.0000000e+00 
0.0000000e+00 -3.1647113e-07 0.0000000e+00 
0.0000000e+00 -3.7871453e-07 0.0000000e+00 
0.0000000e+00 -4.2736005e-07 0.0000000e+00 
0.0000000e+00 -4.6006241e-07 0.0000000e+00 
0.0000000e+00 -4.7851029e-07 0.0000000e+00 
0.0000000e+00 -4.8360943e-07 0.0000000e+00 
-4.1958629e-08 -5.0919300e-07 0.0000000e+00 
-7.9286167e-08 -5.6414905e-07 0.0000000e+00 
-1.2065045e-07 -7.0020656e-07 0.0000000e+00 
-1.3693888e-07 -9.6872816e-07 0.0000000e+00 
-2.8506680e-08 -1.6635070e-06 0.0000000e+00 
1.9026756e-07 -1.6766592e-06 0.0000000e+00 
3.0939552e-07 -9.2704676e-07 0.0000000e+00 
2.9794603e-07 -5.8369653e-07 0.0000000e+00 
2.4906552e-07 -3.7741032e-07 0.0000000e+00 
1.8604362e-07 -2.6500558e-07 0.0000000e+00 
1.3013522e-07 -2.1144081e-07 0.0000000e+00 
9.5680868e-08 -1.7777225e-07 0.0000000e+00 
8.1731521e-08 -1.3853197e-07 0.0000000e+00 
7.5814540e-08 -9.2858173e-08 0.0000000e+00 
6.7013822e-08 -5.5228217e-08 0.0000000e+00 
5.5519152e-08 -3.3900797e-08 0.0000000e+00 
4.8194067e-08 -2.1594881e-08 0.0000000e+00 
4.7386155e-08 -7.0384014e-09 0.0000000e+00 
4.8306585e-08 1.2443707e-08 0.0000000e+00 
4.4946376e-08 3.0957931e-08 0.0000000e+00 
3.5460644e-08 4.1767489e-08 0.0000000e+00 
2.2487118e-08 4.3810619e-08 0.0000000e+00 
8.5440632e-09 3.7915573e-08 0.0000000e+00 
-3.7611807e-09 2.5869584e-08 0.0000000e+00 
-1.0680822e-08 1.5178770e-08 0.0000000e+00 
-1.3009348e-08 1.2110390e-08 0.0000000e+00 
-1.6907638e-08 1.2572477e-08 0.0000000e+00 
-2.6699322e-08 4.9439248e-09 0.0000000e+00 
-3.6919189e-08 -1.1399391e-08 0.0000000e+00 
-4.0544201e-08 -2.5027035e-08 0.0000000e+00 
-3.9899930e-08 -3.2193235e-08 0.0000000e+00 
-3.8744766e-08 -3.8183085e-08 0.0000000e+00 
-3.5575102e-08 -4.2941558e-08 0.0000000e+00 
-3.0024673e-08 -4.4635318e-08 0.0000000e+00 
-2.3970745e-08 -4.7938880e-08 0.0000000e+00 
-1.3412398e-08 -4.8129777e-08 0.0000000e+00 
2.8376343e-09 -3.5674887e-08 0.0000000e+00 
1.5626243e-08 -2.1080202e-08 0.0000000e+00 
2.6085443e-08 -8.2733953e-09 0.0000000e+00 
3.7024613e-08 7.1220447e-09 0.0000000e+00 
4.4763890e-08 1.7047190e-08 0.0000000e+00 
5.6322165e-08 3.1770750e-08 0.0000000e+00 
6.7617904e-08 5.0240697e-08 0.0000000e+00 
7.8370626e-08 7.1511927e-08 0.0000000e+00 
9.0188919e-08 1.0275392e-07 0.0000000e+00 
9.5121727e-08 1.3497792e-07 0.0000000e+00 
9.3856556e-08 1.7182674e-07 0.0000000e+00 
7.6364572e-08 1.9875030e-07 0.0000000e+00 
4.5155829e-08 2.1412519e-07 0.0000000e+00 
0.0000000e+00 2.2055822e-07 0.0000000e+00 
0.0000000e+00 2.0720046e-07 0.0000000e+00 
0.0000000e+00 1.9101155e-07 0.0000000e+00 
0.0000000e+00 1.6518267e-07 0.0000000e+00 
0.0000000e+00 1.3721541e-07 0.0000000e+00 
0.0000000e+00 1.1074870e-07 0.0000000e+00 
0.0000000e+00 8.4434504e-08 0.0000000e+00 
0.0000000e+00 5.7107020e-08 0.0000000e+00 
0.0000000e+00 2.8388529e-08 0.0000000e+00 
-2.5655879e-08 -6.8353806e-08 0.0000000e+00 
-1.4939232e-08 1.1434047e-08 0.0000000e+00 
1.1655055e-07 -3.0292898e-07 0.0000000e+00 
-6.1911747e-09 2.6463509e-09 0.0000000e+00 
-1.8714029e-08 -1.0623353e-08 0.0000000e+00 
-2.7104083e-08 -2.0843256e-08 0.0000000e+00 
-2.1166069e-10 -3.0418111e-08 0.0000000e+00 
-3.3412320e-08 -4.0684501e-08 0.0000000e+00 
3.0361367e-08 1.1097737e-08 0.0000000e+00 
6.1273113e-08 8.3801922e-08 0.0000000e+00 
-2.3899291e-09 8.4601748e-09 0.0000000e+00 
1.2402454e-09 -8.9199564e-10 0.0000000e+00 
1.0589521e-09 -3.1979557e-09 0.0000000e+00 
3.8889109e-08 -4.1326334e-08 0.0000000e+00 
3.1705920e-08 3.7902957e-08 0.0000000e+00 
-4.7646309e-09 -1.2996378e-09 0.0000000e+00 
6.6978373e-08 -1.3949010e-06 0.0000000e+00 
8.0762614e-09 3.4691578e-08 0.0000000e+00 
-8.7328331e-09 -5.3027915e-09 0.0000000e+00 
-2.7815879e-08 -3.5992691e-08 0.0000000e+00 
4.8927575e-08 -1.5533446e-07 0.0000000e+00 
1.7547157e-09 1.2574303e-07 0.0000000e+00 
9.2772412e-09 -3.6532424e-07 0.0000000e+00 
-7.3345388e-09 1.2242503e-08 0.0000000e+00 
-7.8857632e-09 -7.6105266e-08 0.0000000e+00 
3.7757541e-08 -8.0383825e-07 0.0000000e+00 
4.7091994e-08 3.8818207e-08 0.0000000e+00 
2.0302787e-08 -4.5660096e-07 0.0000000e+00 
2.5663227e-09 4.5018722e-09 0.0000000e+00 
3.1893034e-08 -1.5243566e-08 0.0000000e+00 
-7.3600255e-09 2.1981541e-09 0.0000000e+00 
-1.4831645e-08 -1.9944078e-09 0.0000000e+00 
-1.7005521e-08 -7.5131368e-09 0.0000000e+00 
-8.6051051e-09 1.3386397e-08 0.0000000e+00 
-3.3524813e-08 -2.8635469e-08 0.0000000e+00 
-2.5915883e-08 -4.6552607e-08 0.0000000e+00 
-2.3662532e-09 -3.0512559e-09 0.0000000e+00 
6.8329285e-08 1.5070802e-07 0.0000000e+00 
5.3563638e-09 1.7304238e-07 0.0000000e+00 
8.4298541e-08 -7.2374564e-07 0.0000000e+00 
-4.5918940e-09 1.9132758e-08 0.0000000e+00 
1.2471175e-09 -2.0844938e-07 0.0000000e+00 
-9.2521379e-11 7.0564788e-08 0.0000000e+00 
7.9875981e-09 -4.9543831e-07 0.0000000e+00 
2.5353796e-08 2.1430246e-07 0.0000000e+00 
-9.9031716e-10 -8.0386378e-08 0.0000000e+00 
9.4908145e-08 -2.2370823e-07 0.0000000e+00 
3.7280568e-08 -2.5114585e-07 0.0000000e+00 
2.7660112e-08 -3.6641080e-07 0.0000000e+00 
-2.1278806e-08 -2.9161680e-07 0.0000000e+00 
-4.3230564e-08 -4.3186066e-07 0.0000000e+00 
-6.5711951e-08 -3.3035764e-07 0.0000000e+00 
-8.0544460e-08 -4.6785678e-07 0.0000000e+00 
-5.0568424e-08 -2.3208942e-07 0.0000000e+00 
-8.9721624e-08 -3.4940172e-07 0.0000000e+00 
-8.8363336e-08 -4.5764023e-07 0.0000000e+00 
-9.3687937e-08 -3.3823480e-07 0.0000000e+00 
-7.9452249e-08 -4.1102385e-07 0.0000000e+00 
-6.3840332e-08 -5.4130896e-07 0.0000000e+00 
-4.9388586e-08 -4.5544581e-07 0.0000000e+00 
-2.1860744e-08 -5.7764117e-07 0.0000000e+00 
-1.4100253e-08 -4.6692256e-07 0.0000000e+00 
-9.2456418e-08 -2.5734846e-07 0.0000000e+00 
1.7888604e-08 -5.6956924e-07 0.0000000e+00 
-8.3175387e-08 -2.9965079e-07 0.0000000e+00 
-3.6515672e-08 -3.6560564e-07 0.0000000e+00 
-1.0756781e-08 -3.6764902e-07 0.0000000e+00 
-2.7972533e-08 -2.8149628e-07 0.0000000e+00 
2.0971566e-08 -7.0716129e-07 0.0000000e+00 
5.7195070e-08 -6.6050080e-07 0.0000000e+00 
3.8654697e-08 -5.3301471e-07 0.0000000e+00 
-1.1121314e-08 -2.7933177e-07 0.0000000e+00 
6.1866885e-08 -5.8259627e-07 0.0000000e+00 
7.6320696e-08 -8.2765354e-07 0.0000000e+00 
1.6548311e-08 -8.7105491e-07 0.0000000e+00 
-4.8141661e-08 -2.7465194e-07 0.0000000e+00 
2.9241280e-08 -1.9493764e-07 0.0000000e+00 
-6.3943538e-08 -6.2276376e-07 0.0000000e+00 
6.2622720e-09 -3.5772163e-07 0.0000000e+00 
-8.0136849e-11 -2.7187178e-07 0.0000000e+00 
3.8097344e-08 -4.8401398e-07 0.0000000e+00 
-2.2862364e-08 -2.0182102e-07 0.0000000e+00 
1.2388427e-08 -3.4338163e-07 0.0000000e+00 
3.9668691e-09 -2.5767403e-07 0.0000000e+00 
-2.9717475e-09 -1.9246156e-07 0.0000000e+00 
4.5017657e-08 -5.0618195e-07 0.0000000e+00 
6.7064242e-08 -5.8466202e-07 0.0000000e+00 
3.7822748e-08 -5.0742204e-07 0.0000000e+00 
3.8430610e-08 -5.5446714e-07 0.0000000e+00 
2.4236657e-08 -4.3854354e-07 0.0000000e+00 
2.0973170e-08 -4.0073752e-07 0.0000000e+00 
7.3911508e-08 -6.8071188e-07 0.0000000e+00 
-1.0941057e-08 -1.9860408e-07 0.0000000e+00 
8.5842593e-08 -1.0605831e-06 0.0000000e+00 
-2.8487226e-09 -1.0501348e-06 0.0000000e+00 
1.1041244e-07 -8.8445557e-07 0.0000000e+00 
8.8752408e-08 -7.0857635e-07 0.0000000e+00 
-2.3953459e-09 -5.6146348e-07 0.0000000e+00 
1.1678755e-07 -4.6080291e-07 0.0000000e+00 
-9.0879261e-08 -2.4182350e-07 0.0000000e+00 
-8.8989616e-08 -1.8530839e-07 0.0000000e+00 
-7.7168480e-08 -2.0587724e-07 0.0000000e+00 
-8.3836753e-08 -1.8984716e-07 0.0000000e+00 
-8.2431008e-08 -1.4059394e-07 0.0000000e+00 
-7.5068975e-08 -1.4326413e-07 0.0000000e+00 
-7.4760614e-08 -1.0794810e-07 0.0000000e+00 
-6.8278169e-08 -1.1127350e-07 0.0000000e+00 
-6.7210145e-08 -8.1882554e-08 0.0000000e+00 
-6.2609111e-08 -8.4959737e-08 0.0000000e+00 
-6.0565590e-08 -5.9353823e-08 0.0000000e+00 
-5.7527100e-08 -6.1652180e-08 0.0000000e+00 
-5.6181289e-08 -4.2627303e-08 0.0000000e+00 
-5.3745179e-08 -4.4707559e-08 0.0000000e+00 
-5.4827389e-08 -3.4847321e-08 0.0000000e+00 
-5.1912309e-08 -3.6972502e-08 0.0000000e+00 
-5.5362403e-08 -3.4618719e-08 0.0000000e+00 
-5.0700390e-08 -3.4919893e-08 0.0000000e+00 
-5.4404119e-08 -3.4567247e-08 0.0000000e+00 
-4.6702212e-08 -2.9429350e-08 0.0000000e+00 
-4.8512593e-08 -2.6320558e-08 0.0000000e+00 
-3.7567300e-08 -1.4521567e-08 0.0000000e+00 
-3.7477509e-08 -8.9422629e-09 0.0000000e+00 
-2.5508632e-08 5.6719238e-09 0.0000000e+00 
-2.5219149e-08 9.5111625e-09 0.0000000e+00 
-1.5372970e-08 2.0772042e-08 0.0000000e+00 
-1.6924179e-08 1.8949189e-08 0.0000000e+00 
-9.5775761e-09 2.5192813e-08 0.0000000e+00 
-1.3348451e-08 1.7576602e-08 0.0000000e+00 
-6.6536776e-09 2.2015897e-08 0.0000000e+00 
-1.1244864e-08 1.2130566e-08 0.0000000e+00 
-4.3071919e-09 1.7473008e-08 0.0000000e+00 
-7.7619609e-09 9.1771071e-09 0.0000000e+00 
-1.9213406e-09 1.4868725e-08 0.0000000e+00 
-2.8324820e-09 1.0361369e-08 0.0000000e+00 
-7.7117185e-10 1.3262524e-08 0.0000000e+00 
1.1800476e-09 1.2531495e-08 0.0000000e+00 
-1.0633685e-09 1.1338400e-08 0.0000000e+00 
2.4678477e-09 1.2012563e-08 0.0000000e+00 
-1.8502468e-09 7.8741218e-09 0.0000000e+00 
1.2697638e-09 6.6177259e-09 0.0000000e+00 
-4.0509502e-09 -4.5135223e-10 0.0000000e+00 
-2.4688551e-09 -4.3843156e-09 0.0000000e+00 
-7.6855384e-09 -1.2830283e-08 0.0000000e+00 
-7.0824897e-09 -1.6610857e-08 0.0000000e+00 
-9.3725729e-09 -2.0941698e-08 0.0000000e+00 
-7.9207609e-09 -2.0700048e-08 0.0000000e+00 
-7.5668778e-09 -1.9916373e-08 0.0000000e+00 
-4.6118167e-09 -1.5169835e-08 0.0000000e+00 
-6.6660029e-09 -1.7057022e-08 0.0000000e+00 
-3.5223013e-09 -1.1293595e-08 0.0000000e+00 
-1.1414905e-08 -2.2043897e-08 0.0000000e+00 
-9.1395691e-09 -1.7600055e-08 0.0000000e+00 
-1.8630924e-08 -3.1662587e-08 0.0000000e+00 
-1.7074994e-08 -2.7693588e-08 0.0000000e+00 
-2.2182910e-08 -3.6246892e-08 0.0000000e+00 
-2.0916533e-08 -3.1053947e-08 0.0000000e+00 
-2.1286947e-08 -3.2840369e-08 0.0000000e+00 
-2.0112006e-08 -2.5909669e-08 0.0000000e+00 
-1.6877657e-08 -2.1695648e-08 0.0000000e+00 
-1.5515736e-08 -1.3516996e-08 0.0000000e+00 
-1.0230526e-08 -5.0090323e-09 0.0000000e+00 
-8.9737275e-09 2.8847247e-09 0.0000000e+00 
-7.5522637e-09 7.0671291e-09 0.0000000e+00 
-7.2962392e-09 1.2873681e-08 0.0000000e+00 
-1.1193571e-08 1.0098341e-08 0.0000000e+00 
-1.2473706e-08 1.3604541e-08 0.0000000e+00 
-1.4299373e-08 1.3934379e-08 0.0000000e+00 
-1.7421435e-08 1.5618300e-08 0.0000000e+00 
-1.3823684e-08 2.4123704e-08 0.0000000e+00 
-1.8476918e-08 2.4563599e-08 0.0000000e+00 
-9.4199217e-09 4.2429594e-08 0.0000000e+00 
-1.4887449e-08 4.1669811e-08 0.0000000e+00 
-7.9449186e-10 6.9380313e-08 0.0000000e+00 
-6.5089667e-09 6.6112925e-08 0.0000000e+00 
-5.3667200e-08 -8.5744318e-08 0.0000000e+00 
-4.0386190e-08 -3.4064541e-08 0.0000000e+00 
-2.2325478e-08 9.1413599e-10 0.0000000e+00 
-1.0630536e-09 3.0780370e-08 0.0000000e+00 
1.0971066e-09 2.1427725e-08 0.0000000e+00 
-3.1024718e-09 1.1515344e-08 0.0000000e+00 
-9.0766790e-09 -8.1919875e-09 0.0000000e+00 
-1.2105281e-08 -2.3340178e-08 0.0000000e+00 
-1.4791500e-08 -2.6885134e-08 0.0000000e+00 
-2.1724981e-08 -3.8646156e-08 0.0000000e+00 
-6.6905050e-09 -3.5772532e-10 0.0000000e+00 
-7.7314244e-09 1.2083116e-08 0.0000000e+00 
-9.2444857e-10 4.0989864e-08 0.0000000e+00 
5.4970632e-09 9.4662667e-08 0.0000000e+00 
1.1859613e-08 9.5395563e-08 0.0000000e+00 
3.9124295e-10 8.7510770e-08 0.0000000e+00 
-1.9427210e-08 2.3749342e-08 0.0000000e+00 
-1.8590407e-08 -2.4474861e-08 0.0000000e+00 
-7.3261912e-09 -1.8189327e-08 0.0000000e+00 
3.4417857e-09 4.2548600e-09 0.0000000e+00 
-1.3248711e-08 3.6345766e-09 0.0000000e+00 
-4.4961677e-08 -2.0517000e-08 0.0000000e+00 
-5.3436406e-08 -3.8975092e-08 0.0000000e+00 
-7.4588009e-08 -1.0003067e-07 0.0000000e+00 
1.1710381e-08 1.1750198e-07 0.0000000e+00 
1.9298220e-08 1.1580700e-07 0.0000000e+00 
-9.9462598e-09 5.8224153e-08 0.0000000e+00 
-6.3268670e-09 1.6192285e-08 0.0000000e+00 
-1.4346011e-08 -6.7075003e-09 0.0000000e+00 
-1.0577249e-09 -6.1551204e-09 0.0000000e+00 
-1.6512766e-09 8.2846627e-09 0.0000000e+00 
-2.2602560e-08 1.0767331e-08 0.0000000e+00 
-5.0774265e-08 -2.8447323e-08 0.0000000e+00 
1.6377330e-08 1.3896263e-07 0.0000000e+00 
-3.2071659e-09 7.4348300e-08 0.0000000e+00 
1.9978859e-08 9.0316988e-08 0.0000000e+00 
-6.1446869e-08 -1.4258396e-07 0.0000000e+00 
3.0415503e-08 1.0846453e-07 0.0000000e+00 
3.0105181e-08 8.0977408e-08 0.0000000e+00 
8.7231911e-09 1.3441915e-07 0.0000000e+00 
-1.0554855e-08 4.6055629e-08 0.0000000e+00 
2.6783260e-09 1.0040950e-07 0.0000000e+00 
-1.5618310e-08 3.3859603e-08 0.0000000e+00 
-5.1873696e-09 5.6280484e-08 0.0000000e+00 
1.1377744e-08 1.5772156e-07 0.0000000e+00 
2.3838583e-08 1.6215910e-07 0.0000000e+00 
1.8048164e-08 1.8466059e-07 0.0000000e+00 
3.8631068e-08 1.9005303e-07 0.0000000e+00 
4.3762576e-09 1.4536913e-07 0.0000000e+00 
1.1423001e-10 8.2533774e-08 0.0000000e+00 
2.8652540e-08 1.3685627e-07 0.0000000e+00 
-8.1121577e-08 -1.6468015e-07 0.0000000e+00 
-6.3893353e-08 -1.3088187e-07 0.0000000e+00 
-5.9674718e-08 -1.6403709e-07 0.0000000e+00 
-6.6439512e-08 -1.0691326e-07 0.0000000e+00 
-4.5863739e-08 -9.6777271e-08 0.0000000e+00 
-7.9934255e-09 8.1191089e-09 0.0000000e+00 
-1.3253352e-08 -2.0461379e-09 0.0000000e+00 
-1.6564011e-08 -1.2036661e-08 0.0000000e+00 
-7.2555855e-09 1.0019525e-08 0.0000000e+00 
-5.0941349e-09 1.6327281e-08 0.0000000e+00 
1.0696260e-07 -1.1576279e-06 0.0000000e+00 
-1.4041096e-08 -7.6780864e-08 0.0000000e+00 
-1.9780771e-08 -7.1727953e-08 0.0000000e+00 
-3.5886814e-08 -1.3493863e-07 0.0000000e+00 
-6.3538408e-08 -3.4472950e-07 0.0000000e+00 
3.9710875e-09 -6.1580835e-07 0.0000000e+00 
-1.7990338e-08 -3.0183024e-08 0.0000000e+00 
-1.9044077e-08 -3.8023845e-08 0.0000000e+00 
-2.1990342e-08 -4.2808153e-08 0.0000000e+00 
-1.2074085e-08 -2.3848575e-08 0.0000000e+00 
-1.9755603e-08 -4.4177725e-08 0.0000000e+00 
-2.2348237e-08 -4.5506614e-08 0.0000000e+00 
-2.3336627e-08 -4.2262108e-08 0.0000000e+00 
-2.4696631e-08 -4.4159297e-08 0.0000000e+00 
-2.0097447e-08 -4.8210349e-08 0.0000000e+00 
-1.2801361e-08 -3.2777400e-08 0.0000000e+00 
-4.0299635e-09 -1.6768743e-08 0.0000000e+00 
-5.4155880e-09 -8.6165883e-09 0.0000000e+00 
1.6785517e-09 -5.3494853e-09 0.0000000e+00 
5.8928058e-09 -1.1276455e-08 0.0000000e+00 
-2.7237066e-09 6.1098060e-10 0.0000000e+00 
7.9851556e-09 6.2318177e-09 0.0000000e+00 
4.1817638e-10 9.7227453e-09 0.0000000e+00 
1.4384224e-08 1.8437014e-08 0.0000000e+00 
4.5876081e-09 2.1211648e-08 0.0000000e+00 
1.9643164e-08 3.2641715e-08 0.0000000e+00 
9.3934656e-09 3.7629039e-08 0.0000000e+00 
-1.6989834e-08 -8.6141743e-09 0.0000000e+00 
-3.3992968e-08 -1.9250027e-08 0.0000000e+00 
-3.6385114e-08 -2.1075406e-08 0.0000000e+00 
-4.6708788e-08 -2.7978043e-08 0.0000000e+00 
-3.2043772e-08 -1.5718051e-08 0.0000000e+00 
-3.1048298e-08 -1.4688764e-08 0.0000000e+00 
-5.5801994e-09 2.3003359e-08 0.0000000e+00 
3.7457166e-08 2.1232664e-08 0.0000000e+00 
5.4811220e-08 5.8579491e-08 0.0000000e+00 
-7.4325239e-09 5.8219642e-09 0.0000000e+00 
-1.3306717e-09 1.7894991e-09 0.0000000e+00 
2.5307507e-09 7.4740614e-09 0.0000000e+00 
6.9806005e-09 9.5604342e-09 0.0000000e+00 
6.2391821e-09 1.2029734e-08 0.0000000e+00 
3.9946944e-09 -2.8519784e-07 0.0000000e+00 
1.8509441e-08 -1.1414294e-06 0.0000000e+00 
-3.0789547e-08 -4.4486878e-08 0.0000000e+00 
-2.8922152e-08 -4.1166533e-08 0.0000000e+00 
-2.8377897e-08 -3.5300861e-08 0.0000000e+00 
-2.3461423e-08 -3.4130291e-08 0.0000000e+00 
-2.2112825e-08 -2.9550733e-08 0.0000000e+00 
-4.3123801e-08 -4.2082462e-08 0.0000000e+00 
-2.5294581e-08 -3.5431796e-08 0.0000000e+00 
-2.3098581e-08 -2.7688850e-08 0.0000000e+00 
-3.0431710e-08 -5.2655714e-08 0.0000000e+00 
-4.5462145e-09 -2.7951366e-08 0.0000000e+00 
-3.6739141e-09 -1.9437451e-08 0.0000000e+00 
-2.0323016e-08 -1.9134907e-08 0.0000000e+00 
-8.2424234e-10 -6.0610144e-09 0.0000000e+00 
2.6765850e-08 5.5771785e-08 0.0000000e+00 
-1.1178280e-08 -1.4270239e-08 0.0000000e+00 
-6.6545105e-08 -2.4904378e-07 0.0000000e+00 
-1.4384481e-08 -2.2519792e-08 0.0000000e+00 
-1.1092934e-08 -1.6450370e-08 0.0000000e+00 
-4.3097486e-09 -9.9345083e-09 0.0000000e+00 
3.4731080e-08 -2.6357098e-08 0.0000000e+00 
-1.1821472e-08 1.2638724e-08 0.0000000e+00 
-1.0026957e-08 1.1732783e-08 0.0000000e+00 
-1.2303231e-08 7.4690494e-09 0.0000000e+00 
-8.0277029e-09 9.4994306e-09 0.0000000e+00 
-1.0292456e-08 2.6021774e-09 0.0000000e+00 
-6.9969821e-09 1.1180419e-08 0.0000000e+00 
-1.8435697e-08 -6.2535084e-09 0.0000000e+00 
-1.5870127e-08 -1.1555257e-08 0.0000000e+00 
-6.9744450e-09 6.3682233e-09 0.0000000e+00 
-8.0458360e-09 1.2389828e-08 0.0000000e+00 
-2.5621925e-09 1.8348437e-08 0.0000000e+00 
-3.3626795e-09 1.5458646e-08 0.0000000e+00 
2.9813232e-09 2.5000027e-08 0.0000000e+00 
5.7145013e-09 2.9976672e-08 0.0000000e+00 
8.4438421e-09 3.4807151e-08 0.0000000e+00 
1.3140713e-08 4.0181217e-08 0.0000000e+00 
1.1348623e-08 4.0544545e-08 0.0000000e+00 
1.8381387e-08 4.4364164e-08 0.0000000e+00 
1.1937386e-08 4.0039875e-08 0.0000000e+00 
2.1287676e-08 4.0715189e-08 0.0000000e+00 
9.5103285e-09 3.0527623e-08 0.0000000e+00 
8.9167951e-10 3.1313501e-08 0.0000000e+00 
2.0784812e-08 2.7593915e-08 0.0000000e+00 
4.4422497e-09 1.2968028e-08 0.0000000e+00 
3.3307376e-08 2.1515817e-08 0.0000000e+00 
2.6015773e-08 4.5115833e-08 0.0000000e+00 
-1.7540599e-09 2.1780229e-08 0.0000000e+00 
-5.0537853e-08 -2.9710282e-08 0.0000000e+00 
7.1904815e-10 2.6647133e-08 0.0000000e+00 
8.7661517e-10 7.0616665e-11 0.0000000e+00 
5.8168348e-10 -1.4252499e-09 0.0000000e+00 
-4.5553059e-09 -7.9710620e-09 0.0000000e+00 
4.1682842e-08 -1.1442113e-07 0.0000000e+00 
7.9141858e-09 -1.3113370e-07 0.0000000e+00 