# vtk DataFile Version 4.0
vtk output
ASCII
DATASET UNSTRUCTURED_GRID
POINTS 663 float
0.0000000e+00 0.0000000e+00 0.0000000e+00 
5.0000000e+00 0.0000000e+00 0.0000000e+00 
5.0000000e+00 1.0000000e+00 0.0000000e+00 
0.0000000e+00 1.0000000e+00 0.0000000e+00 
1.0000000e-01 0.0000000e+00 0.0000000e+00 
2.0000000e-01 0.0000000e+00 0.0000000e+00 
3.0000001e-01 0.0000000e+00 0.0000000e+00 
4.0000001e-01 0.0000000e+00 0.0000000e+00 
5.0000000e-01 0.0000000e+00 0.0000000e+00 
6.0000002e-01 0.0000000e+00 0.0000000e+00 
6.9999999e-01 0.0000000e+00 0.0000000e+00 
8.0000001e-01 0.0000000e+00 0.0000000e+00 
8.9999998e-01 0.0000000e+00 0.0000000e+00 
1.0000000e+00 0.0000000e+00 0.0000000e+00 
1.1000000e+00 0.0000000e+00 0.0000000e+00 
1.2000000e+00 0.0000000e+00 0.0000000e+00 
1.3000000e+00 0.0000000e+00 0.0000000e+00 
1.4000000e+00 0.0000000e+00 0.0000000e+00 
1.5000000e+00 0.0000000e+00 0.0000000e+00 
1.6000000e+00 0.0000000e+00 0.0000000e+00 
1.7000000e+00 0.0000000e+00 0.0000000e+00 
1.8000000e+00 0.0000000e+00 0.0000000e+00 
1.9000000e+00 0.0000000e+00 0.0000000e+00 
2.0000000e+00 0.0000000e+00 0.0000000e+00 
2.0999999e+00 0.0000000e+00 0.0000000e+00 
2.2000000e+00 0.0000000e+00 0.0000000e+00 
2.3000000e+00 0.0000000e+00 0.0000000e+00 
2.4000001e+00 0.0000000e+00 0.0000000e+00 
2.5000000e+00 0.0000000e+00 0.0000000e+00 
2.5999999e+00 0.0000000e+00 0.0000000e+00 
2.7000000e+00 0.0000000e+00 0.0000000e+00 
2.8000000e+00 0.0000000e+00 0.0000000e+00 
2.9000001e+00 0.0000000e+00 0.0000000e+00 
3.0000000e+00 0.0000000e+00 0.0000000e+00 
3.0999999e+00 0.0000000e+00 0.0000000e+00 
3.2000000e+00 0.0000000e+00 0.0000000e+00 
3.3000000e+00 0.0000000e+00 0.0000000e+00 
3.4000001e+00 0.0000000e+00 0.0000000e+00 
3.5000000e+00 0.0000000e+00 0.0000000e+00 
3.5999999e+00 0.0000000e+00 0.0000000e+00 
3.7000000e+00 0.0000000e+00 0.0000000e+00 
3.8000000e+00 0.0000000e+00 0.0000000e+00 
3.9000001e+00 0.0000000e+00 0.0000000e+00 
4.0000000e+00 0.0000000e+00 0.0000000e+00 
4.0999999e+00 0.0000000e+00 0.0000000e+00 
4.1999998e+00 0.0000000e+00 0.0000000e+00 
4.3000002e+00 0.0000000e+00 0.0000000e+00 
4.4000001e+00 0.0000000e+00 0.0000000e+00 
4.5000000e+00 0.0000000e+00 0.0000000e+00 
4.5999999e+00 0.0000000e+00 0.0000000e+00 
4.6999998e+00 0.0000000e+00 0.0000000e+00 
4.8000002e+00 0.0000000e+00 0.0000000e+00 
4.9000001e+00 0.0000000e+00 0.0000000e+00 
5.0000000e+00 1.0000000e-01 0.0000000e+00 
5.0000000e+00 2.0000000e-01 0.0000000e+00 
5.0000000e+00 3.0000001e-01 0.0000000e+00 
5.0000000e+00 4.0000001e-01 0.0000000e+00 
5.0000000e+00 5.0000000e-01 0.0000000e+00 
5.0000000e+00 6.0000002e-01 0.0000000e+00 
5.0000000e+00 6.9999999e-01 0.0000000e+00 
5.0000000e+00 8.0000001e-01 0.0000000e+00 
5.0000000e+00 8.9999998e-01 0.0000000e+00 
4.9000001e+00 1.0000000e+00 0.0000000e+00 
4.8000002e+00 1.0000000e+00 0.0000000e+00 
4.6999998e+00 1.0000000e+00 0.0000000e+00 
4.5999999e+00 1.0000000e+00 0.0000000e+00 
4.5000000e+00 1.0000000e+00 0.0000000e+00 
4.4000001e+00 1.0000000e+00 0.0000000e+00 
4.3000002e+00 1.0000000e+00 0.0000000e+00 
4.1999998e+00 1.0000000e+00 0.0000000e+00 
4.0999999e+00 1.0000000e+00 0.0000000e+00 
4.0000000e+00 1.0000000e+00 0.0000000e+00 
3.9000001e+00 1.0000000e+00 0.0000000e+00 
3.8000000e+00 1.0000000e+00 0.0000000e+00 
3.7000000e+00 1.0000000e+00 0.0000000e+00 
3.5999999e+00 1.0000000e+00 0.0000000e+00 
3.5000000e+00 1.0000000e+00 0.0000000e+00 
3.4000001e+00 1.0000000e+00 0.0000000e+00 
3.3000000e+00 1.0000000e+00 0.0000000e+00 
3.2000000e+00 1.0000000e+00 0.0000000e+00 
3.0999999e+00 1.0000000e+00 0.0000000e+00 
3.0000000e+00 1.0000000e+00 0.0000000e+00 
2.9000001e+00 1.0000000e+00 0.0000000e+00 
2.8000000e+00 1.0000000e+00 0.0000000e+00 
2.7000000e+00 1.0000000e+00 0.0000000e+00 
2.5999999e+00 1.0000000e+00 0.0000000e+00 
2.5000000e+00 1.0000000e+00 0.0000000e+00 
2.4000001e+00 1.0000000e+00 0.0000000e+00 
2.3000000e+00 1.0000000e+00 0.0000000e+00 
2.2000000e+00 1.0000000e+00 0.0000000e+00 
2.0999999e+00 1.0000000e+00 0.0000000e+00 
2.0000000e+00 1.0000000e+00 0.0000000e+00 
1.9000000e+00 1.0000000e+00 0.0000000e+00 
1.8000000e+00 1.0000000e+00 0.0000000e+00 
1.7000000e+00 1.0000000e+00 0.0000000e+00 
1.6000000e+00 1.0000000e+00 0.0000000e+00 
1.5000000e+00 1.0000000e+00 0.0000000e+00 
1.4000000e+00 1.0000000e+00 0.0000000e+00 
1.3000000e+00 1.0000000e+00 0.0000000e+00 
1.2000000e+00 1.0000000e+00 0.0000000e+00 
1.1000000e+00 1.0000000e+00 0.0000000e+00 
1.0000000e+00 1.0000000e+00 0.0000000e+00 
8.9999998e-01 1.0000000e+00 0.0000000e+00 
8.0000001e-01 1.0000000e+00 0.0000000e+00 
6.9999999e-01 1.0000000e+00 0.0000000e+00 
6.0000002e-01 1.0000000e+00 0.0000000e+00 
5.0000000e-01 1.0000000e+00 0.0000000e+00 
4.0000001e-01 1.0000000e+00 0.0000000e+00 
3.0000001e-01 1.0000000e+00 0.0000000e+00 
2.0000000e-01 1.0000000e+00 0.0000000e+00 
1.0000000e-01 1.0000000e+00 0.0000000e+00 
0.0000000e+00 8.9999998e-01 0.0000000e+00 
0.0000000e+00 8.0000001e-01 0.0000000e+00 
0.0000000e+00 6.9999999e-01 0.0000000e+00 
0.0000000e+00 6.0000002e-01 0.0000000e+00 
0.0000000e+00 5.0000000e-01 0.0000000e+00 
0.0000000e+00 4.0000001e-01 0.0000000e+00 
0.0000000e+00 3.0000001e-01 0.0000000e+00 
0.0000000e+00 2.0000000e-01 0.0000000e+00 
0.0000000e+00 1.0000000e-01 0.0000000e+00 
4.3499999e+00 8.6602539e-02 0.0000000e+00 
2.2500000e+00 9.1339743e-01 0.0000000e+00 
4.0500002e+00 9.1339743e-01 0.0000000e+00 
2.7500000e+00 8.3308272e-02 0.0000000e+00 
3.2500000e+00 8.6602539e-02 0.0000000e+00 
3.7500000e+00 8.6602539e-02 0.0000000e+00 
1.2500000e+00 9.1339743e-01 0.0000000e+00 
1.7500000e+00 9.1339743e-01 0.0000000e+00 
9.4999999e-01 9.1339743e-01 0.0000000e+00 
5.5000001e-01 9.1339743e-01 0.0000000e+00 
7.5000000e-01 8.3308272e-02 0.0000000e+00 
1.4524696e+00 8.1907488e-02 0.0000000e+00 
1.9500000e+00 8.6602539e-02 0.0000000e+00 
3.4500000e+00 9.1339743e-01 0.0000000e+00 
2.9500000e+00 9.1339743e-01 0.0000000e+00 
2.4500000e+00 8.6602539e-02 0.0000000e+00 
4.4499998e+00 9.1339743e-01 0.0000000e+00 
2.6500001e+00 9.1339743e-01 0.0000000e+00 
1.1500000e+00 8.6602539e-02 0.0000000e+00 
4.0517640e+00 7.8262508e-02 0.0000000e+00 
3.7500000e+00 9.1339743e-01 0.0000000e+00 
9.5000088e-02 4.6391028e-01 0.0000000e+00 
4.9059730e+00 4.6363035e-01 0.0000000e+00 
4.5246965e-01 8.1907488e-02 0.0000000e+00 
4.6500001e+00 8.6602539e-02 0.0000000e+00 
4.6500001e+00 9.1339743e-01 0.0000000e+00 
7.5000000e-01 9.1339743e-01 0.0000000e+00 
4.9111457e+00 6.5092021e-01 0.0000000e+00 
2.2500000e+00 8.6602539e-02 0.0000000e+00 
3.2500000e+00 9.1339743e-01 0.0000000e+00 
9.4999999e-01 8.6602539e-02 0.0000000e+00 
2.9500000e+00 8.6602539e-02 0.0000000e+00 
3.4500000e+00 8.6602539e-02 0.0000000e+00 
2.4500000e+00 9.1339743e-01 0.0000000e+00 
1.9500000e+00 9.1339743e-01 0.0000000e+00 
1.5500000e+00 9.1339743e-01 0.0000000e+00 
1.6500000e+00 8.6602539e-02 0.0000000e+00 
3.4999999e-01 9.1339743e-01 0.0000000e+00 
9.0659410e-02 6.5153849e-01 0.0000000e+00 
4.2500000e+00 9.1339743e-01 0.0000000e+00 
2.5402120e-01 7.9592258e-02 0.0000000e+00 
4.9112749e+00 2.5204152e-01 0.0000000e+00 
8.6602539e-02 2.5000000e-01 0.0000000e+00 
4.9094305e+00 8.4081745e-01 0.0000000e+00 
9.0569727e-02 8.4081745e-01 0.0000000e+00 
4.8445559e+00 9.5495284e-02 0.0000000e+00 
3.9500000e+00 9.1339743e-01 0.0000000e+00 
4.0000000e+00 8.2679492e-01 0.0000000e+00 
4.0999999e+00 8.2679492e-01 0.0000000e+00 
4.0500002e+00 7.4019235e-01 0.0000000e+00 
4.1500001e+00 7.4019235e-01 0.0000000e+00 
4.0999999e+00 6.5358984e-01 0.0000000e+00 
4.1999998e+00 6.5358984e-01 0.0000000e+00 
4.0000000e+00 6.5358984e-01 0.0000000e+00 
4.1500001e+00 5.6698728e-01 0.0000000e+00 
4.2500000e+00 5.6698728e-01 0.0000000e+00 
4.1999998e+00 4.8038477e-01 0.0000000e+00 
4.3000002e+00 4.8038477e-01 0.0000000e+00 
4.3499999e+00 5.6698728e-01 0.0000000e+00 
4.4000001e+00 4.8038477e-01 0.0000000e+00 
4.4499998e+00 5.6698728e-01 0.0000000e+00 
4.5000000e+00 4.8038477e-01 0.0000000e+00 
4.0999999e+00 4.8038477e-01 0.0000000e+00 
4.5500002e+00 5.6698728e-01 0.0000000e+00 
4.2500000e+00 3.9378223e-01 0.0000000e+00 
4.4499998e+00 3.9378223e-01 0.0000000e+00 
4.5500002e+00 3.9378223e-01 0.0000000e+00 
4.5024695e+00 3.0860552e-01 0.0000000e+00 
4.5000000e+00 6.5358984e-01 0.0000000e+00 
4.5999999e+00 6.5358984e-01 0.0000000e+00 
4.6500001e+00 5.6698728e-01 0.0000000e+00 
4.6004114e+00 3.0741730e-01 0.0000000e+00 
4.6999998e+00 6.5358984e-01 0.0000000e+00 
4.5500002e+00 7.4019235e-01 0.0000000e+00 
4.4499998e+00 7.4019235e-01 0.0000000e+00 
4.4028811e+00 3.1213742e-01 0.0000000e+00 
3.9000001e+00 8.2679492e-01 0.0000000e+00 
4.2500000e+00 7.4019235e-01 0.0000000e+00 
4.6500688e+00 3.9382184e-01 0.0000000e+00 
4.7000799e+00 3.0722588e-01 0.0000000e+00 
4.7507491e+00 5.6669539e-01 0.0000000e+00 
4.5510750e+00 2.2357146e-01 0.0000000e+00 
4.7483096e+00 3.9479813e-01 0.0000000e+00 
4.8143229e+00 3.0351433e-01 0.0000000e+00 
4.7489839e+00 2.2150035e-01 0.0000000e+00 
4.8026423e+00 6.5280432e-01 0.0000000e+00 
4.7504406e+00 7.4006146e-01 0.0000000e+00 
4.8507943e+00 7.4260241e-01 0.0000000e+00 
4.8009601e+00 8.2998371e-01 0.0000000e+00 
4.8518200e+00 5.6202388e-01 0.0000000e+00 
4.8002234e+00 4.7973469e-01 0.0000000e+00 
4.7002335e+00 8.2730454e-01 0.0000000e+00 
4.6500239e+00 2.2246142e-01 0.0000000e+00 
4.5000000e+00 8.2679492e-01 0.0000000e+00 
4.4000001e+00 8.2679492e-01 0.0000000e+00 
4.6000390e+00 8.2687986e-01 0.0000000e+00 
4.6501188e+00 7.4026966e-01 0.0000000e+00 
4.1999998e+00 8.2679492e-01 0.0000000e+00 
4.1500001e+00 9.1339743e-01 0.0000000e+00 
4.1500001e+00 3.9378223e-01 0.0000000e+00 
4.0500002e+00 3.9378223e-01 0.0000000e+00 
4.1999998e+00 3.0717969e-01 0.0000000e+00 
4.0000000e+00 4.8038477e-01 0.0000000e+00 
3.9500000e+00 3.9378223e-01 0.0000000e+00 
3.9000001e+00 4.8038477e-01 0.0000000e+00 
3.8499999e+00 3.9378223e-01 0.0000000e+00 
3.8000000e+00 4.8038477e-01 0.0000000e+00 
3.7500000e+00 3.9378223e-01 0.0000000e+00 
3.7000000e+00 4.8038477e-01 0.0000000e+00 
3.6500001e+00 3.9378223e-01 0.0000000e+00 
[...]
POINT_DATA 663
FIELD FieldData 2
DISPLACEMENT 3 663  float
0.0000000e+00 0.0000000e+00 0.0000000e+00 
0.0000000e+00 0.0000000e+00 0.0000000e+00 
0.0000000e+00 -1.2232027e-07 0.0000000e+00 
0.0000000e+00 2.5978068e-07 0.0000000e+00 
0.0000000e+00 0.0000000e+00 0.0000000e+00 
0.0000000e+00 0.0000000e+00 0.0000000e+00 
0.0000000e+00 0.0000000e+00 0.0000000e+00 
0.0000000e+00 0.0000000e+00 0.0000000e+00 
0.0000000e+00 0.0000000e+00 0.0000000e+00 
0.0000000e+00 0.0000000e+00 0.0000000e+00 
0.0000000e+00 0.0000000e+00 0.0000000e+00 
0.0000000e+00 0.0000000e+00 0.0000000e+00 
0.0000000e+00 0.0000000e+00 0.0000000e+00 
0.0000000e+00 0.0000000e+00 0.0000000e+00 
0.0000000e+00 0.0000000e+00 0.0000000e+00 
0.0000000e+00 0.0000000e+00 0.0000000e+00 
0.0000000e+00 0.0000000e+00 0.0000000e+00 
0.0000000e+00 0.0000000e+00 0.0000000e+00 
0.0000000e+00 0.0000000e+00 0.0000000e+00 
0.0000000e+00 0.0000000e+00 0.0000000e+00 
0.0000000e+00 0.0000000e+00 0.0000000e+00 
0.0000000e+00 0.0000000e+00 0.0000000e+00 
0.0000000e+00 0.0000000e+00 0.0000000e+00 
0.0000000e+00 0.0000000e+00 0.0000000e+00 
0.0000000e+00 0.0000000e+00 0.0000000e+00 
0.0000000e+00 0.0000000e+00 0.0000000e+00 
0.0000000e+00 0.0000000e+00 0.0000000e+00 
0.0000000e+00 0.0000000e+00 0.0000000e+00 
0.0000000e+00 0.0000000e+00 0.0000000e+00 
0.0000000e+00 0.0000000e+00 0.0000000e+00 
0.0000000e+00 0.0000000e+00 0.0000000e+00 
0.0000000e+00 0.0000000e+00 0.0000000e+00 
0.0000000e+00 0.0000000e+00 0.0000000e+00 
0.0000000e+00 0.0000000e+00 0.0000000e+00 
0.0000000e+00 0.0000000e+00 0.0000000e+00 
0.0000000e+00 0.0000000e+00 0.0000000e+00 
0.0000000e+00 0.0000000e+00 0.0000000e+00 
0.0000000e+00 0.0000000e+00 0.0000000e+00 
0.0000000e+00 0.0000000e+00 0.0000000e+00 
0.0000000e+00 0.0000000e+00 0.0000000e+00 
0.0000000e+00 0.0000000e+00 0.0000000e+00 
0.0000000e+00 0.0000000e+00 0.0000000e+00 
0.0000000e+00 0.0000000e+00 0.0000000e+00 
0.0000000e+00 0.0000000e+00 0.0000000e+00 
0.0000000e+00 0.0000000e+00 0.0000000e+00 
0.0000000e+00 0.0000000e+00 0.0000000e+00 
0.0000000e+00 0.0000000e+00 0.0000000e+00 
0.0000000e+00 0.0000000e+00 0.0000000e+00 
0.0000000e+00 0.0000000e+00 0.0000000e+00 
0.0000000e+00 0.0000000e+00 0.0000000e+00 
0.0000000e+00 0.0000000e+00 0.0000000e+00 
0.0000000e+00 0.0000000e+00 0.0000000e+00 
0.0000000e+00 0.0000000e+00 0.0000000e+00 
0.0000000e+00 -1.2489840e-08 0.0000000e+00 
0.0000000e+00 -2.7021658e-08 0.0000000e+00 
0.0000000e+00 -4.3237993e-08 0.0000000e+00 
0.0000000e+00 -6.0186402e-08 0.0000000e+00 
0.0000000e+00 -7.6809606e-08 0.0000000e+00 
0.0000000e+00 -9.2212225e-08 0.0000000e+00 
0.0000000e+00 -1.0526426e-07 0.0000000e+00 
0.0000000e+00 -1.1508642e-07 0.0000000e+00 
0.0000000e+00 -1.2092619e-07 0.0000000e+00 
6.8385519e-09 -1.1886303e-07 0.0000000e+00 
1.3513809e-08 -1.1042547e-07 0.0000000e+00 
1.9941119e-08 -9.5991595e-08 0.0000000e+00 
2.5867829e-08 -7.6167147e-08 0.0000000e+00 
3.0827660e-08 -5.1620273e-08 0.0000000e+00 
3.4212214e-08 -2.3473834e-08 0.0000000e+00 
3.5442000e-08 6.7224128e-09 0.0000000e+00 
3.4025145e-08 3.7178243e-08 0.0000000e+00 
2.9524935e-08 6.6088212e-08 0.0000000e+00 
2.1433218e-08 9.1750422e-08 0.0000000e+00 
9.0288248e-09 1.1243679e-07 0.0000000e+00 
-8.6316021e-09 1.2597206e-07 0.0000000e+00 
-3.2435072e-08 1.2916419e-07 0.0000000e+00 
-6.2587077e-08 1.1742565e-07 0.0000000e+00 
-9.7783676e-08 8.4994994e-08 0.0000000e+00 
-1.3455328e-07 2.5936576e-08 0.0000000e+00 
-1.6718701e-07 -6.4595454e-08 0.0000000e+00 
-1.8809325e-07 -1.9071808e-07 0.0000000e+00 
-1.8580954e-07 -3.6350247e-07 0.0000000e+00 
-1.2413193e-07 -6.6705297e-07 0.0000000e+00 
-1.1318085e-08 -7.2089063e-07 0.0000000e+00 
7.2784232e-08 -4.9596076e-07 0.0000000e+00 
1.1129113e-07 -3.7901623e-07 0.0000000e+00 
1.3327589e-07 -2.7690641e-07 0.0000000e+00 
1.4214100e-07 -1.7840858e-07 0.0000000e+00 
1.3685511e-07 -8.6423007e-08 0.0000000e+00 
1.1768380e-07 -1.3401685e-08 0.0000000e+00 
9.2295856e-08 3.2574185e-08 0.0000000e+00 
6.7953572e-08 6.5994897e-08 0.0000000e+00 
4.3280036e-08 8.1869686e-08 0.0000000e+00 
2.1537000e-08 8.5636117e-08 0.0000000e+00 
4.3464499e-09 8.0737173e-08 0.0000000e+00 
-1.5397271e-08 8.0243666e-08 0.0000000e+00 
-4.1200583e-08 7.2265188e-08 0.0000000e+00 
-7.8157974e-08 5.3148927e-08 0.0000000e+00 
-1.3226908e-07 5.6490417e-09 0.0000000e+00 
-1.9687970e-07 -1.0375760e-07 0.0000000e+00 
-2.5006852e-07 -3.0721520e-07 0.0000000e+00 
-2.5690886e-07 -6.4797575e-07 0.0000000e+00 
-1.1415323e-07 -1.3862326e-06 0.0000000e+00 
1.4487277e-07 -1.4005078e-06 0.0000000e+00 
2.8084492e-07 -6.3979064e-07 0.0000000e+00 
2.6355158e-07 -3.0008249e-07 0.0000000e+00 
2.1778821e-07 -1.0595947e-07 0.0000000e+00 
1.8475693e-07 2.0699289e-08 0.0000000e+00 
1.5961433e-07 1.3246179e-07 0.0000000e+00 
1.1707910e-07 2.1019116e-07 0.0000000e+00 
7.0388928e-08 2.1944612e-07 0.0000000e+00 
4.1516099e-08 2.4538141e-07 0.0000000e+00 
0.0000000e+00 2.6671660e-07 0.0000000e+00 
0.0000000e+00 2.4064457e-07 0.0000000e+00 
0.0000000e+00 2.2763881e-07 0.0000000e+00 
0.0000000e+00 2.1109709e-07 0.0000000e+00 
0.0000000e+00 1.7188312e-07 0.0000000e+00 
0.0000000e+00 1.2003819e-07 0.0000000e+00 
0.0000000e+00 7.1633664e-08 0.0000000e+00 
0.0000000e+00 3.6211087e-08 0.0000000e+00 
0.0000000e+00 1.4053797e-08 0.0000000e+00 
-1.5640463e-08 -1.2447363e-09 0.0000000e+00 
6.4902835e-08 1.5057307e-08 0.0000000e+00 
6.6612649e-09 7.9843062e-08 0.0000000e+00 
-1.0376406e-08 -3.2807854e-08 0.0000000e+00 
2.5898586e-08 -1.2732366e-08 0.0000000e+00 
4.8168141e-09 8.4340739e-09 0.0000000e+00 
-7.0173037e-08 -1.8864939e-07 0.0000000e+00 
1.9214998e-10 8.3707370e-08 0.0000000e+00 
1.6964284e-08 -1.1309160e-06 0.0000000e+00 
8.5227875e-08 -3.5836127e-08 0.0000000e+00 
-2.8658835e-08 -2.3830800e-08 0.0000000e+00 
1.5015717e-08 9.0910041e-10 0.0000000e+00 
-2.3470299e-09 -1.1322100e-09 0.0000000e+00 
-6.5886987e-08 6.2510537e-08 0.0000000e+00 
-3.4832986e-08 -6.0954341e-07 0.0000000e+00 
-2.4441505e-08 -1.9474180e-08 0.0000000e+00 
1.0429586e-08 -3.7887109e-08 0.0000000e+00 
4.6735241e-08 -3.2781116e-07 0.0000000e+00 
1.1098098e-08 -2.0041053e-08 0.0000000e+00 
-9.0335108e-09 4.9655267e-09 0.0000000e+00 
-1.8501142e-08 1.3117852e-07 0.0000000e+00 
-3.0701052e-08 1.4610784e-07 0.0000000e+00 
-1.0557498e-08 -6.9479228e-08 0.0000000e+00 
-2.2134685e-08 -2.2264790e-10 0.0000000e+00 
-1.1819610e-08 -7.4470492e-09 0.0000000e+00 
6.9497856e-09 -8.6503150e-08 0.0000000e+00 
5.5959770e-08 -4.3650593e-07 0.0000000e+00 
-7.6187670e-09 -9.7598729e-08 0.0000000e+00 
-1.8502432e-08 -8.6863583e-09 0.0000000e+00 
-8.2585288e-08 -1.2100602e-07 0.0000000e+00 
-1.0842827e-08 -3.1110314e-08 0.0000000e+00 
8.5024334e-09 -3.2332352e-08 0.0000000e+00 
2.1904787e-08 4.1412385e-10 0.0000000e+00 
7.1801203e-08 -1.3060242e-07 0.0000000e+00 
2.7230449e-08 8.8466720e-08 0.0000000e+00 
-3.0665106e-08 6.8478180e-08 0.0000000e+00 
8.5079082e-09 2.8689311e-09 0.0000000e+00 
7.9848554e-08 1.7825424e-07 0.0000000e+00 
-5.6207186e-09 2.1591882e-07 0.0000000e+00 
1.1293063e-08 2.2059373e-08 0.0000000e+00 
-9.7554596e-09 7.5079924e-09 0.0000000e+00 
-7.9733082e-09 -3.4594070e-08 0.0000000e+00 
-1.2801332e-08 5.0200196e-08 0.0000000e+00 
-1.4516389e-09 -1.1615231e-07 0.0000000e+00 
1.3617263e-08 2.3690183e-07 0.0000000e+00 
-6.3724337e-09 -1.0847222e-08 0.0000000e+00 
1.1701524e-09 1.0365360e-07 0.0000000e+00 
-8.3419831e-09 8.9794334e-08 0.0000000e+00 
-7.9632789e-09 6.4486862e-08 0.0000000e+00 
-1.8700439e-08 7.2853688e-08 0.0000000e+00 
-2.1561121e-08 4.7551346e-08 0.0000000e+00 
-2.8645527e-08 5.4799923e-08 0.0000000e+00 
-3.3031878e-08 3.0845897e-08 0.0000000e+00 
-2.2422237e-08 7.6175269e-08 0.0000000e+00 
-3.6842344e-08 3.7413749e-08 0.0000000e+00 
-4.1352592e-08 1.5917864e-08 0.0000000e+00 
-4.2124636e-08 2.2152804e-08 0.0000000e+00 
-4.5757577e-08 3.9246255e-09 0.0000000e+00 
-4.3061799e-08 -5.9466774e-09 0.0000000e+00 
-4.6239816e-08 -1.4127999e-08 0.0000000e+00 
-4.1976239e-08 -2.6926052e-08 0.0000000e+00 
-4.3708326e-08 -3.0963889e-08 0.0000000e+00 
-3.5386272e-08 3.9500993e-08 0.0000000e+00 
-3.8263686e-08 -4.5875229e-08 0.0000000e+00 
-4.3635758e-08 1.0061806e-08 0.0000000e+00 
-4.4895454e-08 -1.8412825e-08 0.0000000e+00 
-4.1051621e-08 -3.1073931e-08 0.0000000e+00 
-3.9424457e-08 -1.9231800e-08 0.0000000e+00 
-3.3407822e-08 -4.1956596e-08 0.0000000e+00 
-2.9330200e-08 -6.2033436e-08 0.0000000e+00 
-3.2250707e-08 -6.1868946e-08 0.0000000e+00 
-3.4755359e-08 -2.7701157e-08 0.0000000e+00 
-2.3541054e-08 -7.8287769e-08 0.0000000e+00 
-2.1444922e-08 -5.7936155e-08 0.0000000e+00 
-2.3497085e-08 -3.4020122e-08 0.0000000e+00 
-4.1858684e-08 -9.3923989e-09 0.0000000e+00 
-9.5826866e-09 1.1042200e-07 0.0000000e+00 
-2.3469319e-08 2.0250820e-08 0.0000000e+00 
-3.4686849e-08 -4.1815372e-08 0.0000000e+00 
-2.7970177e-08 -3.4836852e-08 0.0000000e+00 
-2.4330040e-08 -7.4301134e-08 0.0000000e+00 
-3.0787454e-08 -1.6373217e-08 0.0000000e+00 
-2.6470797e-08 -5.0145989e-08 0.0000000e+00 
-1.8186336e-08 -4.0155054e-08 0.0000000e+00 
-1.9718318e-08 -2.5644081e-08 0.0000000e+00 
-1.6274642e-08 -9.0316675e-08 0.0000000e+00 
-1.3736269e-08 -9.3588426e-08 0.0000000e+00 
-8.4021821e-09 -1.0433963e-07 0.0000000e+00 
-4.1373691e-09 -1.0652910e-07 0.0000000e+00 
-1.5130230e-08 -8.2065341e-08 0.0000000e+00 
-2.1580719e-08 -6.6445885e-08 0.0000000e+00 
-6.1078693e-09 -9.2437404e-08 0.0000000e+00 
-2.5998929e-08 -2.1627343e-08 0.0000000e+00 
-8.2117797e-09 -4.9702283e-08 0.0000000e+00 
-8.4837088e-09 -2.2564919e-08 0.0000000e+00 
-7.4342887e-09 -7.3336054e-08 0.0000000e+00 
-1.8107960e-08 -7.8067231e-08 0.0000000e+00 
-8.0970617e-09 3.6221834e-08 0.0000000e+00 
9.8723518e-09 5.2094173e-08 0.0000000e+00 
-3.8254942e-08 2.4240126e-08 0.0000000e+00 
-2.9789900e-08 3.7249738e-08 0.0000000e+00 
-3.7345906e-08 1.2385467e-08 0.0000000e+00 
-2.5728784e-08 5.4845160e-08 0.0000000e+00 
-1.8467256e-08 4.8104454e-08 0.0000000e+00 
-1.3439037e-08 6.6872254e-08 0.0000000e+00 
-4.6584967e-09 5.5593478e-08 0.0000000e+00 
1.0962877e-09 7.3894803e-08 0.0000000e+00 
1.1093610e-08 5.8148508e-08 0.0000000e+00 
1.7313008e-08 7.3657013e-08 0.0000000e+00 
2.7941883e-08 5.3772780e-08 0.0000000e+00 
3.4305881e-08 6.3349688e-08 0.0000000e+00 
4.4588241e-08 4.0207919e-08 0.0000000e+00 
5.0625463e-08 4.0092953e-08 0.0000000e+00 
5.9145943e-08 1.5645544e-08 0.0000000e+00 
6.4083089e-08 2.0672875e-09 0.0000000e+00 
6.8721143e-08 -1.9024723e-08 0.0000000e+00 
7.1796165e-08 -4.9779963e-08 0.0000000e+00 
7.1295084e-08 -6.3889004e-08 0.0000000e+00 
7.0707380e-08 -1.1084435e-07 0.0000000e+00 
6.3895456e-08 -1.1293447e-07 0.0000000e+00 
5.8533676e-08 -1.7129267e-07 0.0000000e+00 
4.6458158e-08 -1.5436117e-07 0.0000000e+00 
3.6165339e-08 -2.1866649e-07 0.0000000e+00 
2.1751989e-08 -1.8325377e-07 0.0000000e+00 
7.7184703e-09 -2.4364437e-07 0.0000000e+00 
-5.9472485e-09 -1.9361147e-07 0.0000000e+00 
-2.0897044e-08 -2.4190018e-07 0.0000000e+00 
-3.1790375e-08 -1.8404931e-07 0.0000000e+00 
-4.4421629e-08 -2.1595410e-07 0.0000000e+00 
-5.1778503e-08 -1.5815695e-07 0.0000000e+00 
-5.9991571e-08 -1.7353902e-07 0.0000000e+00 
-6.3816628e-08 -1.2223286e-07 0.0000000e+00 
-6.7181368e-08 -1.2381959e-07 0.0000000e+00 
-6.7706182e-08 -8.2962785e-08 0.0000000e+00 
-6.6525040e-08 -7.4290966e-08 0.0000000e+00 
-6.4094735e-08 -4.6863672e-08 0.0000000e+00 
-5.8676846e-08 -3.0395746e-08 0.0000000e+00 
-5.3615320e-08 -1.5518987e-08 0.0000000e+00 
-4.4507765e-08 4.5524091e-09 0.0000000e+00 
-3.7067526e-08 8.0463876e-09 0.0000000e+00 
-2.5926424e-08 2.8086063e-08 0.0000000e+00 
-1.7537896e-08 2.1133882e-08 0.0000000e+00 
-5.6323564e-09 3.9743611e-08 0.0000000e+00 
2.1640114e-09 2.6574567e-08 0.0000000e+00 
1.3947371e-08 4.2546333e-08 0.0000000e+00 
1.9599304e-08 2.7681956e-08 0.0000000e+00 
3.0850046e-08 4.1277293e-08 0.0000000e+00 
3.3519189e-08 2.8035666e-08 0.0000000e+00 
4.4192603e-08 3.9590539e-08 0.0000000e+00 
4.4466905e-08 2.8233142e-08 0.0000000e+00 
5.4817360e-08 3.6111917e-08 0.0000000e+00 
5.3819811e-08 2.3946980e-08 0.0000000e+00 
6.4487622e-08 2.2976071e-08 0.0000000e+00 
6.2106437e-08 7.1621140e-09 0.0000000e+00 
7.3357519e-08 -1.0824042e-08 0.0000000e+00 
6.6842411e-08 -2.8492058e-08 0.0000000e+00 
7.7696725e-08 -7.1320528e-08 0.0000000e+00 
6.3035195e-08 -8.1953907e-08 0.0000000e+00 
7.0578011e-08 -1.5099262e-07 0.0000000e+00 
4.6089184e-08 -1.4140834e-07 0.0000000e+00 
4.6859487e-08 -2.2699595e-07 0.0000000e+00 
1.6149500e-08 -1.8770749e-07 0.0000000e+00 
9.1635375e-09 -2.7094862e-07 0.0000000e+00 
-2.0034102e-08 -2.0335139e-07 0.0000000e+00 
-3.1571339e-08 -2.6453014e-07 0.0000000e+00 
-5.1914174e-08 -1.8197655e-07 0.0000000e+00 
-6.2423460e-08 -2.1043046e-07 0.0000000e+00 
-7.1381834e-08 -1.3159439e-07 0.0000000e+00 
-7.7230737e-08 -1.3080161e-07 0.0000000e+00 
-7.7142737e-08 -7.0585038e-08 0.0000000e+00 
-7.9964430e-08 -5.3189083e-08 0.0000000e+00 
-7.4745131e-08 -1.6108805e-08 0.0000000e+00 
-7.9229096e-08 6.5359860e-09 0.0000000e+00 
-7.0885299e-08 2.4363663e-08 0.0000000e+00 
2.0081783e-08 8.6206242e-08 0.0000000e+00 
6.2059037e-08 -2.3368489e-08 0.0000000e+00 
4.6812485e-08 -2.4343939e-07 0.0000000e+00 
-3.4595953e-08 -2.8047359e-07 0.0000000e+00 
-6.0192782e-08 -1.7410395e-07 0.0000000e+00 
-5.5376532e-08 -5.4796590e-08 0.0000000e+00 
-1.0720314e-08 4.8858961e-08 0.0000000e+00 
2.2693341e-08 5.6857267e-08 0.0000000e+00 
4.8720736e-08 4.9218187e-08 0.0000000e+00 
8.0228922e-08 -4.5629118e-08 0.0000000e+00 
4.4022013e-08 -3.3516048e-07 0.0000000e+00 
-4.6805845e-08 -3.1751506e-07 0.0000000e+00 
-8.1849166e-08 -1.1451930e-07 0.0000000e+00 
-7.8422026e-08 5.0212758e-08 0.0000000e+00 
-8.0622243e-08 3.4029508e-08 0.0000000e+00 
-6.6779968e-08 5.3941910e-08 0.0000000e+00 
-7.1223056e-08 -3.3274102e-08 0.0000000e+00 
5.3244317e-08 -3.7049709e-08 0.0000000e+00 
2.0218170e-08 1.6457475e-08 0.0000000e+00 
-2.6184773e-08 5.7258642e-09 0.0000000e+00 
-5.3747499e-08 -1.0831329e-07 0.0000000e+00 
5.1594881e-08 -1.0221557e-07 0.0000000e+00 
3.4239143e-08 3.4626165e-08 0.0000000e+00 
-9.9024149e-09 3.8118195e-08 0.0000000e+00 
-7.5263998e-08 8.5422585e-08 0.0000000e+00 
-6.3999586e-08 7.3557054e-08 0.0000000e+00 
-5.6377811e-08 2.8368431e-08 0.0000000e+00 
-3.9669057e-08 -1.4083518e-07 0.0000000e+00 
2.1108866e-08 -1.1703762e-07 0.0000000e+00 
3.9574548e-08 1.8880616e-08 0.0000000e+00 
-6.1184302e-08 -5.2578184e-08 0.0000000e+00 
7.2399087e-09 -1.4184420e-07 0.0000000e+00 
5.9811519e-08 -2.2822839e-09 0.0000000e+00 
-4.5223469e-08 1.3613062e-07 0.0000000e+00 
-4.8082267e-08 4.6317329e-08 0.0000000e+00 
-7.2666126e-08 5.0274904e-09 0.0000000e+00 
-8.3745082e-09 8.6156675e-08 0.0000000e+00 
-3.9429047e-08 5.1623278e-08 0.0000000e+00 
-5.1485721e-08 -3.8964419e-08 0.0000000e+00 
-5.9861513e-08 1.3476256e-07 0.0000000e+00 
-3.8190194e-08 2.2699460e-08 0.0000000e+00 
-5.8782170e-08 7.8949384e-08 0.0000000e+00 
-4.9672668e-08 8.9205212e-09 0.0000000e+00 
-2.8955458e-08 3.1652323e-08 0.0000000e+00 
-2.1402892e-08 1.8732759e-07 0.0000000e+00 
5.5244156e-09 1.9223050e-07 0.0000000e+00 
1.5320795e-08 2.2140833e-07 0.0000000e+00 
3.7378960e-08 2.2392744e-07 0.0000000e+00 
-3.7525822e-08 1.7461410e-07 0.0000000e+00 
-3.4245168e-08 6.0540685e-08 0.0000000e+00 
-1.9365231e-08 1.3157904e-07 0.0000000e+00 
-3.0893027e-08 2.2498490e-08 0.0000000e+00 
-2.8284340e-08 1.1264081e-08 0.0000000e+00 
-3.3113245e-08 4.4034207e-09 0.0000000e+00 
-2.2071630e-08 1.8045714e-08 0.0000000e+00 
-2.2882967e-08 4.3813193e-09 0.0000000e+00 
-9.0174890e-09 -1.4099713e-07 0.0000000e+00 
1.8898425e-09 -8.4523933e-08 0.0000000e+00 
2.3662926e-08 -6.2689743e-08 0.0000000e+00 
-2.3861711e-08 -9.3980915e-08 0.0000000e+00 
-4.6722676e-08 -8.8720796e-08 0.0000000e+00 
8.8663468e-09 -6.4322364e-08 0.0000000e+00 
-1.3980033e-08 -5.6847953e-09 0.0000000e+00 
-1.4751354e-08 -3.4300931e-09 0.0000000e+00 
-2.6484024e-08 -4.7832485e-09 0.0000000e+00 
-4.5862954e-08 -4.5193436e-09 0.0000000e+00 
5.0870121e-09 -1.0351151e-07 0.0000000e+00 
8.5758629e-08 -1.3886320e-07 0.0000000e+00 
8.1055568e-08 -1.0170903e-07 0.0000000e+00 
6.6088496e-08 -9.9314788e-09 0.0000000e+00 
9.0125162e-08 -2.3739145e-07 0.0000000e+00 
5.0686989e-08 -4.7973622e-08 0.0000000e+00 
3.6297834e-08 2.6287625e-08 0.0000000e+00 
5.3601401e-08 3.7006831e-08 0.0000000e+00 
2.8936293e-08 5.7804549e-08 0.0000000e+00 
5.4183330e-10 4.6693076e-09 0.0000000e+00 
7.1570739e-08 -1.8421063e-07 0.0000000e+00 
8.8291323e-08 -3.7665336e-07 0.0000000e+00 
7.7028474e-08 -3.7984867e-07 0.0000000e+00 
7.1292448e-08 -5.5657677e-07 0.0000000e+00 
7.5231142e-08 -5.7451024e-07 0.0000000e+00 
3.3760585e-08 -4.6707302e-07 0.0000000e+00 
1.0689226e-08 -6.2310505e-07 0.0000000e+00 
-2.3331342e-08 -4.5597096e-07 0.0000000e+00 
-5.1827080e-08 -5.3659136e-07 0.0000000e+00 
-6.6195589e-08 -3.5267468e-07 0.0000000e+00 
-7.3823315e-08 -3.4906429e-07 0.0000000e+00 
-8.0765773e-08 -2.0883299e-07 0.0000000e+00 
2.5261713e-08 -5.5453286e-09 0.0000000e+00 
4.4577977e-08 -1.7665092e-08 0.0000000e+00 
4.3350916e-08 -3.4784879e-08 0.0000000e+00 
5.7179722e-08 -3.7115594e-08 0.0000000e+00 
4.1590887e-08 -3.2812335e-09 0.0000000e+00 
3.2543010e-08 7.4168387e-09 0.0000000e+00 
-7.3701464e-08 -2.2152959e-07 0.0000000e+00 
-1.2749412e-08 -8.6453161e-07 0.0000000e+00 
8.2171070e-08 -1.8461546e-07 0.0000000e+00 
-2.5725511e-09 -3.6233934e-07 0.0000000e+00 
-2.2618233e-08 -1.3558576e-08 0.0000000e+00 
-3.6298214e-08 -1.8935816e-08 0.0000000e+00 
-2.8199977e-08 -9.8956008e-09 0.0000000e+00 
-4.2845734e-08 -1.7068208e-08 0.0000000e+00 
-9.2228127e-09 -5.0695608e-08 0.0000000e+00 
1.1352932e-08 -8.5342533e-09 0.0000000e+00 
-1.3949832e-08 8.0196507e-08 0.0000000e+00 
6.7870021e-09 8.0697696e-08 0.0000000e+00 
1.1598483e-08 8.3514763e-08 0.0000000e+00 
1.9773610e-08 7.6338985e-08 0.0000000e+00 
1.6229347e-08 7.9306702e-08 0.0000000e+00 
5.0313105e-08 3.1409549e-08 0.0000000e+00 
4.1066592e-08 1.2047791e-08 0.0000000e+00 
5.1042367e-08 -6.2544053e-08 0.0000000e+00 
2.8989053e-08 6.3716399e-08 0.0000000e+00 
1.9641147e-08 -1.9517755e-08 0.0000000e+00 
2.8584145e-08 -1.1649116e-07 0.0000000e+00 
5.5507559e-08 -1.5553483e-07 0.0000000e+00 
3.4491798e-08 -2.3459333e-07 0.0000000e+00 
-6.4122865e-08 -1.6508201e-07 0.0000000e+00 
7.5750251e-08 -2.4828012e-07 0.0000000e+00 
-4.1308031e-08 1.6508608e-09 0.0000000e+00 
5.3413469e-08 -5.2252136e-09 0.0000000e+00 
4.0773614e-08 -1.2058639e-08 0.0000000e+00 
3.9055752e-08 4.1460817e-09 0.0000000e+00 
-7.8647098e-08 -1.2269687e-08 0.0000000e+00 
7.1875576e-08 -4.5372889e-08 0.0000000e+00 
2.8114856e-08 -1.5144529e-08 0.0000000e+00 
2.9282020e-08 3.3901390e-08 0.0000000e+00 
-1.1404122e-09 6.3053363e-09 0.0000000e+00 
5.8821747e-09 4.5777313e-08 0.0000000e+00 
-1.1102014e-08 -5.2992878e-08 0.0000000e+00 
2.5318556e-08 6.4256824e-08 0.0000000e+00 
1.0100241e-08 6.7275394e-08 0.0000000e+00 
-1.9817582e-08 2.0956373e-08 0.0000000e+00 
2.2058156e-08 -8.7640494e-08 0.0000000e+00 
1.3901707e-08 -1.7593538e-07 0.0000000e+00 
-2.0363421e-08 -1.2843709e-07 0.0000000e+00 
-2.7142784e-08 -2.1229769e-07 0.0000000e+00 
3.3308301e-09 -2.7034648e-07 0.0000000e+00 
-3.1557050e-08 -2.9776288e-07 0.0000000e+00 
-1.0875912e-08 -3.6641939e-07 0.0000000e+00 
-3.1809716e-08 -3.7691612e-07 0.0000000e+00 
-2.6304903e-08 -4.6091461e-07 0.0000000e+00 
-1.9992903e-08 -4.2695990e-07 0.0000000e+00 
-2.2313314e-08 -5.1120264e-07 0.0000000e+00 
4.8772391e-09 -4.1959277e-07 0.0000000e+00 
5.2371207e-10 -3.6248395e-07 0.0000000e+00 
-2.4598384e-10 -4.6605200e-07 0.0000000e+00 
2.7702177e-08 -3.4826235e-07 0.0000000e+00 
-3.9657412e-08 -4.6737910e-07 0.0000000e+00 
-2.7322514e-08 -5.6227384e-07 0.0000000e+00 
6.4011026e-08 -2.2730555e-07 0.0000000e+00 
4.8737817e-08 2.0963698e-08 0.0000000e+00 
-5.1714888e-08 -2.3360414e-07 0.0000000e+00 
1.1912943e-08 2.9106075e-09 0.0000000e+00 
2.1299821e-08 8.0489118e-09 0.0000000e+00 
1.4080228e-08 6.1211649e-09 0.0000000e+00 
-3.2929020e-08 1.2825883e-07 0.0000000e+00 
-1.5165817e-08 1.2763097e-07 0.0000000e+00 
-1.8857039e-08 1.1621577e-07 0.0000000e+00 