# vtk DataFile Version 4.0
vtk output
ASCII
DATASET UNSTRUCTURED_GRID
POINTS 663 float
0.0000000e+00 0.0000000e+00 0.0000000e+00 
5.0000000e+00 0.0000000e+00 0.0000000e+00 
5.0000000e+00 1.0000000e+00 0.0000000e+00 
0.0000000e+00 1.0000000e+00 0.0000000e+00 
1.0000000e-01 0.0000000e+00 0.0000000e+00 
2.0000000e-01 0.0000000e+00 0.0000000e+00 
3.0000001e-01 0.0000000e+00 0.0000000e+00 
4.0000001e-01 0.0000000e+00 0.0000000e+00 
5.0000000e-01 0.0000000e+00 0.0000000e+00 
6.0000002e-01 0.0000000e+00 0.0000000e+00 
6.9999999e-01 0.0000000e+00 0.0000000e+00 
8.0000001e-01 0.0000000e+00 0.0000000e+00 
8.9999998e-01 0.0000000e+00 0.0000000e+00 
1.0000000e+00 0.0000000e+00 0.0000000e+00 
1.1000000e+00 0.0000000e+00 0.0000000e+00 
1.2000000e+00 0.0000000e+00 0.0000000e+00 
1.3000000e+00 0.0000000e+00 0.0000000e+00 
1.4000000e+00 0.0000000e+00 0.0000000e+00 
1.5000000e+00 0.0000000e+00 0.0000000e+00 
1.6000000e+00 0.0000000e+00 0.0000000e+00 
1.7000000e+00 0.0000000e+00 0.0000000e+00 
1.8000000e+00 0.0000000e+00 0.0000000e+00 
1.9000000e+00 0.0000000e+00 0.0000000e+00 
2.0000000e+00 0.0000000e+00 0.0000000e+00 
2.0999999e+00 0.0000000e+00 0.0000000e+00 
2.2000000e+00 0.0000000e+00 0.0000000e+00 
2.3000000e+00 0.0000000e+00 0.0000000e+00 
2.4000001e+00 0.0000000e+00 0.0000000e+00 
2.5000000e+00 0.0000000e+00 0.0000000e+00 
2.5999999e+00 0.0000000e+00 0.0000000e+00 
2.7000000e+00 0.0000000e+00 0.0000000e+00 
2.8000000e+00 0.0000000e+00 0.0000000e+00 
2.9000001e+00 0.0000000e+00 0.0000000e+00 
3.0000000e+00 0.0000000e+00 0.0000000e+00 
3.0999999e+00 0.0000000e+00 0.0000000e+00 
3.2000000e+00 0.0000000e+00 0.0000000e+00 
3.3000000e+00 0.0000000e+00 0.0000000e+00 
3.4000001e+00 0.0000000e+00 0.0000000e+00 
3.5000000e+00 0.0000000e+00 0.0000000e+00 
3.5999999e+00 0.0000000e+00 0.0000000e+00 
3.7000000e+00 0.0000000e+00 0.0000000e+00 
3.8000000e+00 0.0000000e+00 0.0000000e+00 
3.9000001e+00 0.0000000e+00 0.0000000e+00 
4.0000000e+00 0.0000000e+00 0.0000000e+00 
4.0999999e+00 0.0000000e+00 0.0000000e+00 
4.1999998e+00 0.0000000e+00 0.0000000e+00 
4.3000002e+00 0.0000000e+00 0.0000000e+00 
4.4000001e+00 0.0000000e+00 0.0000000e+00 
4.5000000e+00 0.0000000e+00 0.0000000e+00 
4.5999999e+00 0.0000000e+00 0.0000000e+00 
4.6999998e+00 0.0000000e+00 0.0000000e+00 
4.8000002e+00 0.0000000e+00 0.0000000e+00 
4.9000001e+00 0.0000000e+00 0.0000000e+00 
5.0000000e+00 1.0000000e-01 0.0000000e+00 
5.0000000e+00 2.0000000e-01 0.0000000e+00 
5.0000000e+00 3.0000001e-01 0.0000000e+00 
5.0000000e+00 4.0000001e-01 0.0000000e+00 
5.0000000e+00 5.0000000e-01 0.0000000e+00 
5.0000000e+00 6.0000002e-01 0.0000000e+00 
5.0000000e+00 6.9999999e-01 0.0000000e+00 
5.0000000e+00 8.0000001e-01 0.0000000e+00 
5.0000000e+00 8.9999998e-01 0.0000000e+00 
4.9000001e+00 1.0000000e+00 0.0000000e+00 
4.8000002e+00 1.0000000e+00 0.0000000e+00 
4.6999998e+00 1.0000000e+00 0.0000000e+00 
4.5999999e+00 1.0000000e+00 0.0000000e+00 
4.5000000e+00 1.0000000e+00 0.0000000e+00 
4.4000001e+00 1.0000000e+00 0.0000000e+00 
4.3000002e+00 1.0000000e+00 0.0000000e+00 
4.1999998e+00 1.0000000e+00 0.0000000e+00 
4.0999999e+00 1.0000000e+00 0.0000000e+00 
4.0000000e+00 1.0000000e+00 0.0000000e+00 
3.9000001e+00 1.0000000e+00 0.0000000e+00 
3.8000000e+00 1.0000000e+00 0.0000000e+00 
3.7000000e+00 1.0000000e+00 0.0000000e+00 
3.5999999e+00 1.0000000e+00 0.0000000e+00 
3.5000000e+00 1.0000000e+00 0.0000000e+00 
3.4000001e+00 1.0000000e+00 0.0000000e+00 
3.3000000e+00 1.0000000e+00 0.0000000e+00 
3.2000000e+00 1.0000000e+00 0.0000000e+00 
3.0999999e+00 1.0000000e+00 0.0000000e+00 
3.0000000e+00 1.0000000e+00 0.0000000e+00 
2.9000001e+00 1.0000000e+00 0.0000000e+00 
2.8000000e+00 1.0000000e+00 0.0000000e+00 
2.7000000e+00 1.0000000e+00 0.0000000e+00 
2.5999999e+00 1.0000000e+00 0.0000000e+00 
2.5000000e+00 1.0000000e+00 0.0000000e+00 
2.4000001e+00 1.0000000e+00 0.0000000e+00 
2.3000000e+00 1.0000000e+00 0.0000000e+00 
2.2000000e+00 1.0000000e+00 0.0000000e+00 
2.0999999e+00 1.0000000e+00 0.0000000e+00 
2.0000000e+00 1.0000000e+00 0.0000000e+00 
1.9000000e+00 1.0000000e+00 0.0000000e+00 
1.8000000e+00 1.0000000e+00 0.0000000e+00 
1.7000000e+00 1.0000000e+00 0.0000000e+00 
1.6000000e+00 1.0000000e+00 0.0000000e+00 
1.5000000e+00 1.0000000e+00 0.0000000e+00 
1.4000000e+00 1.0000000e+00 0.0000000e+00 
1.3000000e+00 1.0000000e+00 0.0000000e+00 
1.2000000e+00 1.0000000e+00 0.0000000e+00 
1.1000000e+00 1.0000000e+00 0.0000000e+00 
1.0000000e+00 1.0000000e+00 0.0000000e+00 
8.9999998e-01 1.0000000e+00 0.0000000e+00 
8.0000001e-01 1.0000000e+00 0.0000000e+00 
6.9999999e-01 1.0000000e+00 0.0000000e+00 
6.0000002e-01 1.0000000e+00 0.0000000e+00 
5.0000000e-01 1.0000000e+00 0.0000000e+00 
4.0000001e-01 1.0000000e+00 0.0000000e+00 
3.0000001e-01 1.0000000e+00 0.0000000e+00 
2.0000000e-01 1.0000000e+00 0.0000000e+00 
1.0000000e-01 1.0000000e+00 0.0000000e+00 
0.0000000e+00 8.9999998e-01 0.0000000e+00 
0.0000000e+00 8.0000001e-01 0.0000000e+00 
0.0000000e+00 6.9999999e-01 0.0000000e+00 
0.0000000e+00 6.0000002e-01 0.0000000e+00 
0.0000000e+00 5.0000000e-01 0.0000000e+00 
0.0000000e+00 4.0000001e-01 0.0000000e+00 
0.0000000e+00 3.0000001e-01 0.0000000e+00 
0.0000000e+00 2.0000000e-01 0.0000000e+00 
0.0000000e+00 1.0000000e-01 0.0000000e+00 
4.3499999e+00 8.6602539e-02 0.0000000e+00 
2.2500000e+00 9.1339743e-01 0.0000000e+00 
4.0500002e+00 9.1339743e-01 0.0000000e+00 
2.7500000e+00 8.3308272e-02 0.0000000e+00 
3.2500000e+00 8.6602539e-02 0.0000000e+00 
3.7500000e+00 8.6602539e-02 0.0000000e+00 
1.2500000e+00 9.1339743e-01 0.0000000e+00 
1.7500000e+00 9.1339743e-01 0.0000000e+00 
9.4999999e-01 9.1339743e-01 0.0000000e+00 
5.5000001e-01 9.1339743e-01 0.0000000e+00 
7.5000000e-01 8.3308272e-02 0.0000000e+00 
1.4524696e+00 8.1907488e-02 0.0000000e+00 
1.9500000e+00 8.6602539e-02 0.0000000e+00 
3.4500000e+00 9.1339743e-01 0.0000000e+00 
2.9500000e+00 9.1339743e-01 0.0000000e+00 
2.4500000e+00 8.6602539e-02 0.0000000e+00 
4.4499998e+00 9.1339743e-01 0.0000000e+00 
2.6500001e+00 9.1339743e-01 0.0000000e+00 
1.1500000e+00 8.6602539e-02 0.0000000e+00 
4.0517640e+00 7.8262508e-02 0.0000000e+00 
3.7500000e+00 9.1339743e-01 0.0000000e+00 
9.5000088e-02 4.6391028e-01 0.0000000e+00 
4.9059730e+00 4.6363035e-01 0.0000000e+00 
4.5246965e-01 8.1907488e-02 0.0000000e+00 
4.6500001e+00 8.6602539e-02 0.0000000e+00 
4.6500001e+00 9.1339743e-01 0.0000000e+00 
7.5000000e-01 9.1339743e-01 0.0000000e+00 
4.9111457e+00 6.5092021e-01 0.0000000e+00 
2.2500000e+00 8.6602539e-02 0.0000000e+00 
3.2500000e+00 9.1339743e-01 0.0000000e+00 
9.4999999e-01 8.6602539e-02 0.0000000e+00 
2.9500000e+00 8.6602539e-02 0.0000000e+00 
3.4500000e+00 8.6602539e-02 0.0000000e+00 
2.4500000e+00 9.1339743e-01 0.0000000e+00 
1.9500000e+00 9.1339743e-01 0.0000000e+00 
1.5500000e+00 9.1339743e-01 0.0000000e+00 
1.6500000e+00 8.6602539e-02 0.0000000e+00 
3.4999999e-01 9.1339743e-01 0.0000000e+00 
9.0659410e-02 6.5153849e-01 0.0000000e+00 
4.2500000e+00 9.1339743e-01 0.0000000e+00 
2.5402120e-01 7.9592258e-02 0.0000000e+00 
4.9112749e+00 2.5204152e-01 0.0000000e+00 
8.6602539e-02 2.5000000e-01 0.0000000e+00 
4.9094305e+00 8.4081745e-01 0.0000000e+00 
9.0569727e-02 8.4081745e-01 0.0000000e+00 
4.8445559e+00 9.5495284e-02 0.0000000e+00 
3.9500000e+00 9.1339743e-01 0.0000000e+00 
4.0000000e+00 8.2679492e-01 0.0000000e+00 
4.0999999e+00 8.2679492e-01 0.0000000e+00 
4.0500002e+00 7.4019235e-01 0.0000000e+00 
4.1500001e+00 7.4019235e-01 0.0000000e+00 
4.0999999e+00 6.5358984e-01 0.0000000e+00 
4.1999998e+00 6.5358984e-01 0.0000000e+00 
4.0000000e+00 6.5358984e-01 0.0000000e+00 
4.1500001e+00 5.6698728e-01 0.0000000e+00 
4.2500000e+00 5.6698728e-01 0.0000000e+00 
4.1999998e+00 4.8038477e-01 0.0000000e+00 
4.3000002e+00 4.8038477e-01 0.0000000e+00 
4.3499999e+00 5.6698728e-01 0.0000000e+00 
4.4000001e+00 4.8038477e-01 0.0000000e+00 
4.4499998e+00 5.6698728e-01 0.0000000e+00 
4.5000000e+00 4.8038477e-01 0.0000000e+00 
4.0999999e+00 4.8038477e-01 0.0000000e+00 
4.5500002e+00 5.6698728e-01 0.0000000e+00 
4.2500000e+00 3.9378223e-01 0.0000000e+00 
4.4499998e+00 3.9378223e-01 0.0000000e+00 
4.5500002e+00 3.9378223e-01 0.0000000e+00 
4.5024695e+00 3.0860552e-01 0.0000000e+00 
4.5000000e+00 6.5358984e-01 0.0000000e+00 
4.5999999e+00 6.5358984e-01 0.0000000e+00 
4.6500001e+00 5.6698728e-01 0.0000000e+00 
4.6004114e+00 3.0741730e-01 0.0000000e+00 
4.6999998e+00 6.5358984e-01 0.0000000e+00 
4.5500002e+00 7.4019235e-01 0.0000000e+00 
4.4499998e+00 7.4019235e-01 0.0000000e+00 
4.4028811e+00 3.1213742e-01 0.0000000e+00 
3.9000001e+00 8.2679492e-01 0.0000000e+00 
4.2500000e+00 7.4019235e-01 0.0000000e+00 
4.6500688e+00 3.9382184e-01 0.0000000e+00 
4.7000799e+00 3.0722588e-01 0.0000000e+00 
4.7507491e+00 5.6669539e-01 0.0000000e+00 
4.5510750e+00 2.2357146e-01 0.0000000e+00 
4.7483096e+00 3.9479813e-01 0.0000000e+00 
4.8143229e+00 3.0351433e-01 0.0000000e+00 
4.7489839e+00 2.2150035e-01 0.0000000e+00 
4.8026423e+00 6.5280432e-01 0.0000000e+00 
4.7504406e+00 7.4006146e-01 0.0000000e+00 
4.8507943e+00 7.4260241e-01 0.0000000e+00 
4.8009601e+00 8.2998371e-01 0.0000000e+00 
4.8518200e+00 5.6202388e-01 0.0000000e+00 
4.8002234e+00 4.7973469e-01 0.0000000e+00 
4.7002335e+00 8.2730454e-01 0.0000000e+00 
4.6500239e+00 2.2246142e-01 0.0000000e+00 
4.5000000e+00 8.2679492e-01 0.0000000e+00 
4.4000001e+00 8.2679492e-01 0.0000000e+00 
4.6000390e+00 8.2687986e-01 0.0000000e+00 
4.6501188e+00 7.4026966e-01 0.0000000e+00 
4.1999998e+00 8.2679492e-01 0.0000000e+00 
4.1500001e+00 9.1339743e-01 0.0000000e+00 
4.1500001e+00 3.9378223e-01 0.0000000e+00 
4.0500002e+00 3.9378223e-01 0.0000000e+00 
4.1999998e+00 3.0717969e-01 0.0000000e+00 
4.0000000e+00 4.8038477e-01 0.0000000e+00 
3.9500000e+00 3.9378223e-01 0.0000000e+00 
3.9000001e+00 4.8038477e-01 0.0000000e+00 
3.8499999e+00 3.9378223e-01 0.0000000e+00 
3.8000000e+00 4.8038477e-01 0.0000000e+00 
3.7500000e+00 3.9378223e-01 0.0000000e+00 
3.7000000e+00 4.8038477e-01 0.0000000e+00 
3.6500001e+00 3.9378223e-01 0.0000000e+00 
[...]
POINT_DATA 663
FIELD FieldData 2
DISPLACEMENT 3 663  float
0.0000000e+00 0.0000000e+00 0.0000000e+00 
0.0000000e+00 0.0000000e+00 0.0000000e+00 
0.0000000e+00 -5.5357308e-08 0.0000000e+00 
0.0000000e+00 -1.6039368e-07 0.0000000e+00 
0.0000000e+00 0.0000000e+00 0.0000000e+00 
0.0000000e+00 0.0000000e+00 0.0000000e+00 
0.0000000e+00 0.0000000e+00 0.0000000e+00 
0.0000000e+00 0.0000000e+00 0.0000000e+00 
0.0000000e+00 0.0000000e+00 0.0000000e+00 
0.0000000e+00 0.0000000e+00 0.0000000e+00 
0.0000000e+00 0.0000000e+00 0.0000000e+00 
0.0000000e+00 0.0000000e+00 0.0000000e+00 
0.0000000e+00 0.0000000e+00 0.0000000e+00 
0.0000000e+00 0.0000000e+00 0.0000000e+00 
0.0000000e+00 0.0000000e+00 0.0000000e+00 
0.0000000e+00 0.0000000e+00 0.0000000e+00 
0.0000000e+00 0.0000000e+00 0.0000000e+00 
0.0000000e+00 0.0000000e+00 0.0000000e+00 
0.0000000e+00 0.0000000e+00 0.0000000e+00 
0.0000000e+00 0.0000000e+00 0.0000000e+00 
0.0000000e+00 0.0000000e+00 0.0000000e+00 
0.0000000e+00 0.0000000e+00 0.0000000e+00 
0.0000000e+00 0.0000000e+00 0.0000000e+00 
0.0000000e+00 0.0000000e+00 0.0000000e+00 
0.0000000e+00 0.0000000e+00 0.0000000e+00 
0.0000000e+00 0.0000000e+00 0.0000000e+00 
0.0000000e+00 0.0000000e+00 0.0000000e+00 
0.0000000e+00 0.0000000e+00 0.0000000e+00 
0.0000000e+00 0.0000000e+00 0.0000000e+00 
0.0000000e+00 0.0000000e+00 0.0000000e+00 
0.0000000e+00 0.0000000e+00 0.0000000e+00 
0.0000000e+00 0.0000000e+00 0.0000000e+00 
0.0000000e+00 0.0000000e+00 0.0000000e+00 
0.0000000e+00 0.0000000e+00 0.0000000e+00 
0.0000000e+00 0.0000000e+00 0.0000000e+00 
0.0000000e+00 0.0000000e+00 0.0000000e+00 
0.0000000e+00 0.0000000e+00 0.0000000e+00 
0.0000000e+00 0.0000000e+00 0.0000000e+00 
0.0000000e+00 0.0000000e+00 0.0000000e+00 
0.0000000e+00 0.0000000e+00 0.0000000e+00 
0.0000000e+00 0.0000000e+00 0.0000000e+00 
0.0000000e+00 0.0000000e+00 0.0000000e+00 
0.0000000e+00 0.0000000e+00 0.0000000e+00 
0.0000000e+00 0.0000000e+00 0.0000000e+00 
0.0000000e+00 0.0000000e+00 0.0000000e+00 
0.0000000e+00 0.0000000e+00 0.0000000e+00 
0.0000000e+00 0.0000000e+00 0.0000000e+00 
0.0000000e+00 0.0000000e+00 0.0000000e+00 
0.0000000e+00 0.0000000e+00 0.0000000e+00 
0.0000000e+00 0.0000000e+00 0.0000000e+00 
0.0000000e+00 0.0000000e+00 0.0000000e+00 
0.0000000e+00 0.0000000e+00 0.0000000e+00 
0.0000000e+00 0.0000000e+00 0.0000000e+00 
0.0000000e+00 -2.0382572e-08 0.0000000e+00 
0.0000000e+00 -3.6527474e-08 0.0000000e+00 
0.0000000e+00 -4.6472152e-08 0.0000000e+00 
0.0000000e+00 -5.0205546e-08 0.0000000e+00 
0.0000000e+00 -5.0417977e-08 0.0000000e+00 
0.0000000e+00 -5.1538940e-08 0.0000000e+00 
0.0000000e+00 -5.4766069e-08 0.0000000e+00 
0.0000000e+00 -5.3792981e-08 0.0000000e+00 
0.0000000e+00 -4.7790049e-08 0.0000000e+00 
-2.4015916e-08 -5.7653764e-08 0.0000000e+00 
-4.6551985e-08 -7.2598823e-08 0.0000000e+00 
-7.9284696e-08 -8.4506127e-08 0.0000000e+00 
-1.1634791e-07 -1.2826416e-07 0.0000000e+00 
-1.4555683e-07 -2.0117918e-07 0.0000000e+00 
-1.7137316e-07 -2.8803694e-07 0.0000000e+00 
-2.0369156e-07 -3.9960273e-07 0.0000000e+00 
-2.4106177e-07 -5.7305556e-07 0.0000000e+00 
-2.5763757e-07 -8.7920137e-07 0.0000000e+00 
-1.4051594e-07 -1.6076859e-06 0.0000000e+00 
9.9285948e-08 -1.6437718e-06 0.0000000e+00 
2.3839843e-07 -9.1067557e-07 0.0000000e+00 
2.3763774e-07 -5.6852679e-07 0.0000000e+00 
1.9212098e-07 -3.4097630e-07 0.0000000e+00 
1.2735478e-07 -2.0178393e-07 0.0000000e+00 
6.8192129e-08 -1.4394416e-07 0.0000000e+00 
3.4734100e-08 -1.3911209e-07 0.0000000e+00 
2.9460454e-08 -1.4417786e-07 0.0000000e+00 
3.6078085e-08 -1.2717436e-07 0.0000000e+00 
3.2533027e-08 -8.8766775e-08 0.0000000e+00 
1.0520074e-08 -5.8865730e-08 0.0000000e+00 
-1.7105773e-08 -6.3253566e-08 0.0000000e+00 
-3.1510933e-08 -9.7321198e-08 0.0000000e+00 
-2.5541006e-08 -1.3422900e-07 0.0000000e+00 
-8.8655501e-09 -1.4759647e-07 0.0000000e+00 
5.6127275e-10 -1.3741155e-07 0.0000000e+00 
-3.9330943e-09 -1.2338504e-07 0.0000000e+00 
-1.6433015e-08 -1.2419383e-07 0.0000000e+00 
-2.4322555e-08 -1.4426142e-07 0.0000000e+00 
-1.8108796e-08 -1.7277459e-07 0.0000000e+00 
3.5884062e-09 -1.9141163e-07 0.0000000e+00 
3.1642458e-08 -1.8304077e-07 0.0000000e+00 
5.0239692e-08 -1.4828157e-07 0.0000000e+00 
5.1252290e-08 -1.1043585e-07 0.0000000e+00 
4.4098137e-08 -9.3060443e-08 0.0000000e+00 
4.4847404e-08 -9.0465839e-08 0.0000000e+00 
5.2744451e-08 -8.1000735e-08 0.0000000e+00 
5.7745854e-08 -6.1094610e-08 0.0000000e+00 
5.2428412e-08 -3.6605702e-08 0.0000000e+00 
3.2656107e-08 -1.8822227e-08 0.0000000e+00 
4.7267026e-09 -2.9810014e-08 0.0000000e+00 
-1.1289863e-08 -7.0525978e-08 0.0000000e+00 
-8.4960341e-09 -1.1123157e-07 0.0000000e+00 
4.8943596e-09 -1.3719891e-07 0.0000000e+00 
2.0074049e-08 -1.3553048e-07 0.0000000e+00 
1.8447949e-08 -1.2076649e-07 0.0000000e+00 
7.5510842e-09 -1.1765469e-07 0.0000000e+00 
-3.7572909e-09 -1.2990026e-07 0.0000000e+00 
-7.3829951e-09 -1.4820141e-07 0.0000000e+00 
0.0000000e+00 -1.5481872e-07 0.0000000e+00 
0.0000000e+00 -1.4723506e-07 0.0000000e+00 
0.0000000e+00 -1.3675080e-07 0.0000000e+00 
0.0000000e+00 -1.2519885e-07 0.0000000e+00 
0.0000000e+00 -1.1022295e-07 0.0000000e+00 
0.0000000e+00 -9.1273265e-08 0.0000000e+00 
0.0000000e+00 -6.9144804e-08 0.0000000e+00 
0.0000000e+00 -4.5113886e-08 0.0000000e+00 
0.0000000e+00 -2.1270376e-08 0.0000000e+00 
2.1406764e-08 -4.5798540e-08 0.0000000e+00 
-8.2946432e-09 -1.1903256e-07 0.0000000e+00 
1.9189235e-08 -1.0874585e-06 0.0000000e+00 
-1.6610164e-09 -1.7064805e-08 0.0000000e+00 
-2.0480451e-08 -2.4862544e-08 0.0000000e+00 
-1.7199804e-08 -5.1395041e-08 0.0000000e+00 
4.2691262e-08 -7.2806579e-08 0.0000000e+00 
2.3013103e-08 -1.6830865e-07 0.0000000e+00 
2.5963555e-08 -1.7048757e-08 0.0000000e+00 
1.6987560e-08 -1.4009989e-07 0.0000000e+00 
8.9185574e-09 -1.3980500e-08 0.0000000e+00 
-1.8635360e-09 -1.7559232e-08 0.0000000e+00 
2.3177293e-09 -2.1596957e-08 0.0000000e+00 
3.6332906e-08 -1.5919784e-07 0.0000000e+00 
5.2162967e-09 -6.7512403e-08 0.0000000e+00 
4.0035730e-09 -1.6919783e-08 0.0000000e+00 
-8.2018232e-08 -2.3891414e-07 0.0000000e+00 
-1.1114625e-08 -1.1666668e-07 0.0000000e+00 
-2.2045517e-09 -8.4681950e-09 0.0000000e+00 
6.3530328e-09 -5.3641955e-08 0.0000000e+00 
1.9879126e-08 -7.0980963e-07 0.0000000e+00 
4.6637227e-09 -9.8865584e-08 0.0000000e+00 
1.2822210e-08 -5.3324207e-08 0.0000000e+00 
5.3025859e-09 -1.3389879e-08 0.0000000e+00 
1.3150224e-08 -2.6662258e-08 0.0000000e+00 
-6.0036342e-08 -9.7108298e-08 0.0000000e+00 
1.2700079e-08 -9.1973170e-08 0.0000000e+00 
2.4686060e-09 -5.4440012e-08 0.0000000e+00 
8.8167713e-09 -2.0010553e-08 0.0000000e+00 
1.8843838e-08 -1.4182956e-07 0.0000000e+00 
6.7193158e-09 -4.8494568e-09 0.0000000e+00 
-6.9634001e-09 -1.6259746e-08 0.0000000e+00 
-2.4186843e-08 -3.5199939e-08 0.0000000e+00 
-4.4087582e-09 -1.4292550e-07 0.0000000e+00 
1.4640393e-10 -1.8578193e-07 0.0000000e+00 
3.2380683e-08 -9.7981420e-08 0.0000000e+00 
-1.9849395e-09 -2.0186475e-08 0.0000000e+00 
1.3293422e-08 -1.1492378e-07 0.0000000e+00 
5.0032711e-09 -1.2493608e-07 0.0000000e+00 
-7.9472734e-08 -4.7067925e-07 0.0000000e+00 
6.1207257e-09 -1.3037988e-08 0.0000000e+00 
7.9553351e-09 -4.4196298e-08 0.0000000e+00 
6.2173160e-09 -5.4791123e-08 0.0000000e+00 
-6.6780750e-09 -5.5995816e-08 0.0000000e+00 
4.1055190e-09 -1.4522440e-07 0.0000000e+00 
6.0716396e-09 -2.1874667e-08 0.0000000e+00 
-1.2532190e-08 -1.3552720e-06 0.0000000e+00 
3.0135919e-08 -1.0076806e-06 0.0000000e+00 
5.6788469e-08 -7.9458829e-07 0.0000000e+00 
5.1077269e-08 -7.5756981e-07 0.0000000e+00 
7.0731993e-08 -6.0037377e-07 0.0000000e+00 
6.1678925e-08 -5.7511716e-07 0.0000000e+00 
7.6375670e-08 -4.5957157e-07 0.0000000e+00 
1.6785373e-08 -6.5129734e-07 0.0000000e+00 
6.6788573e-08 -4.3722093e-07 0.0000000e+00 
7.7111807e-08 -3.5170737e-07 0.0000000e+00 
6.7578426e-08 -3.2968532e-07 0.0000000e+00 
7.3542097e-08 -2.6630855e-07 0.0000000e+00 
7.4549668e-08 -2.7032280e-07 0.0000000e+00 
7.0619414e-08 -2.0695445e-07 0.0000000e+00 
6.7109887e-08 -2.0287365e-07 0.0000000e+00 
6.3514491e-08 -1.5739671e-07 0.0000000e+00 
4.7429644e-08 -3.8430497e-07 0.0000000e+00 
5.7209942e-08 -1.4880590e-07 0.0000000e+00 
6.4052173e-08 -2.4369356e-07 0.0000000e+00 
6.1363828e-08 -1.5486414e-07 0.0000000e+00 
5.3557532e-08 -1.1975735e-07 0.0000000e+00 
4.8952362e-08 -1.1160364e-07 0.0000000e+00 
5.0081493e-08 -1.8619019e-07 0.0000000e+00 
3.7581234e-08 -1.2944419e-07 0.0000000e+00 
4.4257568e-08 -1.0636014e-07 0.0000000e+00 
4.0762515e-08 -8.8327546e-08 0.0000000e+00 
2.2755863e-08 -8.7699767e-08 0.0000000e+00 
1.7659227e-08 -1.5874515e-07 0.0000000e+00 
2.8009010e-08 -2.3037917e-07 0.0000000e+00 
5.5405941e-08 -1.4200643e-07 0.0000000e+00 
-5.6072579e-08 -1.0194653e-06 0.0000000e+00 
5.7465872e-08 -4.3991898e-07 0.0000000e+00 
4.3773170e-08 -9.2329039e-08 0.0000000e+00 
3.1429298e-08 -7.0366823e-08 0.0000000e+00 
2.9050357e-08 -7.5823856e-08 0.0000000e+00 
3.5680902e-08 -7.6196649e-08 0.0000000e+00 
3.2617862e-08 -7.2316624e-08 0.0000000e+00 
1.9672154e-08 -5.5687352e-08 0.0000000e+00 
2.0038263e-08 -5.0952877e-08 0.0000000e+00 
9.7046051e-09 -6.3331051e-08 0.0000000e+00 
-3.0572533e-09 -7.0199313e-08 0.0000000e+00 
-4.9909548e-09 -5.8489558e-08 0.0000000e+00 
-1.8748823e-08 -6.3478616e-08 0.0000000e+00 
1.5375299e-08 -5.8217847e-08 0.0000000e+00 
2.7156723e-08 -6.6114701e-08 0.0000000e+00 
-2.4607306e-08 -7.9724735e-08 0.0000000e+00 
2.7998867e-08 -6.1605604e-08 0.0000000e+00 
-2.0278090e-08 -1.9557849e-07 0.0000000e+00 
-1.4373288e-08 -2.8011172e-07 0.0000000e+00 
-2.3459821e-08 -1.2557639e-07 0.0000000e+00 
6.3003274e-09 -1.0300777e-07 0.0000000e+00 
2.5917402e-08 -5.5328599e-07 0.0000000e+00 
-4.8797698e-08 -6.9420867e-07 0.0000000e+00 
5.1914352e-08 -2.8598762e-07 0.0000000e+00 
2.7811726e-08 -3.1440942e-07 0.0000000e+00 
5.0106440e-08 -2.0443734e-07 0.0000000e+00 
1.2445858e-08 -4.1470651e-07 0.0000000e+00 
-5.3813225e-09 -3.2113920e-07 0.0000000e+00 
-3.0544996e-08 -4.1017290e-07 0.0000000e+00 
-4.0316923e-08 -3.0399679e-07 0.0000000e+00 
-6.9613705e-08 -3.7065365e-07 0.0000000e+00 
-6.8345173e-08 -2.6778983e-07 0.0000000e+00 
-9.3927781e-08 -3.0803031e-07 0.0000000e+00 
-8.3679168e-08 -2.2258396e-07 0.0000000e+00 
-9.9819943e-08 -2.4123142e-07 0.0000000e+00 
-8.6187718e-08 -1.7932703e-07 0.0000000e+00 
-9.2065861e-08 -1.8637270e-07 0.0000000e+00 
-8.0270823e-08 -1.4451943e-07 0.0000000e+00 
-7.9314972e-08 -1.4847012e-07 0.0000000e+00 
-7.1877302e-08 -1.1876728e-07 0.0000000e+00 
-6.8235209e-08 -1.2218148e-07 0.0000000e+00 
-6.3353937e-08 -9.7060635e-08 0.0000000e+00 
-6.0441863e-08 -9.9564339e-08 0.0000000e+00 
-5.4318729e-08 -7.6440308e-08 0.0000000e+00 
-5.3231489e-08 -7.8498729e-08 0.0000000e+00 
-4.3326594e-08 -6.1049626e-08 0.0000000e+00 
-4.2645524e-08 -6.3441945e-08 0.0000000e+00 
-3.0089545e-08 -5.5201621e-08 0.0000000e+00 
-2.7749737e-08 -6.0016120e-08 0.0000000e+00 
-1.6386668e-08 -5.8914672e-08 0.0000000e+00 
-1.2041474e-08 -6.8130639e-08 0.0000000e+00 
-5.5402087e-09 -6.7172799e-08 0.0000000e+00 
-7.8426204e-10 -8.0249912e-08 0.0000000e+00 
1.2988549e-10 -7.2679534e-08 0.0000000e+00 
3.7249008e-09 -8.6548596e-08 0.0000000e+00 
1.9682365e-09 -7.1811925e-08 0.0000000e+00 
3.8550776e-09 -8.4160284e-08 0.0000000e+00 
3.7214831e-09 -6.7864981e-08 0.0000000e+00 
3.6595997e-09 -8.0217553e-08 0.0000000e+00 
7.4428530e-09 -6.8635742e-08 0.0000000e+00 
5.7228342e-09 -8.3911999e-08 0.0000000e+00 
1.2291784e-08 -7.8205609e-08 0.0000000e+00 
9.6563086e-09 -9.7132336e-08 0.0000000e+00 
1.6027176e-08 -9.2506667e-08 0.0000000e+00 
1.2253329e-08 -1.1417364e-07 0.0000000e+00 
1.5369674e-08 -1.0312910e-07 0.0000000e+00 
1.0497330e-08 -1.2600343e-07 0.0000000e+00 
9.6657820e-09 -1.0614706e-07 0.0000000e+00 
4.6435766e-09 -1.2662738e-07 0.0000000e+00 
1.8383997e-09 -1.0099745e-07 0.0000000e+00 
-1.8947586e-09 -1.1652975e-07 0.0000000e+00 
-4.3169477e-09 -9.0872796e-08 0.0000000e+00 
-5.4065827e-09 -1.0112568e-07 0.0000000e+00 
-6.4042536e-09 -8.0821316e-08 0.0000000e+00 
-4.7552762e-09 -8.8301142e-08 0.0000000e+00 
-5.3238969e-09 -7.4874400e-08 0.0000000e+00 
-2.0760607e-09 -8.2738104e-08 0.0000000e+00 
-4.1461834e-09 -7.2062889e-08 0.0000000e+00 
-1.1260212e-10 -7.9461536e-08 0.0000000e+00 
-3.7195198e-09 -6.6318506e-08 0.0000000e+00 
1.4875836e-09 -6.9023940e-08 0.0000000e+00 
-1.3901112e-09 -5.2825516e-08 0.0000000e+00 
5.1611782e-09 -4.9974194e-08 0.0000000e+00 
4.6704796e-09 -3.4768000e-08 0.0000000e+00 
1.1480783e-08 -3.1667870e-08 0.0000000e+00 
1.3039030e-08 -2.2487988e-08 0.0000000e+00 
1.9577064e-08 -2.4970577e-08 0.0000000e+00 
2.1461322e-08 -2.4092982e-08 0.0000000e+00 
2.8435004e-08 -3.3817450e-08 0.0000000e+00 
2.8386712e-08 -3.8132594e-08 0.0000000e+00 
3.5014793e-08 -5.4496262e-08 0.0000000e+00 
3.1592638e-08 -5.6645948e-08 0.0000000e+00 
3.5577763e-08 -7.7148393e-08 0.0000000e+00 
2.9081287e-08 -7.0814323e-08 0.0000000e+00 
3.0690007e-08 -8.8580300e-08 0.0000000e+00 
2.3224922e-08 -7.4153249e-08 0.0000000e+00 
2.4206502e-08 -8.4950365e-08 0.0000000e+00 
1.8375372e-08 -6.8283036e-08 0.0000000e+00 
-1.1147691e-07 -3.2358162e-07 0.0000000e+00 
-6.7208653e-08 -1.4522050e-07 0.0000000e+00 
-4.8341708e-08 -7.8343334e-08 0.0000000e+00 
-5.6617413e-09 -7.7820751e-08 0.0000000e+00 
6.0685057e-09 -9.9747311e-08 0.0000000e+00 
1.8520943e-09 -9.2859374e-08 0.0000000e+00 
7.7723517e-09 -1.3552275e-07 0.0000000e+00 
2.2939262e-10 -1.4235573e-07 0.0000000e+00 
-4.0686468e-09 -1.0505693e-07 0.0000000e+00 
7.5586613e-09 -8.2148603e-08 0.0000000e+00 
1.8632846e-08 -2.8682051e-08 0.0000000e+00 
3.4316848e-08 -4.6192689e-08 0.0000000e+00 
3.5483041e-08 -9.6880250e-08 0.0000000e+00 
1.7945421e-08 -7.7688398e-08 0.0000000e+00 
2.1693891e-08 -9.3461978e-08 0.0000000e+00 
1.5296740e-08 -6.4008944e-08 0.0000000e+00 
2.1471800e-08 -5.7887519e-08 0.0000000e+00 
-4.2805914e-09 -5.0154142e-08 0.0000000e+00 
-1.9731519e-09 -7.5483008e-08 0.0000000e+00 
1.8142808e-08 -8.1076095e-08 0.0000000e+00 
6.0907578e-11 -5.8142323e-08 0.0000000e+00 
-4.2265214e-08 -5.7415804e-08 0.0000000e+00 
-7.0645093e-08 -1.5801596e-07 0.0000000e+00 
-1.7355365e-08 -2.3229914e-07 0.0000000e+00 
1.5606531e-08 -8.8738936e-08 0.0000000e+00 
1.9309104e-08 -1.0100544e-07 0.0000000e+00 
1.4326228e-08 -5.2142724e-08 0.0000000e+00 
2.1006038e-08 -2.3917082e-08 0.0000000e+00 
6.4665633e-09 -2.1588180e-08 0.0000000e+00 
-5.9653029e-09 -6.4002123e-08 0.0000000e+00 
7.3760114e-09 -5.4658962e-08 0.0000000e+00 
-1.7848421e-08 -4.8579636e-08 0.0000000e+00 
-6.6691001e-08 -1.0775197e-07 0.0000000e+00 
1.5540699e-08 -9.8147069e-08 0.0000000e+00 
1.3635576e-08 -5.1661726e-08 0.0000000e+00 
2.5119480e-08 -1.0964443e-07 0.0000000e+00 
-6.3201092e-08 -4.9825894e-07 0.0000000e+00 
2.0610857e-08 -1.1506039e-07 0.0000000e+00 
2.6174629e-08 -1.2352041e-07 0.0000000e+00 
1.2197297e-08 -9.3699853e-08 0.0000000e+00 
1.2358829e-08 -3.6589071e-08 0.0000000e+00 
1.2318626e-08 -6.8873121e-08 0.0000000e+00 
1.3176553e-08 -3.9871793e-08 0.0000000e+00 
1.2261221e-08 -3.8956497e-08 0.0000000e+00 
1.0675100e-08 -1.0918814e-07 0.0000000e+00 
1.1547431e-08 -1.0968683e-07 0.0000000e+00 
7.8650588e-09 -1.2552069e-07 0.0000000e+00 
9.3066426e-09 -1.2328334e-07 0.0000000e+00 
8.2119369e-09 -1.0654978e-07 0.0000000e+00 
1.1305949e-08 -5.8542732e-08 0.0000000e+00 
1.6850182e-08 -1.0501670e-07 0.0000000e+00 
3.4585057e-08 -2.2764519e-07 0.0000000e+00 
3.4079179e-08 -1.5302609e-07 0.0000000e+00 
4.4138677e-08 -1.4033596e-07 0.0000000e+00 
1.8642584e-08 -1.6546183e-07 0.0000000e+00 
2.9030240e-08 -9.6608119e-08 0.0000000e+00 
1.4533031e-08 -1.6051619e-08 0.0000000e+00 
7.1546253e-09 -1.1471290e-08 0.0000000e+00 
4.1469533e-10 -2.0911751e-08 0.0000000e+00 
1.3971550e-08 -1.2268532e-08 0.0000000e+00 
1.8171022e-08 -2.3041192e-08 0.0000000e+00 
-7.3013453e-08 -1.5869124e-07 0.0000000e+00 
1.7025247e-08 -3.2016828e-08 0.0000000e+00 
1.9427675e-08 -3.7180431e-08 0.0000000e+00 
3.4499600e-08 -7.5815549e-08 0.0000000e+00 
6.5991763e-08 -1.9754714e-07 0.0000000e+00 
-4.2812317e-08 -7.0901258e-08 0.0000000e+00 
1.0122741e-08 -6.6047143e-08 0.0000000e+00 
1.6909064e-08 -7.9610722e-08 0.0000000e+00 
1.3222365e-08 -8.9563422e-08 0.0000000e+00 
1.9211283e-08 -5.8972315e-08 0.0000000e+00 
2.2616472e-08 -8.7764839e-08 0.0000000e+00 
1.7594038e-08 -9.2264486e-08 0.0000000e+00 
7.6065536e-09 -9.2828408e-08 0.0000000e+00 
1.0697128e-08 -9.8504394e-08 0.0000000e+00 
2.8058851e-08 -9.1199496e-08 0.0000000e+00 
2.5713735e-08 -7.2391607e-08 0.0000000e+00 
2.6758475e-08 -4.8896023e-08 0.0000000e+00 
2.1235254e-08 -3.6983675e-08 0.0000000e+00 
2.7303610e-08 -2.7993442e-08 0.0000000e+00 
3.2666701e-08 -3.6315381e-08 0.0000000e+00 
2.5332003e-08 -2.5546953e-08 0.0000000e+00 
2.9995018e-08 -2.4061311e-08 0.0000000e+00 
3.1841825e-08 -3.4683325e-08 0.0000000e+00 
3.3115050e-08 -4.7852552e-08 0.0000000e+00 
3.6291709e-08 -6.4226221e-08 0.0000000e+00 
3.3287666e-08 -8.6320902e-08 0.0000000e+00 
3.6099980e-08 -9.6312654e-08 0.0000000e+00 
-2.2964493e-08 -2.9880024e-08 0.0000000e+00 
-3.8650885e-08 -5.1867492e-08 0.0000000e+00 
-3.3527069e-08 -4.2807468e-08 0.0000000e+00 
-4.8231090e-08 -6.5840673e-08 0.0000000e+00 
-4.2598902e-08 -6.3012052e-08 0.0000000e+00 
-4.1896136e-08 -7.0425536e-08 0.0000000e+00 
3.7817543e-08 -7.4811815e-08 0.0000000e+00 
1.6675516e-08 -4.6419110e-08 0.0000000e+00 
1.4059760e-08 -1.2638520e-07 0.0000000e+00 
2.6303939e-08 -2.8427348e-08 0.0000000e+00 
7.0709474e-09 -1.8009159e-08 0.0000000e+00 
1.3141218e-08 -3.5848373e-08 0.0000000e+00 
1.5375823e-08 -4.1522235e-08 0.0000000e+00 
1.6751928e-08 -5.3134027e-08 0.0000000e+00 
1.0420532e-08 -5.1281070e-08 0.0000000e+00 
-8.6123599e-08 -3.3447725e-07 0.0000000e+00 
2.9653389e-08 -1.2733018e-07 0.0000000e+00 
1.2379941e-08 -1.4376329e-07 0.0000000e+00 
8.8566079e-09 -1.7740534e-07 0.0000000e+00 
2.5599420e-09 -1.5247332e-07 0.0000000e+00 
3.5937324e-09 -1.7420354e-07 0.0000000e+00 
-8.4185309e-08 -1.7867509e-07 0.0000000e+00 
-6.2341357e-08 -1.6223062e-07 0.0000000e+00 
-4.6511953e-08 -1.4022541e-07 0.0000000e+00 
-8.6290370e-08 -2.1228941e-07 0.0000000e+00 
-3.1717153e-08 -1.4637469e-07 0.0000000e+00 
-2.2623647e-08 -1.3810576e-07 0.0000000e+00 
-4.1208850e-08 -1.2406096e-07 0.0000000e+00 
-2.3228189e-08 -1.2419456e-07 0.0000000e+00 
3.1288909e-08 -1.1484361e-07 0.0000000e+00 
1.3507519e-08 -4.4214548e-08 0.0000000e+00 
5.7041472e-08 -1.7619492e-07 0.0000000e+00 
-4.8800208e-09 -5.7860241e-08 0.0000000e+00 
-4.2076986e-09 -4.1172729e-08 0.0000000e+00 
-4.1018096e-09 -4.6641158e-08 0.0000000e+00 
2.4998188e-08 -1.3498124e-07 0.0000000e+00 
-4.9401696e-09 -1.2731974e-07 0.0000000e+00 
-6.1681953e-09 -1.1756590e-07 0.0000000e+00 
-5.8502483e-09 -1.2161524e-07 0.0000000e+00 
-3.7370875e-09 -1.1325343e-07 0.0000000e+00 
-1.2953033e-09 -1.2823966e-07 0.0000000e+00 
-3.0444183e-09 -1.1412042e-07 0.0000000e+00 
-3.3011291e-09 -1.4276127e-07 0.0000000e+00 
2.3763407e-09 -1.5294361e-07 0.0000000e+00 
6.8981165e-10 -1.1405578e-07 0.0000000e+00 
-3.9825783e-09 -1.2900267e-07 0.0000000e+00 
-1.7114669e-09 -1.3874478e-07 0.0000000e+00 
2.8380767e-10 -1.2402714e-07 0.0000000e+00 
3.6488583e-09 -1.2521515e-07 0.0000000e+00 
-8.0849960e-10 -1.2741981e-07 0.0000000e+00 
2.6789144e-09 -1.0719067e-07 0.0000000e+00 
-3.0183740e-09 -9.4606939e-08 0.0000000e+00 
-4.8605222e-09 -7.7773969e-08 0.0000000e+00 
-7.2095552e-09 -6.2638598e-08 0.0000000e+00 
-1.5910871e-08 -5.8606140e-08 0.0000000e+00 
-1.0311666e-08 -5.6897033e-08 0.0000000e+00 
-2.4598917e-08 -6.6282595e-08 0.0000000e+00 
-2.8121041e-08 -6.0341591e-08 0.0000000e+00 
-9.7127675e-09 -8.3299369e-08 0.0000000e+00 
-2.6429797e-08 -9.5459242e-08 0.0000000e+00 
1.2595718e-08 -1.0702514e-07 0.0000000e+00 
-4.0001558e-09 -5.3451728e-08 0.0000000e+00 
-7.6955802e-09 -1.4411337e-07 0.0000000e+00 
-7.1915572e-08 -1.3244006e-07 0.0000000e+00 
4.0343537e-09 -9.3839262e-08 0.0000000e+00 
-1.8369188e-09 -1.9118255e-08 0.0000000e+00 
-3.7592405e-09 -3.8397754e-08 0.0000000e+00 
-3.5598413e-09 -3.7520767e-08 0.0000000e+00 
4.8061551e-08 -4.3640537e-07 0.0000000e+00 