# vtk DataFile Version 4.0
vtk output
ASCII
DATASET UNSTRUCTURED_GRID
POINTS 663 float
0.0000000e+00 0.0000000e+00 0.0000000e+00 
5.0000000e+00 0.0000000e+00 0.0000000e+00 
5.0000000e+00 1.0000000e+00 0.0000000e+00 
0.0000000e+00 1.0000000e+00 0.0000000e+00 
1.0000000e-01 0.0000000e+00 0.0000000e+00 
2.0000000e-01 0.0000000e+00 0.0000000e+00 
3.0000001e-01 0.0000000e+00 0.0000000e+00 
4.0000001e-01 0.0000000e+00 0.0000000e+00 
5.0000000e-01 0.0000000e+00 0.0000000e+00 
6.0000002e-01 0.0000000e+00 0.0000000e+00 
6.9999999e-01 0.0000000e+00 0.0000000e+00 
8.0000001e-01 0.0000000e+00 0.0000000e+00 
8.9999998e-01 0.0000000e+00 0.0000000e+00 
1.0000000e+00 0.0000000e+00 0.0000000e+00 
1.1000000e+00 0.0000000e+00 0.0000000e+00 
1.2000000e+00 0.0000000e+00 0.0000000e+00 
1.3000000e+00 0.0000000e+00 0.0000000e+00 
1.4000000e+00 0.0000000e+00 0.0000000e+00 
1.5000000e+00 0.0000000e+00 0.0000000e+00 
1.6000000e+00 0.0000000e+00 0.0000000e+00 
1.7000000e+00 0.0000000e+00 0.0000000e+00 
1.8000000e+00 0.0000000e+00 0.0000000e+00 
1.9000000e+00 0.0000000e+00 0.0000000e+00 
2.0000000e+00 0.0000000e+00 0.0000000e+00 
2.0999999e+00 0.0000000e+00 0.0000000e+00 
2.2000000e+00 0.0000000e+00 0.0000000e+00 
2.3000000e+00 0.0000000e+00 0.0000000e+00 
2.4000001e+00 0.0000000e+00 0.0000000e+00 
2.5000000e+00 0.0000000e+00 0.0000000e+00 
2.5999999e+00 0.0000000e+00 0.0000000e+00 
2.7000000e+00 0.0000000e+00 0.0000000e+00 
2.8000000e+00 0.0000000e+00 0.0000000e+00 
2.9000001e+00 0.0000000e+00 0.0000000e+00 
3.0000000e+00 0.0000000e+00 0.0000000e+00 
3.0999999e+00 0.0000000e+00 0.0000000e+00 
3.2000000e+00 0.0000000e+00 0.0000000e+00 
3.3000000e+00 0.0000000e+00 0.0000000e+00 
3.4000001e+00 0.0000000e+00 0.0000000e+00 
3.5000000e+00 0.0000000e+00 0.0000000e+00 
3.5999999e+00 0.0000000e+00 0.0000000e+00 
3.7000000e+00 0.0000000e+00 0.0000000e+00 
3.8000000e+00 0.0000000e+00 0.0000000e+00 
3.9000001e+00 0.0000000e+00 0.0000000e+00 
4.0000000e+00 0.0000000e+00 0.0000000e+00 
4.0999999e+00 0.0000000e+00 0.0000000e+00 
4.1999998e+00 0.0000000e+00 0.0000000e+00 
4.3000002e+00 0.0000000e+00 0.0000000e+00 
4.4000001e+00 0.0000000e+00 0.0000000e+00 
4.5000000e+00 0.0000000e+00 0.0000000e+00 
4.5999999e+00 0.0000000e+00 0.0000000e+00 
4.6999998e+00 0.0000000e+00 0.0000000e+00 
4.8000002e+00 0.0000000e+00 0.0000000e+00 
4.9000001e+00 0.0000000e+00 0.0000000e+00 
5.0000000e+00 1.0000000e-01 0.0000000e+00 
5.0000000e+00 2.0000000e-01 0.0000000e+00 
5.0000000e+00 3.0000001e-01 0.0000000e+00 
5.0000000e+00 4.0000001e-01 0.0000000e+00 
5.0000000e+00 5.0000000e-01 0.0000000e+00 
5.0000000e+00 6.0000002e-01 0.0000000e+00 
5.0000000e+00 6.9999999e-01 0.0000000e+00 
5.0000000e+00 8.0000001e-01 0.0000000e+00 
5.0000000e+00 8.9999998e-01 0.0000000e+00 
4.9000001e+00 1.0000000e+00 0.0000000e+00 
4.8000002e+00 1.0000000e+00 0.0000000e+00 
4.6999998e+00 1.0000000e+00 0.0000000e+00 
4.5999999e+00 1.0000000e+00 0.0000000e+00 
4.5000000e+00 1.0000000e+00 0.0000000e+00 
4.4000001e+00 1.0000000e+00 0.0000000e+00 
4.3000002e+00 1.0000000e+00 0.0000000e+00 
4.1999998e+00 1.0000000e+00 0.0000000e+00 
4.0999999e+00 1.0000000e+00 0.0000000e+00 
4.0000000e+00 1.0000000e+00 0.0000000e+00 
3.9000001e+00 1.0000000e+00 0.0000000e+00 
3.8000000e+00 1.0000000e+00 0.0000000e+00 
3.7000000e+00 1.0000000e+00 0.0000000e+00 
3.5999999e+00 1.0000000e+00 0.0000000e+00 
3.5000000e+00 1.0000000e+00 0.0000000e+00 
3.4000001e+00 1.0000000e+00 0.0000000e+00 
3.3000000e+00 1.0000000e+00 0.0000000e+00 
3.2000000e+00 1.0000000e+00 0.0000000e+00 
3.0999999e+00 1.0000000e+00 0.0000000e+00 
3.0000000e+00 1.0000000e+00 0.0000000e+00 
2.9000001e+00 1.0000000e+00 0.0000000e+00 
2.8000000e+00 1.0000000e+00 0.0000000e+00 
2.7000000e+00 1.0000000e+00 0.0000000e+00 
2.5999999e+00 1.0000000e+00 0.0000000e+00 
2.5000000e+00 1.0000000e+00 0.0000000e+00 
2.4000001e+00 1.0000000e+00 0.0000000e+00 
2.3000000e+00 1.0000000e+00 0.0000000e+00 
2.2000000e+00 1.0000000e+00 0.0000000e+00 
2.0999999e+00 1.0000000e+00 0.0000000e+00 
2.0000000e+00 1.0000000e+00 0.0000000e+00 
1.9000000e+00 1.0000000e+00 0.0000000e+00 
1.8000000e+00 1.0000000e+00 0.0000000e+00 
1.7000000e+00 1.0000000e+00 0.0000000e+00 
1.6000000e+00 1.0000000e+00 0.0000000e+00 
1.5000000e+00 1.0000000e+00 0.0000000e+00 
1.4000000e+00 1.0000000e+00 0.0000000e+00 
1.3000000e+00 1.0000000e+00 0.0000000e+00 
1.2000000e+00 1.0000000e+00 0.0000000e+00 
1.1000000e+00 1.0000000e+00 0.0000000e+00 
1.0000000e+00 1.0000000e+00 0.0000000e+00 
8.9999998e-01 1.0000000e+00 0.0000000e+00 
8.0000001e-01 1.0000000e+00 0.0000000e+00 
6.9999999e-01 1.0000000e+00 0.0000000e+00 
6.0000002e-01 1.0000000e+00 0.0000000e+00 
5.0000000e-01 1.0000000e+00 0.0000000e+00 
4.0000001e-01 1.0000000e+00 0.0000000e+00 
3.0000001e-01 1.0000000e+00 0.0000000e+00 
2.0000000e-01 1.0000000e+00 0.0000000e+00 
1.0000000e-01 1.0000000e+00 0.0000000e+00 
0.0000000e+00 8.9999998e-01 0.0000000e+00 
0.0000000e+00 8.0000001e-01 0.0000000e+00 
0.0000000e+00 6.9999999e-01 0.0000000e+00 
0.0000000e+00 6.0000002e-01 0.0000000e+00 
0.0000000e+00 5.0000000e-01 0.0000000e+00 
0.0000000e+00 4.0000001e-01 0.0000000e+00 
0.0000000e+00 3.0000001e-01 0.0000000e+00 
0.0000000e+00 2.0000000e-01 0.0000000e+00 
0.0000000e+00 1.0000000e-01 0.0000000e+00 
4.3499999e+00 8.6602539e-02 0.0000000e+00 
2.2500000e+00 9.1339743e-01 0.0000000e+00 
4.0500002e+00 9.1339743e-01 0.0000000e+00 
2.7500000e+00 8.3308272e-02 0.0000000e+00 
3.2500000e+00 8.6602539e-02 0.0000000e+00 
3.7500000e+00 8.6602539e-02 0.0000000e+00 
1.2500000e+00 9.1339743e-01 0.0000000e+00 
1.7500000e+00 9.1339743e-01 0.0000000e+00 
9.4999999e-01 9.1339743e-01 0.0000000e+00 
5.5000001e-01 9.1339743e-01 0.0000000e+00 
7.5000000e-01 8.3308272e-02 0.0000000e+00 
1.4524696e+00 8.1907488e-02 0.0000000e+00 
1.9500000e+00 8.6602539e-02 0.0000000e+00 
3.4500000e+00 9.1339743e-01 0.0000000e+00 
2.9500000e+00 9.1339743e-01 0.0000000e+00 
2.4500000e+00 8.6602539e-02 0.0000000e+00 
4.4499998e+00 9.1339743e-01 0.0000000e+00 
2.6500001e+00 9.1339743e-01 0.0000000e+00 
1.1500000e+00 8.6602539e-02 0.0000000e+00 
4.0517640e+00 7.8262508e-02 0.0000000e+00 
3.7500000e+00 9.1339743e-01 0.0000000e+00 
9.5000088e-02 4.6391028e-01 0.0000000e+00 
4.9059730e+00 4.6363035e-01 0.0000000e+00 
4.5246965e-01 8.1907488e-02 0.0000000e+00 
4.6500001e+00 8.6602539e-02 0.0000000e+00 
4.6500001e+00 9.1339743e-01 0.0000000e+00 
7.5000000e-01 9.1339743e-01 0.0000000e+00 
4.9111457e+00 6.5092021e-01 0.0000000e+00 
2.2500000e+00 8.6602539e-02 0.0000000e+00 
3.2500000e+00 9.1339743e-01 0.0000000e+00 
9.4999999e-01 8.6602539e-02 0.0000000e+00 
2.9500000e+00 8.6602539e-02 0.0000000e+00 
3.4500000e+00 8.6602539e-02 0.0000000e+00 
2.4500000e+00 9.1339743e-01 0.0000000e+00 
1.9500000e+00 9.1339743e-01 0.0000000e+00 
1.5500000e+00 9.1339743e-01 0.0000000e+00 
1.6500000e+00 8.6602539e-02 0.0000000e+00 
3.4999999e-01 9.1339743e-01 0.0000000e+00 
9.0659410e-02 6.5153849e-01 0.0000000e+00 
4.2500000e+00 9.1339743e-01 0.0000000e+00 
2.5402120e-01 7.9592258e-02 0.0000000e+00 
4.9112749e+00 2.5204152e-01 0.0000000e+00 
8.6602539e-02 2.5000000e-01 0.0000000e+00 
4.9094305e+00 8.4081745e-01 0.0000000e+00 
9.0569727e-02 8.4081745e-01 0.0000000e+00 
4.8445559e+00 9.5495284e-02 0.0000000e+00 
3.9500000e+00 9.1339743e-01 0.0000000e+00 
4.0000000e+00 8.2679492e-01 0.0000000e+00 
4.0999999e+00 8.2679492e-01 0.0000000e+00 
4.0500002e+00 7.4019235e-01 0.0000000e+00 
4.1500001e+00 7.4019235e-01 0.0000000e+00 
4.0999999e+00 6.5358984e-01 0.0000000e+00 
4.1999998e+00 6.5358984e-01 0.0000000e+00 
4.0000000e+00 6.5358984e-01 0.0000000e+00 
4.1500001e+00 5.6698728e-01 0.0000000e+00 
4.2500000e+00 5.6698728e-01 0.0000000e+00 
4.1999998e+00 4.8038477e-01 0.0000000e+00 
4.3000002e+00 4.8038477e-01 0.0000000e+00 
4.3499999e+00 5.6698728e-01 0.0000000e+00 
4.4000001e+00 4.8038477e-01 0.0000000e+00 
4.4499998e+00 5.6698728e-01 0.0000000e+00 
4.5000000e+00 4.8038477e-01 0.0000000e+00 
4.0999999e+00 4.8038477e-01 0.0000000e+00 
4.5500002e+00 5.6698728e-01 0.0000000e+00 
4.2500000e+00 3.9378223e-01 0.0000000e+00 
4.4499998e+00 3.9378223e-01 0.0000000e+00 
4.5500002e+00 3.9378223e-01 0.0000000e+00 
4.5024695e+00 3.0860552e-01 0.0000000e+00 
4.5000000e+00 6.5358984e-01 0.0000000e+00 
4.5999999e+00 6.5358984e-01 0.0000000e+00 
4.6500001e+00 5.6698728e-01 0.0000000e+00 
4.6004114e+00 3.0741730e-01 0.0000000e+00 
4.6999998e+00 6.5358984e-01 0.0000000e+00 
4.5500002e+00 7.4019235e-01 0.0000000e+00 
4.4499998e+00 7.4019235e-01 0.0000000e+00 
4.4028811e+00 3.1213742e-01 0.0000000e+00 
3.9000001e+00 8.2679492e-01 0.0000000e+00 
4.2500000e+00 7.4019235e-01 0.0000000e+00 
4.6500688e+00 3.9382184e-01 0.0000000e+00 
4.7000799e+00 3.0722588e-01 0.0000000e+00 
4.7507491e+00 5.6669539e-01 0.0000000e+00 
4.5510750e+00 2.2357146e-01 0.0000000e+00 
4.7483096e+00 3.9479813e-01 0.0000000e+00 
4.8143229e+00 3.0351433e-01 0.0000000e+00 
4.7489839e+00 2.2150035e-01 0.0000000e+00 
4.8026423e+00 6.5280432e-01 0.0000000e+00 
4.7504406e+00 7.4006146e-01 0.0000000e+00 
4.8507943e+00 7.4260241e-01 0.0000000e+00 
4.8009601e+00 8.2998371e-01 0.0000000e+00 
4.8518200e+00 5.6202388e-01 0.0000000e+00 
4.8002234e+00 4.7973469e-01 0.0000000e+00 
4.7002335e+00 8.2730454e-01 0.0000000e+00 
4.6500239e+00 2.2246142e-01 0.0000000e+00 
4.5000000e+00 8.2679492e-01 0.0000000e+00 
4.4000001e+00 8.2679492e-01 0.0000000e+00 
4.6000390e+00 8.2687986e-01 0.0000000e+00 
4.6501188e+00 7.4026966e-01 0.0000000e+00 
4.1999998e+00 8.2679492e-01 0.0000000e+00 
4.1500001e+00 9.1339743e-01 0.0000000e+00 
4.1500001e+00 3.9378223e-01 0.0000000e+00 
4.0500002e+00 3.9378223e-01 0.0000000e+00 
4.1999998e+00 3.0717969e-01 0.0000000e+00 
4.0000000e+00 4.8038477e-01 0.0000000e+00 
3.9500000e+00 3.9378223e-01 0.0000000e+00 
3.9000001e+00 4.8038477e-01 0.0000000e+00 
3.8499999e+00 3.9378223e-01 0.0000000e+00 
3.8000000e+00 4.8038477e-01 0.0000000e+00 
3.7500000e+00 3.9378223e-01 0.0000000e+00 
3.7000000e+00 4.8038477e-01 0.0000000e+00 
3.6500001e+00 3.9378223e-01 0.0000000e+00 
[...]
POINT_DATA 663
FIELD FieldData 2
DISPLACEMENT 3 663  float
0.0000000e+00 0.0000000e+00 0.0000000e+00 
0.0000000e+00 0.0000000e+00 0.0000000e+00 
0.0000000e+00 -4.3802788e-07 0.0000000e+00 
0.0000000e+00 -1.9558920e-08 0.0000000e+00 
0.0000000e+00 0.0000000e+00 0.0000000e+00 
0.0000000e+00 0.0000000e+00 0.0000000e+00 
0.0000000e+00 0.0000000e+00 0.0000000e+00 
0.0000000e+00 0.0000000e+00 0.0000000e+00 
0.0000000e+00 0.0000000e+00 0.0000000e+00 
0.0000000e+00 0.0000000e+00 0.0000000e+00 
0.0000000e+00 0.0000000e+00 0.0000000e+00 
0.0000000e+00 0.0000000e+00 0.0000000e+00 
0.0000000e+00 0.0000000e+00 0.0000000e+00 
0.0000000e+00 0.0000000e+00 0.0000000e+00 
0.0000000e+00 0.0000000e+00 0.0000000e+00 
0.0000000e+00 0.0000000e+00 0.0000000e+00 
0.0000000e+00 0.0000000e+00 0.0000000e+00 
0.0000000e+00 0.0000000e+00 0.0000000e+00 
0.0000000e+00 0.0000000e+00 0.0000000e+00 
0.0000000e+00 0.0000000e+00 0.0000000e+00 
0.0000000e+00 0.0000000e+00 0.0000000e+00 
0.0000000e+00 0.0000000e+00 0.0000000e+00 
0.0000000e+00 0.0000000e+00 0.0000000e+00 
0.0000000e+00 0.0000000e+00 0.0000000e+00 
0.0000000e+00 0.0000000e+00 0.0000000e+00 
0.0000000e+00 0.0000000e+00 0.0000000e+00 
0.0000000e+00 0.0000000e+00 0.0000000e+00 
0.0000000e+00 0.0000000e+00 0.0000000e+00 
0.0000000e+00 0.0000000e+00 0.0000000e+00 
0.0000000e+00 0.0000000e+00 0.0000000e+00 
0.0000000e+00 0.0000000e+00 0.0000000e+00 
0.0000000e+00 0.0000000e+00 0.0000000e+00 
0.0000000e+00 0.0000000e+00 0.0000000e+00 
0.0000000e+00 0.0000000e+00 0.0000000e+00 
0.0000000e+00 0.0000000e+00 0.0000000e+00 
0.0000000e+00 0.0000000e+00 0.0000000e+00 
0.0000000e+00 0.0000000e+00 0.0000000e+00 
0.0000000e+00 0.0000000e+00 0.0000000e+00 
0.0000000e+00 0.0000000e+00 0.0000000e+00 
0.0000000e+00 0.0000000e+00 0.0000000e+00 
0.0000000e+00 0.0000000e+00 0.0000000e+00 
0.0000000e+00 0.0000000e+00 0.0000000e+00 
0.0000000e+00 0.0000000e+00 0.0000000e+00 
0.0000000e+00 0.0000000e+00 0.0000000e+00 
0.0000000e+00 0.0000000e+00 0.0000000e+00 
0.0000000e+00 0.0000000e+00 0.0000000e+00 
0.0000000e+00 0.0000000e+00 0.0000000e+00 
0.0000000e+00 0.0000000e+00 0.0000000e+00 
0.0000000e+00 0.0000000e+00 0.0000000e+00 
0.0000000e+00 0.0000000e+00 0.0000000e+00 
0.0000000e+00 0.0000000e+00 0.0000000e+00 
0.0000000e+00 0.0000000e+00 0.0000000e+00 
0.0000000e+00 0.0000000e+00 0.0000000e+00 
0.0000000e+00 -7.8490608e-08 0.0000000e+00 
0.0000000e+00 -1.5702076e-07 0.0000000e+00 
0.0000000e+00 -2.3401806e-07 0.0000000e+00 
0.0000000e+00 -3.0475121e-07 0.0000000e+00 
0.0000000e+00 -3.6209067e-07 0.0000000e+00 
0.0000000e+00 -4.0148203e-07 0.0000000e+00 
0.0000000e+00 -4.2503007e-07 0.0000000e+00 
0.0000000e+00 -4.3754125e-07 0.0000000e+00 
0.0000000e+00 -4.3875977e-07 0.0000000e+00 
-4.9542244e-08 -4.7218811e-07 0.0000000e+00 
-9.6140063e-08 -5.4331173e-07 0.0000000e+00 
-1.3743011e-07 -6.9115509e-07 0.0000000e+00 
-1.4800162e-07 -9.6938527e-07 0.0000000e+00 
-3.2247630e-08 -1.6561886e-06 0.0000000e+00 
1.9583668e-07 -1.6609672e-06 0.0000000e+00 
3.2413055e-07 -9.1709592e-07 0.0000000e+00 
3.2058077e-07 -5.7571674e-07 0.0000000e+00 
2.8088223e-07 -3.4935337e-07 0.0000000e+00 
2.2743235e-07 -2.0157431e-07 0.0000000e+00 
1.7776597e-07 -1.1878095e-07 0.0000000e+00 
1.4318076e-07 -7.7274528e-08 0.0000000e+00 
1.2305571e-07 -5.0150433e-08 0.0000000e+00 
1.0845210e-07 -2.1681641e-08 0.0000000e+00 
9.1405326e-08 7.7638189e-09 0.0000000e+00 
7.1660580e-08 3.0185106e-08 0.0000000e+00 
5.4674114e-08 4.2868304e-08 0.0000000e+00 
4.4104045e-08 5.0888822e-08 0.0000000e+00 
3.8615784e-08 6.0078243e-08 0.0000000e+00 
3.3767286e-08 7.3870140e-08 0.0000000e+00 
2.3832159e-08 9.1217906e-08 0.0000000e+00 
6.2961272e-09 1.0373682e-07 0.0000000e+00 
-1.4593178e-08 1.0296781e-07 0.0000000e+00 
-3.0793267e-08 8.6637399e-08 0.0000000e+00 
-3.4555420e-08 6.3684325e-08 0.0000000e+00 
-2.7610865e-08 5.0418386e-08 0.0000000e+00 
-2.0052754e-08 5.1320765e-08 0.0000000e+00 
-1.9048031e-08 5.7417921e-08 0.0000000e+00 
-2.2587315e-08 5.4963529e-08 0.0000000e+00 
-2.2978226e-08 4.6541494e-08 0.0000000e+00 
-1.8349924e-08 4.1837399e-08 0.0000000e+00 
-1.2164907e-08 4.4683890e-08 0.0000000e+00 
-5.9491794e-09 4.9955137e-08 0.0000000e+00 
-1.0158315e-09 5.7470398e-08 0.0000000e+00 
6.9583272e-10 6.2988768e-08 0.0000000e+00 
8.9617502e-10 6.1654511e-08 0.0000000e+00 
5.2983138e-09 5.9381033e-08 0.0000000e+00 
1.1431097e-08 7.0945269e-08 0.0000000e+00 
1.0880645e-08 9.1617899e-08 0.0000000e+00 
4.5750386e-09 1.1119275e-07 0.0000000e+00 
-7.6379649e-09 1.2891175e-07 0.0000000e+00 
-2.4366102e-08 1.3268030e-07 0.0000000e+00 
-3.6864868e-08 1.2569070e-07 0.0000000e+00 
-4.8386486e-08 1.1641844e-07 0.0000000e+00 
-5.7302632e-08 9.9311094e-08 0.0000000e+00 
-6.2224423e-08 8.0336200e-08 0.0000000e+00 
-6.3187002e-08 5.1747850e-08 0.0000000e+00 
-5.1502617e-08 2.1433241e-08 0.0000000e+00 
-3.1148119e-08 -7.9404812e-09 0.0000000e+00 
0.0000000e+00 -2.3195513e-08 0.0000000e+00 
0.0000000e+00 -2.3038842e-08 0.0000000e+00 
0.0000000e+00 -1.8773829e-08 0.0000000e+00 
0.0000000e+00 -1.4179826e-08 0.0000000e+00 
0.0000000e+00 -7.9928233e-09 0.0000000e+00 
0.0000000e+00 -3.9255270e-09 0.0000000e+00 
0.0000000e+00 -2.0646058e-09 0.0000000e+00 
0.0000000e+00 -6.1485747e-11 0.0000000e+00 
0.0000000e+00 1.2275544e-09 0.0000000e+00 
-3.0846284e-08 -6.3254532e-08 0.0000000e+00 
-1.9326764e-08 5.3759571e-08 0.0000000e+00 
1.3111131e-07 -2.6062716e-07 0.0000000e+00 
-1.7345203e-09 9.6777031e-09 0.0000000e+00 
-1.3129598e-08 5.4591003e-09 0.0000000e+00 
-2.7547699e-08 -1.6945632e-08 0.0000000e+00 
2.6275459e-11 6.3027201e-08 0.0000000e+00 
-1.2874086e-08 4.4689589e-08 0.0000000e+00 
-1.1218226e-08 1.2165839e-07 0.0000000e+00 
-4.1050217e-08 1.0868860e-07 0.0000000e+00 
-1.3221150e-09 1.5436326e-08 0.0000000e+00 
-7.2913910e-09 9.7168247e-09 0.0000000e+00 
3.4078915e-09 3.1927549e-09 0.0000000e+00 
6.0193386e-08 2.3509413e-08 0.0000000e+00 
1.8083021e-08 8.3827885e-08 0.0000000e+00 
1.4975143e-09 8.1655802e-09 0.0000000e+00 
6.6712587e-08 -1.3847252e-06 0.0000000e+00 
-1.5470540e-08 9.8266028e-08 0.0000000e+00 
-8.9182590e-09 8.4315577e-09 0.0000000e+00 
-3.2822680e-08 -3.7219710e-08 0.0000000e+00 
9.8808677e-08 -6.1252031e-08 0.0000000e+00 
6.0450853e-09 -3.0521643e-09 0.0000000e+00 
1.2567732e-08 -3.5169055e-07 0.0000000e+00 
4.9980584e-09 6.0754202e-09 0.0000000e+00 
-7.6323721e-09 -7.3168025e-08 0.0000000e+00 
3.1062029e-08 -8.0095185e-07 0.0000000e+00 
-2.7259899e-08 1.3014667e-07 0.0000000e+00 
2.7753501e-08 -4.2920314e-07 0.0000000e+00 
1.8984854e-09 9.4091357e-09 0.0000000e+00 
3.6753228e-08 4.8513819e-08 0.0000000e+00 
-9.0844878e-09 1.1364106e-08 0.0000000e+00 
-9.3192938e-09 9.8524895e-09 0.0000000e+00 
-1.6234695e-08 7.3266437e-10 0.0000000e+00 
-2.3616508e-08 5.3957205e-08 0.0000000e+00 
-1.9002918e-08 4.2616758e-08 0.0000000e+00 
-3.4745344e-09 5.8573232e-08 0.0000000e+00 
-5.5997451e-09 8.1559275e-09 0.0000000e+00 
-4.3261281e-08 6.5703496e-08 0.0000000e+00 
1.1478121e-09 -1.0753562e-08 0.0000000e+00 
9.7433606e-08 -7.1620974e-07 0.0000000e+00 
3.2300747e-09 2.3452755e-09 0.0000000e+00 
2.1486586e-09 -2.0026614e-07 0.0000000e+00 
3.4773369e-09 -6.4349837e-10 0.0000000e+00 
1.1627620e-08 -4.5702629e-07 0.0000000e+00 
-8.9191641e-09 -1.4942591e-08 0.0000000e+00 
4.8641209e-11 -7.7275068e-08 0.0000000e+00 
1.2216566e-07 -1.4900020e-07 0.0000000e+00 
4.5027555e-08 -2.0050668e-07 0.0000000e+00 
2.6569614e-08 -3.3977486e-07 0.0000000e+00 
-2.5123160e-08 -2.5992111e-07 0.0000000e+00 
-4.7776098e-08 -4.1093557e-07 0.0000000e+00 
-7.1220988e-08 -3.0696350e-07 0.0000000e+00 
-8.0364671e-08 -4.4529193e-07 0.0000000e+00 
-5.1317208e-08 -2.0264312e-07 0.0000000e+00 
-9.1183423e-08 -3.2606508e-07 0.0000000e+00 
-8.3106741e-08 -4.3289879e-07 0.0000000e+00 
-9.3217984e-08 -3.1410542e-07 0.0000000e+00 
-7.5324948e-08 -3.8899822e-07 0.0000000e+00 
-5.5003937e-08 -5.2306905e-07 0.0000000e+00 
-4.5407965e-08 -4.4407898e-07 0.0000000e+00 
-1.5320255e-08 -5.7101084e-07 0.0000000e+00 
-1.3000401e-08 -4.6654986e-07 0.0000000e+00 
-9.5610396e-08 -2.3792509e-07 0.0000000e+00 
2.1599012e-08 -5.6908351e-07 0.0000000e+00 
-8.6849930e-08 -2.7890547e-07 0.0000000e+00 
-3.9034703e-08 -3.6076142e-07 0.0000000e+00 
-1.3603309e-08 -3.6988376e-07 0.0000000e+00 
-3.2887066e-08 -2.7887609e-07 0.0000000e+00 
2.7089712e-08 -7.0295124e-07 0.0000000e+00 
6.4170415e-08 -6.5659600e-07 0.0000000e+00 
4.4081190e-08 -5.2898650e-07 0.0000000e+00 
-1.3587924e-08 -2.7968508e-07 0.0000000e+00 
7.3293350e-08 -5.7271421e-07 0.0000000e+00 
8.0328697e-08 -8.2427687e-07 0.0000000e+00 
2.2421908e-08 -8.6323041e-07 0.0000000e+00 
-5.5578280e-08 -2.6518595e-07 0.0000000e+00 
5.6275720e-08 -1.2098261e-07 0.0000000e+00 
-6.0194978e-08 -6.0540475e-07 0.0000000e+00 
4.2613566e-09 -3.5885262e-07 0.0000000e+00 
-6.9188066e-10 -2.7013360e-07 0.0000000e+00 
4.7570364e-08 -4.7243083e-07 0.0000000e+00 
-2.5740182e-08 -1.9786427e-07 0.0000000e+00 
1.2314713e-08 -3.3871623e-07 0.0000000e+00 
4.5456354e-09 -2.5128793e-07 0.0000000e+00 
-1.7147791e-09 -1.8859431e-07 0.0000000e+00 
5.7494372e-08 -4.8799632e-07 0.0000000e+00 
7.6098949e-08 -5.7029098e-07 0.0000000e+00 
4.3902016e-08 -4.8063197e-07 0.0000000e+00 
3.8587345e-08 -5.3222732e-07 0.0000000e+00 
3.3945263e-08 -4.2092799e-07 0.0000000e+00 
2.5611364e-08 -3.8977146e-07 0.0000000e+00 
7.5734924e-08 -6.7156583e-07 0.0000000e+00 
-1.0894738e-08 -1.9598535e-07 0.0000000e+00 
8.5376072e-08 -1.0559230e-06 0.0000000e+00 
3.3762031e-09 -1.0393574e-06 0.0000000e+00 
1.1024536e-07 -8.8221810e-07 0.0000000e+00 
9.6594569e-08 -7.0215657e-07 0.0000000e+00 
4.0765491e-10 -5.4791991e-07 0.0000000e+00 
1.2778760e-07 -4.4535670e-07 0.0000000e+00 
-9.6051593e-08 -2.2351590e-07 0.0000000e+00 
-9.3898919e-08 -1.7225679e-07 0.0000000e+00 
-8.7605919e-08 -1.9168878e-07 0.0000000e+00 
-8.6557705e-08 -1.7375545e-07 0.0000000e+00 
-8.4808519e-08 -1.2884449e-07 0.0000000e+00 
-7.3444937e-08 -1.2360425e-07 0.0000000e+00 
-7.3824715e-08 -9.1384379e-08 0.0000000e+00 
-6.1767707e-08 -8.2227679e-08 0.0000000e+00 
-6.3664885e-08 -5.7196903e-08 0.0000000e+00 
-5.3129131e-08 -4.5380133e-08 0.0000000e+00 
-5.4548988e-08 -2.6747800e-08 0.0000000e+00 
-4.6234145e-08 -1.3701338e-08 0.0000000e+00 
-4.5901480e-08 -3.0574341e-09 0.0000000e+00 
-3.9512809e-08 9.2872678e-09 0.0000000e+00 
-3.8049961e-08 1.1767260e-08 0.0000000e+00 
-3.3147039e-08 2.1797156e-08 0.0000000e+00 
-3.2721033e-08 1.8911825e-08 0.0000000e+00 
-2.8696311e-08 2.6829781e-08 0.0000000e+00 
-3.0698679e-08 2.3200606e-08 0.0000000e+00 
-2.7097032e-08 3.1089900e-08 0.0000000e+00 
-3.1611904e-08 2.9362949e-08 0.0000000e+00 
-2.7640695e-08 4.0080472e-08 0.0000000e+00 
-3.2707355e-08 3.9543064e-08 0.0000000e+00 
-2.8201820e-08 5.4085088e-08 0.0000000e+00 
-3.0759558e-08 5.1535991e-08 0.0000000e+00 
-2.6238277e-08 6.8178849e-08 0.0000000e+00 
-2.4394756e-08 5.9918463e-08 0.0000000e+00 
-2.0363974e-08 7.5545998e-08 0.0000000e+00 
-1.4329749e-08 6.0261435e-08 0.0000000e+00 
-1.1593403e-08 7.1595068e-08 0.0000000e+00 
-3.5754566e-09 5.2187328e-08 0.0000000e+00 
-3.3176064e-09 5.7784888e-08 0.0000000e+00 
3.7413748e-09 4.0287979e-08 0.0000000e+00 
1.2720087e-09 4.2608427e-08 0.0000000e+00 
5.6074545e-09 3.2086675e-08 0.0000000e+00 
1.2877392e-09 3.5198013e-08 0.0000000e+00 
3.2872050e-09 3.1851595e-08 0.0000000e+00 
-1.8524127e-09 3.6999904e-08 0.0000000e+00 
-5.9482025e-10 3.6019738e-08 0.0000000e+00 
-5.4409894e-09 4.1304805e-08 0.0000000e+00 
-3.3844638e-09 3.6823202e-08 0.0000000e+00 
-7.4631039e-09 4.0290921e-08 0.0000000e+00 
-4.0471426e-09 3.0292927e-08 0.0000000e+00 
-8.1799278e-09 3.2204785e-08 0.0000000e+00 
-4.1185593e-09 2.0348958e-08 0.0000000e+00 
-8.5857819e-09 2.2778027e-08 0.0000000e+00 
-5.4297931e-09 1.3986784e-08 0.0000000e+00 
-9.8825748e-09 1.8421728e-08 0.0000000e+00 
-8.9162935e-09 1.5064641e-08 0.0000000e+00 
-1.3013735e-08 2.1244022e-08 0.0000000e+00 
-1.3764844e-08 2.1620211e-08 0.0000000e+00 
-1.6851923e-08 2.9165905e-08 0.0000000e+00 
-1.8188167e-08 3.0038198e-08 0.0000000e+00 
-1.9830866e-08 3.8394457e-08 0.0000000e+00 
-2.1089013e-08 3.7164124e-08 0.0000000e+00 
-2.2074705e-08 4.5282903e-08 0.0000000e+00 
-2.3123803e-08 4.0761197e-08 0.0000000e+00 
-2.4464418e-08 4.8735082e-08 0.0000000e+00 
-2.5386703e-08 4.1881428e-08 0.0000000e+00 
-2.6434629e-08 5.2703573e-08 0.0000000e+00 
-2.6934368e-08 4.5246825e-08 0.0000000e+00 
-2.6544258e-08 6.1696547e-08 0.0000000e+00 
-2.5824960e-08 5.3916171e-08 0.0000000e+00 
-2.4988706e-08 7.4025976e-08 0.0000000e+00 
-2.2509420e-08 6.4981649e-08 0.0000000e+00 
-2.2952221e-08 8.4571134e-08 0.0000000e+00 
-1.8852365e-08 7.3436595e-08 0.0000000e+00 
-2.0193475e-08 9.0782208e-08 0.0000000e+00 
-1.4704698e-08 7.6601296e-08 0.0000000e+00 
-1.6103208e-08 8.9957268e-08 0.0000000e+00 
-9.1752232e-09 7.2049900e-08 0.0000000e+00 
-1.0964412e-08 7.9110144e-08 0.0000000e+00 
-3.0592922e-09 5.8448368e-08 0.0000000e+00 
-4.3850590e-09 6.1600666e-08 0.0000000e+00 
3.0936362e-09 4.0301746e-08 0.0000000e+00 
-3.5606135e-08 -3.0401981e-08 0.0000000e+00 
-2.4609310e-08 3.1069714e-08 0.0000000e+00 
-1.9579112e-08 5.3321987e-08 0.0000000e+00 
-1.5096312e-08 8.7683979e-08 0.0000000e+00 
-5.4000875e-09 5.8373530e-08 0.0000000e+00 
-5.4126810e-09 3.8015880e-08 0.0000000e+00 
-1.1143276e-08 4.1860389e-08 0.0000000e+00 
-1.2405834e-08 2.5516272e-08 0.0000000e+00 
-1.5104245e-08 2.8504259e-08 0.0000000e+00 
-2.1870184e-08 5.2560125e-08 0.0000000e+00 
-2.4886162e-08 8.0040628e-08 0.0000000e+00 
-2.2500227e-08 1.0189284e-07 0.0000000e+00 
-1.7176237e-08 9.7054460e-08 0.0000000e+00 
2.9996761e-09 4.2643659e-08 0.0000000e+00 
-6.6424022e-09 6.3425169e-08 0.0000000e+00 
8.5464693e-09 2.3802230e-08 0.0000000e+00 
-1.3672746e-09 5.1160072e-08 0.0000000e+00 
-2.2638412e-08 3.3234386e-08 0.0000000e+00 
-3.7351056e-09 9.7868522e-09 0.0000000e+00 
-2.1131581e-10 2.7736435e-08 0.0000000e+00 
3.1626890e-09 3.4392556e-08 0.0000000e+00 
-3.2499646e-08 2.7865442e-08 0.0000000e+00 
-4.8360718e-08 -1.4003071e-08 0.0000000e+00 
-7.6161903e-08 -9.1338556e-08 0.0000000e+00 
-7.5891088e-10 4.1025203e-08 0.0000000e+00 
-1.1425006e-08 6.0344497e-08 0.0000000e+00 
7.9174578e-09 2.2095447e-08 0.0000000e+00 
-1.7538710e-08 5.3715418e-08 0.0000000e+00 
-2.5226022e-08 3.5899809e-08 0.0000000e+00 
-1.4699497e-08 2.2790598e-08 0.0000000e+00 
5.5019278e-09 2.6305196e-08 0.0000000e+00 
-2.5266546e-08 4.3423050e-08 0.0000000e+00 
-3.3605605e-08 1.1298589e-08 0.0000000e+00 
-4.9433622e-09 3.5057461e-08 0.0000000e+00 
9.4907744e-09 1.0287139e-08 0.0000000e+00 
-1.6270425e-08 8.3297408e-08 0.0000000e+00 
-5.0512856e-08 -1.0841141e-07 0.0000000e+00 
-2.2227086e-08 7.9698303e-08 0.0000000e+00 
-2.3782894e-08 1.0026244e-07 0.0000000e+00 
3.8414285e-09 1.8806341e-08 0.0000000e+00 
9.1549488e-09 1.0140227e-08 0.0000000e+00 
1.1051408e-08 1.0987127e-08 0.0000000e+00 
8.2831688e-09 2.0630722e-08 0.0000000e+00 
7.8696880e-09 4.0032000e-09 0.0000000e+00 
-1.0891930e-10 9.7889341e-09 0.0000000e+00 
-1.1373475e-08 2.6270769e-08 0.0000000e+00 
-6.4539321e-09 -1.0455243e-09 0.0000000e+00 
-1.8861096e-08 1.3825136e-08 0.0000000e+00 
5.3484785e-09 4.5966808e-10 0.0000000e+00 
8.3593585e-09 1.9933637e-09 0.0000000e+00 
-1.6922986e-08 5.4469062e-08 0.0000000e+00 
-8.9900276e-08 -1.5481960e-07 0.0000000e+00 
-7.6263099e-08 -1.2498764e-07 0.0000000e+00 
-7.2963694e-08 -1.5410184e-07 0.0000000e+00 
-7.5244380e-08 -1.0394987e-07 0.0000000e+00 
-5.7190679e-08 -9.2765951e-08 0.0000000e+00 
-2.2390564e-08 4.3919421e-08 0.0000000e+00 
-2.0484874e-08 2.5539187e-08 0.0000000e+00 
-2.0989237e-08 2.2943942e-08 0.0000000e+00 
-1.6907638e-08 3.2934974e-08 0.0000000e+00 
-1.1697924e-08 4.1146720e-08 0.0000000e+00 
1.0001068e-07 -1.1564707e-06 0.0000000e+00 
-1.5182318e-08 -7.2506488e-08 0.0000000e+00 
-2.2793692e-08 -6.6455740e-08 0.0000000e+00 
-4.3497455e-08 -1.2672432e-07 0.0000000e+00 
-6.5914733e-08 -3.2946446e-07 0.0000000e+00 
-4.3804778e-09 -6.0053748e-07 0.0000000e+00 
-2.4542947e-08 5.7585840e-08 0.0000000e+00 
-1.9862162e-08 5.8837387e-08 0.0000000e+00 
-1.6732342e-08 5.3822760e-08 0.0000000e+00 
-2.2541712e-08 6.8145127e-08 0.0000000e+00 
-1.2073594e-08 5.8083859e-08 0.0000000e+00 
-1.0460109e-08 5.4883003e-08 0.0000000e+00 
-1.5210267e-08 4.7116568e-08 0.0000000e+00 
-1.1378075e-08 4.7553520e-08 0.0000000e+00 
-4.5934971e-09 5.9053676e-08 0.0000000e+00 
-1.5807005e-08 6.4916556e-08 0.0000000e+00 
-1.8486720e-08 7.9889858e-08 0.0000000e+00 
-2.3040236e-08 8.2393882e-08 0.0000000e+00 
-1.9711040e-08 9.7021129e-08 0.0000000e+00 
-1.2695221e-08 9.1595105e-08 0.0000000e+00 
-2.2944651e-08 9.7284776e-08 0.0000000e+00 
-2.0818574e-08 1.1291944e-07 0.0000000e+00 
-2.2425386e-08 1.0973874e-07 0.0000000e+00 
-2.0878007e-08 1.2359097e-07 0.0000000e+00 
-2.1028615e-08 1.1561766e-07 0.0000000e+00 
-2.1772044e-08 1.2253767e-07 0.0000000e+00 
-2.0501288e-08 1.1150654e-07 0.0000000e+00 
-1.4072656e-08 3.5407757e-09 0.0000000e+00 
-2.2982370e-08 9.0626937e-09 0.0000000e+00 
-2.2975371e-08 1.2430381e-08 0.0000000e+00 
-2.8379137e-08 1.4827865e-08 0.0000000e+00 
-2.5110920e-08 5.3016183e-09 0.0000000e+00 
-2.8399549e-08 -1.0176693e-09 0.0000000e+00 
-2.0025368e-08 1.0439723e-07 0.0000000e+00 
-1.8967070e-08 1.3429256e-07 0.0000000e+00 
-3.4846767e-08 1.2248579e-07 0.0000000e+00 
-2.4039895e-08 9.2816549e-08 0.0000000e+00 
1.1827417e-09 9.0802761e-09 0.0000000e+00 
2.2630209e-09 1.8019469e-08 0.0000000e+00 
3.0167628e-09 1.8185739e-08 0.0000000e+00 
1.9449546e-09 2.5565550e-08 0.0000000e+00 
4.7538711e-09 -2.7526278e-07 0.0000000e+00 
2.8655940e-08 -1.1295747e-06 0.0000000e+00 
-8.0079339e-09 5.0829993e-08 0.0000000e+00 
-1.3481177e-08 4.2556636e-08 0.0000000e+00 
-1.7024151e-08 3.8933422e-08 0.0000000e+00 
-1.6051549e-08 3.4849638e-08 0.0000000e+00 
-1.7406576e-08 3.5125939e-08 0.0000000e+00 
-2.8828769e-08 2.1337723e-08 0.0000000e+00 
-1.3790493e-08 3.1599544e-08 0.0000000e+00 
-1.2230726e-08 3.9104840e-08 0.0000000e+00 
-1.3771919e-08 1.3915419e-08 0.0000000e+00 
4.4570099e-09 3.9483897e-08 0.0000000e+00 
2.9075347e-09 4.5807585e-08 0.0000000e+00 
-1.0227230e-08 4.3607649e-08 0.0000000e+00 
2.5571913e-09 5.2105822e-08 0.0000000e+00 
-2.3720972e-08 1.1384179e-07 0.0000000e+00 
-2.5524059e-08 6.6787408e-08 0.0000000e+00 
-7.6055478e-08 -2.3409225e-07 0.0000000e+00 
-2.0912630e-08 3.2636009e-08 0.0000000e+00 
-1.8182616e-08 2.4735195e-08 0.0000000e+00 
-1.7369151e-08 2.4874018e-08 0.0000000e+00 
4.6884082e-08 4.0142769e-08 0.0000000e+00 
-2.1347333e-08 4.7853341e-08 0.0000000e+00 
-1.8075424e-08 4.8211550e-08 0.0000000e+00 
-1.7070175e-08 5.4108384e-08 0.0000000e+00 
-1.5002522e-08 4.8409252e-08 0.0000000e+00 
-1.4920490e-08 5.2147559e-08 0.0000000e+00 
-1.4872857e-08 4.3811973e-08 0.0000000e+00 
-1.6724899e-08 5.3524804e-08 0.0000000e+00 
-1.5501582e-08 4.8413238e-08 0.0000000e+00 
-1.2194374e-08 4.7739960e-08 0.0000000e+00 
-1.8565446e-08 4.7564527e-08 0.0000000e+00 
-1.7626743e-08 6.2219854e-08 0.0000000e+00 
-1.4080926e-08 5.0817125e-08 0.0000000e+00 
-1.2744156e-08 7.0984157e-08 0.0000000e+00 
-1.4517258e-08 8.6290456e-08 0.0000000e+00 
-1.1115377e-08 9.2924772e-08 0.0000000e+00 
-9.2151771e-09 1.0395474e-07 0.0000000e+00 
-8.4109297e-09 1.0353891e-07 0.0000000e+00 
-2.0427262e-09 1.0565473e-07 0.0000000e+00 
-4.7180864e-09 9.7839347e-08 0.0000000e+00 
5.1420623e-09 9.2747236e-08 0.0000000e+00 
-1.0059790e-09 8.1229381e-08 0.0000000e+00 
-1.1270848e-08 8.5311100e-08 0.0000000e+00 
1.0900118e-08 7.4397526e-08 0.0000000e+00 
1.6194587e-09 6.3850095e-08 0.0000000e+00 
2.4845935e-08 6.6901279e-08 0.0000000e+00 
8.1080662e-09 1.0101144e-07 0.0000000e+00 
-2.2352722e-08 7.5114833e-08 0.0000000e+00 
-4.0159236e-08 1.9553212e-09 0.0000000e+00 
-9.7463948e-09 7.7187558e-08 0.0000000e+00 
-6.9132842e-09 9.5995780e-09 0.0000000e+00 
-1.0954054e-08 1.6190453e-08 0.0000000e+00 
-6.4051764e-09 1.0707870e-08 0.0000000e+00 
8.7354870e-08 -3.4067909e-08 0.0000000e+00 
5.7654514e-08 -4.8375835e-08 0.0000000e+00 
4.9783786e-08 -1.7375996e-08 0.0000000e+00 
1.9546636e-08 -3.2862829e-08 0.0000000e+00 