# vtk DataFile Version 4.0
vtk output
ASCII
DATASET UNSTRUCTURED_GRID
POINTS 663 float
0.0000000e+00 0.0000000e+00 0.0000000e+00 
5.0000000e+00 0.0000000e+00 0.0000000e+00 
5.0000000e+00 1.0000000e+00 0.0000000e+00 
0.0000000e+00 1.0000000e+00 0.0000000e+00 
1.0000000e-01 0.0000000e+00 0.0000000e+00 
2.0000000e-01 0.0000000e+00 0.0000000e+00 
3.0000001e-01 0.0000000e+00 0.0000000e+00 
4.0000001e-01 0.0000000e+00 0.0000000e+00 
5.0000000e-01 0.0000000e+00 0.0000000e+00 
6.0000002e-01 0.0000000e+00 0.0000000e+00 
6.9999999e-01 0.0000000e+00 0.0000000e+00 
8.0000001e-01 0.0000000e+00 0.0000000e+00 
8.9999998e-01 0.0000000e+00 0.0000000e+00 
1.0000000e+00 0.0000000e+00 0.0000000e+00 
1.1000000e+00 0.0000000e+00 0.0000000e+00 
1.2000000e+00 0.0000000e+00 0.0000000e+00 
1.3000000e+00 0.0000000e+00 0.0000000e+00 
1.4000000e+00 0.0000000e+00 0.0000000e+00 
1.5000000e+00 0.0000000e+00 0.0000000e+00 
1.6000000e+00 0.0000000e+00 0.0000000e+00 
1.7000000e+00 0.0000000e+00 0.0000000e+00 
1.8000000e+00 0.0000000e+00 0.0000000e+00 
1.9000000e+00 0.0000000e+00 0.0000000e+00 
2.0000000e+00 0.0000000e+00 0.0000000e+00 
2.0999999e+00 0.0000000e+00 0.0000000e+00 
2.2000000e+00 0.0000000e+00 0.0000000e+00 
2.3000000e+00 0.0000000e+00 0.0000000e+00 
2.4000001e+00 0.0000000e+00 0.0000000e+00 
2.5000000e+00 0.0000000e+00 0.0000000e+00 
2.5999999e+00 0.0000000e+00 0.0000000e+00 
2.7000000e+00 0.0000000e+00 0.0000000e+00 
2.8000000e+00 0.0000000e+00 0.0000000e+00 
2.9000001e+00 0.0000000e+00 0.0000000e+00 
3.0000000e+00 0.0000000e+00 0.0000000e+00 
3.0999999e+00 0.0000000e+00 0.0000000e+00 
3.2000000e+00 0.0000000e+00 0.0000000e+00 
3.3000000e+00 0.0000000e+00 0.0000000e+00 
3.4000001e+00 0.0000000e+00 0.0000000e+00 
3.5000000e+00 0.0000000e+00 0.0000000e+00 
3.5999999e+00 0.0000000e+00 0.0000000e+00 
3.7000000e+00 0.0000000e+00 0.0000000e+00 
3.8000000e+00 0.0000000e+00 0.0000000e+00 
3.9000001e+00 0.0000000e+00 0.0000000e+00 
4.0000000e+00 0.0000000e+00 0.0000000e+00 
4.0999999e+00 0.0000000e+00 0.0000000e+00 
4.1999998e+00 0.0000000e+00 0.0000000e+00 
4.3000002e+00 0.0000000e+00 0.0000000e+00 
4.4000001e+00 0.0000000e+00 0.0000000e+00 
4.5000000e+00 0.0000000e+00 0.0000000e+00 
4.5999999e+00 0.0000000e+00 0.0000000e+00 
4.6999998e+00 0.0000000e+00 0.0000000e+00 
4.8000002e+00 0.0000000e+00 0.0000000e+00 
4.9000001e+00 0.0000000e+00 0.0000000e+00 
5.0000000e+00 1.0000000e-01 0.0000000e+00 
5.0000000e+00 2.0000000e-01 0.0000000e+00 
5.0000000e+00 3.0000001e-01 0.0000000e+00 
5.0000000e+00 4.0000001e-01 0.0000000e+00 
5.0000000e+00 5.0000000e-01 0.0000000e+00 
5.0000000e+00 6.0000002e-01 0.0000000e+00 
5.0000000e+00 6.9999999e-01 0.0000000e+00 
5.0000000e+00 8.0000001e-01 0.0000000e+00 
5.0000000e+00 8.9999998e-01 0.0000000e+00 
4.9000001e+00 1.0000000e+00 0.0000000e+00 
4.8000002e+00 1.0000000e+00 0.0000000e+00 
4.6999998e+00 1.0000000e+00 0.0000000e+00 
4.5999999e+00 1.0000000e+00 0.0000000e+00 
4.5000000e+00 1.0000000e+00 0.0000000e+00 
4.4000001e+00 1.0000000e+00 0.0000000e+00 
4.3000002e+00 1.0000000e+00 0.0000000e+00 
4.1999998e+00 1.0000000e+00 0.0000000e+00 
4.0999999e+00 1.0000000e+00 0.0000000e+00 
4.0000000e+00 1.0000000e+00 0.0000000e+00 
3.9000001e+00 1.0000000e+00 0.0000000e+00 
3.8000000e+00 1.0000000e+00 0.0000000e+00 
3.7000000e+00 1.0000000e+00 0.0000000e+00 
3.5999999e+00 1.0000000e+00 0.0000000e+00 
3.5000000e+00 1.0000000e+00 0.0000000e+00 
3.4000001e+00 1.0000000e+00 0.0000000e+00 
3.3000000e+00 1.0000000e+00 0.0000000e+00 
3.2000000e+00 1.0000000e+00 0.0000000e+00 
3.0999999e+00 1.0000000e+00 0.0000000e+00 
3.0000000e+00 1.0000000e+00 0.0000000e+00 
2.9000001e+00 1.0000000e+00 0.0000000e+00 
2.8000000e+00 1.0000000e+00 0.0000000e+00 
2.7000000e+00 1.0000000e+00 0.0000000e+00 
2.5999999e+00 1.0000000e+00 0.0000000e+00 
2.5000000e+00 1.0000000e+00 0.0000000e+00 
2.4000001e+00 1.0000000e+00 0.0000000e+00 
2.3000000e+00 1.0000000e+00 0.0000000e+00 
2.2000000e+00 1.0000000e+00 0.0000000e+00 
2.0999999e+00 1.0000000e+00 0.0000000e+00 
2.0000000e+00 1.0000000e+00 0.0000000e+00 
1.9000000e+00 1.0000000e+00 0.0000000e+00 
1.8000000e+00 1.0000000e+00 0.0000000e+00 
1.7000000e+00 1.0000000e+00 0.0000000e+00 
1.6000000e+00 1.0000000e+00 0.0000000e+00 
1.5000000e+00 1.0000000e+00 0.0000000e+00 
1.4000000e+00 1.0000000e+00 0.0000000e+00 
1.3000000e+00 1.0000000e+00 0.0000000e+00 
1.2000000e+00 1.0000000e+00 0.0000000e+00 
1.1000000e+00 1.0000000e+00 0.0000000e+00 
1.0000000e+00 1.0000000e+00 0.0000000e+00 
8.9999998e-01 1.0000000e+00 0.0000000e+00 
8.0000001e-01 1.0000000e+00 0.0000000e+00 
6.9999999e-01 1.0000000e+00 0.0000000e+00 
6.0000002e-01 1.0000000e+00 0.0000000e+00 
5.0000000e-01 1.0000000e+00 0.0000000e+00 
4.0000001e-01 1.0000000e+00 0.0000000e+00 
3.0000001e-01 1.0000000e+00 0.0000000e+00 
2.0000000e-01 1.0000000e+00 0.0000000e+00 
1.0000000e-01 1.0000000e+00 0.0000000e+00 
0.0000000e+00 8.9999998e-01 0.0000000e+00 
0.0000000e+00 8.0000001e-01 0.0000000e+00 
0.0000000e+00 6.9999999e-01 0.0000000e+00 
0.0000000e+00 6.0000002e-01 0.0000000e+00 
0.0000000e+00 5.0000000e-01 0.0000000e+00 
0.0000000e+00 4.0000001e-01 0.0000000e+00 
0.0000000e+00 3.0000001e-01 0.0000000e+00 
0.0000000e+00 2.0000000e-01 0.0000000e+00 
0.0000000e+00 1.0000000e-01 0.0000000e+00 
4.3499999e+00 8.6602539e-02 0.0000000e+00 
2.2500000e+00 9.1339743e-01 0.0000000e+00 
4.0500002e+00 9.1339743e-01 0.0000000e+00 
2.7500000e+00 8.3308272e-02 0.0000000e+00 
3.2500000e+00 8.6602539e-02 0.0000000e+00 
3.7500000e+00 8.6602539e-02 0.0000000e+00 
1.2500000e+00 9.1339743e-01 0.0000000e+00 
1.7500000e+00 9.1339743e-01 0.0000000e+00 
9.4999999e-01 9.1339743e-01 0.0000000e+00 
5.5000001e-01 9.1339743e-01 0.0000000e+00 
7.5000000e-01 8.3308272e-02 0.0000000e+00 
1.4524696e+00 8.1907488e-02 0.0000000e+00 
1.9500000e+00 8.6602539e-02 0.0000000e+00 
3.4500000e+00 9.1339743e-01 0.0000000e+00 
2.9500000e+00 9.1339743e-01 0.0000000e+00 
2.4500000e+00 8.6602539e-02 0.0000000e+00 
4.4499998e+00 9.1339743e-01 0.0000000e+00 
2.6500001e+00 9.1339743e-01 0.0000000e+00 
1.1500000e+00 8.6602539e-02 0.0000000e+00 
4.0517640e+00 7.8262508e-02 0.0000000e+00 
3.7500000e+00 9.1339743e-01 0.0000000e+00 
9.5000088e-02 4.6391028e-01 0.0000000e+00 
4.9059730e+00 4.6363035e-01 0.0000000e+00 
4.5246965e-01 8.1907488e-02 0.0000000e+00 
4.6500001e+00 8.6602539e-02 0.0000000e+00 
4.6500001e+00 9.1339743e-01 0.0000000e+00 
7.5000000e-01 9.1339743e-01 0.0000000e+00 
4.9111457e+00 6.5092021e-01 0.0000000e+00 
2.2500000e+00 8.6602539e-02 0.0000000e+00 
3.2500000e+00 9.1339743e-01 0.0000000e+00 
9.4999999e-01 8.6602539e-02 0.0000000e+00 
2.9500000e+00 8.6602539e-02 0.0000000e+00 
3.4500000e+00 8.6602539e-02 0.0000000e+00 
2.4500000e+00 9.1339743e-01 0.0000000e+00 
1.9500000e+00 9.1339743e-01 0.0000000e+00 
1.5500000e+00 9.1339743e-01 0.0000000e+00 
1.6500000e+00 8.6602539e-02 0.0000000e+00 
3.4999999e-01 9.1339743e-01 0.0000000e+00 
9.0659410e-02 6.5153849e-01 0.0000000e+00 
4.2500000e+00 9.1339743e-01 0.0000000e+00 
2.5402120e-01 7.9592258e-02 0.0000000e+00 
4.9112749e+00 2.5204152e-01 0.0000000e+00 
8.6602539e-02 2.5000000e-01 0.0000000e+00 
4.9094305e+00 8.4081745e-01 0.0000000e+00 
9.0569727e-02 8.4081745e-01 0.0000000e+00 
4.8445559e+00 9.5495284e-02 0.0000000e+00 
3.9500000e+00 9.1339743e-01 0.0000000e+00 
4.0000000e+00 8.2679492e-01 0.0000000e+00 
4.0999999e+00 8.2679492e-01 0.0000000e+00 
4.0500002e+00 7.4019235e-01 0.0000000e+00 
4.1500001e+00 7.4019235e-01 0.0000000e+00 
4.0999999e+00 6.5358984e-01 0.0000000e+00 
4.1999998e+00 6.5358984e-01 0.0000000e+00 
4.0000000e+00 6.5358984e-01 0.0000000e+00 
4.1500001e+00 5.6698728e-01 0.0000000e+00 
4.2500000e+00 5.6698728e-01 0.0000000e+00 
4.1999998e+00 4.8038477e-01 0.0000000e+00 
4.3000002e+00 4.8038477e-01 0.0000000e+00 
4.3499999e+00 5.6698728e-01 0.0000000e+00 
4.4000001e+00 4.8038477e-01 0.0000000e+00 
4.4499998e+00 5.6698728e-01 0.0000000e+00 
4.5000000e+00 4.8038477e-01 0.0000000e+00 
4.0999999e+00 4.8038477e-01 0.0000000e+00 
4.5500002e+00 5.6698728e-01 0.0000000e+00 
4.2500000e+00 3.9378223e-01 0.0000000e+00 
4.4499998e+00 3.9378223e-01 0.0000000e+00 
4.5500002e+00 3.9378223e-01 0.0000000e+00 
4.5024695e+00 3.0860552e-01 0.0000000e+00 
4.5000000e+00 6.5358984e-01 0.0000000e+00 
4.5999999e+00 6.5358984e-01 0.0000000e+00 
4.6500001e+00 5.6698728e-01 0.0000000e+00 
4.6004114e+00 3.0741730e-01 0.0000000e+00 
4.6999998e+00 6.5358984e-01 0.0000000e+00 
4.5500002e+00 7.4019235e-01 0.0000000e+00 
4.4499998e+00 7.4019235e-01 0.0000000e+00 
4.4028811e+00 3.1213742e-01 0.0000000e+00 
3.9000001e+00 8.2679492e-01 0.0000000e+00 
4.2500000e+00 7.4019235e-01 0.0000000e+00 
4.6500688e+00 3.9382184e-01 0.0000000e+00 
4.7000799e+00 3.0722588e-01 0.0000000e+00 
4.7507491e+00 5.6669539e-01 0.0000000e+00 
4.5510750e+00 2.2357146e-01 0.0000000e+00 
4.7483096e+00 3.9479813e-01 0.0000000e+00 
4.8143229e+00 3.0351433e-01 0.0000000e+00 
4.7489839e+00 2.2150035e-01 0.0000000e+00 
4.8026423e+00 6.5280432e-01 0.0000000e+00 
4.7504406e+00 7.4006146e-01 0.0000000e+00 
4.8507943e+00 7.4260241e-01 0.0000000e+00 
4.8009601e+00 8.2998371e-01 0.0000000e+00 
4.8518200e+00 5.6202388e-01 0.0000000e+00 
4.8002234e+00 4.7973469e-01 0.0000000e+00 
4.7002335e+00 8.2730454e-01 0.0000000e+00 
4.6500239e+00 2.2246142e-01 0.0000000e+00 
4.5000000e+00 8.2679492e-01 0.0000000e+00 
4.4000001e+00 8.2679492e-01 0.0000000e+00 
4.6000390e+00 8.2687986e-01 0.0000000e+00 
4.6501188e+00 7.4026966e-01 0.0000000e+00 
4.1999998e+00 8.2679492e-01 0.0000000e+00 
4.1500001e+00 9.1339743e-01 0.0000000e+00 
4.1500001e+00 3.9378223e-01 0.0000000e+00 
4.0500002e+00 3.9378223e-01 0.0000000e+00 
4.1999998e+00 3.0717969e-01 0.0000000e+00 
4.0000000e+00 4.8038477e-01 0.0000000e+00 
3.9500000e+00 3.9378223e-01 0.0000000e+00 
3.9000001e+00 4.8038477e-01 0.0000000e+00 
3.8499999e+00 3.9378223e-01 0.0000000e+00 
3.8000000e+00 4.8038477e-01 0.0000000e+00 
3.7500000e+00 3.9378223e-01 0.0000000e+00 
3.7000000e+00 4.8038477e-01 0.0000000e+00 
3.6500001e+00 3.9378223e-01 0.0000000e+00 
[...]
POINT_DATA 663
FIELD FieldData 2
DISPLACEMENT 3 663  float
0.0000000e+00 0.0000000e+00 0.0000000e+00 
0.0000000e+00 0.0000000e+00 0.0000000e+00 
0.0000000e+00 -3.7398120e-09 0.0000000e+00 
0.0000000e+00 -7.1624493e-07 0.0000000e+00 
0.0000000e+00 0.0000000e+00 0.0000000e+00 
0.0000000e+00 0.0000000e+00 0.0000000e+00 
0.0000000e+00 0.0000000e+00 0.0000000e+00 
0.0000000e+00 0.0000000e+00 0.0000000e+00 
0.0000000e+00 0.0000000e+00 0.0000000e+00 
0.0000000e+00 0.0000000e+00 0.0000000e+00 
0.0000000e+00 0.0000000e+00 0.0000000e+00 
0.0000000e+00 0.0000000e+00 0.0000000e+00 
0.0000000e+00 0.0000000e+00 0.0000000e+00 
0.0000000e+00 0.0000000e+00 0.0000000e+00 
0.0000000e+00 0.0000000e+00 0.0000000e+00 
0.0000000e+00 0.0000000e+00 0.0000000e+00 
0.0000000e+00 0.0000000e+00 0.0000000e+00 
0.0000000e+00 0.0000000e+00 0.0000000e+00 
0.0000000e+00 0.0000000e+00 0.0000000e+00 
0.0000000e+00 0.0000000e+00 0.0000000e+00 
0.0000000e+00 0.0000000e+00 0.0000000e+00 
0.0000000e+00 0.0000000e+00 0.0000000e+00 
0.0000000e+00 0.0000000e+00 0.0000000e+00 
0.0000000e+00 0.0000000e+00 0.0000000e+00 
0.0000000e+00 0.0000000e+00 0.0000000e+00 
0.0000000e+00 0.0000000e+00 0.0000000e+00 
0.0000000e+00 0.0000000e+00 0.0000000e+00 
0.0000000e+00 0.0000000e+00 0.0000000e+00 
0.0000000e+00 0.0000000e+00 0.0000000e+00 
0.0000000e+00 0.0000000e+00 0.0000000e+00 
0.0000000e+00 0.0000000e+00 0.0000000e+00 
0.0000000e+00 0.0000000e+00 0.0000000e+00 
0.0000000e+00 0.0000000e+00 0.0000000e+00 
0.0000000e+00 0.0000000e+00 0.0000000e+00 
0.0000000e+00 0.0000000e+00 0.0000000e+00 
0.0000000e+00 0.0000000e+00 0.0000000e+00 
0.0000000e+00 0.0000000e+00 0.0000000e+00 
0.0000000e+00 0.0000000e+00 0.0000000e+00 
0.0000000e+00 0.0000000e+00 0.0000000e+00 
0.0000000e+00 0.0000000e+00 0.0000000e+00 
0.0000000e+00 0.0000000e+00 0.0000000e+00 
0.0000000e+00 0.0000000e+00 0.0000000e+00 
0.0000000e+00 0.0000000e+00 0.0000000e+00 
0.0000000e+00 0.0000000e+00 0.0000000e+00 
0.0000000e+00 0.0000000e+00 0.0000000e+00 
0.0000000e+00 0.0000000e+00 0.0000000e+00 
0.0000000e+00 0.0000000e+00 0.0000000e+00 
0.0000000e+00 0.0000000e+00 0.0000000e+00 
0.0000000e+00 0.0000000e+00 0.0000000e+00 
0.0000000e+00 0.0000000e+00 0.0000000e+00 
0.0000000e+00 0.0000000e+00 0.0000000e+00 
0.0000000e+00 0.0000000e+00 0.0000000e+00 
0.0000000e+00 0.0000000e+00 0.0000000e+00 
0.0000000e+00 1.0040323e-09 0.0000000e+00 
0.0000000e+00 1.8864259e-09 0.0000000e+00 
0.0000000e+00 2.5032953e-09 0.0000000e+00 
0.0000000e+00 2.7923932e-09 0.0000000e+00 
0.0000000e+00 2.6399987e-09 0.0000000e+00 
0.0000000e+00 2.1816666e-09 0.0000000e+00 
0.0000000e+00 1.2911773e-09 0.0000000e+00 
0.0000000e+00 1.5013209e-11 0.0000000e+00 
0.0000000e+00 -1.6734915e-09 0.0000000e+00 
-1.0132296e-08 -5.0454707e-09 0.0000000e+00 
-2.0103432e-08 -8.1839691e-09 0.0000000e+00 
-2.9634144e-08 -1.3001396e-08 0.0000000e+00 
-3.8422286e-08 -1.9053720e-08 0.0000000e+00 
-4.6107957e-08 -2.5853968e-08 0.0000000e+00 
-5.2304486e-08 -3.2781426e-08 0.0000000e+00 
-5.6669894e-08 -3.9082728e-08 0.0000000e+00 
-5.8982110e-08 -4.3922178e-08 0.0000000e+00 
-5.9223733e-08 -4.6471094e-08 0.0000000e+00 
-5.7667521e-08 -4.6041013e-08 0.0000000e+00 
-5.4945982e-08 -4.2259284e-08 0.0000000e+00 
-5.2079962e-08 -3.5270244e-08 0.0000000e+00 
-5.0436089e-08 -2.5924995e-08 0.0000000e+00 
-5.1586408e-08 -1.5902817e-08 0.0000000e+00 
-5.7059118e-08 -7.6953528e-09 0.0000000e+00 
-6.7999423e-08 -4.3916271e-09 0.0000000e+00 
-8.4803155e-08 -9.2404466e-09 0.0000000e+00 
-1.0683311e-07 -2.5046859e-08 0.0000000e+00 
-1.3235848e-07 -5.3579821e-08 0.0000000e+00 
-1.5883757e-07 -9.5311748e-08 0.0000000e+00 
-1.8354292e-07 -1.4993874e-07 0.0000000e+00 
-2.0422813e-07 -2.1822207e-07 0.0000000e+00 
-2.1883984e-07 -3.0597630e-07 0.0000000e+00 
-2.2108266e-07 -4.3363158e-07 0.0000000e+00 
-1.7614003e-07 -6.9972054e-07 0.0000000e+00 
-8.6954664e-08 -7.3510978e-07 0.0000000e+00 
-1.8340002e-08 -5.0923194e-07 0.0000000e+00 
2.6712490e-08 -3.9440414e-07 0.0000000e+00 
7.3130380e-08 -2.9221476e-07 0.0000000e+00 
1.1264163e-07 -2.0866506e-07 0.0000000e+00 
1.5512796e-07 -1.1103728e-07 0.0000000e+00 
1.8782683e-07 -2.2901840e-08 0.0000000e+00 
2.1579234e-07 7.6704310e-08 0.0000000e+00 
2.2373773e-07 1.7719734e-07 0.0000000e+00 
1.9767657e-07 2.4992042e-07 0.0000000e+00 
1.3691623e-07 2.7315787e-07 0.0000000e+00 
5.0844726e-08 2.3818794e-07 0.0000000e+00 
-4.6029449e-08 1.4768963e-07 0.0000000e+00 
-1.3756194e-07 1.3859502e-08 0.0000000e+00 
-2.0968989e-07 -1.4402991e-07 0.0000000e+00 
-2.5558998e-07 -3.0629215e-07 0.0000000e+00 
-2.8040839e-07 -4.6663467e-07 0.0000000e+00 
-2.9955277e-07 -6.5321012e-07 0.0000000e+00 
-3.1771756e-07 -9.6015731e-07 0.0000000e+00 
-2.4169785e-07 -1.7252681e-06 0.0000000e+00 
-6.6541425e-08 -1.8611734e-06 0.0000000e+00 
4.4973714e-08 -1.2441501e-06 0.0000000e+00 
9.1486328e-08 -9.3821103e-07 0.0000000e+00 
8.8722985e-08 -7.1277816e-07 0.0000000e+00 
0.0000000e+00 -6.6081645e-07 0.0000000e+00 
0.0000000e+00 -6.6785810e-07 0.0000000e+00 
0.0000000e+00 -6.7514685e-07 0.0000000e+00 
0.0000000e+00 -6.4575659e-07 0.0000000e+00 
0.0000000e+00 -5.7529371e-07 0.0000000e+00 
0.0000000e+00 -4.7479747e-07 0.0000000e+00 
0.0000000e+00 -3.5962873e-07 0.0000000e+00 
0.0000000e+00 -2.3952836e-07 0.0000000e+00 
0.0000000e+00 -1.1900224e-07 0.0000000e+00 
-2.6727900e-09 -2.2577926e-09 0.0000000e+00 
-7.3284603e-08 -4.4970395e-07 0.0000000e+00 
-5.8379126e-08 -4.6150259e-08 0.0000000e+00 
6.5156014e-09 -2.4659213e-08 0.0000000e+00 
2.1279105e-09 -6.0781704e-09 0.0000000e+00 
-6.8420327e-09 -5.4554370e-09 0.0000000e+00 
6.9718844e-08 2.1330914e-07 0.0000000e+00 
1.2789833e-07 1.7422153e-08 0.0000000e+00 
-1.0513211e-07 -2.1347179e-07 0.0000000e+00 
-1.8532797e-08 -1.1748588e-06 0.0000000e+00 
5.9413047e-08 -5.1377715e-08 0.0000000e+00 
9.5306225e-09 8.2004732e-09 0.0000000e+00 
-3.1817606e-08 -3.2110318e-08 0.0000000e+00 
-6.1196623e-08 -3.9375423e-09 0.0000000e+00 
-1.2612793e-07 -1.1628256e-07 0.0000000e+00 
-9.6652357e-09 -4.0557438e-08 0.0000000e+00 
-4.3885827e-08 -2.7604004e-08 0.0000000e+00 
-1.3279887e-07 -3.5886745e-07 0.0000000e+00 
5.5833059e-08 8.1200344e-09 0.0000000e+00 
-4.9550333e-09 -4.1357540e-09 0.0000000e+00 
-5.6369316e-08 -3.0900861e-08 0.0000000e+00 
-5.4874154e-09 -5.4276626e-07 0.0000000e+00 
-2.3113695e-09 2.3154485e-09 0.0000000e+00 
2.5975725e-08 -8.4734786e-08 0.0000000e+00 
-7.7648565e-10 -7.8548938e-11 0.0000000e+00 
-2.9326655e-08 -1.3914497e-08 0.0000000e+00 
-1.2375368e-07 -5.5103106e-07 0.0000000e+00 
-4.0078296e-09 1.2181545e-09 0.0000000e+00 
-2.2876028e-08 -4.2785757e-08 0.0000000e+00 
-7.9947931e-08 -1.2356089e-08 0.0000000e+00 
6.9940469e-08 -1.7227570e-08 0.0000000e+00 
8.8437435e-09 -1.4775543e-08 0.0000000e+00 
-3.2570628e-09 -5.0073874e-09 0.0000000e+00 
-1.1341321e-07 -6.2625077e-07 0.0000000e+00 
6.1581432e-08 -1.6588154e-07 0.0000000e+00 
1.6688836e-07 2.1600538e-07 0.0000000e+00 
-1.6433766e-08 -7.6553226e-09 0.0000000e+00 
-1.5967879e-07 -1.3824224e-06 0.0000000e+00 
-5.1314519e-08 -6.9999163e-07 0.0000000e+00 
-5.4090961e-08 -4.0522323e-08 0.0000000e+00 
1.1649289e-08 -8.8419966e-08 0.0000000e+00 
-7.1176720e-10 2.0535325e-09 0.0000000e+00 
7.3503936e-09 -2.9644451e-07 0.0000000e+00 
-6.5143055e-09 -1.3620449e-09 0.0000000e+00 
-4.2737536e-08 -7.1751759e-07 0.0000000e+00 
-2.3338495e-10 7.6468187e-10 0.0000000e+00 
-5.8404293e-08 -4.4387818e-08 0.0000000e+00 
-5.7512434e-08 -4.3911992e-08 0.0000000e+00 
-5.5411249e-08 -4.3625995e-08 0.0000000e+00 
-5.3350799e-08 -4.1083773e-08 0.0000000e+00 
-4.9800185e-08 -3.9046167e-08 0.0000000e+00 
-4.6894016e-08 -3.6378349e-08 0.0000000e+00 
-4.2490019e-08 -3.3079193e-08 0.0000000e+00 
-5.0223175e-08 -3.7408803e-08 0.0000000e+00 
-3.9049979e-08 -3.0414757e-08 0.0000000e+00 
-3.4345167e-08 -2.6424679e-08 0.0000000e+00 
-3.0643214e-08 -2.3865304e-08 0.0000000e+00 
-2.6123585e-08 -1.9744339e-08 0.0000000e+00 
-2.9227234e-08 -2.1387731e-08 0.0000000e+00 
-2.1490134e-08 -1.5079474e-08 0.0000000e+00 
-2.3997936e-08 -1.5910828e-08 0.0000000e+00 
-1.7000593e-08 -1.0359120e-08 0.0000000e+00 
-3.4725407e-08 -2.6934300e-08 0.0000000e+00 
-1.8888855e-08 -1.0549988e-08 0.0000000e+00 
-2.2401718e-08 -1.7378166e-08 0.0000000e+00 
-1.4617184e-08 -9.6576525e-09 0.0000000e+00 
-1.1089472e-08 -5.9064016e-09 0.0000000e+00 
-8.9500212e-09 -5.3654707e-09 0.0000000e+00 
-2.5980688e-08 -1.6106767e-08 0.0000000e+00 
-2.0260723e-08 -1.0297478e-08 0.0000000e+00 
-1.4055966e-08 -5.7581580e-09 0.0000000e+00 
-6.4691217e-09 -2.6878619e-09 0.0000000e+00 
-1.4734467e-08 -5.2935225e-09 0.0000000e+00 
-2.7492291e-08 -1.5732091e-08 0.0000000e+00 
-3.3778054e-08 -2.2326780e-08 0.0000000e+00 
-1.1984487e-08 -8.5029033e-09 0.0000000e+00 
-5.8357177e-08 -4.0906553e-08 0.0000000e+00 
-4.5185125e-08 -3.4735901e-08 0.0000000e+00 
-7.9473601e-09 -2.6272313e-09 0.0000000e+00 
-4.3668344e-09 -4.5048099e-10 0.0000000e+00 
-9.5389447e-09 -1.8459725e-09 0.0000000e+00 
-4.7836504e-09 -2.4610909e-09 0.0000000e+00 
-5.2788112e-09 -5.8117948e-11 0.0000000e+00 
-2.3159135e-09 1.4199772e-09 0.0000000e+00 
-1.9877999e-09 6.3162325e-10 0.0000000e+00 
-9.3371488e-09 -1.3526554e-09 0.0000000e+00 
-1.4758753e-08 -4.7428168e-09 0.0000000e+00 
-8.6676888e-09 -1.2216287e-09 0.0000000e+00 
-1.4165972e-08 -4.3882729e-09 0.0000000e+00 
-5.3140448e-09 9.3198971e-10 0.0000000e+00 
-5.6479745e-09 4.7525928e-10 0.0000000e+00 
-2.1415691e-08 -9.0047347e-09 0.0000000e+00 
-3.2221934e-09 -7.2001805e-10 0.0000000e+00 
-3.5482788e-08 -2.1684064e-08 0.0000000e+00 
-4.1844828e-08 -2.8696075e-08 0.0000000e+00 
-2.8596256e-08 -1.4925579e-08 0.0000000e+00 
-2.1105109e-08 -9.7172972e-09 0.0000000e+00 
-5.2019377e-08 -4.0493894e-08 0.0000000e+00 
-5.7002268e-08 -4.4660208e-08 0.0000000e+00 
-2.6200926e-08 -2.0586755e-08 0.0000000e+00 
-2.9531366e-08 -2.2829582e-08 0.0000000e+00 
-1.8087185e-08 -1.4370838e-08 0.0000000e+00 
-3.7984659e-08 -2.8481880e-08 0.0000000e+00 
-3.2002614e-08 -2.3764510e-08 0.0000000e+00 
-4.0010157e-08 -2.8176853e-08 0.0000000e+00 
-3.3205687e-08 -2.3198288e-08 0.0000000e+00 
-4.0419810e-08 -2.5939222e-08 0.0000000e+00 
-3.2777326e-08 -2.1172140e-08 0.0000000e+00 
-3.8933894e-08 -2.2053658e-08 0.0000000e+00 
-3.0469721e-08 -1.8051256e-08 0.0000000e+00 
-3.5458534e-08 -1.7271322e-08 0.0000000e+00 
-2.6235691e-08 -1.4600562e-08 0.0000000e+00 
-3.0160802e-08 -1.2858415e-08 0.0000000e+00 
-2.0274225e-08 -1.2013094e-08 0.0000000e+00 
-2.3515756e-08 -1.0545237e-08 0.0000000e+00 
-1.3453889e-08 -1.1702413e-08 0.0000000e+00 
-1.6370304e-08 -1.2391244e-08 0.0000000e+00 
-6.3172907e-09 -1.5402293e-08 0.0000000e+00 
-9.6769579e-09 -2.0583817e-08 0.0000000e+00 
4.9918547e-10 -2.5198554e-08 0.0000000e+00 
-4.5787574e-09 -3.6915772e-08 0.0000000e+00 
5.3091869e-09 -4.1652090e-08 0.0000000e+00 
-2.0994255e-09 -6.2300302e-08 0.0000000e+00 
6.5827788e-09 -6.5293285e-08 0.0000000e+00 
-3.2839418e-09 -9.6472810e-08 0.0000000e+00 
3.4698022e-09 -9.5174265e-08 0.0000000e+00 
-8.8904049e-09 -1.3737824e-07 0.0000000e+00 
-4.6521555e-09 -1.2863538e-07 0.0000000e+00 
-1.9561638e-08 -1.8060801e-07 0.0000000e+00 
-1.7886567e-08 -1.6136948e-07 0.0000000e+00 
-3.5316734e-08 -2.1978771e-07 0.0000000e+00 
-3.5123104e-08 -1.8863717e-07 0.0000000e+00 
-5.4654191e-08 -2.4849521e-07 0.0000000e+00 
-5.4178283e-08 -2.0629409e-07 0.0000000e+00 
-7.4597096e-08 -2.6230842e-07 0.0000000e+00 
-7.2038169e-08 -2.1295682e-07 0.0000000e+00 
-9.1562050e-08 -2.5987939e-07 0.0000000e+00 
-8.7026457e-08 -2.0890801e-07 0.0000000e+00 
-1.0262044e-07 -2.4236996e-07 0.0000000e+00 
-9.5825612e-08 -1.9085343e-07 0.0000000e+00 
-1.0560986e-07 -2.1226973e-07 0.0000000e+00 
-9.6811632e-08 -1.6307352e-07 0.0000000e+00 
-9.9484858e-08 -1.7213959e-07 0.0000000e+00 
-8.9844228e-08 -1.2899679e-07 0.0000000e+00 
-8.3562227e-08 -1.2360169e-07 0.0000000e+00 
-7.3638226e-08 -8.7690012e-08 0.0000000e+00 
-5.7397799e-08 -6.6986892e-08 0.0000000e+00 
-4.7666038e-08 -3.9792393e-08 0.0000000e+00 
-2.1309638e-08 -4.1843573e-09 0.0000000e+00 
-1.2197565e-08 1.1640194e-08 0.0000000e+00 
2.2960554e-08 5.8984973e-08 0.0000000e+00 
3.0435647e-08 6.0243075e-08 0.0000000e+00 
7.1550453e-08 1.1248433e-07 0.0000000e+00 
7.6478138e-08 9.7134148e-08 0.0000000e+00 
1.1881329e-07 1.4460238e-07 0.0000000e+00 
1.2051389e-07 1.1382632e-07 0.0000000e+00 
1.5869922e-07 1.4604015e-07 0.0000000e+00 
1.5738553e-07 1.0403620e-07 0.0000000e+00 
1.8637542e-07 1.1197163e-07 0.0000000e+00 
1.8272526e-07 6.5184672e-08 0.0000000e+00 
1.9921177e-07 4.2873129e-08 0.0000000e+00 
1.9389299e-07 -9.8767095e-10 0.0000000e+00 
1.9737429e-07 -5.5406236e-08 0.0000000e+00 
1.9060228e-07 -8.8209916e-08 0.0000000e+00 
1.8383570e-07 -1.7194596e-07 0.0000000e+00 
1.7501019e-07 -1.8574237e-07 0.0000000e+00 
1.6322169e-07 -2.9176377e-07 0.0000000e+00 
1.5117470e-07 -2.7957921e-07 0.0000000e+00 
1.3952274e-07 -3.9781733e-07 0.0000000e+00 
1.2369259e-07 -3.5563630e-07 0.0000000e+00 
1.1469149e-07 -4.7570430e-07 0.0000000e+00 
9.6825602e-08 -4.0533783e-07 0.0000000e+00 
8.8871673e-08 -5.2071891e-07 0.0000000e+00 
7.2511391e-08 -4.2986795e-07 0.0000000e+00 
-4.4094779e-08 -2.0640234e-08 0.0000000e+00 
-2.8203079e-08 -9.1201011e-09 0.0000000e+00 
-1.4993546e-08 -5.4188948e-08 0.0000000e+00 
-2.4672739e-08 -1.8837572e-07 0.0000000e+00 
-5.3412958e-08 -2.8490416e-07 0.0000000e+00 
-9.3690076e-08 -3.1626357e-07 0.0000000e+00 
-1.0547644e-07 -2.2030261e-07 0.0000000e+00 
-6.2867251e-08 -1.0025280e-07 0.0000000e+00 
1.6344449e-08 4.7291433e-08 0.0000000e+00 
1.5345850e-07 1.8513043e-07 0.0000000e+00 
1.9016605e-07 -7.3204913e-09 0.0000000e+00 
1.5873853e-07 -2.7718426e-07 0.0000000e+00 
1.2489430e-07 -5.2651910e-07 0.0000000e+00 
6.0983659e-08 -5.4045199e-07 0.0000000e+00 
7.0228829e-08 -6.4696746e-07 0.0000000e+00 
5.0081383e-08 -4.3964596e-07 0.0000000e+00 
1.0071382e-07 -2.9416890e-07 0.0000000e+00 
1.1524926e-07 8.0017195e-08 0.0000000e+00 
-6.1282599e-08 -5.8717720e-08 0.0000000e+00 
-8.5724466e-08 -1.4435120e-07 0.0000000e+00 
-1.6868285e-08 -1.3353772e-07 0.0000000e+00 
7.6457480e-09 -2.7366109e-08 0.0000000e+00 
-2.2033989e-08 -1.4531830e-08 0.0000000e+00 
-2.5280606e-08 -1.8784329e-08 0.0000000e+00 
2.9007261e-08 -6.6368125e-07 0.0000000e+00 
2.4548557e-08 -7.9708707e-07 0.0000000e+00 
5.5270341e-08 -3.3680868e-07 0.0000000e+00 
1.7044803e-07 -1.0213842e-07 0.0000000e+00 
1.6820577e-07 2.6093641e-08 0.0000000e+00 
-3.0930318e-09 1.8655454e-08 0.0000000e+00 
-5.0909350e-08 -1.6213738e-07 0.0000000e+00 
1.1172649e-08 -6.1952846e-08 0.0000000e+00 
-1.1447338e-08 -1.1359771e-08 0.0000000e+00 
-3.4521271e-08 -7.9967151e-07 0.0000000e+00 
3.8005062e-08 -3.4320303e-07 0.0000000e+00 
7.8361452e-08 -7.5578407e-07 0.0000000e+00 
-4.7032728e-08 -3.0867149e-08 0.0000000e+00 
2.2954822e-08 -9.5089433e-07 0.0000000e+00 
8.2570686e-08 -8.5069269e-07 0.0000000e+00 
-1.1389425e-08 -6.6543095e-07 0.0000000e+00 
3.8254690e-08 -2.4282838e-07 0.0000000e+00 
2.8455139e-08 -4.4868381e-07 0.0000000e+00 
5.5496056e-08 -2.4466260e-07 0.0000000e+00 
2.5997334e-08 -2.4936682e-07 0.0000000e+00 
-6.8912399e-08 -7.6605249e-07 0.0000000e+00 
-1.1314997e-07 -9.1309840e-07 0.0000000e+00 
-1.0220435e-07 -8.0478833e-07 0.0000000e+00 
-1.2873669e-07 -9.2513193e-07 0.0000000e+00 
-3.0938086e-08 -6.5057890e-07 0.0000000e+00 
1.9979893e-08 -3.4933981e-07 0.0000000e+00 
-6.0708508e-08 -9.7099223e-07 0.0000000e+00 
-2.1087128e-08 -1.6720117e-08 0.0000000e+00 
-1.3341562e-08 -1.0840865e-08 0.0000000e+00 
-1.1420364e-08 -9.1699599e-09 0.0000000e+00 
-1.5797657e-08 -1.2644834e-08 0.0000000e+00 
-7.5777029e-09 -6.3198313e-09 0.0000000e+00 
1.7611845e-07 -3.1338754e-08 0.0000000e+00 
1.4124279e-07 -1.1535884e-09 0.0000000e+00 
1.2572266e-07 3.0553007e-08 0.0000000e+00 
1.4526815e-07 -4.5062308e-08 0.0000000e+00 
1.3836794e-07 -9.6670917e-08 0.0000000e+00 
-3.7010476e-08 -2.0497097e-08 0.0000000e+00 
-1.2573246e-09 -7.0425027e-10 0.0000000e+00 
-1.8080902e-09 -1.3866354e-09 0.0000000e+00 
-4.8437334e-09 -3.6529293e-09 0.0000000e+00 
-1.8478842e-08 -1.3615574e-08 0.0000000e+00 
-2.1221803e-08 -8.4475733e-09 0.0000000e+00 
1.8101852e-07 1.6143838e-07 0.0000000e+00 
1.6947993e-07 2.0799335e-07 0.0000000e+00 
1.4512599e-07 2.1618639e-07 0.0000000e+00 
1.7733720e-07 1.5137269e-07 0.0000000e+00 
1.5627012e-07 2.4576687e-07 0.0000000e+00 
1.3892723e-07 2.3426338e-07 0.0000000e+00 
1.0704802e-07 1.7960669e-07 0.0000000e+00 
1.0662963e-07 1.7651018e-07 0.0000000e+00 
1.4854550e-07 2.6888827e-07 0.0000000e+00 
1.5582678e-07 2.0392471e-07 0.0000000e+00 
1.3920904e-07 1.1114729e-07 0.0000000e+00 
1.6984335e-07 5.0419235e-08 0.0000000e+00 
1.1237171e-07 -2.2168464e-08 0.0000000e+00 
6.1502092e-08 4.2088271e-08 0.0000000e+00 
1.5221919e-07 -8.4199108e-08 0.0000000e+00 
8.5203759e-08 -1.8022779e-07 0.0000000e+00 
1.3294938e-07 -2.3759121e-07 0.0000000e+00 
6.9487498e-08 -3.4736129e-07 0.0000000e+00 
1.2055523e-07 -3.9481506e-07 0.0000000e+00 
7.3296029e-08 -5.1628894e-07 0.0000000e+00 
1.1682523e-07 -5.4421497e-07 0.0000000e+00 
-7.3616008e-10 -5.2190678e-09 0.0000000e+00 
-6.6093749e-11 -9.3356913e-09 0.0000000e+00 
4.9076911e-09 -1.2079134e-08 0.0000000e+00 
8.7580959e-10 -1.2947781e-08 0.0000000e+00 
-4.7987494e-09 -8.5760883e-09 0.0000000e+00 
-8.3019591e-09 -8.4366523e-09 0.0000000e+00 
1.4172427e-07 -4.1292492e-07 0.0000000e+00 
-1.2974195e-07 -3.7962440e-07 0.0000000e+00 
-8.4754902e-08 -7.7626089e-07 0.0000000e+00 
1.7661475e-07 -1.3649993e-07 0.0000000e+00 
-1.6579467e-08 -4.2670422e-08 0.0000000e+00 
-3.8556990e-08 -8.6908592e-08 0.0000000e+00 
-4.8729582e-08 -8.6032806e-08 0.0000000e+00 
-6.0086286e-08 -1.2692968e-07 0.0000000e+00 
-1.2990649e-09 2.3834950e-09 0.0000000e+00 
-4.9663925e-08 -3.4548655e-08 0.0000000e+00 
1.5401640e-07 1.2186122e-07 0.0000000e+00 
8.6678675e-08 5.7153290e-08 0.0000000e+00 
5.2734453e-08 -3.9923716e-08 0.0000000e+00 
2.5556893e-08 -5.0370130e-09 0.0000000e+00 
-1.1760949e-08 -9.3472302e-08 0.0000000e+00 
-3.4375997e-08 -9.8452873e-09 0.0000000e+00 
-3.9981892e-08 -6.6949624e-09 0.0000000e+00 
-3.5829942e-08 -9.1788710e-09 0.0000000e+00 
-4.4441851e-08 -1.0294459e-08 0.0000000e+00 
-4.8349186e-08 -4.9033093e-09 0.0000000e+00 
-4.8126459e-08 -1.2297088e-08 0.0000000e+00 
-3.2785515e-08 -2.0518309e-08 0.0000000e+00 
-4.9661931e-08 -3.0785529e-08 0.0000000e+00 
9.0049085e-08 -6.9113878e-07 0.0000000e+00 
1.9301878e-07 9.5579615e-08 0.0000000e+00 
-1.5231151e-08 -1.1727877e-08 0.0000000e+00 
7.6662054e-08 7.4871082e-08 0.0000000e+00 
6.9427678e-08 4.9527678e-08 0.0000000e+00 
3.7079413e-08 4.0527357e-08 0.0000000e+00 
-6.8708495e-08 -3.3610132e-09 0.0000000e+00 
-1.1653642e-07 -5.7123265e-07 0.0000000e+00 
-1.1801357e-07 -4.7191742e-07 0.0000000e+00 
-9.4461370e-08 -3.9002282e-07 0.0000000e+00 
-1.1736859e-07 -3.9445953e-07 0.0000000e+00 
-1.0430217e-07 -3.3079255e-07 0.0000000e+00 
-1.1244728e-07 -4.3553985e-07 0.0000000e+00 
-5.9002303e-08 -3.0440344e-07 0.0000000e+00 
-7.9168089e-08 -2.5643777e-07 0.0000000e+00 
-1.1530413e-07 -3.2710744e-07 0.0000000e+00 
-1.1364186e-07 -5.2015724e-07 0.0000000e+00 
-8.8335518e-08 -4.9420237e-07 0.0000000e+00 
-9.1396132e-08 -4.3652057e-07 0.0000000e+00 
-6.9802077e-08 -3.9257969e-07 0.0000000e+00 
-8.0607059e-08 -4.0088975e-07 0.0000000e+00 
-6.0717753e-08 -3.1702069e-07 0.0000000e+00 
-8.9354600e-08 -2.9441051e-07 0.0000000e+00 
-6.0217225e-08 -2.3578420e-07 0.0000000e+00 
-9.3374091e-08 -2.0927629e-07 0.0000000e+00 
-5.9354523e-08 -1.6505275e-07 0.0000000e+00 
-9.0628127e-08 -1.4093331e-07 0.0000000e+00 
-5.6490801e-08 -1.0696194e-07 0.0000000e+00 
-3.3872070e-08 -1.2466853e-07 0.0000000e+00 
-8.3494591e-08 -8.6802373e-08 0.0000000e+00 
-5.2760793e-08 -6.2127249e-08 0.0000000e+00 
-1.1056665e-07 -6.8066946e-08 0.0000000e+00 
-1.3785311e-07 -1.7807473e-07 0.0000000e+00 
-1.0764856e-07 -5.1409114e-07 0.0000000e+00 
-1.7814193e-08 -1.2483118e-08 0.0000000e+00 
-3.6246995e-08 -2.4117239e-07 0.0000000e+00 
-4.5157100e-09 1.1541207e-09 0.0000000e+00 
-1.2705109e-08 5.1599713e-10 0.0000000e+00 
-3.1618679e-08 -1.9209047e-08 0.0000000e+00 