# vtk DataFile Version 4.0
vtk output
ASCII
DATASET UNSTRUCTURED_GRID
POINTS 663 float
0.0000000e+00 0.0000000e+00 0.0000000e+00 
5.0000000e+00 0.0000000e+00 0.0000000e+00 
5.0000000e+00 1.0000000e+00 0.0000000e+00 
0.0000000e+00 1.0000000e+00 0.0000000e+00 
1.0000000e-01 0.0000000e+00 0.0000000e+00 
2.0000000e-01 0.0000000e+00 0.0000000e+00 
3.0000001e-01 0.0000000e+00 0.0000000e+00 
4.0000001e-01 0.0000000e+00 0.0000000e+00 
5.0000000e-01 0.0000000e+00 0.0000000e+00 
6.0000002e-01 0.0000000e+00 0.0000000e+00 
6.9999999e-01 0.0000000e+00 0.0000000e+00 
8.0000001e-01 0.0000000e+00 0.0000000e+00 
8.9999998e-01 0.0000000e+00 0.0000000e+00 
1.0000000e+00 0.0000000e+00 0.0000000e+00 
1.1000000e+00 0.0000000e+00 0.0000000e+00 
1.2000000e+00 0.0000000e+00 0.0000000e+00 
1.3000000e+00 0.0000000e+00 0.0000000e+00 
1.4000000e+00 0.0000000e+00 0.0000000e+00 
1.5000000e+00 0.0000000e+00 0.0000000e+00 
1.6000000e+00 0.0000000e+00 0.0000000e+00 
1.7000000e+00 0.0000000e+00 0.0000000e+00 
1.8000000e+00 0.0000000e+00 0.0000000e+00 
1.9000000e+00 0.0000000e+00 0.0000000e+00 
2.0000000e+00 0.0000000e+00 0.0000000e+00 
2.0999999e+00 0.0000000e+00 0.0000000e+00 
2.2000000e+00 0.0000000e+00 0.0000000e+00 
2.3000000e+00 0.0000000e+00 0.0000000e+00 
2.4000001e+00 0.0000000e+00 0.0000000e+00 
2.5000000e+00 0.0000000e+00 0.0000000e+00 
2.5999999e+00 0.0000000e+00 0.0000000e+00 
2.7000000e+00 0.0000000e+00 0.0000000e+00 
2.8000000e+00 0.0000000e+00 0.0000000e+00 
2.9000001e+00 0.0000000e+00 0.0000000e+00 
3.0000000e+00 0.0000000e+00 0.0000000e+00 
3.0999999e+00 0.0000000e+00 0.0000000e+00 
3.2000000e+00 0.0000000e+00 0.0000000e+00 
3.3000000e+00 0.0000000e+00 0.0000000e+00 
3.4000001e+00 0.0000000e+00 0.0000000e+00 
3.5000000e+00 0.0000000e+00 0.0000000e+00 
3.5999999e+00 0.0000000e+00 0.0000000e+00 
3.7000000e+00 0.0000000e+00 0.0000000e+00 
3.8000000e+00 0.0000000e+00 0.0000000e+00 
3.9000001e+00 0.0000000e+00 0.0000000e+00 
4.0000000e+00 0.0000000e+00 0.0000000e+00 
4.0999999e+00 0.0000000e+00 0.0000000e+00 
4.1999998e+00 0.0000000e+00 0.0000000e+00 
4.3000002e+00 0.0000000e+00 0.0000000e+00 
4.4000001e+00 0.0000000e+00 0.0000000e+00 
4.5000000e+00 0.0000000e+00 0.0000000e+00 
4.5999999e+00 0.0000000e+00 0.0000000e+00 
4.6999998e+00 0.0000000e+00 0.0000000e+00 
4.8000002e+00 0.0000000e+00 0.0000000e+00 
4.9000001e+00 0.0000000e+00 0.0000000e+00 
5.0000000e+00 1.0000000e-01 0.0000000e+00 
5.0000000e+00 2.0000000e-01 0.0000000e+00 
5.0000000e+00 3.0000001e-01 0.0000000e+00 
5.0000000e+00 4.0000001e-01 0.0000000e+00 
5.0000000e+00 5.0000000e-01 0.0000000e+00 
5.0000000e+00 6.0000002e-01 0.0000000e+00 
5.0000000e+00 6.9999999e-01 0.0000000e+00 
5.0000000e+00 8.0000001e-01 0.0000000e+00 
5.0000000e+00 8.9999998e-01 0.0000000e+00 
4.9000001e+00 1.0000000e+00 0.0000000e+00 
4.8000002e+00 1.0000000e+00 0.0000000e+00 
4.6999998e+00 1.0000000e+00 0.0000000e+00 
4.5999999e+00 1.0000000e+00 0.0000000e+00 
4.5000000e+00 1.0000000e+00 0.0000000e+00 
4.4000001e+00 1.0000000e+00 0.0000000e+00 
4.3000002e+00 1.0000000e+00 0.0000000e+00 
4.1999998e+00 1.0000000e+00 0.0000000e+00 
4.0999999e+00 1.0000000e+00 0.0000000e+00 
4.0000000e+00 1.0000000e+00 0.0000000e+00 
3.9000001e+00 1.0000000e+00 0.0000000e+00 
3.8000000e+00 1.0000000e+00 0.0000000e+00 
3.7000000e+00 1.0000000e+00 0.0000000e+00 
3.5999999e+00 1.0000000e+00 0.0000000e+00 
3.5000000e+00 1.0000000e+00 0.0000000e+00 
3.4000001e+00 1.0000000e+00 0.0000000e+00 
3.3000000e+00 1.0000000e+00 0.0000000e+00 
3.2000000e+00 1.0000000e+00 0.0000000e+00 
3.0999999e+00 1.0000000e+00 0.0000000e+00 
3.0000000e+00 1.0000000e+00 0.0000000e+00 
2.9000001e+00 1.0000000e+00 0.0000000e+00 
2.8000000e+00 1.0000000e+00 0.0000000e+00 
2.7000000e+00 1.0000000e+00 0.0000000e+00 
2.5999999e+00 1.0000000e+00 0.0000000e+00 
2.5000000e+00 1.0000000e+00 0.0000000e+00 
2.4000001e+00 1.0000000e+00 0.0000000e+00 
2.3000000e+00 1.0000000e+00 0.0000000e+00 
2.2000000e+00 1.0000000e+00 0.0000000e+00 
2.0999999e+00 1.0000000e+00 0.0000000e+00 
2.0000000e+00 1.0000000e+00 0.0000000e+00 
1.9000000e+00 1.0000000e+00 0.0000000e+00 
1.8000000e+00 1.0000000e+00 0.0000000e+00 
1.7000000e+00 1.0000000e+00 0.0000000e+00 
1.6000000e+00 1.0000000e+00 0.0000000e+00 
1.5000000e+00 1.0000000e+00 0.0000000e+00 
1.4000000e+00 1.0000000e+00 0.0000000e+00 
1.3000000e+00 1.0000000e+00 0.0000000e+00 
1.2000000e+00 1.0000000e+00 0.0000000e+00 
1.1000000e+00 1.0000000e+00 0.0000000e+00 
1.0000000e+00 1.0000000e+00 0.0000000e+00 
8.9999998e-01 1.0000000e+00 0.0000000e+00 
8.0000001e-01 1.0000000e+00 0.0000000e+00 
6.9999999e-01 1.0000000e+00 0.0000000e+00 
6.0000002e-01 1.0000000e+00 0.0000000e+00 
5.0000000e-01 1.0000000e+00 0.0000000e+00 
4.0000001e-01 1.0000000e+00 0.0000000e+00 
3.0000001e-01 1.0000000e+00 0.0000000e+00 
2.0000000e-01 1.0000000e+00 0.0000000e+00 
1.0000000e-01 1.0000000e+00 0.0000000e+00 
0.0000000e+00 8.9999998e-01 0.0000000e+00 
0.0000000e+00 8.0000001e-01 0.0000000e+00 
0.0000000e+00 6.9999999e-01 0.0000000e+00 
0.0000000e+00 6.0000002e-01 0.0000000e+00 
0.0000000e+00 5.0000000e-01 0.0000000e+00 
0.0000000e+00 4.0000001e-01 0.0000000e+00 
0.0000000e+00 3.0000001e-01 0.0000000e+00 
0.0000000e+00 2.0000000e-01 0.0000000e+00 
0.0000000e+00 1.0000000e-01 0.0000000e+00 
4.3499999e+00 8.6602539e-02 0.0000000e+00 
2.2500000e+00 9.1339743e-01 0.0000000e+00 
4.0500002e+00 9.1339743e-01 0.0000000e+00 
2.7500000e+00 8.3308272e-02 0.0000000e+00 
3.2500000e+00 8.6602539e-02 0.0000000e+00 
3.7500000e+00 8.6602539e-02 0.0000000e+00 
1.2500000e+00 9.1339743e-01 0.0000000e+00 
1.7500000e+00 9.1339743e-01 0.0000000e+00 
9.4999999e-01 9.1339743e-01 0.0000000e+00 
5.5000001e-01 9.1339743e-01 0.0000000e+00 
7.5000000e-01 8.3308272e-02 0.0000000e+00 
1.4524696e+00 8.1907488e-02 0.0000000e+00 
1.9500000e+00 8.6602539e-02 0.0000000e+00 
3.4500000e+00 9.1339743e-01 0.0000000e+00 
2.9500000e+00 9.1339743e-01 0.0000000e+00 
2.4500000e+00 8.6602539e-02 0.0000000e+00 
4.4499998e+00 9.1339743e-01 0.0000000e+00 
2.6500001e+00 9.1339743e-01 0.0000000e+00 
1.1500000e+00 8.6602539e-02 0.0000000e+00 
4.0517640e+00 7.8262508e-02 0.0000000e+00 
3.7500000e+00 9.1339743e-01 0.0000000e+00 
9.5000088e-02 4.6391028e-01 0.0000000e+00 
4.9059730e+00 4.6363035e-01 0.0000000e+00 
4.5246965e-01 8.1907488e-02 0.0000000e+00 
4.6500001e+00 8.6602539e-02 0.0000000e+00 
4.6500001e+00 9.1339743e-01 0.0000000e+00 
7.5000000e-01 9.1339743e-01 0.0000000e+00 
4.9111457e+00 6.5092021e-01 0.0000000e+00 
2.2500000e+00 8.6602539e-02 0.0000000e+00 
3.2500000e+00 9.1339743e-01 0.0000000e+00 
9.4999999e-01 8.6602539e-02 0.0000000e+00 
2.9500000e+00 8.6602539e-02 0.0000000e+00 
3.4500000e+00 8.6602539e-02 0.0000000e+00 
2.4500000e+00 9.1339743e-01 0.0000000e+00 
1.9500000e+00 9.1339743e-01 0.0000000e+00 
1.5500000e+00 9.1339743e-01 0.0000000e+00 
1.6500000e+00 8.6602539e-02 0.0000000e+00 
3.4999999e-01 9.1339743e-01 0.0000000e+00 
9.0659410e-02 6.5153849e-01 0.0000000e+00 
4.2500000e+00 9.1339743e-01 0.0000000e+00 
2.5402120e-01 7.9592258e-02 0.0000000e+00 
4.9112749e+00 2.5204152e-01 0.0000000e+00 
8.6602539e-02 2.5000000e-01 0.0000000e+00 
4.9094305e+00 8.4081745e-01 0.0000000e+00 
9.0569727e-02 8.4081745e-01 0.0000000e+00 
4.8445559e+00 9.5495284e-02 0.0000000e+00 
3.9500000e+00 9.1339743e-01 0.0000000e+00 
4.0000000e+00 8.2679492e-01 0.0000000e+00 
4.0999999e+00 8.2679492e-01 0.0000000e+00 
4.0500002e+00 7.4019235e-01 0.0000000e+00 
4.1500001e+00 7.4019235e-01 0.0000000e+00 
4.0999999e+00 6.5358984e-01 0.0000000e+00 
4.1999998e+00 6.5358984e-01 0.0000000e+00 
4.0000000e+00 6.5358984e-01 0.0000000e+00 
4.1500001e+00 5.6698728e-01 0.0000000e+00 
4.2500000e+00 5.6698728e-01 0.0000000e+00 
4.1999998e+00 4.8038477e-01 0.0000000e+00 
4.3000002e+00 4.8038477e-01 0.0000000e+00 
4.3499999e+00 5.6698728e-01 0.0000000e+00 
4.4000001e+00 4.8038477e-01 0.0000000e+00 
4.4499998e+00 5.6698728e-01 0.0000000e+00 
4.5000000e+00 4.8038477e-01 0.0000000e+00 
4.0999999e+00 4.8038477e-01 0.0000000e+00 
4.5500002e+00 5.6698728e-01 0.0000000e+00 
4.2500000e+00 3.9378223e-01 0.0000000e+00 
4.4499998e+00 3.9378223e-01 0.0000000e+00 
4.5500002e+00 3.9378223e-01 0.0000000e+00 
4.5024695e+00 3.0860552e-01 0.0000000e+00 
4.5000000e+00 6.5358984e-01 0.0000000e+00 
4.5999999e+00 6.5358984e-01 0.0000000e+00 
4.6500001e+00 5.6698728e-01 0.0000000e+00 
4.6004114e+00 3.0741730e-01 0.0000000e+00 
4.6999998e+00 6.5358984e-01 0.0000000e+00 
4.5500002e+00 7.4019235e-01 0.0000000e+00 
4.4499998e+00 7.4019235e-01 0.0000000e+00 
4.4028811e+00 3.1213742e-01 0.0000000e+00 
3.9000001e+00 8.2679492e-01 0.0000000e+00 
4.2500000e+00 7.4019235e-01 0.0000000e+00 
4.6500688e+00 3.9382184e-01 0.0000000e+00 
4.7000799e+00 3.0722588e-01 0.0000000e+00 
4.7507491e+00 5.6669539e-01 0.0000000e+00 
4.5510750e+00 2.2357146e-01 0.0000000e+00 
4.7483096e+00 3.9479813e-01 0.0000000e+00 
4.8143229e+00 3.0351433e-01 0.0000000e+00 
4.7489839e+00 2.2150035e-01 0.0000000e+00 
4.8026423e+00 6.5280432e-01 0.0000000e+00 
4.7504406e+00 7.4006146e-01 0.0000000e+00 
4.8507943e+00 7.4260241e-01 0.0000000e+00 
4.8009601e+00 8.2998371e-01 0.0000000e+00 
4.8518200e+00 5.6202388e-01 0.0000000e+00 
4.8002234e+00 4.7973469e-01 0.0000000e+00 
4.7002335e+00 8.2730454e-01 0.0000000e+00 
4.6500239e+00 2.2246142e-01 0.0000000e+00 
4.5000000e+00 8.2679492e-01 0.0000000e+00 
4.4000001e+00 8.2679492e-01 0.0000000e+00 
4.6000390e+00 8.2687986e-01 0.0000000e+00 
4.6501188e+00 7.4026966e-01 0.0000000e+00 
4.1999998e+00 8.2679492e-01 0.0000000e+00 
4.1500001e+00 9.1339743e-01 0.0000000e+00 
4.1500001e+00 3.9378223e-01 0.0000000e+00 
4.0500002e+00 3.9378223e-01 0.0000000e+00 
4.1999998e+00 3.0717969e-01 0.0000000e+00 
4.0000000e+00 4.8038477e-01 0.0000000e+00 
3.9500000e+00 3.9378223e-01 0.0000000e+00 
3.9000001e+00 4.8038477e-01 0.0000000e+00 
3.8499999e+00 3.9378223e-01 0.0000000e+00 
3.8000000e+00 4.8038477e-01 0.0000000e+00 
3.7500000e+00 3.9378223e-01 0.0000000e+00 
3.7000000e+00 4.8038477e-01 0.0000000e+00 
3.6500001e+00 3.9378223e-01 0.0000000e+00 
[...]
POINT_DATA 663
FIELD FieldData 2
DISPLACEMENT 3 663  float
0.0000000e+00 0.0000000e+00 0.0000000e+00 
0.0000000e+00 0.0000000e+00 0.0000000e+00 
0.0000000e+00 -8.8114875e-09 0.0000000e+00 
0.0000000e+00 -1.0199150e-06 0.0000000e+00 
0.0000000e+00 0.0000000e+00 0.0000000e+00 
0.0000000e+00 0.0000000e+00 0.0000000e+00 
0.0000000e+00 0.0000000e+00 0.0000000e+00 
0.0000000e+00 0.0000000e+00 0.0000000e+00 
0.0000000e+00 0.0000000e+00 0.0000000e+00 
0.0000000e+00 0.0000000e+00 0.0000000e+00 
0.0000000e+00 0.0000000e+00 0.0000000e+00 
0.0000000e+00 0.0000000e+00 0.0000000e+00 
0.0000000e+00 0.0000000e+00 0.0000000e+00 
0.0000000e+00 0.0000000e+00 0.0000000e+00 
0.0000000e+00 0.0000000e+00 0.0000000e+00 
0.0000000e+00 0.0000000e+00 0.0000000e+00 
0.0000000e+00 0.0000000e+00 0.0000000e+00 
0.0000000e+00 0.0000000e+00 0.0000000e+00 
0.0000000e+00 0.0000000e+00 0.0000000e+00 
0.0000000e+00 0.0000000e+00 0.0000000e+00 
0.0000000e+00 0.0000000e+00 0.0000000e+00 
0.0000000e+00 0.0000000e+00 0.0000000e+00 
0.0000000e+00 0.0000000e+00 0.0000000e+00 
0.0000000e+00 0.0000000e+00 0.0000000e+00 
0.0000000e+00 0.0000000e+00 0.0000000e+00 
0.0000000e+00 0.0000000e+00 0.0000000e+00 
0.0000000e+00 0.0000000e+00 0.0000000e+00 
0.0000000e+00 0.0000000e+00 0.0000000e+00 
0.0000000e+00 0.0000000e+00 0.0000000e+00 
0.0000000e+00 0.0000000e+00 0.0000000e+00 
0.0000000e+00 0.0000000e+00 0.0000000e+00 
0.0000000e+00 0.0000000e+00 0.0000000e+00 
0.0000000e+00 0.0000000e+00 0.0000000e+00 
0.0000000e+00 0.0000000e+00 0.0000000e+00 
0.0000000e+00 0.0000000e+00 0.0000000e+00 
0.0000000e+00 0.0000000e+00 0.0000000e+00 
0.0000000e+00 0.0000000e+00 0.0000000e+00 
0.0000000e+00 0.0000000e+00 0.0000000e+00 
0.0000000e+00 0.0000000e+00 0.0000000e+00 
0.0000000e+00 0.0000000e+00 0.0000000e+00 
0.0000000e+00 0.0000000e+00 0.0000000e+00 
0.0000000e+00 0.0000000e+00 0.0000000e+00 
0.0000000e+00 0.0000000e+00 0.0000000e+00 
0.0000000e+00 0.0000000e+00 0.0000000e+00 
0.0000000e+00 0.0000000e+00 0.0000000e+00 
0.0000000e+00 0.0000000e+00 0.0000000e+00 
0.0000000e+00 0.0000000e+00 0.0000000e+00 
0.0000000e+00 0.0000000e+00 0.0000000e+00 
0.0000000e+00 0.0000000e+00 0.0000000e+00 
0.0000000e+00 0.0000000e+00 0.0000000e+00 
0.0000000e+00 0.0000000e+00 0.0000000e+00 
0.0000000e+00 0.0000000e+00 0.0000000e+00 
0.0000000e+00 0.0000000e+00 0.0000000e+00 
0.0000000e+00 -8.3877477e-10 0.0000000e+00 
0.0000000e+00 -1.8769291e-09 0.0000000e+00 
0.0000000e+00 -3.0680587e-09 0.0000000e+00 
0.0000000e+00 -4.3153063e-09 0.0000000e+00 
0.0000000e+00 -5.5308584e-09 0.0000000e+00 
0.0000000e+00 -6.6397301e-09 0.0000000e+00 
0.0000000e+00 -7.5682971e-09 0.0000000e+00 
0.0000000e+00 -8.2566096e-09 0.0000000e+00 
0.0000000e+00 -8.6712113e-09 0.0000000e+00 
4.9340927e-11 -8.7126200e-09 0.0000000e+00 
1.9126532e-10 -8.4317842e-09 0.0000000e+00 
4.8247123e-10 -7.7390307e-09 0.0000000e+00 
9.1937513e-10 -6.4044321e-09 0.0000000e+00 
1.4025903e-09 -4.1320876e-09 0.0000000e+00 
1.7103136e-09 -6.4502403e-10 0.0000000e+00 
1.4992493e-09 4.2324877e-09 0.0000000e+00 
3.1850361e-10 1.0483625e-08 0.0000000e+00 
-2.3486162e-09 1.7804151e-08 0.0000000e+00 
-7.0108372e-09 2.5521265e-08 0.0000000e+00 
-1.4063148e-08 3.2549362e-08 0.0000000e+00 
-2.3657117e-08 3.7410071e-08 0.0000000e+00 
-3.5566728e-08 3.8342744e-08 0.0000000e+00 
-4.9082342e-08 3.3521161e-08 0.0000000e+00 
-6.2976468e-08 2.1369077e-08 0.0000000e+00 
-7.5589121e-08 9.3018343e-10 0.0000000e+00 
-8.5069914e-08 -2.7801256e-08 0.0000000e+00 
-8.9780492e-08 -6.3734525e-08 0.0000000e+00 
-8.8797925e-08 -1.0490139e-07 0.0000000e+00 
-8.2370534e-08 -1.4921274e-07 0.0000000e+00 
-7.2072893e-08 -1.9586416e-07 0.0000000e+00 
-6.0284478e-08 -2.4744682e-07 0.0000000e+00 
-4.8304646e-08 -3.1315236e-07 0.0000000e+00 
-3.0723179e-08 -4.1649417e-07 0.0000000e+00 
2.8710485e-08 -6.5679683e-07 0.0000000e+00 
1.2789712e-07 -6.6320410e-07 0.0000000e+00 
1.9401809e-07 -4.0429771e-07 0.0000000e+00 
2.1035835e-07 -2.5827805e-07 0.0000000e+00 
2.0013998e-07 -1.3976401e-07 0.0000000e+00 
1.7036305e-07 -6.0196470e-08 0.0000000e+00 
1.2545468e-07 1.7200561e-08 0.0000000e+00 
7.0256910e-08 5.1673169e-08 0.0000000e+00 
9.6787112e-09 6.3956151e-08 0.0000000e+00 
-6.0949169e-08 5.9559550e-08 0.0000000e+00 
-1.4015900e-07 2.4154193e-08 0.0000000e+00 
-2.1712518e-07 -5.3728915e-08 0.0000000e+00 
-2.7796034e-07 -1.7250446e-07 0.0000000e+00 
-3.1251534e-07 -3.1852548e-07 0.0000000e+00 
-3.1863277e-07 -4.7222451e-07 0.0000000e+00 
-3.0367502e-07 -6.1618465e-07 0.0000000e+00 
-2.8327099e-07 -7.4423184e-07 0.0000000e+00 
-2.7640195e-07 -8.7112130e-07 0.0000000e+00 
-2.9489374e-07 -1.0426797e-06 0.0000000e+00 
-3.2115091e-07 -1.3544468e-06 0.0000000e+00 
-2.3268257e-07 -2.1248541e-06 0.0000000e+00 
-1.3534763e-08 -2.2417105e-06 0.0000000e+00 
1.3454414e-07 -1.5834548e-06 0.0000000e+00 
1.5527684e-07 -1.2535813e-06 0.0000000e+00 
9.5753023e-08 -1.0278620e-06 0.0000000e+00 
0.0000000e+00 -9.6167003e-07 0.0000000e+00 
0.0000000e+00 -9.5878693e-07 0.0000000e+00 
0.0000000e+00 -9.6044005e-07 0.0000000e+00 
0.0000000e+00 -9.1902712e-07 0.0000000e+00 
0.0000000e+00 -8.2428926e-07 0.0000000e+00 
0.0000000e+00 -6.8733482e-07 0.0000000e+00 
0.0000000e+00 -5.2509398e-07 0.0000000e+00 
0.0000000e+00 -3.5186477e-07 0.0000000e+00 
0.0000000e+00 -1.7558995e-07 0.0000000e+00 
-2.4656870e-09 8.8857072e-10 0.0000000e+00 
1.0641894e-07 -3.2502464e-07 0.0000000e+00 
-9.3792840e-09 2.2492621e-08 0.0000000e+00 
1.4415153e-08 -3.2266033e-08 0.0000000e+00 
1.8047313e-08 -9.9783266e-09 0.0000000e+00 
3.6644077e-09 2.9586016e-09 0.0000000e+00 
-1.8589675e-07 -2.3607895e-07 0.0000000e+00 
3.3325996e-08 6.8793611e-08 0.0000000e+00 
-1.7748562e-07 -6.8044722e-07 0.0000000e+00 
-2.0014097e-08 -1.5705041e-06 0.0000000e+00 
4.1429580e-08 -1.1050621e-07 0.0000000e+00 
4.5666127e-08 -1.1210625e-08 0.0000000e+00 
-1.8785464e-09 -1.0053275e-08 0.0000000e+00 
-5.1639365e-08 1.3771743e-08 0.0000000e+00 
-3.8042785e-08 -1.7367830e-07 0.0000000e+00 
2.0032260e-09 -3.5776836e-08 0.0000000e+00 
-1.2115019e-09 -2.4167266e-09 0.0000000e+00 
2.9182711e-08 -3.5808628e-07 0.0000000e+00 
6.5711909e-08 -5.4627943e-08 0.0000000e+00 
-1.3972208e-09 2.4182827e-09 0.0000000e+00 
-2.7975465e-08 4.0118866e-08 0.0000000e+00 
3.1470366e-09 -7.8508464e-07 0.0000000e+00 
-1.0551124e-09 -5.0158393e-09 0.0000000e+00 
2.1699146e-08 -1.3083115e-07 0.0000000e+00 
-1.4493043e-09 -3.0008074e-10 0.0000000e+00 
-5.6216376e-10 -7.0927197e-09 0.0000000e+00 
-1.2562862e-07 -9.4206933e-07 0.0000000e+00 
-7.9997986e-10 -7.0765069e-09 0.0000000e+00 
-5.0792561e-09 -2.8527987e-08 0.0000000e+00 
-5.8599717e-08 -4.4427829e-08 0.0000000e+00 
5.8420902e-08 -8.8122270e-08 0.0000000e+00 
1.9718122e-08 -2.5178291e-08 0.0000000e+00 
1.2593870e-08 -2.2809943e-09 0.0000000e+00 
7.4185536e-08 -5.7238839e-07 0.0000000e+00 
9.8332009e-08 -8.4275538e-09 0.0000000e+00 
-6.4775882e-08 5.8987382e-08 0.0000000e+00 
2.4399657e-08 -1.0204543e-09 0.0000000e+00 
-1.1087200e-07 -1.7526044e-06 0.0000000e+00 
-4.0894193e-08 -9.7637655e-07 0.0000000e+00 
-3.4852392e-09 7.5672464e-09 0.0000000e+00 
1.2102952e-08 -1.3520848e-07 0.0000000e+00 
-8.1298662e-10 -2.4248630e-09 0.0000000e+00 
1.0432545e-08 -4.3836442e-07 0.0000000e+00 
-3.5216846e-10 -8.4168850e-09 0.0000000e+00 
-4.3176517e-08 -1.0040350e-06 0.0000000e+00 
-6.9236455e-10 -6.8751138e-10 0.0000000e+00 
-1.4255169e-08 3.0312354e-08 0.0000000e+00 
-1.3618505e-08 2.6751749e-08 0.0000000e+00 
-1.0333968e-08 1.8880886e-08 0.0000000e+00 
-1.2566849e-08 2.2485237e-08 0.0000000e+00 
-1.0422997e-08 1.5090501e-08 0.0000000e+00 
-1.1383385e-08 1.7993063e-08 0.0000000e+00 
-1.0015892e-08 1.1428349e-08 0.0000000e+00 
-1.2396650e-08 2.4736956e-08 0.0000000e+00 
-1.0217305e-08 1.3651055e-08 0.0000000e+00 
-9.3288062e-09 8.1254097e-09 0.0000000e+00 
-9.0995522e-09 9.7432169e-09 0.0000000e+00 
-8.4580707e-09 5.3429337e-09 0.0000000e+00 
-8.0957658e-09 3.4569880e-09 0.0000000e+00 
-7.3989139e-09 1.7349072e-09 0.0000000e+00 
-6.7048798e-09 -1.6593858e-10 0.0000000e+00 
-6.1300089e-09 -9.9081798e-10 0.0000000e+00 
-9.0879837e-09 1.4649730e-08 0.0000000e+00 
-5.2937916e-09 -2.7591711e-09 0.0000000e+00 
-7.9731572e-09 6.4619305e-09 0.0000000e+00 
-6.4517538e-09 5.4565397e-10 0.0000000e+00 
-5.2848987e-09 -1.3906442e-09 0.0000000e+00 
-5.2748508e-09 -1.8332817e-10 0.0000000e+00 
-5.4416591e-09 -2.2552258e-09 0.0000000e+00 
-4.0948560e-09 -4.5287019e-09 0.0000000e+00 
-3.9491357e-09 -4.4672195e-09 0.0000000e+00 
-4.2374144e-09 -1.4247397e-09 0.0000000e+00 
-2.8999194e-09 -5.9299046e-09 0.0000000e+00 
-3.8119081e-09 -4.2519095e-09 0.0000000e+00 
-5.1040345e-09 -1.3450441e-09 0.0000000e+00 
-6.2027170e-09 1.5827548e-09 0.0000000e+00 
-1.7472029e-08 3.3907039e-08 0.0000000e+00 
-8.4215737e-09 8.3782394e-09 0.0000000e+00 
-4.0510773e-09 -2.7127178e-09 0.0000000e+00 
-3.1414615e-09 -2.2797200e-09 0.0000000e+00 
-2.7017211e-09 -5.4956897e-09 0.0000000e+00 
-3.9551509e-09 -4.2619464e-10 0.0000000e+00 
-2.8585920e-09 -3.5370067e-09 0.0000000e+00 
-1.9000512e-09 -2.8145803e-09 0.0000000e+00 
-2.1687308e-09 -1.6637421e-09 0.0000000e+00 
-1.8216999e-09 -6.7139423e-09 0.0000000e+00 
-1.8254253e-09 -7.1431674e-09 0.0000000e+00 
-1.0311790e-09 -7.6911393e-09 0.0000000e+00 
-8.8160623e-10 -8.0351334e-09 0.0000000e+00 
-1.5663821e-09 -5.9961844e-09 0.0000000e+00 
-2.2662214e-09 -4.8298383e-09 0.0000000e+00 
-1.4304010e-09 -7.3010322e-09 0.0000000e+00 
-3.0693490e-09 -1.1791260e-09 0.0000000e+00 
-2.9324041e-09 -3.5759140e-09 0.0000000e+00 
-4.0726307e-09 6.0844988e-12 0.0000000e+00 
-2.0847746e-09 -5.9178609e-09 0.0000000e+00 
-2.7317866e-09 -6.0941998e-09 0.0000000e+00 
-7.6768103e-09 1.1402320e-08 0.0000000e+00 
-5.8497749e-09 1.4612517e-08 0.0000000e+00 
-7.8879658e-09 1.0254381e-08 0.0000000e+00 
-6.9149424e-09 1.4203085e-08 0.0000000e+00 
-6.7255881e-09 6.6056045e-09 0.0000000e+00 
-8.1733100e-09 1.9530821e-08 0.0000000e+00 
-4.8162510e-09 1.7753543e-08 0.0000000e+00 
-6.1279830e-09 2.3591431e-08 0.0000000e+00 
-1.4200184e-09 2.0150376e-08 0.0000000e+00 
-2.7900491e-09 2.5806319e-08 0.0000000e+00 
3.3360859e-09 2.0490679e-08 0.0000000e+00 
1.8934114e-09 2.5008417e-08 0.0000000e+00 
9.3675556e-09 1.7821730e-08 0.0000000e+00 
7.8313507e-09 2.0029916e-08 0.0000000e+00 
1.6427634e-08 1.1253931e-08 0.0000000e+00 
1.4782194e-08 9.8967456e-09 0.0000000e+00 
2.4121153e-08 1.3151655e-10 0.0000000e+00 
2.2378803e-08 -5.9067076e-09 0.0000000e+00 
3.1596137e-08 -1.5176893e-08 0.0000000e+00 
3.0117345e-08 -2.7249976e-08 0.0000000e+00 
3.8693027e-08 -3.5381934e-08 0.0000000e+00 
3.7655521e-08 -5.3648012e-08 0.0000000e+00 
4.5155286e-08 -5.9722353e-08 0.0000000e+00 
4.4584169e-08 -8.3702524e-08 0.0000000e+00 
5.0014187e-08 -8.5291298e-08 0.0000000e+00 
5.0576421e-08 -1.1552059e-07 0.0000000e+00 
5.2852272e-08 -1.1150453e-07 0.0000000e+00 
5.5201117e-08 -1.4742196e-07 0.0000000e+00 
5.3423221e-08 -1.3649323e-07 0.0000000e+00 
5.7767316e-08 -1.7749069e-07 0.0000000e+00 
5.1273013e-08 -1.5812238e-07 0.0000000e+00 
5.6996317e-08 -2.0309275e-07 0.0000000e+00 
4.5814421e-08 -1.7383714e-07 0.0000000e+00 
5.1555812e-08 -2.2052990e-07 0.0000000e+00 
3.7030087e-08 -1.8114386e-07 0.0000000e+00 
4.1346016e-08 -2.2575423e-07 0.0000000e+00 
2.5927086e-08 -1.7788675e-07 0.0000000e+00 
2.8188301e-08 -2.1570359e-07 0.0000000e+00 
1.4915814e-08 -1.6433918e-07 0.0000000e+00 
1.5545387e-08 -1.8979010e-07 0.0000000e+00 
5.9175793e-09 -1.4054298e-07 0.0000000e+00 
7.0027295e-09 -1.5023016e-07 0.0000000e+00 
1.0862440e-09 -1.0543944e-07 0.0000000e+00 
5.0127129e-09 -1.0232300e-07 0.0000000e+00 
2.2604656e-09 -6.6401398e-08 0.0000000e+00 
9.4784669e-09 -5.2918796e-08 0.0000000e+00 
9.6604333e-09 -2.8650975e-08 0.0000000e+00 
1.8987773e-08 -8.4087084e-09 0.0000000e+00 
2.2664803e-08 3.7012566e-09 0.0000000e+00 
3.2191704e-08 2.5738775e-08 0.0000000e+00 
4.0597484e-08 2.5543804e-08 0.0000000e+00 
4.8516181e-08 4.3934385e-08 0.0000000e+00 
6.2554605e-08 3.1605758e-08 0.0000000e+00 
6.7660856e-08 4.0590937e-08 0.0000000e+00 
8.6815412e-08 1.7774649e-08 0.0000000e+00 
8.8375238e-08 1.1128414e-08 0.0000000e+00 
1.1079062e-07 -1.8664146e-08 0.0000000e+00 
1.0827433e-07 -4.6009433e-08 0.0000000e+00 
1.3113032e-07 -7.6539834e-08 0.0000000e+00 
1.2439639e-07 -1.2763348e-07 0.0000000e+00 
1.4506007e-07 -1.5152168e-07 0.0000000e+00 
1.3468808e-07 -2.2606869e-07 0.0000000e+00 
1.5119723e-07 -2.3624121e-07 0.0000000e+00 
1.3889154e-07 -3.3092755e-07 0.0000000e+00 
1.5003346e-07 -3.2223343e-07 0.0000000e+00 
1.3862591e-07 -4.3221934e-07 0.0000000e+00 
1.4365963e-07 -4.0227084e-07 0.0000000e+00 
1.3641876e-07 -5.2339334e-07 0.0000000e+00 
1.3459062e-07 -4.7201391e-07 0.0000000e+00 
1.3375011e-07 -6.0268019e-07 0.0000000e+00 
1.2438993e-07 -5.3028651e-07 0.0000000e+00 
1.2900482e-07 -6.7124762e-07 0.0000000e+00 
1.1252015e-07 -5.7781602e-07 0.0000000e+00 
1.1790839e-07 -7.2979782e-07 0.0000000e+00 
9.7369316e-08 -6.1584143e-07 0.0000000e+00 
9.6976827e-08 -7.7683529e-07 0.0000000e+00 
7.7938829e-08 -6.4504388e-07 0.0000000e+00 
-1.9195117e-09 2.8144406e-08 0.0000000e+00 
1.6607107e-08 -1.5421499e-08 0.0000000e+00 
4.0411727e-08 -1.1092503e-07 0.0000000e+00 
6.1850514e-08 -2.2122416e-07 0.0000000e+00 
5.6623016e-08 -2.7070689e-07 0.0000000e+00 
2.7841420e-08 -2.4960516e-07 0.0000000e+00 
1.1841006e-08 -8.5341284e-08 0.0000000e+00 
2.8090829e-08 1.8382586e-08 0.0000000e+00 
4.8006211e-08 5.8535793e-08 0.0000000e+00 
8.8575916e-08 -8.8810637e-08 0.0000000e+00 
1.1145298e-07 -4.3443669e-07 0.0000000e+00 
1.2178837e-07 -6.4546845e-07 0.0000000e+00 
1.2823018e-07 -8.2213768e-07 0.0000000e+00 
6.7084159e-08 -8.0867579e-07 0.0000000e+00 
7.6499390e-08 -9.5354829e-07 0.0000000e+00 
5.5490048e-08 -6.6516719e-07 0.0000000e+00 
8.8014637e-08 -4.6561757e-07 0.0000000e+00 
1.3800539e-07 -9.3262059e-08 0.0000000e+00 
2.7495755e-08 7.7105131e-09 0.0000000e+00 
-2.8834639e-09 -7.0268214e-08 0.0000000e+00 
3.1989725e-08 -1.3752634e-07 0.0000000e+00 
4.6585953e-08 -5.9470679e-08 0.0000000e+00 
1.4916456e-08 1.0495694e-08 0.0000000e+00 
-1.1918262e-09 1.4447496e-08 0.0000000e+00 
3.0785944e-08 -9.7716224e-07 0.0000000e+00 
2.5666933e-08 -1.1463661e-06 0.0000000e+00 
5.8056088e-08 -5.0844864e-07 0.0000000e+00 
1.3009357e-07 -3.4582462e-07 0.0000000e+00 
1.4791028e-07 -2.2238595e-07 0.0000000e+00 
7.3372483e-08 1.5375360e-08 0.0000000e+00 
1.2468117e-08 -1.3205681e-07 0.0000000e+00 
4.8089024e-08 -9.8514590e-08 0.0000000e+00 
2.9566150e-08 -7.4847160e-09 0.0000000e+00 
-3.2238191e-08 -1.1328445e-06 0.0000000e+00 
4.2178012e-08 -5.2259583e-07 0.0000000e+00 
8.4023625e-08 -1.0939436e-06 0.0000000e+00 
-8.5606970e-09 2.9338208e-08 0.0000000e+00 
2.4845642e-08 -1.3274822e-06 0.0000000e+00 
8.6129567e-08 -1.2111881e-06 0.0000000e+00 
-7.8191178e-09 -9.6510473e-07 0.0000000e+00 
3.9385700e-08 -3.6871884e-07 0.0000000e+00 
3.3837040e-08 -6.7801460e-07 0.0000000e+00 
5.2151513e-08 -3.7018620e-07 0.0000000e+00 
2.8545394e-08 -3.8002619e-07 0.0000000e+00 
-5.9537179e-08 -1.0620740e-06 0.0000000e+00 
-9.7320061e-08 -1.2317022e-06 0.0000000e+00 
-8.7390383e-08 -1.0842226e-06 0.0000000e+00 
-9.6769313e-08 -1.2170821e-06 0.0000000e+00 
-2.0995772e-08 -9.2709871e-07 0.0000000e+00 
2.4705310e-08 -5.2690046e-07 0.0000000e+00 
-5.3694016e-08 -1.3363317e-06 0.0000000e+00 
-5.9539293e-09 9.5274899e-09 0.0000000e+00 
-4.9809712e-09 5.6994955e-09 0.0000000e+00 
-5.5398628e-09 3.8900891e-09 0.0000000e+00 
-3.8222274e-09 7.7558227e-09 0.0000000e+00 
-3.8916252e-09 3.0864911e-09 0.0000000e+00 
1.4142100e-07 -2.8738401e-07 0.0000000e+00 
1.2585180e-07 -1.8447656e-07 0.0000000e+00 
1.2957828e-07 -1.3771384e-07 0.0000000e+00 
1.1612899e-07 -2.2843592e-07 0.0000000e+00 
1.0344282e-07 -2.6908342e-07 0.0000000e+00 
-7.8590068e-10 -5.3120237e-09 0.0000000e+00 
-1.8589660e-09 -1.3331002e-11 0.0000000e+00 
-2.1410660e-09 3.7024531e-10 0.0000000e+00 
-3.9239199e-09 1.0005587e-09 0.0000000e+00 
-7.4166113e-09 3.1618108e-09 0.0000000e+00 
-3.9946776e-10 -8.0669382e-09 0.0000000e+00 
9.9555400e-08 -1.9464686e-07 0.0000000e+00 
4.9646498e-08 -1.4749554e-07 0.0000000e+00 
4.3458382e-08 -4.2241702e-08 0.0000000e+00 
5.5586021e-08 -2.7528853e-07 0.0000000e+00 
-8.6562331e-09 -9.2516856e-08 0.0000000e+00 
-3.1594831e-09 3.4053986e-09 0.0000000e+00 
3.8152304e-08 2.9584349e-08 0.0000000e+00 
6.2740679e-09 5.9300817e-08 0.0000000e+00 
-6.6908640e-08 -3.9225664e-08 0.0000000e+00 
-1.0452434e-08 -2.2052491e-07 0.0000000e+00 
-8.3567082e-09 -3.6504338e-07 0.0000000e+00 
6.1582334e-08 -4.1063274e-07 0.0000000e+00 
-1.2645144e-09 -5.0881516e-07 0.0000000e+00 
-9.2317194e-08 -4.5732295e-07 0.0000000e+00 
6.9522748e-08 -5.3995154e-07 0.0000000e+00 
1.2752206e-08 -6.4018565e-07 0.0000000e+00 
8.1924391e-08 -6.5684804e-07 0.0000000e+00 
3.5541742e-08 -7.6010906e-07 0.0000000e+00 
9.9462525e-08 -7.6572064e-07 0.0000000e+00 
6.6131555e-08 -8.8570584e-07 0.0000000e+00 
1.1653427e-07 -8.7842335e-07 0.0000000e+00 
1.5587199e-08 -5.7338809e-09 0.0000000e+00 
2.8078814e-08 -1.3972712e-08 0.0000000e+00 
3.2198173e-08 -2.3733485e-08 0.0000000e+00 
3.6635488e-08 -2.4670705e-08 0.0000000e+00 
2.3567916e-08 -6.2763923e-09 0.0000000e+00 
1.7506862e-08 -2.6895566e-10 0.0000000e+00 
1.2838105e-07 -7.3657390e-07 0.0000000e+00 
-1.5418404e-07 -8.0355409e-07 0.0000000e+00 
-8.4871473e-08 -1.1598223e-06 0.0000000e+00 
1.1573703e-07 -5.4590674e-07 0.0000000e+00 
-2.0733824e-09 -3.2970018e-08 0.0000000e+00 
-3.1926854e-09 -6.2091516e-08 0.0000000e+00 
-6.9343491e-09 -5.2197603e-08 0.0000000e+00 
-2.8208624e-09 -8.4555303e-08 0.0000000e+00 
-9.2690272e-10 -3.6223260e-09 0.0000000e+00 
-2.0296727e-09 1.8424761e-09 0.0000000e+00 
-1.3482011e-08 7.6016867e-08 0.0000000e+00 
1.7486595e-08 7.8095240e-08 0.0000000e+00 
4.3699913e-08 5.9760033e-08 0.0000000e+00 
3.2452348e-08 6.7504516e-08 0.0000000e+00 
4.1085645e-08 3.6522035e-08 0.0000000e+00 
9.5212647e-09 5.6562310e-09 0.0000000e+00 
8.5769593e-11 -1.8842090e-09 0.0000000e+00 
6.3386452e-09 -2.8461939e-08 0.0000000e+00 
-4.9207016e-09 1.7345901e-08 0.0000000e+00 
-1.4047332e-08 -1.2877012e-08 0.0000000e+00 
-8.9150074e-09 -4.4686747e-08 0.0000000e+00 
1.3822941e-08 -6.1462991e-08 0.0000000e+00 
-1.5951513e-09 -8.2583149e-08 0.0000000e+00 
9.3981207e-08 -1.0419878e-06 0.0000000e+00 
1.0685857e-07 -3.1412065e-07 0.0000000e+00 
-6.7936146e-09 3.9417545e-09 0.0000000e+00 
1.2110398e-07 -4.1438295e-08 0.0000000e+00 
1.1415346e-07 -5.1583683e-08 0.0000000e+00 
9.7800985e-08 -1.9955015e-08 0.0000000e+00 
-5.6739857e-08 -1.1296414e-08 0.0000000e+00 
7.4398258e-08 -4.8460663e-07 0.0000000e+00 
4.9536460e-08 -3.6928930e-07 0.0000000e+00 
5.8995248e-08 -2.4836805e-07 0.0000000e+00 
3.0205285e-08 -2.7869888e-07 0.0000000e+00 
3.1728710e-08 -1.8118908e-07 0.0000000e+00 
3.9948823e-08 -3.5635969e-07 0.0000000e+00 
6.7086056e-08 -1.3607922e-07 0.0000000e+00 
3.7376370e-08 -8.8556206e-08 0.0000000e+00 
1.7243453e-08 -2.0572041e-07 0.0000000e+00 
5.6434008e-08 -4.5399116e-07 0.0000000e+00 
7.6116336e-08 -4.5763159e-07 0.0000000e+00 
5.9406137e-08 -3.8896584e-07 0.0000000e+00 
7.3403676e-08 -3.7236205e-07 0.0000000e+00 
7.2497571e-08 -3.9067294e-07 0.0000000e+00 
6.9809410e-08 -3.2283523e-07 0.0000000e+00 
4.7563002e-08 -3.0989889e-07 0.0000000e+00 
5.3875418e-08 -2.6627228e-07 0.0000000e+00 
2.3289063e-08 -2.4810885e-07 0.0000000e+00 
3.6295926e-08 -2.1558664e-07 0.0000000e+00 
3.5247318e-09 -1.9681859e-07 0.0000000e+00 
2.0800970e-08 -1.6897202e-07 0.0000000e+00 
4.4017227e-08 -1.8198982e-07 0.0000000e+00 
-1.1606390e-08 -1.4979129e-07 0.0000000e+00 
8.2075733e-09 -1.2456491e-07 0.0000000e+00 
-4.9518700e-08 -1.2763903e-07 0.0000000e+00 
-2.1916730e-08 -2.2257696e-07 0.0000000e+00 
6.9567896e-08 -4.8757931e-07 0.0000000e+00 
2.2029683e-08 3.5887155e-09 0.0000000e+00 
6.2850560e-08 -2.5172292e-07 0.0000000e+00 
3.5531755e-08 -4.2652806e-09 0.0000000e+00 
5.3374979e-08 1.4192053e-09 0.0000000e+00 
3.2339365e-08 2.9765295e-09 0.0000000e+00 
-3.6188084e-08 3.8538055e-08 0.0000000e+00 
-2.6040091e-08 3.9778357e-08 0.0000000e+00 