# vtk DataFile Version 4.0
vtk output
ASCII
DATASET UNSTRUCTURED_GRID
POINTS 30 float
0.0000000e+00 0.0000000e+00 0.0000000e+00 
1.0000000e+00 0.0000000e+00 0.0000000e+00 
1.0000000e+00 1.0000000e+00 0.0000000e+00 
0.0000000e+00 1.0000000e+00 0.0000000e+00 
2.5000000e-01 0.0000000e+00 0.0000000e+00 
5.0000000e-01 0.0000000e+00 0.0000000e+00 
7.5000000e-01 0.0000000e+00 0.0000000e+00 
1.0000000e+00 2.5000000e-01 0.0000000e+00 
1.0000000e+00 5.0000000e-01 0.0000000e+00 
1.0000000e+00 7.5000000e-01 0.0000000e+00 
7.5000000e-01 1.0000000e+00 0.0000000e+00 
5.0000000e-01 1.0000000e+00 0.0000000e+00 
2.5000000e-01 1.0000000e+00 0.0000000e+00 
0.0000000e+00 7.5000000e-01 0.0000000e+00 
0.0000000e+00 5.0000000e-01 0.0000000e+00 
0.0000000e+00 2.5000000e-01 0.0000000e+00 
1.9194904e-01 3.7563103e-01 0.0000000e+00 
6.3590682e-01 2.1323122e-01 0.0000000e+00 
7.8895766e-01 6.2466627e-01 0.0000000e+00 
3.8539964e-01 7.4551302e-01 0.0000000e+00 
8.0207902e-01 3.7843281e-01 0.0000000e+00 
5.6919098e-01 4.9434972e-01 0.0000000e+00 
6.2870389e-01 7.8320098e-01 0.0000000e+00 
3.8600761e-01 2.5211850e-01 0.0000000e+00 
1.8872584e-01 6.1445600e-01 0.0000000e+00 
3.4425461e-01 4.9641365e-01 0.0000000e+00 
8.1698728e-01 1.8301271e-01 0.0000000e+00 
8.1698728e-01 8.1698728e-01 0.0000000e+00 
1.6482510e-01 8.2199383e-01 0.0000000e+00 
1.8301271e-01 1.8301271e-01 0.0000000e+00 

CELLS 42 168
3 21 22 19
3 21 23 17
3 19 25 21
3 21 25 23
3 18 22 21
3 20 21 17
3 23 25 16
3 9 18 8
3 12 19 11
3 15 16 14
3 6 17 5
3 24 25 19
3 5 23 4
3 8 20 7
3 14 24 13
3 11 22 10
3 18 21 20
3 18 20 8
3 16 24 14
3 19 22 11
3 17 23 5
3 2 27 9
3 3 28 12
3 0 29 15
3 1 26 6
3 10 27 2
3 13 28 3
3 4 29 0
3 7 26 1
3 23 29 4
3 20 26 7
3 22 27 10
3 24 28 13
3 9 27 18
3 6 26 17
3 12 28 19
3 15 29 16
3 16 29 23
3 18 27 22
3 19 28 24
3 17 26 20
3 16 25 24

CELL_TYPES 42
5
5
5
5
5
5
5
5
5
5
5
5
5
5
5
5
5
5
5
5
5
5
5
5
5
5
5
5
5
5
5
5
5
5
5
5
5
5
5
5
5
5
POINT_DATA 30
FIELD FieldData 2
DISPLACEMENT 3 30  float
0.0000000e+00 0.0000000e+00 0.0000000e+00 
0.0000000e+00 0.0000000e+00 0.0000000e+00 
0.0000000e+00 -1.4724617e-05 0.0000000e+00 
0.0000000e+00 -1.4775073e-05 0.0000000e+00 
0.0000000e+00 0.0000000e+00 0.0000000e+00 
0.0000000e+00 0.0000000e+00 0.0000000e+00 
0.0000000e+00 0.0000000e+00 0.0000000e+00 
0.0000000e+00 -3.6777367e-06 0.0000000e+00 
0.0000000e+00 -7.3539213e-06 0.0000000e+00 
0.0000000e+00 -1.1033644e-05 0.0000000e+00 
2.5634556e-08 -1.4730748e-05 0.0000000e+00 
3.2682141e-08 -1.4743502e-05 0.0000000e+00 
2.2339512e-08 -1.4763184e-05 0.0000000e+00 
0.0000000e+00 -1.1055457e-05 0.0000000e+00 
0.0000000e+00 -7.3523438e-06 0.0000000e+00 
0.0000000e+00 -3.6693725e-06 0.0000000e+00 
1.3626074e-08 -5.5166147e-06 0.0000000e+00 
9.4346682e-09 -3.1328445e-06 0.0000000e+00 
2.3758048e-08 -9.1863167e-06 0.0000000e+00 
3.7810690e-08 -1.0974672e-05 0.0000000e+00 
1.3310130e-08 -5.5644628e-06 0.0000000e+00 
2.9886017e-08 -7.2640023e-06 0.0000000e+00 
3.6952024e-08 -1.1524663e-05 0.0000000e+00 
1.3550254e-08 -3.6999554e-06 0.0000000e+00 
2.1822521e-08 -9.0425319e-06 0.0000000e+00 
2.6471945e-08 -7.2962439e-06 0.0000000e+00 
4.6344755e-09 -2.6915445e-06 0.0000000e+00 
2.3111808e-08 -1.2021713e-05 0.0000000e+00 
1.9563563e-08 -1.2121072e-05 0.0000000e+00 
6.2660712e-09 -2.6847622e-06 0.0000000e+00 
VELOCITY 3 30  float
0.0000000e+00 0.0000000e+00 0.0000000e+00 
0.0000000e+00 0.0000000e+00 0.0000000e+00 
0.0000000e+00 1.2402508e-05 0.0000000e+00 
0.0000000e+00 8.6015179e-06 0.0000000e+00 
0.0000000e+00 0.0000000e+00 0.0000000e+00 
0.0000000e+00 0.0000000e+00 0.0000000e+00 
0.0000000e+00 0.0000000e+00 0.0000000e+00 
0.0000000e+00 3.6206254e-06 0.0000000e+00 
0.0000000e+00 7.5440844e-06 0.0000000e+00 
0.0000000e+00 1.1057921e-05 0.0000000e+00 
2.7935955e-06 1.2969809e-05 0.0000000e+00 
4.1106296e-06 1.2523588e-05 0.0000000e+00 
2.6869109e-06 1.0550023e-05 0.0000000e+00 
0.0000000e+00 1.1070511e-05 0.0000000e+00 
0.0000000e+00 8.7048938e-06 0.0000000e+00 
0.0000000e+00 5.0578974e-06 0.0000000e+00 
1.4080448e-06 7.2702464e-06 0.0000000e+00 
7.7668193e-07 3.6508184e-06 0.0000000e+00 
2.1739031e-06 9.4598854e-06 0.0000000e+00 
4.1175117e-06 1.1066095e-05 0.0000000e+00 
1.2436593e-06 5.7875300e-06 0.0000000e+00 
2.9416954e-06 8.4386875e-06 0.0000000e+00 
3.9175420e-06 1.1568035e-05 0.0000000e+00 
1.1309876e-06 4.9150467e-06 0.0000000e+00 
2.0620062e-06 9.8725850e-06 0.0000000e+00 
2.7080916e-06 8.8486022e-06 0.0000000e+00 
3.7601629e-07 2.7642679e-06 0.0000000e+00 
2.7514982e-06 1.2187313e-05 0.0000000e+00 
2.7605656e-06 1.0706069e-05 0.0000000e+00 
5.3047734e-07 3.8050971e-06 0.0000000e+00 
CELL_DATA 42
FIELD FieldData 0
