# vtk DataFile Version 4.0
vtk output
ASCII
DATASET UNSTRUCTURED_GRID
POINTS 30 float
0.0000000e+00 0.0000000e+00 0.0000000e+00 
1.0000000e+00 0.0000000e+00 0.0000000e+00 
1.0000000e+00 1.0000000e+00 0.0000000e+00 
0.0000000e+00 1.0000000e+00 0.0000000e+00 
2.5000000e-01 0.0000000e+00 0.0000000e+00 
5.0000000e-01 0.0000000e+00 0.0000000e+00 
7.5000000e-01 0.0000000e+00 0.0000000e+00 
1.0000000e+00 2.5000000e-01 0.0000000e+00 
1.0000000e+00 5.0000000e-01 0.0000000e+00 
1.0000000e+00 7.5000000e-01 0.0000000e+00 
7.5000000e-01 1.0000000e+00 0.0000000e+00 
5.0000000e-01 1.0000000e+00 0.0000000e+00 
2.5000000e-01 1.0000000e+00 0.0000000e+00 
0.0000000e+00 7.5000000e-01 0.0000000e+00 
0.0000000e+00 5.0000000e-01 0.0000000e+00 
0.0000000e+00 2.5000000e-01 0.0000000e+00 
1.9194904e-01 3.7563103e-01 0.0000000e+00 
6.3590682e-01 2.1323122e-01 0.0000000e+00 
7.8895766e-01 6.2466627e-01 0.0000000e+00 
3.8539964e-01 7.4551302e-01 0.0000000e+00 
8.0207902e-01 3.7843281e-01 0.0000000e+00 
5.6919098e-01 4.9434972e-01 0.0000000e+00 
6.2870389e-01 7.8320098e-01 0.0000000e+00 
3.8600761e-01 2.5211850e-01 0.0000000e+00 
1.8872584e-01 6.1445600e-01 0.0000000e+00 
3.4425461e-01 4.9641365e-01 0.0000000e+00 
8.1698728e-01 1.8301271e-01 0.0000000e+00 
8.1698728e-01 8.1698728e-01 0.0000000e+00 
1.6482510e-01 8.2199383e-01 0.0000000e+00 
1.8301271e-01 1.8301271e-01 0.0000000e+00 

CELLS 42 168
3 21 22 19
3 21 23 17
3 19 25 21
3 21 25 23
3 18 22 21
3 20 21 17
3 23 25 16
3 9 18 8
3 12 19 11
3 15 16 14
3 6 17 5
3 24 25 19
3 5 23 4
3 8 20 7
3 14 24 13
3 11 22 10
3 18 21 20
3 18 20 8
3 16 24 14
3 19 22 11
3 17 23 5
3 2 27 9
3 3 28 12
3 0 29 15
3 1 26 6
3 10 27 2
3 13 28 3
3 4 29 0
3 7 26 1
3 23 29 4
3 20 26 7
3 22 27 10
3 24 28 13
3 9 27 18
3 6 26 17
3 12 28 19
3 15 29 16
3 16 29 23
3 18 27 22
3 19 28 24
3 17 26 20
3 16 25 24

CELL_TYPES 42
5
5
5
5
5
5
5
5
5
5
5
5
5
5
5
5
5
5
5
5
5
5
5
5
5
5
5
5
5
5
5
5
5
5
5
5
5
5
5
5
5
5
POINT_DATA 30
FIELD FieldData 2
DISPLACEMENT 3 30  float
0.0000000e+00 0.0000000e+00 0.0000000e+00 
0.0000000e+00 0.0000000e+00 0.0000000e+00 
0.0000000e+00 -1.4822837e-05 0.0000000e+00 
0.0000000e+00 -1.4835062e-05 0.0000000e+00 
0.0000000e+00 0.0000000e+00 0.0000000e+00 
0.0000000e+00 0.0000000e+00 0.0000000e+00 
0.0000000e+00 0.0000000e+00 0.0000000e+00 
0.0000000e+00 -3.7048089e-06 0.0000000e+00 
0.0000000e+00 -7.4092209e-06 0.0000000e+00 
0.0000000e+00 -1.1114545e-05 0.0000000e+00 
6.8926398e-09 -1.4824153e-05 0.0000000e+00 
8.9185495e-09 -1.4827068e-05 0.0000000e+00 
6.1378320e-09 -1.4831948e-05 0.0000000e+00 
0.0000000e+00 -1.1119130e-05 0.0000000e+00 
0.0000000e+00 -7.4080535e-06 0.0000000e+00 
0.0000000e+00 -3.7022498e-06 0.0000000e+00 
3.5238237e-09 -5.5636297e-06 0.0000000e+00 
2.3496660e-09 -3.1588072e-06 0.0000000e+00 
6.1350147e-09 -9.2562186e-06 0.0000000e+00 
9.9973034e-09 -1.1049216e-05 0.0000000e+00 
3.3864795e-09 -5.6073773e-06 0.0000000e+00 
7.6976017e-09 -7.3234778e-06 0.0000000e+00 
9.7323190e-09 -1.1606928e-05 0.0000000e+00 
3.4047427e-09 -3.7336508e-06 0.0000000e+00 
5.7094134e-09 -9.1058273e-06 0.0000000e+00 
6.8772414e-09 -7.3542510e-06 0.0000000e+00 
1.1504137e-09 -2.7118942e-06 0.0000000e+00 
6.1137055e-09 -1.2107794e-05 0.0000000e+00 
5.3131068e-09 -1.2187831e-05 0.0000000e+00 
1.5777695e-09 -2.7099074e-06 0.0000000e+00 
VELOCITY 3 30  float
0.0000000e+00 0.0000000e+00 0.0000000e+00 
0.0000000e+00 0.0000000e+00 0.0000000e+00 
0.0000000e+00 1.1609351e-05 0.0000000e+00 
0.0000000e+00 7.4418726e-06 0.0000000e+00 
0.0000000e+00 0.0000000e+00 0.0000000e+00 
0.0000000e+00 0.0000000e+00 0.0000000e+00 
0.0000000e+00 0.0000000e+00 0.0000000e+00 
0.0000000e+00 3.0793869e-06 0.0000000e+00 
0.0000000e+00 6.1726196e-06 0.0000000e+00 
0.0000000e+00 8.9662981e-06 0.0000000e+00 
2.2750612e-06 1.0560756e-05 0.0000000e+00 
2.6822379e-06 9.4006637e-06 0.0000000e+00 
1.9626818e-06 8.0122063e-06 0.0000000e+00 
0.0000000e+00 6.9650150e-06 0.0000000e+00 
0.0000000e+00 6.5118606e-06 0.0000000e+00 
0.0000000e+00 3.8007342e-06 0.0000000e+00 
1.0885294e-06 5.3825402e-06 0.0000000e+00 
7.8128545e-07 2.9313178e-06 0.0000000e+00 
2.0955151e-06 7.9285846e-06 0.0000000e+00 
3.1565589e-06 8.5920592e-06 0.0000000e+00 
1.0833132e-06 4.8605548e-06 0.0000000e+00 
2.4497981e-06 6.7309370e-06 0.0000000e+00 
3.1215350e-06 9.3623767e-06 0.0000000e+00 
1.1443570e-06 3.8582557e-06 0.0000000e+00 
1.9440429e-06 7.2988473e-06 0.0000000e+00 
2.1772114e-06 6.5830486e-06 0.0000000e+00 
3.7872016e-07 2.3001867e-06 0.0000000e+00 
1.7802654e-06 9.4689176e-06 0.0000000e+00 
1.3940434e-06 7.6568886e-06 0.0000000e+00 
5.2005697e-07 2.8763566e-06 0.0000000e+00 
CELL_DATA 42
FIELD FieldData 0
