# vtk DataFile Version 4.0
vtk output
ASCII
DATASET UNSTRUCTURED_GRID
POINTS 30 float
0.0000000e+00 0.0000000e+00 0.0000000e+00 
1.0000000e+00 0.0000000e+00 0.0000000e+00 
1.0000000e+00 1.0000000e+00 0.0000000e+00 
0.0000000e+00 1.0000000e+00 0.0000000e+00 
2.5000000e-01 0.0000000e+00 0.0000000e+00 
5.0000000e-01 0.0000000e+00 0.0000000e+00 
7.5000000e-01 0.0000000e+00 0.0000000e+00 
1.0000000e+00 2.5000000e-01 0.0000000e+00 
1.0000000e+00 5.0000000e-01 0.0000000e+00 
1.0000000e+00 7.5000000e-01 0.0000000e+00 
7.5000000e-01 1.0000000e+00 0.0000000e+00 
5.0000000e-01 1.0000000e+00 0.0000000e+00 
2.5000000e-01 1.0000000e+00 0.0000000e+00 
0.0000000e+00 7.5000000e-01 0.0000000e+00 
0.0000000e+00 5.0000000e-01 0.0000000e+00 
0.0000000e+00 2.5000000e-01 0.0000000e+00 
1.9194904e-01 3.7563103e-01 0.0000000e+00 
6.3590682e-01 2.1323122e-01 0.0000000e+00 
7.8895766e-01 6.2466627e-01 0.0000000e+00 
3.8539964e-01 7.4551302e-01 0.0000000e+00 
8.0207902e-01 3.7843281e-01 0.0000000e+00 
5.6919098e-01 4.9434972e-01 0.0000000e+00 
6.2870389e-01 7.8320098e-01 0.0000000e+00 
3.8600761e-01 2.5211850e-01 0.0000000e+00 
1.8872584e-01 6.1445600e-01 0.0000000e+00 
3.4425461e-01 4.9641365e-01 0.0000000e+00 
8.1698728e-01 1.8301271e-01 0.0000000e+00 
8.1698728e-01 8.1698728e-01 0.0000000e+00 
1.6482510e-01 8.2199383e-01 0.0000000e+00 
1.8301271e-01 1.8301271e-01 0.0000000e+00 

CELLS 42 168
3 21 22 19
3 21 23 17
3 19 25 21
3 21 25 23
3 18 22 21
3 20 21 17
3 23 25 16
3 9 18 8
3 12 19 11
3 15 16 14
3 6 17 5
3 24 25 19
3 5 23 4
3 8 20 7
3 14 24 13
3 11 22 10
3 18 21 20
3 18 20 8
3 16 24 14
3 19 22 11
3 17 23 5
3 2 27 9
3 3 28 12
3 0 29 15
3 1 26 6
3 10 27 2
3 13 28 3
3 4 29 0
3 7 26 1
3 23 29 4
3 20 26 7
3 22 27 10
3 24 28 13
3 9 27 18
3 6 26 17
3 12 28 19
3 15 29 16
3 16 29 23
3 18 27 22
3 19 28 24
3 17 26 20
3 16 25 24

CELL_TYPES 42
5
5
5
5
5
5
5
5
5
5
5
5
5
5
5
5
5
5
5
5
5
5
5
5
5
5
5
5
5
5
5
5
5
5
5
5
5
5
5
5
5
5
POINT_DATA 30
FIELD FieldData 2
DISPLACEMENT 3 30  float
0.0000000e+00 0.0000000e+00 0.0000000e+00 
0.0000000e+00 0.0000000e+00 0.0000000e+00 
0.0000000e+00 -1.4852359e-05 0.0000000e+00 
0.0000000e+00 -1.4853883e-05 0.0000000e+00 
0.0000000e+00 0.0000000e+00 0.0000000e+00 
0.0000000e+00 0.0000000e+00 0.0000000e+00 
0.0000000e+00 0.0000000e+00 0.0000000e+00 
0.0000000e+00 -3.7129792e-06 0.0000000e+00 
0.0000000e+00 -7.4259187e-06 0.0000000e+00 
0.0000000e+00 -1.1138968e-05 0.0000000e+00 
1.0122250e-09 -1.4852552e-05 0.0000000e+00 
1.2978298e-09 -1.4852906e-05 0.0000000e+00 
9.1608898e-10 -1.4853511e-05 0.0000000e+00 
0.0000000e+00 -1.1139467e-05 0.0000000e+00 
0.0000000e+00 -7.4256054e-06 0.0000000e+00 
0.0000000e+00 -3.7125542e-06 0.0000000e+00 
4.7757082e-10 -5.5783471e-06 0.0000000e+00 
3.0523203e-10 -3.1667266e-06 0.0000000e+00 
8.5564944e-10 -9.2773616e-06 0.0000000e+00 
1.4126462e-09 -1.1072348e-05 0.0000000e+00 
4.5250514e-10 -5.6203498e-06 0.0000000e+00 
1.0478972e-09 -7.3416668e-06 0.0000000e+00 
1.3733856e-09 -1.1632044e-05 0.0000000e+00 
4.5309886e-10 -3.7440489e-06 0.0000000e+00 
8.1643592e-10 -9.1257170e-06 0.0000000e+00 
9.4579744e-10 -7.3723036e-06 0.0000000e+00 
1.4879149e-10 -2.7180558e-06 0.0000000e+00 
8.4328716e-10 -1.2133928e-05 0.0000000e+00 
7.3460110e-10 -1.2208927e-05 0.0000000e+00 
2.0970860e-10 -2.7177430e-06 0.0000000e+00 
VELOCITY 3 30  float
0.0000000e+00 0.0000000e+00 0.0000000e+00 
0.0000000e+00 0.0000000e+00 0.0000000e+00 
0.0000000e+00 5.4949919e-06 0.0000000e+00 
0.0000000e+00 3.2396774e-06 0.0000000e+00 
0.0000000e+00 0.0000000e+00 0.0000000e+00 
0.0000000e+00 0.0000000e+00 0.0000000e+00 
0.0000000e+00 0.0000000e+00 0.0000000e+00 
0.0000000e+00 1.5938131e-06 0.0000000e+00 
0.0000000e+00 3.3254723e-06 0.0000000e+00 
0.0000000e+00 4.9411660e-06 0.0000000e+00 
1.0275356e-06 5.5637911e-06 0.0000000e+00 
1.4341069e-06 5.0191006e-06 0.0000000e+00 
9.0524668e-07 3.9931438e-06 0.0000000e+00 
0.0000000e+00 3.9754300e-06 0.0000000e+00 
0.0000000e+00 3.2149273e-06 0.0000000e+00 
0.0000000e+00 1.9320630e-06 0.0000000e+00 
6.3005996e-07 2.7807926e-06 0.0000000e+00 
4.2629952e-07 1.5469858e-06 0.0000000e+00 
9.7703287e-07 4.1335525e-06 0.0000000e+00 
1.6509034e-06 4.3661594e-06 0.0000000e+00 
6.1267798e-07 2.5481133e-06 0.0000000e+00 
1.3505020e-06 3.5434080e-06 0.0000000e+00 
1.5917711e-06 4.8592792e-06 0.0000000e+00 
5.9856882e-07 1.9836134e-06 0.0000000e+00 
8.9169623e-07 3.7242330e-06 0.0000000e+00 
1.1822041e-06 3.4526379e-06 0.0000000e+00 
2.1581299e-07 1.2144138e-06 0.0000000e+00 
1.0982592e-06 5.2876817e-06 0.0000000e+00 
9.7779161e-07 3.9544243e-06 0.0000000e+00 
2.8183112e-07 1.4886666e-06 0.0000000e+00 
CELL_DATA 42
FIELD FieldData 0
