# vtk DataFile Version 4.0
vtk output
ASCII
DATASET UNSTRUCTURED_GRID
POINTS 30 float
0.0000000e+00 0.0000000e+00 0.0000000e+00 
1.0000000e+00 0.0000000e+00 0.0000000e+00 
1.0000000e+00 1.0000000e+00 0.0000000e+00 
0.0000000e+00 1.0000000e+00 0.0000000e+00 
2.5000000e-01 0.0000000e+00 0.0000000e+00 
5.0000000e-01 0.0000000e+00 0.0000000e+00 
7.5000000e-01 0.0000000e+00 0.0000000e+00 
1.0000000e+00 2.5000000e-01 0.0000000e+00 
1.0000000e+00 5.0000000e-01 0.0000000e+00 
1.0000000e+00 7.5000000e-01 0.0000000e+00 
7.5000000e-01 1.0000000e+00 0.0000000e+00 
5.0000000e-01 1.0000000e+00 0.0000000e+00 
2.5000000e-01 1.0000000e+00 0.0000000e+00 
0.0000000e+00 7.5000000e-01 0.0000000e+00 
0.0000000e+00 5.0000000e-01 0.0000000e+00 
0.0000000e+00 2.5000000e-01 0.0000000e+00 
1.9194904e-01 3.7563103e-01 0.0000000e+00 
6.3590682e-01 2.1323122e-01 0.0000000e+00 
7.8895766e-01 6.2466627e-01 0.0000000e+00 
3.8539964e-01 7.4551302e-01 0.0000000e+00 
8.0207902e-01 3.7843281e-01 0.0000000e+00 
5.6919098e-01 4.9434972e-01 0.0000000e+00 
6.2870389e-01 7.8320098e-01 0.0000000e+00 
3.8600761e-01 2.5211850e-01 0.0000000e+00 
1.8872584e-01 6.1445600e-01 0.0000000e+00 
3.4425461e-01 4.9641365e-01 0.0000000e+00 
8.1698728e-01 1.8301271e-01 0.0000000e+00 
8.1698728e-01 8.1698728e-01 0.0000000e+00 
1.6482510e-01 8.2199383e-01 0.0000000e+00 
1.8301271e-01 1.8301271e-01 0.0000000e+00 

CELLS 42 168
3 21 22 19
3 21 23 17
3 19 25 21
3 21 25 23
3 18 22 21
3 20 21 17
3 23 25 16
3 9 18 8
3 12 19 11
3 15 16 14
3 6 17 5
3 24 25 19
3 5 23 4
3 8 20 7
3 14 24 13
3 11 22 10
3 18 21 20
3 18 20 8
3 16 24 14
3 19 22 11
3 17 23 5
3 2 27 9
3 3 28 12
3 0 29 15
3 1 26 6
3 10 27 2
3 13 28 3
3 4 29 0
3 7 26 1
3 23 29 4
3 20 26 7
3 22 27 10
3 24 28 13
3 9 27 18
3 6 26 17
3 12 28 19
3 15 29 16
3 16 29 23
3 18 27 22
3 19 28 24
3 17 26 20
3 16 25 24

CELL_TYPES 42
5
5
5
5
5
5
5
5
5
5
5
5
5
5
5
5
5
5
5
5
5
5
5
5
5
5
5
5
5
5
5
5
5
5
5
5
5
5
5
5
5
5
POINT_DATA 30
FIELD FieldData 2
DISPLACEMENT 3 30  float
0.0000000e+00 0.0000000e+00 0.0000000e+00 
0.0000000e+00 0.0000000e+00 0.0000000e+00 
0.0000000e+00 -1.4725075e-05 0.0000000e+00 
0.0000000e+00 -1.4795417e-05 0.0000000e+00 
0.0000000e+00 0.0000000e+00 0.0000000e+00 
0.0000000e+00 0.0000000e+00 0.0000000e+00 
0.0000000e+00 0.0000000e+00 0.0000000e+00 
0.0000000e+00 -3.6777149e-06 0.0000000e+00 
0.0000000e+00 -7.3533224e-06 0.0000000e+00 
0.0000000e+00 -1.1033142e-05 0.0000000e+00 
1.9788425e-08 -1.4735494e-05 0.0000000e+00 
2.3406860e-08 -1.4756110e-05 0.0000000e+00 
1.4454923e-08 -1.4781920e-05 0.0000000e+00 
0.0000000e+00 -1.1076737e-05 0.0000000e+00 
0.0000000e+00 -7.3690298e-06 0.0000000e+00 
0.0000000e+00 -3.6781091e-06 0.0000000e+00 
1.4051316e-08 -5.5281521e-06 0.0000000e+00 
1.1557868e-08 -3.1345767e-06 0.0000000e+00 
2.3879652e-08 -9.1874545e-06 0.0000000e+00 
3.3719722e-08 -1.0989265e-05 0.0000000e+00 
1.4771769e-08 -5.5650353e-06 0.0000000e+00 
3.1113196e-08 -7.2693229e-06 0.0000000e+00 
3.3639605e-08 -1.1531270e-05 0.0000000e+00 
1.5781159e-08 -3.7051263e-06 0.0000000e+00 
2.0066411e-08 -9.0601416e-06 0.0000000e+00 
2.6375378e-08 -7.3077199e-06 0.0000000e+00 
5.7382823e-09 -2.6920486e-06 0.0000000e+00 
2.1225741e-08 -1.2023407e-05 0.0000000e+00 
1.5664897e-08 -1.2141596e-05 0.0000000e+00 
7.2287762e-09 -2.6902610e-06 0.0000000e+00 
VELOCITY 3 30  float
0.0000000e+00 0.0000000e+00 0.0000000e+00 
0.0000000e+00 0.0000000e+00 0.0000000e+00 
0.0000000e+00 1.1739887e-04 0.0000000e+00 
0.0000000e+00 6.7773632e-05 0.0000000e+00 
0.0000000e+00 0.0000000e+00 0.0000000e+00 
0.0000000e+00 0.0000000e+00 0.0000000e+00 
0.0000000e+00 0.0000000e+00 0.0000000e+00 
0.0000000e+00 3.3056018e-05 0.0000000e+00 
0.0000000e+00 6.7784917e-05 0.0000000e+00 
0.0000000e+00 9.8575525e-05 0.0000000e+00 
2.1127742e-05 1.1224630e-04 0.0000000e+00 
2.7707665e-05 9.9619530e-05 0.0000000e+00 
1.8541356e-05 8.0667502e-05 0.0000000e+00 
0.0000000e+00 7.6920631e-05 0.0000000e+00 
0.0000000e+00 6.5445798e-05 0.0000000e+00 
0.0000000e+00 3.8545069e-05 0.0000000e+00 
1.2241299e-05 5.5381010e-05 0.0000000e+00 
8.8447114e-06 3.1191725e-05 0.0000000e+00 
2.0932304e-05 8.4594656e-05 0.0000000e+00 
3.2895972e-05 8.7583729e-05 0.0000000e+00 
1.2239132e-05 5.1996951e-05 0.0000000e+00 
2.6838763e-05 7.0968985e-05 0.0000000e+00 
3.2290787e-05 9.8325370e-05 0.0000000e+00 
1.2287904e-05 3.9917792e-05 0.0000000e+00 
1.8393050e-05 7.4309763e-05 0.0000000e+00 
2.3499897e-05 6.8784146e-05 0.0000000e+00 
4.3745185e-06 2.4624196e-05 0.0000000e+00 
2.0969652e-05 1.0508211e-04 0.0000000e+00 
1.8133591e-05 7.8807025e-05 0.0000000e+00 
5.5634805e-06 2.9525312e-05 0.0000000e+00 
CELL_DATA 42
FIELD FieldData 0
