# vtk DataFile Version 4.0
vtk output
ASCII
DATASET UNSTRUCTURED_GRID
POINTS 30 float
0.0000000e+00 0.0000000e+00 0.0000000e+00 
1.0000000e+00 0.0000000e+00 0.0000000e+00 
1.0000000e+00 1.0000000e+00 0.0000000e+00 
0.0000000e+00 1.0000000e+00 0.0000000e+00 
2.5000000e-01 0.0000000e+00 0.0000000e+00 
5.0000000e-01 0.0000000e+00 0.0000000e+00 
7.5000000e-01 0.0000000e+00 0.0000000e+00 
1.0000000e+00 2.5000000e-01 0.0000000e+00 
1.0000000e+00 5.0000000e-01 0.0000000e+00 
1.0000000e+00 7.5000000e-01 0.0000000e+00 
7.5000000e-01 1.0000000e+00 0.0000000e+00 
5.0000000e-01 1.0000000e+00 0.0000000e+00 
2.5000000e-01 1.0000000e+00 0.0000000e+00 
0.0000000e+00 7.5000000e-01 0.0000000e+00 
0.0000000e+00 5.0000000e-01 0.0000000e+00 
0.0000000e+00 2.5000000e-01 0.0000000e+00 
1.9194904e-01 3.7563103e-01 0.0000000e+00 
6.3590682e-01 2.1323122e-01 0.0000000e+00 
7.8895766e-01 6.2466627e-01 0.0000000e+00 
3.8539964e-01 7.4551302e-01 0.0000000e+00 
8.0207902e-01 3.7843281e-01 0.0000000e+00 
5.6919098e-01 4.9434972e-01 0.0000000e+00 
6.2870389e-01 7.8320098e-01 0.0000000e+00 
3.8600761e-01 2.5211850e-01 0.0000000e+00 
1.8872584e-01 6.1445600e-01 0.0000000e+00 
3.4425461e-01 4.9641365e-01 0.0000000e+00 
8.1698728e-01 1.8301271e-01 0.0000000e+00 
8.1698728e-01 8.1698728e-01 0.0000000e+00 
1.6482510e-01 8.2199383e-01 0.0000000e+00 
1.8301271e-01 1.8301271e-01 0.0000000e+00 

CELLS 42 168
3 21 22 19
3 21 23 17
3 19 25 21
3 21 25 23
3 18 22 21
3 20 21 17
3 23 25 16
3 9 18 8
3 12 19 11
3 15 16 14
3 6 17 5
3 24 25 19
3 5 23 4
3 8 20 7
3 14 24 13
3 11 22 10
3 18 21 20
3 18 20 8
3 16 24 14
3 19 22 11
3 17 23 5
3 2 27 9
3 3 28 12
3 0 29 15
3 1 26 6
3 10 27 2
3 13 28 3
3 4 29 0
3 7 26 1
3 23 29 4
3 20 26 7
3 22 27 10
3 24 28 13
3 9 27 18
3 6 26 17
3 12 28 19
3 15 29 16
3 16 29 23
3 18 27 22
3 19 28 24
3 17 26 20
3 16 25 24

CELL_TYPES 42
5
5
5
5
5
5
5
5
5
5
5
5
5
5
5
5
5
5
5
5
5
5
5
5
5
5
5
5
5
5
5
5
5
5
5
5
5
5
5
5
5
5
POINT_DATA 30
FIELD FieldData 2
DISPLACEMENT 3 30  float
0.0000000e+00 0.0000000e+00 0.0000000e+00 
0.0000000e+00 0.0000000e+00 0.0000000e+00 
0.0000000e+00 -1.4858507e-05 0.0000000e+00 
0.0000000e+00 -1.4857980e-05 0.0000000e+00 
0.0000000e+00 0.0000000e+00 0.0000000e+00 
0.0000000e+00 0.0000000e+00 0.0000000e+00 
0.0000000e+00 0.0000000e+00 0.0000000e+00 
0.0000000e+00 -3.7146647e-06 0.0000000e+00 
0.0000000e+00 -7.4293480e-06 0.0000000e+00 
0.0000000e+00 -1.1143996e-05 0.0000000e+00 
-2.6141589e-10 -1.4858454e-05 0.0000000e+00 
-3.3729533e-10 -1.4858320e-05 0.0000000e+00 
-2.2822606e-10 -1.4858111e-05 0.0000000e+00 
0.0000000e+00 -1.1143766e-05 0.0000000e+00 
0.0000000e+00 -7.4293557e-06 0.0000000e+00 
0.0000000e+00 -3.7147493e-06 0.0000000e+00 
-1.4233828e-10 -5.5814671e-06 0.0000000e+00 
-9.8680925e-11 -3.1683712e-06 0.0000000e+00 
-2.4419383e-10 -9.2817354e-06 0.0000000e+00 
-3.9097911e-10 -1.1077241e-05 0.0000000e+00 
-1.3936494e-10 -5.6230324e-06 0.0000000e+00 
-3.1136335e-10 -7.3454603e-06 0.0000000e+00 
-3.8148931e-10 -1.1637283e-05 0.0000000e+00 
-1.4103557e-10 -3.7462339e-06 0.0000000e+00 
-2.2387396e-10 -9.1299535e-06 0.0000000e+00 
-2.7499042e-10 -7.3761062e-06 0.0000000e+00 
-4.8806122e-11 -2.7193316e-06 0.0000000e+00 
-2.4206911e-10 -1.2139310e-05 0.0000000e+00 
-2.0607115e-10 -1.2213423e-05 0.0000000e+00 
-6.5282314e-11 -2.7194001e-06 0.0000000e+00 
VELOCITY 3 30  float
0.0000000e+00 0.0000000e+00 0.0000000e+00 
0.0000000e+00 0.0000000e+00 0.0000000e+00 
0.0000000e+00 -2.7565440e-07 0.0000000e+00 
0.0000000e+00 -1.5551890e-07 0.0000000e+00 
0.0000000e+00 0.0000000e+00 0.0000000e+00 
0.0000000e+00 0.0000000e+00 0.0000000e+00 
0.0000000e+00 0.0000000e+00 0.0000000e+00 
0.0000000e+00 -5.5758886e-08 0.0000000e+00 
0.0000000e+00 -1.0517877e-07 0.0000000e+00 
0.0000000e+00 -1.0047187e-07 0.0000000e+00 
-5.1227332e-08 -1.6143761e-07 0.0000000e+00 
-3.8183668e-08 -1.4118095e-07 0.0000000e+00 
-3.7284146e-08 -1.3734767e-07 0.0000000e+00 
0.0000000e+00 -8.0942129e-08 0.0000000e+00 
0.0000000e+00 -1.2492451e-07 0.0000000e+00 
0.0000000e+00 -5.5880207e-08 0.0000000e+00 
-1.2718986e-08 -8.6985757e-08 0.0000000e+00 
-1.4676155e-08 -4.8607941e-08 0.0000000e+00 
-5.0549655e-08 -1.3779753e-07 0.0000000e+00 
-5.0580599e-08 -1.4255366e-07 0.0000000e+00 
-1.1472731e-08 -7.7684341e-08 0.0000000e+00 
-3.3748890e-08 -1.0376259e-07 0.0000000e+00 
-5.5600506e-08 -1.5622796e-07 0.0000000e+00 
-1.9350500e-08 -6.3977964e-08 0.0000000e+00 
-3.7082991e-08 -1.1608183e-07 0.0000000e+00 
-3.4736253e-08 -1.0673409e-07 0.0000000e+00 
-4.5980291e-09 -3.4459255e-08 0.0000000e+00 
-1.4190605e-08 -1.1539738e-07 0.0000000e+00 
-8.4051557e-09 -1.2260034e-07 0.0000000e+00 
-9.2531502e-09 -4.5919837e-08 0.0000000e+00 
CELL_DATA 42
FIELD FieldData 0
