# vtk DataFile Version 4.0
vtk output
ASCII
DATASET UNSTRUCTURED_GRID
POINTS 30 float
0.0000000e+00 0.0000000e+00 0.0000000e+00 
1.0000000e+00 0.0000000e+00 0.0000000e+00 
1.0000000e+00 1.0000000e+00 0.0000000e+00 
0.0000000e+00 1.0000000e+00 0.0000000e+00 
2.5000000e-01 0.0000000e+00 0.0000000e+00 
5.0000000e-01 0.0000000e+00 0.0000000e+00 
7.5000000e-01 0.0000000e+00 0.0000000e+00 
1.0000000e+00 2.5000000e-01 0.0000000e+00 
1.0000000e+00 5.0000000e-01 0.0000000e+00 
1.0000000e+00 7.5000000e-01 0.0000000e+00 
7.5000000e-01 1.0000000e+00 0.0000000e+00 
5.0000000e-01 1.0000000e+00 0.0000000e+00 
2.5000000e-01 1.0000000e+00 0.0000000e+00 
0.0000000e+00 7.5000000e-01 0.0000000e+00 
0.0000000e+00 5.0000000e-01 0.0000000e+00 
0.0000000e+00 2.5000000e-01 0.0000000e+00 
1.9194904e-01 3.7563103e-01 0.0000000e+00 
6.3590682e-01 2.1323122e-01 0.0000000e+00 
7.8895766e-01 6.2466627e-01 0.0000000e+00 
3.8539964e-01 7.4551302e-01 0.0000000e+00 
8.0207902e-01 3.7843281e-01 0.0000000e+00 
5.6919098e-01 4.9434972e-01 0.0000000e+00 
6.2870389e-01 7.8320098e-01 0.0000000e+00 
3.8600761e-01 2.5211850e-01 0.0000000e+00 
1.8872584e-01 6.1445600e-01 0.0000000e+00 
3.4425461e-01 4.9641365e-01 0.0000000e+00 
8.1698728e-01 1.8301271e-01 0.0000000e+00 
8.1698728e-01 8.1698728e-01 0.0000000e+00 
1.6482510e-01 8.2199383e-01 0.0000000e+00 
1.8301271e-01 1.8301271e-01 0.0000000e+00 

CELLS 42 168
3 21 22 19
3 21 23 17
3 19 25 21
3 21 25 23
3 18 22 21
3 20 21 17
3 23 25 16
3 9 18 8
3 12 19 11
3 15 16 14
3 6 17 5
3 24 25 19
3 5 23 4
3 8 20 7
3 14 24 13
3 11 22 10
3 18 21 20
3 18 20 8
3 16 24 14
3 19 22 11
3 17 23 5
3 2 27 9
3 3 28 12
3 0 29 15
3 1 26 6
3 10 27 2
3 13 28 3
3 4 29 0
3 7 26 1
3 23 29 4
3 20 26 7
3 22 27 10
3 24 28 13
3 9 27 18
3 6 26 17
3 12 28 19
3 15 29 16
3 16 29 23
3 18 27 22
3 19 28 24
3 17 26 20
3 16 25 24

CELL_TYPES 42
5
5
5
5
5
5
5
5
5
5
5
5
5
5
5
5
5
5
5
5
5
5
5
5
5
5
5
5
5
5
5
5
5
5
5
5
5
5
5
5
5
5
POINT_DATA 30
FIELD FieldData 2
DISPLACEMENT 3 30  float
0.0000000e+00 0.0000000e+00 0.0000000e+00 
0.0000000e+00 0.0000000e+00 0.0000000e+00 
0.0000000e+00 -1.5446449e-05 0.0000000e+00 
0.0000000e+00 -1.4878471e-05 0.0000000e+00 
0.0000000e+00 0.0000000e+00 0.0000000e+00 
0.0000000e+00 0.0000000e+00 0.0000000e+00 
0.0000000e+00 0.0000000e+00 0.0000000e+00 
0.0000000e+00 -3.8666467e-06 0.0000000e+00 
0.0000000e+00 -7.7603527e-06 0.0000000e+00 
0.0000000e+00 -1.1637074e-05 0.0000000e+00 
-4.5353481e-08 -1.5384789e-05 0.0000000e+00 
-1.3422709e-08 -1.5218851e-05 0.0000000e+00 
3.8105103e-08 -1.4978493e-05 0.0000000e+00 
0.0000000e+00 -1.1166926e-05 0.0000000e+00 
0.0000000e+00 -7.4790951e-06 0.0000000e+00 
0.0000000e+00 -3.7754403e-06 0.0000000e+00 
-9.7081092e-08 -5.6975914e-06 0.0000000e+00 
-8.6756387e-08 -3.3108097e-06 0.0000000e+00 
-1.1642525e-07 -9.6954864e-06 0.0000000e+00 
-1.1703861e-07 -1.1334900e-05 0.0000000e+00 
-8.7151690e-08 -5.8695928e-06 0.0000000e+00 
-1.8771993e-07 -7.6683364e-06 0.0000000e+00 
-1.2609277e-07 -1.2075938e-05 0.0000000e+00 
-1.3387657e-07 -3.9064535e-06 0.0000000e+00 
-7.5025575e-08 -9.2270302e-06 0.0000000e+00 
-1.5201260e-07 -7.5863968e-06 0.0000000e+00 
-3.8645268e-08 -2.8293805e-06 0.0000000e+00 
-7.8801868e-08 -1.2646693e-05 0.0000000e+00 
-2.1550942e-08 -1.2278429e-05 0.0000000e+00 
-6.4676030e-08 -2.7999845e-06 0.0000000e+00 
VELOCITY 3 30  float
0.0000000e+00 0.0000000e+00 0.0000000e+00 
0.0000000e+00 0.0000000e+00 0.0000000e+00 
0.0000000e+00 9.1775198e-04 0.0000000e+00 
0.0000000e+00 6.3250831e-04 0.0000000e+00 
0.0000000e+00 0.0000000e+00 0.0000000e+00 
0.0000000e+00 0.0000000e+00 0.0000000e+00 
0.0000000e+00 0.0000000e+00 0.0000000e+00 
0.0000000e+00 2.3643374e-04 0.0000000e+00 
0.0000000e+00 4.9751083e-04 0.0000000e+00 
0.0000000e+00 7.4660045e-04 0.0000000e+00 
2.3011431e-04 9.3397486e-04 0.0000000e+00 
2.7893562e-04 9.1600145e-04 0.0000000e+00 
1.5566262e-04 7.2034524e-04 0.0000000e+00 
0.0000000e+00 6.4793869e-04 0.0000000e+00 
0.0000000e+00 5.9057266e-04 0.0000000e+00 
0.0000000e+00 3.7205932e-04 0.0000000e+00 
1.4221635e-04 5.3597090e-04 0.0000000e+00 
6.7316134e-05 2.6912944e-04 0.0000000e+00 
1.7807253e-04 6.6914730e-04 0.0000000e+00 
3.1010679e-04 8.3263585e-04 0.0000000e+00 
9.6746553e-05 3.9950875e-04 0.0000000e+00 
2.5871114e-04 6.4784422e-04 0.0000000e+00 
2.8856445e-04 8.6080708e-04 0.0000000e+00 
1.2633421e-04 3.8916731e-04 0.0000000e+00 
1.8887855e-04 6.8011362e-04 0.0000000e+00 
2.5120436e-04 6.6620129e-04 0.0000000e+00 
2.7281289e-05 1.8713906e-04 0.0000000e+00 
1.6926161e-04 8.2034012e-04 0.0000000e+00 
1.3726350e-04 6.9246761e-04 0.0000000e+00 
6.3159452e-05 2.9237737e-04 0.0000000e+00 
CELL_DATA 42
FIELD FieldData 0
