# vtk DataFile Version 4.0
vtk output
ASCII
DATASET UNSTRUCTURED_GRID
POINTS 30 float
0.0000000e+00 0.0000000e+00 0.0000000e+00 
1.0000000e+00 0.0000000e+00 0.0000000e+00 
1.0000000e+00 1.0000000e+00 0.0000000e+00 
0.0000000e+00 1.0000000e+00 0.0000000e+00 
2.5000000e-01 0.0000000e+00 0.0000000e+00 
5.0000000e-01 0.0000000e+00 0.0000000e+00 
7.5000000e-01 0.0000000e+00 0.0000000e+00 
1.0000000e+00 2.5000000e-01 0.0000000e+00 
1.0000000e+00 5.0000000e-01 0.0000000e+00 
1.0000000e+00 7.5000000e-01 0.0000000e+00 
7.5000000e-01 1.0000000e+00 0.0000000e+00 
5.0000000e-01 1.0000000e+00 0.0000000e+00 
2.5000000e-01 1.0000000e+00 0.0000000e+00 
0.0000000e+00 7.5000000e-01 0.0000000e+00 
0.0000000e+00 5.0000000e-01 0.0000000e+00 
0.0000000e+00 2.5000000e-01 0.0000000e+00 
1.9194904e-01 3.7563103e-01 0.0000000e+00 
6.3590682e-01 2.1323122e-01 0.0000000e+00 
7.8895766e-01 6.2466627e-01 0.0000000e+00 
3.8539964e-01 7.4551302e-01 0.0000000e+00 
8.0207902e-01 3.7843281e-01 0.0000000e+00 
5.6919098e-01 4.9434972e-01 0.0000000e+00 
6.2870389e-01 7.8320098e-01 0.0000000e+00 
3.8600761e-01 2.5211850e-01 0.0000000e+00 
1.8872584e-01 6.1445600e-01 0.0000000e+00 
3.4425461e-01 4.9641365e-01 0.0000000e+00 
8.1698728e-01 1.8301271e-01 0.0000000e+00 
8.1698728e-01 8.1698728e-01 0.0000000e+00 
1.6482510e-01 8.2199383e-01 0.0000000e+00 
1.8301271e-01 1.8301271e-01 0.0000000e+00 

CELLS 42 168
3 21 22 19
3 21 23 17
3 19 25 21
3 21 25 23
3 18 22 21
3 20 21 17
3 23 25 16
3 9 18 8
3 12 19 11
3 15 16 14
3 6 17 5
3 24 25 19
3 5 23 4
3 8 20 7
3 14 24 13
3 11 22 10
3 18 21 20
3 18 20 8
3 16 24 14
3 19 22 11
3 17 23 5
3 2 27 9
3 3 28 12
3 0 29 15
3 1 26 6
3 10 27 2
3 13 28 3
3 4 29 0
3 7 26 1
3 23 29 4
3 20 26 7
3 22 27 10
3 24 28 13
3 9 27 18
3 6 26 17
3 12 28 19
3 15 29 16
3 16 29 23
3 18 27 22
3 19 28 24
3 17 26 20
3 16 25 24

CELL_TYPES 42
5
5
5
5
5
5
5
5
5
5
5
5
5
5
5
5
5
5
5
5
5
5
5
5
5
5
5
5
5
5
5
5
5
5
5
5
5
5
5
5
5
5
POINT_DATA 30
FIELD FieldData 2
DISPLACEMENT 3 30  float
0.0000000e+00 0.0000000e+00 0.0000000e+00 
0.0000000e+00 0.0000000e+00 0.0000000e+00 
0.0000000e+00 -1.4855540e-05 0.0000000e+00 
0.0000000e+00 -1.4856176e-05 0.0000000e+00 
0.0000000e+00 0.0000000e+00 0.0000000e+00 
0.0000000e+00 0.0000000e+00 0.0000000e+00 
0.0000000e+00 0.0000000e+00 0.0000000e+00 
0.0000000e+00 -3.7138395e-06 0.0000000e+00 
0.0000000e+00 -7.4276563e-06 0.0000000e+00 
0.0000000e+00 -1.1141517e-05 0.0000000e+00 
3.0219377e-10 -1.4855605e-05 0.0000000e+00 
3.8950926e-10 -1.4855767e-05 0.0000000e+00 
2.6191160e-10 -1.4856019e-05 0.0000000e+00 
0.0000000e+00 -1.1141803e-05 0.0000000e+00 
0.0000000e+00 -7.4276622e-06 0.0000000e+00 
0.0000000e+00 -3.7137474e-06 0.0000000e+00 
1.6799004e-10 -5.5800333e-06 0.0000000e+00 
1.1799015e-10 -3.1675788e-06 0.0000000e+00 
2.8709299e-10 -9.2796045e-06 0.0000000e+00 
4.5657800e-10 -1.1074972e-05 0.0000000e+00 
1.6529328e-10 -5.6217227e-06 0.0000000e+00 
3.6751582e-10 -7.3436454e-06 0.0000000e+00 
4.4592829e-10 -1.1634776e-05 0.0000000e+00 
1.6772578e-10 -3.7452076e-06 0.0000000e+00 
2.6135016e-10 -9.1280244e-06 0.0000000e+00 
3.2360348e-10 -7.3743358e-06 0.0000000e+00 
5.8406134e-11 -2.7187100e-06 0.0000000e+00 
2.8382452e-10 -1.2136670e-05 0.0000000e+00 
2.4050328e-10 -1.2211385e-05 0.0000000e+00 
7.7651677e-11 -2.7186334e-06 0.0000000e+00 
VELOCITY 3 30  float
0.0000000e+00 0.0000000e+00 0.0000000e+00 
0.0000000e+00 0.0000000e+00 0.0000000e+00 
0.0000000e+00 6.9225331e-07 0.0000000e+00 
0.0000000e+00 4.1518499e-07 0.0000000e+00 
0.0000000e+00 0.0000000e+00 0.0000000e+00 
0.0000000e+00 0.0000000e+00 0.0000000e+00 
0.0000000e+00 0.0000000e+00 0.0000000e+00 
0.0000000e+00 1.6485272e-07 0.0000000e+00 
0.0000000e+00 3.2158434e-07 0.0000000e+00 
0.0000000e+00 4.0847621e-07 0.0000000e+00 
1.3140802e-07 5.2858888e-07 0.0000000e+00 
1.3023252e-07 4.6704272e-07 0.0000000e+00 
1.0563983e-07 4.1601945e-07 0.0000000e+00 
0.0000000e+00 3.1985289e-07 0.0000000e+00 
0.0000000e+00 3.5325144e-07 0.0000000e+00 
0.0000000e+00 1.8691605e-07 0.0000000e+00 
5.0399585e-08 2.7375353e-07 0.0000000e+00 
4.2559979e-08 1.5109032e-07 0.0000000e+00 
1.2590660e-07 4.1615988e-07 0.0000000e+00 
1.6033592e-07 4.4116442e-07 0.0000000e+00 
4.8869467e-08 2.4764779e-07 0.0000000e+00 
1.1868389e-07 3.3750914e-07 0.0000000e+00 
1.6509171e-07 4.8335608e-07 0.0000000e+00 
5.9725394e-08 1.9857006e-07 0.0000000e+00 
1.0481982e-07 3.6856997e-07 0.0000000e+00 
1.1088171e-07 3.3590825e-07 0.0000000e+00 
1.7555553e-08 1.1427254e-07 0.0000000e+00 
7.4602795e-08 4.4173910e-07 0.0000000e+00 
5.5873610e-08 3.8764651e-07 0.0000000e+00 
2.7382363e-08 1.4544426e-07 0.0000000e+00 
CELL_DATA 42
FIELD FieldData 0
