# vtk DataFile Version 4.0
vtk output
ASCII
DATASET UNSTRUCTURED_GRID
POINTS 30 float
0.0000000e+00 0.0000000e+00 0.0000000e+00 
1.0000000e+00 0.0000000e+00 0.0000000e+00 
1.0000000e+00 1.0000000e+00 0.0000000e+00 
0.0000000e+00 1.0000000e+00 0.0000000e+00 
2.5000000e-01 0.0000000e+00 0.0000000e+00 
5.0000000e-01 0.0000000e+00 0.0000000e+00 
7.5000000e-01 0.0000000e+00 0.0000000e+00 
1.0000000e+00 2.5000000e-01 0.0000000e+00 
1.0000000e+00 5.0000000e-01 0.0000000e+00 
1.0000000e+00 7.5000000e-01 0.0000000e+00 
7.5000000e-01 1.0000000e+00 0.0000000e+00 
5.0000000e-01 1.0000000e+00 0.0000000e+00 
2.5000000e-01 1.0000000e+00 0.0000000e+00 
0.0000000e+00 7.5000000e-01 0.0000000e+00 
0.0000000e+00 5.0000000e-01 0.0000000e+00 
0.0000000e+00 2.5000000e-01 0.0000000e+00 
1.9194904e-01 3.7563103e-01 0.0000000e+00 
6.3590682e-01 2.1323122e-01 0.0000000e+00 
7.8895766e-01 6.2466627e-01 0.0000000e+00 
3.8539964e-01 7.4551302e-01 0.0000000e+00 
8.0207902e-01 3.7843281e-01 0.0000000e+00 
5.6919098e-01 4.9434972e-01 0.0000000e+00 
6.2870389e-01 7.8320098e-01 0.0000000e+00 
3.8600761e-01 2.5211850e-01 0.0000000e+00 
1.8872584e-01 6.1445600e-01 0.0000000e+00 
3.4425461e-01 4.9641365e-01 0.0000000e+00 
8.1698728e-01 1.8301271e-01 0.0000000e+00 
8.1698728e-01 8.1698728e-01 0.0000000e+00 
1.6482510e-01 8.2199383e-01 0.0000000e+00 
1.8301271e-01 1.8301271e-01 0.0000000e+00 

CELLS 42 168
3 21 22 19
3 21 23 17
3 19 25 21
3 21 25 23
3 18 22 21
3 20 21 17
3 23 25 16
3 9 18 8
3 12 19 11
3 15 16 14
3 6 17 5
3 24 25 19
3 5 23 4
3 8 20 7
3 14 24 13
3 11 22 10
3 18 21 20
3 18 20 8
3 16 24 14
3 19 22 11
3 17 23 5
3 2 27 9
3 3 28 12
3 0 29 15
3 1 26 6
3 10 27 2
3 13 28 3
3 4 29 0
3 7 26 1
3 23 29 4
3 20 26 7
3 22 27 10
3 24 28 13
3 9 27 18
3 6 26 17
3 12 28 19
3 15 29 16
3 16 29 23
3 18 27 22
3 19 28 24
3 17 26 20
3 16 25 24

CELL_TYPES 42
5
5
5
5
5
5
5
5
5
5
5
5
5
5
5
5
5
5
5
5
5
5
5
5
5
5
5
5
5
5
5
5
5
5
5
5
5
5
5
5
5
5
POINT_DATA 30
FIELD FieldData 2
DISPLACEMENT 3 30  float
0.0000000e+00 0.0000000e+00 0.0000000e+00 
0.0000000e+00 0.0000000e+00 0.0000000e+00 
0.0000000e+00 -1.8364808e-05 0.0000000e+00 
0.0000000e+00 -1.7885341e-05 0.0000000e+00 
0.0000000e+00 0.0000000e+00 0.0000000e+00 
0.0000000e+00 0.0000000e+00 0.0000000e+00 
0.0000000e+00 0.0000000e+00 0.0000000e+00 
0.0000000e+00 -4.6947644e-06 0.0000000e+00 
0.0000000e+00 -9.3736162e-06 0.0000000e+00 
0.0000000e+00 -1.3975774e-05 0.0000000e+00 
-7.2584049e-07 -1.8148783e-05 0.0000000e+00 
-1.0440721e-06 -1.7968336e-05 0.0000000e+00 
-8.7534596e-07 -1.7922046e-05 0.0000000e+00 
0.0000000e+00 -1.4186273e-05 0.0000000e+00 
0.0000000e+00 -9.8302389e-06 0.0000000e+00 
0.0000000e+00 -5.0039184e-06 0.0000000e+00 
-1.6371118e-07 -7.3900974e-06 0.0000000e+00 
-1.1996140e-07 -4.0447312e-06 0.0000000e+00 
-4.9278657e-07 -1.1659864e-05 0.0000000e+00 
-8.7858598e-07 -1.3896770e-05 0.0000000e+00 
-2.2812951e-07 -7.1069489e-06 0.0000000e+00 
-4.8293555e-07 -9.3312265e-06 0.0000000e+00 
-8.8552679e-07 -1.4475248e-05 0.0000000e+00 
-1.2607968e-07 -4.8924089e-06 0.0000000e+00 
-4.3702843e-07 -1.1808012e-05 0.0000000e+00 
-4.1527932e-07 -9.5038622e-06 0.0000000e+00 
-7.3147099e-08 -3.4409945e-06 0.0000000e+00 
-5.8596640e-07 -1.5130397e-05 0.0000000e+00 
-5.7396278e-07 -1.5285301e-05 0.0000000e+00 
-4.9075407e-08 -3.6343176e-06 0.0000000e+00 
VELOCITY 3 30  float
0.0000000e+00 0.0000000e+00 0.0000000e+00 
0.0000000e+00 0.0000000e+00 0.0000000e+00 
0.0000000e+00 -7.1536953e-04 0.0000000e+00 
0.0000000e+00 -3.5249343e-04 0.0000000e+00 
0.0000000e+00 0.0000000e+00 0.0000000e+00 
0.0000000e+00 0.0000000e+00 0.0000000e+00 
0.0000000e+00 0.0000000e+00 0.0000000e+00 
0.0000000e+00 -2.0567111e-04 0.0000000e+00 
0.0000000e+00 -4.2734435e-04 0.0000000e+00 
0.0000000e+00 -6.2019983e-04 0.0000000e+00 
-2.0771672e-04 -7.9247181e-04 0.0000000e+00 
-2.5143425e-04 -7.7862543e-04 0.0000000e+00 
-1.3427828e-04 -5.7800609e-04 0.0000000e+00 
0.0000000e+00 -5.3507165e-04 0.0000000e+00 
0.0000000e+00 -5.8890425e-04 0.0000000e+00 
0.0000000e+00 -3.8054356e-04 0.0000000e+00 
-1.4956290e-04 -5.2608340e-04 0.0000000e+00 
-7.3034629e-05 -2.5096067e-04 0.0000000e+00 
-2.0685871e-04 -6.1379367e-04 0.0000000e+00 
-3.7056702e-04 -7.5678719e-04 0.0000000e+00 
-1.1322325e-04 -3.6959897e-04 0.0000000e+00 
-2.8802222e-04 -5.9714675e-04 0.0000000e+00 
-3.2779772e-04 -7.8124541e-04 0.0000000e+00 
-1.2378398e-04 -3.6232822e-04 0.0000000e+00 
-2.4623919e-04 -6.4156094e-04 0.0000000e+00 
-2.8189839e-04 -6.1738456e-04 0.0000000e+00 
-3.1514744e-05 -1.7333627e-04 0.0000000e+00 
-1.8529274e-04 -7.2249124e-04 0.0000000e+00 
-1.7998577e-04 -5.7214720e-04 0.0000000e+00 
-5.9678849e-05 -2.8821794e-04 0.0000000e+00 
CELL_DATA 42
FIELD FieldData 0
