# vtk DataFile Version 4.0
vtk output
ASCII
DATASET UNSTRUCTURED_GRID
POINTS 30 float
0.0000000e+00 0.0000000e+00 0.0000000e+00 
1.0000000e+00 0.0000000e+00 0.0000000e+00 
1.0000000e+00 1.0000000e+00 0.0000000e+00 
0.0000000e+00 1.0000000e+00 0.0000000e+00 
2.5000000e-01 0.0000000e+00 0.0000000e+00 
5.0000000e-01 0.0000000e+00 0.0000000e+00 
7.5000000e-01 0.0000000e+00 0.0000000e+00 
1.0000000e+00 2.5000000e-01 0.0000000e+00 
1.0000000e+00 5.0000000e-01 0.0000000e+00 
1.0000000e+00 7.5000000e-01 0.0000000e+00 
7.5000000e-01 1.0000000e+00 0.0000000e+00 
5.0000000e-01 1.0000000e+00 0.0000000e+00 
2.5000000e-01 1.0000000e+00 0.0000000e+00 
0.0000000e+00 7.5000000e-01 0.0000000e+00 
0.0000000e+00 5.0000000e-01 0.0000000e+00 
0.0000000e+00 2.5000000e-01 0.0000000e+00 
1.9194904e-01 3.7563103e-01 0.0000000e+00 
6.3590682e-01 2.1323122e-01 0.0000000e+00 
7.8895766e-01 6.2466627e-01 0.0000000e+00 
3.8539964e-01 7.4551302e-01 0.0000000e+00 
8.0207902e-01 3.7843281e-01 0.0000000e+00 
5.6919098e-01 4.9434972e-01 0.0000000e+00 
6.2870389e-01 7.8320098e-01 0.0000000e+00 
3.8600761e-01 2.5211850e-01 0.0000000e+00 
1.8872584e-01 6.1445600e-01 0.0000000e+00 
3.4425461e-01 4.9641365e-01 0.0000000e+00 
8.1698728e-01 1.8301271e-01 0.0000000e+00 
8.1698728e-01 8.1698728e-01 0.0000000e+00 
1.6482510e-01 8.2199383e-01 0.0000000e+00 
1.8301271e-01 1.8301271e-01 0.0000000e+00 

CELLS 42 168
3 21 22 19
3 21 23 17
3 19 25 21
3 21 25 23
3 18 22 21
3 20 21 17
3 23 25 16
3 9 18 8
3 12 19 11
3 15 16 14
3 6 17 5
3 24 25 19
3 5 23 4
3 8 20 7
3 14 24 13
3 11 22 10
3 18 21 20
3 18 20 8
3 16 24 14
3 19 22 11
3 17 23 5
3 2 27 9
3 3 28 12
3 0 29 15
3 1 26 6
3 10 27 2
3 13 28 3
3 4 29 0
3 7 26 1
3 23 29 4
3 20 26 7
3 22 27 10
3 24 28 13
3 9 27 18
3 6 26 17
3 12 28 19
3 15 29 16
3 16 29 23
3 18 27 22
3 19 28 24
3 17 26 20
3 16 25 24

CELL_TYPES 42
5
5
5
5
5
5
5
5
5
5
5
5
5
5
5
5
5
5
5
5
5
5
5
5
5
5
5
5
5
5
5
5
5
5
5
5
5
5
5
5
5
5
POINT_DATA 30
FIELD FieldData 2
DISPLACEMENT 3 30  float
0.0000000e+00 0.0000000e+00 0.0000000e+00 
0.0000000e+00 0.0000000e+00 0.0000000e+00 
0.0000000e+00 -1.1631707e-05 0.0000000e+00 
0.0000000e+00 -1.2393285e-05 0.0000000e+00 
0.0000000e+00 0.0000000e+00 0.0000000e+00 
0.0000000e+00 0.0000000e+00 0.0000000e+00 
0.0000000e+00 0.0000000e+00 0.0000000e+00 
0.0000000e+00 -2.8462182e-06 0.0000000e+00 
0.0000000e+00 -5.6660451e-06 0.0000000e+00 
0.0000000e+00 -8.5466681e-06 0.0000000e+00 
5.0552848e-07 -1.1637876e-05 0.0000000e+00 
6.4971027e-07 -1.1763619e-05 0.0000000e+00 
4.3161160e-07 -1.2106111e-05 0.0000000e+00 
0.0000000e+00 -8.7420076e-06 0.0000000e+00 
0.0000000e+00 -5.4293164e-06 0.0000000e+00 
0.0000000e+00 -2.5694203e-06 0.0000000e+00 
2.6828900e-07 -3.9439524e-06 0.0000000e+00 
1.5482046e-07 -2.3179498e-06 0.0000000e+00 
4.4115197e-07 -7.0029305e-06 0.0000000e+00 
7.5766530e-07 -8.4038375e-06 0.0000000e+00 
2.3615507e-07 -4.2342449e-06 0.0000000e+00 
5.6350973e-07 -5.3685394e-06 0.0000000e+00 
7.1417128e-07 -8.8320394e-06 0.0000000e+00 
2.3786416e-07 -2.6251400e-06 0.0000000e+00 
4.5325879e-07 -6.8383638e-06 0.0000000e+00 
5.2372030e-07 -5.3635245e-06 0.0000000e+00 
7.3288227e-08 -2.0563607e-06 0.0000000e+00 
4.3377096e-07 -9.3008402e-06 0.0000000e+00 
3.9754462e-07 -9.6682852e-06 0.0000000e+00 
1.1172233e-07 -1.8635019e-06 0.0000000e+00 
VELOCITY 3 30  float
0.0000000e+00 0.0000000e+00 0.0000000e+00 
0.0000000e+00 0.0000000e+00 0.0000000e+00 
0.0000000e+00 -1.9778707e-03 0.0000000e+00 
0.0000000e+00 -1.8443287e-03 0.0000000e+00 
0.0000000e+00 0.0000000e+00 0.0000000e+00 
0.0000000e+00 0.0000000e+00 0.0000000e+00 
0.0000000e+00 0.0000000e+00 0.0000000e+00 
0.0000000e+00 -5.3374731e-04 0.0000000e+00 
0.0000000e+00 -1.0556839e-03 0.0000000e+00 
0.0000000e+00 -1.5514428e-03 0.0000000e+00 
-2.8483086e-04 -1.8118911e-03 0.0000000e+00 
-4.2607871e-04 -1.7032616e-03 0.0000000e+00 
-3.8850476e-04 -1.7483679e-03 0.0000000e+00 
0.0000000e+00 -1.6426344e-03 0.0000000e+00 
0.0000000e+00 -1.1714648e-03 0.0000000e+00 
0.0000000e+00 -5.9325562e-04 0.0000000e+00 
-2.3237175e-05 -8.5237459e-04 0.0000000e+00 
-3.6878115e-05 -4.3975189e-04 0.0000000e+00 
-1.6671671e-04 -1.2489798e-03 0.0000000e+00 
-2.8393348e-04 -1.4403856e-03 0.0000000e+00 
-7.2490584e-05 -7.7948265e-04 0.0000000e+00 
-1.3055591e-04 -9.8792813e-04 0.0000000e+00 
-3.1208154e-04 -1.4760377e-03 0.0000000e+00 
-2.1793561e-05 -5.4457935e-04 0.0000000e+00 
-1.0987569e-04 -1.3462986e-03 0.0000000e+00 
-9.3701470e-05 -1.0387504e-03 0.0000000e+00 
-2.7059386e-05 -3.8051727e-04 0.0000000e+00 
-2.2260220e-04 -1.6093315e-03 0.0000000e+00 
-2.0861719e-04 -1.6746589e-03 0.0000000e+00 
-4.6402452e-06 -4.2010844e-04 0.0000000e+00 
CELL_DATA 42
FIELD FieldData 0
