# vtk DataFile Version 4.0
vtk output
ASCII
DATASET UNSTRUCTURED_GRID
POINTS 30 float
0.0000000e+00 0.0000000e+00 0.0000000e+00 
1.0000000e+00 0.0000000e+00 0.0000000e+00 
1.0000000e+00 1.0000000e+00 0.0000000e+00 
0.0000000e+00 1.0000000e+00 0.0000000e+00 
2.5000000e-01 0.0000000e+00 0.0000000e+00 
5.0000000e-01 0.0000000e+00 0.0000000e+00 
7.5000000e-01 0.0000000e+00 0.0000000e+00 
1.0000000e+00 2.5000000e-01 0.0000000e+00 
1.0000000e+00 5.0000000e-01 0.0000000e+00 
1.0000000e+00 7.5000000e-01 0.0000000e+00 
7.5000000e-01 1.0000000e+00 0.0000000e+00 
5.0000000e-01 1.0000000e+00 0.0000000e+00 
2.5000000e-01 1.0000000e+00 0.0000000e+00 
0.0000000e+00 7.5000000e-01 0.0000000e+00 
0.0000000e+00 5.0000000e-01 0.0000000e+00 
0.0000000e+00 2.5000000e-01 0.0000000e+00 
1.9194904e-01 3.7563103e-01 0.0000000e+00 
6.3590682e-01 2.1323122e-01 0.0000000e+00 
7.8895766e-01 6.2466627e-01 0.0000000e+00 
3.8539964e-01 7.4551302e-01 0.0000000e+00 
8.0207902e-01 3.7843281e-01 0.0000000e+00 
5.6919098e-01 4.9434972e-01 0.0000000e+00 
6.2870389e-01 7.8320098e-01 0.0000000e+00 
3.8600761e-01 2.5211850e-01 0.0000000e+00 
1.8872584e-01 6.1445600e-01 0.0000000e+00 
3.4425461e-01 4.9641365e-01 0.0000000e+00 
8.1698728e-01 1.8301271e-01 0.0000000e+00 
8.1698728e-01 8.1698728e-01 0.0000000e+00 
1.6482510e-01 8.2199383e-01 0.0000000e+00 
1.8301271e-01 1.8301271e-01 0.0000000e+00 

CELLS 42 168
3 21 22 19
3 21 23 17
3 19 25 21
3 21 25 23
3 18 22 21
3 20 21 17
3 23 25 16
3 9 18 8
3 12 19 11
3 15 16 14
3 6 17 5
3 24 25 19
3 5 23 4
3 8 20 7
3 14 24 13
3 11 22 10
3 18 21 20
3 18 20 8
3 16 24 14
3 19 22 11
3 17 23 5
3 2 27 9
3 3 28 12
3 0 29 15
3 1 26 6
3 10 27 2
3 13 28 3
3 4 29 0
3 7 26 1
3 23 29 4
3 20 26 7
3 22 27 10
3 24 28 13
3 9 27 18
3 6 26 17
3 12 28 19
3 15 29 16
3 16 29 23
3 18 27 22
3 19 28 24
3 17 26 20
3 16 25 24

CELL_TYPES 42
5
5
5
5
5
5
5
5
5
5
5
5
5
5
5
5
5
5
5
5
5
5
5
5
5
5
5
5
5
5
5
5
5
5
5
5
5
5
5
5
5
5
POINT_DATA 30
FIELD FieldData 2
DISPLACEMENT 3 30  float
0.0000000e+00 0.0000000e+00 0.0000000e+00 
0.0000000e+00 0.0000000e+00 0.0000000e+00 
0.0000000e+00 -1.5307669e-05 0.0000000e+00 
0.0000000e+00 -1.5302832e-05 0.0000000e+00 
0.0000000e+00 0.0000000e+00 0.0000000e+00 
0.0000000e+00 0.0000000e+00 0.0000000e+00 
0.0000000e+00 0.0000000e+00 0.0000000e+00 
0.0000000e+00 -3.8300818e-06 0.0000000e+00 
0.0000000e+00 -7.6647420e-06 0.0000000e+00 
0.0000000e+00 -1.1501403e-05 0.0000000e+00 
-1.5852744e-07 -1.5349884e-05 0.0000000e+00 
-2.0972803e-07 -1.5387246e-05 0.0000000e+00 
-1.4741119e-07 -1.5351074e-05 0.0000000e+00 
0.0000000e+00 -1.1621474e-05 0.0000000e+00 
0.0000000e+00 -7.8364465e-06 0.0000000e+00 
0.0000000e+00 -3.9487290e-06 0.0000000e+00 
-5.1985495e-08 -5.9129725e-06 0.0000000e+00 
-1.4276493e-08 -3.3085562e-06 0.0000000e+00 
-8.5721780e-08 -9.6157901e-06 0.0000000e+00 
-1.8299332e-07 -1.1578652e-05 0.0000000e+00 
-3.1827778e-08 -5.8216519e-06 0.0000000e+00 
-1.0399877e-07 -7.6888064e-06 0.0000000e+00 
-1.7215292e-07 -1.2101652e-05 0.0000000e+00 
-3.7920096e-08 -3.9644983e-06 0.0000000e+00 
-9.9481916e-08 -9.5878977e-06 0.0000000e+00 
-1.0523541e-07 -7.7677632e-06 0.0000000e+00 
-4.2509667e-09 -2.8144909e-06 0.0000000e+00 
-1.0342512e-07 -1.2555306e-05 0.0000000e+00 
-1.0649693e-07 -1.2706488e-05 0.0000000e+00 
-2.0046008e-08 -2.8932582e-06 0.0000000e+00 
VELOCITY 3 30  float
0.0000000e+00 0.0000000e+00 0.0000000e+00 
0.0000000e+00 0.0000000e+00 0.0000000e+00 
0.0000000e+00 -5.7926221e-04 0.0000000e+00 
0.0000000e+00 -3.2527870e-04 0.0000000e+00 
0.0000000e+00 0.0000000e+00 0.0000000e+00 
0.0000000e+00 0.0000000e+00 0.0000000e+00 
0.0000000e+00 0.0000000e+00 0.0000000e+00 
0.0000000e+00 -1.6271623e-04 0.0000000e+00 
0.0000000e+00 -3.3032385e-04 0.0000000e+00 
0.0000000e+00 -4.7797020e-04 0.0000000e+00 
-8.8002555e-05 -5.2180840e-04 0.0000000e+00 
-1.1123994e-04 -4.3869877e-04 0.0000000e+00 
-7.8875266e-05 -3.5434787e-04 0.0000000e+00 
0.0000000e+00 -3.2882625e-04 0.0000000e+00 
0.0000000e+00 -2.8632273e-04 0.0000000e+00 
0.0000000e+00 -1.6602958e-04 0.0000000e+00 
-4.8177630e-05 -2.3611163e-04 0.0000000e+00 
-4.2157088e-05 -1.4247496e-04 0.0000000e+00 
-9.6916527e-05 -3.9954876e-04 0.0000000e+00 
-1.4146027e-04 -3.8407205e-04 0.0000000e+00 
-5.9184375e-05 -2.4947317e-04 0.0000000e+00 
-1.1766509e-04 -3.1599868e-04 0.0000000e+00 
-1.4115660e-04 -4.4591620e-04 0.0000000e+00 
-4.9467693e-05 -1.6755117e-04 0.0000000e+00 
-8.3075960e-05 -3.2399906e-04 0.0000000e+00 
-9.9003344e-05 -2.9343585e-04 0.0000000e+00 
-2.2683260e-05 -1.1895419e-04 0.0000000e+00 
-8.9802830e-05 -4.9198460e-04 0.0000000e+00 
-6.8518588e-05 -3.4397616e-04 0.0000000e+00 
-2.0812893e-05 -1.2422595e-04 0.0000000e+00 
CELL_DATA 42
FIELD FieldData 0
