# vtk DataFile Version 4.0
vtk output
ASCII
DATASET UNSTRUCTURED_GRID
POINTS 30 float
0.0000000e+00 0.0000000e+00 0.0000000e+00 
1.0000000e+00 0.0000000e+00 0.0000000e+00 
1.0000000e+00 1.0000000e+00 0.0000000e+00 
0.0000000e+00 1.0000000e+00 0.0000000e+00 
2.5000000e-01 0.0000000e+00 0.0000000e+00 
5.0000000e-01 0.0000000e+00 0.0000000e+00 
7.5000000e-01 0.0000000e+00 0.0000000e+00 
1.0000000e+00 2.5000000e-01 0.0000000e+00 
1.0000000e+00 5.0000000e-01 0.0000000e+00 
1.0000000e+00 7.5000000e-01 0.0000000e+00 
7.5000000e-01 1.0000000e+00 0.0000000e+00 
5.0000000e-01 1.0000000e+00 0.0000000e+00 
2.5000000e-01 1.0000000e+00 0.0000000e+00 
0.0000000e+00 7.5000000e-01 0.0000000e+00 
0.0000000e+00 5.0000000e-01 0.0000000e+00 
0.0000000e+00 2.5000000e-01 0.0000000e+00 
1.9194904e-01 3.7563103e-01 0.0000000e+00 
6.3590682e-01 2.1323122e-01 0.0000000e+00 
7.8895766e-01 6.2466627e-01 0.0000000e+00 
3.8539964e-01 7.4551302e-01 0.0000000e+00 
8.0207902e-01 3.7843281e-01 0.0000000e+00 
5.6919098e-01 4.9434972e-01 0.0000000e+00 
6.2870389e-01 7.8320098e-01 0.0000000e+00 
3.8600761e-01 2.5211850e-01 0.0000000e+00 
1.8872584e-01 6.1445600e-01 0.0000000e+00 
3.4425461e-01 4.9641365e-01 0.0000000e+00 
8.1698728e-01 1.8301271e-01 0.0000000e+00 
8.1698728e-01 8.1698728e-01 0.0000000e+00 
1.6482510e-01 8.2199383e-01 0.0000000e+00 
1.8301271e-01 1.8301271e-01 0.0000000e+00 

CELLS 42 168
3 21 22 19
3 21 23 17
3 19 25 21
3 21 25 23
3 18 22 21
3 20 21 17
3 23 25 16
3 9 18 8
3 12 19 11
3 15 16 14
3 6 17 5
3 24 25 19
3 5 23 4
3 8 20 7
3 14 24 13
3 11 22 10
3 18 21 20
3 18 20 8
3 16 24 14
3 19 22 11
3 17 23 5
3 2 27 9
3 3 28 12
3 0 29 15
3 1 26 6
3 10 27 2
3 13 28 3
3 4 29 0
3 7 26 1
3 23 29 4
3 20 26 7
3 22 27 10
3 24 28 13
3 9 27 18
3 6 26 17
3 12 28 19
3 15 29 16
3 16 29 23
3 18 27 22
3 19 28 24
3 17 26 20
3 16 25 24

CELL_TYPES 42
5
5
5
5
5
5
5
5
5
5
5
5
5
5
5
5
5
5
5
5
5
5
5
5
5
5
5
5
5
5
5
5
5
5
5
5
5
5
5
5
5
5
POINT_DATA 30
FIELD FieldData 2
DISPLACEMENT 3 30  float
0.0000000e+00 0.0000000e+00 0.0000000e+00 
0.0000000e+00 0.0000000e+00 0.0000000e+00 
0.0000000e+00 -1.4088138e-05 0.0000000e+00 
0.0000000e+00 -1.4386370e-05 0.0000000e+00 
0.0000000e+00 0.0000000e+00 0.0000000e+00 
0.0000000e+00 0.0000000e+00 0.0000000e+00 
0.0000000e+00 0.0000000e+00 0.0000000e+00 
0.0000000e+00 -3.5000705e-06 0.0000000e+00 
0.0000000e+00 -6.9921753e-06 0.0000000e+00 
0.0000000e+00 -1.0507008e-05 0.0000000e+00 
1.4111670e-07 -1.4131607e-05 0.0000000e+00 
1.8259111e-07 -1.4211651e-05 0.0000000e+00 
1.2780737e-07 -1.4319712e-05 0.0000000e+00 
0.0000000e+00 -1.0639124e-05 0.0000000e+00 
0.0000000e+00 -6.9921120e-06 0.0000000e+00 
0.0000000e+00 -3.4582451e-06 0.0000000e+00 
7.6038312e-08 -5.2158116e-06 0.0000000e+00 
5.4888524e-08 -2.9667603e-06 0.0000000e+00 
1.3605261e-07 -8.7345989e-06 0.0000000e+00 
2.1278727e-07 -1.0500891e-05 0.0000000e+00 
7.7233963e-08 -5.2859918e-06 0.0000000e+00 
1.6906434e-07 -6.8861273e-06 0.0000000e+00 
2.0878178e-07 -1.1000236e-05 0.0000000e+00 
7.6139202e-08 -3.4865095e-06 0.0000000e+00 
1.2234409e-07 -8.6351938e-06 0.0000000e+00 
1.4835469e-07 -6.9272810e-06 0.0000000e+00 
2.7573011e-08 -2.5592340e-06 0.0000000e+00 
1.3203487e-07 -1.1464712e-05 0.0000000e+00 
1.1234133e-07 -1.1688283e-05 0.0000000e+00 
3.4851780e-08 -2.5244562e-06 0.0000000e+00 
VELOCITY 3 30  float
0.0000000e+00 0.0000000e+00 0.0000000e+00 
0.0000000e+00 0.0000000e+00 0.0000000e+00 
0.0000000e+00 2.3353496e-04 0.0000000e+00 
0.0000000e+00 1.1752451e-04 0.0000000e+00 
0.0000000e+00 0.0000000e+00 0.0000000e+00 
0.0000000e+00 0.0000000e+00 0.0000000e+00 
0.0000000e+00 0.0000000e+00 0.0000000e+00 
0.0000000e+00 6.3248641e-05 0.0000000e+00 
0.0000000e+00 1.3074493e-04 0.0000000e+00 
0.0000000e+00 1.9199373e-04 0.0000000e+00 
3.7683814e-05 2.1665868e-04 0.0000000e+00 
4.2813412e-05 1.8307775e-04 0.0000000e+00 
2.5946147e-05 1.3717172e-04 0.0000000e+00 
0.0000000e+00 1.1747748e-04 0.0000000e+00 
0.0000000e+00 1.0828964e-04 0.0000000e+00 
0.0000000e+00 6.6629786e-05 0.0000000e+00 
2.6792764e-05 9.7166660e-05 0.0000000e+00 
2.1463697e-05 6.1034702e-05 0.0000000e+00 
4.3290154e-05 1.6516075e-04 0.0000000e+00 
6.1074046e-05 1.5989825e-04 0.0000000e+00 
2.6753123e-05 1.0147005e-04 0.0000000e+00 
5.7891088e-05 1.3818349e-04 0.0000000e+00 
6.0451286e-05 1.8910081e-04 0.0000000e+00 
3.0584972e-05 7.5882599e-05 0.0000000e+00 
3.7761121e-05 1.2612522e-04 0.0000000e+00 
4.9546703e-05 1.2459405e-04 0.0000000e+00 
1.0279312e-05 4.7599853e-05 0.0000000e+00 
3.6663492e-05 2.0113069e-04 0.0000000e+00 
2.5881976e-05 1.2865273e-04 0.0000000e+00 
1.4466392e-05 5.3813466e-05 0.0000000e+00 
CELL_DATA 42
FIELD FieldData 0
