# vtk DataFile Version 4.0
vtk output
ASCII
DATASET UNSTRUCTURED_GRID
POINTS 30 float
0.0000000e+00 0.0000000e+00 0.0000000e+00 
1.0000000e+00 0.0000000e+00 0.0000000e+00 
1.0000000e+00 1.0000000e+00 0.0000000e+00 
0.0000000e+00 1.0000000e+00 0.0000000e+00 
2.5000000e-01 0.0000000e+00 0.0000000e+00 
5.0000000e-01 0.0000000e+00 0.0000000e+00 
7.5000000e-01 0.0000000e+00 0.0000000e+00 
1.0000000e+00 2.5000000e-01 0.0000000e+00 
1.0000000e+00 5.0000000e-01 0.0000000e+00 
1.0000000e+00 7.5000000e-01 0.0000000e+00 
7.5000000e-01 1.0000000e+00 0.0000000e+00 
5.0000000e-01 1.0000000e+00 0.0000000e+00 
2.5000000e-01 1.0000000e+00 0.0000000e+00 
0.0000000e+00 7.5000000e-01 0.0000000e+00 
0.0000000e+00 5.0000000e-01 0.0000000e+00 
0.0000000e+00 2.5000000e-01 0.0000000e+00 
1.9194904e-01 3.7563103e-01 0.0000000e+00 
6.3590682e-01 2.1323122e-01 0.0000000e+00 
7.8895766e-01 6.2466627e-01 0.0000000e+00 
3.8539964e-01 7.4551302e-01 0.0000000e+00 
8.0207902e-01 3.7843281e-01 0.0000000e+00 
5.6919098e-01 4.9434972e-01 0.0000000e+00 
6.2870389e-01 7.8320098e-01 0.0000000e+00 
3.8600761e-01 2.5211850e-01 0.0000000e+00 
1.8872584e-01 6.1445600e-01 0.0000000e+00 
3.4425461e-01 4.9641365e-01 0.0000000e+00 
8.1698728e-01 1.8301271e-01 0.0000000e+00 
8.1698728e-01 8.1698728e-01 0.0000000e+00 
1.6482510e-01 8.2199383e-01 0.0000000e+00 
1.8301271e-01 1.8301271e-01 0.0000000e+00 

CELLS 42 168
3 21 22 19
3 21 23 17
3 19 25 21
3 21 25 23
3 18 22 21
3 20 21 17
3 23 25 16
3 9 18 8
3 12 19 11
3 15 16 14
3 6 17 5
3 24 25 19
3 5 23 4
3 8 20 7
3 14 24 13
3 11 22 10
3 18 21 20
3 18 20 8
3 16 24 14
3 19 22 11
3 17 23 5
3 2 27 9
3 3 28 12
3 0 29 15
3 1 26 6
3 10 27 2
3 13 28 3
3 4 29 0
3 7 26 1
3 23 29 4
3 20 26 7
3 22 27 10
3 24 28 13
3 9 27 18
3 6 26 17
3 12 28 19
3 15 29 16
3 16 29 23
3 18 27 22
3 19 28 24
3 17 26 20
3 16 25 24

CELL_TYPES 42
5
5
5
5
5
5
5
5
5
5
5
5
5
5
5
5
5
5
5
5
5
5
5
5
5
5
5
5
5
5
5
5
5
5
5
5
5
5
5
5
5
5
POINT_DATA 30
FIELD FieldData 2
DISPLACEMENT 3 30  float
0.0000000e+00 0.0000000e+00 0.0000000e+00 
0.0000000e+00 0.0000000e+00 0.0000000e+00 
0.0000000e+00 -1.4754924e-05 0.0000000e+00 
0.0000000e+00 -1.4790885e-05 0.0000000e+00 
0.0000000e+00 0.0000000e+00 0.0000000e+00 
0.0000000e+00 0.0000000e+00 0.0000000e+00 
0.0000000e+00 0.0000000e+00 0.0000000e+00 
0.0000000e+00 -3.6860818e-06 0.0000000e+00 
0.0000000e+00 -7.3710189e-06 0.0000000e+00 
0.0000000e+00 -1.1058629e-05 0.0000000e+00 
2.0676657e-08 -1.4758850e-05 0.0000000e+00 
2.6742015e-08 -1.4767395e-05 0.0000000e+00 
1.8463981e-08 -1.4781739e-05 0.0000000e+00 
0.0000000e+00 -1.1071881e-05 0.0000000e+00 
0.0000000e+00 -7.3671436e-06 0.0000000e+00 
0.0000000e+00 -3.6782833e-06 0.0000000e+00 
1.0449708e-08 -5.5294663e-06 0.0000000e+00 
6.9292452e-09 -3.1406075e-06 0.0000000e+00 
1.8271075e-08 -9.2077098e-06 0.0000000e+00 
2.9844767e-08 -1.0995588e-05 0.0000000e+00 
1.0030457e-08 -5.5776236e-06 0.0000000e+00 
2.2850697e-08 -7.2816010e-06 0.0000000e+00 
2.9051456e-08 -1.1549077e-05 0.0000000e+00 
1.0064018e-08 -3.7096290e-06 0.0000000e+00 
1.7052194e-08 -9.0595413e-06 0.0000000e+00 
2.0440091e-08 -7.3124675e-06 0.0000000e+00 
3.3924663e-09 -2.6977534e-06 0.0000000e+00 
1.8213440e-08 -1.2047919e-05 0.0000000e+00 
1.5844019e-08 -1.2138700e-05 0.0000000e+00 
4.6597299e-09 -2.6917489e-06 0.0000000e+00 
VELOCITY 3 30  float
0.0000000e+00 0.0000000e+00 0.0000000e+00 
0.0000000e+00 0.0000000e+00 0.0000000e+00 
0.0000000e+00 -2.4525270e-05 0.0000000e+00 
0.0000000e+00 -1.4926107e-05 0.0000000e+00 
0.0000000e+00 0.0000000e+00 0.0000000e+00 
0.0000000e+00 0.0000000e+00 0.0000000e+00 
0.0000000e+00 0.0000000e+00 0.0000000e+00 
0.0000000e+00 -6.9585853e-06 0.0000000e+00 
0.0000000e+00 -1.4382965e-05 0.0000000e+00 
0.0000000e+00 -2.1051956e-05 0.0000000e+00 
-4.7767553e-06 -2.4210494e-05 0.0000000e+00 
-6.4866804e-06 -2.2080807e-05 0.0000000e+00 
-4.2371234e-06 -1.7972314e-05 0.0000000e+00 
0.0000000e+00 -1.7640545e-05 0.0000000e+00 
0.0000000e+00 -1.4624933e-05 0.0000000e+00 
0.0000000e+00 -8.6221435e-06 0.0000000e+00 
-2.6785917e-06 -1.2410856e-05 0.0000000e+00 
-1.7788514e-06 -6.7560140e-06 0.0000000e+00 
-4.3686923e-06 -1.8017117e-05 0.0000000e+00 
-7.3038800e-06 -1.9432369e-05 0.0000000e+00 
-2.5555285e-06 -1.1051843e-05 0.0000000e+00 
-5.7558236e-06 -1.5478141e-05 0.0000000e+00 
-7.0777701e-06 -2.1333772e-05 0.0000000e+00 
-2.5254819e-06 -8.7844983e-06 0.0000000e+00 
-3.9701367e-06 -1.6676348e-05 0.0000000e+00 
-5.1208331e-06 -1.5338061e-05 0.0000000e+00 
-8.7281995e-07 -5.2478208e-06 0.0000000e+00 
-4.7108451e-06 -2.2669834e-05 0.0000000e+00 
-4.2483825e-06 -1.7757426e-05 0.0000000e+00 
-1.1730139e-06 -6.5997410e-06 0.0000000e+00 
CELL_DATA 42
FIELD FieldData 0
