# vtk DataFile Version 4.0
vtk output
ASCII
DATASET UNSTRUCTURED_GRID
POINTS 30 float
0.0000000e+00 0.0000000e+00 0.0000000e+00 
1.0000000e+00 0.0000000e+00 0.0000000e+00 
1.0000000e+00 1.0000000e+00 0.0000000e+00 
0.0000000e+00 1.0000000e+00 0.0000000e+00 
2.5000000e-01 0.0000000e+00 0.0000000e+00 
5.0000000e-01 0.0000000e+00 0.0000000e+00 
7.5000000e-01 0.0000000e+00 0.0000000e+00 
1.0000000e+00 2.5000000e-01 0.0000000e+00 
1.0000000e+00 5.0000000e-01 0.0000000e+00 
1.0000000e+00 7.5000000e-01 0.0000000e+00 
7.5000000e-01 1.0000000e+00 0.0000000e+00 
5.0000000e-01 1.0000000e+00 0.0000000e+00 
2.5000000e-01 1.0000000e+00 0.0000000e+00 
0.0000000e+00 7.5000000e-01 0.0000000e+00 
0.0000000e+00 5.0000000e-01 0.0000000e+00 
0.0000000e+00 2.5000000e-01 0.0000000e+00 
1.9194904e-01 3.7563103e-01 0.0000000e+00 
6.3590682e-01 2.1323122e-01 0.0000000e+00 
7.8895766e-01 6.2466627e-01 0.0000000e+00 
3.8539964e-01 7.4551302e-01 0.0000000e+00 
8.0207902e-01 3.7843281e-01 0.0000000e+00 
5.6919098e-01 4.9434972e-01 0.0000000e+00 
6.2870389e-01 7.8320098e-01 0.0000000e+00 
3.8600761e-01 2.5211850e-01 0.0000000e+00 
1.8872584e-01 6.1445600e-01 0.0000000e+00 
3.4425461e-01 4.9641365e-01 0.0000000e+00 
8.1698728e-01 1.8301271e-01 0.0000000e+00 
8.1698728e-01 8.1698728e-01 0.0000000e+00 
1.6482510e-01 8.2199383e-01 0.0000000e+00 
1.8301271e-01 1.8301271e-01 0.0000000e+00 

CELLS 42 168
3 21 22 19
3 21 23 17
3 19 25 21
3 21 25 23
3 18 22 21
3 20 21 17
3 23 25 16
3 9 18 8
3 12 19 11
3 15 16 14
3 6 17 5
3 24 25 19
3 5 23 4
3 8 20 7
3 14 24 13
3 11 22 10
3 18 21 20
3 18 20 8
3 16 24 14
3 19 22 11
3 17 23 5
3 2 27 9
3 3 28 12
3 0 29 15
3 1 26 6
3 10 27 2
3 13 28 3
3 4 29 0
3 7 26 1
3 23 29 4
3 20 26 7
3 22 27 10
3 24 28 13
3 9 27 18
3 6 26 17
3 12 28 19
3 15 29 16
3 16 29 23
3 18 27 22
3 19 28 24
3 17 26 20
3 16 25 24

CELL_TYPES 42
5
5
5
5
5
5
5
5
5
5
5
5
5
5
5
5
5
5
5
5
5
5
5
5
5
5
5
5
5
5
5
5
5
5
5
5
5
5
5
5
5
5
POINT_DATA 30
FIELD FieldData 2
DISPLACEMENT 3 30  float
0.0000000e+00 0.0000000e+00 0.0000000e+00 
0.0000000e+00 0.0000000e+00 0.0000000e+00 
0.0000000e+00 -1.4858125e-05 0.0000000e+00 
0.0000000e+00 -1.4857712e-05 0.0000000e+00 
0.0000000e+00 0.0000000e+00 0.0000000e+00 
0.0000000e+00 0.0000000e+00 0.0000000e+00 
0.0000000e+00 0.0000000e+00 0.0000000e+00 
0.0000000e+00 -3.7145617e-06 0.0000000e+00 
0.0000000e+00 -7.4291402e-06 0.0000000e+00 
0.0000000e+00 -1.1143691e-05 0.0000000e+00 
-1.7874020e-10 -1.4858091e-05 0.0000000e+00 
-2.3287267e-10 -1.4857984e-05 0.0000000e+00 
-1.5285025e-10 -1.4857818e-05 0.0000000e+00 
0.0000000e+00 -1.1143496e-05 0.0000000e+00 
0.0000000e+00 -7.4291161e-06 0.0000000e+00 
0.0000000e+00 -3.7146099e-06 0.0000000e+00 
-1.0528844e-10 -5.5812702e-06 0.0000000e+00 
-7.5388439e-11 -3.1682700e-06 0.0000000e+00 
-1.7583993e-10 -9.2814671e-06 0.0000000e+00 
-2.7853414e-10 -1.1076932e-05 0.0000000e+00 
-1.0439789e-10 -5.6228682e-06 0.0000000e+00 
-2.2967327e-10 -7.3452256e-06 0.0000000e+00 
-2.7199065e-10 -1.1636959e-05 0.0000000e+00 
-1.0585658e-10 -3.7460973e-06 0.0000000e+00 
-1.5788912e-10 -9.1296843e-06 0.0000000e+00 
-2.0081600e-10 -7.3758679e-06 0.0000000e+00 
-3.7538257e-11 -2.7192534e-06 0.0000000e+00 
-1.7656428e-10 -1.2138984e-05 0.0000000e+00 
-1.4948803e-10 -1.2213138e-05 0.0000000e+00 
-4.9184885e-11 -2.7192959e-06 0.0000000e+00 
VELOCITY 3 30  float
0.0000000e+00 0.0000000e+00 0.0000000e+00 
0.0000000e+00 0.0000000e+00 0.0000000e+00 
0.0000000e+00 -1.4652747e-06 0.0000000e+00 
0.0000000e+00 -8.8690325e-07 0.0000000e+00 
0.0000000e+00 0.0000000e+00 0.0000000e+00 
0.0000000e+00 0.0000000e+00 0.0000000e+00 
0.0000000e+00 0.0000000e+00 0.0000000e+00 
0.0000000e+00 -3.7054465e-07 0.0000000e+00 
0.0000000e+00 -7.3301072e-07 0.0000000e+00 
0.0000000e+00 -1.0012253e-06 0.0000000e+00 
-2.7665413e-07 -1.2238215e-06 0.0000000e+00 
-3.0022645e-07 -1.0799326e-06 0.0000000e+00 
-2.2895721e-07 -9.3122378e-07 0.0000000e+00 
0.0000000e+00 -7.6736143e-07 0.0000000e+00 
0.0000000e+00 -7.7253964e-07 0.0000000e+00 
0.0000000e+00 -4.3082878e-07 0.0000000e+00 
-1.2318934e-07 -6.2109206e-07 0.0000000e+00 
-9.6629478e-08 -3.4443241e-07 0.0000000e+00 
-2.6557433e-07 -9.4216750e-07 0.0000000e+00 
-3.6600650e-07 -9.9753265e-07 0.0000000e+00 
-1.2188738e-07 -5.6990410e-07 0.0000000e+00 
-2.8193409e-07 -7.7876746e-07 0.0000000e+00 
-3.6953315e-07 -1.0988390e-06 0.0000000e+00 
-1.3753808e-07 -4.5033727e-07 0.0000000e+00 
-2.3061675e-07 -8.3699143e-07 0.0000000e+00 
-2.5556426e-07 -7.6379428e-07 0.0000000e+00 
-4.3354678e-08 -2.6605798e-07 0.0000000e+00 
-1.9139780e-07 -1.0677701e-06 0.0000000e+00 
-1.4738085e-07 -8.7856938e-07 0.0000000e+00 
-6.2389383e-08 -3.3111274e-07 0.0000000e+00 
CELL_DATA 42
FIELD FieldData 0
