# vtk DataFile Version 4.0
vtk output
ASCII
DATASET UNSTRUCTURED_GRID
POINTS 30 float
0.0000000e+00 0.0000000e+00 0.0000000e+00 
1.0000000e+00 0.0000000e+00 0.0000000e+00 
1.0000000e+00 1.0000000e+00 0.0000000e+00 
0.0000000e+00 1.0000000e+00 0.0000000e+00 
2.5000000e-01 0.0000000e+00 0.0000000e+00 
5.0000000e-01 0.0000000e+00 0.0000000e+00 
7.5000000e-01 0.0000000e+00 0.0000000e+00 
1.0000000e+00 2.5000000e-01 0.0000000e+00 
1.0000000e+00 5.0000000e-01 0.0000000e+00 
1.0000000e+00 7.5000000e-01 0.0000000e+00 
7.5000000e-01 1.0000000e+00 0.0000000e+00 
5.0000000e-01 1.0000000e+00 0.0000000e+00 
2.5000000e-01 1.0000000e+00 0.0000000e+00 
0.0000000e+00 7.5000000e-01 0.0000000e+00 
0.0000000e+00 5.0000000e-01 0.0000000e+00 
0.0000000e+00 2.5000000e-01 0.0000000e+00 
1.9194904e-01 3.7563103e-01 0.0000000e+00 
6.3590682e-01 2.1323122e-01 0.0000000e+00 
7.8895766e-01 6.2466627e-01 0.0000000e+00 
3.8539964e-01 7.4551302e-01 0.0000000e+00 
8.0207902e-01 3.7843281e-01 0.0000000e+00 
5.6919098e-01 4.9434972e-01 0.0000000e+00 
6.2870389e-01 7.8320098e-01 0.0000000e+00 
3.8600761e-01 2.5211850e-01 0.0000000e+00 
1.8872584e-01 6.1445600e-01 0.0000000e+00 
3.4425461e-01 4.9641365e-01 0.0000000e+00 
8.1698728e-01 1.8301271e-01 0.0000000e+00 
8.1698728e-01 8.1698728e-01 0.0000000e+00 
1.6482510e-01 8.2199383e-01 0.0000000e+00 
1.8301271e-01 1.8301271e-01 0.0000000e+00 

CELLS 42 168
3 21 22 19
3 21 23 17
3 19 25 21
3 21 25 23
3 18 22 21
3 20 21 17
3 23 25 16
3 9 18 8
3 12 19 11
3 15 16 14
3 6 17 5
3 24 25 19
3 5 23 4
3 8 20 7
3 14 24 13
3 11 22 10
3 18 21 20
3 18 20 8
3 16 24 14
3 19 22 11
3 17 23 5
3 2 27 9
3 3 28 12
3 0 29 15
3 1 26 6
3 10 27 2
3 13 28 3
3 4 29 0
3 7 26 1
3 23 29 4
3 20 26 7
3 22 27 10
3 24 28 13
3 9 27 18
3 6 26 17
3 12 28 19
3 15 29 16
3 16 29 23
3 18 27 22
3 19 28 24
3 17 26 20
3 16 25 24

CELL_TYPES 42
5
5
5
5
5
5
5
5
5
5
5
5
5
5
5
5
5
5
5
5
5
5
5
5
5
5
5
5
5
5
5
5
5
5
5
5
5
5
5
5
5
5
POINT_DATA 30
FIELD FieldData 2
DISPLACEMENT 3 30  float
0.0000000e+00 0.0000000e+00 0.0000000e+00 
0.0000000e+00 0.0000000e+00 0.0000000e+00 
0.0000000e+00 -1.5075506e-05 0.0000000e+00 
0.0000000e+00 -1.4994117e-05 0.0000000e+00 
0.0000000e+00 0.0000000e+00 0.0000000e+00 
0.0000000e+00 0.0000000e+00 0.0000000e+00 
0.0000000e+00 0.0000000e+00 0.0000000e+00 
0.0000000e+00 -3.7745822e-06 0.0000000e+00 
0.0000000e+00 -7.5517237e-06 0.0000000e+00 
0.0000000e+00 -1.1322973e-05 0.0000000e+00 
-4.2860382e-08 -1.5066188e-05 0.0000000e+00 
-5.4998047e-08 -1.5046170e-05 0.0000000e+00 
-3.7625266e-08 -1.5014087e-05 0.0000000e+00 
0.0000000e+00 -1.1289644e-05 0.0000000e+00 
0.0000000e+00 -7.5561134e-06 0.0000000e+00 
0.0000000e+00 -3.7893244e-06 0.0000000e+00 
-2.2532989e-08 -5.6880090e-06 0.0000000e+00 
-1.5366185e-08 -3.2262381e-06 0.0000000e+00 
-3.9140421e-08 -9.4366978e-06 0.0000000e+00 
-6.2885015e-08 -1.1245262e-05 0.0000000e+00 
-2.1825707e-08 -5.7181192e-06 0.0000000e+00 
-4.9256279e-08 -7.4782724e-06 0.0000000e+00 
-6.1351578e-08 -1.1820794e-05 0.0000000e+00 
-2.2163094e-08 -3.8219564e-06 0.0000000e+00 
-3.6109729e-08 -9.2736873e-06 0.0000000e+00 
-4.3795723e-08 -7.5070848e-06 0.0000000e+00 
-7.5292883e-09 -2.7644580e-06 0.0000000e+00 
-3.8465569e-08 -1.2330452e-05 0.0000000e+00 
-3.2950055e-08 -1.2365496e-05 0.0000000e+00 
-1.0248010e-08 -2.7762196e-06 0.0000000e+00 
VELOCITY 3 30  float
0.0000000e+00 0.0000000e+00 0.0000000e+00 
0.0000000e+00 0.0000000e+00 0.0000000e+00 
0.0000000e+00 2.6440401e-05 0.0000000e+00 
0.0000000e+00 1.3258827e-05 0.0000000e+00 
0.0000000e+00 0.0000000e+00 0.0000000e+00 
0.0000000e+00 0.0000000e+00 0.0000000e+00 
0.0000000e+00 0.0000000e+00 0.0000000e+00 
0.0000000e+00 7.6518190e-06 0.0000000e+00 
0.0000000e+00 1.5893591e-05 0.0000000e+00 
0.0000000e+00 2.3043773e-05 0.0000000e+00 
4.2845777e-06 2.5688336e-05 0.0000000e+00 
5.8258920e-06 2.2439954e-05 0.0000000e+00 
3.5399639e-06 1.7127935e-05 0.0000000e+00 
0.0000000e+00 1.6807700e-05 0.0000000e+00 
0.0000000e+00 1.3814206e-05 0.0000000e+00 
0.0000000e+00 8.2746101e-06 0.0000000e+00 
3.0356509e-06 1.2071197e-05 0.0000000e+00 
2.2805079e-06 7.1799823e-06 0.0000000e+00 
4.7421909e-06 1.9539761e-05 0.0000000e+00 
7.3759384e-06 1.9189574e-05 0.0000000e+00 
3.0245612e-06 1.2024432e-05 0.0000000e+00 
6.4813321e-06 1.6191458e-05 0.0000000e+00 
7.2164999e-06 2.2344875e-05 0.0000000e+00 
3.0988740e-06 8.9530431e-06 0.0000000e+00 
3.9825400e-06 1.5879743e-05 0.0000000e+00 
5.6163335e-06 1.5302401e-05 0.0000000e+00 
1.1238139e-06 5.6733284e-06 0.0000000e+00 
4.9388623e-06 2.4600375e-05 0.0000000e+00 
4.3121572e-06 1.6761627e-05 0.0000000e+00 
1.4145892e-06 6.4914484e-06 0.0000000e+00 
CELL_DATA 42
FIELD FieldData 0
