# vtk DataFile Version 4.0
vtk output
ASCII
DATASET UNSTRUCTURED_GRID
POINTS 30 float
0.0000000e+00 0.0000000e+00 0.0000000e+00 
1.0000000e+00 0.0000000e+00 0.0000000e+00 
1.0000000e+00 1.0000000e+00 0.0000000e+00 
0.0000000e+00 1.0000000e+00 0.0000000e+00 
2.5000000e-01 0.0000000e+00 0.0000000e+00 
5.0000000e-01 0.0000000e+00 0.0000000e+00 
7.5000000e-01 0.0000000e+00 0.0000000e+00 
1.0000000e+00 2.5000000e-01 0.0000000e+00 
1.0000000e+00 5.0000000e-01 0.0000000e+00 
1.0000000e+00 7.5000000e-01 0.0000000e+00 
7.5000000e-01 1.0000000e+00 0.0000000e+00 
5.0000000e-01 1.0000000e+00 0.0000000e+00 
2.5000000e-01 1.0000000e+00 0.0000000e+00 
0.0000000e+00 7.5000000e-01 0.0000000e+00 
0.0000000e+00 5.0000000e-01 0.0000000e+00 
0.0000000e+00 2.5000000e-01 0.0000000e+00 
1.9194904e-01 3.7563103e-01 0.0000000e+00 
6.3590682e-01 2.1323122e-01 0.0000000e+00 
7.8895766e-01 6.2466627e-01 0.0000000e+00 
3.8539964e-01 7.4551302e-01 0.0000000e+00 
8.0207902e-01 3.7843281e-01 0.0000000e+00 
5.6919098e-01 4.9434972e-01 0.0000000e+00 
6.2870389e-01 7.8320098e-01 0.0000000e+00 
3.8600761e-01 2.5211850e-01 0.0000000e+00 
1.8872584e-01 6.1445600e-01 0.0000000e+00 
3.4425461e-01 4.9641365e-01 0.0000000e+00 
8.1698728e-01 1.8301271e-01 0.0000000e+00 
8.1698728e-01 8.1698728e-01 0.0000000e+00 
1.6482510e-01 8.2199383e-01 0.0000000e+00 
1.8301271e-01 1.8301271e-01 0.0000000e+00 

CELLS 42 168
3 21 22 19
3 21 23 17
3 19 25 21
3 21 25 23
3 18 22 21
3 20 21 17
3 23 25 16
3 9 18 8
3 12 19 11
3 15 16 14
3 6 17 5
3 24 25 19
3 5 23 4
3 8 20 7
3 14 24 13
3 11 22 10
3 18 21 20
3 18 20 8
3 16 24 14
3 19 22 11
3 17 23 5
3 2 27 9
3 3 28 12
3 0 29 15
3 1 26 6
3 10 27 2
3 13 28 3
3 4 29 0
3 7 26 1
3 23 29 4
3 20 26 7
3 22 27 10
3 24 28 13
3 9 27 18
3 6 26 17
3 12 28 19
3 15 29 16
3 16 29 23
3 18 27 22
3 19 28 24
3 17 26 20
3 16 25 24

CELL_TYPES 42
5
5
5
5
5
5
5
5
5
5
5
5
5
5
5
5
5
5
5
5
5
5
5
5
5
5
5
5
5
5
5
5
5
5
5
5
5
5
5
5
5
5
POINT_DATA 30
FIELD FieldData 2
DISPLACEMENT 3 30  float
0.0000000e+00 0.0000000e+00 0.0000000e+00 
0.0000000e+00 0.0000000e+00 0.0000000e+00 
0.0000000e+00 -1.4856224e-05 0.0000000e+00 
0.0000000e+00 -1.4856576e-05 0.0000000e+00 
0.0000000e+00 0.0000000e+00 0.0000000e+00 
0.0000000e+00 0.0000000e+00 0.0000000e+00 
0.0000000e+00 0.0000000e+00 0.0000000e+00 
0.0000000e+00 -3.7140303e-06 0.0000000e+00 
0.0000000e+00 -7.4280483e-06 0.0000000e+00 
0.0000000e+00 -1.1142090e-05 0.0000000e+00 
1.7699033e-10 -1.4856259e-05 0.0000000e+00 
2.2874533e-10 -1.4856347e-05 0.0000000e+00 
1.5496641e-10 -1.4856488e-05 0.0000000e+00 
0.0000000e+00 -1.1142241e-05 0.0000000e+00 
0.0000000e+00 -7.4280406e-06 0.0000000e+00 
0.0000000e+00 -3.7139719e-06 0.0000000e+00 
9.5918447e-11 -5.5803557e-06 0.0000000e+00 
6.6151674e-11 -3.1677607e-06 0.0000000e+00 
1.6441974e-10 -9.2800956e-06 0.0000000e+00 
2.6417671e-10 -1.1075485e-05 0.0000000e+00 
9.3795888e-11 -5.6220247e-06 0.0000000e+00 
2.0975831e-10 -7.3440606e-06 0.0000000e+00 
2.5761068e-10 -1.1635350e-05 0.0000000e+00 
9.4745323e-11 -3.7454406e-06 0.0000000e+00 
1.5122538e-10 -9.1284564e-06 0.0000000e+00 
1.8535722e-10 -7.3747360e-06 0.0000000e+00 
3.2753075e-11 -2.7188532e-06 0.0000000e+00 
1.6354237e-10 -1.2137279e-05 0.0000000e+00 
1.3941440e-10 -1.2211841e-05 0.0000000e+00 
4.3838825e-11 -2.7188062e-06 0.0000000e+00 
VELOCITY 3 30  float
0.0000000e+00 0.0000000e+00 0.0000000e+00 
0.0000000e+00 0.0000000e+00 0.0000000e+00 
0.0000000e+00 8.0981465e-08 0.0000000e+00 
0.0000000e+00 3.3584680e-08 0.0000000e+00 
0.0000000e+00 0.0000000e+00 0.0000000e+00 
0.0000000e+00 0.0000000e+00 0.0000000e+00 
0.0000000e+00 0.0000000e+00 0.0000000e+00 
0.0000000e+00 6.4892629e-09 0.0000000e+00 
0.0000000e+00 9.0765173e-09 0.0000000e+00 
0.0000000e+00 -3.2188520e-08 0.0000000e+00 
1.3406458e-08 -1.3781762e-09 0.0000000e+00 
-2.8328373e-09 -3.3800782e-09 0.0000000e+00 
5.4191047e-09 1.0745810e-08 0.0000000e+00 
0.0000000e+00 -2.3109994e-08 0.0000000e+00 
0.0000000e+00 1.9991505e-08 0.0000000e+00 
0.0000000e+00 -2.7661735e-09 0.0000000e+00 
-3.4291410e-09 3.0154172e-09 0.0000000e+00 
2.3174089e-09 2.8392699e-09 0.0000000e+00 
1.5202726e-08 1.3042882e-08 0.0000000e+00 
1.4975533e-09 7.9599998e-09 0.0000000e+00 
-4.4428128e-09 2.0469215e-09 0.0000000e+00 
-3.2142167e-09 -8.1598193e-11 0.0000000e+00 
6.0443206e-09 9.6491366e-09 0.0000000e+00 
1.4517636e-09 3.4680558e-09 0.0000000e+00 
5.9351999e-09 2.4257800e-09 0.0000000e+00 
1.0350306e-09 3.9866372e-09 0.0000000e+00 
-8.3310170e-10 -7.7323253e-10 0.0000000e+00 
-1.0974724e-08 -2.5639666e-08 0.0000000e+00 
-1.0897807e-08 3.3278795e-09 0.0000000e+00 
1.2513802e-09 1.3032390e-09 0.0000000e+00 
CELL_DATA 42
FIELD FieldData 0
