# vtk DataFile Version 4.0
vtk output
ASCII
DATASET UNSTRUCTURED_GRID
POINTS 30 float
0.0000000e+00 0.0000000e+00 0.0000000e+00 
1.0000000e+00 0.0000000e+00 0.0000000e+00 
1.0000000e+00 1.0000000e+00 0.0000000e+00 
0.0000000e+00 1.0000000e+00 0.0000000e+00 
2.5000000e-01 0.0000000e+00 0.0000000e+00 
5.0000000e-01 0.0000000e+00 0.0000000e+00 
7.5000000e-01 0.0000000e+00 0.0000000e+00 
1.0000000e+00 2.5000000e-01 0.0000000e+00 
1.0000000e+00 5.0000000e-01 0.0000000e+00 
1.0000000e+00 7.5000000e-01 0.0000000e+00 
7.5000000e-01 1.0000000e+00 0.0000000e+00 
5.0000000e-01 1.0000000e+00 0.0000000e+00 
2.5000000e-01 1.0000000e+00 0.0000000e+00 
0.0000000e+00 7.5000000e-01 0.0000000e+00 
0.0000000e+00 5.0000000e-01 0.0000000e+00 
0.0000000e+00 2.5000000e-01 0.0000000e+00 
1.9194904e-01 3.7563103e-01 0.0000000e+00 
6.3590682e-01 2.1323122e-01 0.0000000e+00 
7.8895766e-01 6.2466627e-01 0.0000000e+00 
3.8539964e-01 7.4551302e-01 0.0000000e+00 
8.0207902e-01 3.7843281e-01 0.0000000e+00 
5.6919098e-01 4.9434972e-01 0.0000000e+00 
6.2870389e-01 7.8320098e-01 0.0000000e+00 
3.8600761e-01 2.5211850e-01 0.0000000e+00 
1.8872584e-01 6.1445600e-01 0.0000000e+00 
3.4425461e-01 4.9641365e-01 0.0000000e+00 
8.1698728e-01 1.8301271e-01 0.0000000e+00 
8.1698728e-01 8.1698728e-01 0.0000000e+00 
1.6482510e-01 8.2199383e-01 0.0000000e+00 
1.8301271e-01 1.8301271e-01 0.0000000e+00 

CELLS 42 168
3 21 22 19
3 21 23 17
3 19 25 21
3 21 25 23
3 18 22 21
3 20 21 17
3 23 25 16
3 9 18 8
3 12 19 11
3 15 16 14
3 6 17 5
3 24 25 19
3 5 23 4
3 8 20 7
3 14 24 13
3 11 22 10
3 18 21 20
3 18 20 8
3 16 24 14
3 19 22 11
3 17 23 5
3 2 27 9
3 3 28 12
3 0 29 15
3 1 26 6
3 10 27 2
3 13 28 3
3 4 29 0
3 7 26 1
3 23 29 4
3 20 26 7
3 22 27 10
3 24 28 13
3 9 27 18
3 6 26 17
3 12 28 19
3 15 29 16
3 16 29 23
3 18 27 22
3 19 28 24
3 17 26 20
3 16 25 24

CELL_TYPES 42
5
5
5
5
5
5
5
5
5
5
5
5
5
5
5
5
5
5
5
5
5
5
5
5
5
5
5
5
5
5
5
5
5
5
5
5
5
5
5
5
5
5
POINT_DATA 30
FIELD FieldData 2
DISPLACEMENT 3 30  float
0.0000000e+00 0.0000000e+00 0.0000000e+00 
0.0000000e+00 0.0000000e+00 0.0000000e+00 
0.0000000e+00 -1.4864681e-05 0.0000000e+00 
0.0000000e+00 -1.4861786e-05 0.0000000e+00 
0.0000000e+00 0.0000000e+00 0.0000000e+00 
0.0000000e+00 0.0000000e+00 0.0000000e+00 
0.0000000e+00 0.0000000e+00 0.0000000e+00 
0.0000000e+00 -3.7163620e-06 0.0000000e+00 
0.0000000e+00 -7.4328059e-06 0.0000000e+00 
0.0000000e+00 -1.1149045e-05 0.0000000e+00 
-1.4452248e-09 -1.4864299e-05 0.0000000e+00 
-1.8318227e-09 -1.4863556e-05 0.0000000e+00 
-1.2571554e-09 -1.4862445e-05 0.0000000e+00 
0.0000000e+00 -1.1147765e-05 0.0000000e+00 
0.0000000e+00 -7.4328718e-06 0.0000000e+00 
0.0000000e+00 -3.7168190e-06 0.0000000e+00 
-7.7069912e-10 -5.5844234e-06 0.0000000e+00 
-5.3955712e-10 -3.1699972e-06 0.0000000e+00 
-1.3519741e-09 -9.2861119e-06 0.0000000e+00 
-2.1337445e-09 -1.1081925e-05 0.0000000e+00 
-7.5691403e-10 -5.6257190e-06 0.0000000e+00 
-1.6936904e-09 -7.3491842e-06 0.0000000e+00 
-2.0885573e-09 -1.1642437e-05 0.0000000e+00 
-7.7303070e-10 -3.7483496e-06 0.0000000e+00 
-1.2372745e-09 -9.1339389e-06 0.0000000e+00 
-1.4979843e-09 -7.3797482e-06 0.0000000e+00 
-2.6501751e-10 -2.7206054e-06 0.0000000e+00 
-1.2995538e-09 -1.2144683e-05 0.0000000e+00 
-1.0926418e-09 -1.2217628e-05 0.0000000e+00 
-3.5613698e-10 -2.7209796e-06 0.0000000e+00 
VELOCITY 3 30  float
0.0000000e+00 0.0000000e+00 0.0000000e+00 
0.0000000e+00 0.0000000e+00 0.0000000e+00 
0.0000000e+00 -2.2748432e-06 0.0000000e+00 
0.0000000e+00 -1.3222292e-06 0.0000000e+00 
0.0000000e+00 0.0000000e+00 0.0000000e+00 
0.0000000e+00 0.0000000e+00 0.0000000e+00 
0.0000000e+00 0.0000000e+00 0.0000000e+00 
0.0000000e+00 -6.8450845e-07 0.0000000e+00 
0.0000000e+00 -1.4469099e-06 0.0000000e+00 
0.0000000e+00 -2.1945555e-06 0.0000000e+00 
-4.2039980e-07 -2.4210151e-06 0.0000000e+00 
-6.2367161e-07 -2.1864491e-06 0.0000000e+00 
-3.7517054e-07 -1.7017524e-06 0.0000000e+00 
0.0000000e+00 -1.7598999e-06 0.0000000e+00 
0.0000000e+00 -1.3567334e-06 0.0000000e+00 
0.0000000e+00 -8.3322504e-07 0.0000000e+00 
-2.8140695e-07 -1.1977983e-06 0.0000000e+00 
-1.8579024e-07 -6.7028049e-07 0.0000000e+00 
-4.0246218e-07 -1.7841329e-06 0.0000000e+00 
-7.1439689e-07 -1.8745193e-06 0.0000000e+00 
-2.7415317e-07 -1.1055159e-06 0.0000000e+00 
-5.9619782e-07 -1.5401466e-06 0.0000000e+00 
-6.8159176e-07 -2.0977695e-06 0.0000000e+00 
-2.6002087e-07 -8.5361813e-07 0.0000000e+00 
-3.7304082e-07 -1.6012480e-06 0.0000000e+00 
-5.1628422e-07 -1.4917911e-06 0.0000000e+00 
-9.7030842e-08 -5.2962395e-07 0.0000000e+00 
-4.9877832e-07 -2.3455593e-06 0.0000000e+00 
-4.5061935e-07 -1.7021995e-06 0.0000000e+00 
-1.2343340e-07 -6.4273110e-07 0.0000000e+00 
CELL_DATA 42
FIELD FieldData 0
