# vtk DataFile Version 4.0
vtk output
ASCII
DATASET UNSTRUCTURED_GRID
POINTS 30 float
0.0000000e+00 0.0000000e+00 0.0000000e+00 
1.0000000e+00 0.0000000e+00 0.0000000e+00 
1.0000000e+00 1.0000000e+00 0.0000000e+00 
0.0000000e+00 1.0000000e+00 0.0000000e+00 
2.5000000e-01 0.0000000e+00 0.0000000e+00 
5.0000000e-01 0.0000000e+00 0.0000000e+00 
7.5000000e-01 0.0000000e+00 0.0000000e+00 
1.0000000e+00 2.5000000e-01 0.0000000e+00 
1.0000000e+00 5.0000000e-01 0.0000000e+00 
1.0000000e+00 7.5000000e-01 0.0000000e+00 
7.5000000e-01 1.0000000e+00 0.0000000e+00 
5.0000000e-01 1.0000000e+00 0.0000000e+00 
2.5000000e-01 1.0000000e+00 0.0000000e+00 
0.0000000e+00 7.5000000e-01 0.0000000e+00 
0.0000000e+00 5.0000000e-01 0.0000000e+00 
0.0000000e+00 2.5000000e-01 0.0000000e+00 
1.9194904e-01 3.7563103e-01 0.0000000e+00 
6.3590682e-01 2.1323122e-01 0.0000000e+00 
7.8895766e-01 6.2466627e-01 0.0000000e+00 
3.8539964e-01 7.4551302e-01 0.0000000e+00 
8.0207902e-01 3.7843281e-01 0.0000000e+00 
5.6919098e-01 4.9434972e-01 0.0000000e+00 
6.2870389e-01 7.8320098e-01 0.0000000e+00 
3.8600761e-01 2.5211850e-01 0.0000000e+00 
1.8872584e-01 6.1445600e-01 0.0000000e+00 
3.4425461e-01 4.9641365e-01 0.0000000e+00 
8.1698728e-01 1.8301271e-01 0.0000000e+00 
8.1698728e-01 8.1698728e-01 0.0000000e+00 
1.6482510e-01 8.2199383e-01 0.0000000e+00 
1.8301271e-01 1.8301271e-01 0.0000000e+00 

CELLS 42 168
3 21 22 19
3 21 23 17
3 19 25 21
3 21 25 23
3 18 22 21
3 20 21 17
3 23 25 16
3 9 18 8
3 12 19 11
3 15 16 14
3 6 17 5
3 24 25 19
3 5 23 4
3 8 20 7
3 14 24 13
3 11 22 10
3 18 21 20
3 18 20 8
3 16 24 14
3 19 22 11
3 17 23 5
3 2 27 9
3 3 28 12
3 0 29 15
3 1 26 6
3 10 27 2
3 13 28 3
3 4 29 0
3 7 26 1
3 23 29 4
3 20 26 7
3 22 27 10
3 24 28 13
3 9 27 18
3 6 26 17
3 12 28 19
3 15 29 16
3 16 29 23
3 18 27 22
3 19 28 24
3 17 26 20
3 16 25 24

CELL_TYPES 42
5
5
5
5
5
5
5
5
5
5
5
5
5
5
5
5
5
5
5
5
5
5
5
5
5
5
5
5
5
5
5
5
5
5
5
5
5
5
5
5
5
5
POINT_DATA 30
FIELD FieldData 2
DISPLACEMENT 3 30  float
0.0000000e+00 0.0000000e+00 0.0000000e+00 
0.0000000e+00 0.0000000e+00 0.0000000e+00 
0.0000000e+00 -1.4856727e-05 0.0000000e+00 
0.0000000e+00 -1.4856879e-05 0.0000000e+00 
0.0000000e+00 0.0000000e+00 0.0000000e+00 
0.0000000e+00 0.0000000e+00 0.0000000e+00 
0.0000000e+00 0.0000000e+00 0.0000000e+00 
0.0000000e+00 -3.7141685e-06 0.0000000e+00 
0.0000000e+00 -7.4283298e-06 0.0000000e+00 
0.0000000e+00 -1.1142501e-05 0.0000000e+00 
8.2745900e-11 -1.4856732e-05 0.0000000e+00 
1.1046124e-10 -1.4856769e-05 0.0000000e+00 
7.3873262e-11 -1.4856834e-05 0.0000000e+00 
0.0000000e+00 -1.1142560e-05 0.0000000e+00 
0.0000000e+00 -7.4283212e-06 0.0000000e+00 
0.0000000e+00 -3.7141374e-06 0.0000000e+00 
4.4677154e-11 -5.5805922e-06 0.0000000e+00 
2.9516584e-11 -3.1678924e-06 0.0000000e+00 
7.4183701e-11 -9.2804512e-06 0.0000000e+00 
1.2388934e-10 -1.1075861e-05 0.0000000e+00 
4.3019224e-11 -5.6222434e-06 0.0000000e+00 
9.6915677e-11 -7.3443616e-06 0.0000000e+00 
1.1990889e-10 -1.1635767e-05 0.0000000e+00 
4.2523044e-11 -3.7456111e-06 0.0000000e+00 
6.9396308e-11 -9.1287748e-06 0.0000000e+00 
8.5941081e-11 -7.3750284e-06 0.0000000e+00 
1.4777556e-11 -2.7189567e-06 0.0000000e+00 
7.8279688e-11 -1.2137715e-05 0.0000000e+00 
6.8720925e-11 -1.2212176e-05 0.0000000e+00 
1.9877414e-11 -2.7189328e-06 0.0000000e+00 
VELOCITY 3 30  float
0.0000000e+00 0.0000000e+00 0.0000000e+00 
0.0000000e+00 0.0000000e+00 0.0000000e+00 
0.0000000e+00 -4.3633509e-07 0.0000000e+00 
0.0000000e+00 -2.8516240e-07 0.0000000e+00 
0.0000000e+00 0.0000000e+00 0.0000000e+00 
0.0000000e+00 0.0000000e+00 0.0000000e+00 
0.0000000e+00 0.0000000e+00 0.0000000e+00 
0.0000000e+00 -1.4267816e-07 0.0000000e+00 
0.0000000e+00 -3.0204438e-07 0.0000000e+00 
0.0000000e+00 -4.9774832e-07 0.0000000e+00 
-8.6437382e-08 -5.2720759e-07 0.0000000e+00 
-1.4091896e-07 -4.7951846e-07 0.0000000e+00 
-8.3555584e-08 -3.7332532e-07 0.0000000e+00 
0.0000000e+00 -4.0125948e-07 0.0000000e+00 
0.0000000e+00 -2.8881124e-07 0.0000000e+00 
0.0000000e+00 -1.8889088e-07 0.0000000e+00 
-6.2087189e-08 -2.6294302e-07 0.0000000e+00 
-3.6602849e-08 -1.4294133e-07 0.0000000e+00 
-7.6801363e-08 -3.7564595e-07 0.0000000e+00 
-1.5536679e-07 -4.0951730e-07 0.0000000e+00 
-6.1480932e-08 -2.3784531e-07 0.0000000e+00 
-1.2956272e-07 -3.3564731e-07 0.0000000e+00 
-1.4495878e-07 -4.5002324e-07 0.0000000e+00 
-5.4072949e-08 -1.8520581e-07 0.0000000e+00 
-8.0225114e-08 -3.5548089e-07 0.0000000e+00 
-1.0963635e-07 -3.2435139e-07 0.0000000e+00 
-2.0835442e-08 -1.1549776e-07 0.0000000e+00 
-1.1394891e-07 -5.2271895e-07 0.0000000e+00 
-1.0151167e-07 -3.7635834e-07 0.0000000e+00 
-2.4810742e-08 -1.4097137e-07 0.0000000e+00 
CELL_DATA 42
FIELD FieldData 0
