# vtk DataFile Version 4.0
vtk output
ASCII
DATASET UNSTRUCTURED_GRID
POINTS 30 float
0.0000000e+00 0.0000000e+00 0.0000000e+00 
1.0000000e+00 0.0000000e+00 0.0000000e+00 
1.0000000e+00 1.0000000e+00 0.0000000e+00 
0.0000000e+00 1.0000000e+00 0.0000000e+00 
2.5000000e-01 0.0000000e+00 0.0000000e+00 
5.0000000e-01 0.0000000e+00 0.0000000e+00 
7.5000000e-01 0.0000000e+00 0.0000000e+00 
1.0000000e+00 2.5000000e-01 0.0000000e+00 
1.0000000e+00 5.0000000e-01 0.0000000e+00 
1.0000000e+00 7.5000000e-01 0.0000000e+00 
7.5000000e-01 1.0000000e+00 0.0000000e+00 
5.0000000e-01 1.0000000e+00 0.0000000e+00 
2.5000000e-01 1.0000000e+00 0.0000000e+00 
0.0000000e+00 7.5000000e-01 0.0000000e+00 
0.0000000e+00 5.0000000e-01 0.0000000e+00 
0.0000000e+00 2.5000000e-01 0.0000000e+00 
1.9194904e-01 3.7563103e-01 0.0000000e+00 
6.3590682e-01 2.1323122e-01 0.0000000e+00 
7.8895766e-01 6.2466627e-01 0.0000000e+00 
3.8539964e-01 7.4551302e-01 0.0000000e+00 
8.0207902e-01 3.7843281e-01 0.0000000e+00 
5.6919098e-01 4.9434972e-01 0.0000000e+00 
6.2870389e-01 7.8320098e-01 0.0000000e+00 
3.8600761e-01 2.5211850e-01 0.0000000e+00 
1.8872584e-01 6.1445600e-01 0.0000000e+00 
3.4425461e-01 4.9641365e-01 0.0000000e+00 
8.1698728e-01 1.8301271e-01 0.0000000e+00 
8.1698728e-01 8.1698728e-01 0.0000000e+00 
1.6482510e-01 8.2199383e-01 0.0000000e+00 
1.8301271e-01 1.8301271e-01 0.0000000e+00 

CELLS 42 168
3 21 22 19
3 21 23 17
3 19 25 21
3 21 25 23
3 18 22 21
3 20 21 17
3 23 25 16
3 9 18 8
3 12 19 11
3 15 16 14
3 6 17 5
3 24 25 19
3 5 23 4
3 8 20 7
3 14 24 13
3 11 22 10
3 18 21 20
3 18 20 8
3 16 24 14
3 19 22 11
3 17 23 5
3 2 27 9
3 3 28 12
3 0 29 15
3 1 26 6
3 10 27 2
3 13 28 3
3 4 29 0
3 7 26 1
3 23 29 4
3 20 26 7
3 22 27 10
3 24 28 13
3 9 27 18
3 6 26 17
3 12 28 19
3 15 29 16
3 16 29 23
3 18 27 22
3 19 28 24
3 17 26 20
3 16 25 24

CELL_TYPES 42
5
5
5
5
5
5
5
5
5
5
5
5
5
5
5
5
5
5
5
5
5
5
5
5
5
5
5
5
5
5
5
5
5
5
5
5
5
5
5
5
5
5
POINT_DATA 30
FIELD FieldData 2
DISPLACEMENT 3 30  float
0.0000000e+00 0.0000000e+00 0.0000000e+00 
0.0000000e+00 0.0000000e+00 0.0000000e+00 
0.0000000e+00 -1.4857143e-05 0.0000000e+00 
0.0000000e+00 -1.4857143e-05 0.0000000e+00 
0.0000000e+00 0.0000000e+00 0.0000000e+00 
0.0000000e+00 0.0000000e+00 0.0000000e+00 
0.0000000e+00 0.0000000e+00 0.0000000e+00 
0.0000000e+00 -3.7142856e-06 0.0000000e+00 
0.0000000e+00 -7.4285713e-06 0.0000000e+00 
0.0000000e+00 -1.1142857e-05 0.0000000e+00 
2.9257526e-22 -1.4857143e-05 0.0000000e+00 
3.3244308e-22 -1.4857143e-05 0.0000000e+00 
6.2479839e-22 -1.4857143e-05 0.0000000e+00 
0.0000000e+00 -1.1142857e-05 0.0000000e+00 
0.0000000e+00 -7.4285713e-06 0.0000000e+00 
0.0000000e+00 -3.7142856e-06 0.0000000e+00 
-4.4035443e-22 -5.5808041e-06 0.0000000e+00 
-3.4825606e-22 -3.1680067e-06 0.0000000e+00 
-2.7936753e-22 -9.2807559e-06 0.0000000e+00 
1.4623282e-22 -1.1076193e-05 0.0000000e+00 
-4.2874325e-22 -5.6224303e-06 0.0000000e+00 
-6.9598692e-23 -7.3446245e-06 0.0000000e+00 
-4.9478643e-22 -1.1636129e-05 0.0000000e+00 
-9.5917042e-23 -3.7457605e-06 0.0000000e+00 
8.1958238e-24 -9.1290613e-06 0.0000000e+00 
-2.8585802e-22 -7.3752885e-06 0.0000000e+00 
3.6332213e-23 -2.7190458e-06 0.0000000e+00 
-3.6385350e-22 -1.2138097e-05 0.0000000e+00 
8.4712554e-22 -1.2212479e-05 0.0000000e+00 
-1.1134570e-22 -2.7190458e-06 0.0000000e+00 
VELOCITY 3 30  float
0.0000000e+00 0.0000000e+00 0.0000000e+00 
0.0000000e+00 0.0000000e+00 0.0000000e+00 
0.0000000e+00 1.6940659e-19 0.0000000e+00 
0.0000000e+00 -1.6940659e-19 0.0000000e+00 
0.0000000e+00 0.0000000e+00 0.0000000e+00 
0.0000000e+00 0.0000000e+00 0.0000000e+00 
0.0000000e+00 0.0000000e+00 0.0000000e+00 
0.0000000e+00 8.4703295e-20 0.0000000e+00 
0.0000000e+00 8.4703295e-20 0.0000000e+00 
0.0000000e+00 1.6940659e-19 0.0000000e+00 
-3.7968996e-20 0.0000000e+00 0.0000000e+00 
-2.9505096e-20 0.0000000e+00 0.0000000e+00 
3.4773033e-21 -1.6940659e-19 0.0000000e+00 
0.0000000e+00 0.0000000e+00 0.0000000e+00 
0.0000000e+00 -8.4703295e-20 0.0000000e+00 
0.0000000e+00 -4.2351647e-20 0.0000000e+00 
-5.0067356e-21 0.0000000e+00 0.0000000e+00 
7.5667550e-21 0.0000000e+00 0.0000000e+00 
4.1237519e-20 1.6940659e-19 0.0000000e+00 
4.2579403e-20 0.0000000e+00 0.0000000e+00 
2.0368802e-20 8.4703295e-20 0.0000000e+00 
8.6042371e-20 0.0000000e+00 0.0000000e+00 
4.5318841e-20 0.0000000e+00 0.0000000e+00 
1.7500400e-20 0.0000000e+00 0.0000000e+00 
4.3468496e-20 0.0000000e+00 0.0000000e+00 
4.2970492e-20 0.0000000e+00 0.0000000e+00 
3.9922047e-21 4.2351647e-20 0.0000000e+00 
-1.0384737e-20 1.6940659e-19 0.0000000e+00 
2.9168670e-20 -1.6940659e-19 0.0000000e+00 
9.5029409e-21 0.0000000e+00 0.0000000e+00 
CELL_DATA 42
FIELD FieldData 0
