# vtk DataFile Version 4.0
vtk output
ASCII
DATASET UNSTRUCTURED_GRID
POINTS 30 float
0.0000000e+00 0.0000000e+00 0.0000000e+00 
1.0000000e+00 0.0000000e+00 0.0000000e+00 
1.0000000e+00 1.0000000e+00 0.0000000e+00 
0.0000000e+00 1.0000000e+00 0.0000000e+00 
2.5000000e-01 0.0000000e+00 0.0000000e+00 
5.0000000e-01 0.0000000e+00 0.0000000e+00 
7.5000000e-01 0.0000000e+00 0.0000000e+00 
1.0000000e+00 2.5000000e-01 0.0000000e+00 
1.0000000e+00 5.0000000e-01 0.0000000e+00 
1.0000000e+00 7.5000000e-01 0.0000000e+00 
7.5000000e-01 1.0000000e+00 0.0000000e+00 
5.0000000e-01 1.0000000e+00 0.0000000e+00 
2.5000000e-01 1.0000000e+00 0.0000000e+00 
0.0000000e+00 7.5000000e-01 0.0000000e+00 
0.0000000e+00 5.0000000e-01 0.0000000e+00 
0.0000000e+00 2.5000000e-01 0.0000000e+00 
1.9194904e-01 3.7563103e-01 0.0000000e+00 
6.3590682e-01 2.1323122e-01 0.0000000e+00 
7.8895766e-01 6.2466627e-01 0.0000000e+00 
3.8539964e-01 7.4551302e-01 0.0000000e+00 
8.0207902e-01 3.7843281e-01 0.0000000e+00 
5.6919098e-01 4.9434972e-01 0.0000000e+00 
6.2870389e-01 7.8320098e-01 0.0000000e+00 
3.8600761e-01 2.5211850e-01 0.0000000e+00 
1.8872584e-01 6.1445600e-01 0.0000000e+00 
3.4425461e-01 4.9641365e-01 0.0000000e+00 
8.1698728e-01 1.8301271e-01 0.0000000e+00 
8.1698728e-01 8.1698728e-01 0.0000000e+00 
1.6482510e-01 8.2199383e-01 0.0000000e+00 
1.8301271e-01 1.8301271e-01 0.0000000e+00 

CELLS 42 168
3 21 22 19
3 21 23 17
3 19 25 21
3 21 25 23
3 18 22 21
3 20 21 17
3 23 25 16
3 9 18 8
3 12 19 11
3 15 16 14
3 6 17 5
3 24 25 19
3 5 23 4
3 8 20 7
3 14 24 13
3 11 22 10
3 18 21 20
3 18 20 8
3 16 24 14
3 19 22 11
3 17 23 5
3 2 27 9
3 3 28 12
3 0 29 15
3 1 26 6
3 10 27 2
3 13 28 3
3 4 29 0
3 7 26 1
3 23 29 4
3 20 26 7
3 22 27 10
3 24 28 13
3 9 27 18
3 6 26 17
3 12 28 19
3 15 29 16
3 16 29 23
3 18 27 22
3 19 28 24
3 17 26 20
3 16 25 24

CELL_TYPES 42
5
5
5
5
5
5
5
5
5
5
5
5
5
5
5
5
5
5
5
5
5
5
5
5
5
5
5
5
5
5
5
5
5
5
5
5
5
5
5
5
5
5
POINT_DATA 30
FIELD FieldData 2
DISPLACEMENT 3 30  float
0.0000000e+00 0.0000000e+00 0.0000000e+00 
0.0000000e+00 0.0000000e+00 0.0000000e+00 
0.0000000e+00 -1.5667287e-05 0.0000000e+00 
0.0000000e+00 -1.5238440e-05 0.0000000e+00 
0.0000000e+00 0.0000000e+00 0.0000000e+00 
0.0000000e+00 0.0000000e+00 0.0000000e+00 
0.0000000e+00 0.0000000e+00 0.0000000e+00 
0.0000000e+00 -3.9408465e-06 0.0000000e+00 
0.0000000e+00 -7.8943731e-06 0.0000000e+00 
0.0000000e+00 -1.1819400e-05 0.0000000e+00 
-1.1765224e-07 -1.5603635e-05 0.0000000e+00 
-1.4134777e-07 -1.5478010e-05 0.0000000e+00 
-8.8927827e-08 -1.5324264e-05 0.0000000e+00 
0.0000000e+00 -1.1557279e-05 0.0000000e+00 
0.0000000e+00 -7.7996137e-06 0.0000000e+00 
0.0000000e+00 -3.9404736e-06 0.0000000e+00 
-8.8907449e-08 -5.9093472e-06 0.0000000e+00 
-7.3578342e-08 -3.3753374e-06 0.0000000e+00 
-1.4768698e-07 -9.8572482e-06 0.0000000e+00 
-2.0537972e-07 -1.1611416e-05 0.0000000e+00 
-9.2611778e-08 -5.9777331e-06 0.0000000e+00 
-1.9398183e-07 -7.8104467e-06 0.0000000e+00 
-2.0458509e-07 -1.2280580e-05 0.0000000e+00 
-1.0089700e-07 -3.9999495e-06 0.0000000e+00 
-1.2261582e-07 -9.5570740e-06 0.0000000e+00 
-1.6430266e-07 -7.7948971e-06 0.0000000e+00 
-3.6431747e-08 -2.8860418e-06 0.0000000e+00 
-1.2966544e-07 -1.2845023e-05 0.0000000e+00 
-9.8053675e-08 -1.2654053e-05 0.0000000e+00 
-4.6516050e-08 -2.8995196e-06 0.0000000e+00 
VELOCITY 3 30  float
0.0000000e+00 0.0000000e+00 0.0000000e+00 
0.0000000e+00 0.0000000e+00 0.0000000e+00 
0.0000000e+00 3.9812416e-04 0.0000000e+00 
0.0000000e+00 2.2330358e-04 0.0000000e+00 
0.0000000e+00 0.0000000e+00 0.0000000e+00 
0.0000000e+00 0.0000000e+00 0.0000000e+00 
0.0000000e+00 0.0000000e+00 0.0000000e+00 
0.0000000e+00 1.1306169e-04 0.0000000e+00 
0.0000000e+00 2.3013422e-04 0.0000000e+00 
0.0000000e+00 3.3296354e-04 0.0000000e+00 
6.5823762e-05 3.7215272e-04 0.0000000e+00 
8.6762142e-05 3.2346603e-04 0.0000000e+00 
6.0747927e-05 2.6464908e-04 0.0000000e+00 
0.0000000e+00 2.4978467e-04 0.0000000e+00 
0.0000000e+00 2.1471128e-04 0.0000000e+00 
0.0000000e+00 1.2626160e-04 0.0000000e+00 
3.9185539e-05 1.8024760e-04 0.0000000e+00 
2.9923051e-05 1.0239614e-04 0.0000000e+00 
7.0205679e-05 2.8389876e-04 0.0000000e+00 
1.0619275e-04 2.8431171e-04 0.0000000e+00 
4.1185172e-05 1.7522647e-04 0.0000000e+00 
8.7327382e-05 2.3154421e-04 0.0000000e+00 
1.0489547e-04 3.2303669e-04 0.0000000e+00 
4.0229508e-05 1.2949329e-04 0.0000000e+00 
6.0222843e-05 2.4262677e-04 0.0000000e+00 
7.5516240e-05 2.2245245e-04 0.0000000e+00 
1.5322590e-05 8.3123210e-05 0.0000000e+00 
6.8016634e-05 3.5099362e-04 0.0000000e+00 
5.8276029e-05 2.5765502e-04 0.0000000e+00 
1.8080740e-05 9.6211857e-05 0.0000000e+00 
CELL_DATA 42
FIELD FieldData 0
