# vtk DataFile Version 4.0
vtk output
ASCII
DATASET UNSTRUCTURED_GRID
POINTS 30 float
0.0000000e+00 0.0000000e+00 0.0000000e+00 
1.0000000e+00 0.0000000e+00 0.0000000e+00 
1.0000000e+00 1.0000000e+00 0.0000000e+00 
0.0000000e+00 1.0000000e+00 0.0000000e+00 
2.5000000e-01 0.0000000e+00 0.0000000e+00 
5.0000000e-01 0.0000000e+00 0.0000000e+00 
7.5000000e-01 0.0000000e+00 0.0000000e+00 
1.0000000e+00 2.5000000e-01 0.0000000e+00 
1.0000000e+00 5.0000000e-01 0.0000000e+00 
1.0000000e+00 7.5000000e-01 0.0000000e+00 
7.5000000e-01 1.0000000e+00 0.0000000e+00 
5.0000000e-01 1.0000000e+00 0.0000000e+00 
2.5000000e-01 1.0000000e+00 0.0000000e+00 
0.0000000e+00 7.5000000e-01 0.0000000e+00 
0.0000000e+00 5.0000000e-01 0.0000000e+00 
0.0000000e+00 2.5000000e-01 0.0000000e+00 
1.9194904e-01 3.7563103e-01 0.0000000e+00 
6.3590682e-01 2.1323122e-01 0.0000000e+00 
7.8895766e-01 6.2466627e-01 0.0000000e+00 
3.8539964e-01 7.4551302e-01 0.0000000e+00 
8.0207902e-01 3.7843281e-01 0.0000000e+00 
5.6919098e-01 4.9434972e-01 0.0000000e+00 
6.2870389e-01 7.8320098e-01 0.0000000e+00 
3.8600761e-01 2.5211850e-01 0.0000000e+00 
1.8872584e-01 6.1445600e-01 0.0000000e+00 
3.4425461e-01 4.9641365e-01 0.0000000e+00 
8.1698728e-01 1.8301271e-01 0.0000000e+00 
8.1698728e-01 8.1698728e-01 0.0000000e+00 
1.6482510e-01 8.2199383e-01 0.0000000e+00 
1.8301271e-01 1.8301271e-01 0.0000000e+00 

CELLS 42 168
3 21 22 19
3 21 23 17
3 19 25 21
3 21 25 23
3 18 22 21
3 20 21 17
3 23 25 16
3 9 18 8
3 12 19 11
3 15 16 14
3 6 17 5
3 24 25 19
3 5 23 4
3 8 20 7
3 14 24 13
3 11 22 10
3 18 21 20
3 18 20 8
3 16 24 14
3 19 22 11
3 17 23 5
3 2 27 9
3 3 28 12
3 0 29 15
3 1 26 6
3 10 27 2
3 13 28 3
3 4 29 0
3 7 26 1
3 23 29 4
3 20 26 7
3 22 27 10
3 24 28 13
3 9 27 18
3 6 26 17
3 12 28 19
3 15 29 16
3 16 29 23
3 18 27 22
3 19 28 24
3 17 26 20
3 16 25 24

CELL_TYPES 42
5
5
5
5
5
5
5
5
5
5
5
5
5
5
5
5
5
5
5
5
5
5
5
5
5
5
5
5
5
5
5
5
5
5
5
5
5
5
5
5
5
5
POINT_DATA 30
FIELD FieldData 2
DISPLACEMENT 3 30  float
0.0000000e+00 0.0000000e+00 0.0000000e+00 
0.0000000e+00 0.0000000e+00 0.0000000e+00 
0.0000000e+00 -1.2671288e-05 0.0000000e+00 
0.0000000e+00 -1.3656410e-05 0.0000000e+00 
0.0000000e+00 0.0000000e+00 0.0000000e+00 
0.0000000e+00 0.0000000e+00 0.0000000e+00 
0.0000000e+00 0.0000000e+00 0.0000000e+00 
0.0000000e+00 -3.1060829e-06 0.0000000e+00 
0.0000000e+00 -6.1867590e-06 0.0000000e+00 
0.0000000e+00 -9.3334284e-06 0.0000000e+00 
3.7133967e-07 -1.2816354e-05 0.0000000e+00 
4.6555414e-07 -1.3101698e-05 0.0000000e+00 
3.1902835e-07 -1.3450521e-05 0.0000000e+00 
0.0000000e+00 -9.8516011e-06 0.0000000e+00 
0.0000000e+00 -6.3055945e-06 0.0000000e+00 
0.0000000e+00 -3.0550516e-06 0.0000000e+00 
2.1084696e-07 -4.6309333e-06 0.0000000e+00 
1.6916567e-07 -2.6067273e-06 0.0000000e+00 
3.8744190e-07 -7.7342120e-06 0.0000000e+00 
5.8061278e-07 -9.5383893e-06 0.0000000e+00 
2.2673785e-07 -4.6693081e-06 0.0000000e+00 
4.8343497e-07 -6.0762022e-06 0.0000000e+00 
5.7870238e-07 -9.8652827e-06 0.0000000e+00 
2.2879554e-07 -3.0464555e-06 0.0000000e+00 
3.3250871e-07 -7.8458752e-06 0.0000000e+00 
4.1193283e-07 -6.1851561e-06 0.0000000e+00 
8.4989928e-08 -2.2678178e-06 0.0000000e+00 
3.6791445e-07 -1.0230112e-05 0.0000000e+00 
2.9810059e-07 -1.0856867e-05 0.0000000e+00 
1.0372345e-07 -2.2095126e-06 0.0000000e+00 
VELOCITY 3 30  float
0.0000000e+00 0.0000000e+00 0.0000000e+00 
0.0000000e+00 0.0000000e+00 0.0000000e+00 
0.0000000e+00 -4.7529052e-04 0.0000000e+00 
0.0000000e+00 -3.3329026e-04 0.0000000e+00 
0.0000000e+00 0.0000000e+00 0.0000000e+00 
0.0000000e+00 0.0000000e+00 0.0000000e+00 
0.0000000e+00 0.0000000e+00 0.0000000e+00 
0.0000000e+00 -1.2688343e-04 0.0000000e+00 
0.0000000e+00 -2.6086930e-04 0.0000000e+00 
0.0000000e+00 -3.8921967e-04 0.0000000e+00 
-1.2394429e-04 -4.9160345e-04 0.0000000e+00 
-1.5887294e-04 -4.7552065e-04 0.0000000e+00 
-1.0770055e-04 -4.0587306e-04 0.0000000e+00 
0.0000000e+00 -3.7912288e-04 0.0000000e+00 
0.0000000e+00 -3.2601799e-04 0.0000000e+00 
0.0000000e+00 -1.9144134e-04 0.0000000e+00 
-5.6955352e-05 -2.7670409e-04 0.0000000e+00 
-3.1219781e-05 -1.3825655e-04 0.0000000e+00 
-9.2348950e-05 -3.5308243e-04 0.0000000e+00 
-1.6398217e-04 -4.3203289e-04 0.0000000e+00 
-4.4241879e-05 -2.1146434e-04 0.0000000e+00 
-1.1730842e-04 -3.2904278e-04 0.0000000e+00 
-1.5918551e-04 -4.4863170e-04 0.0000000e+00 
-5.7218560e-05 -1.9966606e-04 0.0000000e+00 
-8.9720284e-05 -3.7281006e-04 0.0000000e+00 
-1.0786395e-04 -3.3960710e-04 0.0000000e+00 
-1.3013099e-05 -9.9715115e-05 0.0000000e+00 
-9.8732999e-05 -4.3809312e-04 0.0000000e+00 
-9.3320428e-05 -3.9587176e-04 0.0000000e+00 
-2.8694891e-05 -1.4927234e-04 0.0000000e+00 
CELL_DATA 42
FIELD FieldData 0
