# vtk DataFile Version 4.0
vtk output
ASCII
DATASET UNSTRUCTURED_GRID
POINTS 30 float
0.0000000e+00 0.0000000e+00 0.0000000e+00 
1.0000000e+00 0.0000000e+00 0.0000000e+00 
1.0000000e+00 1.0000000e+00 0.0000000e+00 
0.0000000e+00 1.0000000e+00 0.0000000e+00 
2.5000000e-01 0.0000000e+00 0.0000000e+00 
5.0000000e-01 0.0000000e+00 0.0000000e+00 
7.5000000e-01 0.0000000e+00 0.0000000e+00 
1.0000000e+00 2.5000000e-01 0.0000000e+00 
1.0000000e+00 5.0000000e-01 0.0000000e+00 
1.0000000e+00 7.5000000e-01 0.0000000e+00 
7.5000000e-01 1.0000000e+00 0.0000000e+00 
5.0000000e-01 1.0000000e+00 0.0000000e+00 
2.5000000e-01 1.0000000e+00 0.0000000e+00 
0.0000000e+00 7.5000000e-01 0.0000000e+00 
0.0000000e+00 5.0000000e-01 0.0000000e+00 
0.0000000e+00 2.5000000e-01 0.0000000e+00 
1.9194904e-01 3.7563103e-01 0.0000000e+00 
6.3590682e-01 2.1323122e-01 0.0000000e+00 
7.8895766e-01 6.2466627e-01 0.0000000e+00 
3.8539964e-01 7.4551302e-01 0.0000000e+00 
8.0207902e-01 3.7843281e-01 0.0000000e+00 
5.6919098e-01 4.9434972e-01 0.0000000e+00 
6.2870389e-01 7.8320098e-01 0.0000000e+00 
3.8600761e-01 2.5211850e-01 0.0000000e+00 
1.8872584e-01 6.1445600e-01 0.0000000e+00 
3.4425461e-01 4.9641365e-01 0.0000000e+00 
8.1698728e-01 1.8301271e-01 0.0000000e+00 
8.1698728e-01 8.1698728e-01 0.0000000e+00 
1.6482510e-01 8.2199383e-01 0.0000000e+00 
1.8301271e-01 1.8301271e-01 0.0000000e+00 

CELLS 42 168
3 21 22 19
3 21 23 17
3 19 25 21
3 21 25 23
3 18 22 21
3 20 21 17
3 23 25 16
3 9 18 8
3 12 19 11
3 15 16 14
3 6 17 5
3 24 25 19
3 5 23 4
3 8 20 7
3 14 24 13
3 11 22 10
3 18 21 20
3 18 20 8
3 16 24 14
3 19 22 11
3 17 23 5
3 2 27 9
3 3 28 12
3 0 29 15
3 1 26 6
3 10 27 2
3 13 28 3
3 4 29 0
3 7 26 1
3 23 29 4
3 20 26 7
3 22 27 10
3 24 28 13
3 9 27 18
3 6 26 17
3 12 28 19
3 15 29 16
3 16 29 23
3 18 27 22
3 19 28 24
3 17 26 20
3 16 25 24

CELL_TYPES 42
5
5
5
5
5
5
5
5
5
5
5
5
5
5
5
5
5
5
5
5
5
5
5
5
5
5
5
5
5
5
5
5
5
5
5
5
5
5
5
5
5
5
POINT_DATA 30
FIELD FieldData 2
DISPLACEMENT 3 30  float
0.0000000e+00 0.0000000e+00 0.0000000e+00 
0.0000000e+00 0.0000000e+00 0.0000000e+00 
0.0000000e+00 -1.4850769e-05 0.0000000e+00 
0.0000000e+00 -1.4853284e-05 0.0000000e+00 
0.0000000e+00 0.0000000e+00 0.0000000e+00 
0.0000000e+00 0.0000000e+00 0.0000000e+00 
0.0000000e+00 0.0000000e+00 0.0000000e+00 
0.0000000e+00 -3.7125285e-06 0.0000000e+00 
0.0000000e+00 -7.4249851e-06 0.0000000e+00 
0.0000000e+00 -1.1137619e-05 0.0000000e+00 
1.2022855e-09 -1.4851104e-05 0.0000000e+00 
1.5204094e-09 -1.4851757e-05 0.0000000e+00 
1.0381318e-09 -1.4852717e-05 0.0000000e+00 
0.0000000e+00 -1.1138767e-05 0.0000000e+00 
0.0000000e+00 -7.4249856e-06 0.0000000e+00 
0.0000000e+00 -3.7121704e-06 0.0000000e+00 
6.5369499e-10 -5.5777782e-06 0.0000000e+00 
4.6367432e-10 -3.1663276e-06 0.0000000e+00 
1.1435244e-09 -9.2762275e-06 0.0000000e+00 
1.7915683e-09 -1.1071392e-05 0.0000000e+00 
6.4532207e-10 -5.6196495e-06 0.0000000e+00 
1.4369661e-09 -7.3407837e-06 0.0000000e+00 
1.7557166e-09 -1.1630814e-05 0.0000000e+00 
6.6102634e-10 -3.7435864e-06 0.0000000e+00 
1.0393000e-09 -9.1249904e-06 0.0000000e+00 
1.2671530e-09 -7.3715514e-06 0.0000000e+00 
2.2787519e-10 -2.7177280e-06 0.0000000e+00 
1.0945304e-09 -1.2132529e-05 0.0000000e+00 
9.1503982e-10 -1.2208186e-05 0.0000000e+00 
3.0432923e-10 -2.7174272e-06 0.0000000e+00 
VELOCITY 3 30  float
0.0000000e+00 0.0000000e+00 0.0000000e+00 
0.0000000e+00 0.0000000e+00 0.0000000e+00 
0.0000000e+00 5.7155194e-07 0.0000000e+00 
0.0000000e+00 3.4556385e-07 0.0000000e+00 
0.0000000e+00 0.0000000e+00 0.0000000e+00 
0.0000000e+00 0.0000000e+00 0.0000000e+00 
0.0000000e+00 0.0000000e+00 0.0000000e+00 
0.0000000e+00 1.9937372e-07 0.0000000e+00 
0.0000000e+00 4.3941293e-07 0.0000000e+00 
0.0000000e+00 7.1747513e-07 0.0000000e+00 
1.1000816e-07 7.4756508e-07 0.0000000e+00 
2.0539719e-07 6.9100713e-07 0.0000000e+00 
1.0802424e-07 5.1287554e-07 0.0000000e+00 
0.0000000e+00 6.0332161e-07 0.0000000e+00 
0.0000000e+00 3.9680995e-07 0.0000000e+00 
0.0000000e+00 2.6144022e-07 0.0000000e+00 
9.2920878e-08 3.7173743e-07 0.0000000e+00 
5.3263520e-08 2.0424692e-07 0.0000000e+00 
9.8613043e-08 5.3085779e-07 0.0000000e+00 
2.2091447e-07 5.7009123e-07 0.0000000e+00 
8.9388422e-08 3.3512831e-07 0.0000000e+00 
1.8895814e-07 4.7723790e-07 0.0000000e+00 
2.0217276e-07 6.3402251e-07 0.0000000e+00 
7.5270066e-08 2.5923680e-07 0.0000000e+00 
1.0141135e-07 4.9760507e-07 0.0000000e+00 
1.5967616e-07 4.6311825e-07 0.0000000e+00 
3.0943134e-08 1.6376741e-07 0.0000000e+00 
1.7733582e-07 7.6639856e-07 0.0000000e+00 
1.6981561e-07 5.3347833e-07 0.0000000e+00 
3.6661518e-08 1.9979031e-07 0.0000000e+00 
CELL_DATA 42
FIELD FieldData 0
