# vtk DataFile Version 4.0
vtk output
ASCII
DATASET UNSTRUCTURED_GRID
POINTS 30 float
0.0000000e+00 0.0000000e+00 0.0000000e+00 
1.0000000e+00 0.0000000e+00 0.0000000e+00 
1.0000000e+00 1.0000000e+00 0.0000000e+00 
0.0000000e+00 1.0000000e+00 0.0000000e+00 
2.5000000e-01 0.0000000e+00 0.0000000e+00 
5.0000000e-01 0.0000000e+00 0.0000000e+00 
7.5000000e-01 0.0000000e+00 0.0000000e+00 
1.0000000e+00 2.5000000e-01 0.0000000e+00 
1.0000000e+00 5.0000000e-01 0.0000000e+00 
1.0000000e+00 7.5000000e-01 0.0000000e+00 
7.5000000e-01 1.0000000e+00 0.0000000e+00 
5.0000000e-01 1.0000000e+00 0.0000000e+00 
2.5000000e-01 1.0000000e+00 0.0000000e+00 
0.0000000e+00 7.5000000e-01 0.0000000e+00 
0.0000000e+00 5.0000000e-01 0.0000000e+00 
0.0000000e+00 2.5000000e-01 0.0000000e+00 
1.9194904e-01 3.7563103e-01 0.0000000e+00 
6.3590682e-01 2.1323122e-01 0.0000000e+00 
7.8895766e-01 6.2466627e-01 0.0000000e+00 
3.8539964e-01 7.4551302e-01 0.0000000e+00 
8.0207902e-01 3.7843281e-01 0.0000000e+00 
5.6919098e-01 4.9434972e-01 0.0000000e+00 
6.2870389e-01 7.8320098e-01 0.0000000e+00 
3.8600761e-01 2.5211850e-01 0.0000000e+00 
1.8872584e-01 6.1445600e-01 0.0000000e+00 
3.4425461e-01 4.9641365e-01 0.0000000e+00 
8.1698728e-01 1.8301271e-01 0.0000000e+00 
8.1698728e-01 8.1698728e-01 0.0000000e+00 
1.6482510e-01 8.2199383e-01 0.0000000e+00 
1.8301271e-01 1.8301271e-01 0.0000000e+00 

CELLS 42 168
3 21 22 19
3 21 23 17
3 19 25 21
3 21 25 23
3 18 22 21
3 20 21 17
3 23 25 16
3 9 18 8
3 12 19 11
3 15 16 14
3 6 17 5
3 24 25 19
3 5 23 4
3 8 20 7
3 14 24 13
3 11 22 10
3 18 21 20
3 18 20 8
3 16 24 14
3 19 22 11
3 17 23 5
3 2 27 9
3 3 28 12
3 0 29 15
3 1 26 6
3 10 27 2
3 13 28 3
3 4 29 0
3 7 26 1
3 23 29 4
3 20 26 7
3 22 27 10
3 24 28 13
3 9 27 18
3 6 26 17
3 12 28 19
3 15 29 16
3 16 29 23
3 18 27 22
3 19 28 24
3 17 26 20
3 16 25 24

CELL_TYPES 42
5
5
5
5
5
5
5
5
5
5
5
5
5
5
5
5
5
5
5
5
5
5
5
5
5
5
5
5
5
5
5
5
5
5
5
5
5
5
5
5
5
5
POINT_DATA 30
FIELD FieldData 2
DISPLACEMENT 3 30  float
0.0000000e+00 0.0000000e+00 0.0000000e+00 
0.0000000e+00 0.0000000e+00 0.0000000e+00 
0.0000000e+00 -1.4692417e-05 0.0000000e+00 
0.0000000e+00 -1.4747079e-05 0.0000000e+00 
0.0000000e+00 0.0000000e+00 0.0000000e+00 
0.0000000e+00 0.0000000e+00 0.0000000e+00 
0.0000000e+00 0.0000000e+00 0.0000000e+00 
0.0000000e+00 -3.6689573e-06 0.0000000e+00 
0.0000000e+00 -7.3361762e-06 0.0000000e+00 
0.0000000e+00 -1.1007481e-05 0.0000000e+00 
3.4233931e-08 -1.4698251e-05 0.0000000e+00 
4.4286715e-08 -1.4710851e-05 0.0000000e+00 
3.0790396e-08 -1.4733042e-05 0.0000000e+00 
0.0000000e+00 -1.1026124e-05 0.0000000e+00 
0.0000000e+00 -7.3273391e-06 0.0000000e+00 
0.0000000e+00 -3.6549927e-06 0.0000000e+00 
1.6871489e-08 -5.4964084e-06 0.0000000e+00 
1.0937385e-08 -3.1235854e-06 0.0000000e+00 
2.9487675e-08 -9.1630318e-06 0.0000000e+00 
4.8661111e-08 -1.0944123e-05 0.0000000e+00 
1.5997184e-08 -5.5502151e-06 0.0000000e+00 
3.6770142e-08 -7.2422190e-06 0.0000000e+00 
4.7226724e-08 -1.1494960e-05 0.0000000e+00 
1.6072397e-08 -3.6867048e-06 0.0000000e+00 
2.7926031e-08 -9.0145850e-06 0.0000000e+00 
3.3077338e-08 -7.2724215e-06 0.0000000e+00 
5.3394822e-09 -2.6846949e-06 0.0000000e+00 
2.9402436e-08 -1.1992963e-05 0.0000000e+00 
2.5732659e-08 -1.2090911e-05 0.0000000e+00 
7.4956867e-09 -2.6741825e-06 0.0000000e+00 
VELOCITY 3 30  float
0.0000000e+00 0.0000000e+00 0.0000000e+00 
0.0000000e+00 0.0000000e+00 0.0000000e+00 
0.0000000e+00 -8.7255576e-05 0.0000000e+00 
0.0000000e+00 -5.1995616e-05 0.0000000e+00 
0.0000000e+00 0.0000000e+00 0.0000000e+00 
0.0000000e+00 0.0000000e+00 0.0000000e+00 
0.0000000e+00 0.0000000e+00 0.0000000e+00 
0.0000000e+00 -2.3855633e-05 0.0000000e+00 
0.0000000e+00 -4.8530459e-05 0.0000000e+00 
0.0000000e+00 -7.0953887e-05 0.0000000e+00 
-1.5783731e-05 -8.1178994e-05 0.0000000e+00 
-1.9299709e-05 -7.1119393e-05 0.0000000e+00 
-1.3406652e-05 -5.8295704e-05 0.0000000e+00 
0.0000000e+00 -5.2257503e-05 0.0000000e+00 
0.0000000e+00 -4.6947498e-05 0.0000000e+00 
0.0000000e+00 -2.7818138e-05 0.0000000e+00 
-8.7253893e-06 -3.9714268e-05 0.0000000e+00 
-6.5357885e-06 -2.2543476e-05 0.0000000e+00 
-1.5665319e-05 -6.1231964e-05 0.0000000e+00 
-2.3621285e-05 -6.3568063e-05 0.0000000e+00 
-8.9008745e-06 -3.7704816e-05 0.0000000e+00 
-1.9468798e-05 -5.1390132e-05 0.0000000e+00 
-2.3273358e-05 -7.1154143e-05 0.0000000e+00 
-9.2104101e-06 -2.8849587e-05 0.0000000e+00 
-1.4173861e-05 -5.3417942e-05 0.0000000e+00 
-1.6958646e-05 -4.9116286e-05 0.0000000e+00 
-3.2484074e-06 -1.7867278e-05 0.0000000e+00 
-1.4147930e-05 -7.4671196e-05 0.0000000e+00 
-1.1193711e-05 -5.6005974e-05 0.0000000e+00 
-4.2641373e-06 -2.1384325e-05 0.0000000e+00 
CELL_DATA 42
FIELD FieldData 0
