# vtk DataFile Version 4.0
vtk output
ASCII
DATASET UNSTRUCTURED_GRID
POINTS 30 float
0.0000000e+00 0.0000000e+00 0.0000000e+00 
1.0000000e+00 0.0000000e+00 0.0000000e+00 
1.0000000e+00 1.0000000e+00 0.0000000e+00 
0.0000000e+00 1.0000000e+00 0.0000000e+00 
2.5000000e-01 0.0000000e+00 0.0000000e+00 
5.0000000e-01 0.0000000e+00 0.0000000e+00 
7.5000000e-01 0.0000000e+00 0.0000000e+00 
1.0000000e+00 2.5000000e-01 0.0000000e+00 
1.0000000e+00 5.0000000e-01 0.0000000e+00 
1.0000000e+00 7.5000000e-01 0.0000000e+00 
7.5000000e-01 1.0000000e+00 0.0000000e+00 
5.0000000e-01 1.0000000e+00 0.0000000e+00 
2.5000000e-01 1.0000000e+00 0.0000000e+00 
0.0000000e+00 7.5000000e-01 0.0000000e+00 
0.0000000e+00 5.0000000e-01 0.0000000e+00 
0.0000000e+00 2.5000000e-01 0.0000000e+00 
1.9194904e-01 3.7563103e-01 0.0000000e+00 
6.3590682e-01 2.1323122e-01 0.0000000e+00 
7.8895766e-01 6.2466627e-01 0.0000000e+00 
3.8539964e-01 7.4551302e-01 0.0000000e+00 
8.0207902e-01 3.7843281e-01 0.0000000e+00 
5.6919098e-01 4.9434972e-01 0.0000000e+00 
6.2870389e-01 7.8320098e-01 0.0000000e+00 
3.8600761e-01 2.5211850e-01 0.0000000e+00 
1.8872584e-01 6.1445600e-01 0.0000000e+00 
3.4425461e-01 4.9641365e-01 0.0000000e+00 
8.1698728e-01 1.8301271e-01 0.0000000e+00 
8.1698728e-01 8.1698728e-01 0.0000000e+00 
1.6482510e-01 8.2199383e-01 0.0000000e+00 
1.8301271e-01 1.8301271e-01 0.0000000e+00 

CELLS 42 168
3 21 22 19
3 21 23 17
3 19 25 21
3 21 25 23
3 18 22 21
3 20 21 17
3 23 25 16
3 9 18 8
3 12 19 11
3 15 16 14
3 6 17 5
3 24 25 19
3 5 23 4
3 8 20 7
3 14 24 13
3 11 22 10
3 18 21 20
3 18 20 8
3 16 24 14
3 19 22 11
3 17 23 5
3 2 27 9
3 3 28 12
3 0 29 15
3 1 26 6
3 10 27 2
3 13 28 3
3 4 29 0
3 7 26 1
3 23 29 4
3 20 26 7
3 22 27 10
3 24 28 13
3 9 27 18
3 6 26 17
3 12 28 19
3 15 29 16
3 16 29 23
3 18 27 22
3 19 28 24
3 17 26 20
3 16 25 24

CELL_TYPES 42
5
5
5
5
5
5
5
5
5
5
5
5
5
5
5
5
5
5
5
5
5
5
5
5
5
5
5
5
5
5
5
5
5
5
5
5
5
5
5
5
5
5
POINT_DATA 30
FIELD FieldData 2
DISPLACEMENT 3 30  float
0.0000000e+00 0.0000000e+00 0.0000000e+00 
0.0000000e+00 0.0000000e+00 0.0000000e+00 
0.0000000e+00 -1.4858324e-05 0.0000000e+00 
0.0000000e+00 -1.4857874e-05 0.0000000e+00 
0.0000000e+00 0.0000000e+00 0.0000000e+00 
0.0000000e+00 0.0000000e+00 0.0000000e+00 
0.0000000e+00 0.0000000e+00 0.0000000e+00 
0.0000000e+00 -3.7146099e-06 0.0000000e+00 
0.0000000e+00 -7.4292316e-06 0.0000000e+00 
0.0000000e+00 -1.1143819e-05 0.0000000e+00 
-2.2785544e-10 -1.4858259e-05 0.0000000e+00 
-2.8798935e-10 -1.4858146e-05 0.0000000e+00 
-1.9845922e-10 -1.4857975e-05 0.0000000e+00 
0.0000000e+00 -1.1143627e-05 0.0000000e+00 
0.0000000e+00 -7.4292475e-06 0.0000000e+00 
0.0000000e+00 -3.7146826e-06 0.0000000e+00 
-1.1984153e-10 -5.5813716e-06 0.0000000e+00 
-8.3656665e-11 -3.1683176e-06 0.0000000e+00 
-2.1180838e-10 -9.2815917e-06 0.0000000e+00 
-3.3393574e-10 -1.1077092e-05 0.0000000e+00 
-1.1725648e-10 -5.6229433e-06 0.0000000e+00 
-2.6342753e-10 -7.3453366e-06 0.0000000e+00 
-3.2703770e-10 -1.1637115e-05 0.0000000e+00 
-1.1995943e-10 -3.7461657e-06 0.0000000e+00 
-1.9363251e-10 -9.1298261e-06 0.0000000e+00 
-2.3368182e-10 -7.3759875e-06 0.0000000e+00 
-4.0836060e-11 -2.7192889e-06 0.0000000e+00 
-2.0240823e-10 -1.2139122e-05 0.0000000e+00 
-1.7085822e-10 -1.2213288e-05 0.0000000e+00 
-5.5291136e-11 -2.7193487e-06 0.0000000e+00 
VELOCITY 3 30  float
0.0000000e+00 0.0000000e+00 0.0000000e+00 
0.0000000e+00 0.0000000e+00 0.0000000e+00 
0.0000000e+00 3.4883763e-07 0.0000000e+00 
0.0000000e+00 1.9814455e-07 0.0000000e+00 
0.0000000e+00 0.0000000e+00 0.0000000e+00 
0.0000000e+00 0.0000000e+00 0.0000000e+00 
0.0000000e+00 0.0000000e+00 0.0000000e+00 
0.0000000e+00 7.7652857e-08 0.0000000e+00 
0.0000000e+00 1.5164622e-07 0.0000000e+00 
0.0000000e+00 1.7104064e-07 0.0000000e+00 
6.4651509e-08 2.3914018e-07 0.0000000e+00 
5.7906053e-08 2.1097988e-07 0.0000000e+00 
4.9190881e-08 1.9164264e-07 0.0000000e+00 
0.0000000e+00 1.3647453e-07 0.0000000e+00 
0.0000000e+00 1.6809494e-07 0.0000000e+00 
0.0000000e+00 8.2509132e-08 0.0000000e+00 
2.1717687e-08 1.2515336e-07 0.0000000e+00 
2.0685860e-08 7.0064061e-08 0.0000000e+00 
6.3503840e-08 1.9506912e-07 0.0000000e+00 
7.3397949e-08 2.0247992e-07 0.0000000e+00 
2.0316110e-08 1.1319064e-07 0.0000000e+00 
5.2923223e-08 1.5312591e-07 0.0000000e+00 
7.7381152e-08 2.2343411e-07 0.0000000e+00 
2.7780956e-08 9.1269904e-08 0.0000000e+00 
4.9179569e-08 1.6713622e-07 0.0000000e+00 
5.1259697e-08 1.5425407e-07 0.0000000e+00 
7.7860527e-09 5.1515155e-08 0.0000000e+00 
3.0054959e-08 1.9061189e-07 0.0000000e+00 
2.2490326e-08 1.7675123e-07 0.0000000e+00 
1.3249623e-08 6.6443256e-08 0.0000000e+00 
CELL_DATA 42
FIELD FieldData 0
