# vtk DataFile Version 4.0
vtk output
ASCII
DATASET UNSTRUCTURED_GRID
POINTS 30 float
0.0000000e+00 0.0000000e+00 0.0000000e+00 
1.0000000e+00 0.0000000e+00 0.0000000e+00 
1.0000000e+00 1.0000000e+00 0.0000000e+00 
0.0000000e+00 1.0000000e+00 0.0000000e+00 
2.5000000e-01 0.0000000e+00 0.0000000e+00 
5.0000000e-01 0.0000000e+00 0.0000000e+00 
7.5000000e-01 0.0000000e+00 0.0000000e+00 
1.0000000e+00 2.5000000e-01 0.0000000e+00 
1.0000000e+00 5.0000000e-01 0.0000000e+00 
1.0000000e+00 7.5000000e-01 0.0000000e+00 
7.5000000e-01 1.0000000e+00 0.0000000e+00 
5.0000000e-01 1.0000000e+00 0.0000000e+00 
2.5000000e-01 1.0000000e+00 0.0000000e+00 
0.0000000e+00 7.5000000e-01 0.0000000e+00 
0.0000000e+00 5.0000000e-01 0.0000000e+00 
0.0000000e+00 2.5000000e-01 0.0000000e+00 
1.9194904e-01 3.7563103e-01 0.0000000e+00 
6.3590682e-01 2.1323122e-01 0.0000000e+00 
7.8895766e-01 6.2466627e-01 0.0000000e+00 
3.8539964e-01 7.4551302e-01 0.0000000e+00 
8.0207902e-01 3.7843281e-01 0.0000000e+00 
5.6919098e-01 4.9434972e-01 0.0000000e+00 
6.2870389e-01 7.8320098e-01 0.0000000e+00 
3.8600761e-01 2.5211850e-01 0.0000000e+00 
1.8872584e-01 6.1445600e-01 0.0000000e+00 
3.4425461e-01 4.9641365e-01 0.0000000e+00 
8.1698728e-01 1.8301271e-01 0.0000000e+00 
8.1698728e-01 8.1698728e-01 0.0000000e+00 
1.6482510e-01 8.2199383e-01 0.0000000e+00 
1.8301271e-01 1.8301271e-01 0.0000000e+00 

CELLS 42 168
3 21 22 19
3 21 23 17
3 19 25 21
3 21 25 23
3 18 22 21
3 20 21 17
3 23 25 16
3 9 18 8
3 12 19 11
3 15 16 14
3 6 17 5
3 24 25 19
3 5 23 4
3 8 20 7
3 14 24 13
3 11 22 10
3 18 21 20
3 18 20 8
3 16 24 14
3 19 22 11
3 17 23 5
3 2 27 9
3 3 28 12
3 0 29 15
3 1 26 6
3 10 27 2
3 13 28 3
3 4 29 0
3 7 26 1
3 23 29 4
3 20 26 7
3 22 27 10
3 24 28 13
3 9 27 18
3 6 26 17
3 12 28 19
3 15 29 16
3 16 29 23
3 18 27 22
3 19 28 24
3 17 26 20
3 16 25 24

CELL_TYPES 42
5
5
5
5
5
5
5
5
5
5
5
5
5
5
5
5
5
5
5
5
5
5
5
5
5
5
5
5
5
5
5
5
5
5
5
5
5
5
5
5
5
5
POINT_DATA 30
FIELD FieldData 2
DISPLACEMENT 3 30  float
0.0000000e+00 0.0000000e+00 0.0000000e+00 
0.0000000e+00 0.0000000e+00 0.0000000e+00 
0.0000000e+00 -1.4854722e-05 0.0000000e+00 
0.0000000e+00 -1.4855652e-05 0.0000000e+00 
0.0000000e+00 0.0000000e+00 0.0000000e+00 
0.0000000e+00 0.0000000e+00 0.0000000e+00 
0.0000000e+00 0.0000000e+00 0.0000000e+00 
0.0000000e+00 -3.7136197e-06 0.0000000e+00 
0.0000000e+00 -7.4272139e-06 0.0000000e+00 
0.0000000e+00 -1.1140875e-05 0.0000000e+00 
4.6477658e-10 -1.4854849e-05 0.0000000e+00 
5.8892458e-10 -1.4855084e-05 0.0000000e+00 
4.0438669e-10 -1.4855440e-05 0.0000000e+00 
0.0000000e+00 -1.1141280e-05 0.0000000e+00 
0.0000000e+00 -7.4271893e-06 0.0000000e+00 
0.0000000e+00 -3.7134726e-06 0.0000000e+00 
2.4694205e-10 -5.5796418e-06 0.0000000e+00 
1.7270689e-10 -3.1673680e-06 0.0000000e+00 
4.3402329e-10 -9.2790378e-06 0.0000000e+00 
6.8486206e-10 -1.1074353e-05 0.0000000e+00 
2.4209426e-10 -5.6213762e-06 0.0000000e+00 
5.4252403e-10 -7.3431620e-06 0.0000000e+00 
6.7048167e-10 -1.1634105e-05 0.0000000e+00 
2.4737234e-10 -3.7449297e-06 0.0000000e+00 
3.9667941e-10 -9.1274942e-06 0.0000000e+00 
4.8041987e-10 -7.3738565e-06 0.0000000e+00 
8.4580586e-11 -2.7185461e-06 0.0000000e+00 
4.1674175e-10 -1.2135987e-05 0.0000000e+00 
3.5134370e-10 -1.2210825e-05 0.0000000e+00 
1.1400592e-10 -2.7184251e-06 0.0000000e+00 
VELOCITY 3 30  float
0.0000000e+00 0.0000000e+00 0.0000000e+00 
0.0000000e+00 0.0000000e+00 0.0000000e+00 
0.0000000e+00 -3.6536832e-07 0.0000000e+00 
0.0000000e+00 -2.0552962e-07 0.0000000e+00 
0.0000000e+00 0.0000000e+00 0.0000000e+00 
0.0000000e+00 0.0000000e+00 0.0000000e+00 
0.0000000e+00 0.0000000e+00 0.0000000e+00 
0.0000000e+00 -7.6882422e-08 0.0000000e+00 
0.0000000e+00 -1.4443742e-07 0.0000000e+00 
0.0000000e+00 -1.5207095e-07 0.0000000e+00 
-6.6374888e-08 -2.2625460e-07 0.0000000e+00 
-5.0466383e-08 -1.9407794e-07 0.0000000e+00 
-4.8649788e-08 -1.8431015e-07 0.0000000e+00 
0.0000000e+00 -1.1060315e-07 0.0000000e+00 
0.0000000e+00 -1.6402697e-07 0.0000000e+00 
0.0000000e+00 -7.6987213e-08 0.0000000e+00 
-1.8818774e-08 -1.1719996e-07 0.0000000e+00 
-2.0673278e-08 -6.6780679e-08 0.0000000e+00 
-6.7134472e-08 -1.8968923e-07 0.0000000e+00 
-6.9022299e-08 -1.9347233e-07 0.0000000e+00 
-1.8149080e-08 -1.0899458e-07 0.0000000e+00 
-4.8680615e-08 -1.4413224e-07 0.0000000e+00 
-7.5270343e-08 -2.1476178e-07 0.0000000e+00 
-2.7866767e-08 -8.7366480e-08 0.0000000e+00 
-5.0688126e-08 -1.5657588e-07 0.0000000e+00 
-4.8155162e-08 -1.4430327e-07 0.0000000e+00 
-7.0857711e-09 -4.8708621e-08 0.0000000e+00 
-2.1435902e-08 -1.6852991e-07 0.0000000e+00 
-1.1537443e-08 -1.6375306e-07 0.0000000e+00 
-1.2840663e-08 -6.2137140e-08 0.0000000e+00 
CELL_DATA 42
FIELD FieldData 0
