# vtk DataFile Version 4.0
vtk output
ASCII
DATASET UNSTRUCTURED_GRID
POINTS 30 float
0.0000000e+00 0.0000000e+00 0.0000000e+00 
1.0000000e+00 0.0000000e+00 0.0000000e+00 
1.0000000e+00 1.0000000e+00 0.0000000e+00 
0.0000000e+00 1.0000000e+00 0.0000000e+00 
2.5000000e-01 0.0000000e+00 0.0000000e+00 
5.0000000e-01 0.0000000e+00 0.0000000e+00 
7.5000000e-01 0.0000000e+00 0.0000000e+00 
1.0000000e+00 2.5000000e-01 0.0000000e+00 
1.0000000e+00 5.0000000e-01 0.0000000e+00 
1.0000000e+00 7.5000000e-01 0.0000000e+00 
7.5000000e-01 1.0000000e+00 0.0000000e+00 
5.0000000e-01 1.0000000e+00 0.0000000e+00 
2.5000000e-01 1.0000000e+00 0.0000000e+00 
0.0000000e+00 7.5000000e-01 0.0000000e+00 
0.0000000e+00 5.0000000e-01 0.0000000e+00 
0.0000000e+00 2.5000000e-01 0.0000000e+00 
1.9194904e-01 3.7563103e-01 0.0000000e+00 
6.3590682e-01 2.1323122e-01 0.0000000e+00 
7.8895766e-01 6.2466627e-01 0.0000000e+00 
3.8539964e-01 7.4551302e-01 0.0000000e+00 
8.0207902e-01 3.7843281e-01 0.0000000e+00 
5.6919098e-01 4.9434972e-01 0.0000000e+00 
6.2870389e-01 7.8320098e-01 0.0000000e+00 
3.8600761e-01 2.5211850e-01 0.0000000e+00 
1.8872584e-01 6.1445600e-01 0.0000000e+00 
3.4425461e-01 4.9641365e-01 0.0000000e+00 
8.1698728e-01 1.8301271e-01 0.0000000e+00 
8.1698728e-01 8.1698728e-01 0.0000000e+00 
1.6482510e-01 8.2199383e-01 0.0000000e+00 
1.8301271e-01 1.8301271e-01 0.0000000e+00 

CELLS 42 168
3 21 22 19
3 21 23 17
3 19 25 21
3 21 25 23
3 18 22 21
3 20 21 17
3 23 25 16
3 9 18 8
3 12 19 11
3 15 16 14
3 6 17 5
3 24 25 19
3 5 23 4
3 8 20 7
3 14 24 13
3 11 22 10
3 18 21 20
3 18 20 8
3 16 24 14
3 19 22 11
3 17 23 5
3 2 27 9
3 3 28 12
3 0 29 15
3 1 26 6
3 10 27 2
3 13 28 3
3 4 29 0
3 7 26 1
3 23 29 4
3 20 26 7
3 22 27 10
3 24 28 13
3 9 27 18
3 6 26 17
3 12 28 19
3 15 29 16
3 16 29 23
3 18 27 22
3 19 28 24
3 17 26 20
3 16 25 24

CELL_TYPES 42
5
5
5
5
5
5
5
5
5
5
5
5
5
5
5
5
5
5
5
5
5
5
5
5
5
5
5
5
5
5
5
5
5
5
5
5
5
5
5
5
5
5
POINT_DATA 30
FIELD FieldData 2
DISPLACEMENT 3 30  float
0.0000000e+00 0.0000000e+00 0.0000000e+00 
0.0000000e+00 0.0000000e+00 0.0000000e+00 
0.0000000e+00 -1.4849669e-05 0.0000000e+00 
0.0000000e+00 -1.4853104e-05 0.0000000e+00 
0.0000000e+00 0.0000000e+00 0.0000000e+00 
0.0000000e+00 0.0000000e+00 0.0000000e+00 
0.0000000e+00 0.0000000e+00 0.0000000e+00 
0.0000000e+00 -3.7121981e-06 0.0000000e+00 
0.0000000e+00 -7.4242816e-06 0.0000000e+00 
0.0000000e+00 -1.1136609e-05 0.0000000e+00 
1.2699091e-09 -1.4850089e-05 0.0000000e+00 
1.6053889e-09 -1.4851016e-05 0.0000000e+00 
1.0453313e-09 -1.4852322e-05 0.0000000e+00 
0.0000000e+00 -1.1138394e-05 0.0000000e+00 
0.0000000e+00 -7.4246950e-06 0.0000000e+00 
0.0000000e+00 -3.7119746e-06 0.0000000e+00 
7.9199297e-10 -5.5774672e-06 0.0000000e+00 
6.0067751e-10 -3.1660491e-06 0.0000000e+00 
1.3423254e-09 -9.2754080e-06 0.0000000e+00 
2.0309880e-09 -1.1070839e-05 0.0000000e+00 
8.0332974e-10 -5.6191420e-06 0.0000000e+00 
1.7378116e-09 -7.3401852e-06 0.0000000e+00 
2.0009061e-09 -1.1629979e-05 0.0000000e+00 
8.3128282e-10 -3.7432983e-06 0.0000000e+00 
1.1683489e-09 -9.1246247e-06 0.0000000e+00 
1.5050502e-09 -7.3711003e-06 0.0000000e+00 
2.9709227e-10 -2.7174922e-06 0.0000000e+00 
1.2810124e-09 -1.2131486e-05 0.0000000e+00 
1.0464049e-09 -1.2207827e-05 0.0000000e+00 
3.8203876e-10 -2.7172475e-06 0.0000000e+00 
VELOCITY 3 30  float
0.0000000e+00 0.0000000e+00 0.0000000e+00 
0.0000000e+00 0.0000000e+00 0.0000000e+00 
0.0000000e+00 -1.0617406e-05 0.0000000e+00 
0.0000000e+00 -6.5080872e-06 0.0000000e+00 
0.0000000e+00 0.0000000e+00 0.0000000e+00 
0.0000000e+00 0.0000000e+00 0.0000000e+00 
0.0000000e+00 0.0000000e+00 0.0000000e+00 
0.0000000e+00 -3.0313761e-06 0.0000000e+00 
0.0000000e+00 -6.2852296e-06 0.0000000e+00 
0.0000000e+00 -9.2685032e-06 0.0000000e+00 
-2.0654936e-06 -1.0593885e-05 0.0000000e+00 
-2.8269096e-06 -9.6496660e-06 0.0000000e+00 
-1.8363205e-06 -7.8336861e-06 0.0000000e+00 
0.0000000e+00 -7.7100085e-06 0.0000000e+00 
0.0000000e+00 -6.3488019e-06 0.0000000e+00 
0.0000000e+00 -3.7695427e-06 0.0000000e+00 
-1.1763996e-06 -5.4172938e-06 0.0000000e+00 
-7.8026017e-07 -2.9530013e-06 0.0000000e+00 
-1.8895406e-06 -7.8643088e-06 0.0000000e+00 
-3.1855241e-06 -8.4823041e-06 0.0000000e+00 
-1.1284591e-06 -4.8344068e-06 0.0000000e+00 
-2.5285269e-06 -6.7740662e-06 0.0000000e+00 
-3.0773263e-06 -9.3116250e-06 0.0000000e+00 
-1.1079256e-06 -3.8319854e-06 0.0000000e+00 
-1.7366677e-06 -7.2832122e-06 0.0000000e+00 
-2.2386218e-06 -6.6890566e-06 0.0000000e+00 
-3.8865224e-07 -2.3011694e-06 0.0000000e+00 
-2.0673524e-06 -9.9531562e-06 0.0000000e+00 
-1.8530542e-06 -7.7476789e-06 0.0000000e+00 
-5.2024802e-07 -2.8887575e-06 0.0000000e+00 
CELL_DATA 42
FIELD FieldData 0
