# vtk DataFile Version 4.0
vtk output
ASCII
DATASET UNSTRUCTURED_GRID
POINTS 30 float
0.0000000e+00 0.0000000e+00 0.0000000e+00 
1.0000000e+00 0.0000000e+00 0.0000000e+00 
1.0000000e+00 1.0000000e+00 0.0000000e+00 
0.0000000e+00 1.0000000e+00 0.0000000e+00 
2.5000000e-01 0.0000000e+00 0.0000000e+00 
5.0000000e-01 0.0000000e+00 0.0000000e+00 
7.5000000e-01 0.0000000e+00 0.0000000e+00 
1.0000000e+00 2.5000000e-01 0.0000000e+00 
1.0000000e+00 5.0000000e-01 0.0000000e+00 
1.0000000e+00 7.5000000e-01 0.0000000e+00 
7.5000000e-01 1.0000000e+00 0.0000000e+00 
5.0000000e-01 1.0000000e+00 0.0000000e+00 
2.5000000e-01 1.0000000e+00 0.0000000e+00 
0.0000000e+00 7.5000000e-01 0.0000000e+00 
0.0000000e+00 5.0000000e-01 0.0000000e+00 
0.0000000e+00 2.5000000e-01 0.0000000e+00 
1.9194904e-01 3.7563103e-01 0.0000000e+00 
6.3590682e-01 2.1323122e-01 0.0000000e+00 
7.8895766e-01 6.2466627e-01 0.0000000e+00 
3.8539964e-01 7.4551302e-01 0.0000000e+00 
8.0207902e-01 3.7843281e-01 0.0000000e+00 
5.6919098e-01 4.9434972e-01 0.0000000e+00 
6.2870389e-01 7.8320098e-01 0.0000000e+00 
3.8600761e-01 2.5211850e-01 0.0000000e+00 
1.8872584e-01 6.1445600e-01 0.0000000e+00 
3.4425461e-01 4.9641365e-01 0.0000000e+00 
8.1698728e-01 1.8301271e-01 0.0000000e+00 
8.1698728e-01 8.1698728e-01 0.0000000e+00 
1.6482510e-01 8.2199383e-01 0.0000000e+00 
1.8301271e-01 1.8301271e-01 0.0000000e+00 

CELLS 42 168
3 21 22 19
3 21 23 17
3 19 25 21
3 21 25 23
3 18 22 21
3 20 21 17
3 23 25 16
3 9 18 8
3 12 19 11
3 15 16 14
3 6 17 5
3 24 25 19
3 5 23 4
3 8 20 7
3 14 24 13
3 11 22 10
3 18 21 20
3 18 20 8
3 16 24 14
3 19 22 11
3 17 23 5
3 2 27 9
3 3 28 12
3 0 29 15
3 1 26 6
3 10 27 2
3 13 28 3
3 4 29 0
3 7 26 1
3 23 29 4
3 20 26 7
3 22 27 10
3 24 28 13
3 9 27 18
3 6 26 17
3 12 28 19
3 15 29 16
3 16 29 23
3 18 27 22
3 19 28 24
3 17 26 20
3 16 25 24

CELL_TYPES 42
5
5
5
5
5
5
5
5
5
5
5
5
5
5
5
5
5
5
5
5
5
5
5
5
5
5
5
5
5
5
5
5
5
5
5
5
5
5
5
5
5
5
POINT_DATA 30
FIELD FieldData 2
DISPLACEMENT 3 30  float
0.0000000e+00 0.0000000e+00 0.0000000e+00 
0.0000000e+00 0.0000000e+00 0.0000000e+00 
0.0000000e+00 -1.4856677e-05 0.0000000e+00 
0.0000000e+00 -1.4856856e-05 0.0000000e+00 
0.0000000e+00 0.0000000e+00 0.0000000e+00 
0.0000000e+00 0.0000000e+00 0.0000000e+00 
0.0000000e+00 0.0000000e+00 0.0000000e+00 
0.0000000e+00 -3.7141583e-06 0.0000000e+00 
0.0000000e+00 -7.4283125e-06 0.0000000e+00 
0.0000000e+00 -1.1142482e-05 0.0000000e+00 
8.9522771e-11 -1.4856706e-05 0.0000000e+00 
1.1199044e-10 -1.4856751e-05 0.0000000e+00 
7.7574197e-11 -1.4856818e-05 0.0000000e+00 
0.0000000e+00 -1.1142559e-05 0.0000000e+00 
0.0000000e+00 -7.4283066e-06 0.0000000e+00 
0.0000000e+00 -3.7141308e-06 0.0000000e+00 
4.6758149e-11 -5.5805826e-06 0.0000000e+00 
3.2975289e-11 -3.1678849e-06 0.0000000e+00 
8.3698597e-11 -9.2804275e-06 0.0000000e+00 
1.3053260e-10 -1.1075842e-05 0.0000000e+00 
4.5801769e-11 -5.6222298e-06 0.0000000e+00 
1.0301312e-10 -7.3443462e-06 0.0000000e+00 
1.2812830e-10 -1.1635743e-05 0.0000000e+00 
4.7184815e-11 -3.7456020e-06 0.0000000e+00 
7.6055121e-11 -9.1287620e-06 0.0000000e+00 
9.1483689e-11 -7.3750157e-06 0.0000000e+00 
1.5984341e-11 -2.7189508e-06 0.0000000e+00 
7.8481915e-11 -1.2137697e-05 0.0000000e+00 
6.5939511e-11 -1.2212164e-05 0.0000000e+00 
2.1737005e-11 -2.7189276e-06 0.0000000e+00 
VELOCITY 3 30  float
0.0000000e+00 0.0000000e+00 0.0000000e+00 
0.0000000e+00 0.0000000e+00 0.0000000e+00 
0.0000000e+00 -2.6187871e-07 0.0000000e+00 
0.0000000e+00 -1.4577839e-07 0.0000000e+00 
0.0000000e+00 0.0000000e+00 0.0000000e+00 
0.0000000e+00 0.0000000e+00 0.0000000e+00 
0.0000000e+00 0.0000000e+00 0.0000000e+00 
0.0000000e+00 -5.7684751e-08 0.0000000e+00 
0.0000000e+00 -1.1481041e-07 0.0000000e+00 
0.0000000e+00 -1.2488636e-07 0.0000000e+00 
-4.8393478e-08 -1.7769813e-07 0.0000000e+00 
-4.3869118e-08 -1.5822005e-07 0.0000000e+00 
-3.6375990e-08 -1.4266496e-07 0.0000000e+00 
0.0000000e+00 -1.0352230e-07 0.0000000e+00 
0.0000000e+00 -1.2639414e-07 0.0000000e+00 
0.0000000e+00 -6.0837912e-08 0.0000000e+00 
-1.6234980e-08 -9.3763660e-08 0.0000000e+00 
-1.5587961e-08 -5.2523689e-08 0.0000000e+00 
-4.7491188e-08 -1.4594438e-07 0.0000000e+00 
-5.4955198e-08 -1.5089398e-07 0.0000000e+00 
-1.4754836e-08 -8.3942055e-08 0.0000000e+00 
-3.9483858e-08 -1.1416032e-07 0.0000000e+00 
-5.7837273e-08 -1.6673555e-07 0.0000000e+00 
-2.0475966e-08 -6.8010699e-08 0.0000000e+00 
-3.6003303e-08 -1.2470798e-07 0.0000000e+00 
-3.8584442e-08 -1.1583909e-07 0.0000000e+00 
-5.8743912e-09 -3.8270272e-08 0.0000000e+00 
-2.3049457e-08 -1.4175427e-07 0.0000000e+00 
-1.8492145e-08 -1.3277793e-07 0.0000000e+00 
-1.0092109e-08 -4.9805820e-08 0.0000000e+00 
CELL_DATA 42
FIELD FieldData 0
