# vtk DataFile Version 4.0
vtk output
ASCII
DATASET UNSTRUCTURED_GRID
POINTS 30 float
0.0000000e+00 0.0000000e+00 0.0000000e+00 
1.0000000e+00 0.0000000e+00 0.0000000e+00 
1.0000000e+00 1.0000000e+00 0.0000000e+00 
0.0000000e+00 1.0000000e+00 0.0000000e+00 
2.5000000e-01 0.0000000e+00 0.0000000e+00 
5.0000000e-01 0.0000000e+00 0.0000000e+00 
7.5000000e-01 0.0000000e+00 0.0000000e+00 
1.0000000e+00 2.5000000e-01 0.0000000e+00 
1.0000000e+00 5.0000000e-01 0.0000000e+00 
1.0000000e+00 7.5000000e-01 0.0000000e+00 
7.5000000e-01 1.0000000e+00 0.0000000e+00 
5.0000000e-01 1.0000000e+00 0.0000000e+00 
2.5000000e-01 1.0000000e+00 0.0000000e+00 
0.0000000e+00 7.5000000e-01 0.0000000e+00 
0.0000000e+00 5.0000000e-01 0.0000000e+00 
0.0000000e+00 2.5000000e-01 0.0000000e+00 
1.9194904e-01 3.7563103e-01 0.0000000e+00 
6.3590682e-01 2.1323122e-01 0.0000000e+00 
7.8895766e-01 6.2466627e-01 0.0000000e+00 
3.8539964e-01 7.4551302e-01 0.0000000e+00 
8.0207902e-01 3.7843281e-01 0.0000000e+00 
5.6919098e-01 4.9434972e-01 0.0000000e+00 
6.2870389e-01 7.8320098e-01 0.0000000e+00 
3.8600761e-01 2.5211850e-01 0.0000000e+00 
1.8872584e-01 6.1445600e-01 0.0000000e+00 
3.4425461e-01 4.9641365e-01 0.0000000e+00 
8.1698728e-01 1.8301271e-01 0.0000000e+00 
8.1698728e-01 8.1698728e-01 0.0000000e+00 
1.6482510e-01 8.2199383e-01 0.0000000e+00 
1.8301271e-01 1.8301271e-01 0.0000000e+00 

CELLS 42 168
3 21 22 19
3 21 23 17
3 19 25 21
3 21 25 23
3 18 22 21
3 20 21 17
3 23 25 16
3 9 18 8
3 12 19 11
3 15 16 14
3 6 17 5
3 24 25 19
3 5 23 4
3 8 20 7
3 14 24 13
3 11 22 10
3 18 21 20
3 18 20 8
3 16 24 14
3 19 22 11
3 17 23 5
3 2 27 9
3 3 28 12
3 0 29 15
3 1 26 6
3 10 27 2
3 13 28 3
3 4 29 0
3 7 26 1
3 23 29 4
3 20 26 7
3 22 27 10
3 24 28 13
3 9 27 18
3 6 26 17
3 12 28 19
3 15 29 16
3 16 29 23
3 18 27 22
3 19 28 24
3 17 26 20
3 16 25 24

CELL_TYPES 42
5
5
5
5
5
5
5
5
5
5
5
5
5
5
5
5
5
5
5
5
5
5
5
5
5
5
5
5
5
5
5
5
5
5
5
5
5
5
5
5
5
5
POINT_DATA 30
FIELD FieldData 2
DISPLACEMENT 3 30  float
0.0000000e+00 0.0000000e+00 0.0000000e+00 
0.0000000e+00 0.0000000e+00 0.0000000e+00 
0.0000000e+00 -1.5486066e-05 0.0000000e+00 
0.0000000e+00 -1.5203730e-05 0.0000000e+00 
0.0000000e+00 0.0000000e+00 0.0000000e+00 
0.0000000e+00 0.0000000e+00 0.0000000e+00 
0.0000000e+00 0.0000000e+00 0.0000000e+00 
0.0000000e+00 -3.8886096e-06 0.0000000e+00 
0.0000000e+00 -7.7858449e-06 0.0000000e+00 
0.0000000e+00 -1.1664081e-05 0.0000000e+00 
-1.1006916e-07 -1.5450250e-05 0.0000000e+00 
-1.3690992e-07 -1.5374324e-05 0.0000000e+00 
-8.9823587e-08 -1.5266585e-05 0.0000000e+00 
0.0000000e+00 -1.1516596e-05 0.0000000e+00 
0.0000000e+00 -7.7578688e-06 0.0000000e+00 
0.0000000e+00 -3.9108450e-06 0.0000000e+00 
-6.6787251e-08 -5.8639102e-06 0.0000000e+00 
-4.9877464e-08 -3.3326207e-06 0.0000000e+00 
-1.1373155e-07 -9.7291604e-06 0.0000000e+00 
-1.7236209e-07 -1.1530924e-05 0.0000000e+00 
-6.6888099e-08 -5.8978958e-06 0.0000000e+00 
-1.4618711e-07 -7.7193345e-06 0.0000000e+00 
-1.6965929e-07 -1.2154971e-05 0.0000000e+00 
-7.0238933e-08 -3.9546758e-06 0.0000000e+00 
-1.0047521e-07 -9.5055630e-06 0.0000000e+00 
-1.2720433e-07 -7.7299665e-06 0.0000000e+00 
-2.4530042e-08 -2.8491829e-06 0.0000000e+00 
-1.0666198e-07 -1.2690023e-05 0.0000000e+00 
-8.6263860e-08 -1.2606100e-05 0.0000000e+00 
-3.2297230e-08 -2.8717002e-06 0.0000000e+00 
VELOCITY 3 30  float
0.0000000e+00 0.0000000e+00 0.0000000e+00 
0.0000000e+00 0.0000000e+00 0.0000000e+00 
0.0000000e+00 -6.5154651e-05 0.0000000e+00 
0.0000000e+00 -4.0780586e-05 0.0000000e+00 
0.0000000e+00 0.0000000e+00 0.0000000e+00 
0.0000000e+00 0.0000000e+00 0.0000000e+00 
0.0000000e+00 0.0000000e+00 0.0000000e+00 
0.0000000e+00 -1.7296063e-05 0.0000000e+00 
0.0000000e+00 -3.5067005e-05 0.0000000e+00 
0.0000000e+00 -5.1849704e-05 0.0000000e+00 
-1.1859856e-05 -5.8975733e-05 0.0000000e+00 
-1.4152553e-05 -5.1077895e-05 0.0000000e+00 
-1.0306700e-05 -4.2875959e-05 0.0000000e+00 
0.0000000e+00 -3.7500995e-05 0.0000000e+00 
0.0000000e+00 -3.4386230e-05 0.0000000e+00 
0.0000000e+00 -2.0166282e-05 0.0000000e+00 
-5.6305530e-06 -2.8579456e-05 0.0000000e+00 
-4.3032437e-06 -1.6038539e-05 0.0000000e+00 
-1.1280210e-05 -4.4154498e-05 0.0000000e+00 
-1.6960579e-05 -4.6201443e-05 0.0000000e+00 
-6.1127275e-06 -2.7213471e-05 0.0000000e+00 
-1.3255631e-05 -3.6587877e-05 0.0000000e+00 
-1.6821014e-05 -5.1223640e-05 0.0000000e+00 
-5.8828973e-06 -2.0250334e-05 0.0000000e+00 
-1.0469456e-05 -3.9162951e-05 0.0000000e+00 
-1.1475308e-05 -3.4941462e-05 0.0000000e+00 
-2.2126974e-06 -1.2959308e-05 0.0000000e+00 
-9.9672252e-06 -5.3748576e-05 0.0000000e+00 
-7.2677421e-06 -4.1108473e-05 0.0000000e+00 
-2.7779622e-06 -1.5338703e-05 0.0000000e+00 
CELL_DATA 42
FIELD FieldData 0
