# vtk DataFile Version 4.0
vtk output
ASCII
DATASET UNSTRUCTURED_GRID
POINTS 30 float
0.0000000e+00 0.0000000e+00 0.0000000e+00 
1.0000000e+00 0.0000000e+00 0.0000000e+00 
1.0000000e+00 1.0000000e+00 0.0000000e+00 
0.0000000e+00 1.0000000e+00 0.0000000e+00 
2.5000000e-01 0.0000000e+00 0.0000000e+00 
5.0000000e-01 0.0000000e+00 0.0000000e+00 
7.5000000e-01 0.0000000e+00 0.0000000e+00 
1.0000000e+00 2.5000000e-01 0.0000000e+00 
1.0000000e+00 5.0000000e-01 0.0000000e+00 
1.0000000e+00 7.5000000e-01 0.0000000e+00 
7.5000000e-01 1.0000000e+00 0.0000000e+00 
5.0000000e-01 1.0000000e+00 0.0000000e+00 
2.5000000e-01 1.0000000e+00 0.0000000e+00 
0.0000000e+00 7.5000000e-01 0.0000000e+00 
0.0000000e+00 5.0000000e-01 0.0000000e+00 
0.0000000e+00 2.5000000e-01 0.0000000e+00 
1.9194904e-01 3.7563103e-01 0.0000000e+00 
6.3590682e-01 2.1323122e-01 0.0000000e+00 
7.8895766e-01 6.2466627e-01 0.0000000e+00 
3.8539964e-01 7.4551302e-01 0.0000000e+00 
8.0207902e-01 3.7843281e-01 0.0000000e+00 
5.6919098e-01 4.9434972e-01 0.0000000e+00 
6.2870389e-01 7.8320098e-01 0.0000000e+00 
3.8600761e-01 2.5211850e-01 0.0000000e+00 
1.8872584e-01 6.1445600e-01 0.0000000e+00 
3.4425461e-01 4.9641365e-01 0.0000000e+00 
8.1698728e-01 1.8301271e-01 0.0000000e+00 
8.1698728e-01 8.1698728e-01 0.0000000e+00 
1.6482510e-01 8.2199383e-01 0.0000000e+00 
1.8301271e-01 1.8301271e-01 0.0000000e+00 

CELLS 42 168
3 21 22 19
3 21 23 17
3 19 25 21
3 21 25 23
3 18 22 21
3 20 21 17
3 23 25 16
3 9 18 8
3 12 19 11
3 15 16 14
3 6 17 5
3 24 25 19
3 5 23 4
3 8 20 7
3 14 24 13
3 11 22 10
3 18 21 20
3 18 20 8
3 16 24 14
3 19 22 11
3 17 23 5
3 2 27 9
3 3 28 12
3 0 29 15
3 1 26 6
3 10 27 2
3 13 28 3
3 4 29 0
3 7 26 1
3 23 29 4
3 20 26 7
3 22 27 10
3 24 28 13
3 9 27 18
3 6 26 17
3 12 28 19
3 15 29 16
3 16 29 23
3 18 27 22
3 19 28 24
3 17 26 20
3 16 25 24

CELL_TYPES 42
5
5
5
5
5
5
5
5
5
5
5
5
5
5
5
5
5
5
5
5
5
5
5
5
5
5
5
5
5
5
5
5
5
5
5
5
5
5
5
5
5
5
POINT_DATA 30
FIELD FieldData 2
DISPLACEMENT 3 30  float
0.0000000e+00 0.0000000e+00 0.0000000e+00 
0.0000000e+00 0.0000000e+00 0.0000000e+00 
0.0000000e+00 -1.4868048e-05 0.0000000e+00 
0.0000000e+00 -1.4863715e-05 0.0000000e+00 
0.0000000e+00 0.0000000e+00 0.0000000e+00 
0.0000000e+00 0.0000000e+00 0.0000000e+00 
0.0000000e+00 0.0000000e+00 0.0000000e+00 
0.0000000e+00 -3.7173068e-06 0.0000000e+00 
0.0000000e+00 -7.4347531e-06 0.0000000e+00 
0.0000000e+00 -1.1151892e-05 0.0000000e+00 
-2.0531483e-09 -1.4867536e-05 0.0000000e+00 
-2.6225195e-09 -1.4866426e-05 0.0000000e+00 
-1.7746618e-09 -1.4864741e-05 0.0000000e+00 
0.0000000e+00 -1.1149937e-05 0.0000000e+00 
0.0000000e+00 -7.4347254e-06 0.0000000e+00 
0.0000000e+00 -3.7179204e-06 0.0000000e+00 
-1.1311168e-09 -5.5860096e-06 0.0000000e+00 
-7.9915669e-10 -3.1708976e-06 0.0000000e+00 
-1.9546880e-09 -9.2885457e-06 0.0000000e+00 
-3.0838050e-09 -1.1084444e-05 0.0000000e+00 
-1.1143035e-09 -5.6272152e-06 0.0000000e+00 
-2.4794953e-09 -7.3512365e-06 0.0000000e+00 
-3.0173071e-09 -1.1645271e-05 0.0000000e+00 
-1.1363729e-09 -3.7494983e-06 0.0000000e+00 
-1.7747194e-09 -9.1360589e-06 0.0000000e+00 
-2.1852573e-09 -7.3817232e-06 0.0000000e+00 
-3.9367190e-10 -2.7213143e-06 0.0000000e+00 
-1.9021622e-09 -1.2147712e-05 0.0000000e+00 
-1.6035362e-09 -1.2219865e-05 0.0000000e+00 
-5.2490040e-10 -2.7218309e-06 0.0000000e+00 
VELOCITY 3 30  float
0.0000000e+00 0.0000000e+00 0.0000000e+00 
0.0000000e+00 0.0000000e+00 0.0000000e+00 
0.0000000e+00 9.2825803e-07 0.0000000e+00 
0.0000000e+00 5.5036833e-07 0.0000000e+00 
0.0000000e+00 0.0000000e+00 0.0000000e+00 
0.0000000e+00 0.0000000e+00 0.0000000e+00 
0.0000000e+00 0.0000000e+00 0.0000000e+00 
0.0000000e+00 3.0656085e-07 0.0000000e+00 
0.0000000e+00 6.6807576e-07 0.0000000e+00 
0.0000000e+00 1.0559223e-06 0.0000000e+00 
1.7723040e-07 1.1260088e-06 0.0000000e+00 
3.0739292e-07 1.0388545e-06 0.0000000e+00 
1.6816801e-07 7.8337234e-07 0.0000000e+00 
0.0000000e+00 8.9105686e-07 0.0000000e+00 
0.0000000e+00 6.1534149e-07 0.0000000e+00 
0.0000000e+00 3.9271427e-07 0.0000000e+00 
1.3723991e-07 5.6326940e-07 0.0000000e+00 
8.1950425e-08 3.1014739e-07 0.0000000e+00 
1.6137662e-07 8.1068168e-07 0.0000000e+00 
3.3437263e-07 8.6677881e-07 0.0000000e+00 
1.3119735e-07 5.0722667e-07 0.0000000e+00 
2.8187583e-07 7.1936250e-07 0.0000000e+00 
3.1009185e-07 9.6408075e-07 0.0000000e+00 
1.1468401e-07 3.9412024e-07 0.0000000e+00 
1.5806287e-07 7.5291905e-07 0.0000000e+00 
2.4137501e-07 7.0181500e-07 0.0000000e+00 
4.5569081e-08 2.4606109e-07 0.0000000e+00 
2.5773497e-07 1.1336750e-06 0.0000000e+00 
2.4626155e-07 8.0734674e-07 0.0000000e+00 
5.5928027e-08 3.0221699e-07 0.0000000e+00 
CELL_DATA 42
FIELD FieldData 0
