# vtk DataFile Version 4.0
vtk output
ASCII
DATASET UNSTRUCTURED_GRID
POINTS 8 float
0.0000000e+00 0.0000000e+00 0.0000000e+00 
1.0000000e+00 0.0000000e+00 0.0000000e+00 
1.0000000e+00 5.0000000e-01 0.0000000e+00 
0.0000000e+00 5.0000000e-01 0.0000000e+00 
5.0000000e-01 0.0000000e+00 0.0000000e+00 
5.0000000e-01 5.0000000e-01 0.0000000e+00 
7.5000000e-01 2.5000000e-01 0.0000000e+00 
2.5000000e-01 2.5000000e-01 0.0000000e+00 

CELLS 8 32
3 0 7 3
3 4 7 0
3 2 6 1
3 1 6 4
3 5 6 2
3 3 7 5
3 4 6 5
3 5 7 4

CELL_TYPES 8
5
5
5
5
5
5
5
5
POINT_DATA 8
FIELD FieldData 2
DISPLACEMENT 3 8  float
0.0000000e+00 0.0000000e+00 0.0000000e+00 
0.0000000e+00 0.0000000e+00 0.0000000e+00 
0.0000000e+00 -1.0431629e-06 0.0000000e+00 
0.0000000e+00 -9.9925398e-07 0.0000000e+00 
0.0000000e+00 0.0000000e+00 0.0000000e+00 
-8.4400142e-08 -1.0208288e-06 0.0000000e+00 
-3.8483531e-08 -5.1855721e-07 0.0000000e+00 
-3.7696275e-08 -5.3034267e-07 0.0000000e+00 
VELOCITY 3 8  float
0.0000000e+00 0.0000000e+00 0.0000000e+00 
0.0000000e+00 0.0000000e+00 0.0000000e+00 
0.0000000e+00 1.0099929e-03 0.0000000e+00 
0.0000000e+00 9.7705505e-04 0.0000000e+00 
0.0000000e+00 0.0000000e+00 0.0000000e+00 
6.3733925e-05 1.0049333e-03 0.0000000e+00 
2.6911612e-05 5.0515501e-04 0.0000000e+00 
3.0326926e-05 5.1487051e-04 0.0000000e+00 
CELL_DATA 8
FIELD FieldData 0
