# vtk DataFile Version 4.0
vtk output
ASCII
DATASET UNSTRUCTURED_GRID
POINTS 8 float
0.0000000e+00 0.0000000e+00 0.0000000e+00 
1.0000000e+00 0.0000000e+00 0.0000000e+00 
1.0000000e+00 5.0000000e-01 0.0000000e+00 
0.0000000e+00 5.0000000e-01 0.0000000e+00 
5.0000000e-01 0.0000000e+00 0.0000000e+00 
5.0000000e-01 5.0000000e-01 0.0000000e+00 
7.5000000e-01 2.5000000e-01 0.0000000e+00 
2.5000000e-01 2.5000000e-01 0.0000000e+00 

CELLS 8 32
3 0 7 3
3 4 7 0
3 2 6 1
3 1 6 4
3 5 6 2
3 3 7 5
3 4 6 5
3 5 7 4

CELL_TYPES 8
5
5
5
5
5
5
5
5
POINT_DATA 8
FIELD FieldData 2
DISPLACEMENT 3 8  float
0.0000000e+00 0.0000000e+00 0.0000000e+00 
0.0000000e+00 0.0000000e+00 0.0000000e+00 
0.0000000e+00 -3.6914257e-06 0.0000000e+00 
0.0000000e+00 -3.6291476e-06 0.0000000e+00 
0.0000000e+00 0.0000000e+00 0.0000000e+00 
-1.6173968e-07 -3.6638523e-06 0.0000000e+00 
-6.8537339e-08 -1.8406284e-06 0.0000000e+00 
-7.2169911e-08 -1.8726288e-06 0.0000000e+00 
VELOCITY 3 8  float
0.0000000e+00 0.0000000e+00 0.0000000e+00 
0.0000000e+00 0.0000000e+00 0.0000000e+00 
0.0000000e+00 -8.4475713e-04 0.0000000e+00 
0.0000000e+00 -8.3428563e-04 0.0000000e+00 
0.0000000e+00 0.0000000e+00 0.0000000e+00 
4.3674981e-06 -8.3611551e-04 0.0000000e+00 
-2.4790036e-06 -4.2319542e-04 0.0000000e+00 
3.5542550e-06 -4.1427716e-04 0.0000000e+00 
CELL_DATA 8
FIELD FieldData 0
