# vtk DataFile Version 4.0
vtk output
ASCII
DATASET UNSTRUCTURED_GRID
POINTS 8 float
0.0000000e+00 0.0000000e+00 0.0000000e+00 
1.0000000e+00 0.0000000e+00 0.0000000e+00 
1.0000000e+00 5.0000000e-01 0.0000000e+00 
0.0000000e+00 5.0000000e-01 0.0000000e+00 
5.0000000e-01 0.0000000e+00 0.0000000e+00 
5.0000000e-01 5.0000000e-01 0.0000000e+00 
7.5000000e-01 2.5000000e-01 0.0000000e+00 
2.5000000e-01 2.5000000e-01 0.0000000e+00 

CELLS 8 32
3 0 7 3
3 4 7 0
3 2 6 1
3 1 6 4
3 5 6 2
3 3 7 5
3 4 6 5
3 5 7 4

CELL_TYPES 8
5
5
5
5
5
5
5
5
POINT_DATA 8
FIELD FieldData 2
DISPLACEMENT 3 8  float
0.0000000e+00 0.0000000e+00 0.0000000e+00 
0.0000000e+00 0.0000000e+00 0.0000000e+00 
0.0000000e+00 7.6294455e-06 0.0000000e+00 
0.0000000e+00 7.4653785e-06 0.0000000e+00 
0.0000000e+00 0.0000000e+00 0.0000000e+00 
3.6867394e-07 7.5551420e-06 0.0000000e+00 
1.6323396e-07 3.8056878e-06 0.0000000e+00 
1.6555506e-07 3.8672542e-06 0.0000000e+00 
VELOCITY 3 8  float
0.0000000e+00 0.0000000e+00 0.0000000e+00 
0.0000000e+00 0.0000000e+00 0.0000000e+00 
0.0000000e+00 -1.7837039e-04 0.0000000e+00 
0.0000000e+00 -1.7746884e-04 0.0000000e+00 
0.0000000e+00 0.0000000e+00 0.0000000e+00 
-2.1256192e-06 -1.7782998e-04 0.0000000e+00 
-9.5954056e-07 -8.9107947e-05 0.0000000e+00 
-9.3248605e-07 -8.9470850e-05 0.0000000e+00 
CELL_DATA 8
FIELD FieldData 0
