# vtk DataFile Version 4.0
vtk output
ASCII
DATASET UNSTRUCTURED_GRID
POINTS 8 float
0.0000000e+00 0.0000000e+00 0.0000000e+00 
1.0000000e+00 0.0000000e+00 0.0000000e+00 
1.0000000e+00 5.0000000e-01 0.0000000e+00 
0.0000000e+00 5.0000000e-01 0.0000000e+00 
5.0000000e-01 0.0000000e+00 0.0000000e+00 
5.0000000e-01 5.0000000e-01 0.0000000e+00 
7.5000000e-01 2.5000000e-01 0.0000000e+00 
2.5000000e-01 2.5000000e-01 0.0000000e+00 

CELLS 8 32
3 0 7 3
3 4 7 0
3 2 6 1
3 1 6 4
3 5 6 2
3 3 7 5
3 4 6 5
3 5 7 4

CELL_TYPES 8
5
5
5
5
5
5
5
5
POINT_DATA 8
FIELD FieldData 2
DISPLACEMENT 3 8  float
0.0000000e+00 0.0000000e+00 0.0000000e+00 
0.0000000e+00 0.0000000e+00 0.0000000e+00 
0.0000000e+00 -8.4497888e-06 0.0000000e+00 
0.0000000e+00 -8.2529168e-06 0.0000000e+00 
0.0000000e+00 0.0000000e+00 0.0000000e+00 
-3.4311003e-07 -8.2811348e-06 0.0000000e+00 
-1.7544996e-07 -4.2013248e-06 0.0000000e+00 
-1.4481958e-07 -4.2362899e-06 0.0000000e+00 
VELOCITY 3 8  float
0.0000000e+00 0.0000000e+00 0.0000000e+00 
0.0000000e+00 0.0000000e+00 0.0000000e+00 
0.0000000e+00 -1.9874750e-03 0.0000000e+00 
0.0000000e+00 -1.8780271e-03 0.0000000e+00 
0.0000000e+00 0.0000000e+00 0.0000000e+00 
-3.1786974e-04 -1.9555800e-03 0.0000000e+00 
-1.2985668e-04 -9.8757457e-04 0.0000000e+00 
-1.4582837e-04 -1.0581401e-03 0.0000000e+00 
CELL_DATA 8
FIELD FieldData 0
