# vtk DataFile Version 4.0
vtk output
ASCII
DATASET UNSTRUCTURED_GRID
POINTS 8 float
0.0000000e+00 0.0000000e+00 0.0000000e+00 
1.0000000e+00 0.0000000e+00 0.0000000e+00 
1.0000000e+00 5.0000000e-01 0.0000000e+00 
0.0000000e+00 5.0000000e-01 0.0000000e+00 
5.0000000e-01 0.0000000e+00 0.0000000e+00 
5.0000000e-01 5.0000000e-01 0.0000000e+00 
7.5000000e-01 2.5000000e-01 0.0000000e+00 
2.5000000e-01 2.5000000e-01 0.0000000e+00 

CELLS 8 32
3 0 7 3
3 4 7 0
3 2 6 1
3 1 6 4
3 5 6 2
3 3 7 5
3 4 6 5
3 5 7 4

CELL_TYPES 8
5
5
5
5
5
5
5
5
POINT_DATA 8
FIELD FieldData 2
DISPLACEMENT 3 8  float
0.0000000e+00 0.0000000e+00 0.0000000e+00 
0.0000000e+00 0.0000000e+00 0.0000000e+00 
0.0000000e+00 -6.1915121e-06 0.0000000e+00 
0.0000000e+00 -6.4976016e-06 0.0000000e+00 
0.0000000e+00 0.0000000e+00 0.0000000e+00 
9.1131886e-07 -6.5766808e-06 0.0000000e+00 
4.3155327e-07 -3.1683924e-06 0.0000000e+00 
3.6322095e-07 -2.9956241e-06 0.0000000e+00 
VELOCITY 3 8  float
0.0000000e+00 0.0000000e+00 0.0000000e+00 
0.0000000e+00 0.0000000e+00 0.0000000e+00 
0.0000000e+00 -1.8993756e-03 0.0000000e+00 
0.0000000e+00 -2.0247356e-03 0.0000000e+00 
0.0000000e+00 0.0000000e+00 0.0000000e+00 
3.7142035e-04 -2.0551893e-03 0.0000000e+00 
1.7573163e-04 -9.7899162e-04 0.0000000e+00 
1.4831309e-04 -9.0870733e-04 0.0000000e+00 
CELL_DATA 8
FIELD FieldData 0
