# vtk DataFile Version 4.0
vtk output
ASCII
DATASET UNSTRUCTURED_GRID
POINTS 8 float
0.0000000e+00 0.0000000e+00 0.0000000e+00 
1.0000000e+00 0.0000000e+00 0.0000000e+00 
1.0000000e+00 5.0000000e-01 0.0000000e+00 
0.0000000e+00 5.0000000e-01 0.0000000e+00 
5.0000000e-01 0.0000000e+00 0.0000000e+00 
5.0000000e-01 5.0000000e-01 0.0000000e+00 
7.5000000e-01 2.5000000e-01 0.0000000e+00 
2.5000000e-01 2.5000000e-01 0.0000000e+00 

CELLS 8 32
3 0 7 3
3 4 7 0
3 2 6 1
3 1 6 4
3 5 6 2
3 3 7 5
3 4 6 5
3 5 7 4

CELL_TYPES 8
5
5
5
5
5
5
5
5
POINT_DATA 8
FIELD FieldData 2
DISPLACEMENT 3 8  float
0.0000000e+00 0.0000000e+00 0.0000000e+00 
0.0000000e+00 0.0000000e+00 0.0000000e+00 
0.0000000e+00 1.3525562e-05 0.0000000e+00 
0.0000000e+00 1.3056910e-05 0.0000000e+00 
0.0000000e+00 0.0000000e+00 0.0000000e+00 
1.0726192e-06 1.3266930e-05 0.0000000e+00 
4.8437835e-07 6.7294504e-06 0.0000000e+00 
4.7635569e-07 6.9089665e-06 0.0000000e+00 
VELOCITY 3 8  float
0.0000000e+00 0.0000000e+00 0.0000000e+00 
0.0000000e+00 0.0000000e+00 0.0000000e+00 
0.0000000e+00 9.3243364e-04 0.0000000e+00 
0.0000000e+00 8.8409032e-04 0.0000000e+00 
0.0000000e+00 0.0000000e+00 0.0000000e+00 
1.1111170e-04 9.1708166e-04 0.0000000e+00 
4.6999601e-05 4.6403610e-04 0.0000000e+00 
5.0679620e-05 4.8404475e-04 0.0000000e+00 
CELL_DATA 8
FIELD FieldData 0
