# vtk DataFile Version 4.0
vtk output
ASCII
DATASET UNSTRUCTURED_GRID
POINTS 8 float
0.0000000e+00 0.0000000e+00 0.0000000e+00 
1.0000000e+00 0.0000000e+00 0.0000000e+00 
1.0000000e+00 5.0000000e-01 0.0000000e+00 
0.0000000e+00 5.0000000e-01 0.0000000e+00 
5.0000000e-01 0.0000000e+00 0.0000000e+00 
5.0000000e-01 5.0000000e-01 0.0000000e+00 
7.5000000e-01 2.5000000e-01 0.0000000e+00 
2.5000000e-01 2.5000000e-01 0.0000000e+00 

CELLS 8 32
3 0 7 3
3 4 7 0
3 2 6 1
3 1 6 4
3 5 6 2
3 3 7 5
3 4 6 5
3 5 7 4

CELL_TYPES 8
5
5
5
5
5
5
5
5
POINT_DATA 8
FIELD FieldData 2
DISPLACEMENT 3 8  float
0.0000000e+00 0.0000000e+00 0.0000000e+00 
0.0000000e+00 0.0000000e+00 0.0000000e+00 
0.0000000e+00 6.9791627e-06 0.0000000e+00 
0.0000000e+00 6.8422755e-06 0.0000000e+00 
0.0000000e+00 0.0000000e+00 0.0000000e+00 
3.0804316e-07 6.9166326e-06 0.0000000e+00 
1.3646024e-07 3.4819298e-06 0.0000000e+00 
1.3823765e-07 3.5334103e-06 0.0000000e+00 
VELOCITY 3 8  float
0.0000000e+00 0.0000000e+00 0.0000000e+00 
0.0000000e+00 0.0000000e+00 0.0000000e+00 
0.0000000e+00 4.3857971e-04 0.0000000e+00 
0.0000000e+00 4.2674138e-04 0.0000000e+00 
0.0000000e+00 0.0000000e+00 0.0000000e+00 
2.6504227e-05 4.3334751e-04 0.0000000e+00 
1.1716650e-05 2.1866456e-04 0.0000000e+00 
1.1922803e-05 2.2308259e-04 0.0000000e+00 
CELL_DATA 8
FIELD FieldData 0
