# vtk DataFile Version 4.0
vtk output
ASCII
DATASET UNSTRUCTURED_GRID
POINTS 8 float
0.0000000e+00 0.0000000e+00 0.0000000e+00 
1.0000000e+00 0.0000000e+00 0.0000000e+00 
1.0000000e+00 5.0000000e-01 0.0000000e+00 
0.0000000e+00 5.0000000e-01 0.0000000e+00 
5.0000000e-01 0.0000000e+00 0.0000000e+00 
5.0000000e-01 5.0000000e-01 0.0000000e+00 
7.5000000e-01 2.5000000e-01 0.0000000e+00 
2.5000000e-01 2.5000000e-01 0.0000000e+00 

CELLS 8 32
3 0 7 3
3 4 7 0
3 2 6 1
3 1 6 4
3 5 6 2
3 3 7 5
3 4 6 5
3 5 7 4

CELL_TYPES 8
5
5
5
5
5
5
5
5
POINT_DATA 8
FIELD FieldData 2
DISPLACEMENT 3 8  float
0.0000000e+00 0.0000000e+00 0.0000000e+00 
0.0000000e+00 0.0000000e+00 0.0000000e+00 
0.0000000e+00 -1.0524785e-06 0.0000000e+00 
0.0000000e+00 -1.0083222e-06 0.0000000e+00 
0.0000000e+00 0.0000000e+00 0.0000000e+00 
-9.8504366e-08 -1.0334925e-06 0.0000000e+00 
-4.3469388e-08 -5.2401793e-07 0.0000000e+00 
-4.4401936e-08 -5.4041482e-07 0.0000000e+00 
VELOCITY 3 8  float
0.0000000e+00 0.0000000e+00 0.0000000e+00 
0.0000000e+00 0.0000000e+00 0.0000000e+00 
0.0000000e+00 9.9806115e-04 0.0000000e+00 
0.0000000e+00 9.7757543e-04 0.0000000e+00 
0.0000000e+00 0.0000000e+00 0.0000000e+00 
4.6082583e-05 9.8868925e-04 0.0000000e+00 
2.0418905e-05 4.9788383e-04 0.0000000e+00 
2.0679134e-05 5.0558138e-04 0.0000000e+00 
CELL_DATA 8
FIELD FieldData 0
