# vtk DataFile Version 4.0
vtk output
ASCII
DATASET UNSTRUCTURED_GRID
POINTS 8 float
0.0000000e+00 0.0000000e+00 0.0000000e+00 
1.0000000e+00 0.0000000e+00 0.0000000e+00 
1.0000000e+00 5.0000000e-01 0.0000000e+00 
0.0000000e+00 5.0000000e-01 0.0000000e+00 
5.0000000e-01 0.0000000e+00 0.0000000e+00 
5.0000000e-01 5.0000000e-01 0.0000000e+00 
7.5000000e-01 2.5000000e-01 0.0000000e+00 
2.5000000e-01 2.5000000e-01 0.0000000e+00 

CELLS 8 32
3 0 7 3
3 4 7 0
3 2 6 1
3 1 6 4
3 5 6 2
3 3 7 5
3 4 6 5
3 5 7 4

CELL_TYPES 8
5
5
5
5
5
5
5
5
POINT_DATA 8
FIELD FieldData 2
DISPLACEMENT 3 8  float
0.0000000e+00 0.0000000e+00 0.0000000e+00 
0.0000000e+00 0.0000000e+00 0.0000000e+00 
0.0000000e+00 1.0390375e-05 0.0000000e+00 
0.0000000e+00 9.8567152e-06 0.0000000e+00 
0.0000000e+00 0.0000000e+00 0.0000000e+00 
1.1755974e-06 1.0180088e-05 0.0000000e+00 
5.1609601e-07 5.1723287e-06 0.0000000e+00 
5.3310902e-07 5.3667750e-06 0.0000000e+00 
VELOCITY 3 8  float
0.0000000e+00 0.0000000e+00 0.0000000e+00 
0.0000000e+00 0.0000000e+00 0.0000000e+00 
0.0000000e+00 -1.5263560e-03 0.0000000e+00 
0.0000000e+00 -1.4678387e-03 0.0000000e+00 
0.0000000e+00 0.0000000e+00 0.0000000e+00 
-1.2990260e-04 -1.5021263e-03 0.0000000e+00 
-5.7183948e-05 -7.6042162e-04 0.0000000e+00 
-5.8702375e-05 -7.8199781e-04 0.0000000e+00 
CELL_DATA 8
FIELD FieldData 0
