# vtk DataFile Version 4.0
vtk output
ASCII
DATASET UNSTRUCTURED_GRID
POINTS 8 float
0.0000000e+00 0.0000000e+00 0.0000000e+00 
1.0000000e+00 0.0000000e+00 0.0000000e+00 
1.0000000e+00 5.0000000e-01 0.0000000e+00 
0.0000000e+00 5.0000000e-01 0.0000000e+00 
5.0000000e-01 0.0000000e+00 0.0000000e+00 
5.0000000e-01 5.0000000e-01 0.0000000e+00 
7.5000000e-01 2.5000000e-01 0.0000000e+00 
2.5000000e-01 2.5000000e-01 0.0000000e+00 

CELLS 8 32
3 0 7 3
3 4 7 0
3 2 6 1
3 1 6 4
3 5 6 2
3 3 7 5
3 4 6 5
3 5 7 4

CELL_TYPES 8
5
5
5
5
5
5
5
5
POINT_DATA 8
FIELD FieldData 2
DISPLACEMENT 3 8  float
0.0000000e+00 0.0000000e+00 0.0000000e+00 
0.0000000e+00 0.0000000e+00 0.0000000e+00 
0.0000000e+00 -1.7418281e-05 0.0000000e+00 
0.0000000e+00 -1.6508809e-05 0.0000000e+00 
0.0000000e+00 0.0000000e+00 0.0000000e+00 
-2.0067107e-06 -1.7161681e-05 0.0000000e+00 
-8.6124959e-07 -8.6902137e-06 0.0000000e+00 
-9.2371914e-07 -9.0276972e-06 0.0000000e+00 
VELOCITY 3 8  float
0.0000000e+00 0.0000000e+00 0.0000000e+00 
0.0000000e+00 0.0000000e+00 0.0000000e+00 
0.0000000e+00 4.0360555e-04 0.0000000e+00 
0.0000000e+00 4.0041277e-04 0.0000000e+00 
0.0000000e+00 0.0000000e+00 0.0000000e+00 
6.6177803e-05 4.1029823e-04 0.0000000e+00 
2.5378553e-05 2.0404822e-04 0.0000000e+00 
3.0305097e-05 2.2425677e-04 0.0000000e+00 
CELL_DATA 8
FIELD FieldData 0
