# vtk DataFile Version 4.0
vtk output
ASCII
DATASET UNSTRUCTURED_GRID
POINTS 8 float
0.0000000e+00 0.0000000e+00 0.0000000e+00 
1.0000000e+00 0.0000000e+00 0.0000000e+00 
1.0000000e+00 5.0000000e-01 0.0000000e+00 
0.0000000e+00 5.0000000e-01 0.0000000e+00 
5.0000000e-01 0.0000000e+00 0.0000000e+00 
5.0000000e-01 5.0000000e-01 0.0000000e+00 
7.5000000e-01 2.5000000e-01 0.0000000e+00 
2.5000000e-01 2.5000000e-01 0.0000000e+00 

CELLS 8 32
3 0 7 3
3 4 7 0
3 2 6 1
3 1 6 4
3 5 6 2
3 3 7 5
3 4 6 5
3 5 7 4

CELL_TYPES 8
5
5
5
5
5
5
5
5
POINT_DATA 8
FIELD FieldData 2
DISPLACEMENT 3 8  float
0.0000000e+00 0.0000000e+00 0.0000000e+00 
0.0000000e+00 0.0000000e+00 0.0000000e+00 
0.0000000e+00 1.4601063e-05 0.0000000e+00 
0.0000000e+00 1.4262750e-05 0.0000000e+00 
0.0000000e+00 0.0000000e+00 0.0000000e+00 
7.7501841e-07 1.4151328e-05 0.0000000e+00 
3.9692381e-07 7.2211624e-06 0.0000000e+00 
3.0734148e-07 7.3402234e-06 0.0000000e+00 
VELOCITY 3 8  float
0.0000000e+00 0.0000000e+00 0.0000000e+00 
0.0000000e+00 0.0000000e+00 0.0000000e+00 
0.0000000e+00 -3.6854917e-04 0.0000000e+00 
0.0000000e+00 -4.5864479e-04 0.0000000e+00 
0.0000000e+00 0.0000000e+00 0.0000000e+00 
1.2689670e-05 -3.3142310e-04 0.0000000e+00 
-4.1987410e-06 -1.7897028e-04 0.0000000e+00 
2.2905456e-06 -2.1430607e-04 0.0000000e+00 
CELL_DATA 8
FIELD FieldData 0
