# vtk DataFile Version 4.0
vtk output
ASCII
DATASET UNSTRUCTURED_GRID
POINTS 8 float
0.0000000e+00 0.0000000e+00 0.0000000e+00 
1.0000000e+00 0.0000000e+00 0.0000000e+00 
1.0000000e+00 5.0000000e-01 0.0000000e+00 
0.0000000e+00 5.0000000e-01 0.0000000e+00 
5.0000000e-01 0.0000000e+00 0.0000000e+00 
5.0000000e-01 5.0000000e-01 0.0000000e+00 
7.5000000e-01 2.5000000e-01 0.0000000e+00 
2.5000000e-01 2.5000000e-01 0.0000000e+00 

CELLS 8 32
3 0 7 3
3 4 7 0
3 2 6 1
3 1 6 4
3 5 6 2
3 3 7 5
3 4 6 5
3 5 7 4

CELL_TYPES 8
5
5
5
5
5
5
5
5
POINT_DATA 8
FIELD FieldData 2
DISPLACEMENT 3 8  float
0.0000000e+00 0.0000000e+00 0.0000000e+00 
0.0000000e+00 0.0000000e+00 0.0000000e+00 
0.0000000e+00 7.7436871e-06 0.0000000e+00 
0.0000000e+00 7.4551340e-06 0.0000000e+00 
0.0000000e+00 0.0000000e+00 0.0000000e+00 
5.4067851e-07 7.7126488e-06 0.0000000e+00 
2.1811861e-07 3.8676276e-06 0.0000000e+00 
2.4758930e-07 3.9436936e-06 0.0000000e+00 
VELOCITY 3 8  float
0.0000000e+00 0.0000000e+00 0.0000000e+00 
0.0000000e+00 0.0000000e+00 0.0000000e+00 
0.0000000e+00 -1.5252807e-04 0.0000000e+00 
0.0000000e+00 -1.3089749e-04 0.0000000e+00 
0.0000000e+00 0.0000000e+00 0.0000000e+00 
4.2194839e-05 -1.3705157e-04 0.0000000e+00 
2.4640920e-05 -6.2013583e-05 0.0000000e+00 
2.9599614e-05 -4.1221236e-05 0.0000000e+00 
CELL_DATA 8
FIELD FieldData 0
