# vtk DataFile Version 4.0
vtk output
ASCII
DATASET UNSTRUCTURED_GRID
POINTS 8 float
0.0000000e+00 0.0000000e+00 0.0000000e+00 
1.0000000e+00 0.0000000e+00 0.0000000e+00 
1.0000000e+00 5.0000000e-01 0.0000000e+00 
0.0000000e+00 5.0000000e-01 0.0000000e+00 
5.0000000e-01 0.0000000e+00 0.0000000e+00 
5.0000000e-01 5.0000000e-01 0.0000000e+00 
7.5000000e-01 2.5000000e-01 0.0000000e+00 
2.5000000e-01 2.5000000e-01 0.0000000e+00 

CELLS 8 32
3 0 7 3
3 4 7 0
3 2 6 1
3 1 6 4
3 5 6 2
3 3 7 5
3 4 6 5
3 5 7 4

CELL_TYPES 8
5
5
5
5
5
5
5
5
POINT_DATA 8
FIELD FieldData 2
DISPLACEMENT 3 8  float
0.0000000e+00 0.0000000e+00 0.0000000e+00 
0.0000000e+00 0.0000000e+00 0.0000000e+00 
0.0000000e+00 -1.0553008e-06 0.0000000e+00 
0.0000000e+00 -1.0092133e-06 0.0000000e+00 
0.0000000e+00 0.0000000e+00 0.0000000e+00 
-1.0214325e-07 -1.0367621e-06 0.0000000e+00 
-4.4861043e-08 -5.2557959e-07 0.0000000e+00 
-4.6221160e-08 -5.4253951e-07 0.0000000e+00 
VELOCITY 3 8  float
0.0000000e+00 0.0000000e+00 0.0000000e+00 
0.0000000e+00 0.0000000e+00 0.0000000e+00 
0.0000000e+00 9.9914707e-04 0.0000000e+00 
0.0000000e+00 9.7799487e-04 0.0000000e+00 
0.0000000e+00 0.0000000e+00 0.0000000e+00 
4.7301659e-05 9.8976342e-04 0.0000000e+00 
2.0922645e-05 4.9845187e-04 0.0000000e+00 
2.1272981e-05 5.0632231e-04 0.0000000e+00 
CELL_DATA 8
FIELD FieldData 0
