# vtk DataFile Version 4.0
vtk output
ASCII
DATASET UNSTRUCTURED_GRID
POINTS 8 float
0.0000000e+00 0.0000000e+00 0.0000000e+00 
1.0000000e+00 0.0000000e+00 0.0000000e+00 
1.0000000e+00 5.0000000e-01 0.0000000e+00 
0.0000000e+00 5.0000000e-01 0.0000000e+00 
5.0000000e-01 0.0000000e+00 0.0000000e+00 
5.0000000e-01 5.0000000e-01 0.0000000e+00 
7.5000000e-01 2.5000000e-01 0.0000000e+00 
2.5000000e-01 2.5000000e-01 0.0000000e+00 

CELLS 8 32
3 0 7 3
3 4 7 0
3 2 6 1
3 1 6 4
3 5 6 2
3 3 7 5
3 4 6 5
3 5 7 4

CELL_TYPES 8
5
5
5
5
5
5
5
5
POINT_DATA 8
FIELD FieldData 2
DISPLACEMENT 3 8  float
0.0000000e+00 0.0000000e+00 0.0000000e+00 
0.0000000e+00 0.0000000e+00 0.0000000e+00 
0.0000000e+00 1.0573198e-06 0.0000000e+00 
0.0000000e+00 1.0105219e-06 0.0000000e+00 
0.0000000e+00 0.0000000e+00 0.0000000e+00 
1.0354255e-07 1.0378725e-06 0.0000000e+00 
4.5721912e-08 5.2655241e-07 0.0000000e+00 
4.6864322e-08 5.4365955e-07 0.0000000e+00 
VELOCITY 3 8  float
0.0000000e+00 0.0000000e+00 0.0000000e+00 
0.0000000e+00 0.0000000e+00 0.0000000e+00 
0.0000000e+00 -1.0030514e-03 0.0000000e+00 
0.0000000e+00 -9.7933854e-04 0.0000000e+00 
0.0000000e+00 0.0000000e+00 0.0000000e+00 
-5.2233470e-05 -9.9418021e-04 0.0000000e+00 
-2.2944818e-05 -5.0070760e-04 0.0000000e+00 
-2.3731811e-05 -5.0924643e-04 0.0000000e+00 
CELL_DATA 8
FIELD FieldData 0
