# vtk DataFile Version 4.0
vtk output
ASCII
DATASET UNSTRUCTURED_GRID
POINTS 8 float
0.0000000e+00 0.0000000e+00 0.0000000e+00 
1.0000000e+00 0.0000000e+00 0.0000000e+00 
1.0000000e+00 5.0000000e-01 0.0000000e+00 
0.0000000e+00 5.0000000e-01 0.0000000e+00 
5.0000000e-01 0.0000000e+00 0.0000000e+00 
5.0000000e-01 5.0000000e-01 0.0000000e+00 
7.5000000e-01 2.5000000e-01 0.0000000e+00 
2.5000000e-01 2.5000000e-01 0.0000000e+00 

CELLS 8 32
3 0 7 3
3 4 7 0
3 2 6 1
3 1 6 4
3 5 6 2
3 3 7 5
3 4 6 5
3 5 7 4

CELL_TYPES 8
5
5
5
5
5
5
5
5
POINT_DATA 8
FIELD FieldData 2
DISPLACEMENT 3 8  float
0.0000000e+00 0.0000000e+00 0.0000000e+00 
0.0000000e+00 0.0000000e+00 0.0000000e+00 
0.0000000e+00 -5.1887705e-06 0.0000000e+00 
0.0000000e+00 -5.0307281e-06 0.0000000e+00 
0.0000000e+00 0.0000000e+00 0.0000000e+00 
-2.4088905e-07 -5.3259268e-06 0.0000000e+00 
-6.2505293e-08 -2.6165501e-06 0.0000000e+00 
-1.2865175e-07 -2.6500502e-06 0.0000000e+00 
VELOCITY 3 8  float
0.0000000e+00 0.0000000e+00 0.0000000e+00 
0.0000000e+00 0.0000000e+00 0.0000000e+00 
0.0000000e+00 8.5148850e-04 0.0000000e+00 
0.0000000e+00 5.8768294e-04 0.0000000e+00 
0.0000000e+00 0.0000000e+00 0.0000000e+00 
2.7609020e-04 9.9406182e-04 0.0000000e+00 
1.1017440e-04 4.8399542e-04 0.0000000e+00 
1.8822037e-04 4.9653836e-04 0.0000000e+00 
CELL_DATA 8
FIELD FieldData 0
