# vtk DataFile Version 4.0
vtk output
ASCII
DATASET UNSTRUCTURED_GRID
POINTS 8 float
0.0000000e+00 0.0000000e+00 0.0000000e+00 
1.0000000e+00 0.0000000e+00 0.0000000e+00 
1.0000000e+00 5.0000000e-01 0.0000000e+00 
0.0000000e+00 5.0000000e-01 0.0000000e+00 
5.0000000e-01 0.0000000e+00 0.0000000e+00 
5.0000000e-01 5.0000000e-01 0.0000000e+00 
7.5000000e-01 2.5000000e-01 0.0000000e+00 
2.5000000e-01 2.5000000e-01 0.0000000e+00 

CELLS 8 32
3 0 7 3
3 4 7 0
3 2 6 1
3 1 6 4
3 5 6 2
3 3 7 5
3 4 6 5
3 5 7 4

CELL_TYPES 8
5
5
5
5
5
5
5
5
POINT_DATA 8
FIELD FieldData 2
DISPLACEMENT 3 8  float
0.0000000e+00 0.0000000e+00 0.0000000e+00 
0.0000000e+00 0.0000000e+00 0.0000000e+00 
0.0000000e+00 5.3655435e-06 0.0000000e+00 
0.0000000e+00 5.2369674e-06 0.0000000e+00 
0.0000000e+00 0.0000000e+00 0.0000000e+00 
2.8849158e-07 5.3078520e-06 0.0000000e+00 
1.2765992e-07 2.6758050e-06 0.0000000e+00 
1.2964001e-07 2.7239450e-06 0.0000000e+00 
VELOCITY 3 8  float
0.0000000e+00 0.0000000e+00 0.0000000e+00 
0.0000000e+00 0.0000000e+00 0.0000000e+00 
0.0000000e+00 -7.2715926e-04 0.0000000e+00 
0.0000000e+00 -7.1388431e-04 0.0000000e+00 
0.0000000e+00 0.0000000e+00 0.0000000e+00 
-2.9903493e-05 -7.2104641e-04 0.0000000e+00 
-1.3254135e-05 -3.6282741e-04 0.0000000e+00 
-1.3411465e-05 -3.6782678e-04 0.0000000e+00 
CELL_DATA 8
FIELD FieldData 0
