# vtk DataFile Version 4.0
vtk output
ASCII
DATASET UNSTRUCTURED_GRID
POINTS 8 float
0.0000000e+00 0.0000000e+00 0.0000000e+00 
1.0000000e+00 0.0000000e+00 0.0000000e+00 
1.0000000e+00 5.0000000e-01 0.0000000e+00 
0.0000000e+00 5.0000000e-01 0.0000000e+00 
5.0000000e-01 0.0000000e+00 0.0000000e+00 
5.0000000e-01 5.0000000e-01 0.0000000e+00 
7.5000000e-01 2.5000000e-01 0.0000000e+00 
2.5000000e-01 2.5000000e-01 0.0000000e+00 

CELLS 8 32
3 0 7 3
3 4 7 0
3 2 6 1
3 1 6 4
3 5 6 2
3 3 7 5
3 4 6 5
3 5 7 4

CELL_TYPES 8
5
5
5
5
5
5
5
5
POINT_DATA 8
FIELD FieldData 2
DISPLACEMENT 3 8  float
0.0000000e+00 0.0000000e+00 0.0000000e+00 
0.0000000e+00 0.0000000e+00 0.0000000e+00 
0.0000000e+00 6.9790281e-06 0.0000000e+00 
0.0000000e+00 6.8422250e-06 0.0000000e+00 
0.0000000e+00 0.0000000e+00 0.0000000e+00 
3.0786242e-07 6.9164698e-06 0.0000000e+00 
1.3639304e-07 3.4818545e-06 0.0000000e+00 
1.3814694e-07 3.5333021e-06 0.0000000e+00 
VELOCITY 3 8  float
0.0000000e+00 0.0000000e+00 0.0000000e+00 
0.0000000e+00 0.0000000e+00 0.0000000e+00 
0.0000000e+00 4.3853754e-04 0.0000000e+00 
0.0000000e+00 4.2673020e-04 0.0000000e+00 
0.0000000e+00 0.0000000e+00 0.0000000e+00 
2.6450221e-05 4.3329893e-04 0.0000000e+00 
1.1695910e-05 2.1864125e-04 0.0000000e+00 
1.1895731e-05 2.2305177e-04 0.0000000e+00 
CELL_DATA 8
FIELD FieldData 0
