# vtk DataFile Version 4.0
vtk output
ASCII
DATASET UNSTRUCTURED_GRID
POINTS 8 float
0.0000000e+00 0.0000000e+00 0.0000000e+00 
1.0000000e+00 0.0000000e+00 0.0000000e+00 
1.0000000e+00 5.0000000e-01 0.0000000e+00 
0.0000000e+00 5.0000000e-01 0.0000000e+00 
5.0000000e-01 0.0000000e+00 0.0000000e+00 
5.0000000e-01 5.0000000e-01 0.0000000e+00 
7.5000000e-01 2.5000000e-01 0.0000000e+00 
2.5000000e-01 2.5000000e-01 0.0000000e+00 

CELLS 8 32
3 0 7 3
3 4 7 0
3 2 6 1
3 1 6 4
3 5 6 2
3 3 7 5
3 4 6 5
3 5 7 4

CELL_TYPES 8
5
5
5
5
5
5
5
5
POINT_DATA 8
FIELD FieldData 2
DISPLACEMENT 3 8  float
0.0000000e+00 0.0000000e+00 0.0000000e+00 
0.0000000e+00 0.0000000e+00 0.0000000e+00 
0.0000000e+00 1.0462277e-05 0.0000000e+00 
0.0000000e+00 9.8785695e-06 0.0000000e+00 
0.0000000e+00 0.0000000e+00 0.0000000e+00 
1.2705676e-06 1.0265681e-05 0.0000000e+00 
5.5195386e-07 5.2125288e-06 0.0000000e+00 
5.8075221e-07 5.4218749e-06 0.0000000e+00 
VELOCITY 3 8  float
0.0000000e+00 0.0000000e+00 0.0000000e+00 
0.0000000e+00 0.0000000e+00 0.0000000e+00 
0.0000000e+00 -1.5059303e-03 0.0000000e+00 
0.0000000e+00 -1.4585961e-03 0.0000000e+00 
0.0000000e+00 0.0000000e+00 0.0000000e+00 
-1.0945991e-04 -1.4844590e-03 0.0000000e+00 
-4.8081754e-05 -7.5012923e-04 0.0000000e+00 
-4.8675101e-05 -7.6868461e-04 0.0000000e+00 
CELL_DATA 8
FIELD FieldData 0
