# vtk DataFile Version 4.0
vtk output
ASCII
DATASET UNSTRUCTURED_GRID
POINTS 8 float
0.0000000e+00 0.0000000e+00 0.0000000e+00 
1.0000000e+00 0.0000000e+00 0.0000000e+00 
1.0000000e+00 5.0000000e-01 0.0000000e+00 
0.0000000e+00 5.0000000e-01 0.0000000e+00 
5.0000000e-01 0.0000000e+00 0.0000000e+00 
5.0000000e-01 5.0000000e-01 0.0000000e+00 
7.5000000e-01 2.5000000e-01 0.0000000e+00 
2.5000000e-01 2.5000000e-01 0.0000000e+00 

CELLS 8 32
3 0 7 3
3 4 7 0
3 2 6 1
3 1 6 4
3 5 6 2
3 3 7 5
3 4 6 5
3 5 7 4

CELL_TYPES 8
5
5
5
5
5
5
5
5
POINT_DATA 8
FIELD FieldData 2
DISPLACEMENT 3 8  float
0.0000000e+00 0.0000000e+00 0.0000000e+00 
0.0000000e+00 0.0000000e+00 0.0000000e+00 
0.0000000e+00 -1.5055009e-05 0.0000000e+00 
0.0000000e+00 -1.5246093e-05 0.0000000e+00 
0.0000000e+00 0.0000000e+00 0.0000000e+00 
-1.3414845e-07 -1.4596716e-05 0.0000000e+00 
-1.0573154e-07 -7.4028421e-06 0.0000000e+00 
5.4950618e-08 -7.4810373e-06 0.0000000e+00 
VELOCITY 3 8  float
0.0000000e+00 0.0000000e+00 0.0000000e+00 
0.0000000e+00 0.0000000e+00 0.0000000e+00 
0.0000000e+00 -1.6460234e-03 0.0000000e+00 
0.0000000e+00 -1.4746607e-03 0.0000000e+00 
0.0000000e+00 0.0000000e+00 0.0000000e+00 
-7.8960729e-04 -1.1528247e-03 0.0000000e+00 
-3.9064555e-04 -7.1478827e-04 0.0000000e+00 
-2.7162122e-04 -8.8545791e-04 0.0000000e+00 
CELL_DATA 8
FIELD FieldData 0
