# vtk DataFile Version 4.0
vtk output
ASCII
DATASET UNSTRUCTURED_GRID
POINTS 8 float
0.0000000e+00 0.0000000e+00 0.0000000e+00 
1.0000000e+00 0.0000000e+00 0.0000000e+00 
1.0000000e+00 5.0000000e-01 0.0000000e+00 
0.0000000e+00 5.0000000e-01 0.0000000e+00 
5.0000000e-01 0.0000000e+00 0.0000000e+00 
5.0000000e-01 5.0000000e-01 0.0000000e+00 
7.5000000e-01 2.5000000e-01 0.0000000e+00 
2.5000000e-01 2.5000000e-01 0.0000000e+00 

CELLS 8 32
3 0 7 3
3 4 7 0
3 2 6 1
3 1 6 4
3 5 6 2
3 3 7 5
3 4 6 5
3 5 7 4

CELL_TYPES 8
5
5
5
5
5
5
5
5
POINT_DATA 8
FIELD FieldData 2
DISPLACEMENT 3 8  float
0.0000000e+00 0.0000000e+00 0.0000000e+00 
0.0000000e+00 0.0000000e+00 0.0000000e+00 
0.0000000e+00 1.5041875e-05 0.0000000e+00 
0.0000000e+00 1.4396098e-05 0.0000000e+00 
0.0000000e+00 0.0000000e+00 0.0000000e+00 
1.4473079e-06 1.4768231e-05 0.0000000e+00 
6.3701782e-07 7.4886962e-06 0.0000000e+00 
6.5274736e-07 7.7313325e-06 0.0000000e+00 
VELOCITY 3 8  float
0.0000000e+00 0.0000000e+00 0.0000000e+00 
0.0000000e+00 0.0000000e+00 0.0000000e+00 
0.0000000e+00 -3.2590862e-04 0.0000000e+00 
0.0000000e+00 -3.4841534e-04 0.0000000e+00 
0.0000000e+00 0.0000000e+00 0.0000000e+00 
3.8763785e-05 -3.1656108e-04 0.0000000e+00 
1.4056178e-05 -1.6033778e-04 0.0000000e+00 
1.9877041e-05 -1.5509836e-04 0.0000000e+00 
CELL_DATA 8
FIELD FieldData 0
