# vtk DataFile Version 4.0
vtk output
ASCII
DATASET UNSTRUCTURED_GRID
POINTS 8 float
0.0000000e+00 0.0000000e+00 0.0000000e+00 
1.0000000e+00 0.0000000e+00 0.0000000e+00 
1.0000000e+00 5.0000000e-01 0.0000000e+00 
0.0000000e+00 5.0000000e-01 0.0000000e+00 
5.0000000e-01 0.0000000e+00 0.0000000e+00 
5.0000000e-01 5.0000000e-01 0.0000000e+00 
7.5000000e-01 2.5000000e-01 0.0000000e+00 
2.5000000e-01 2.5000000e-01 0.0000000e+00 

CELLS 8 32
3 0 7 3
3 4 7 0
3 2 6 1
3 1 6 4
3 5 6 2
3 3 7 5
3 4 6 5
3 5 7 4

CELL_TYPES 8
5
5
5
5
5
5
5
5
POINT_DATA 8
FIELD FieldData 2
DISPLACEMENT 3 8  float
0.0000000e+00 0.0000000e+00 0.0000000e+00 
0.0000000e+00 0.0000000e+00 0.0000000e+00 
0.0000000e+00 -5.3652861e-06 0.0000000e+00 
0.0000000e+00 -5.2368650e-06 0.0000000e+00 
0.0000000e+00 0.0000000e+00 0.0000000e+00 
-2.8815086e-07 -5.3075460e-06 0.0000000e+00 
-1.2753263e-07 -2.6756625e-06 0.0000000e+00 
-1.2946937e-07 -2.7237386e-06 0.0000000e+00 
VELOCITY 3 8  float
0.0000000e+00 0.0000000e+00 0.0000000e+00 
0.0000000e+00 0.0000000e+00 0.0000000e+00 
0.0000000e+00 7.2706182e-04 0.0000000e+00 
0.0000000e+00 7.1384176e-04 0.0000000e+00 
0.0000000e+00 0.0000000e+00 0.0000000e+00 
2.9776016e-05 7.2093209e-04 0.0000000e+00 
1.3206392e-05 3.6277395e-04 0.0000000e+00 
1.3347842e-05 3.6774809e-04 0.0000000e+00 
CELL_DATA 8
FIELD FieldData 0
