# vtk DataFile Version 4.0
vtk output
ASCII
DATASET UNSTRUCTURED_GRID
POINTS 8 float
0.0000000e+00 0.0000000e+00 0.0000000e+00 
1.0000000e+00 0.0000000e+00 0.0000000e+00 
1.0000000e+00 5.0000000e-01 0.0000000e+00 
0.0000000e+00 5.0000000e-01 0.0000000e+00 
5.0000000e-01 0.0000000e+00 0.0000000e+00 
5.0000000e-01 5.0000000e-01 0.0000000e+00 
7.5000000e-01 2.5000000e-01 0.0000000e+00 
2.5000000e-01 2.5000000e-01 0.0000000e+00 

CELLS 8 32
3 0 7 3
3 4 7 0
3 2 6 1
3 1 6 4
3 5 6 2
3 3 7 5
3 4 6 5
3 5 7 4

CELL_TYPES 8
5
5
5
5
5
5
5
5
POINT_DATA 8
FIELD FieldData 2
DISPLACEMENT 3 8  float
0.0000000e+00 0.0000000e+00 0.0000000e+00 
0.0000000e+00 0.0000000e+00 0.0000000e+00 
0.0000000e+00 3.6854137e-06 0.0000000e+00 
0.0000000e+00 3.6091544e-06 0.0000000e+00 
0.0000000e+00 0.0000000e+00 0.0000000e+00 
1.5996272e-07 3.6636229e-06 0.0000000e+00 
6.8766170e-08 1.8407911e-06 0.0000000e+00 
7.3681470e-08 1.8665371e-06 0.0000000e+00 
VELOCITY 3 8  float
0.0000000e+00 0.0000000e+00 0.0000000e+00 
0.0000000e+00 0.0000000e+00 0.0000000e+00 
0.0000000e+00 8.8143768e-04 0.0000000e+00 
0.0000000e+00 8.6630834e-04 0.0000000e+00 
0.0000000e+00 0.0000000e+00 0.0000000e+00 
3.4011220e-05 8.6884748e-04 0.0000000e+00 
1.5988271e-05 4.3858433e-04 0.0000000e+00 
1.4224172e-05 4.4388146e-04 0.0000000e+00 
CELL_DATA 8
FIELD FieldData 0
