# vtk DataFile Version 4.0
vtk output
ASCII
DATASET UNSTRUCTURED_GRID
POINTS 8 float
0.0000000e+00 0.0000000e+00 0.0000000e+00 
1.0000000e+00 0.0000000e+00 0.0000000e+00 
1.0000000e+00 5.0000000e-01 0.0000000e+00 
0.0000000e+00 5.0000000e-01 0.0000000e+00 
5.0000000e-01 0.0000000e+00 0.0000000e+00 
5.0000000e-01 5.0000000e-01 0.0000000e+00 
7.5000000e-01 2.5000000e-01 0.0000000e+00 
2.5000000e-01 2.5000000e-01 0.0000000e+00 

CELLS 8 32
3 0 7 3
3 4 7 0
3 2 6 1
3 1 6 4
3 5 6 2
3 3 7 5
3 4 6 5
3 5 7 4

CELL_TYPES 8
5
5
5
5
5
5
5
5
POINT_DATA 8
FIELD FieldData 2
DISPLACEMENT 3 8  float
0.0000000e+00 0.0000000e+00 0.0000000e+00 
0.0000000e+00 0.0000000e+00 0.0000000e+00 
0.0000000e+00 6.6018633e-06 0.0000000e+00 
0.0000000e+00 6.3735752e-06 0.0000000e+00 
0.0000000e+00 0.0000000e+00 0.0000000e+00 
4.7164212e-07 6.5041581e-06 0.0000000e+00 
2.1005131e-07 3.2895700e-06 0.0000000e+00 
2.1235600e-07 3.3612482e-06 0.0000000e+00 
VELOCITY 3 8  float
0.0000000e+00 0.0000000e+00 0.0000000e+00 
0.0000000e+00 0.0000000e+00 0.0000000e+00 
0.0000000e+00 1.8370460e-03 0.0000000e+00 
0.0000000e+00 1.7892435e-03 0.0000000e+00 
0.0000000e+00 0.0000000e+00 0.0000000e+00 
1.2927913e-04 1.7880270e-03 0.0000000e+00 
6.2731218e-05 9.1191608e-04 0.0000000e+00 
5.4920260e-05 9.3504251e-04 0.0000000e+00 
CELL_DATA 8
FIELD FieldData 0
