# vtk DataFile Version 4.0
vtk output
ASCII
DATASET UNSTRUCTURED_GRID
POINTS 8 float
0.0000000e+00 0.0000000e+00 0.0000000e+00 
1.0000000e+00 0.0000000e+00 0.0000000e+00 
1.0000000e+00 5.0000000e-01 0.0000000e+00 
0.0000000e+00 5.0000000e-01 0.0000000e+00 
5.0000000e-01 0.0000000e+00 0.0000000e+00 
5.0000000e-01 5.0000000e-01 0.0000000e+00 
7.5000000e-01 2.5000000e-01 0.0000000e+00 
2.5000000e-01 2.5000000e-01 0.0000000e+00 

CELLS 8 32
3 0 7 3
3 4 7 0
3 2 6 1
3 1 6 4
3 5 6 2
3 3 7 5
3 4 6 5
3 5 7 4

CELL_TYPES 8
5
5
5
5
5
5
5
5
POINT_DATA 8
FIELD FieldData 2
DISPLACEMENT 3 8  float
0.0000000e+00 0.0000000e+00 0.0000000e+00 
0.0000000e+00 0.0000000e+00 0.0000000e+00 
0.0000000e+00 3.6628760e-06 0.0000000e+00 
0.0000000e+00 3.6055803e-06 0.0000000e+00 
0.0000000e+00 0.0000000e+00 0.0000000e+00 
1.2948119e-07 3.6359620e-06 0.0000000e+00 
5.7463257e-08 1.8280809e-06 0.0000000e+00 
5.7983097e-08 1.8497623e-06 0.0000000e+00 
VELOCITY 3 8  float
0.0000000e+00 0.0000000e+00 0.0000000e+00 
0.0000000e+00 0.0000000e+00 0.0000000e+00 
0.0000000e+00 8.8792323e-04 0.0000000e+00 
0.0000000e+00 8.6792780e-04 0.0000000e+00 
0.0000000e+00 0.0000000e+00 0.0000000e+00 
4.4902274e-05 8.7890413e-04 0.0000000e+00 
1.9876001e-05 4.4286822e-04 0.0000000e+00 
2.0169809e-05 4.5036417e-04 0.0000000e+00 
CELL_DATA 8
FIELD FieldData 0
