# vtk DataFile Version 4.0
vtk output
ASCII
DATASET UNSTRUCTURED_GRID
POINTS 8 float
0.0000000e+00 0.0000000e+00 0.0000000e+00 
1.0000000e+00 0.0000000e+00 0.0000000e+00 
1.0000000e+00 5.0000000e-01 0.0000000e+00 
0.0000000e+00 5.0000000e-01 0.0000000e+00 
5.0000000e-01 0.0000000e+00 0.0000000e+00 
5.0000000e-01 5.0000000e-01 0.0000000e+00 
7.5000000e-01 2.5000000e-01 0.0000000e+00 
2.5000000e-01 2.5000000e-01 0.0000000e+00 

CELLS 8 32
3 0 7 3
3 4 7 0
3 2 6 1
3 1 6 4
3 5 6 2
3 3 7 5
3 4 6 5
3 5 7 4

CELL_TYPES 8
5
5
5
5
5
5
5
5
POINT_DATA 8
FIELD FieldData 2
DISPLACEMENT 3 8  float
0.0000000e+00 0.0000000e+00 0.0000000e+00 
0.0000000e+00 0.0000000e+00 0.0000000e+00 
0.0000000e+00 -5.3667382e-06 0.0000000e+00 
0.0000000e+00 -5.2374853e-06 0.0000000e+00 
0.0000000e+00 0.0000000e+00 0.0000000e+00 
-2.8968586e-07 -5.3088847e-06 0.0000000e+00 
-1.2818013e-07 -2.6763951e-06 0.0000000e+00 
-1.3022249e-07 -2.7247111e-06 0.0000000e+00 
VELOCITY 3 8  float
0.0000000e+00 0.0000000e+00 0.0000000e+00 
0.0000000e+00 0.0000000e+00 0.0000000e+00 
0.0000000e+00 7.2542782e-04 0.0000000e+00 
0.0000000e+00 7.1331399e-04 0.0000000e+00 
0.0000000e+00 0.0000000e+00 0.0000000e+00 
2.7715383e-05 7.1908574e-04 0.0000000e+00 
1.2404993e-05 3.6187432e-04 0.0000000e+00 
1.2327551e-05 3.6654636e-04 0.0000000e+00 
CELL_DATA 8
FIELD FieldData 0
