# vtk DataFile Version 4.0
vtk output
ASCII
DATASET UNSTRUCTURED_GRID
POINTS 47 float
-1.0000000e+00 -1.0000000e+00 0.0000000e+00 
1.0000000e+00 -1.0000000e+00 0.0000000e+00 
1.0000000e+00 1.0000000e+00 0.0000000e+00 
-1.0000000e+00 1.0000000e+00 0.0000000e+00 
-1.0000000e+00 -1.0000000e+00 1.0000000e+01 
1.0000000e+00 -1.0000000e+00 1.0000000e+01 
1.0000000e+00 1.0000000e+00 1.0000000e+01 
-1.0000000e+00 1.0000000e+00 1.0000000e+01 
-1.0000000e+00 -1.0000000e+00 2.0000000e+00 
-1.0000000e+00 -1.0000000e+00 4.0000000e+00 
-1.0000000e+00 -1.0000000e+00 6.0000000e+00 
-1.0000000e+00 -1.0000000e+00 8.0000000e+00 
1.0000000e+00 -1.0000000e+00 2.0000000e+00 
1.0000000e+00 -1.0000000e+00 4.0000000e+00 
1.0000000e+00 -1.0000000e+00 6.0000000e+00 
1.0000000e+00 -1.0000000e+00 8.0000000e+00 
1.0000000e+00 1.0000000e+00 2.0000000e+00 
1.0000000e+00 1.0000000e+00 4.0000000e+00 
1.0000000e+00 1.0000000e+00 6.0000000e+00 
1.0000000e+00 1.0000000e+00 8.0000000e+00 
-1.0000000e+00 1.0000000e+00 2.0000000e+00 
-1.0000000e+00 1.0000000e+00 4.0000000e+00 
-1.0000000e+00 1.0000000e+00 6.0000000e+00 
-1.0000000e+00 1.0000000e+00 8.0000000e+00 
0.0000000e+00 0.0000000e+00 0.0000000e+00 
0.0000000e+00 -1.0000000e+00 1.0000000e+00 
0.0000000e+00 -1.0000000e+00 9.0000000e+00 
0.0000000e+00 -1.0000000e+00 5.0000000e+00 
0.0000000e+00 -1.0000000e+00 7.0000000e+00 
0.0000000e+00 -1.0000000e+00 3.0000000e+00 
1.0000000e+00 0.0000000e+00 1.0000000e+00 
1.0000000e+00 0.0000000e+00 9.0000000e+00 
1.0000000e+00 0.0000000e+00 3.0000000e+00 
1.0000000e+00 0.0000000e+00 5.0000000e+00 
1.0000000e+00 0.0000000e+00 7.0000000e+00 
0.0000000e+00 1.0000000e+00 1.0000000e+00 
0.0000000e+00 1.0000000e+00 9.0000000e+00 
0.0000000e+00 1.0000000e+00 3.0000000e+00 
0.0000000e+00 1.0000000e+00 5.0000000e+00 
0.0000000e+00 1.0000000e+00 7.0000000e+00 
-1.0000000e+00 0.0000000e+00 1.0000000e+00 
-1.0000000e+00 0.0000000e+00 9.0000000e+00 
-1.0000000e+00 0.0000000e+00 3.0000000e+00 
-1.0000000e+00 0.0000000e+00 5.0000000e+00 
-1.0000000e+00 0.0000000e+00 7.0000000e+00 
0.0000000e+00 0.0000000e+00 1.0000000e+01 
1.6666667e-01 3.3333334e-01 1.8333334e+00 

CELLS 104 520
4 37 20 16 46
4 16 20 35 46
4 42 32 17 29
4 20 25 40 35
4 43 38 10 27
4 44 39 11 28
4 32 42 12 29
4 39 28 14 34
4 28 39 14 44
4 41 26 15 36
4 31 15 26 36
4 15 28 39 34
4 27 38 9 43
4 14 27 38 33
4 38 27 9 33
4 42 32 12 37
4 32 37 42 17
4 20 25 35 46
4 37 16 12 46
4 29 8 42 12
4 37 21 42 17
4 44 10 38 14
4 26 11 41 15
4 8 20 25 40
4 23 19 41 39
4 39 41 11 15
4 11 23 39 44
4 41 23 39 11
4 28 39 11 15
4 22 10 38 44
4 18 44 14 39
4 10 22 38 43
4 18 22 44 39
4 27 9 33 13
4 22 18 44 38
4 27 38 10 14
4 28 10 44 14
4 29 32 17 13
4 18 39 14 34
4 19 23 41 36
4 19 15 39 34
4 18 44 38 14
4 36 31 15 19
4 39 41 15 19
4 36 15 41 19
4 38 9 43 21
4 25 42 8 12
4 16 32 37 12
4 18 14 38 33
4 33 9 38 17
4 20 8 25 42
4 17 9 42 29
4 9 17 33 13
4 21 9 42 17
4 38 9 21 17
4 17 9 29 13
4 30 35 24 25
4 26 41 45 36
4 31 26 45 36
4 40 24 35 25
4 30 24 2 1
4 0 40 24 3
4 42 20 21 37
4 38 21 43 22
4 20 40 3 35
4 35 2 16 30
4 23 22 39 44
4 10 9 43 27
4 4 41 7 45
4 41 4 11 26
4 11 10 44 28
4 45 5 31 6
4 14 27 33 13
4 26 45 4 5
4 23 7 41 36
4 5 15 26 31
4 7 45 36 6
4 31 36 6 19
4 18 19 39 34
4 15 14 28 34
4 17 32 37 16
4 42 9 8 29
4 3 24 2 35
4 17 18 38 33
4 40 8 0 25
4 25 0 24 1
4 13 29 32 12
4 1 30 25 12
4 24 2 35 30
4 4 41 45 26
4 45 41 7 36
4 26 45 5 31
4 24 40 0 25
4 40 24 3 35
4 45 31 36 6
4 24 30 25 1
4 46 16 30 35
4 30 16 46 12
4 30 25 46 35
4 46 25 30 12
4 20 46 42 25
4 20 42 46 37
4 12 42 46 25
4 12 46 42 37

CELL_TYPES 104
10
10
10
10
10
10
10
10
10
10
10
10
10
10
10
10
10
10
10
10
10
10
10
10
10
10
10
10
10
10
10
10
10
10
10
10
10
10
10
10
10
10
10
10
10
10
10
10
10
10
10
10
10
10
10
10
10
10
10
10
10
10
10
10
10
10
10
10
10
10
10
10
10
10
10
10
10
10
10
10
10
10
10
10
10
10
10
10
10
10
10
10
10
10
10
10
10
10
10
10
10
10
10
10
POINT_DATA 47
FIELD FieldData 2
DISPLACEMENT 3 47  float
0.0000000e+00 0.0000000e+00 -5.4519987e-06 
0.0000000e+00 0.0000000e+00 -5.4519928e-06 
0.0000000e+00 0.0000000e+00 -5.4519669e-06 
0.0000000e+00 0.0000000e+00 -5.4520096e-06 
0.0000000e+00 0.0000000e+00 -6.3545317e-06 
0.0000000e+00 0.0000000e+00 -6.3545053e-06 
0.0000000e+00 0.0000000e+00 -6.3545276e-06 
0.0000000e+00 0.0000000e+00 -6.3545563e-06 
0.0000000e+00 0.0000000e+00 -5.6329263e-06 
0.0000000e+00 0.0000000e+00 -5.8136279e-06 
0.0000000e+00 0.0000000e+00 -5.9940890e-06 
0.0000000e+00 0.0000000e+00 -6.1744176e-06 
0.0000000e+00 0.0000000e+00 -5.6329122e-06 
0.0000000e+00 0.0000000e+00 -5.8136188e-06 
0.0000000e+00 0.0000000e+00 -5.9941426e-06 
0.0000000e+00 0.0000000e+00 -6.1744763e-06 
0.0000000e+00 0.0000000e+00 -5.6328981e-06 
0.0000000e+00 0.0000000e+00 -5.8136388e-06 
0.0000000e+00 0.0000000e+00 -5.9941426e-06 
0.0000000e+00 0.0000000e+00 -6.1744836e-06 
0.0000000e+00 0.0000000e+00 -5.6329045e-06 
0.0000000e+00 0.0000000e+00 -5.8136266e-06 
0.0000000e+00 0.0000000e+00 -5.9941049e-06 
0.0000000e+00 0.0000000e+00 -6.1744263e-06 
6.2263376e-12 3.9025237e-12 -5.4519996e-06 
0.0000000e+00 0.0000000e+00 -5.5424839e-06 
0.0000000e+00 0.0000000e+00 -6.2645099e-06 
0.0000000e+00 0.0000000e+00 -5.9038994e-06 
0.0000000e+00 0.0000000e+00 -6.0843017e-06 
0.0000000e+00 0.0000000e+00 -5.7233037e-06 
0.0000000e+00 0.0000000e+00 -5.5424607e-06 
0.0000000e+00 0.0000000e+00 -6.2645208e-06 
0.0000000e+00 0.0000000e+00 -5.7232928e-06 
0.0000000e+00 0.0000000e+00 -5.9039180e-06 
0.0000000e+00 0.0000000e+00 -6.0843413e-06 
0.0000000e+00 0.0000000e+00 -5.5424653e-06 
0.0000000e+00 0.0000000e+00 -6.2645290e-06 
0.0000000e+00 0.0000000e+00 -5.7232937e-06 
0.0000000e+00 0.0000000e+00 -5.9039235e-06 
0.0000000e+00 0.0000000e+00 -6.0843195e-06 
0.0000000e+00 0.0000000e+00 -5.5424834e-06 
0.0000000e+00 0.0000000e+00 -6.2645149e-06 
0.0000000e+00 0.0000000e+00 -5.7233142e-06 
0.0000000e+00 0.0000000e+00 -5.9038925e-06 
0.0000000e+00 0.0000000e+00 -6.0842785e-06 
1.3095253e-11 -8.5522214e-12 -6.3545149e-06 
-3.9263449e-13 1.5360043e-12 -5.6178305e-06 
VELOCITY 3 47  float
0.0000000e+00 0.0000000e+00 -2.0823607e-05 
0.0000000e+00 0.0000000e+00 -2.0809552e-05 
0.0000000e+00 0.0000000e+00 -2.0826117e-05 
0.0000000e+00 0.0000000e+00 -2.0809686e-05 
0.0000000e+00 0.0000000e+00 -2.0822248e-05 
0.0000000e+00 0.0000000e+00 -2.0808755e-05 
0.0000000e+00 0.0000000e+00 -2.0829375e-05 
0.0000000e+00 0.0000000e+00 -2.0810141e-05 
0.0000000e+00 0.0000000e+00 -2.0816155e-05 
0.0000000e+00 0.0000000e+00 -2.0798847e-05 
0.0000000e+00 0.0000000e+00 -2.0821071e-05 
0.0000000e+00 0.0000000e+00 -2.0823360e-05 
0.0000000e+00 0.0000000e+00 -2.0819196e-05 
0.0000000e+00 0.0000000e+00 -2.0812728e-05 
0.0000000e+00 0.0000000e+00 -2.0816349e-05 
0.0000000e+00 0.0000000e+00 -2.0805985e-05 
0.0000000e+00 0.0000000e+00 -2.0826035e-05 
0.0000000e+00 0.0000000e+00 -2.0829963e-05 
0.0000000e+00 0.0000000e+00 -2.0819602e-05 
0.0000000e+00 0.0000000e+00 -2.0805997e-05 
0.0000000e+00 0.0000000e+00 -2.0813291e-05 
0.0000000e+00 0.0000000e+00 -2.0821963e-05 
0.0000000e+00 0.0000000e+00 -2.0809613e-05 
0.0000000e+00 0.0000000e+00 -2.0832458e-05 
-1.2787614e-09 -9.0198871e-10 -2.0813570e-05 
0.0000000e+00 0.0000000e+00 -2.0820169e-05 
0.0000000e+00 0.0000000e+00 -2.0808326e-05 
0.0000000e+00 0.0000000e+00 -2.0816886e-05 
0.0000000e+00 0.0000000e+00 -2.0813597e-05 
0.0000000e+00 0.0000000e+00 -2.0800400e-05 
0.0000000e+00 0.0000000e+00 -2.0818979e-05 
0.0000000e+00 0.0000000e+00 -2.0824999e-05 
0.0000000e+00 0.0000000e+00 -2.0820440e-05 
0.0000000e+00 0.0000000e+00 -2.0826876e-05 
0.0000000e+00 0.0000000e+00 -2.0808397e-05 
0.0000000e+00 0.0000000e+00 -2.0814423e-05 
0.0000000e+00 0.0000000e+00 -2.0818596e-05 
0.0000000e+00 0.0000000e+00 -2.0826556e-05 
0.0000000e+00 0.0000000e+00 -2.0813437e-05 
0.0000000e+00 0.0000000e+00 -2.0818456e-05 
0.0000000e+00 0.0000000e+00 -2.0812407e-05 
0.0000000e+00 0.0000000e+00 -2.0824997e-05 
0.0000000e+00 0.0000000e+00 -2.0812884e-05 
0.0000000e+00 0.0000000e+00 -2.0809577e-05 
0.0000000e+00 0.0000000e+00 -2.0819598e-05 
2.9501113e-09 5.8294003e-10 -2.0803694e-05 
-1.4258258e-10 7.2819689e-10 -2.0822552e-05 
CELL_DATA 104
FIELD FieldData 0
