# vtk DataFile Version 4.0
vtk output
ASCII
DATASET UNSTRUCTURED_GRID
POINTS 47 float
-1.0000000e+00 -1.0000000e+00 0.0000000e+00 
1.0000000e+00 -1.0000000e+00 0.0000000e+00 
1.0000000e+00 1.0000000e+00 0.0000000e+00 
-1.0000000e+00 1.0000000e+00 0.0000000e+00 
-1.0000000e+00 -1.0000000e+00 1.0000000e+01 
1.0000000e+00 -1.0000000e+00 1.0000000e+01 
1.0000000e+00 1.0000000e+00 1.0000000e+01 
-1.0000000e+00 1.0000000e+00 1.0000000e+01 
-1.0000000e+00 -1.0000000e+00 2.0000000e+00 
-1.0000000e+00 -1.0000000e+00 4.0000000e+00 
-1.0000000e+00 -1.0000000e+00 6.0000000e+00 
-1.0000000e+00 -1.0000000e+00 8.0000000e+00 
1.0000000e+00 -1.0000000e+00 2.0000000e+00 
1.0000000e+00 -1.0000000e+00 4.0000000e+00 
1.0000000e+00 -1.0000000e+00 6.0000000e+00 
1.0000000e+00 -1.0000000e+00 8.0000000e+00 
1.0000000e+00 1.0000000e+00 2.0000000e+00 
1.0000000e+00 1.0000000e+00 4.0000000e+00 
1.0000000e+00 1.0000000e+00 6.0000000e+00 
1.0000000e+00 1.0000000e+00 8.0000000e+00 
-1.0000000e+00 1.0000000e+00 2.0000000e+00 
-1.0000000e+00 1.0000000e+00 4.0000000e+00 
-1.0000000e+00 1.0000000e+00 6.0000000e+00 
-1.0000000e+00 1.0000000e+00 8.0000000e+00 
0.0000000e+00 0.0000000e+00 0.0000000e+00 
0.0000000e+00 -1.0000000e+00 1.0000000e+00 
0.0000000e+00 -1.0000000e+00 9.0000000e+00 
0.0000000e+00 -1.0000000e+00 5.0000000e+00 
0.0000000e+00 -1.0000000e+00 7.0000000e+00 
0.0000000e+00 -1.0000000e+00 3.0000000e+00 
1.0000000e+00 0.0000000e+00 1.0000000e+00 
1.0000000e+00 0.0000000e+00 9.0000000e+00 
1.0000000e+00 0.0000000e+00 3.0000000e+00 
1.0000000e+00 0.0000000e+00 5.0000000e+00 
1.0000000e+00 0.0000000e+00 7.0000000e+00 
0.0000000e+00 1.0000000e+00 1.0000000e+00 
0.0000000e+00 1.0000000e+00 9.0000000e+00 
0.0000000e+00 1.0000000e+00 3.0000000e+00 
0.0000000e+00 1.0000000e+00 5.0000000e+00 
0.0000000e+00 1.0000000e+00 7.0000000e+00 
-1.0000000e+00 0.0000000e+00 1.0000000e+00 
-1.0000000e+00 0.0000000e+00 9.0000000e+00 
-1.0000000e+00 0.0000000e+00 3.0000000e+00 
-1.0000000e+00 0.0000000e+00 5.0000000e+00 
-1.0000000e+00 0.0000000e+00 7.0000000e+00 
0.0000000e+00 0.0000000e+00 1.0000000e+01 
1.6666667e-01 3.3333334e-01 1.8333334e+00 

CELLS 104 520
4 37 20 16 46
4 16 20 35 46
4 42 32 17 29
4 20 25 40 35
4 43 38 10 27
4 44 39 11 28
4 32 42 12 29
4 39 28 14 34
4 28 39 14 44
4 41 26 15 36
4 31 15 26 36
4 15 28 39 34
4 27 38 9 43
4 14 27 38 33
4 38 27 9 33
4 42 32 12 37
4 32 37 42 17
4 20 25 35 46
4 37 16 12 46
4 29 8 42 12
4 37 21 42 17
4 44 10 38 14
4 26 11 41 15
4 8 20 25 40
4 23 19 41 39
4 39 41 11 15
4 11 23 39 44
4 41 23 39 11
4 28 39 11 15
4 22 10 38 44
4 18 44 14 39
4 10 22 38 43
4 18 22 44 39
4 27 9 33 13
4 22 18 44 38
4 27 38 10 14
4 28 10 44 14
4 29 32 17 13
4 18 39 14 34
4 19 23 41 36
4 19 15 39 34
4 18 44 38 14
4 36 31 15 19
4 39 41 15 19
4 36 15 41 19
4 38 9 43 21
4 25 42 8 12
4 16 32 37 12
4 18 14 38 33
4 33 9 38 17
4 20 8 25 42
4 17 9 42 29
4 9 17 33 13
4 21 9 42 17
4 38 9 21 17
4 17 9 29 13
4 30 35 24 25
4 26 41 45 36
4 31 26 45 36
4 40 24 35 25
4 30 24 2 1
4 0 40 24 3
4 42 20 21 37
4 38 21 43 22
4 20 40 3 35
4 35 2 16 30
4 23 22 39 44
4 10 9 43 27
4 4 41 7 45
4 41 4 11 26
4 11 10 44 28
4 45 5 31 6
4 14 27 33 13
4 26 45 4 5
4 23 7 41 36
4 5 15 26 31
4 7 45 36 6
4 31 36 6 19
4 18 19 39 34
4 15 14 28 34
4 17 32 37 16
4 42 9 8 29
4 3 24 2 35
4 17 18 38 33
4 40 8 0 25
4 25 0 24 1
4 13 29 32 12
4 1 30 25 12
4 24 2 35 30
4 4 41 45 26
4 45 41 7 36
4 26 45 5 31
4 24 40 0 25
4 40 24 3 35
4 45 31 36 6
4 24 30 25 1
4 46 16 30 35
4 30 16 46 12
4 30 25 46 35
4 46 25 30 12
4 20 46 42 25
4 20 42 46 37
4 12 42 46 25
4 12 46 42 37

CELL_TYPES 104
10
10
10
10
10
10
10
10
10
10
10
10
10
10
10
10
10
10
10
10
10
10
10
10
10
10
10
10
10
10
10
10
10
10
10
10
10
10
10
10
10
10
10
10
10
10
10
10
10
10
10
10
10
10
10
10
10
10
10
10
10
10
10
10
10
10
10
10
10
10
10
10
10
10
10
10
10
10
10
10
10
10
10
10
10
10
10
10
10
10
10
10
10
10
10
10
10
10
10
10
10
10
10
10
POINT_DATA 47
FIELD FieldData 2
DISPLACEMENT 3 47  float
0.0000000e+00 0.0000000e+00 -1.1785324e-06 
0.0000000e+00 0.0000000e+00 -1.1776733e-06 
0.0000000e+00 0.0000000e+00 -1.1773764e-06 
0.0000000e+00 0.0000000e+00 -1.1782818e-06 
0.0000000e+00 0.0000000e+00 -2.0870345e-06 
0.0000000e+00 0.0000000e+00 -2.0857785e-06 
0.0000000e+00 0.0000000e+00 -2.0827263e-06 
0.0000000e+00 0.0000000e+00 -2.0839636e-06 
0.0000000e+00 0.0000000e+00 -1.3613679e-06 
0.0000000e+00 0.0000000e+00 -1.5431900e-06 
0.0000000e+00 0.0000000e+00 -1.7234597e-06 
0.0000000e+00 0.0000000e+00 -1.9055277e-06 
0.0000000e+00 0.0000000e+00 -1.3606905e-06 
0.0000000e+00 0.0000000e+00 -1.5431730e-06 
0.0000000e+00 0.0000000e+00 -1.7235800e-06 
0.0000000e+00 0.0000000e+00 -1.9037964e-06 
0.0000000e+00 0.0000000e+00 -1.3594656e-06 
0.0000000e+00 0.0000000e+00 -1.5429705e-06 
0.0000000e+00 0.0000000e+00 -1.7227820e-06 
0.0000000e+00 0.0000000e+00 -1.9024127e-06 
0.0000000e+00 0.0000000e+00 -1.3603754e-06 
0.0000000e+00 0.0000000e+00 -1.5432641e-06 
0.0000000e+00 0.0000000e+00 -1.7234710e-06 
0.0000000e+00 0.0000000e+00 -1.9051827e-06 
2.8732867e-09 2.8115239e-09 -1.1768640e-06 
0.0000000e+00 0.0000000e+00 -1.2688131e-06 
0.0000000e+00 0.0000000e+00 -1.9961653e-06 
0.0000000e+00 0.0000000e+00 -1.6332017e-06 
0.0000000e+00 0.0000000e+00 -1.8138669e-06 
0.0000000e+00 0.0000000e+00 -1.4528327e-06 
0.0000000e+00 0.0000000e+00 -1.2667425e-06 
0.0000000e+00 0.0000000e+00 -1.9950812e-06 
0.0000000e+00 0.0000000e+00 -1.4522683e-06 
0.0000000e+00 0.0000000e+00 -1.6331317e-06 
0.0000000e+00 0.0000000e+00 -1.8127140e-06 
0.0000000e+00 0.0000000e+00 -1.2669002e-06 
0.0000000e+00 0.0000000e+00 -1.9945139e-06 
0.0000000e+00 0.0000000e+00 -1.4523265e-06 
0.0000000e+00 0.0000000e+00 -1.6330333e-06 
0.0000000e+00 0.0000000e+00 -1.8128595e-06 
0.0000000e+00 0.0000000e+00 -1.2689184e-06 
0.0000000e+00 0.0000000e+00 -1.9965389e-06 
0.0000000e+00 0.0000000e+00 -1.4530851e-06 
0.0000000e+00 0.0000000e+00 -1.6330901e-06 
0.0000000e+00 0.0000000e+00 -1.8139018e-06 
7.5981882e-10 7.9001033e-10 -2.0846405e-06 
-1.6215697e-10 -1.0305182e-10 -1.3446879e-06 
VELOCITY 3 47  float
0.0000000e+00 0.0000000e+00 -2.1733051e-05 
0.0000000e+00 0.0000000e+00 -2.1571037e-05 
0.0000000e+00 0.0000000e+00 -2.1130923e-05 
0.0000000e+00 0.0000000e+00 -2.1312670e-05 
0.0000000e+00 0.0000000e+00 -2.0559130e-05 
0.0000000e+00 0.0000000e+00 -2.1285092e-05 
0.0000000e+00 0.0000000e+00 -2.1633843e-05 
0.0000000e+00 0.0000000e+00 -2.0850324e-05 
0.0000000e+00 0.0000000e+00 -2.2251976e-05 
0.0000000e+00 0.0000000e+00 -2.1679451e-05 
0.0000000e+00 0.0000000e+00 -2.2467913e-05 
0.0000000e+00 0.0000000e+00 -2.2771224e-05 
0.0000000e+00 0.0000000e+00 -2.2379787e-05 
0.0000000e+00 0.0000000e+00 -2.1585538e-05 
0.0000000e+00 0.0000000e+00 -2.1836560e-05 
0.0000000e+00 0.0000000e+00 -2.2514270e-05 
0.0000000e+00 0.0000000e+00 -2.2483182e-05 
0.0000000e+00 0.0000000e+00 -2.1579761e-05 
0.0000000e+00 0.0000000e+00 -2.1281247e-05 
0.0000000e+00 0.0000000e+00 -2.2249335e-05 
0.0000000e+00 0.0000000e+00 -2.2401768e-05 
0.0000000e+00 0.0000000e+00 -2.1702517e-05 
0.0000000e+00 0.0000000e+00 -2.1947450e-05 
0.0000000e+00 0.0000000e+00 -2.2509170e-05 
3.8133265e-08 9.7607760e-08 -2.1455930e-05 
0.0000000e+00 0.0000000e+00 -2.2564900e-05 
0.0000000e+00 0.0000000e+00 -2.2059945e-05 
0.0000000e+00 0.0000000e+00 -2.1998409e-05 
0.0000000e+00 0.0000000e+00 -2.2213937e-05 
0.0000000e+00 0.0000000e+00 -2.1786991e-05 
0.0000000e+00 0.0000000e+00 -2.2171447e-05 
0.0000000e+00 0.0000000e+00 -2.1420428e-05 
0.0000000e+00 0.0000000e+00 -2.1919974e-05 
0.0000000e+00 0.0000000e+00 -2.1756030e-05 
0.0000000e+00 0.0000000e+00 -2.1720913e-05 
0.0000000e+00 0.0000000e+00 -2.2060136e-05 
0.0000000e+00 0.0000000e+00 -2.2213666e-05 
0.0000000e+00 0.0000000e+00 -2.2066097e-05 
0.0000000e+00 0.0000000e+00 -2.1754768e-05 
0.0000000e+00 0.0000000e+00 -2.1835469e-05 
0.0000000e+00 0.0000000e+00 -2.2284485e-05 
0.0000000e+00 0.0000000e+00 -2.2382390e-05 
0.0000000e+00 0.0000000e+00 -2.1882463e-05 
0.0000000e+00 0.0000000e+00 -2.2001599e-05 
0.0000000e+00 0.0000000e+00 -2.2248594e-05 
-7.0307777e-07 -4.8832152e-07 -2.2047907e-05 
-3.1507986e-07 -3.5261462e-07 -2.2536802e-05 
CELL_DATA 104
FIELD FieldData 0
