# vtk DataFile Version 4.0
vtk output
ASCII
DATASET UNSTRUCTURED_GRID
POINTS 47 float
-1.0000000e+00 -1.0000000e+00 0.0000000e+00 
1.0000000e+00 -1.0000000e+00 0.0000000e+00 
1.0000000e+00 1.0000000e+00 0.0000000e+00 
-1.0000000e+00 1.0000000e+00 0.0000000e+00 
-1.0000000e+00 -1.0000000e+00 1.0000000e+01 
1.0000000e+00 -1.0000000e+00 1.0000000e+01 
1.0000000e+00 1.0000000e+00 1.0000000e+01 
-1.0000000e+00 1.0000000e+00 1.0000000e+01 
-1.0000000e+00 -1.0000000e+00 2.0000000e+00 
-1.0000000e+00 -1.0000000e+00 4.0000000e+00 
-1.0000000e+00 -1.0000000e+00 6.0000000e+00 
-1.0000000e+00 -1.0000000e+00 8.0000000e+00 
1.0000000e+00 -1.0000000e+00 2.0000000e+00 
1.0000000e+00 -1.0000000e+00 4.0000000e+00 
1.0000000e+00 -1.0000000e+00 6.0000000e+00 
1.0000000e+00 -1.0000000e+00 8.0000000e+00 
1.0000000e+00 1.0000000e+00 2.0000000e+00 
1.0000000e+00 1.0000000e+00 4.0000000e+00 
1.0000000e+00 1.0000000e+00 6.0000000e+00 
1.0000000e+00 1.0000000e+00 8.0000000e+00 
-1.0000000e+00 1.0000000e+00 2.0000000e+00 
-1.0000000e+00 1.0000000e+00 4.0000000e+00 
-1.0000000e+00 1.0000000e+00 6.0000000e+00 
-1.0000000e+00 1.0000000e+00 8.0000000e+00 
0.0000000e+00 0.0000000e+00 0.0000000e+00 
0.0000000e+00 -1.0000000e+00 1.0000000e+00 
0.0000000e+00 -1.0000000e+00 9.0000000e+00 
0.0000000e+00 -1.0000000e+00 5.0000000e+00 
0.0000000e+00 -1.0000000e+00 7.0000000e+00 
0.0000000e+00 -1.0000000e+00 3.0000000e+00 
1.0000000e+00 0.0000000e+00 1.0000000e+00 
1.0000000e+00 0.0000000e+00 9.0000000e+00 
1.0000000e+00 0.0000000e+00 3.0000000e+00 
1.0000000e+00 0.0000000e+00 5.0000000e+00 
1.0000000e+00 0.0000000e+00 7.0000000e+00 
0.0000000e+00 1.0000000e+00 1.0000000e+00 
0.0000000e+00 1.0000000e+00 9.0000000e+00 
0.0000000e+00 1.0000000e+00 3.0000000e+00 
0.0000000e+00 1.0000000e+00 5.0000000e+00 
0.0000000e+00 1.0000000e+00 7.0000000e+00 
-1.0000000e+00 0.0000000e+00 1.0000000e+00 
-1.0000000e+00 0.0000000e+00 9.0000000e+00 
-1.0000000e+00 0.0000000e+00 3.0000000e+00 
-1.0000000e+00 0.0000000e+00 5.0000000e+00 
-1.0000000e+00 0.0000000e+00 7.0000000e+00 
0.0000000e+00 0.0000000e+00 1.0000000e+01 
1.6666667e-01 3.3333334e-01 1.8333334e+00 

CELLS 104 520
4 37 20 16 46
4 16 20 35 46
4 42 32 17 29
4 20 25 40 35
4 43 38 10 27
4 44 39 11 28
4 32 42 12 29
4 39 28 14 34
4 28 39 14 44
4 41 26 15 36
4 31 15 26 36
4 15 28 39 34
4 27 38 9 43
4 14 27 38 33
4 38 27 9 33
4 42 32 12 37
4 32 37 42 17
4 20 25 35 46
4 37 16 12 46
4 29 8 42 12
4 37 21 42 17
4 44 10 38 14
4 26 11 41 15
4 8 20 25 40
4 23 19 41 39
4 39 41 11 15
4 11 23 39 44
4 41 23 39 11
4 28 39 11 15
4 22 10 38 44
4 18 44 14 39
4 10 22 38 43
4 18 22 44 39
4 27 9 33 13
4 22 18 44 38
4 27 38 10 14
4 28 10 44 14
4 29 32 17 13
4 18 39 14 34
4 19 23 41 36
4 19 15 39 34
4 18 44 38 14
4 36 31 15 19
4 39 41 15 19
4 36 15 41 19
4 38 9 43 21
4 25 42 8 12
4 16 32 37 12
4 18 14 38 33
4 33 9 38 17
4 20 8 25 42
4 17 9 42 29
4 9 17 33 13
4 21 9 42 17
4 38 9 21 17
4 17 9 29 13
4 30 35 24 25
4 26 41 45 36
4 31 26 45 36
4 40 24 35 25
4 30 24 2 1
4 0 40 24 3
4 42 20 21 37
4 38 21 43 22
4 20 40 3 35
4 35 2 16 30
4 23 22 39 44
4 10 9 43 27
4 4 41 7 45
4 41 4 11 26
4 11 10 44 28
4 45 5 31 6
4 14 27 33 13
4 26 45 4 5
4 23 7 41 36
4 5 15 26 31
4 7 45 36 6
4 31 36 6 19
4 18 19 39 34
4 15 14 28 34
4 17 32 37 16
4 42 9 8 29
4 3 24 2 35
4 17 18 38 33
4 40 8 0 25
4 25 0 24 1
4 13 29 32 12
4 1 30 25 12
4 24 2 35 30
4 4 41 45 26
4 45 41 7 36
4 26 45 5 31
4 24 40 0 25
4 40 24 3 35
4 45 31 36 6
4 24 30 25 1
4 46 16 30 35
4 30 16 46 12
4 30 25 46 35
4 46 25 30 12
4 20 46 42 25
4 20 42 46 37
4 12 42 46 25
4 12 46 42 37

CELL_TYPES 104
10
10
10
10
10
10
10
10
10
10
10
10
10
10
10
10
10
10
10
10
10
10
10
10
10
10
10
10
10
10
10
10
10
10
10
10
10
10
10
10
10
10
10
10
10
10
10
10
10
10
10
10
10
10
10
10
10
10
10
10
10
10
10
10
10
10
10
10
10
10
10
10
10
10
10
10
10
10
10
10
10
10
10
10
10
10
10
10
10
10
10
10
10
10
10
10
10
10
10
10
10
10
10
10
POINT_DATA 47
FIELD FieldData 2
DISPLACEMENT 3 47  float
0.0000000e+00 0.0000000e+00 -7.5082444e-06 
0.0000000e+00 0.0000000e+00 -7.5082562e-06 
0.0000000e+00 0.0000000e+00 -7.5082562e-06 
0.0000000e+00 0.0000000e+00 -7.5082485e-06 
0.0000000e+00 0.0000000e+00 -8.4107141e-06 
0.0000000e+00 0.0000000e+00 -8.4107342e-06 
0.0000000e+00 0.0000000e+00 -8.4107523e-06 
0.0000000e+00 0.0000000e+00 -8.4107260e-06 
0.0000000e+00 0.0000000e+00 -7.6891283e-06 
0.0000000e+00 0.0000000e+00 -7.8698249e-06 
0.0000000e+00 0.0000000e+00 -8.0503223e-06 
0.0000000e+00 0.0000000e+00 -8.2306178e-06 
0.0000000e+00 0.0000000e+00 -7.6891574e-06 
0.0000000e+00 0.0000000e+00 -7.8698376e-06 
0.0000000e+00 0.0000000e+00 -8.0503460e-06 
0.0000000e+00 0.0000000e+00 -8.2306515e-06 
0.0000000e+00 0.0000000e+00 -7.6891693e-06 
0.0000000e+00 0.0000000e+00 -7.8698531e-06 
0.0000000e+00 0.0000000e+00 -8.0503551e-06 
0.0000000e+00 0.0000000e+00 -8.2306524e-06 
0.0000000e+00 0.0000000e+00 -7.6891502e-06 
0.0000000e+00 0.0000000e+00 -7.8698395e-06 
0.0000000e+00 0.0000000e+00 -8.0503223e-06 
0.0000000e+00 0.0000000e+00 -8.2306242e-06 
-2.4230774e-11 -2.1002533e-11 -7.5082571e-06 
0.0000000e+00 0.0000000e+00 -7.5987318e-06 
0.0000000e+00 0.0000000e+00 -8.3207069e-06 
0.0000000e+00 0.0000000e+00 -7.9601059e-06 
0.0000000e+00 0.0000000e+00 -8.1405014e-06 
0.0000000e+00 0.0000000e+00 -7.7795121e-06 
0.0000000e+00 0.0000000e+00 -7.5987368e-06 
0.0000000e+00 0.0000000e+00 -8.3207187e-06 
0.0000000e+00 0.0000000e+00 -7.7795212e-06 
0.0000000e+00 0.0000000e+00 -7.9601250e-06 
0.0000000e+00 0.0000000e+00 -8.1405215e-06 
0.0000000e+00 0.0000000e+00 -7.5987318e-06 
0.0000000e+00 0.0000000e+00 -8.3207151e-06 
0.0000000e+00 0.0000000e+00 -7.7795294e-06 
0.0000000e+00 0.0000000e+00 -7.9601259e-06 
0.0000000e+00 0.0000000e+00 -8.1405224e-06 
0.0000000e+00 0.0000000e+00 -7.5987159e-06 
0.0000000e+00 0.0000000e+00 -8.3207069e-06 
0.0000000e+00 0.0000000e+00 -7.7795175e-06 
0.0000000e+00 0.0000000e+00 -7.9601014e-06 
0.0000000e+00 0.0000000e+00 -8.1405042e-06 
-2.2712552e-11 -2.3125316e-11 -8.4107405e-06 
-1.8166392e-11 -1.8020339e-11 -7.6740907e-06 
VELOCITY 3 47  float
0.0000000e+00 0.0000000e+00 -2.0312025e-05 
0.0000000e+00 0.0000000e+00 -2.0311878e-05 
0.0000000e+00 0.0000000e+00 -2.0312536e-05 
0.0000000e+00 0.0000000e+00 -2.0310286e-05 
0.0000000e+00 0.0000000e+00 -2.0316105e-05 
0.0000000e+00 0.0000000e+00 -2.0312940e-05 
0.0000000e+00 0.0000000e+00 -2.0311409e-05 
0.0000000e+00 0.0000000e+00 -2.0311780e-05 
0.0000000e+00 0.0000000e+00 -2.0310790e-05 
0.0000000e+00 0.0000000e+00 -2.0312784e-05 
0.0000000e+00 0.0000000e+00 -2.0317011e-05 
0.0000000e+00 0.0000000e+00 -2.0311616e-05 
0.0000000e+00 0.0000000e+00 -2.0309684e-05 
0.0000000e+00 0.0000000e+00 -2.0308995e-05 
0.0000000e+00 0.0000000e+00 -2.0312329e-05 
0.0000000e+00 0.0000000e+00 -2.0306245e-05 
0.0000000e+00 0.0000000e+00 -2.0307920e-05 
0.0000000e+00 0.0000000e+00 -2.0306230e-05 
0.0000000e+00 0.0000000e+00 -2.0310004e-05 
0.0000000e+00 0.0000000e+00 -2.0305210e-05 
0.0000000e+00 0.0000000e+00 -2.0308880e-05 
0.0000000e+00 0.0000000e+00 -2.0311889e-05 
0.0000000e+00 0.0000000e+00 -2.0307622e-05 
0.0000000e+00 0.0000000e+00 -2.0310063e-05 
-1.4690336e-09 -1.0142532e-09 -2.0312113e-05 
0.0000000e+00 0.0000000e+00 -2.0312389e-05 
0.0000000e+00 0.0000000e+00 -2.0310905e-05 
0.0000000e+00 0.0000000e+00 -2.0311696e-05 
0.0000000e+00 0.0000000e+00 -2.0311814e-05 
0.0000000e+00 0.0000000e+00 -2.0310548e-05 
0.0000000e+00 0.0000000e+00 -2.0312507e-05 
0.0000000e+00 0.0000000e+00 -2.0308438e-05 
0.0000000e+00 0.0000000e+00 -2.0307736e-05 
0.0000000e+00 0.0000000e+00 -2.0307391e-05 
0.0000000e+00 0.0000000e+00 -2.0307894e-05 
0.0000000e+00 0.0000000e+00 -2.0310697e-05 
0.0000000e+00 0.0000000e+00 -2.0307985e-05 
0.0000000e+00 0.0000000e+00 -2.0307580e-05 
0.0000000e+00 0.0000000e+00 -2.0307423e-05 
0.0000000e+00 0.0000000e+00 -2.0309106e-05 
0.0000000e+00 0.0000000e+00 -2.0311245e-05 
0.0000000e+00 0.0000000e+00 -2.0311350e-05 
0.0000000e+00 0.0000000e+00 -2.0310212e-05 
0.0000000e+00 0.0000000e+00 -2.0311551e-05 
0.0000000e+00 0.0000000e+00 -2.0312633e-05 
7.5617013e-10 7.9660400e-10 -2.0309177e-05 
7.3282774e-10 5.0314070e-10 -2.0309410e-05 
CELL_DATA 104
FIELD FieldData 0
