# vtk DataFile Version 4.0
vtk output
ASCII
DATASET UNSTRUCTURED_GRID
POINTS 47 float
-1.0000000e+00 -1.0000000e+00 0.0000000e+00 
1.0000000e+00 -1.0000000e+00 0.0000000e+00 
1.0000000e+00 1.0000000e+00 0.0000000e+00 
-1.0000000e+00 1.0000000e+00 0.0000000e+00 
-1.0000000e+00 -1.0000000e+00 1.0000000e+01 
1.0000000e+00 -1.0000000e+00 1.0000000e+01 
1.0000000e+00 1.0000000e+00 1.0000000e+01 
-1.0000000e+00 1.0000000e+00 1.0000000e+01 
-1.0000000e+00 -1.0000000e+00 2.0000000e+00 
-1.0000000e+00 -1.0000000e+00 4.0000000e+00 
-1.0000000e+00 -1.0000000e+00 6.0000000e+00 
-1.0000000e+00 -1.0000000e+00 8.0000000e+00 
1.0000000e+00 -1.0000000e+00 2.0000000e+00 
1.0000000e+00 -1.0000000e+00 4.0000000e+00 
1.0000000e+00 -1.0000000e+00 6.0000000e+00 
1.0000000e+00 -1.0000000e+00 8.0000000e+00 
1.0000000e+00 1.0000000e+00 2.0000000e+00 
1.0000000e+00 1.0000000e+00 4.0000000e+00 
1.0000000e+00 1.0000000e+00 6.0000000e+00 
1.0000000e+00 1.0000000e+00 8.0000000e+00 
-1.0000000e+00 1.0000000e+00 2.0000000e+00 
-1.0000000e+00 1.0000000e+00 4.0000000e+00 
-1.0000000e+00 1.0000000e+00 6.0000000e+00 
-1.0000000e+00 1.0000000e+00 8.0000000e+00 
0.0000000e+00 0.0000000e+00 0.0000000e+00 
0.0000000e+00 -1.0000000e+00 1.0000000e+00 
0.0000000e+00 -1.0000000e+00 9.0000000e+00 
0.0000000e+00 -1.0000000e+00 5.0000000e+00 
0.0000000e+00 -1.0000000e+00 7.0000000e+00 
0.0000000e+00 -1.0000000e+00 3.0000000e+00 
1.0000000e+00 0.0000000e+00 1.0000000e+00 
1.0000000e+00 0.0000000e+00 9.0000000e+00 
1.0000000e+00 0.0000000e+00 3.0000000e+00 
1.0000000e+00 0.0000000e+00 5.0000000e+00 
1.0000000e+00 0.0000000e+00 7.0000000e+00 
0.0000000e+00 1.0000000e+00 1.0000000e+00 
0.0000000e+00 1.0000000e+00 9.0000000e+00 
0.0000000e+00 1.0000000e+00 3.0000000e+00 
0.0000000e+00 1.0000000e+00 5.0000000e+00 
0.0000000e+00 1.0000000e+00 7.0000000e+00 
-1.0000000e+00 0.0000000e+00 1.0000000e+00 
-1.0000000e+00 0.0000000e+00 9.0000000e+00 
-1.0000000e+00 0.0000000e+00 3.0000000e+00 
-1.0000000e+00 0.0000000e+00 5.0000000e+00 
-1.0000000e+00 0.0000000e+00 7.0000000e+00 
0.0000000e+00 0.0000000e+00 1.0000000e+01 
1.6666667e-01 3.3333334e-01 1.8333334e+00 

CELLS 104 520
4 37 20 16 46
4 16 20 35 46
4 42 32 17 29
4 20 25 40 35
4 43 38 10 27
4 44 39 11 28
4 32 42 12 29
4 39 28 14 34
4 28 39 14 44
4 41 26 15 36
4 31 15 26 36
4 15 28 39 34
4 27 38 9 43
4 14 27 38 33
4 38 27 9 33
4 42 32 12 37
4 32 37 42 17
4 20 25 35 46
4 37 16 12 46
4 29 8 42 12
4 37 21 42 17
4 44 10 38 14
4 26 11 41 15
4 8 20 25 40
4 23 19 41 39
4 39 41 11 15
4 11 23 39 44
4 41 23 39 11
4 28 39 11 15
4 22 10 38 44
4 18 44 14 39
4 10 22 38 43
4 18 22 44 39
4 27 9 33 13
4 22 18 44 38
4 27 38 10 14
4 28 10 44 14
4 29 32 17 13
4 18 39 14 34
4 19 23 41 36
4 19 15 39 34
4 18 44 38 14
4 36 31 15 19
4 39 41 15 19
4 36 15 41 19
4 38 9 43 21
4 25 42 8 12
4 16 32 37 12
4 18 14 38 33
4 33 9 38 17
4 20 8 25 42
4 17 9 42 29
4 9 17 33 13
4 21 9 42 17
4 38 9 21 17
4 17 9 29 13
4 30 35 24 25
4 26 41 45 36
4 31 26 45 36
4 40 24 35 25
4 30 24 2 1
4 0 40 24 3
4 42 20 21 37
4 38 21 43 22
4 20 40 3 35
4 35 2 16 30
4 23 22 39 44
4 10 9 43 27
4 4 41 7 45
4 41 4 11 26
4 11 10 44 28
4 45 5 31 6
4 14 27 33 13
4 26 45 4 5
4 23 7 41 36
4 5 15 26 31
4 7 45 36 6
4 31 36 6 19
4 18 19 39 34
4 15 14 28 34
4 17 32 37 16
4 42 9 8 29
4 3 24 2 35
4 17 18 38 33
4 40 8 0 25
4 25 0 24 1
4 13 29 32 12
4 1 30 25 12
4 24 2 35 30
4 4 41 45 26
4 45 41 7 36
4 26 45 5 31
4 24 40 0 25
4 40 24 3 35
4 45 31 36 6
4 24 30 25 1
4 46 16 30 35
4 30 16 46 12
4 30 25 46 35
4 46 25 30 12
4 20 46 42 25
4 20 42 46 37
4 12 42 46 25
4 12 46 42 37

CELL_TYPES 104
10
10
10
10
10
10
10
10
10
10
10
10
10
10
10
10
10
10
10
10
10
10
10
10
10
10
10
10
10
10
10
10
10
10
10
10
10
10
10
10
10
10
10
10
10
10
10
10
10
10
10
10
10
10
10
10
10
10
10
10
10
10
10
10
10
10
10
10
10
10
10
10
10
10
10
10
10
10
10
10
10
10
10
10
10
10
10
10
10
10
10
10
10
10
10
10
10
10
10
10
10
10
10
10
POINT_DATA 47
FIELD FieldData 2
DISPLACEMENT 3 47  float
0.0000000e+00 0.0000000e+00 -1.1769583e-06 
0.0000000e+00 0.0000000e+00 -1.1765561e-06 
0.0000000e+00 0.0000000e+00 -1.1765409e-06 
0.0000000e+00 0.0000000e+00 -1.1770338e-06 
0.0000000e+00 0.0000000e+00 -2.0853954e-06 
0.0000000e+00 0.0000000e+00 -2.0861623e-06 
0.0000000e+00 0.0000000e+00 -2.0854759e-06 
0.0000000e+00 0.0000000e+00 -2.0845162e-06 
0.0000000e+00 0.0000000e+00 -1.3615276e-06 
0.0000000e+00 0.0000000e+00 -1.5422157e-06 
0.0000000e+00 0.0000000e+00 -1.7226367e-06 
0.0000000e+00 0.0000000e+00 -1.9041105e-06 
0.0000000e+00 0.0000000e+00 -1.3614709e-06 
0.0000000e+00 0.0000000e+00 -1.5418590e-06 
0.0000000e+00 0.0000000e+00 -1.7233226e-06 
0.0000000e+00 0.0000000e+00 -1.9042792e-06 
0.0000000e+00 0.0000000e+00 -1.3604434e-06 
0.0000000e+00 0.0000000e+00 -1.5415969e-06 
0.0000000e+00 0.0000000e+00 -1.7245789e-06 
0.0000000e+00 0.0000000e+00 -1.9051062e-06 
0.0000000e+00 0.0000000e+00 -1.3611026e-06 
0.0000000e+00 0.0000000e+00 -1.5424321e-06 
0.0000000e+00 0.0000000e+00 -1.7235483e-06 
0.0000000e+00 0.0000000e+00 -1.9054261e-06 
1.0043070e-10 7.0892119e-11 -1.1763098e-06 
0.0000000e+00 0.0000000e+00 -1.2684396e-06 
0.0000000e+00 0.0000000e+00 -1.9958559e-06 
0.0000000e+00 0.0000000e+00 -1.6316296e-06 
0.0000000e+00 0.0000000e+00 -1.8140720e-06 
0.0000000e+00 0.0000000e+00 -1.4530765e-06 
0.0000000e+00 0.0000000e+00 -1.2676883e-06 
0.0000000e+00 0.0000000e+00 -1.9963309e-06 
0.0000000e+00 0.0000000e+00 -1.4522194e-06 
0.0000000e+00 0.0000000e+00 -1.6314102e-06 
0.0000000e+00 0.0000000e+00 -1.8148556e-06 
0.0000000e+00 0.0000000e+00 -1.2677980e-06 
0.0000000e+00 0.0000000e+00 -1.9957897e-06 
0.0000000e+00 0.0000000e+00 -1.4525313e-06 
0.0000000e+00 0.0000000e+00 -1.6317297e-06 
0.0000000e+00 0.0000000e+00 -1.8155356e-06 
0.0000000e+00 0.0000000e+00 -1.2681957e-06 
0.0000000e+00 0.0000000e+00 -1.9952718e-06 
0.0000000e+00 0.0000000e+00 -1.4536157e-06 
0.0000000e+00 0.0000000e+00 -1.6317862e-06 
0.0000000e+00 0.0000000e+00 -1.8148528e-06 
3.3623657e-10 -1.5715117e-10 -2.0862753e-06 
-1.5539462e-11 8.3193515e-11 -1.3455386e-06 
VELOCITY 3 47  float
0.0000000e+00 0.0000000e+00 -2.1966875e-05 
0.0000000e+00 0.0000000e+00 -2.2022528e-05 
0.0000000e+00 0.0000000e+00 -2.1715514e-05 
0.0000000e+00 0.0000000e+00 -2.1693495e-05 
0.0000000e+00 0.0000000e+00 -2.1802169e-05 
0.0000000e+00 0.0000000e+00 -2.2750484e-05 
0.0000000e+00 0.0000000e+00 -2.2255479e-05 
0.0000000e+00 0.0000000e+00 -2.1304390e-05 
0.0000000e+00 0.0000000e+00 -2.2220902e-05 
0.0000000e+00 0.0000000e+00 -2.1010970e-05 
0.0000000e+00 0.0000000e+00 -2.2382774e-05 
0.0000000e+00 0.0000000e+00 -2.2255859e-05 
0.0000000e+00 0.0000000e+00 -2.2432212e-05 
0.0000000e+00 0.0000000e+00 -2.1245547e-05 
0.0000000e+00 0.0000000e+00 -2.2451051e-05 
0.0000000e+00 0.0000000e+00 -2.2006336e-05 
0.0000000e+00 0.0000000e+00 -2.2570201e-05 
0.0000000e+00 0.0000000e+00 -2.1482654e-05 
0.0000000e+00 0.0000000e+00 -2.1945165e-05 
0.0000000e+00 0.0000000e+00 -2.2076247e-05 
0.0000000e+00 0.0000000e+00 -2.2437072e-05 
0.0000000e+00 0.0000000e+00 -2.1543990e-05 
0.0000000e+00 0.0000000e+00 -2.2145490e-05 
0.0000000e+00 0.0000000e+00 -2.2734130e-05 
-1.7170620e-08 7.7133684e-08 -2.1966489e-05 
0.0000000e+00 0.0000000e+00 -2.2898294e-05 
0.0000000e+00 0.0000000e+00 -2.2093718e-05 
0.0000000e+00 0.0000000e+00 -2.1983755e-05 
0.0000000e+00 0.0000000e+00 -2.1909502e-05 
0.0000000e+00 0.0000000e+00 -2.1313692e-05 
0.0000000e+00 0.0000000e+00 -2.2738644e-05 
0.0000000e+00 0.0000000e+00 -2.2086586e-05 
0.0000000e+00 0.0000000e+00 -2.1718553e-05 
0.0000000e+00 0.0000000e+00 -2.2093289e-05 
0.0000000e+00 0.0000000e+00 -2.1545611e-05 
0.0000000e+00 0.0000000e+00 -2.2548271e-05 
0.0000000e+00 0.0000000e+00 -2.2337708e-05 
0.0000000e+00 0.0000000e+00 -2.1785027e-05 
0.0000000e+00 0.0000000e+00 -2.2226463e-05 
0.0000000e+00 0.0000000e+00 -2.1625880e-05 
0.0000000e+00 0.0000000e+00 -2.2621385e-05 
0.0000000e+00 0.0000000e+00 -2.2598293e-05 
0.0000000e+00 0.0000000e+00 -2.1487747e-05 
0.0000000e+00 0.0000000e+00 -2.1941116e-05 
0.0000000e+00 0.0000000e+00 -2.2008531e-05 
1.1112068e-07 -2.0198700e-08 -2.2125880e-05 
-2.0676298e-08 -5.2599887e-08 -2.2634458e-05 
CELL_DATA 104
FIELD FieldData 0
