# vtk DataFile Version 4.0
vtk output
ASCII
DATASET UNSTRUCTURED_GRID
POINTS 47 float
-1.0000000e+00 -1.0000000e+00 0.0000000e+00 
1.0000000e+00 -1.0000000e+00 0.0000000e+00 
1.0000000e+00 1.0000000e+00 0.0000000e+00 
-1.0000000e+00 1.0000000e+00 0.0000000e+00 
-1.0000000e+00 -1.0000000e+00 1.0000000e+01 
1.0000000e+00 -1.0000000e+00 1.0000000e+01 
1.0000000e+00 1.0000000e+00 1.0000000e+01 
-1.0000000e+00 1.0000000e+00 1.0000000e+01 
-1.0000000e+00 -1.0000000e+00 2.0000000e+00 
-1.0000000e+00 -1.0000000e+00 4.0000000e+00 
-1.0000000e+00 -1.0000000e+00 6.0000000e+00 
-1.0000000e+00 -1.0000000e+00 8.0000000e+00 
1.0000000e+00 -1.0000000e+00 2.0000000e+00 
1.0000000e+00 -1.0000000e+00 4.0000000e+00 
1.0000000e+00 -1.0000000e+00 6.0000000e+00 
1.0000000e+00 -1.0000000e+00 8.0000000e+00 
1.0000000e+00 1.0000000e+00 2.0000000e+00 
1.0000000e+00 1.0000000e+00 4.0000000e+00 
1.0000000e+00 1.0000000e+00 6.0000000e+00 
1.0000000e+00 1.0000000e+00 8.0000000e+00 
-1.0000000e+00 1.0000000e+00 2.0000000e+00 
-1.0000000e+00 1.0000000e+00 4.0000000e+00 
-1.0000000e+00 1.0000000e+00 6.0000000e+00 
-1.0000000e+00 1.0000000e+00 8.0000000e+00 
0.0000000e+00 0.0000000e+00 0.0000000e+00 
0.0000000e+00 -1.0000000e+00 1.0000000e+00 
0.0000000e+00 -1.0000000e+00 9.0000000e+00 
0.0000000e+00 -1.0000000e+00 5.0000000e+00 
0.0000000e+00 -1.0000000e+00 7.0000000e+00 
0.0000000e+00 -1.0000000e+00 3.0000000e+00 
1.0000000e+00 0.0000000e+00 1.0000000e+00 
1.0000000e+00 0.0000000e+00 9.0000000e+00 
1.0000000e+00 0.0000000e+00 3.0000000e+00 
1.0000000e+00 0.0000000e+00 5.0000000e+00 
1.0000000e+00 0.0000000e+00 7.0000000e+00 
0.0000000e+00 1.0000000e+00 1.0000000e+00 
0.0000000e+00 1.0000000e+00 9.0000000e+00 
0.0000000e+00 1.0000000e+00 3.0000000e+00 
0.0000000e+00 1.0000000e+00 5.0000000e+00 
0.0000000e+00 1.0000000e+00 7.0000000e+00 
-1.0000000e+00 0.0000000e+00 1.0000000e+00 
-1.0000000e+00 0.0000000e+00 9.0000000e+00 
-1.0000000e+00 0.0000000e+00 3.0000000e+00 
-1.0000000e+00 0.0000000e+00 5.0000000e+00 
-1.0000000e+00 0.0000000e+00 7.0000000e+00 
0.0000000e+00 0.0000000e+00 1.0000000e+01 
1.6666667e-01 3.3333334e-01 1.8333334e+00 

CELLS 104 520
4 37 20 16 46
4 16 20 35 46
4 42 32 17 29
4 20 25 40 35
4 43 38 10 27
4 44 39 11 28
4 32 42 12 29
4 39 28 14 34
4 28 39 14 44
4 41 26 15 36
4 31 15 26 36
4 15 28 39 34
4 27 38 9 43
4 14 27 38 33
4 38 27 9 33
4 42 32 12 37
4 32 37 42 17
4 20 25 35 46
4 37 16 12 46
4 29 8 42 12
4 37 21 42 17
4 44 10 38 14
4 26 11 41 15
4 8 20 25 40
4 23 19 41 39
4 39 41 11 15
4 11 23 39 44
4 41 23 39 11
4 28 39 11 15
4 22 10 38 44
4 18 44 14 39
4 10 22 38 43
4 18 22 44 39
4 27 9 33 13
4 22 18 44 38
4 27 38 10 14
4 28 10 44 14
4 29 32 17 13
4 18 39 14 34
4 19 23 41 36
4 19 15 39 34
4 18 44 38 14
4 36 31 15 19
4 39 41 15 19
4 36 15 41 19
4 38 9 43 21
4 25 42 8 12
4 16 32 37 12
4 18 14 38 33
4 33 9 38 17
4 20 8 25 42
4 17 9 42 29
4 9 17 33 13
4 21 9 42 17
4 38 9 21 17
4 17 9 29 13
4 30 35 24 25
4 26 41 45 36
4 31 26 45 36
4 40 24 35 25
4 30 24 2 1
4 0 40 24 3
4 42 20 21 37
4 38 21 43 22
4 20 40 3 35
4 35 2 16 30
4 23 22 39 44
4 10 9 43 27
4 4 41 7 45
4 41 4 11 26
4 11 10 44 28
4 45 5 31 6
4 14 27 33 13
4 26 45 4 5
4 23 7 41 36
4 5 15 26 31
4 7 45 36 6
4 31 36 6 19
4 18 19 39 34
4 15 14 28 34
4 17 32 37 16
4 42 9 8 29
4 3 24 2 35
4 17 18 38 33
4 40 8 0 25
4 25 0 24 1
4 13 29 32 12
4 1 30 25 12
4 24 2 35 30
4 4 41 45 26
4 45 41 7 36
4 26 45 5 31
4 24 40 0 25
4 40 24 3 35
4 45 31 36 6
4 24 30 25 1
4 46 16 30 35
4 30 16 46 12
4 30 25 46 35
4 46 25 30 12
4 20 46 42 25
4 20 42 46 37
4 12 42 46 25
4 12 46 42 37

CELL_TYPES 104
10
10
10
10
10
10
10
10
10
10
10
10
10
10
10
10
10
10
10
10
10
10
10
10
10
10
10
10
10
10
10
10
10
10
10
10
10
10
10
10
10
10
10
10
10
10
10
10
10
10
10
10
10
10
10
10
10
10
10
10
10
10
10
10
10
10
10
10
10
10
10
10
10
10
10
10
10
10
10
10
10
10
10
10
10
10
10
10
10
10
10
10
10
10
10
10
10
10
10
10
10
10
10
10
POINT_DATA 47
FIELD FieldData 2
DISPLACEMENT 3 47  float
0.0000000e+00 0.0000000e+00 -1.8837143e-05 
0.0000000e+00 0.0000000e+00 -1.8837147e-05 
0.0000000e+00 0.0000000e+00 -1.8837141e-05 
0.0000000e+00 0.0000000e+00 -1.8837140e-05 
0.0000000e+00 0.0000000e+00 -1.9739287e-05 
0.0000000e+00 0.0000000e+00 -1.9739280e-05 
0.0000000e+00 0.0000000e+00 -1.9739276e-05 
0.0000000e+00 0.0000000e+00 -1.9739286e-05 
0.0000000e+00 0.0000000e+00 -1.9017903e-05 
0.0000000e+00 0.0000000e+00 -1.9198511e-05 
0.0000000e+00 0.0000000e+00 -1.9378936e-05 
0.0000000e+00 0.0000000e+00 -1.9559200e-05 
0.0000000e+00 0.0000000e+00 -1.9017914e-05 
0.0000000e+00 0.0000000e+00 -1.9198509e-05 
0.0000000e+00 0.0000000e+00 -1.9378944e-05 
0.0000000e+00 0.0000000e+00 -1.9559200e-05 
0.0000000e+00 0.0000000e+00 -1.9017916e-05 
0.0000000e+00 0.0000000e+00 -1.9198516e-05 
0.0000000e+00 0.0000000e+00 -1.9378942e-05 
0.0000000e+00 0.0000000e+00 -1.9559187e-05 
0.0000000e+00 0.0000000e+00 -1.9017913e-05 
0.0000000e+00 0.0000000e+00 -1.9198516e-05 
0.0000000e+00 0.0000000e+00 -1.9378933e-05 
0.0000000e+00 0.0000000e+00 -1.9559191e-05 
-2.2080612e-11 -1.9617424e-11 -1.8837149e-05 
0.0000000e+00 0.0000000e+00 -1.8927554e-05 
0.0000000e+00 0.0000000e+00 -1.9649266e-05 
0.0000000e+00 0.0000000e+00 -1.9288742e-05 
0.0000000e+00 0.0000000e+00 -1.9469087e-05 
0.0000000e+00 0.0000000e+00 -1.9108233e-05 
0.0000000e+00 0.0000000e+00 -1.8927554e-05 
0.0000000e+00 0.0000000e+00 -1.9649253e-05 
0.0000000e+00 0.0000000e+00 -1.9108229e-05 
0.0000000e+00 0.0000000e+00 -1.9288751e-05 
0.0000000e+00 0.0000000e+00 -1.9469086e-05 
0.0000000e+00 0.0000000e+00 -1.8927549e-05 
0.0000000e+00 0.0000000e+00 -1.9649257e-05 
0.0000000e+00 0.0000000e+00 -1.9108236e-05 
0.0000000e+00 0.0000000e+00 -1.9288756e-05 
0.0000000e+00 0.0000000e+00 -1.9469093e-05 
0.0000000e+00 0.0000000e+00 -1.8927543e-05 
0.0000000e+00 0.0000000e+00 -1.9649273e-05 
0.0000000e+00 0.0000000e+00 -1.9108240e-05 
0.0000000e+00 0.0000000e+00 -1.9288744e-05 
0.0000000e+00 0.0000000e+00 -1.9469095e-05 
-2.3650889e-11 -2.2001140e-11 -1.9739287e-05 
-1.2081675e-11 -1.2191807e-11 -1.9002855e-05 
VELOCITY 3 47  float
0.0000000e+00 0.0000000e+00 -1.7521143e-05 
0.0000000e+00 0.0000000e+00 -1.7521141e-05 
0.0000000e+00 0.0000000e+00 -1.7521143e-05 
0.0000000e+00 0.0000000e+00 -1.7521144e-05 
0.0000000e+00 0.0000000e+00 -1.7520615e-05 
0.0000000e+00 0.0000000e+00 -1.7520617e-05 
0.0000000e+00 0.0000000e+00 -1.7520619e-05 
0.0000000e+00 0.0000000e+00 -1.7520615e-05 
0.0000000e+00 0.0000000e+00 -1.7520955e-05 
0.0000000e+00 0.0000000e+00 -1.7520806e-05 
0.0000000e+00 0.0000000e+00 -1.7520701e-05 
0.0000000e+00 0.0000000e+00 -1.7520635e-05 
0.0000000e+00 0.0000000e+00 -1.7520953e-05 
0.0000000e+00 0.0000000e+00 -1.7520806e-05 
0.0000000e+00 0.0000000e+00 -1.7520699e-05 
0.0000000e+00 0.0000000e+00 -1.7520637e-05 
0.0000000e+00 0.0000000e+00 -1.7520952e-05 
0.0000000e+00 0.0000000e+00 -1.7520804e-05 
0.0000000e+00 0.0000000e+00 -1.7520701e-05 
0.0000000e+00 0.0000000e+00 -1.7520641e-05 
0.0000000e+00 0.0000000e+00 -1.7520953e-05 
0.0000000e+00 0.0000000e+00 -1.7520806e-05 
0.0000000e+00 0.0000000e+00 -1.7520702e-05 
0.0000000e+00 0.0000000e+00 -1.7520639e-05 
5.6746404e-12 4.9796035e-12 -1.7521141e-05 
0.0000000e+00 0.0000000e+00 -1.7521041e-05 
0.0000000e+00 0.0000000e+00 -1.7520621e-05 
0.0000000e+00 0.0000000e+00 -1.7520750e-05 
0.0000000e+00 0.0000000e+00 -1.7520664e-05 
0.0000000e+00 0.0000000e+00 -1.7520875e-05 
0.0000000e+00 0.0000000e+00 -1.7521041e-05 
0.0000000e+00 0.0000000e+00 -1.7520624e-05 
0.0000000e+00 0.0000000e+00 -1.7520875e-05 
0.0000000e+00 0.0000000e+00 -1.7520748e-05 
0.0000000e+00 0.0000000e+00 -1.7520664e-05 
0.0000000e+00 0.0000000e+00 -1.7521043e-05 
0.0000000e+00 0.0000000e+00 -1.7520622e-05 
0.0000000e+00 0.0000000e+00 -1.7520873e-05 
0.0000000e+00 0.0000000e+00 -1.7520746e-05 
0.0000000e+00 0.0000000e+00 -1.7520662e-05 
0.0000000e+00 0.0000000e+00 -1.7521044e-05 
0.0000000e+00 0.0000000e+00 -1.7520619e-05 
0.0000000e+00 0.0000000e+00 -1.7520873e-05 
0.0000000e+00 0.0000000e+00 -1.7520750e-05 
0.0000000e+00 0.0000000e+00 -1.7520662e-05 
5.8530581e-12 5.5049259e-12 -1.7520615e-05 
2.9822173e-12 3.0177824e-12 -1.7520968e-05 
CELL_DATA 104
FIELD FieldData 0
