# vtk DataFile Version 4.0
vtk output
ASCII
DATASET UNSTRUCTURED_GRID
POINTS 47 float
-1.0000000e+00 -1.0000000e+00 0.0000000e+00 
1.0000000e+00 -1.0000000e+00 0.0000000e+00 
1.0000000e+00 1.0000000e+00 0.0000000e+00 
-1.0000000e+00 1.0000000e+00 0.0000000e+00 
-1.0000000e+00 -1.0000000e+00 1.0000000e+01 
1.0000000e+00 -1.0000000e+00 1.0000000e+01 
1.0000000e+00 1.0000000e+00 1.0000000e+01 
-1.0000000e+00 1.0000000e+00 1.0000000e+01 
-1.0000000e+00 -1.0000000e+00 2.0000000e+00 
-1.0000000e+00 -1.0000000e+00 4.0000000e+00 
-1.0000000e+00 -1.0000000e+00 6.0000000e+00 
-1.0000000e+00 -1.0000000e+00 8.0000000e+00 
1.0000000e+00 -1.0000000e+00 2.0000000e+00 
1.0000000e+00 -1.0000000e+00 4.0000000e+00 
1.0000000e+00 -1.0000000e+00 6.0000000e+00 
1.0000000e+00 -1.0000000e+00 8.0000000e+00 
1.0000000e+00 1.0000000e+00 2.0000000e+00 
1.0000000e+00 1.0000000e+00 4.0000000e+00 
1.0000000e+00 1.0000000e+00 6.0000000e+00 
1.0000000e+00 1.0000000e+00 8.0000000e+00 
-1.0000000e+00 1.0000000e+00 2.0000000e+00 
-1.0000000e+00 1.0000000e+00 4.0000000e+00 
-1.0000000e+00 1.0000000e+00 6.0000000e+00 
-1.0000000e+00 1.0000000e+00 8.0000000e+00 
0.0000000e+00 0.0000000e+00 0.0000000e+00 
0.0000000e+00 -1.0000000e+00 1.0000000e+00 
0.0000000e+00 -1.0000000e+00 9.0000000e+00 
0.0000000e+00 -1.0000000e+00 5.0000000e+00 
0.0000000e+00 -1.0000000e+00 7.0000000e+00 
0.0000000e+00 -1.0000000e+00 3.0000000e+00 
1.0000000e+00 0.0000000e+00 1.0000000e+00 
1.0000000e+00 0.0000000e+00 9.0000000e+00 
1.0000000e+00 0.0000000e+00 3.0000000e+00 
1.0000000e+00 0.0000000e+00 5.0000000e+00 
1.0000000e+00 0.0000000e+00 7.0000000e+00 
0.0000000e+00 1.0000000e+00 1.0000000e+00 
0.0000000e+00 1.0000000e+00 9.0000000e+00 
0.0000000e+00 1.0000000e+00 3.0000000e+00 
0.0000000e+00 1.0000000e+00 5.0000000e+00 
0.0000000e+00 1.0000000e+00 7.0000000e+00 
-1.0000000e+00 0.0000000e+00 1.0000000e+00 
-1.0000000e+00 0.0000000e+00 9.0000000e+00 
-1.0000000e+00 0.0000000e+00 3.0000000e+00 
-1.0000000e+00 0.0000000e+00 5.0000000e+00 
-1.0000000e+00 0.0000000e+00 7.0000000e+00 
0.0000000e+00 0.0000000e+00 1.0000000e+01 
1.6666667e-01 3.3333334e-01 1.8333334e+00 

CELLS 104 520
4 37 20 16 46
4 16 20 35 46
4 42 32 17 29
4 20 25 40 35
4 43 38 10 27
4 44 39 11 28
4 32 42 12 29
4 39 28 14 34
4 28 39 14 44
4 41 26 15 36
4 31 15 26 36
4 15 28 39 34
4 27 38 9 43
4 14 27 38 33
4 38 27 9 33
4 42 32 12 37
4 32 37 42 17
4 20 25 35 46
4 37 16 12 46
4 29 8 42 12
4 37 21 42 17
4 44 10 38 14
4 26 11 41 15
4 8 20 25 40
4 23 19 41 39
4 39 41 11 15
4 11 23 39 44
4 41 23 39 11
4 28 39 11 15
4 22 10 38 44
4 18 44 14 39
4 10 22 38 43
4 18 22 44 39
4 27 9 33 13
4 22 18 44 38
4 27 38 10 14
4 28 10 44 14
4 29 32 17 13
4 18 39 14 34
4 19 23 41 36
4 19 15 39 34
4 18 44 38 14
4 36 31 15 19
4 39 41 15 19
4 36 15 41 19
4 38 9 43 21
4 25 42 8 12
4 16 32 37 12
4 18 14 38 33
4 33 9 38 17
4 20 8 25 42
4 17 9 42 29
4 9 17 33 13
4 21 9 42 17
4 38 9 21 17
4 17 9 29 13
4 30 35 24 25
4 26 41 45 36
4 31 26 45 36
4 40 24 35 25
4 30 24 2 1
4 0 40 24 3
4 42 20 21 37
4 38 21 43 22
4 20 40 3 35
4 35 2 16 30
4 23 22 39 44
4 10 9 43 27
4 4 41 7 45
4 41 4 11 26
4 11 10 44 28
4 45 5 31 6
4 14 27 33 13
4 26 45 4 5
4 23 7 41 36
4 5 15 26 31
4 7 45 36 6
4 31 36 6 19
4 18 19 39 34
4 15 14 28 34
4 17 32 37 16
4 42 9 8 29
4 3 24 2 35
4 17 18 38 33
4 40 8 0 25
4 25 0 24 1
4 13 29 32 12
4 1 30 25 12
4 24 2 35 30
4 4 41 45 26
4 45 41 7 36
4 26 45 5 31
4 24 40 0 25
4 40 24 3 35
4 45 31 36 6
4 24 30 25 1
4 46 16 30 35
4 30 16 46 12
4 30 25 46 35
4 46 25 30 12
4 20 46 42 25
4 20 42 46 37
4 12 42 46 25
4 12 46 42 37

CELL_TYPES 104
10
10
10
10
10
10
10
10
10
10
10
10
10
10
10
10
10
10
10
10
10
10
10
10
10
10
10
10
10
10
10
10
10
10
10
10
10
10
10
10
10
10
10
10
10
10
10
10
10
10
10
10
10
10
10
10
10
10
10
10
10
10
10
10
10
10
10
10
10
10
10
10
10
10
10
10
10
10
10
10
10
10
10
10
10
10
10
10
10
10
10
10
10
10
10
10
10
10
10
10
10
10
10
10
POINT_DATA 47
FIELD FieldData 2
DISPLACEMENT 3 47  float
0.0000000e+00 0.0000000e+00 -7.5082589e-06 
0.0000000e+00 0.0000000e+00 -7.5082589e-06 
0.0000000e+00 0.0000000e+00 -7.5082430e-06 
0.0000000e+00 0.0000000e+00 -7.5082557e-06 
0.0000000e+00 0.0000000e+00 -8.4107369e-06 
0.0000000e+00 0.0000000e+00 -8.4107405e-06 
0.0000000e+00 0.0000000e+00 -8.4107332e-06 
0.0000000e+00 0.0000000e+00 -8.4107360e-06 
0.0000000e+00 0.0000000e+00 -7.6891401e-06 
0.0000000e+00 0.0000000e+00 -7.8698376e-06 
0.0000000e+00 0.0000000e+00 -8.0503323e-06 
0.0000000e+00 0.0000000e+00 -8.2306315e-06 
0.0000000e+00 0.0000000e+00 -7.6891538e-06 
0.0000000e+00 0.0000000e+00 -7.8698413e-06 
0.0000000e+00 0.0000000e+00 -8.0503451e-06 
0.0000000e+00 0.0000000e+00 -8.2306433e-06 
0.0000000e+00 0.0000000e+00 -7.6891474e-06 
0.0000000e+00 0.0000000e+00 -7.8698476e-06 
0.0000000e+00 0.0000000e+00 -8.0503423e-06 
0.0000000e+00 0.0000000e+00 -8.2306315e-06 
0.0000000e+00 0.0000000e+00 -7.6891465e-06 
0.0000000e+00 0.0000000e+00 -7.8698413e-06 
0.0000000e+00 0.0000000e+00 -8.0503296e-06 
0.0000000e+00 0.0000000e+00 -8.2306242e-06 
1.1514819e-12 2.2620877e-12 -7.5082589e-06 
0.0000000e+00 0.0000000e+00 -7.5987359e-06 
0.0000000e+00 0.0000000e+00 -8.3207096e-06 
0.0000000e+00 0.0000000e+00 -7.9601105e-06 
0.0000000e+00 0.0000000e+00 -8.1405060e-06 
0.0000000e+00 0.0000000e+00 -7.7795185e-06 
0.0000000e+00 0.0000000e+00 -7.5987246e-06 
0.0000000e+00 0.0000000e+00 -8.3207133e-06 
0.0000000e+00 0.0000000e+00 -7.7795157e-06 
0.0000000e+00 0.0000000e+00 -7.9601223e-06 
0.0000000e+00 0.0000000e+00 -8.1405087e-06 
0.0000000e+00 0.0000000e+00 -7.5987209e-06 
0.0000000e+00 0.0000000e+00 -8.3207078e-06 
0.0000000e+00 0.0000000e+00 -7.7795194e-06 
0.0000000e+00 0.0000000e+00 -7.9601259e-06 
0.0000000e+00 0.0000000e+00 -8.1405133e-06 
0.0000000e+00 0.0000000e+00 -7.5987264e-06 
0.0000000e+00 0.0000000e+00 -8.3207151e-06 
0.0000000e+00 0.0000000e+00 -7.7795248e-06 
0.0000000e+00 0.0000000e+00 -7.9601077e-06 
0.0000000e+00 0.0000000e+00 -8.1405124e-06 
1.2563877e-12 -2.1290936e-12 -8.4107387e-06 
-1.2609649e-12 9.7253640e-13 -7.6740807e-06 
VELOCITY 3 47  float
0.0000000e+00 0.0000000e+00 -2.0309017e-05 
0.0000000e+00 0.0000000e+00 -2.0310779e-05 
0.0000000e+00 0.0000000e+00 -2.0312202e-05 
0.0000000e+00 0.0000000e+00 -2.0310790e-05 
0.0000000e+00 0.0000000e+00 -2.0308138e-05 
0.0000000e+00 0.0000000e+00 -2.0306723e-05 
0.0000000e+00 0.0000000e+00 -2.0309504e-05 
0.0000000e+00 0.0000000e+00 -2.0308338e-05 
0.0000000e+00 0.0000000e+00 -2.0306787e-05 
0.0000000e+00 0.0000000e+00 -2.0309362e-05 
0.0000000e+00 0.0000000e+00 -2.0309646e-05 
0.0000000e+00 0.0000000e+00 -2.0308848e-05 
0.0000000e+00 0.0000000e+00 -2.0311221e-05 
0.0000000e+00 0.0000000e+00 -2.0309682e-05 
0.0000000e+00 0.0000000e+00 -2.0307913e-05 
0.0000000e+00 0.0000000e+00 -2.0310647e-05 
0.0000000e+00 0.0000000e+00 -2.0311325e-05 
0.0000000e+00 0.0000000e+00 -2.0311803e-05 
0.0000000e+00 0.0000000e+00 -2.0311729e-05 
0.0000000e+00 0.0000000e+00 -2.0310868e-05 
0.0000000e+00 0.0000000e+00 -2.0308693e-05 
0.0000000e+00 0.0000000e+00 -2.0312164e-05 
0.0000000e+00 0.0000000e+00 -2.0308928e-05 
0.0000000e+00 0.0000000e+00 -2.0311982e-05 
-6.2004912e-10 -5.8654681e-10 -2.0310836e-05 
0.0000000e+00 0.0000000e+00 -2.0310594e-05 
0.0000000e+00 0.0000000e+00 -2.0310506e-05 
0.0000000e+00 0.0000000e+00 -2.0309346e-05 
0.0000000e+00 0.0000000e+00 -2.0307783e-05 
0.0000000e+00 0.0000000e+00 -2.0308840e-05 
0.0000000e+00 0.0000000e+00 -2.0312615e-05 
0.0000000e+00 0.0000000e+00 -2.0308622e-05 
0.0000000e+00 0.0000000e+00 -2.0310647e-05 
0.0000000e+00 0.0000000e+00 -2.0310179e-05 
0.0000000e+00 0.0000000e+00 -2.0309400e-05 
0.0000000e+00 0.0000000e+00 -2.0311330e-05 
0.0000000e+00 0.0000000e+00 -2.0310350e-05 
0.0000000e+00 0.0000000e+00 -2.0310046e-05 
0.0000000e+00 0.0000000e+00 -2.0311443e-05 
0.0000000e+00 0.0000000e+00 -2.0310626e-05 
0.0000000e+00 0.0000000e+00 -2.0308762e-05 
0.0000000e+00 0.0000000e+00 -2.0311105e-05 
0.0000000e+00 0.0000000e+00 -2.0308151e-05 
0.0000000e+00 0.0000000e+00 -2.0310254e-05 
0.0000000e+00 0.0000000e+00 -2.0308624e-05 
1.4774293e-09 -2.9546132e-10 -2.0309570e-05 
-1.7537201e-10 2.1593181e-10 -2.0311092e-05 
CELL_DATA 104
FIELD FieldData 0
