# vtk DataFile Version 4.0
vtk output
ASCII
DATASET UNSTRUCTURED_GRID
POINTS 66 float
0.0000000e+00 -1.0000000e-01 0.0000000e+00 
1.0000000e+00 -1.0000000e-01 0.0000000e+00 
1.0000000e+00 0.0000000e+00 0.0000000e+00 
0.0000000e+00 0.0000000e+00 0.0000000e+00 
5.0000001e-02 -1.0000000e-01 0.0000000e+00 
1.0000000e-01 -1.0000000e-01 0.0000000e+00 
1.5000001e-01 -1.0000000e-01 0.0000000e+00 
2.0000000e-01 -1.0000000e-01 0.0000000e+00 
2.5000000e-01 -1.0000000e-01 0.0000000e+00 
3.0000001e-01 -1.0000000e-01 0.0000000e+00 
3.4999999e-01 -1.0000000e-01 0.0000000e+00 
4.0000001e-01 -1.0000000e-01 0.0000000e+00 
4.4999999e-01 -1.0000000e-01 0.0000000e+00 
5.0000000e-01 -1.0000000e-01 0.0000000e+00 
5.5000001e-01 -1.0000000e-01 0.0000000e+00 
6.0000002e-01 -1.0000000e-01 0.0000000e+00 
6.4999998e-01 -1.0000000e-01 0.0000000e+00 
6.9999999e-01 -1.0000000e-01 0.0000000e+00 
7.5000000e-01 -1.0000000e-01 0.0000000e+00 
8.0000001e-01 -1.0000000e-01 0.0000000e+00 
8.5000002e-01 -1.0000000e-01 0.0000000e+00 
8.9999998e-01 -1.0000000e-01 0.0000000e+00 
9.4999999e-01 -1.0000000e-01 0.0000000e+00 
1.0000000e+00 -5.0000001e-02 0.0000000e+00 
9.4999999e-01 0.0000000e+00 0.0000000e+00 
8.9999998e-01 0.0000000e+00 0.0000000e+00 
8.5000002e-01 0.0000000e+00 0.0000000e+00 
8.0000001e-01 0.0000000e+00 0.0000000e+00 
7.5000000e-01 0.0000000e+00 0.0000000e+00 
6.9999999e-01 0.0000000e+00 0.0000000e+00 
6.4999998e-01 0.0000000e+00 0.0000000e+00 
6.0000002e-01 0.0000000e+00 0.0000000e+00 
5.5000001e-01 0.0000000e+00 0.0000000e+00 
5.0000000e-01 0.0000000e+00 0.0000000e+00 
4.4999999e-01 0.0000000e+00 0.0000000e+00 
4.0000001e-01 0.0000000e+00 0.0000000e+00 
3.4999999e-01 0.0000000e+00 0.0000000e+00 
3.0000001e-01 0.0000000e+00 0.0000000e+00 
2.5000000e-01 0.0000000e+00 0.0000000e+00 
2.0000000e-01 0.0000000e+00 0.0000000e+00 
1.5000001e-01 0.0000000e+00 0.0000000e+00 
1.0000000e-01 0.0000000e+00 0.0000000e+00 
5.0000001e-02 0.0000000e+00 0.0000000e+00 
0.0000000e+00 -5.0000001e-02 0.0000000e+00 
6.2482655e-01 -4.8086077e-02 0.0000000e+00 
8.2508671e-01 -5.1763725e-02 0.0000000e+00 
3.7500000e-01 -4.9304143e-02 0.0000000e+00 
5.2493805e-01 -5.2249055e-02 0.0000000e+00 
1.2500000e-01 -4.9304143e-02 0.0000000e+00 
7.2491330e-01 -5.1763725e-02 0.0000000e+00 
9.2500001e-01 -4.3301269e-02 0.0000000e+00 
2.2493739e-01 -4.7616642e-02 0.0000000e+00 
4.7499263e-01 -4.8962854e-02 0.0000000e+00 
3.2487729e-01 -5.0790776e-02 0.0000000e+00 
4.2499876e-01 -4.9711168e-02 0.0000000e+00 
1.7499255e-01 -5.1095106e-02 0.0000000e+00 
7.7499998e-01 -5.0587907e-02 0.0000000e+00 
7.5000003e-02 -5.5115875e-02 0.0000000e+00 
8.7536418e-01 -5.2243404e-02 0.0000000e+00 
5.7496077e-01 -5.0055854e-02 0.0000000e+00 
6.7495662e-01 -4.9974967e-02 0.0000000e+00 
2.7496910e-01 -4.9734570e-02 0.0000000e+00 
9.6712744e-01 -6.3315883e-02 0.0000000e+00 
3.2797970e-02 -3.6339462e-02 0.0000000e+00 
2.9650923e-02 -7.0272885e-02 0.0000000e+00 
9.7100937e-01 -2.8899103e-02 0.0000000e+00 

CELLS 106 404
2 2 24
2 24 25
2 25 26
2 26 27
2 27 28
2 28 29
2 29 30
2 30 31
2 31 32
2 32 33
2 33 34
2 34 35
2 35 36
2 36 37
2 37 38
2 38 39
2 39 40
2 40 41
2 41 42
2 42 3
3 27 45 26
3 16 44 15
3 22 50 21
3 11 46 10
3 33 47 32
3 6 48 5
3 19 56 18
3 29 49 28
3 8 51 7
3 13 52 12
3 29 60 49
3 45 58 26
3 44 59 15
3 37 61 53
3 38 61 37
3 15 59 14
3 30 60 29
3 26 58 25
3 42 57 41
3 37 53 36
3 35 54 34
3 40 55 39
3 46 53 10
3 6 55 48
3 11 54 46
3 51 55 7
3 52 54 12
3 48 57 5
3 47 52 13
3 49 56 28
3 33 52 47
3 27 56 45
3 18 56 49
3 45 56 19
3 50 58 21
3 47 59 32
3 16 60 44
3 8 61 51
3 36 53 46
3 34 54 52
3 39 55 51
3 46 54 35
3 41 57 48
3 48 55 40
3 14 59 47
3 44 60 30
3 25 58 50
3 51 61 38
3 22 62 50
3 42 63 57
3 53 61 9
3 7 55 6
3 10 53 9
3 12 54 11
3 5 57 4
3 21 58 20
3 20 58 45
3 32 59 31
3 17 60 16
3 49 60 17
3 31 59 44
3 9 61 8
3 20 45 19
3 25 50 24
3 31 44 30
3 36 46 35
3 14 47 13
3 41 48 40
3 34 52 33
3 18 49 17
3 28 56 27
3 39 51 38
3 1 62 22
3 23 62 1
3 43 63 3
3 3 63 42
3 57 64 4
3 50 65 24
3 63 64 57
3 62 65 50
3 4 64 0
3 0 64 43
3 24 65 2
3 2 65 23
3 23 65 62
3 43 64 63

CELL_TYPES 106
3
3
3
3
3
3
3
3
3
3
3
3
3
3
3
3
3
3
3
3
5
5
5
5
5
5
5
5
5
5
5
5
5
5
5
5
5
5
5
5
5
5
5
5
5
5
5
5
5
5
5
5
5
5
5
5
5
5
5
5
5
5
5
5
5
5
5
5
5
5
5
5
5
5
5
5
5
5
5
5
5
5
5
5
5
5
5
5
5
5
5
5
5
5
5
5
5
5
5
5
5
5
5
5
5
5
POINT_DATA 66
FIELD FieldData 1
DISPLACEMENT 3 66  float
0.0000000e+00 0.0000000e+00 0.0000000e+00 
0.0000000e+00 0.0000000e+00 0.0000000e+00 
0.0000000e+00 0.0000000e+00 0.0000000e+00 
0.0000000e+00 0.0000000e+00 0.0000000e+00 
0.0000000e+00 0.0000000e+00 0.0000000e+00 
0.0000000e+00 0.0000000e+00 0.0000000e+00 
0.0000000e+00 0.0000000e+00 0.0000000e+00 
0.0000000e+00 0.0000000e+00 0.0000000e+00 
0.0000000e+00 0.0000000e+00 0.0000000e+00 
0.0000000e+00 0.0000000e+00 0.0000000e+00 
0.0000000e+00 0.0000000e+00 0.0000000e+00 
0.0000000e+00 0.0000000e+00 0.0000000e+00 
0.0000000e+00 0.0000000e+00 0.0000000e+00 
0.0000000e+00 0.0000000e+00 0.0000000e+00 
0.0000000e+00 0.0000000e+00 0.0000000e+00 
0.0000000e+00 0.0000000e+00 0.0000000e+00 
0.0000000e+00 0.0000000e+00 0.0000000e+00 
0.0000000e+00 0.0000000e+00 0.0000000e+00 
0.0000000e+00 0.0000000e+00 0.0000000e+00 
0.0000000e+00 0.0000000e+00 0.0000000e+00 
0.0000000e+00 0.0000000e+00 0.0000000e+00 
0.0000000e+00 0.0000000e+00 0.0000000e+00 
0.0000000e+00 0.0000000e+00 0.0000000e+00 
0.0000000e+00 0.0000000e+00 0.0000000e+00 
-5.4968499e-12 -5.5299125e-07 0.0000000e+00 
-9.2117017e-12 -1.9318493e-06 0.0000000e+00 
-1.1018259e-11 -3.7163923e-06 0.0000000e+00 
-1.0659793e-11 -5.4864063e-06 0.0000000e+00 
-8.5431219e-12 -6.8593404e-06 0.0000000e+00 
-5.3143514e-12 -7.7489276e-06 0.0000000e+00 
-1.4729206e-12 -8.2094311e-06 0.0000000e+00 
2.5486184e-12 -8.2958441e-06 0.0000000e+00 
6.3887081e-12 -8.0630180e-06 0.0000000e+00 
9.7861224e-12 -7.5656662e-06 0.0000000e+00 
1.2594731e-11 -6.8583695e-06 0.0000000e+00 
1.4633853e-11 -5.9955837e-06 0.0000000e+00 
1.5797481e-11 -5.0316507e-06 0.0000000e+00 
1.6017264e-11 -4.0208138e-06 0.0000000e+00 
1.5255828e-11 -3.0172325e-06 0.0000000e+00 
1.3585307e-11 -2.0750006e-06 0.0000000e+00 
1.1089689e-11 -1.2481612e-06 0.0000000e+00 
7.8727103e-12 -5.9072380e-07 0.0000000e+00 
4.2122647e-12 -1.5667703e-07 0.0000000e+00 
0.0000000e+00 0.0000000e+00 0.0000000e+00 
5.5606371e-08 -4.2749029e-06 0.0000000e+00 
6.0200097e-07 -2.2150500e-06 0.0000000e+00 
-3.7422498e-07 -2.7944702e-06 0.0000000e+00 
-1.8108169e-07 -3.7224167e-06 0.0000000e+00 
-2.5462532e-07 -4.7499879e-07 0.0000000e+00 
3.5796160e-07 -3.5108549e-06 0.0000000e+00 
4.6127650e-07 -7.1988597e-07 0.0000000e+00 
-3.6604249e-07 -1.3372439e-06 0.0000000e+00 
-2.6803480e-07 -3.6733393e-06 0.0000000e+00 
-3.9382331e-07 -2.2259387e-06 0.0000000e+00 
-3.3240431e-07 -3.2283785e-06 0.0000000e+00 
-3.2012440e-07 -8.1959689e-07 0.0000000e+00 
5.0622884e-07 -3.0383965e-06 0.0000000e+00 
-1.7351665e-07 -1.8034603e-07 0.0000000e+00 
5.8914088e-07 -1.3329867e-06 0.0000000e+00 
-7.2342495e-08 -4.0772443e-06 0.0000000e+00 
2.0161575e-07 -3.9823576e-06 0.0000000e+00 
-3.9103008e-07 -1.7655182e-06 0.0000000e+00 
1.9232597e-07 -1.8586142e-07 0.0000000e+00 
-5.6743431e-08 -6.3265666e-08 0.0000000e+00 
-5.8826263e-08 -4.0542101e-08 0.0000000e+00 
1.3293469e-07 -2.1654067e-07 0.0000000e+00 
CELL_DATA 106
FIELD FieldData 0
