# vtk DataFile Version 4.0
vtk output
ASCII
DATASET UNSTRUCTURED_GRID
POINTS 144 float
0.0000000e+00 0.0000000e+00 0.0000000e+00 
1.0000000e+00 0.0000000e+00 0.0000000e+00 
1.0000000e+00 1.0000000e+00 0.0000000e+00 
0.0000000e+00 1.0000000e+00 0.0000000e+00 
1.0000000e-01 0.0000000e+00 0.0000000e+00 
2.0000000e-01 0.0000000e+00 0.0000000e+00 
3.0000001e-01 0.0000000e+00 0.0000000e+00 
4.0000001e-01 0.0000000e+00 0.0000000e+00 
5.0000000e-01 0.0000000e+00 0.0000000e+00 
6.0000002e-01 0.0000000e+00 0.0000000e+00 
6.9999999e-01 0.0000000e+00 0.0000000e+00 
8.0000001e-01 0.0000000e+00 0.0000000e+00 
8.9999998e-01 0.0000000e+00 0.0000000e+00 
1.0000000e+00 1.0000000e-01 0.0000000e+00 
1.0000000e+00 2.0000000e-01 0.0000000e+00 
1.0000000e+00 3.0000001e-01 0.0000000e+00 
1.0000000e+00 4.0000001e-01 0.0000000e+00 
1.0000000e+00 5.0000000e-01 0.0000000e+00 
1.0000000e+00 6.0000002e-01 0.0000000e+00 
1.0000000e+00 6.9999999e-01 0.0000000e+00 
1.0000000e+00 8.0000001e-01 0.0000000e+00 
1.0000000e+00 8.9999998e-01 0.0000000e+00 
8.9999998e-01 1.0000000e+00 0.0000000e+00 
8.0000001e-01 1.0000000e+00 0.0000000e+00 
6.9999999e-01 1.0000000e+00 0.0000000e+00 
6.0000002e-01 1.0000000e+00 0.0000000e+00 
5.0000000e-01 1.0000000e+00 0.0000000e+00 
4.0000001e-01 1.0000000e+00 0.0000000e+00 
3.0000001e-01 1.0000000e+00 0.0000000e+00 
2.0000000e-01 1.0000000e+00 0.0000000e+00 
1.0000000e-01 1.0000000e+00 0.0000000e+00 
0.0000000e+00 8.9999998e-01 0.0000000e+00 
0.0000000e+00 8.0000001e-01 0.0000000e+00 
0.0000000e+00 6.9999999e-01 0.0000000e+00 
0.0000000e+00 6.0000002e-01 0.0000000e+00 
0.0000000e+00 5.0000000e-01 0.0000000e+00 
0.0000000e+00 4.0000001e-01 0.0000000e+00 
0.0000000e+00 3.0000001e-01 0.0000000e+00 
0.0000000e+00 2.0000000e-01 0.0000000e+00 
0.0000000e+00 1.0000000e-01 0.0000000e+00 
4.5033512e-01 8.5524812e-02 0.0000000e+00 
9.5000088e-02 5.3608972e-01 0.0000000e+00 
9.1547006e-01 5.5000001e-01 0.0000000e+00 
5.5000001e-01 9.1339743e-01 0.0000000e+00 
9.1339743e-01 3.4999999e-01 0.0000000e+00 
3.4999999e-01 9.1669172e-01 0.0000000e+00 
8.8579953e-02 3.4872410e-01 0.0000000e+00 
6.4999998e-01 8.6602539e-02 0.0000000e+00 
9.1127491e-01 7.4795848e-01 0.0000000e+00 
6.6607341e-02 7.5098073e-01 0.0000000e+00 
2.4514475e-01 8.5484609e-02 0.0000000e+00 
7.4680746e-01 9.1993588e-01 0.0000000e+00 
9.0420872e-01 1.5861149e-01 0.0000000e+00 
1.5042374e-01 9.1532278e-01 0.0000000e+00 
8.7588154e-02 1.6267365e-01 0.0000000e+00 
7.4918270e-01 8.6130671e-02 0.0000000e+00 
6.9882751e-01 1.7252813e-01 0.0000000e+00 
6.0000002e-01 1.7320508e-01 0.0000000e+00 
6.4876831e-01 2.5909650e-01 0.0000000e+00 
5.4933882e-01 2.5818285e-01 0.0000000e+00 
5.9902751e-01 3.4564152e-01 0.0000000e+00 
5.0000000e-01 3.4641016e-01 0.0000000e+00 
5.4918092e-01 4.3250528e-01 0.0000000e+00 
4.4986349e-01 4.3292814e-01 0.0000000e+00 
4.9984074e-01 5.1951659e-01 0.0000000e+00 
5.9917998e-01 5.2102238e-01 0.0000000e+00 
3.9995071e-01 5.1958472e-01 0.0000000e+00 
4.4996524e-01 6.0619622e-01 0.0000000e+00 
3.9827734e-01 3.4236532e-01 0.0000000e+00 
3.4998599e-01 6.0620910e-01 0.0000000e+00 
2.9998946e-01 5.1960868e-01 0.0000000e+00 
4.0246150e-01 6.9138944e-01 0.0000000e+00 
5.0040448e-01 6.9257826e-01 0.0000000e+00 
6.9183892e-01 3.4861544e-01 0.0000000e+00 
3.0287755e-01 6.8788534e-01 0.0000000e+00 
4.5107409e-01 7.7642798e-01 0.0000000e+00 
5.5000001e-01 7.7942288e-01 0.0000000e+00 
6.0006744e-01 6.9277996e-01 0.0000000e+00 
6.4999998e-01 7.7942288e-01 0.0000000e+00 
7.0001125e-01 6.9281358e-01 0.0000000e+00 
7.4810976e-01 7.7827942e-01 0.0000000e+00 
8.1429243e-01 6.9644338e-01 0.0000000e+00 
7.5505483e-01 6.0440248e-01 0.0000000e+00 
7.9754496e-01 1.6455974e-01 0.0000000e+00 
8.4409988e-01 9.0543878e-01 0.0000000e+00 
2.5007063e-01 9.1426742e-01 0.0000000e+00 
1.9948809e-01 8.3684945e-01 0.0000000e+00 
3.0239609e-01 8.4084076e-01 0.0000000e+00 
5.5039096e-01 8.6229436e-02 0.0000000e+00 
2.5227043e-01 6.0435647e-01 0.0000000e+00 
2.0253047e-01 6.7697614e-01 0.0000000e+00 
2.0000000e-01 5.1961523e-01 0.0000000e+00 
2.4994016e-01 4.3122852e-01 0.0000000e+00 
1.5013675e-01 4.3705931e-01 0.0000000e+00 
1.9500943e-01 3.4477931e-01 0.0000000e+00 
1.4187421e-01 2.5843257e-01 0.0000000e+00 
2.4087626e-01 2.5457630e-01 0.0000000e+00 
2.9581064e-01 3.4174213e-01 0.0000000e+00 
3.4302756e-01 2.5211102e-01 0.0000000e+00 
4.4705081e-01 2.5426328e-01 0.0000000e+00 
1.8726690e-01 1.7076795e-01 0.0000000e+00 
9.1374290e-01 4.4999999e-01 0.0000000e+00 
8.1292653e-01 5.1219177e-01 0.0000000e+00 
6.4999998e-01 9.1339743e-01 0.0000000e+00 
9.4903819e-02 6.5753615e-01 0.0000000e+00 
3.4647793e-01 8.5224926e-02 0.0000000e+00 
9.1339743e-01 6.4999998e-01 0.0000000e+00 
8.3004320e-01 4.0203196e-01 0.0000000e+00 
8.3633298e-01 3.0639145e-01 0.0000000e+00 
7.4173015e-01 4.3506145e-01 0.0000000e+00 
9.1635197e-01 2.5751698e-01 0.0000000e+00 
4.4999999e-01 9.1524893e-01 0.0000000e+00 
5.4990965e-01 6.0638523e-01 0.0000000e+00 
3.4897196e-01 4.3124291e-01 0.0000000e+00 
6.5070385e-01 6.0805732e-01 0.0000000e+00 
4.9951929e-01 1.7088418e-01 0.0000000e+00 
6.4682627e-01 4.3563104e-01 0.0000000e+00 
3.9496639e-01 1.7007479e-01 0.0000000e+00 
9.2003214e-01 8.4667110e-01 0.0000000e+00 
8.4628856e-01 8.0417827e-02 0.0000000e+00 
9.0504780e-02 8.4245151e-01 0.0000000e+00 
1.5290669e-01 8.2261533e-02 0.0000000e+00 
7.5581288e-01 2.6161289e-01 0.0000000e+00 
2.9022500e-01 1.7048772e-01 0.0000000e+00 
7.0076448e-01 5.2269316e-01 0.0000000e+00 
8.3802330e-01 7.9983431e-01 0.0000000e+00 
8.4137177e-01 6.0186249e-01 0.0000000e+00 
1.6660626e-01 5.9922481e-01 0.0000000e+00 
3.5146821e-01 7.6715195e-01 0.0000000e+00 
6.7398138e-02 4.4853568e-01 0.0000000e+00 
6.0000002e-01 8.4641016e-01 0.0000000e+00 
6.9999999e-01 8.4641016e-01 0.0000000e+00 
5.0000000e-01 8.4641016e-01 0.0000000e+00 
2.5092945e-01 7.6027036e-01 0.0000000e+00 
4.0000001e-01 8.4656054e-01 0.0000000e+00 
6.1870042e-02 2.5000000e-01 0.0000000e+00 
9.2679495e-01 7.3205084e-02 0.0000000e+00 
7.3205084e-02 7.3205084e-02 0.0000000e+00 
9.2679495e-01 9.2679495e-01 0.0000000e+00 
7.3205084e-02 9.2679495e-01 0.0000000e+00 
1.5420890e-01 7.5578600e-01 0.0000000e+00 
7.7540809e-01 8.4997970e-01 0.0000000e+00 
7.7320510e-01 3.4999999e-01 0.0000000e+00 
8.4417260e-01 2.3009899e-01 0.0000000e+00 

CELLS 246 984
3 82 124 102
3 41 93 91
3 81 106 48
3 90 140 104
3 104 140 49
3 41 129 93
3 102 126 82
3 48 125 81
3 102 124 109
3 54 100 95
3 98 99 68
3 117 123 105
3 95 135 54
3 97 98 68
3 120 140 86
3 46 95 94
3 81 126 106
3 104 127 90
3 97 113 92
3 46 94 93
3 53 120 86
3 116 124 65
3 83 119 52
3 61 99 59
3 68 99 61
3 98 123 117
3 68 113 97
3 94 97 92
3 109 116 73
3 81 125 80
3 128 133 74
3 91 127 41
3 52 143 83
3 109 124 116
3 84 125 118
3 95 96 94
3 99 115 59
3 49 140 120
3 105 123 50
3 96 97 94
3 95 100 96
3 100 121 50
3 87 133 128
3 96 98 97
3 50 123 100
3 28 85 45
3 29 85 28
3 67 71 69
3 71 74 69
3 85 87 45
3 47 88 9
3 41 104 34
3 58 59 57
3 58 60 59
3 7 105 6
3 10 47 9
3 10 55 47
3 35 41 34
3 56 58 57
3 14 110 52
3 16 44 15
3 16 101 44
3 42 101 17
3 19 106 18
3 20 48 19
3 48 106 19
3 23 84 22
3 24 51 23
3 24 103 51
3 26 43 25
3 43 103 25
3 26 111 43
3 53 85 29
3 42 102 101
3 101 107 44
3 108 110 44
3 55 56 47
3 64 112 67
3 65 114 112
3 67 72 71
3 69 89 70
3 74 89 69
3 89 91 70
3 72 76 75
3 72 112 77
3 77 78 76
3 112 114 77
3 8 88 40
3 11 55 10
3 33 49 32
3 6 50 5
3 8 40 7
3 14 52 13
3 37 46 36
3 55 83 56
3 62 63 61
3 64 66 63
3 91 92 70
3 86 87 85
3 39 54 38
3 6 105 50
3 40 105 7
3 15 110 14
3 44 110 15
3 17 101 16
3 27 111 26
3 28 45 27
3 30 53 29
3 33 104 49
3 107 108 44
3 57 88 47
3 64 67 66
3 70 113 66
3 67 112 72
3 72 75 71
3 74 90 89
3 77 114 79
3 93 94 92
3 102 107 101
3 102 109 107
3 9 88 8
3 58 73 60
3 60 61 59
3 63 68 61
3 62 65 64
3 66 113 63
3 77 79 78
3 91 93 92
3 62 64 63
3 63 113 68
3 92 113 70
3 34 104 33
3 56 57 47
3 53 86 85
3 18 42 17
3 51 84 23
3 25 103 24
3 45 111 27
3 60 62 61
3 65 112 64
3 67 69 66
3 79 81 80
3 79 82 81
3 18 106 42
3 69 70 66
3 79 80 78
3 79 114 82
3 72 77 76
3 73 142 109
3 84 141 125
3 88 115 40
3 59 115 57
3 115 117 40
3 98 117 99
3 62 116 65
3 73 116 60
3 57 115 88
3 99 117 115
3 32 120 31
3 55 119 83
3 12 119 11
3 21 118 20
3 58 122 73
3 83 122 56
3 93 129 46
3 5 121 4
3 60 116 62
3 50 121 5
3 65 124 114
3 100 123 96
3 42 126 102
3 82 126 81
3 90 127 89
3 40 117 105
3 46 135 95
3 11 119 55
3 49 120 32
3 20 118 48
3 54 121 100
3 71 128 74
3 35 129 41
3 46 129 36
3 87 134 45
3 56 122 58
3 54 135 38
3 37 135 46
3 1 136 12
3 13 136 1
3 4 137 0
3 0 137 39
3 2 138 21
3 22 138 2
3 3 139 30
3 31 139 3
3 110 143 52
3 109 142 107
3 96 123 98
3 83 143 122
3 114 124 82
3 89 127 91
3 106 126 42
3 41 127 104
3 122 142 73
3 122 143 108
3 118 125 48
3 51 141 84
3 128 134 87
3 75 128 71
3 36 129 35
3 132 134 75
3 43 130 103
3 78 130 76
3 111 132 43
3 86 133 87
3 76 132 75
3 103 131 51
3 78 131 130
3 130 131 103
3 74 133 90
3 80 131 78
3 130 132 76
3 43 132 130
3 111 134 132
3 45 134 111
3 108 142 122
3 12 136 119
3 120 139 31
3 21 138 118
3 38 135 37
3 52 136 13
3 30 139 53
3 39 137 54
3 84 138 22
3 121 137 4
3 107 142 108
3 108 143 110
3 118 138 84
3 53 139 120
3 119 136 52
3 54 137 121
3 75 134 128
3 86 140 133
3 133 140 90
3 125 141 80
3 80 141 131
3 131 141 51

CELL_TYPES 246
5
5
5
5
5
5
5
5
5
5
5
5
5
5
5
5
5
5
5
5
5
5
5
5
5
5
5
5
5
5
5
5
5
5
5
5
5
5
5
5
5
5
5
5
5
5
5
5
5
5
5
5
5
5
5
5
5
5
5
5
5
5
5
5
5
5
5
5
5
5
5
5
5
5
5
5
5
5
5
5
5
5
5
5
5
5
5
5
5
5
5
5
5
5
5
5
5
5
5
5
5
5
5
5
5
5
5
5
5
5
5
5
5
5
5
5
5
5
5
5
5
5
5
5
5
5
5
5
5
5
5
5
5
5
5
5
5
5
5
5
5
5
5
5
5
5
5
5
5
5
5
5
5
5
5
5
5
5
5
5
5
5
5
5
5
5
5
5
5
5
5
5
5
5
5
5
5
5
5
5
5
5
5
5
5
5
5
5
5
5
5
5
5
5
5
5
5
5
5
5
5
5
5
5
5
5
5
5
5
5
5
5
5
5
5
5
5
5
5
5
5
5
5
5
5
5
5
5
5
5
5
5
5
5
5
5
5
5
5
5
5
5
5
5
5
5
POINT_DATA 144
FIELD FieldData 2
DISPLACEMENT 3 144  float
0.0000000e+00 0.0000000e+00 0.0000000e+00 
0.0000000e+00 0.0000000e+00 0.0000000e+00 
0.0000000e+00 -1.5893515e-05 0.0000000e+00 
0.0000000e+00 -1.5715224e-05 0.0000000e+00 
0.0000000e+00 0.0000000e+00 0.0000000e+00 
0.0000000e+00 0.0000000e+00 0.0000000e+00 
0.0000000e+00 0.0000000e+00 0.0000000e+00 
0.0000000e+00 0.0000000e+00 0.0000000e+00 
0.0000000e+00 0.0000000e+00 0.0000000e+00 
0.0000000e+00 0.0000000e+00 0.0000000e+00 
0.0000000e+00 0.0000000e+00 0.0000000e+00 
0.0000000e+00 0.0000000e+00 0.0000000e+00 
0.0000000e+00 0.0000000e+00 0.0000000e+00 
0.0000000e+00 -1.5888442e-06 0.0000000e+00 
0.0000000e+00 -3.1783759e-06 0.0000000e+00 
0.0000000e+00 -4.7684630e-06 0.0000000e+00 
0.0000000e+00 -6.3583780e-06 0.0000000e+00 
0.0000000e+00 -7.9483170e-06 0.0000000e+00 
0.0000000e+00 -9.5398455e-06 0.0000000e+00 
0.0000000e+00 -1.1133849e-05 0.0000000e+00 
0.0000000e+00 -1.2726358e-05 0.0000000e+00 
0.0000000e+00 -1.4312498e-05 0.0000000e+00 
-4.3708699e-08 -1.5899388e-05 0.0000000e+00 
-7.5228002e-08 -1.5912106e-05 0.0000000e+00 
-7.9553757e-08 -1.5904743e-05 0.0000000e+00 
-7.0818174e-08 -1.5869438e-05 0.0000000e+00 
-6.4111333e-08 -1.5830716e-05 0.0000000e+00 
-6.2801050e-08 -1.5808449e-05 0.0000000e+00 
-5.2626461e-08 -1.5790638e-05 0.0000000e+00 
-2.7277716e-08 -1.5749689e-05 0.0000000e+00 
-1.3302662e-08 -1.5725678e-05 0.0000000e+00 
0.0000000e+00 -1.4167741e-05 0.0000000e+00 
0.0000000e+00 -1.2608726e-05 0.0000000e+00 
0.0000000e+00 -1.1053706e-05 0.0000000e+00 
0.0000000e+00 -9.4931302e-06 0.0000000e+00 
0.0000000e+00 -7.9148249e-06 0.0000000e+00 
0.0000000e+00 -6.3315033e-06 0.0000000e+00 
0.0000000e+00 -4.7486269e-06 0.0000000e+00 
0.0000000e+00 -3.1679403e-06 0.0000000e+00 
0.0000000e+00 -1.5866398e-06 0.0000000e+00 
-1.3285707e-08 -1.3647265e-06 0.0000000e+00 
-1.1801133e-08 -8.4857866e-06 0.0000000e+00 
-1.7046613e-08 -8.7467879e-06 0.0000000e+00 
-8.5600952e-08 -1.4497775e-05 0.0000000e+00 
-8.6555190e-09 -5.5646092e-06 0.0000000e+00 
-7.3045143e-08 -1.4500586e-05 0.0000000e+00 
-6.6355628e-09 -5.5201513e-06 0.0000000e+00 
-7.6285263e-09 -1.3797362e-06 0.0000000e+00 
-3.0716560e-08 -1.1902351e-05 0.0000000e+00 
-2.2599764e-08 -1.1850202e-05 0.0000000e+00 
-1.6102208e-08 -1.3644651e-06 0.0000000e+00 
-8.3525357e-08 -1.4655654e-05 0.0000000e+00 
-3.5088059e-09 -2.5205441e-06 0.0000000e+00 
-3.2460935e-08 -1.4418066e-05 0.0000000e+00 
-1.0853689e-08 -2.5810739e-06 0.0000000e+00 
-4.6867252e-09 -1.3707992e-06 0.0000000e+00 
-1.4158022e-08 -2.7492144e-06 0.0000000e+00 
-1.9562821e-08 -2.7618394e-06 0.0000000e+00 
-2.6589085e-08 -4.1325143e-06 0.0000000e+00 
-3.3559093e-08 -4.1194867e-06 0.0000000e+00 
-4.0072393e-08 -5.5155988e-06 0.0000000e+00 
-4.5232429e-08 -5.5262153e-06 0.0000000e+00 
-5.1725223e-08 -6.8994868e-06 0.0000000e+00 
-4.9275698e-08 -6.8957274e-06 0.0000000e+00 
-6.0673415e-08 -8.2757069e-06 0.0000000e+00 
-6.3245167e-08 -8.3141595e-06 0.0000000e+00 
-4.8897533e-08 -8.2556189e-06 0.0000000e+00 
-6.9605406e-08 -9.6356916e-06 0.0000000e+00 
-4.3899192e-08 -5.4556631e-06 0.0000000e+00 
-5.3723390e-08 -9.6109543e-06 0.0000000e+00 
-3.2594155e-08 -8.2350762e-06 0.0000000e+00 
-7.8740285e-08 -1.0967443e-05 0.0000000e+00 
-9.2130506e-08 -1.1015186e-05 0.0000000e+00 
-3.2423223e-08 -5.5605847e-06 0.0000000e+00 
-6.6331722e-08 -1.0894681e-05 0.0000000e+00 
-9.0818396e-08 -1.2319005e-05 0.0000000e+00 
-1.0035622e-07 -1.2399333e-05 0.0000000e+00 
-9.8505623e-08 -1.1047166e-05 0.0000000e+00 
-1.0050670e-07 -1.2427967e-05 0.0000000e+00 
-8.9680078e-08 -1.1058829e-05 0.0000000e+00 
-8.3361698e-08 -1.2412917e-05 0.0000000e+00 
-6.0162570e-08 -1.1098421e-05 0.0000000e+00 
-6.1294202e-08 -9.6410295e-06 0.0000000e+00 
-8.0303062e-09 -2.6185394e-06 0.0000000e+00 
-5.7051956e-08 -1.4412861e-05 0.0000000e+00 
-6.0966109e-08 -1.4441638e-05 0.0000000e+00 
-5.8937900e-08 -1.3220190e-05 0.0000000e+00 
-7.6325477e-08 -1.3305383e-05 0.0000000e+00 
-1.0377788e-08 -1.3745672e-06 0.0000000e+00 
-4.0538289e-08 -9.5681926e-06 0.0000000e+00 
-5.3871648e-08 -1.0715638e-05 0.0000000e+00 
-1.9283869e-08 -8.2244560e-06 0.0000000e+00 
-2.2841052e-08 -6.8348868e-06 0.0000000e+00 
-1.0167071e-08 -6.9179137e-06 0.0000000e+00 
-1.9798826e-08 -5.4659904e-06 0.0000000e+00 
-1.6935569e-08 -4.0985838e-06 0.0000000e+00 
-3.0073547e-08 -4.0492159e-06 0.0000000e+00 
-3.4400692e-08 -5.4328516e-06 0.0000000e+00 
-3.8145416e-08 -4.0201435e-06 0.0000000e+00 
-3.8402028e-08 -4.0577502e-06 0.0000000e+00 
-2.2323182e-08 -2.7171270e-06 0.0000000e+00 
-1.1998553e-08 -7.1552518e-06 0.0000000e+00 
-3.3368867e-08 -8.1580320e-06 0.0000000e+00 
-9.1285393e-08 -1.4535961e-05 0.0000000e+00 
-2.9480484e-08 -1.0398941e-05 0.0000000e+00 
-1.5972685e-08 -1.3611977e-06 0.0000000e+00 
-2.4882716e-08 -1.0340362e-05 0.0000000e+00 
-2.0816877e-08 -6.3998064e-06 0.0000000e+00 
-1.4072165e-08 -4.8754619e-06 0.0000000e+00 
-3.5940541e-08 -6.9373878e-06 0.0000000e+00 
-5.7738521e-09 -4.0934233e-06 0.0000000e+00 
-7.7815699e-08 -1.4493209e-05 0.0000000e+00 
-8.0147238e-08 -9.6646663e-06 0.0000000e+00 
-3.8251184e-08 -6.8524200e-06 0.0000000e+00 
-7.9149771e-08 -9.7068369e-06 0.0000000e+00 
-2.4619629e-08 -2.7265821e-06 0.0000000e+00 
-4.6946319e-08 -6.9525977e-06 0.0000000e+00 
-2.9029920e-08 -2.7154672e-06 0.0000000e+00 
-2.8644777e-08 -1.3470716e-05 0.0000000e+00 
-2.1928435e-09 -1.2782039e-06 0.0000000e+00 
-2.1570587e-08 -1.3272901e-05 0.0000000e+00 
-1.1885482e-08 -1.3103104e-06 0.0000000e+00 
-1.8218305e-08 -4.1679500e-06 0.0000000e+00 
-2.9142077e-08 -2.7199517e-06 0.0000000e+00 
-5.4816351e-08 -8.3420518e-06 0.0000000e+00 
-5.4843319e-08 -1.2737936e-05 0.0000000e+00 
-3.9354198e-08 -9.5839996e-06 0.0000000e+00 
-3.1331883e-08 -9.4846391e-06 0.0000000e+00 
-8.1473551e-08 -1.2151871e-05 0.0000000e+00 
-4.5380895e-09 -7.1002469e-06 0.0000000e+00 
-9.5718505e-08 -1.3468181e-05 0.0000000e+00 
-9.0889301e-08 -1.3491680e-05 0.0000000e+00 
-8.8840132e-08 -1.3431079e-05 0.0000000e+00 
-7.3141308e-08 -1.2033413e-05 0.0000000e+00 
-8.1015358e-08 -1.3406998e-05 0.0000000e+00 
-7.1488913e-09 -3.9595357e-06 0.0000000e+00 
-1.0453098e-09 -1.1630742e-06 0.0000000e+00 
-5.3606324e-09 -1.1633178e-06 0.0000000e+00 
-3.0721001e-08 -1.4741096e-05 0.0000000e+00 
-1.7555065e-08 -1.4585232e-05 0.0000000e+00 
-5.2840537e-08 -1.1946767e-05 0.0000000e+00 
-7.4542974e-08 -1.3545290e-05 0.0000000e+00 
-2.3890941e-08 -5.5766241e-06 0.0000000e+00 
-9.3891854e-09 -3.6599281e-06 0.0000000e+00 
VELOCITY 3 144  float
0.0000000e+00 0.0000000e+00 0.0000000e+00 
0.0000000e+00 0.0000000e+00 0.0000000e+00 
0.0000000e+00 6.8833666e-05 0.0000000e+00 
0.0000000e+00 9.4093499e-05 0.0000000e+00 
0.0000000e+00 0.0000000e+00 0.0000000e+00 
0.0000000e+00 0.0000000e+00 0.0000000e+00 
0.0000000e+00 0.0000000e+00 0.0000000e+00 
0.0000000e+00 0.0000000e+00 0.0000000e+00 
0.0000000e+00 0.0000000e+00 0.0000000e+00 
0.0000000e+00 0.0000000e+00 0.0000000e+00 
0.0000000e+00 0.0000000e+00 0.0000000e+00 
0.0000000e+00 0.0000000e+00 0.0000000e+00 
0.0000000e+00 0.0000000e+00 0.0000000e+00 
0.0000000e+00 4.8068641e-06 0.0000000e+00 
0.0000000e+00 9.0975418e-06 0.0000000e+00 
0.0000000e+00 1.5291451e-05 0.0000000e+00 
0.0000000e+00 2.4234845e-05 0.0000000e+00 
0.0000000e+00 3.3759607e-05 0.0000000e+00 
0.0000000e+00 4.0499795e-05 0.0000000e+00 
0.0000000e+00 4.6232304e-05 0.0000000e+00 
0.0000000e+00 5.5756136e-05 0.0000000e+00 
0.0000000e+00 6.3720785e-05 0.0000000e+00 
9.2886679e-05 5.3368531e-06 0.0000000e+00 
1.5590020e-04 -2.3920766e-05 0.0000000e+00 
1.9837773e-04 -4.0609637e-05 0.0000000e+00 
2.2626763e-04 -4.0927855e-05 0.0000000e+00 
2.2633674e-04 -5.3326818e-05 0.0000000e+00 
2.0939650e-04 -8.2651073e-05 0.0000000e+00 
1.9802322e-04 -8.0466765e-05 0.0000000e+00 
1.6960355e-04 -5.4623390e-05 0.0000000e+00 
1.0421353e-04 -4.7311591e-05 0.0000000e+00 
0.0000000e+00 6.1804349e-05 0.0000000e+00 
0.0000000e+00 6.5045344e-05 0.0000000e+00 
0.0000000e+00 7.6372329e-05 0.0000000e+00 
0.0000000e+00 6.7659574e-05 0.0000000e+00 
0.0000000e+00 5.6200472e-05 0.0000000e+00 
0.0000000e+00 4.9244809e-05 0.0000000e+00 
0.0000000e+00 4.4918630e-05 0.0000000e+00 
0.0000000e+00 3.6435707e-05 0.0000000e+00 
0.0000000e+00 2.1743368e-05 0.0000000e+00 
4.9279038e-06 1.6970411e-05 0.0000000e+00 
1.1020680e-05 5.3280426e-05 0.0000000e+00 
2.3161127e-05 1.4620759e-05 0.0000000e+00 
1.8753918e-04 -1.4461483e-05 0.0000000e+00 
1.2271939e-05 6.2448803e-06 0.0000000e+00 
1.6120590e-04 -4.7961348e-05 0.0000000e+00 
2.1126518e-05 5.2644453e-05 0.0000000e+00 
1.6677579e-07 2.3461880e-06 0.0000000e+00 
4.2036667e-05 1.0760575e-05 0.0000000e+00 
2.5201161e-05 6.4314081e-05 0.0000000e+00 
1.3000847e-05 2.6111222e-05 0.0000000e+00 
1.3630456e-04 -2.1752780e-05 0.0000000e+00 
2.8343813e-06 -6.1359906e-08 0.0000000e+00 
9.0170106e-05 6.0288298e-06 0.0000000e+00 
1.3124382e-05 3.6572859e-05 0.0000000e+00 
1.1111297e-06 5.4874499e-07 0.0000000e+00 
7.2970670e-06 2.2839922e-06 0.0000000e+00 
9.8138444e-06 1.0896197e-05 0.0000000e+00 
2.2781351e-05 9.9293602e-06 0.0000000e+00 
3.1304298e-05 2.9896813e-05 0.0000000e+00 
4.6350277e-05 2.6000913e-05 0.0000000e+00 
5.9156395e-05 5.5515477e-05 0.0000000e+00 
7.0424445e-05 4.6211062e-05 0.0000000e+00 
8.1447775e-05 7.8418256e-05 0.0000000e+00 
8.7492655e-05 6.3184067e-05 0.0000000e+00 
7.5718723e-05 2.9877223e-05 0.0000000e+00 
8.8294051e-05 8.6497195e-05 0.0000000e+00 
9.6972894e-05 6.7793109e-05 0.0000000e+00 
6.7358669e-05 8.0731625e-05 0.0000000e+00 
7.9352183e-05 7.1397502e-05 0.0000000e+00 
7.0478709e-05 8.3624735e-05 0.0000000e+00 
1.0658675e-04 5.2342137e-05 0.0000000e+00 
1.2083366e-04 4.4494889e-05 0.0000000e+00 
3.7064045e-05 9.8938308e-06 0.0000000e+00 
7.1096962e-05 4.2319487e-05 0.0000000e+00 
1.5129443e-04 3.0402116e-05 0.0000000e+00 
1.5732489e-04 2.2315822e-05 0.0000000e+00 
1.1378493e-04 2.0260106e-05 0.0000000e+00 
1.4167505e-04 6.2069789e-06 0.0000000e+00 
9.8448494e-05 8.3526602e-06 0.0000000e+00 
1.1799176e-04 5.9040276e-06 0.0000000e+00 
7.3752402e-05 1.2409567e-05 0.0000000e+00 
6.6220215e-05 1.1458524e-05 0.0000000e+00 
5.7833577e-06 8.7135572e-07 0.0000000e+00 
8.7048407e-05 -6.9702464e-06 0.0000000e+00 
1.3740826e-04 -2.1865902e-05 0.0000000e+00 
9.5940115e-05 2.8335551e-05 0.0000000e+00 
1.2621797e-04 -7.2224520e-06 0.0000000e+00 
1.0435859e-06 8.4771582e-06 0.0000000e+00 
4.6833400e-05 5.7243193e-05 0.0000000e+00 
3.5603014e-05 4.1616971e-05 0.0000000e+00 
4.0341241e-05 6.4078267e-05 0.0000000e+00 
6.3397143e-05 8.4920604e-05 0.0000000e+00 
3.4540586e-05 6.3426749e-05 0.0000000e+00 
4.8615089e-05 7.4442243e-05 0.0000000e+00 
3.0436362e-05 5.7543100e-05 0.0000000e+00 
4.4504912e-05 6.9935872e-05 0.0000000e+00 
6.5021981e-05 8.7429224e-05 0.0000000e+00 
4.7216789e-05 6.9814727e-05 0.0000000e+00 
4.1025050e-05 5.4298300e-05 0.0000000e+00 
2.5429177e-05 4.7315909e-05 0.0000000e+00 
1.8563247e-05 1.1370713e-05 0.0000000e+00 
4.5151643e-05 1.3244227e-05 0.0000000e+00 
1.6626954e-04 -2.2296577e-05 0.0000000e+00 
1.3715613e-05 6.0988823e-05 0.0000000e+00 
1.0095411e-05 2.3824667e-05 0.0000000e+00 
2.9833609e-05 1.2992667e-05 0.0000000e+00 
3.0225834e-05 9.5379573e-06 0.0000000e+00 
1.7765869e-05 4.4496001e-06 0.0000000e+00 
4.6602934e-05 1.0660525e-05 0.0000000e+00 
6.3803836e-06 2.7427714e-06 0.0000000e+00 
1.8407391e-04 -2.8388844e-05 0.0000000e+00 
9.4113871e-05 4.0514184e-05 0.0000000e+00 
8.0534228e-05 9.3933828e-05 0.0000000e+00 
8.1640996e-05 1.4657096e-05 0.0000000e+00 
1.5927168e-05 2.7272121e-05 0.0000000e+00 
5.7707093e-05 1.9142393e-05 0.0000000e+00 
2.3964521e-05 4.3383174e-05 0.0000000e+00 
4.2136358e-05 1.0430367e-05 0.0000000e+00 
9.3143535e-07 -5.1381534e-07 0.0000000e+00 
3.9942413e-05 4.6199497e-05 0.0000000e+00 
1.0834226e-05 2.3693987e-05 0.0000000e+00 
1.7543871e-05 3.2007238e-06 0.0000000e+00 
2.8673781e-05 5.0834198e-05 0.0000000e+00 
6.2747400e-05 1.2606665e-05 0.0000000e+00 
8.6978631e-05 8.5427200e-06 0.0000000e+00 
4.6754642e-05 1.3454539e-05 0.0000000e+00 
2.2129027e-05 5.0841722e-05 0.0000000e+00 
1.1740738e-04 2.2399010e-05 0.0000000e+00 
1.3208238e-05 5.1764946e-05 0.0000000e+00 
1.6835338e-04 8.7774345e-07 0.0000000e+00 
1.4228134e-04 -7.0486421e-06 0.0000000e+00 
1.7790843e-04 8.6269411e-06 0.0000000e+00 
7.7949328e-05 2.5622818e-05 0.0000000e+00 
1.5976938e-04 -4.5999491e-06 0.0000000e+00 
1.2868702e-05 4.4383611e-05 0.0000000e+00 
1.1224074e-06 3.5529388e-07 0.0000000e+00 
4.9297551e-06 1.7978440e-05 0.0000000e+00 
4.4555811e-05 1.1057529e-05 0.0000000e+00 
2.9885736e-05 2.3725814e-05 0.0000000e+00 
5.2958727e-05 5.3076863e-05 0.0000000e+00 
1.1673926e-04 -4.5867782e-06 0.0000000e+00 
3.0255012e-05 7.2312218e-06 0.0000000e+00 
9.7109305e-06 1.7625055e-06 0.0000000e+00 
CELL_DATA 246
FIELD FieldData 0
