# vtk DataFile Version 4.0
vtk output
ASCII
DATASET UNSTRUCTURED_GRID
POINTS 144 float
0.0000000e+00 0.0000000e+00 0.0000000e+00 
1.0000000e+00 0.0000000e+00 0.0000000e+00 
1.0000000e+00 1.0000000e+00 0.0000000e+00 
0.0000000e+00 1.0000000e+00 0.0000000e+00 
1.0000000e-01 0.0000000e+00 0.0000000e+00 
2.0000000e-01 0.0000000e+00 0.0000000e+00 
3.0000001e-01 0.0000000e+00 0.0000000e+00 
4.0000001e-01 0.0000000e+00 0.0000000e+00 
5.0000000e-01 0.0000000e+00 0.0000000e+00 
6.0000002e-01 0.0000000e+00 0.0000000e+00 
6.9999999e-01 0.0000000e+00 0.0000000e+00 
8.0000001e-01 0.0000000e+00 0.0000000e+00 
8.9999998e-01 0.0000000e+00 0.0000000e+00 
1.0000000e+00 1.0000000e-01 0.0000000e+00 
1.0000000e+00 2.0000000e-01 0.0000000e+00 
1.0000000e+00 3.0000001e-01 0.0000000e+00 
1.0000000e+00 4.0000001e-01 0.0000000e+00 
1.0000000e+00 5.0000000e-01 0.0000000e+00 
1.0000000e+00 6.0000002e-01 0.0000000e+00 
1.0000000e+00 6.9999999e-01 0.0000000e+00 
1.0000000e+00 8.0000001e-01 0.0000000e+00 
1.0000000e+00 8.9999998e-01 0.0000000e+00 
8.9999998e-01 1.0000000e+00 0.0000000e+00 
8.0000001e-01 1.0000000e+00 0.0000000e+00 
6.9999999e-01 1.0000000e+00 0.0000000e+00 
6.0000002e-01 1.0000000e+00 0.0000000e+00 
5.0000000e-01 1.0000000e+00 0.0000000e+00 
4.0000001e-01 1.0000000e+00 0.0000000e+00 
3.0000001e-01 1.0000000e+00 0.0000000e+00 
2.0000000e-01 1.0000000e+00 0.0000000e+00 
1.0000000e-01 1.0000000e+00 0.0000000e+00 
0.0000000e+00 8.9999998e-01 0.0000000e+00 
0.0000000e+00 8.0000001e-01 0.0000000e+00 
0.0000000e+00 6.9999999e-01 0.0000000e+00 
0.0000000e+00 6.0000002e-01 0.0000000e+00 
0.0000000e+00 5.0000000e-01 0.0000000e+00 
0.0000000e+00 4.0000001e-01 0.0000000e+00 
0.0000000e+00 3.0000001e-01 0.0000000e+00 
0.0000000e+00 2.0000000e-01 0.0000000e+00 
0.0000000e+00 1.0000000e-01 0.0000000e+00 
4.5033512e-01 8.5524812e-02 0.0000000e+00 
9.5000088e-02 5.3608972e-01 0.0000000e+00 
9.1547006e-01 5.5000001e-01 0.0000000e+00 
5.5000001e-01 9.1339743e-01 0.0000000e+00 
9.1339743e-01 3.4999999e-01 0.0000000e+00 
3.4999999e-01 9.1669172e-01 0.0000000e+00 
8.8579953e-02 3.4872410e-01 0.0000000e+00 
6.4999998e-01 8.6602539e-02 0.0000000e+00 
9.1127491e-01 7.4795848e-01 0.0000000e+00 
6.6607341e-02 7.5098073e-01 0.0000000e+00 
2.4514475e-01 8.5484609e-02 0.0000000e+00 
7.4680746e-01 9.1993588e-01 0.0000000e+00 
9.0420872e-01 1.5861149e-01 0.0000000e+00 
1.5042374e-01 9.1532278e-01 0.0000000e+00 
8.7588154e-02 1.6267365e-01 0.0000000e+00 
7.4918270e-01 8.6130671e-02 0.0000000e+00 
6.9882751e-01 1.7252813e-01 0.0000000e+00 
6.0000002e-01 1.7320508e-01 0.0000000e+00 
6.4876831e-01 2.5909650e-01 0.0000000e+00 
5.4933882e-01 2.5818285e-01 0.0000000e+00 
5.9902751e-01 3.4564152e-01 0.0000000e+00 
5.0000000e-01 3.4641016e-01 0.0000000e+00 
5.4918092e-01 4.3250528e-01 0.0000000e+00 
4.4986349e-01 4.3292814e-01 0.0000000e+00 
4.9984074e-01 5.1951659e-01 0.0000000e+00 
5.9917998e-01 5.2102238e-01 0.0000000e+00 
3.9995071e-01 5.1958472e-01 0.0000000e+00 
4.4996524e-01 6.0619622e-01 0.0000000e+00 
3.9827734e-01 3.4236532e-01 0.0000000e+00 
3.4998599e-01 6.0620910e-01 0.0000000e+00 
2.9998946e-01 5.1960868e-01 0.0000000e+00 
4.0246150e-01 6.9138944e-01 0.0000000e+00 
5.0040448e-01 6.9257826e-01 0.0000000e+00 
6.9183892e-01 3.4861544e-01 0.0000000e+00 
3.0287755e-01 6.8788534e-01 0.0000000e+00 
4.5107409e-01 7.7642798e-01 0.0000000e+00 
5.5000001e-01 7.7942288e-01 0.0000000e+00 
6.0006744e-01 6.9277996e-01 0.0000000e+00 
6.4999998e-01 7.7942288e-01 0.0000000e+00 
7.0001125e-01 6.9281358e-01 0.0000000e+00 
7.4810976e-01 7.7827942e-01 0.0000000e+00 
8.1429243e-01 6.9644338e-01 0.0000000e+00 
7.5505483e-01 6.0440248e-01 0.0000000e+00 
7.9754496e-01 1.6455974e-01 0.0000000e+00 
8.4409988e-01 9.0543878e-01 0.0000000e+00 
2.5007063e-01 9.1426742e-01 0.0000000e+00 
1.9948809e-01 8.3684945e-01 0.0000000e+00 
3.0239609e-01 8.4084076e-01 0.0000000e+00 
5.5039096e-01 8.6229436e-02 0.0000000e+00 
2.5227043e-01 6.0435647e-01 0.0000000e+00 
2.0253047e-01 6.7697614e-01 0.0000000e+00 
2.0000000e-01 5.1961523e-01 0.0000000e+00 
2.4994016e-01 4.3122852e-01 0.0000000e+00 
1.5013675e-01 4.3705931e-01 0.0000000e+00 
1.9500943e-01 3.4477931e-01 0.0000000e+00 
1.4187421e-01 2.5843257e-01 0.0000000e+00 
2.4087626e-01 2.5457630e-01 0.0000000e+00 
2.9581064e-01 3.4174213e-01 0.0000000e+00 
3.4302756e-01 2.5211102e-01 0.0000000e+00 
4.4705081e-01 2.5426328e-01 0.0000000e+00 
1.8726690e-01 1.7076795e-01 0.0000000e+00 
9.1374290e-01 4.4999999e-01 0.0000000e+00 
8.1292653e-01 5.1219177e-01 0.0000000e+00 
6.4999998e-01 9.1339743e-01 0.0000000e+00 
9.4903819e-02 6.5753615e-01 0.0000000e+00 
3.4647793e-01 8.5224926e-02 0.0000000e+00 
9.1339743e-01 6.4999998e-01 0.0000000e+00 
8.3004320e-01 4.0203196e-01 0.0000000e+00 
8.3633298e-01 3.0639145e-01 0.0000000e+00 
7.4173015e-01 4.3506145e-01 0.0000000e+00 
9.1635197e-01 2.5751698e-01 0.0000000e+00 
4.4999999e-01 9.1524893e-01 0.0000000e+00 
5.4990965e-01 6.0638523e-01 0.0000000e+00 
3.4897196e-01 4.3124291e-01 0.0000000e+00 
6.5070385e-01 6.0805732e-01 0.0000000e+00 
4.9951929e-01 1.7088418e-01 0.0000000e+00 
6.4682627e-01 4.3563104e-01 0.0000000e+00 
3.9496639e-01 1.7007479e-01 0.0000000e+00 
9.2003214e-01 8.4667110e-01 0.0000000e+00 
8.4628856e-01 8.0417827e-02 0.0000000e+00 
9.0504780e-02 8.4245151e-01 0.0000000e+00 
1.5290669e-01 8.2261533e-02 0.0000000e+00 
7.5581288e-01 2.6161289e-01 0.0000000e+00 
2.9022500e-01 1.7048772e-01 0.0000000e+00 
7.0076448e-01 5.2269316e-01 0.0000000e+00 
8.3802330e-01 7.9983431e-01 0.0000000e+00 
8.4137177e-01 6.0186249e-01 0.0000000e+00 
1.6660626e-01 5.9922481e-01 0.0000000e+00 
3.5146821e-01 7.6715195e-01 0.0000000e+00 
6.7398138e-02 4.4853568e-01 0.0000000e+00 
6.0000002e-01 8.4641016e-01 0.0000000e+00 
6.9999999e-01 8.4641016e-01 0.0000000e+00 
5.0000000e-01 8.4641016e-01 0.0000000e+00 
2.5092945e-01 7.6027036e-01 0.0000000e+00 
4.0000001e-01 8.4656054e-01 0.0000000e+00 
6.1870042e-02 2.5000000e-01 0.0000000e+00 
9.2679495e-01 7.3205084e-02 0.0000000e+00 
7.3205084e-02 7.3205084e-02 0.0000000e+00 
9.2679495e-01 9.2679495e-01 0.0000000e+00 
7.3205084e-02 9.2679495e-01 0.0000000e+00 
1.5420890e-01 7.5578600e-01 0.0000000e+00 
7.7540809e-01 8.4997970e-01 0.0000000e+00 
7.7320510e-01 3.4999999e-01 0.0000000e+00 
8.4417260e-01 2.3009899e-01 0.0000000e+00 

CELLS 246 984
3 82 124 102
3 41 93 91
3 81 106 48
3 90 140 104
3 104 140 49
3 41 129 93
3 102 126 82
3 48 125 81
3 102 124 109
3 54 100 95
3 98 99 68
3 117 123 105
3 95 135 54
3 97 98 68
3 120 140 86
3 46 95 94
3 81 126 106
3 104 127 90
3 97 113 92
3 46 94 93
3 53 120 86
3 116 124 65
3 83 119 52
3 61 99 59
3 68 99 61
3 98 123 117
3 68 113 97
3 94 97 92
3 109 116 73
3 81 125 80
3 128 133 74
3 91 127 41
3 52 143 83
3 109 124 116
3 84 125 118
3 95 96 94
3 99 115 59
3 49 140 120
3 105 123 50
3 96 97 94
3 95 100 96
3 100 121 50
3 87 133 128
3 96 98 97
3 50 123 100
3 28 85 45
3 29 85 28
3 67 71 69
3 71 74 69
3 85 87 45
3 47 88 9
3 41 104 34
3 58 59 57
3 58 60 59
3 7 105 6
3 10 47 9
3 10 55 47
3 35 41 34
3 56 58 57
3 14 110 52
3 16 44 15
3 16 101 44
3 42 101 17
3 19 106 18
3 20 48 19
3 48 106 19
3 23 84 22
3 24 51 23
3 24 103 51
3 26 43 25
3 43 103 25
3 26 111 43
3 53 85 29
3 42 102 101
3 101 107 44
3 108 110 44
3 55 56 47
3 64 112 67
3 65 114 112
3 67 72 71
3 69 89 70
3 74 89 69
3 89 91 70
3 72 76 75
3 72 112 77
3 77 78 76
3 112 114 77
3 8 88 40
3 11 55 10
3 33 49 32
3 6 50 5
3 8 40 7
3 14 52 13
3 37 46 36
3 55 83 56
3 62 63 61
3 64 66 63
3 91 92 70
3 86 87 85
3 39 54 38
3 6 105 50
3 40 105 7
3 15 110 14
3 44 110 15
3 17 101 16
3 27 111 26
3 28 45 27
3 30 53 29
3 33 104 49
3 107 108 44
3 57 88 47
3 64 67 66
3 70 113 66
3 67 112 72
3 72 75 71
3 74 90 89
3 77 114 79
3 93 94 92
3 102 107 101
3 102 109 107
3 9 88 8
3 58 73 60
3 60 61 59
3 63 68 61
3 62 65 64
3 66 113 63
3 77 79 78
3 91 93 92
3 62 64 63
3 63 113 68
3 92 113 70
3 34 104 33
3 56 57 47
3 53 86 85
3 18 42 17
3 51 84 23
3 25 103 24
3 45 111 27
3 60 62 61
3 65 112 64
3 67 69 66
3 79 81 80
3 79 82 81
3 18 106 42
3 69 70 66
3 79 80 78
3 79 114 82
3 72 77 76
3 73 142 109
3 84 141 125
3 88 115 40
3 59 115 57
3 115 117 40
3 98 117 99
3 62 116 65
3 73 116 60
3 57 115 88
3 99 117 115
3 32 120 31
3 55 119 83
3 12 119 11
3 21 118 20
3 58 122 73
3 83 122 56
3 93 129 46
3 5 121 4
3 60 116 62
3 50 121 5
3 65 124 114
3 100 123 96
3 42 126 102
3 82 126 81
3 90 127 89
3 40 117 105
3 46 135 95
3 11 119 55
3 49 120 32
3 20 118 48
3 54 121 100
3 71 128 74
3 35 129 41
3 46 129 36
3 87 134 45
3 56 122 58
3 54 135 38
3 37 135 46
3 1 136 12
3 13 136 1
3 4 137 0
3 0 137 39
3 2 138 21
3 22 138 2
3 3 139 30
3 31 139 3
3 110 143 52
3 109 142 107
3 96 123 98
3 83 143 122
3 114 124 82
3 89 127 91
3 106 126 42
3 41 127 104
3 122 142 73
3 122 143 108
3 118 125 48
3 51 141 84
3 128 134 87
3 75 128 71
3 36 129 35
3 132 134 75
3 43 130 103
3 78 130 76
3 111 132 43
3 86 133 87
3 76 132 75
3 103 131 51
3 78 131 130
3 130 131 103
3 74 133 90
3 80 131 78
3 130 132 76
3 43 132 130
3 111 134 132
3 45 134 111
3 108 142 122
3 12 136 119
3 120 139 31
3 21 138 118
3 38 135 37
3 52 136 13
3 30 139 53
3 39 137 54
3 84 138 22
3 121 137 4
3 107 142 108
3 108 143 110
3 118 138 84
3 53 139 120
3 119 136 52
3 54 137 121
3 75 134 128
3 86 140 133
3 133 140 90
3 125 141 80
3 80 141 131
3 131 141 51

CELL_TYPES 246
5
5
5
5
5
5
5
5
5
5
5
5
5
5
5
5
5
5
5
5
5
5
5
5
5
5
5
5
5
5
5
5
5
5
5
5
5
5
5
5
5
5
5
5
5
5
5
5
5
5
5
5
5
5
5
5
5
5
5
5
5
5
5
5
5
5
5
5
5
5
5
5
5
5
5
5
5
5
5
5
5
5
5
5
5
5
5
5
5
5
5
5
5
5
5
5
5
5
5
5
5
5
5
5
5
5
5
5
5
5
5
5
5
5
5
5
5
5
5
5
5
5
5
5
5
5
5
5
5
5
5
5
5
5
5
5
5
5
5
5
5
5
5
5
5
5
5
5
5
5
5
5
5
5
5
5
5
5
5
5
5
5
5
5
5
5
5
5
5
5
5
5
5
5
5
5
5
5
5
5
5
5
5
5
5
5
5
5
5
5
5
5
5
5
5
5
5
5
5
5
5
5
5
5
5
5
5
5
5
5
5
5
5
5
5
5
5
5
5
5
5
5
5
5
5
5
5
5
5
5
5
5
5
5
5
5
5
5
5
5
5
5
5
5
5
5
POINT_DATA 144
FIELD FieldData 2
DISPLACEMENT 3 144  float
0.0000000e+00 0.0000000e+00 0.0000000e+00 
0.0000000e+00 0.0000000e+00 0.0000000e+00 
0.0000000e+00 -1.4927827e-05 0.0000000e+00 
0.0000000e+00 -1.5411579e-05 0.0000000e+00 
0.0000000e+00 0.0000000e+00 0.0000000e+00 
0.0000000e+00 0.0000000e+00 0.0000000e+00 
0.0000000e+00 0.0000000e+00 0.0000000e+00 
0.0000000e+00 0.0000000e+00 0.0000000e+00 
0.0000000e+00 0.0000000e+00 0.0000000e+00 
0.0000000e+00 0.0000000e+00 0.0000000e+00 
0.0000000e+00 0.0000000e+00 0.0000000e+00 
0.0000000e+00 0.0000000e+00 0.0000000e+00 
0.0000000e+00 0.0000000e+00 0.0000000e+00 
0.0000000e+00 -1.5108894e-06 0.0000000e+00 
0.0000000e+00 -3.0169967e-06 0.0000000e+00 
0.0000000e+00 -4.5147203e-06 0.0000000e+00 
0.0000000e+00 -6.0060229e-06 0.0000000e+00 
0.0000000e+00 -7.4903933e-06 0.0000000e+00 
0.0000000e+00 -8.9686046e-06 0.0000000e+00 
0.0000000e+00 -1.0445101e-05 0.0000000e+00 
0.0000000e+00 -1.1926109e-05 0.0000000e+00 
0.0000000e+00 -1.3418212e-05 0.0000000e+00 
6.5729630e-08 -1.4951604e-05 0.0000000e+00 
1.1784731e-07 -1.4978842e-05 0.0000000e+00 
1.4272781e-07 -1.5012411e-05 0.0000000e+00 
1.4274123e-07 -1.5060878e-05 0.0000000e+00 
1.2578110e-07 -1.5116173e-05 0.0000000e+00 
8.8655675e-08 -1.5196976e-05 0.0000000e+00 
5.4228071e-08 -1.5277212e-05 0.0000000e+00 
2.4614840e-08 -1.5351055e-05 0.0000000e+00 
1.1097465e-08 -1.5389909e-05 0.0000000e+00 
0.0000000e+00 -1.3836418e-05 0.0000000e+00 
0.0000000e+00 -1.2259401e-05 0.0000000e+00 
0.0000000e+00 -1.0686925e-05 0.0000000e+00 
0.0000000e+00 -9.1205848e-06 0.0000000e+00 
0.0000000e+00 -7.5653588e-06 0.0000000e+00 
0.0000000e+00 -6.0278389e-06 0.0000000e+00 
0.0000000e+00 -4.5062088e-06 0.0000000e+00 
0.0000000e+00 -2.9956395e-06 0.0000000e+00 
0.0000000e+00 -1.4963833e-06 0.0000000e+00 
1.2545754e-08 -1.2813895e-06 0.0000000e+00 
5.4786781e-08 -8.1140352e-06 0.0000000e+00 
3.7783018e-08 -8.2280621e-06 0.0000000e+00 
1.7727223e-07 -1.3738098e-05 0.0000000e+00 
1.8247812e-08 -5.2569358e-06 0.0000000e+00 
1.2473224e-07 -1.3927623e-05 0.0000000e+00 
2.6824477e-08 -5.2426153e-06 0.0000000e+00 
1.2204771e-08 -1.2932094e-06 0.0000000e+00 
6.6732696e-08 -1.1155978e-05 0.0000000e+00 
3.7083048e-08 -1.1482828e-05 0.0000000e+00 
-3.4953776e-10 -1.2863580e-06 0.0000000e+00 
1.5627977e-07 -1.3763132e-05 0.0000000e+00 
3.2936565e-09 -2.3918280e-06 0.0000000e+00 
4.8523241e-08 -1.4044556e-05 0.0000000e+00 
3.7132468e-09 -2.4371968e-06 0.0000000e+00 
5.7159188e-09 -1.2912629e-06 0.0000000e+00 
2.7625639e-08 -2.5770464e-06 0.0000000e+00 
3.4500218e-08 -2.5841557e-06 0.0000000e+00 
5.1723742e-08 -3.8673352e-06 0.0000000e+00 
5.3418809e-08 -3.8593262e-06 0.0000000e+00 
6.9137506e-08 -5.1674351e-06 0.0000000e+00 
7.1322830e-08 -5.1881038e-06 0.0000000e+00 
9.4522676e-08 -6.4721148e-06 0.0000000e+00 
9.9438921e-08 -6.4891069e-06 0.0000000e+00 
1.3455931e-07 -7.7763207e-06 0.0000000e+00 
1.2062085e-07 -7.7923341e-06 0.0000000e+00 
1.3342860e-07 -7.7997838e-06 0.0000000e+00 
1.6550520e-07 -9.0918556e-06 0.0000000e+00 
6.8180881e-08 -5.1388502e-06 0.0000000e+00 
1.5712689e-07 -9.1227666e-06 0.0000000e+00 
1.2251949e-07 -7.8189460e-06 0.0000000e+00 
1.8080802e-07 -1.0402393e-05 0.0000000e+00 
1.8850461e-07 -1.0381390e-05 0.0000000e+00 
6.2939968e-08 -5.2096038e-06 0.0000000e+00 
1.5914644e-07 -1.0390769e-05 0.0000000e+00 
1.9587415e-07 -1.1679604e-05 0.0000000e+00 
2.0226116e-07 -1.1680792e-05 0.0000000e+00 
1.7974430e-07 -1.0359297e-05 0.0000000e+00 
1.8983475e-07 -1.1652164e-05 0.0000000e+00 
1.5370482e-07 -1.0350400e-05 0.0000000e+00 
1.5654892e-07 -1.1623379e-05 0.0000000e+00 
1.1151073e-07 -1.0398291e-05 0.0000000e+00 
1.0867958e-07 -9.0318918e-06 0.0000000e+00 
1.3983513e-08 -2.4692313e-06 0.0000000e+00 
1.1510271e-07 -1.3523289e-05 0.0000000e+00 
8.7739934e-08 -1.3966467e-05 0.0000000e+00 
9.2225449e-08 -1.2781595e-05 0.0000000e+00 
1.3836005e-07 -1.2774230e-05 0.0000000e+00 
1.5414264e-08 -1.2872962e-06 0.0000000e+00 
1.3469557e-07 -9.1222955e-06 0.0000000e+00 
1.1622799e-07 -1.0270618e-05 0.0000000e+00 
9.8274050e-08 -7.8355379e-06 0.0000000e+00 
8.1381202e-08 -6.4867613e-06 0.0000000e+00 
6.0162407e-08 -6.5821146e-06 0.0000000e+00 
4.9595499e-08 -5.1808020e-06 0.0000000e+00 
2.5068061e-08 -3.8770868e-06 0.0000000e+00 
3.4213677e-08 -3.8236458e-06 0.0000000e+00 
6.1115848e-08 -5.1353695e-06 0.0000000e+00 
4.0624137e-08 -3.7881066e-06 0.0000000e+00 
4.7636039e-08 -3.8130986e-06 0.0000000e+00 
9.5571426e-09 -2.5643701e-06 0.0000000e+00 
2.6920556e-08 -6.7454562e-06 0.0000000e+00 
6.8953135e-08 -7.6600518e-06 0.0000000e+00 
1.7807689e-07 -1.3693179e-05 0.0000000e+00 
5.7044556e-08 -1.0008879e-05 0.0000000e+00 
5.3762559e-09 -1.2819617e-06 0.0000000e+00 
5.2350778e-08 -9.7063703e-06 0.0000000e+00 
4.4147605e-08 -6.0214165e-06 0.0000000e+00 
3.0896661e-08 -4.5952356e-06 0.0000000e+00 
7.0720652e-08 -6.5057388e-06 0.0000000e+00 
1.0930928e-08 -3.8759222e-06 0.0000000e+00 
1.6071981e-07 -1.3824903e-05 0.0000000e+00 
1.6009847e-07 -9.0709000e-06 0.0000000e+00 
9.3117002e-08 -6.4797705e-06 0.0000000e+00 
1.3847452e-07 -9.0901667e-06 0.0000000e+00 
3.2060218e-08 -2.5565514e-06 0.0000000e+00 
8.5041457e-08 -6.5147228e-06 0.0000000e+00 
2.3205295e-08 -2.5549859e-06 0.0000000e+00 
6.8268299e-08 -1.2623431e-05 0.0000000e+00 
1.3552291e-10 -1.2116718e-06 0.0000000e+00 
3.9635182e-08 -1.2920237e-05 0.0000000e+00 
-2.9008786e-09 -1.2356860e-06 0.0000000e+00 
3.9652718e-08 -3.9128536e-06 0.0000000e+00 
1.5184016e-08 -2.5639215e-06 0.0000000e+00 
1.0042360e-07 -7.8146149e-06 0.0000000e+00 
1.1566851e-07 -1.1937095e-05 0.0000000e+00 
7.7172494e-08 -8.9934529e-06 0.0000000e+00 
9.6239006e-08 -9.0736448e-06 0.0000000e+00 
1.7532624e-07 -1.1590485e-05 0.0000000e+00 
2.9469639e-08 -6.7681963e-06 0.0000000e+00 
1.9432238e-07 -1.2684654e-05 0.0000000e+00 
1.7772506e-07 -1.2655209e-05 0.0000000e+00 
1.9140842e-07 -1.2729826e-05 0.0000000e+00 
1.3573786e-07 -1.1545574e-05 0.0000000e+00 
1.7292598e-07 -1.2791503e-05 0.0000000e+00 
1.1534952e-08 -3.7493514e-06 0.0000000e+00 
-7.5379891e-10 -1.1049938e-06 0.0000000e+00 
-2.2561335e-09 -1.0976485e-06 0.0000000e+00 
6.1039131e-08 -1.3828110e-05 0.0000000e+00 
2.2503759e-08 -1.4249631e-05 0.0000000e+00 
8.5958177e-08 -1.1528122e-05 0.0000000e+00 
1.4898261e-07 -1.2697817e-05 0.0000000e+00 
4.9767714e-08 -5.2370669e-06 0.0000000e+00 
1.8752239e-08 -3.4563284e-06 0.0000000e+00 
VELOCITY 3 144  float
0.0000000e+00 0.0000000e+00 0.0000000e+00 
0.0000000e+00 0.0000000e+00 0.0000000e+00 
0.0000000e+00 2.2202588e-05 0.0000000e+00 
0.0000000e+00 7.9807134e-05 0.0000000e+00 
0.0000000e+00 0.0000000e+00 0.0000000e+00 
0.0000000e+00 0.0000000e+00 0.0000000e+00 
0.0000000e+00 0.0000000e+00 0.0000000e+00 
0.0000000e+00 0.0000000e+00 0.0000000e+00 
0.0000000e+00 0.0000000e+00 0.0000000e+00 
0.0000000e+00 0.0000000e+00 0.0000000e+00 
0.0000000e+00 0.0000000e+00 0.0000000e+00 
0.0000000e+00 0.0000000e+00 0.0000000e+00 
0.0000000e+00 0.0000000e+00 0.0000000e+00 
0.0000000e+00 -1.3943088e-05 0.0000000e+00 
0.0000000e+00 -2.3034545e-05 0.0000000e+00 
0.0000000e+00 -2.1373400e-05 0.0000000e+00 
0.0000000e+00 -8.5897054e-06 0.0000000e+00 
0.0000000e+00 1.0485674e-05 0.0000000e+00 
0.0000000e+00 2.2090273e-05 0.0000000e+00 
0.0000000e+00 2.1688360e-05 0.0000000e+00 
0.0000000e+00 1.9435613e-05 0.0000000e+00 
0.0000000e+00 2.3087856e-05 0.0000000e+00 
-6.7445966e-05 8.3399951e-05 0.0000000e+00 
-1.1805604e-04 1.3280376e-04 0.0000000e+00 
-1.6441986e-04 1.4299429e-04 0.0000000e+00 
-1.8218477e-04 1.6214747e-04 0.0000000e+00 
-1.9397077e-04 1.7011030e-04 0.0000000e+00 
-1.9650345e-04 1.5359951e-04 0.0000000e+00 
-1.6239533e-04 1.7582196e-04 0.0000000e+00 
-1.3720203e-04 1.6689886e-04 0.0000000e+00 
-8.4769825e-05 1.6064408e-04 0.0000000e+00 
0.0000000e+00 4.2255670e-05 0.0000000e+00 
0.0000000e+00 3.2236596e-05 0.0000000e+00 
0.0000000e+00 3.4399498e-05 0.0000000e+00 
0.0000000e+00 2.4558774e-05 0.0000000e+00 
0.0000000e+00 1.1028934e-05 0.0000000e+00 
0.0000000e+00 -2.6390543e-07 0.0000000e+00 
0.0000000e+00 -1.2247922e-05 0.0000000e+00 
0.0000000e+00 -1.0154147e-05 0.0000000e+00 
0.0000000e+00 -4.2849379e-07 0.0000000e+00 
-5.0726285e-06 -1.0128672e-06 0.0000000e+00 
-1.1185519e-05 1.9988414e-05 0.0000000e+00 
-8.1158541e-06 4.1197651e-05 0.0000000e+00 
-1.4996587e-04 1.3875429e-04 0.0000000e+00 
-8.9767127e-06 2.0256309e-06 0.0000000e+00 
-1.4988596e-04 1.1771022e-04 0.0000000e+00 
-1.8672992e-05 -4.9284099e-06 0.0000000e+00 
-6.9930493e-06 1.0314406e-05 0.0000000e+00 
-3.1278279e-05 6.0149803e-05 0.0000000e+00 
-8.2856268e-06 5.0174942e-05 0.0000000e+00 
-2.0879963e-06 -2.8738821e-06 0.0000000e+00 
-1.1057955e-04 1.2774431e-04 0.0000000e+00 
-1.7332237e-05 -1.0549230e-05 0.0000000e+00 
-7.3681404e-05 1.1621827e-04 0.0000000e+00 
7.4908562e-06 1.5090583e-06 0.0000000e+00 
-1.3771760e-05 4.6878777e-06 0.0000000e+00 
-1.2121521e-05 2.0680442e-05 0.0000000e+00 
-1.0316929e-05 1.7766013e-05 0.0000000e+00 
-1.5646865e-05 2.9722518e-05 0.0000000e+00 
-1.7706085e-05 2.0737851e-05 0.0000000e+00 
-2.1131125e-05 3.4645240e-05 0.0000000e+00 
-2.5095605e-05 2.3946744e-05 0.0000000e+00 
-2.3753901e-05 4.0613548e-05 0.0000000e+00 
-3.3015585e-05 1.9349938e-05 0.0000000e+00 
-4.3288761e-05 3.6931255e-05 0.0000000e+00 
-3.7085094e-05 5.4258137e-05 0.0000000e+00 
-4.4765144e-05 1.6014294e-05 0.0000000e+00 
-6.6685643e-05 3.8134662e-05 0.0000000e+00 
-3.4833251e-05 -1.9935860e-06 0.0000000e+00 
-5.4813507e-05 2.8218084e-05 0.0000000e+00 
-3.4448087e-05 8.9117266e-06 0.0000000e+00 
-6.8847636e-05 5.8325379e-05 0.0000000e+00 
-7.7640252e-05 6.4786545e-05 0.0000000e+00 
-1.6591834e-05 3.9200811e-05 0.0000000e+00 
-5.8395071e-05 4.0741492e-05 0.0000000e+00 
-9.8400211e-05 8.8897184e-05 0.0000000e+00 
-1.0906097e-04 8.8971377e-05 0.0000000e+00 
-7.0895461e-05 8.0650228e-05 0.0000000e+00 
-9.7575197e-05 1.0115449e-04 0.0000000e+00 
-5.7973499e-05 8.9898553e-05 0.0000000e+00 
-8.2685227e-05 9.3994910e-05 0.0000000e+00 
-5.1190673e-05 6.6528155e-05 0.0000000e+00 
-4.3993237e-05 6.3119929e-05 0.0000000e+00 
-1.9158782e-05 5.4435923e-06 0.0000000e+00 
-7.2866729e-05 1.0019627e-04 0.0000000e+00 
-1.1248086e-04 1.2758061e-04 0.0000000e+00 
-6.9602931e-05 8.6914304e-05 0.0000000e+00 
-1.1059873e-04 8.5117899e-05 0.0000000e+00 
-4.9391924e-06 5.5715018e-06 0.0000000e+00 
-4.1425581e-05 2.0170875e-05 0.0000000e+00 
-3.3191835e-05 4.0154038e-05 0.0000000e+00 
-2.3081666e-05 1.2810974e-05 0.0000000e+00 
-3.4239391e-05 -4.5122711e-06 0.0000000e+00 
-2.1148386e-05 5.4532106e-06 0.0000000e+00 
-3.2044787e-05 -6.9168932e-06 0.0000000e+00 
-9.8539404e-06 -2.3627954e-06 0.0000000e+00 
-1.6449156e-05 -7.4231302e-06 0.0000000e+00 
-4.0594954e-05 -1.7044862e-05 0.0000000e+00 
-2.0697853e-05 -1.0934259e-05 0.0000000e+00 
-1.8462220e-05 5.9398076e-06 0.0000000e+00 
3.8389339e-06 3.3086517e-06 0.0000000e+00 
-3.7024215e-06 2.3059278e-05 0.0000000e+00 
-1.6074517e-05 4.8160226e-05 0.0000000e+00 
-1.4140578e-04 1.2452879e-04 0.0000000e+00 
-1.0858374e-05 3.7641388e-05 0.0000000e+00 
-5.9746453e-06 -6.4620685e-06 0.0000000e+00 
-1.9565163e-05 5.2741641e-05 0.0000000e+00 
-9.1481515e-06 2.8934890e-05 0.0000000e+00 
-1.5061067e-05 1.2740275e-05 0.0000000e+00 
-1.4016723e-05 4.7739661e-05 0.0000000e+00 
-1.3487621e-05 -1.0319666e-05 0.0000000e+00 
-1.5511984e-04 1.2963705e-04 0.0000000e+00 
-6.6149078e-05 5.2635663e-05 0.0000000e+00 
-4.1889871e-05 -6.9053744e-06 0.0000000e+00 
-5.3570362e-05 7.2322247e-05 0.0000000e+00 
-1.0175200e-05 7.3184247e-06 0.0000000e+00 
-1.9019868e-05 4.9386083e-05 0.0000000e+00 
-1.0159223e-05 -5.4383668e-06 0.0000000e+00 
-3.8119975e-05 5.9911705e-05 0.0000000e+00 
-1.5508529e-05 -2.8942957e-06 0.0000000e+00 
-2.3002605e-05 7.3147821e-05 0.0000000e+00 
4.5926699e-06 3.7581779e-06 0.0000000e+00 
-1.5650783e-05 2.4751997e-05 0.0000000e+00 
-6.1838186e-06 -7.7464883e-06 0.0000000e+00 
-2.9954652e-05 5.9779752e-05 0.0000000e+00 
-6.4701802e-05 7.8875419e-05 0.0000000e+00 
-2.8841847e-05 5.4178006e-05 0.0000000e+00 
-2.3705312e-05 2.6172573e-05 0.0000000e+00 
-8.7987057e-05 6.7648347e-05 0.0000000e+00 
-9.1025177e-06 7.8360890e-06 0.0000000e+00 
-1.2896265e-04 1.0885783e-04 0.0000000e+00 
-1.0347855e-04 1.1462533e-04 0.0000000e+00 
-1.2617606e-04 1.1451423e-04 0.0000000e+00 
-6.3996100e-05 5.9354014e-05 0.0000000e+00 
-1.2629283e-04 9.8701988e-05 0.0000000e+00 
-4.5702318e-06 -8.4232697e-06 0.0000000e+00 
-9.5824316e-06 -5.7749116e-06 0.0000000e+00 
4.0080022e-06 3.0822073e-06 0.0000000e+00 
-4.4174547e-05 6.0074890e-05 0.0000000e+00 
-3.9273265e-05 9.1898321e-05 0.0000000e+00 
-3.3523345e-05 5.5054992e-05 0.0000000e+00 
-8.4917861e-05 1.0754748e-04 0.0000000e+00 
-1.4143201e-05 3.1933952e-05 0.0000000e+00 
-1.8816545e-05 2.4285805e-06 0.0000000e+00 
CELL_DATA 246
FIELD FieldData 0
