# vtk DataFile Version 4.0
vtk output
ASCII
DATASET UNSTRUCTURED_GRID
POINTS 144 float
0.0000000e+00 0.0000000e+00 0.0000000e+00 
1.0000000e+00 0.0000000e+00 0.0000000e+00 
1.0000000e+00 1.0000000e+00 0.0000000e+00 
0.0000000e+00 1.0000000e+00 0.0000000e+00 
1.0000000e-01 0.0000000e+00 0.0000000e+00 
2.0000000e-01 0.0000000e+00 0.0000000e+00 
3.0000001e-01 0.0000000e+00 0.0000000e+00 
4.0000001e-01 0.0000000e+00 0.0000000e+00 
5.0000000e-01 0.0000000e+00 0.0000000e+00 
6.0000002e-01 0.0000000e+00 0.0000000e+00 
6.9999999e-01 0.0000000e+00 0.0000000e+00 
8.0000001e-01 0.0000000e+00 0.0000000e+00 
8.9999998e-01 0.0000000e+00 0.0000000e+00 
1.0000000e+00 1.0000000e-01 0.0000000e+00 
1.0000000e+00 2.0000000e-01 0.0000000e+00 
1.0000000e+00 3.0000001e-01 0.0000000e+00 
1.0000000e+00 4.0000001e-01 0.0000000e+00 
1.0000000e+00 5.0000000e-01 0.0000000e+00 
1.0000000e+00 6.0000002e-01 0.0000000e+00 
1.0000000e+00 6.9999999e-01 0.0000000e+00 
1.0000000e+00 8.0000001e-01 0.0000000e+00 
1.0000000e+00 8.9999998e-01 0.0000000e+00 
8.9999998e-01 1.0000000e+00 0.0000000e+00 
8.0000001e-01 1.0000000e+00 0.0000000e+00 
6.9999999e-01 1.0000000e+00 0.0000000e+00 
6.0000002e-01 1.0000000e+00 0.0000000e+00 
5.0000000e-01 1.0000000e+00 0.0000000e+00 
4.0000001e-01 1.0000000e+00 0.0000000e+00 
3.0000001e-01 1.0000000e+00 0.0000000e+00 
2.0000000e-01 1.0000000e+00 0.0000000e+00 
1.0000000e-01 1.0000000e+00 0.0000000e+00 
0.0000000e+00 8.9999998e-01 0.0000000e+00 
0.0000000e+00 8.0000001e-01 0.0000000e+00 
0.0000000e+00 6.9999999e-01 0.0000000e+00 
0.0000000e+00 6.0000002e-01 0.0000000e+00 
0.0000000e+00 5.0000000e-01 0.0000000e+00 
0.0000000e+00 4.0000001e-01 0.0000000e+00 
0.0000000e+00 3.0000001e-01 0.0000000e+00 
0.0000000e+00 2.0000000e-01 0.0000000e+00 
0.0000000e+00 1.0000000e-01 0.0000000e+00 
4.5033512e-01 8.5524812e-02 0.0000000e+00 
9.5000088e-02 5.3608972e-01 0.0000000e+00 
9.1547006e-01 5.5000001e-01 0.0000000e+00 
5.5000001e-01 9.1339743e-01 0.0000000e+00 
9.1339743e-01 3.4999999e-01 0.0000000e+00 
3.4999999e-01 9.1669172e-01 0.0000000e+00 
8.8579953e-02 3.4872410e-01 0.0000000e+00 
6.4999998e-01 8.6602539e-02 0.0000000e+00 
9.1127491e-01 7.4795848e-01 0.0000000e+00 
6.6607341e-02 7.5098073e-01 0.0000000e+00 
2.4514475e-01 8.5484609e-02 0.0000000e+00 
7.4680746e-01 9.1993588e-01 0.0000000e+00 
9.0420872e-01 1.5861149e-01 0.0000000e+00 
1.5042374e-01 9.1532278e-01 0.0000000e+00 
8.7588154e-02 1.6267365e-01 0.0000000e+00 
7.4918270e-01 8.6130671e-02 0.0000000e+00 
6.9882751e-01 1.7252813e-01 0.0000000e+00 
6.0000002e-01 1.7320508e-01 0.0000000e+00 
6.4876831e-01 2.5909650e-01 0.0000000e+00 
5.4933882e-01 2.5818285e-01 0.0000000e+00 
5.9902751e-01 3.4564152e-01 0.0000000e+00 
5.0000000e-01 3.4641016e-01 0.0000000e+00 
5.4918092e-01 4.3250528e-01 0.0000000e+00 
4.4986349e-01 4.3292814e-01 0.0000000e+00 
4.9984074e-01 5.1951659e-01 0.0000000e+00 
5.9917998e-01 5.2102238e-01 0.0000000e+00 
3.9995071e-01 5.1958472e-01 0.0000000e+00 
4.4996524e-01 6.0619622e-01 0.0000000e+00 
3.9827734e-01 3.4236532e-01 0.0000000e+00 
3.4998599e-01 6.0620910e-01 0.0000000e+00 
2.9998946e-01 5.1960868e-01 0.0000000e+00 
4.0246150e-01 6.9138944e-01 0.0000000e+00 
5.0040448e-01 6.9257826e-01 0.0000000e+00 
6.9183892e-01 3.4861544e-01 0.0000000e+00 
3.0287755e-01 6.8788534e-01 0.0000000e+00 
4.5107409e-01 7.7642798e-01 0.0000000e+00 
5.5000001e-01 7.7942288e-01 0.0000000e+00 
6.0006744e-01 6.9277996e-01 0.0000000e+00 
6.4999998e-01 7.7942288e-01 0.0000000e+00 
7.0001125e-01 6.9281358e-01 0.0000000e+00 
7.4810976e-01 7.7827942e-01 0.0000000e+00 
8.1429243e-01 6.9644338e-01 0.0000000e+00 
7.5505483e-01 6.0440248e-01 0.0000000e+00 
7.9754496e-01 1.6455974e-01 0.0000000e+00 
8.4409988e-01 9.0543878e-01 0.0000000e+00 
2.5007063e-01 9.1426742e-01 0.0000000e+00 
1.9948809e-01 8.3684945e-01 0.0000000e+00 
3.0239609e-01 8.4084076e-01 0.0000000e+00 
5.5039096e-01 8.6229436e-02 0.0000000e+00 
2.5227043e-01 6.0435647e-01 0.0000000e+00 
2.0253047e-01 6.7697614e-01 0.0000000e+00 
2.0000000e-01 5.1961523e-01 0.0000000e+00 
2.4994016e-01 4.3122852e-01 0.0000000e+00 
1.5013675e-01 4.3705931e-01 0.0000000e+00 
1.9500943e-01 3.4477931e-01 0.0000000e+00 
1.4187421e-01 2.5843257e-01 0.0000000e+00 
2.4087626e-01 2.5457630e-01 0.0000000e+00 
2.9581064e-01 3.4174213e-01 0.0000000e+00 
3.4302756e-01 2.5211102e-01 0.0000000e+00 
4.4705081e-01 2.5426328e-01 0.0000000e+00 
1.8726690e-01 1.7076795e-01 0.0000000e+00 
9.1374290e-01 4.4999999e-01 0.0000000e+00 
8.1292653e-01 5.1219177e-01 0.0000000e+00 
6.4999998e-01 9.1339743e-01 0.0000000e+00 
9.4903819e-02 6.5753615e-01 0.0000000e+00 
3.4647793e-01 8.5224926e-02 0.0000000e+00 
9.1339743e-01 6.4999998e-01 0.0000000e+00 
8.3004320e-01 4.0203196e-01 0.0000000e+00 
8.3633298e-01 3.0639145e-01 0.0000000e+00 
7.4173015e-01 4.3506145e-01 0.0000000e+00 
9.1635197e-01 2.5751698e-01 0.0000000e+00 
4.4999999e-01 9.1524893e-01 0.0000000e+00 
5.4990965e-01 6.0638523e-01 0.0000000e+00 
3.4897196e-01 4.3124291e-01 0.0000000e+00 
6.5070385e-01 6.0805732e-01 0.0000000e+00 
4.9951929e-01 1.7088418e-01 0.0000000e+00 
6.4682627e-01 4.3563104e-01 0.0000000e+00 
3.9496639e-01 1.7007479e-01 0.0000000e+00 
9.2003214e-01 8.4667110e-01 0.0000000e+00 
8.4628856e-01 8.0417827e-02 0.0000000e+00 
9.0504780e-02 8.4245151e-01 0.0000000e+00 
1.5290669e-01 8.2261533e-02 0.0000000e+00 
7.5581288e-01 2.6161289e-01 0.0000000e+00 
2.9022500e-01 1.7048772e-01 0.0000000e+00 
7.0076448e-01 5.2269316e-01 0.0000000e+00 
8.3802330e-01 7.9983431e-01 0.0000000e+00 
8.4137177e-01 6.0186249e-01 0.0000000e+00 
1.6660626e-01 5.9922481e-01 0.0000000e+00 
3.5146821e-01 7.6715195e-01 0.0000000e+00 
6.7398138e-02 4.4853568e-01 0.0000000e+00 
6.0000002e-01 8.4641016e-01 0.0000000e+00 
6.9999999e-01 8.4641016e-01 0.0000000e+00 
5.0000000e-01 8.4641016e-01 0.0000000e+00 
2.5092945e-01 7.6027036e-01 0.0000000e+00 
4.0000001e-01 8.4656054e-01 0.0000000e+00 
6.1870042e-02 2.5000000e-01 0.0000000e+00 
9.2679495e-01 7.3205084e-02 0.0000000e+00 
7.3205084e-02 7.3205084e-02 0.0000000e+00 
9.2679495e-01 9.2679495e-01 0.0000000e+00 
7.3205084e-02 9.2679495e-01 0.0000000e+00 
1.5420890e-01 7.5578600e-01 0.0000000e+00 
7.7540809e-01 8.4997970e-01 0.0000000e+00 
7.7320510e-01 3.4999999e-01 0.0000000e+00 
8.4417260e-01 2.3009899e-01 0.0000000e+00 

CELLS 246 984
3 82 124 102
3 41 93 91
3 81 106 48
3 90 140 104
3 104 140 49
3 41 129 93
3 102 126 82
3 48 125 81
3 102 124 109
3 54 100 95
3 98 99 68
3 117 123 105
3 95 135 54
3 97 98 68
3 120 140 86
3 46 95 94
3 81 126 106
3 104 127 90
3 97 113 92
3 46 94 93
3 53 120 86
3 116 124 65
3 83 119 52
3 61 99 59
3 68 99 61
3 98 123 117
3 68 113 97
3 94 97 92
3 109 116 73
3 81 125 80
3 128 133 74
3 91 127 41
3 52 143 83
3 109 124 116
3 84 125 118
3 95 96 94
3 99 115 59
3 49 140 120
3 105 123 50
3 96 97 94
3 95 100 96
3 100 121 50
3 87 133 128
3 96 98 97
3 50 123 100
3 28 85 45
3 29 85 28
3 67 71 69
3 71 74 69
3 85 87 45
3 47 88 9
3 41 104 34
3 58 59 57
3 58 60 59
3 7 105 6
3 10 47 9
3 10 55 47
3 35 41 34
3 56 58 57
3 14 110 52
3 16 44 15
3 16 101 44
3 42 101 17
3 19 106 18
3 20 48 19
3 48 106 19
3 23 84 22
3 24 51 23
3 24 103 51
3 26 43 25
3 43 103 25
3 26 111 43
3 53 85 29
3 42 102 101
3 101 107 44
3 108 110 44
3 55 56 47
3 64 112 67
3 65 114 112
3 67 72 71
3 69 89 70
3 74 89 69
3 89 91 70
3 72 76 75
3 72 112 77
3 77 78 76
3 112 114 77
3 8 88 40
3 11 55 10
3 33 49 32
3 6 50 5
3 8 40 7
3 14 52 13
3 37 46 36
3 55 83 56
3 62 63 61
3 64 66 63
3 91 92 70
3 86 87 85
3 39 54 38
3 6 105 50
3 40 105 7
3 15 110 14
3 44 110 15
3 17 101 16
3 27 111 26
3 28 45 27
3 30 53 29
3 33 104 49
3 107 108 44
3 57 88 47
3 64 67 66
3 70 113 66
3 67 112 72
3 72 75 71
3 74 90 89
3 77 114 79
3 93 94 92
3 102 107 101
3 102 109 107
3 9 88 8
3 58 73 60
3 60 61 59
3 63 68 61
3 62 65 64
3 66 113 63
3 77 79 78
3 91 93 92
3 62 64 63
3 63 113 68
3 92 113 70
3 34 104 33
3 56 57 47
3 53 86 85
3 18 42 17
3 51 84 23
3 25 103 24
3 45 111 27
3 60 62 61
3 65 112 64
3 67 69 66
3 79 81 80
3 79 82 81
3 18 106 42
3 69 70 66
3 79 80 78
3 79 114 82
3 72 77 76
3 73 142 109
3 84 141 125
3 88 115 40
3 59 115 57
3 115 117 40
3 98 117 99
3 62 116 65
3 73 116 60
3 57 115 88
3 99 117 115
3 32 120 31
3 55 119 83
3 12 119 11
3 21 118 20
3 58 122 73
3 83 122 56
3 93 129 46
3 5 121 4
3 60 116 62
3 50 121 5
3 65 124 114
3 100 123 96
3 42 126 102
3 82 126 81
3 90 127 89
3 40 117 105
3 46 135 95
3 11 119 55
3 49 120 32
3 20 118 48
3 54 121 100
3 71 128 74
3 35 129 41
3 46 129 36
3 87 134 45
3 56 122 58
3 54 135 38
3 37 135 46
3 1 136 12
3 13 136 1
3 4 137 0
3 0 137 39
3 2 138 21
3 22 138 2
3 3 139 30
3 31 139 3
3 110 143 52
3 109 142 107
3 96 123 98
3 83 143 122
3 114 124 82
3 89 127 91
3 106 126 42
3 41 127 104
3 122 142 73
3 122 143 108
3 118 125 48
3 51 141 84
3 128 134 87
3 75 128 71
3 36 129 35
3 132 134 75
3 43 130 103
3 78 130 76
3 111 132 43
3 86 133 87
3 76 132 75
3 103 131 51
3 78 131 130
3 130 131 103
3 74 133 90
3 80 131 78
3 130 132 76
3 43 132 130
3 111 134 132
3 45 134 111
3 108 142 122
3 12 136 119
3 120 139 31
3 21 138 118
3 38 135 37
3 52 136 13
3 30 139 53
3 39 137 54
3 84 138 22
3 121 137 4
3 107 142 108
3 108 143 110
3 118 138 84
3 53 139 120
3 119 136 52
3 54 137 121
3 75 134 128
3 86 140 133
3 133 140 90
3 125 141 80
3 80 141 131
3 131 141 51

CELL_TYPES 246
5
5
5
5
5
5
5
5
5
5
5
5
5
5
5
5
5
5
5
5
5
5
5
5
5
5
5
5
5
5
5
5
5
5
5
5
5
5
5
5
5
5
5
5
5
5
5
5
5
5
5
5
5
5
5
5
5
5
5
5
5
5
5
5
5
5
5
5
5
5
5
5
5
5
5
5
5
5
5
5
5
5
5
5
5
5
5
5
5
5
5
5
5
5
5
5
5
5
5
5
5
5
5
5
5
5
5
5
5
5
5
5
5
5
5
5
5
5
5
5
5
5
5
5
5
5
5
5
5
5
5
5
5
5
5
5
5
5
5
5
5
5
5
5
5
5
5
5
5
5
5
5
5
5
5
5
5
5
5
5
5
5
5
5
5
5
5
5
5
5
5
5
5
5
5
5
5
5
5
5
5
5
5
5
5
5
5
5
5
5
5
5
5
5
5
5
5
5
5
5
5
5
5
5
5
5
5
5
5
5
5
5
5
5
5
5
5
5
5
5
5
5
5
5
5
5
5
5
5
5
5
5
5
5
5
5
5
5
5
5
5
5
5
5
5
5
POINT_DATA 144
FIELD FieldData 2
DISPLACEMENT 3 144  float
0.0000000e+00 0.0000000e+00 0.0000000e+00 
0.0000000e+00 0.0000000e+00 0.0000000e+00 
0.0000000e+00 -1.6158183e-05 0.0000000e+00 
0.0000000e+00 -1.6158214e-05 0.0000000e+00 
0.0000000e+00 0.0000000e+00 0.0000000e+00 
0.0000000e+00 0.0000000e+00 0.0000000e+00 
0.0000000e+00 0.0000000e+00 0.0000000e+00 
0.0000000e+00 0.0000000e+00 0.0000000e+00 
0.0000000e+00 0.0000000e+00 0.0000000e+00 
0.0000000e+00 0.0000000e+00 0.0000000e+00 
0.0000000e+00 0.0000000e+00 0.0000000e+00 
0.0000000e+00 0.0000000e+00 0.0000000e+00 
0.0000000e+00 0.0000000e+00 0.0000000e+00 
0.0000000e+00 -1.6608338e-06 0.0000000e+00 
0.0000000e+00 -3.3147542e-06 0.0000000e+00 
0.0000000e+00 -4.9567147e-06 0.0000000e+00 
0.0000000e+00 -6.5847785e-06 0.0000000e+00 
0.0000000e+00 -8.2000579e-06 0.0000000e+00 
0.0000000e+00 -9.8073560e-06 0.0000000e+00 
0.0000000e+00 -1.1411071e-05 0.0000000e+00 
0.0000000e+00 -1.3010344e-05 0.0000000e+00 
0.0000000e+00 -1.4594822e-05 0.0000000e+00 
1.7263678e-10 -1.6156924e-05 0.0000000e+00 
-2.7110189e-10 -1.6157541e-05 0.0000000e+00 
-1.1571639e-10 -1.6157852e-05 0.0000000e+00 
-1.6059894e-10 -1.6158212e-05 0.0000000e+00 
-1.0286948e-10 -1.6158445e-05 0.0000000e+00 
1.6141691e-10 -1.6158396e-05 0.0000000e+00 
3.3212763e-10 -1.6158025e-05 0.0000000e+00 
-2.5766392e-11 -1.6157810e-05 0.0000000e+00 
-1.8159657e-10 -1.6156953e-05 0.0000000e+00 
0.0000000e+00 -1.4595155e-05 0.0000000e+00 
0.0000000e+00 -1.3010383e-05 0.0000000e+00 
0.0000000e+00 -1.1411190e-05 0.0000000e+00 
0.0000000e+00 -9.8074206e-06 0.0000000e+00 
0.0000000e+00 -8.1997823e-06 0.0000000e+00 
0.0000000e+00 -6.5843014e-06 0.0000000e+00 
0.0000000e+00 -4.9562736e-06 0.0000000e+00 
0.0000000e+00 -3.3143490e-06 0.0000000e+00 
0.0000000e+00 -1.6607311e-06 0.0000000e+00 
-5.7425311e-11 -1.4207694e-06 0.0000000e+00 
-1.3965298e-10 -8.7809403e-06 0.0000000e+00 
1.8467448e-10 -9.0044050e-06 0.0000000e+00 
4.9699488e-11 -1.4806521e-05 0.0000000e+00 
-1.1363442e-10 -5.7726029e-06 0.0000000e+00 
2.3675067e-10 -1.4858022e-05 0.0000000e+00 
3.2674967e-11 -5.7517273e-06 0.0000000e+00 
-9.8416816e-11 -1.4386733e-06 0.0000000e+00 
1.5186280e-10 -1.2179398e-05 0.0000000e+00 
2.8517237e-11 -1.2227616e-05 0.0000000e+00 
-4.7620158e-11 -1.4201057e-06 0.0000000e+00 
4.7002537e-11 -1.4908265e-05 0.0000000e+00 
-3.9221681e-11 -2.6313596e-06 0.0000000e+00 
7.6181478e-11 -1.4836141e-05 0.0000000e+00 
-4.1701528e-11 -2.6986600e-06 0.0000000e+00 
-6.6885025e-11 -1.4307699e-06 0.0000000e+00 
-1.7847544e-10 -2.8617148e-06 0.0000000e+00 
-1.6781912e-10 -2.8727748e-06 0.0000000e+00 
-2.9319314e-10 -4.2870420e-06 0.0000000e+00 
-2.5226415e-10 -4.2720303e-06 0.0000000e+00 
-5.2897645e-11 -5.7018642e-06 0.0000000e+00 
-6.5668686e-11 -5.7143056e-06 0.0000000e+00 
1.1230733e-10 -7.1113368e-06 0.0000000e+00 
5.7727850e-11 -7.1181430e-06 0.0000000e+00 
1.0747653e-10 -8.5147303e-06 0.0000000e+00 
2.6972427e-10 -8.5389802e-06 0.0000000e+00 
-2.3136814e-11 -8.5157899e-06 0.0000000e+00 
8.3180685e-12 -9.9076369e-06 0.0000000e+00 
-7.8983917e-11 -5.6483950e-06 0.0000000e+00 
-1.6334319e-10 -9.9077142e-06 0.0000000e+00 
-1.2867127e-10 -8.5160491e-06 0.0000000e+00 
-1.8776007e-12 -1.1274249e-05 0.0000000e+00 
1.7198140e-10 -1.1293409e-05 0.0000000e+00 
-1.8959537e-11 -5.7505354e-06 0.0000000e+00 
-1.4835848e-10 -1.1217830e-05 0.0000000e+00 
3.5678017e-12 -1.2635674e-05 0.0000000e+00 
1.7408552e-10 -1.2683507e-05 0.0000000e+00 
3.2290387e-10 -1.1296584e-05 0.0000000e+00 
2.2713738e-10 -1.2683337e-05 0.0000000e+00 
3.9251061e-10 -1.1296910e-05 0.0000000e+00 
1.2225237e-10 -1.2664774e-05 0.0000000e+00 
3.5055603e-10 -1.1354799e-05 0.0000000e+00 
4.3134213e-10 -9.8786568e-06 0.0000000e+00 
-2.2236450e-10 -2.7296408e-06 0.0000000e+00 
-1.4977469e-10 -1.4681203e-05 0.0000000e+00 
2.3074695e-10 -1.4819583e-05 0.0000000e+00 
9.6695894e-11 -1.3597471e-05 0.0000000e+00 
-1.3061691e-11 -1.3661221e-05 0.0000000e+00 
-6.7241650e-11 -1.4324576e-06 0.0000000e+00 
-2.5472532e-10 -9.8778028e-06 0.0000000e+00 
-1.9631786e-10 -1.1042680e-05 0.0000000e+00 
-1.5627968e-10 -8.5160136e-06 0.0000000e+00 
-6.4505165e-11 -7.0905307e-06 0.0000000e+00 
-7.2239562e-11 -7.1849104e-06 0.0000000e+00 
-4.6603655e-11 -5.6876761e-06 0.0000000e+00 
-3.2722363e-11 -4.2762558e-06 0.0000000e+00 
-3.0012198e-11 -4.2128222e-06 0.0000000e+00 
-6.0719055e-11 -5.6381987e-06 0.0000000e+00 
-8.7465230e-11 -4.1723638e-06 0.0000000e+00 
-1.6658397e-10 -4.2076949e-06 0.0000000e+00 
-1.3208724e-10 -2.8324632e-06 0.0000000e+00 
1.8061541e-10 -7.3937913e-06 0.0000000e+00 
2.8485009e-10 -8.3966443e-06 0.0000000e+00 
-4.6464433e-11 -1.4806272e-05 0.0000000e+00 
-1.7899467e-10 -1.0730733e-05 0.0000000e+00 
-6.0315017e-11 -1.4157735e-06 0.0000000e+00 
2.7979377e-10 -1.0609660e-05 0.0000000e+00 
9.7812154e-11 -6.6176617e-06 0.0000000e+00 
-3.3562994e-10 -5.0613498e-06 0.0000000e+00 
2.1486984e-10 -7.1526142e-06 0.0000000e+00 
2.7474176e-11 -4.2608649e-06 0.0000000e+00 
1.4274329e-10 -1.4835688e-05 0.0000000e+00 
2.1399311e-10 -9.9107010e-06 0.0000000e+00 
-3.6053563e-11 -7.0908341e-06 0.0000000e+00 
3.6817996e-10 -9.9374301e-06 0.0000000e+00 
-1.1850713e-10 -2.8344248e-06 0.0000000e+00 
2.3465732e-10 -7.1619547e-06 0.0000000e+00 
-8.7401891e-11 -2.8210588e-06 0.0000000e+00 
-7.8629742e-12 -1.3753106e-05 0.0000000e+00 
-1.0864670e-10 -1.3359194e-06 0.0000000e+00 
1.4519555e-10 -1.3686353e-05 0.0000000e+00 
2.1398404e-11 -1.3666474e-06 0.0000000e+00 
-3.4496844e-10 -4.3285145e-06 0.0000000e+00 
-1.1880021e-10 -2.8278544e-06 0.0000000e+00 
3.3861544e-10 -8.5657230e-06 0.0000000e+00 
3.5547093e-11 -1.3008472e-05 0.0000000e+00 
4.1681539e-10 -9.8375231e-06 0.0000000e+00 
-2.7440530e-10 -9.7952261e-06 0.0000000e+00 
-9.3289168e-11 -1.2487213e-05 0.0000000e+00 
-5.2160241e-11 -7.3697215e-06 0.0000000e+00 
1.1049501e-10 -1.3749858e-05 0.0000000e+00 
4.7380273e-11 -1.3749672e-05 0.0000000e+00 
9.4883101e-11 -1.3750020e-05 0.0000000e+00 
-1.2483525e-10 -1.2376915e-05 0.0000000e+00 
1.5857586e-11 -1.3752317e-05 0.0000000e+00 
-9.7627739e-12 -4.1370517e-06 0.0000000e+00 
-1.5449172e-10 -1.2159780e-06 0.0000000e+00 
7.2380248e-11 -1.2160037e-06 0.0000000e+00 
-5.0236604e-10 -1.5015041e-05 0.0000000e+00 
1.7276595e-10 -1.5015115e-05 0.0000000e+00 
-1.0056244e-10 -1.2305137e-05 0.0000000e+00 
-2.6521677e-10 -1.3805898e-05 0.0000000e+00 
-5.8603067e-11 -5.7724083e-06 0.0000000e+00 
-8.0222516e-11 -3.8102899e-06 0.0000000e+00 
VELOCITY 3 144  float
0.0000000e+00 0.0000000e+00 0.0000000e+00 
0.0000000e+00 0.0000000e+00 0.0000000e+00 
0.0000000e+00 -1.0144085e-05 0.0000000e+00 
0.0000000e+00 -9.3902245e-06 0.0000000e+00 
0.0000000e+00 0.0000000e+00 0.0000000e+00 
0.0000000e+00 0.0000000e+00 0.0000000e+00 
0.0000000e+00 0.0000000e+00 0.0000000e+00 
0.0000000e+00 0.0000000e+00 0.0000000e+00 
0.0000000e+00 0.0000000e+00 0.0000000e+00 
0.0000000e+00 0.0000000e+00 0.0000000e+00 
0.0000000e+00 0.0000000e+00 0.0000000e+00 
0.0000000e+00 0.0000000e+00 0.0000000e+00 
0.0000000e+00 0.0000000e+00 0.0000000e+00 
0.0000000e+00 1.7623483e-05 0.0000000e+00 
0.0000000e+00 3.3400469e-05 0.0000000e+00 
0.0000000e+00 4.4673434e-05 0.0000000e+00 
0.0000000e+00 4.7733552e-05 0.0000000e+00 
0.0000000e+00 3.8497757e-05 0.0000000e+00 
0.0000000e+00 1.6503318e-05 0.0000000e+00 
0.0000000e+00 -1.1631151e-05 0.0000000e+00 
0.0000000e+00 -2.8264525e-05 0.0000000e+00 
0.0000000e+00 -1.6302429e-05 0.0000000e+00 
-7.9627688e-07 -1.2675958e-05 0.0000000e+00 
6.2142487e-07 -1.0830515e-05 0.0000000e+00 
-1.2511164e-07 -1.1398079e-05 0.0000000e+00 
-1.5539966e-07 -1.0790269e-05 0.0000000e+00 
-1.6372965e-07 -1.1201581e-05 0.0000000e+00 
-4.5013621e-08 -1.1544126e-05 0.0000000e+00 
-2.7810509e-07 -1.1519017e-05 0.0000000e+00 
-4.2415675e-07 -1.1643189e-05 0.0000000e+00 
4.1874594e-07 -1.3766003e-05 0.0000000e+00 
0.0000000e+00 -1.6079121e-05 0.0000000e+00 
0.0000000e+00 -2.7762695e-05 0.0000000e+00 
0.0000000e+00 -1.1240173e-05 0.0000000e+00 
0.0000000e+00 1.6704351e-05 0.0000000e+00 
0.0000000e+00 3.8462284e-05 0.0000000e+00 
0.0000000e+00 4.7560705e-05 0.0000000e+00 
0.0000000e+00 4.4651650e-05 0.0000000e+00 
0.0000000e+00 3.3393502e-05 0.0000000e+00 
0.0000000e+00 1.7656872e-05 0.0000000e+00 
-4.3458165e-08 1.5226929e-05 0.0000000e+00 
-1.1548823e-07 3.2175089e-05 0.0000000e+00 
2.7890846e-07 2.8793544e-05 0.0000000e+00 
-3.6351757e-08 -1.0612359e-05 0.0000000e+00 
1.1999059e-07 4.7531052e-05 0.0000000e+00 
2.4924509e-07 -1.0102766e-05 0.0000000e+00 
-6.1809871e-08 4.7752925e-05 0.0000000e+00 
-5.2866763e-08 1.5412090e-05 0.0000000e+00 
-2.2657571e-07 -2.2696840e-05 0.0000000e+00 
3.9126709e-07 -2.2450871e-05 0.0000000e+00 
-2.4448067e-08 1.5224316e-05 0.0000000e+00 
-5.8915894e-09 -9.0439262e-06 0.0000000e+00 
-2.5087735e-08 2.7190072e-05 0.0000000e+00 
-4.7197130e-07 -1.0539494e-05 0.0000000e+00 
-3.9788368e-09 2.8033397e-05 0.0000000e+00 
-7.0636318e-08 1.5280748e-05 0.0000000e+00 
-5.7721952e-08 2.9598863e-05 0.0000000e+00 
-5.1803571e-08 2.9688408e-05 0.0000000e+00 
6.7120574e-08 4.1145358e-05 0.0000000e+00 
2.4496188e-08 4.1033170e-05 0.0000000e+00 
9.4556242e-08 4.7692334e-05 0.0000000e+00 
-2.2819417e-09 4.7658803e-05 0.0000000e+00 
7.0399444e-08 4.6328936e-05 0.0000000e+00 
-1.0689169e-07 4.6323647e-05 0.0000000e+00 
3.0637811e-08 3.4990495e-05 0.0000000e+00 
1.8210282e-07 3.4747387e-05 0.0000000e+00 
-1.7165132e-07 3.5104793e-05 0.0000000e+00 
1.2454883e-07 1.4324678e-05 0.0000000e+00 
-8.8433239e-08 4.7542791e-05 0.0000000e+00 
8.6066876e-08 1.4541256e-05 0.0000000e+00 
-2.8456969e-07 3.5212423e-05 0.0000000e+00 
3.5914090e-07 -9.7865377e-06 0.0000000e+00 
2.5730958e-07 -1.0238869e-05 0.0000000e+00 
1.9344981e-07 4.7957801e-05 0.0000000e+00 
3.5816450e-07 -8.6427481e-06 0.0000000e+00 
-1.2678713e-07 -2.6839558e-05 0.0000000e+00 
-1.1027263e-07 -2.7147758e-05 0.0000000e+00 
1.0596722e-07 -1.0276451e-05 0.0000000e+00 
-3.0162175e-07 -2.7073882e-05 0.0000000e+00 
-5.9367505e-08 -9.9633280e-06 0.0000000e+00 
-5.1545464e-07 -2.6851147e-05 0.0000000e+00 
-1.1837257e-07 -1.1046695e-05 0.0000000e+00 
2.0370388e-07 1.5236747e-05 0.0000000e+00 
-2.9519592e-08 2.8142233e-05 0.0000000e+00 
-9.9087423e-08 -1.2154080e-05 0.0000000e+00 
7.2386420e-08 -1.0562899e-05 0.0000000e+00 
3.5989524e-07 -2.6739855e-05 0.0000000e+00 
1.5700931e-07 -2.6315120e-05 0.0000000e+00 
-5.0359553e-08 1.5349480e-05 0.0000000e+00 
1.3877131e-07 1.5244579e-05 0.0000000e+00 
2.7684590e-07 -5.7155967e-06 0.0000000e+00 
-3.1837521e-07 3.5279827e-05 0.0000000e+00 
-2.7037197e-07 4.6581561e-05 0.0000000e+00 
-2.2301703e-07 4.6424189e-05 0.0000000e+00 
-1.2200107e-07 4.7725789e-05 0.0000000e+00 
-4.4653124e-08 4.1189182e-05 0.0000000e+00 
-8.7355183e-08 4.0678817e-05 0.0000000e+00 
-1.3621359e-07 4.7545855e-05 0.0000000e+00 
-8.7771070e-08 4.0378323e-05 0.0000000e+00 
-5.4747087e-08 4.0601448e-05 0.0000000e+00 
-1.4117457e-08 2.9328543e-05 0.0000000e+00 
3.8206778e-08 4.4844383e-05 0.0000000e+00 
3.8178953e-07 3.6708410e-05 0.0000000e+00 
-3.1736377e-08 -1.0461636e-05 0.0000000e+00 
1.0501237e-07 -1.1756352e-07 0.0000000e+00 
-3.4644113e-08 1.5169248e-05 0.0000000e+00 
5.1571623e-09 2.1057031e-06 0.0000000e+00 
2.1602240e-07 4.7582540e-05 0.0000000e+00 
2.3084397e-07 4.5154506e-05 0.0000000e+00 
2.9575952e-07 4.6295412e-05 0.0000000e+00 
-5.7542753e-09 4.0635961e-05 0.0000000e+00 
7.5314759e-08 -1.0525473e-05 0.0000000e+00 
1.8187450e-07 1.4209460e-05 0.0000000e+00 
-2.0572972e-07 4.6520592e-05 0.0000000e+00 
2.2987628e-07 1.3918477e-05 0.0000000e+00 
-6.8910758e-08 2.9335535e-05 0.0000000e+00 
1.8504650e-07 4.6213201e-05 0.0000000e+00 
-7.3472705e-08 2.9210003e-05 0.0000000e+00 
-5.0629302e-07 -2.6056639e-05 0.0000000e+00 
-3.0065376e-08 1.4248811e-05 0.0000000e+00 
4.4130263e-07 -2.6583739e-05 0.0000000e+00 
-1.9423320e-08 1.4668230e-05 0.0000000e+00 
1.0380320e-07 4.1392814e-05 0.0000000e+00 
-4.6206434e-08 2.9275676e-05 0.0000000e+00 
2.9045543e-07 3.4541496e-05 0.0000000e+00 
-3.8722243e-07 -2.8098328e-05 0.0000000e+00 
4.6313477e-08 1.5738309e-05 0.0000000e+00 
1.6618836e-07 1.6622374e-05 0.0000000e+00 
1.7354637e-08 -2.5528549e-05 0.0000000e+00 
-2.1453373e-07 4.4800006e-05 0.0000000e+00 
-1.4234021e-07 -2.5724772e-05 0.0000000e+00 
-3.8824032e-07 -2.5899433e-05 0.0000000e+00 
9.4748529e-08 -2.5907157e-05 0.0000000e+00 
2.2145879e-07 -2.4685058e-05 0.0000000e+00 
1.7657807e-07 -2.5874331e-05 0.0000000e+00 
-5.2360978e-08 3.9852788e-05 0.0000000e+00 
1.4876166e-08 1.2928270e-05 0.0000000e+00 
-1.9274284e-08 1.2996767e-05 0.0000000e+00 
7.3142672e-07 -7.6696588e-06 0.0000000e+00 
-1.1827067e-06 -7.4446630e-06 0.0000000e+00 
3.0902177e-07 -2.4572939e-05 0.0000000e+00 
-3.2968998e-07 -2.5120347e-05 0.0000000e+00 
2.4962895e-07 4.7467729e-05 0.0000000e+00 
-1.1744910e-08 3.7327100e-05 0.0000000e+00 
CELL_DATA 246
FIELD FieldData 0
