# vtk DataFile Version 4.0
vtk output
ASCII
DATASET UNSTRUCTURED_GRID
POINTS 144 float
0.0000000e+00 0.0000000e+00 0.0000000e+00 
1.0000000e+00 0.0000000e+00 0.0000000e+00 
1.0000000e+00 1.0000000e+00 0.0000000e+00 
0.0000000e+00 1.0000000e+00 0.0000000e+00 
1.0000000e-01 0.0000000e+00 0.0000000e+00 
2.0000000e-01 0.0000000e+00 0.0000000e+00 
3.0000001e-01 0.0000000e+00 0.0000000e+00 
4.0000001e-01 0.0000000e+00 0.0000000e+00 
5.0000000e-01 0.0000000e+00 0.0000000e+00 
6.0000002e-01 0.0000000e+00 0.0000000e+00 
6.9999999e-01 0.0000000e+00 0.0000000e+00 
8.0000001e-01 0.0000000e+00 0.0000000e+00 
8.9999998e-01 0.0000000e+00 0.0000000e+00 
1.0000000e+00 1.0000000e-01 0.0000000e+00 
1.0000000e+00 2.0000000e-01 0.0000000e+00 
1.0000000e+00 3.0000001e-01 0.0000000e+00 
1.0000000e+00 4.0000001e-01 0.0000000e+00 
1.0000000e+00 5.0000000e-01 0.0000000e+00 
1.0000000e+00 6.0000002e-01 0.0000000e+00 
1.0000000e+00 6.9999999e-01 0.0000000e+00 
1.0000000e+00 8.0000001e-01 0.0000000e+00 
1.0000000e+00 8.9999998e-01 0.0000000e+00 
8.9999998e-01 1.0000000e+00 0.0000000e+00 
8.0000001e-01 1.0000000e+00 0.0000000e+00 
6.9999999e-01 1.0000000e+00 0.0000000e+00 
6.0000002e-01 1.0000000e+00 0.0000000e+00 
5.0000000e-01 1.0000000e+00 0.0000000e+00 
4.0000001e-01 1.0000000e+00 0.0000000e+00 
3.0000001e-01 1.0000000e+00 0.0000000e+00 
2.0000000e-01 1.0000000e+00 0.0000000e+00 
1.0000000e-01 1.0000000e+00 0.0000000e+00 
0.0000000e+00 8.9999998e-01 0.0000000e+00 
0.0000000e+00 8.0000001e-01 0.0000000e+00 
0.0000000e+00 6.9999999e-01 0.0000000e+00 
0.0000000e+00 6.0000002e-01 0.0000000e+00 
0.0000000e+00 5.0000000e-01 0.0000000e+00 
0.0000000e+00 4.0000001e-01 0.0000000e+00 
0.0000000e+00 3.0000001e-01 0.0000000e+00 
0.0000000e+00 2.0000000e-01 0.0000000e+00 
0.0000000e+00 1.0000000e-01 0.0000000e+00 
4.5033512e-01 8.5524812e-02 0.0000000e+00 
9.5000088e-02 5.3608972e-01 0.0000000e+00 
9.1547006e-01 5.5000001e-01 0.0000000e+00 
5.5000001e-01 9.1339743e-01 0.0000000e+00 
9.1339743e-01 3.4999999e-01 0.0000000e+00 
3.4999999e-01 9.1669172e-01 0.0000000e+00 
8.8579953e-02 3.4872410e-01 0.0000000e+00 
6.4999998e-01 8.6602539e-02 0.0000000e+00 
9.1127491e-01 7.4795848e-01 0.0000000e+00 
6.6607341e-02 7.5098073e-01 0.0000000e+00 
2.4514475e-01 8.5484609e-02 0.0000000e+00 
7.4680746e-01 9.1993588e-01 0.0000000e+00 
9.0420872e-01 1.5861149e-01 0.0000000e+00 
1.5042374e-01 9.1532278e-01 0.0000000e+00 
8.7588154e-02 1.6267365e-01 0.0000000e+00 
7.4918270e-01 8.6130671e-02 0.0000000e+00 
6.9882751e-01 1.7252813e-01 0.0000000e+00 
6.0000002e-01 1.7320508e-01 0.0000000e+00 
6.4876831e-01 2.5909650e-01 0.0000000e+00 
5.4933882e-01 2.5818285e-01 0.0000000e+00 
5.9902751e-01 3.4564152e-01 0.0000000e+00 
5.0000000e-01 3.4641016e-01 0.0000000e+00 
5.4918092e-01 4.3250528e-01 0.0000000e+00 
4.4986349e-01 4.3292814e-01 0.0000000e+00 
4.9984074e-01 5.1951659e-01 0.0000000e+00 
5.9917998e-01 5.2102238e-01 0.0000000e+00 
3.9995071e-01 5.1958472e-01 0.0000000e+00 
4.4996524e-01 6.0619622e-01 0.0000000e+00 
3.9827734e-01 3.4236532e-01 0.0000000e+00 
3.4998599e-01 6.0620910e-01 0.0000000e+00 
2.9998946e-01 5.1960868e-01 0.0000000e+00 
4.0246150e-01 6.9138944e-01 0.0000000e+00 
5.0040448e-01 6.9257826e-01 0.0000000e+00 
6.9183892e-01 3.4861544e-01 0.0000000e+00 
3.0287755e-01 6.8788534e-01 0.0000000e+00 
4.5107409e-01 7.7642798e-01 0.0000000e+00 
5.5000001e-01 7.7942288e-01 0.0000000e+00 
6.0006744e-01 6.9277996e-01 0.0000000e+00 
6.4999998e-01 7.7942288e-01 0.0000000e+00 
7.0001125e-01 6.9281358e-01 0.0000000e+00 
7.4810976e-01 7.7827942e-01 0.0000000e+00 
8.1429243e-01 6.9644338e-01 0.0000000e+00 
7.5505483e-01 6.0440248e-01 0.0000000e+00 
7.9754496e-01 1.6455974e-01 0.0000000e+00 
8.4409988e-01 9.0543878e-01 0.0000000e+00 
2.5007063e-01 9.1426742e-01 0.0000000e+00 
1.9948809e-01 8.3684945e-01 0.0000000e+00 
3.0239609e-01 8.4084076e-01 0.0000000e+00 
5.5039096e-01 8.6229436e-02 0.0000000e+00 
2.5227043e-01 6.0435647e-01 0.0000000e+00 
2.0253047e-01 6.7697614e-01 0.0000000e+00 
2.0000000e-01 5.1961523e-01 0.0000000e+00 
2.4994016e-01 4.3122852e-01 0.0000000e+00 
1.5013675e-01 4.3705931e-01 0.0000000e+00 
1.9500943e-01 3.4477931e-01 0.0000000e+00 
1.4187421e-01 2.5843257e-01 0.0000000e+00 
2.4087626e-01 2.5457630e-01 0.0000000e+00 
2.9581064e-01 3.4174213e-01 0.0000000e+00 
3.4302756e-01 2.5211102e-01 0.0000000e+00 
4.4705081e-01 2.5426328e-01 0.0000000e+00 
1.8726690e-01 1.7076795e-01 0.0000000e+00 
9.1374290e-01 4.4999999e-01 0.0000000e+00 
8.1292653e-01 5.1219177e-01 0.0000000e+00 
6.4999998e-01 9.1339743e-01 0.0000000e+00 
9.4903819e-02 6.5753615e-01 0.0000000e+00 
3.4647793e-01 8.5224926e-02 0.0000000e+00 
9.1339743e-01 6.4999998e-01 0.0000000e+00 
8.3004320e-01 4.0203196e-01 0.0000000e+00 
8.3633298e-01 3.0639145e-01 0.0000000e+00 
7.4173015e-01 4.3506145e-01 0.0000000e+00 
9.1635197e-01 2.5751698e-01 0.0000000e+00 
4.4999999e-01 9.1524893e-01 0.0000000e+00 
5.4990965e-01 6.0638523e-01 0.0000000e+00 
3.4897196e-01 4.3124291e-01 0.0000000e+00 
6.5070385e-01 6.0805732e-01 0.0000000e+00 
4.9951929e-01 1.7088418e-01 0.0000000e+00 
6.4682627e-01 4.3563104e-01 0.0000000e+00 
3.9496639e-01 1.7007479e-01 0.0000000e+00 
9.2003214e-01 8.4667110e-01 0.0000000e+00 
8.4628856e-01 8.0417827e-02 0.0000000e+00 
9.0504780e-02 8.4245151e-01 0.0000000e+00 
1.5290669e-01 8.2261533e-02 0.0000000e+00 
7.5581288e-01 2.6161289e-01 0.0000000e+00 
2.9022500e-01 1.7048772e-01 0.0000000e+00 
7.0076448e-01 5.2269316e-01 0.0000000e+00 
8.3802330e-01 7.9983431e-01 0.0000000e+00 
8.4137177e-01 6.0186249e-01 0.0000000e+00 
1.6660626e-01 5.9922481e-01 0.0000000e+00 
3.5146821e-01 7.6715195e-01 0.0000000e+00 
6.7398138e-02 4.4853568e-01 0.0000000e+00 
6.0000002e-01 8.4641016e-01 0.0000000e+00 
6.9999999e-01 8.4641016e-01 0.0000000e+00 
5.0000000e-01 8.4641016e-01 0.0000000e+00 
2.5092945e-01 7.6027036e-01 0.0000000e+00 
4.0000001e-01 8.4656054e-01 0.0000000e+00 
6.1870042e-02 2.5000000e-01 0.0000000e+00 
9.2679495e-01 7.3205084e-02 0.0000000e+00 
7.3205084e-02 7.3205084e-02 0.0000000e+00 
9.2679495e-01 9.2679495e-01 0.0000000e+00 
7.3205084e-02 9.2679495e-01 0.0000000e+00 
1.5420890e-01 7.5578600e-01 0.0000000e+00 
7.7540809e-01 8.4997970e-01 0.0000000e+00 
7.7320510e-01 3.4999999e-01 0.0000000e+00 
8.4417260e-01 2.3009899e-01 0.0000000e+00 

CELLS 246 984
3 82 124 102
3 41 93 91
3 81 106 48
3 90 140 104
3 104 140 49
3 41 129 93
3 102 126 82
3 48 125 81
3 102 124 109
3 54 100 95
3 98 99 68
3 117 123 105
3 95 135 54
3 97 98 68
3 120 140 86
3 46 95 94
3 81 126 106
3 104 127 90
3 97 113 92
3 46 94 93
3 53 120 86
3 116 124 65
3 83 119 52
3 61 99 59
3 68 99 61
3 98 123 117
3 68 113 97
3 94 97 92
3 109 116 73
3 81 125 80
3 128 133 74
3 91 127 41
3 52 143 83
3 109 124 116
3 84 125 118
3 95 96 94
3 99 115 59
3 49 140 120
3 105 123 50
3 96 97 94
3 95 100 96
3 100 121 50
3 87 133 128
3 96 98 97
3 50 123 100
3 28 85 45
3 29 85 28
3 67 71 69
3 71 74 69
3 85 87 45
3 47 88 9
3 41 104 34
3 58 59 57
3 58 60 59
3 7 105 6
3 10 47 9
3 10 55 47
3 35 41 34
3 56 58 57
3 14 110 52
3 16 44 15
3 16 101 44
3 42 101 17
3 19 106 18
3 20 48 19
3 48 106 19
3 23 84 22
3 24 51 23
3 24 103 51
3 26 43 25
3 43 103 25
3 26 111 43
3 53 85 29
3 42 102 101
3 101 107 44
3 108 110 44
3 55 56 47
3 64 112 67
3 65 114 112
3 67 72 71
3 69 89 70
3 74 89 69
3 89 91 70
3 72 76 75
3 72 112 77
3 77 78 76
3 112 114 77
3 8 88 40
3 11 55 10
3 33 49 32
3 6 50 5
3 8 40 7
3 14 52 13
3 37 46 36
3 55 83 56
3 62 63 61
3 64 66 63
3 91 92 70
3 86 87 85
3 39 54 38
3 6 105 50
3 40 105 7
3 15 110 14
3 44 110 15
3 17 101 16
3 27 111 26
3 28 45 27
3 30 53 29
3 33 104 49
3 107 108 44
3 57 88 47
3 64 67 66
3 70 113 66
3 67 112 72
3 72 75 71
3 74 90 89
3 77 114 79
3 93 94 92
3 102 107 101
3 102 109 107
3 9 88 8
3 58 73 60
3 60 61 59
3 63 68 61
3 62 65 64
3 66 113 63
3 77 79 78
3 91 93 92
3 62 64 63
3 63 113 68
3 92 113 70
3 34 104 33
3 56 57 47
3 53 86 85
3 18 42 17
3 51 84 23
3 25 103 24
3 45 111 27
3 60 62 61
3 65 112 64
3 67 69 66
3 79 81 80
3 79 82 81
3 18 106 42
3 69 70 66
3 79 80 78
3 79 114 82
3 72 77 76
3 73 142 109
3 84 141 125
3 88 115 40
3 59 115 57
3 115 117 40
3 98 117 99
3 62 116 65
3 73 116 60
3 57 115 88
3 99 117 115
3 32 120 31
3 55 119 83
3 12 119 11
3 21 118 20
3 58 122 73
3 83 122 56
3 93 129 46
3 5 121 4
3 60 116 62
3 50 121 5
3 65 124 114
3 100 123 96
3 42 126 102
3 82 126 81
3 90 127 89
3 40 117 105
3 46 135 95
3 11 119 55
3 49 120 32
3 20 118 48
3 54 121 100
3 71 128 74
3 35 129 41
3 46 129 36
3 87 134 45
3 56 122 58
3 54 135 38
3 37 135 46
3 1 136 12
3 13 136 1
3 4 137 0
3 0 137 39
3 2 138 21
3 22 138 2
3 3 139 30
3 31 139 3
3 110 143 52
3 109 142 107
3 96 123 98
3 83 143 122
3 114 124 82
3 89 127 91
3 106 126 42
3 41 127 104
3 122 142 73
3 122 143 108
3 118 125 48
3 51 141 84
3 128 134 87
3 75 128 71
3 36 129 35
3 132 134 75
3 43 130 103
3 78 130 76
3 111 132 43
3 86 133 87
3 76 132 75
3 103 131 51
3 78 131 130
3 130 131 103
3 74 133 90
3 80 131 78
3 130 132 76
3 43 132 130
3 111 134 132
3 45 134 111
3 108 142 122
3 12 136 119
3 120 139 31
3 21 138 118
3 38 135 37
3 52 136 13
3 30 139 53
3 39 137 54
3 84 138 22
3 121 137 4
3 107 142 108
3 108 143 110
3 118 138 84
3 53 139 120
3 119 136 52
3 54 137 121
3 75 134 128
3 86 140 133
3 133 140 90
3 125 141 80
3 80 141 131
3 131 141 51

CELL_TYPES 246
5
5
5
5
5
5
5
5
5
5
5
5
5
5
5
5
5
5
5
5
5
5
5
5
5
5
5
5
5
5
5
5
5
5
5
5
5
5
5
5
5
5
5
5
5
5
5
5
5
5
5
5
5
5
5
5
5
5
5
5
5
5
5
5
5
5
5
5
5
5
5
5
5
5
5
5
5
5
5
5
5
5
5
5
5
5
5
5
5
5
5
5
5
5
5
5
5
5
5
5
5
5
5
5
5
5
5
5
5
5
5
5
5
5
5
5
5
5
5
5
5
5
5
5
5
5
5
5
5
5
5
5
5
5
5
5
5
5
5
5
5
5
5
5
5
5
5
5
5
5
5
5
5
5
5
5
5
5
5
5
5
5
5
5
5
5
5
5
5
5
5
5
5
5
5
5
5
5
5
5
5
5
5
5
5
5
5
5
5
5
5
5
5
5
5
5
5
5
5
5
5
5
5
5
5
5
5
5
5
5
5
5
5
5
5
5
5
5
5
5
5
5
5
5
5
5
5
5
5
5
5
5
5
5
5
5
5
5
5
5
5
5
5
5
5
5
POINT_DATA 144
FIELD FieldData 2
DISPLACEMENT 3 144  float
0.0000000e+00 0.0000000e+00 0.0000000e+00 
0.0000000e+00 0.0000000e+00 0.0000000e+00 
0.0000000e+00 -1.6145510e-05 0.0000000e+00 
0.0000000e+00 -1.5960075e-05 0.0000000e+00 
0.0000000e+00 0.0000000e+00 0.0000000e+00 
0.0000000e+00 0.0000000e+00 0.0000000e+00 
0.0000000e+00 0.0000000e+00 0.0000000e+00 
0.0000000e+00 0.0000000e+00 0.0000000e+00 
0.0000000e+00 0.0000000e+00 0.0000000e+00 
0.0000000e+00 0.0000000e+00 0.0000000e+00 
0.0000000e+00 0.0000000e+00 0.0000000e+00 
0.0000000e+00 0.0000000e+00 0.0000000e+00 
0.0000000e+00 0.0000000e+00 0.0000000e+00 
0.0000000e+00 -1.6046006e-06 0.0000000e+00 
0.0000000e+00 -3.2148364e-06 0.0000000e+00 
0.0000000e+00 -4.8334277e-06 0.0000000e+00 
0.0000000e+00 -6.4602718e-06 0.0000000e+00 
0.0000000e+00 -8.0907057e-06 0.0000000e+00 
0.0000000e+00 -9.7195561e-06 0.0000000e+00 
0.0000000e+00 -1.1343628e-05 0.0000000e+00 
0.0000000e+00 -1.2958130e-05 0.0000000e+00 
0.0000000e+00 -1.4559727e-05 0.0000000e+00 
-3.0901639e-08 -1.6132839e-05 0.0000000e+00 
-5.3476818e-08 -1.6110043e-05 0.0000000e+00 
-7.2671810e-08 -1.6091175e-05 0.0000000e+00 
-7.9792358e-08 -1.6065724e-05 0.0000000e+00 
-7.6411823e-08 -1.6025862e-05 0.0000000e+00 
-7.6895361e-08 -1.5998015e-05 0.0000000e+00 
-7.0628303e-08 -1.5974159e-05 0.0000000e+00 
-5.8658575e-08 -1.5959435e-05 0.0000000e+00 
-3.8013301e-08 -1.5956624e-05 0.0000000e+00 
0.0000000e+00 -1.4402412e-05 0.0000000e+00 
0.0000000e+00 -1.2841393e-05 0.0000000e+00 
0.0000000e+00 -1.1274112e-05 0.0000000e+00 
0.0000000e+00 -9.6966833e-06 0.0000000e+00 
0.0000000e+00 -8.1084509e-06 0.0000000e+00 
0.0000000e+00 -6.5143377e-06 0.0000000e+00 
0.0000000e+00 -4.9045320e-06 0.0000000e+00 
0.0000000e+00 -3.2764535e-06 0.0000000e+00 
0.0000000e+00 -1.6392066e-06 0.0000000e+00 
-4.1675484e-08 -1.4158628e-06 0.0000000e+00 
-4.5299707e-08 -8.6815053e-06 0.0000000e+00 
-4.8786177e-08 -8.9172145e-06 0.0000000e+00 
-1.0537827e-07 -1.4695015e-05 0.0000000e+00 
-3.3120831e-08 -5.6571666e-06 0.0000000e+00 
-9.1301359e-08 -1.4686878e-05 0.0000000e+00 
-3.9992653e-08 -5.6878353e-06 0.0000000e+00 
-2.4289825e-08 -1.4211272e-06 0.0000000e+00 
-5.3133348e-08 -1.2126381e-05 0.0000000e+00 
-3.0124326e-08 -1.2074760e-05 0.0000000e+00 
-2.4313739e-08 -1.4027755e-06 0.0000000e+00 
-8.2516429e-08 -1.4842126e-05 0.0000000e+00 
-8.0689029e-09 -2.5530526e-06 0.0000000e+00 
-5.4514661e-08 -1.4642615e-05 0.0000000e+00 
-9.9278612e-09 -2.6620387e-06 0.0000000e+00 
-1.1271205e-08 -1.3996449e-06 0.0000000e+00 
-4.9724161e-08 -2.8235470e-06 0.0000000e+00 
-7.1398070e-08 -2.8558420e-06 0.0000000e+00 
-1.0083838e-07 -4.2592469e-06 0.0000000e+00 
-1.1568669e-07 -4.2557344e-06 0.0000000e+00 
-1.4138949e-07 -5.6792164e-06 0.0000000e+00 
-1.4264981e-07 -5.6861063e-06 0.0000000e+00 
-1.5613905e-07 -7.0775882e-06 0.0000000e+00 
-1.4972154e-07 -7.0713654e-06 0.0000000e+00 
-1.5297412e-07 -8.4617868e-06 0.0000000e+00 
-1.5497606e-07 -8.5008496e-06 0.0000000e+00 
-1.4356846e-07 -8.4501662e-06 0.0000000e+00 
-1.4740488e-07 -9.8345454e-06 0.0000000e+00 
-1.2843614e-07 -5.6062877e-06 0.0000000e+00 
-1.2780131e-07 -9.8134760e-06 0.0000000e+00 
-1.1982776e-07 -8.4314188e-06 0.0000000e+00 
-1.3325108e-07 -1.1169403e-05 0.0000000e+00 
-1.4609947e-07 -1.1211624e-05 0.0000000e+00 
-1.2245567e-07 -5.7125562e-06 0.0000000e+00 
-1.0926650e-07 -1.1090384e-05 0.0000000e+00 
-1.2523277e-07 -1.2517355e-05 0.0000000e+00 
-1.3069540e-07 -1.2591365e-05 0.0000000e+00 
-1.4586159e-07 -1.1233949e-05 0.0000000e+00 
-1.2393787e-07 -1.2610868e-05 0.0000000e+00 
-1.3447389e-07 -1.1247381e-05 0.0000000e+00 
-1.0830614e-07 -1.2605752e-05 0.0000000e+00 
-1.0166831e-07 -1.1306392e-05 0.0000000e+00 
-1.2802876e-07 -9.8353712e-06 0.0000000e+00 
-2.4423112e-08 -2.6681325e-06 0.0000000e+00 
-6.4391180e-08 -1.4634274e-05 0.0000000e+00 
-7.6221966e-08 -1.4630308e-05 0.0000000e+00 
-7.0317583e-08 -1.3417613e-05 0.0000000e+00 
-9.3347261e-08 -1.3491694e-05 0.0000000e+00 
-3.6389782e-08 -1.4248704e-06 0.0000000e+00 
-9.8668032e-08 -9.7649099e-06 0.0000000e+00 
-8.3142616e-08 -1.0910006e-05 0.0000000e+00 
-8.5964977e-08 -8.4180265e-06 0.0000000e+00 
-1.0702774e-07 -7.0147030e-06 0.0000000e+00 
-7.1362493e-08 -7.1028589e-06 0.0000000e+00 
-7.6050348e-08 -5.6190697e-06 0.0000000e+00 
-3.8242316e-08 -4.2199031e-06 0.0000000e+00 
-6.3486070e-08 -4.1577105e-06 0.0000000e+00 
-1.0503837e-07 -5.5795044e-06 0.0000000e+00 
-8.9950035e-08 -4.1330422e-06 0.0000000e+00 
-1.1048411e-07 -4.1852090e-06 0.0000000e+00 
-2.9727252e-08 -2.7902377e-06 0.0000000e+00 
-4.3908642e-08 -7.2882872e-06 0.0000000e+00 
-1.0090193e-07 -8.3326922e-06 0.0000000e+00 
-1.0056654e-07 -1.4723409e-05 0.0000000e+00 
-4.4897231e-08 -1.0604271e-05 0.0000000e+00 
-3.7092914e-08 -1.4061728e-06 0.0000000e+00 
-5.3045106e-08 -1.0543646e-05 0.0000000e+00 
-7.9416296e-08 -6.5333220e-06 0.0000000e+00 
-5.4686840e-08 -4.9693085e-06 0.0000000e+00 
-1.2357479e-07 -7.1040049e-06 0.0000000e+00 
-1.8983981e-08 -4.1521466e-06 0.0000000e+00 
-9.8017473e-08 -1.4687142e-05 0.0000000e+00 
-1.5311559e-07 -9.8535584e-06 0.0000000e+00 
-1.3434492e-07 -7.0307469e-06 0.0000000e+00 
-1.4980624e-07 -9.8961091e-06 0.0000000e+00 
-8.0317484e-08 -2.8243624e-06 0.0000000e+00 
-1.5017102e-07 -7.1330214e-06 0.0000000e+00 
-7.3933322e-08 -2.8038521e-06 0.0000000e+00 
-4.3223881e-08 -1.3708490e-05 0.0000000e+00 
-2.8970437e-09 -1.2970438e-06 0.0000000e+00 
-3.8665604e-08 -1.3507455e-05 0.0000000e+00 
-1.0750885e-08 -1.3466047e-06 0.0000000e+00 
-6.8929666e-08 -4.2664892e-06 0.0000000e+00 
-5.3827534e-08 -2.7951976e-06 0.0000000e+00 
-1.4217622e-07 -8.5300244e-06 0.0000000e+00 
-8.0603662e-08 -1.2957936e-05 0.0000000e+00 
-9.0833304e-08 -9.7778975e-06 0.0000000e+00 
-7.2185301e-08 -9.6811336e-06 0.0000000e+00 
-1.0954214e-07 -1.2344469e-05 0.0000000e+00 
-3.5527592e-08 -7.2882199e-06 0.0000000e+00 
-1.1874541e-07 -1.3658488e-05 0.0000000e+00 
-1.0657436e-07 -1.3676430e-05 0.0000000e+00 
-1.1796655e-07 -1.3629336e-05 0.0000000e+00 
-8.9200846e-08 -1.2222557e-05 0.0000000e+00 
-1.0606843e-07 -1.3599886e-05 0.0000000e+00 
-1.6515791e-08 -4.0891141e-06 0.0000000e+00 
-3.7448095e-10 -1.1767864e-06 0.0000000e+00 
-3.3605831e-09 -1.1987582e-06 0.0000000e+00 
-3.1833551e-08 -1.4981404e-05 0.0000000e+00 
-2.8252877e-08 -1.4821210e-05 0.0000000e+00 
-6.1156520e-08 -1.2147253e-05 0.0000000e+00 
-9.1708117e-08 -1.3745375e-05 0.0000000e+00 
-9.2399354e-08 -5.7058314e-06 0.0000000e+00 
-3.1914752e-08 -3.7231450e-06 0.0000000e+00 
VELOCITY 3 144  float
0.0000000e+00 0.0000000e+00 0.0000000e+00 
0.0000000e+00 0.0000000e+00 0.0000000e+00 
0.0000000e+00 1.2701128e-05 0.0000000e+00 
0.0000000e+00 2.2331858e-05 0.0000000e+00 
0.0000000e+00 0.0000000e+00 0.0000000e+00 
0.0000000e+00 0.0000000e+00 0.0000000e+00 
0.0000000e+00 0.0000000e+00 0.0000000e+00 
0.0000000e+00 0.0000000e+00 0.0000000e+00 
0.0000000e+00 0.0000000e+00 0.0000000e+00 
0.0000000e+00 0.0000000e+00 0.0000000e+00 
0.0000000e+00 0.0000000e+00 0.0000000e+00 
0.0000000e+00 0.0000000e+00 0.0000000e+00 
0.0000000e+00 0.0000000e+00 0.0000000e+00 
0.0000000e+00 1.0023246e-05 0.0000000e+00 
0.0000000e+00 1.9021340e-05 0.0000000e+00 
0.0000000e+00 2.0953048e-05 0.0000000e+00 
0.0000000e+00 1.5058848e-05 0.0000000e+00 
0.0000000e+00 7.1319864e-06 0.0000000e+00 
0.0000000e+00 -1.2557614e-06 0.0000000e+00 
0.0000000e+00 -6.7991382e-06 0.0000000e+00 
0.0000000e+00 -6.2933354e-06 0.0000000e+00 
0.0000000e+00 -9.9285683e-07 0.0000000e+00 
6.2244028e-05 -5.1067051e-05 0.0000000e+00 
1.0023882e-04 -1.0979454e-04 0.0000000e+00 
1.2365906e-04 -1.8078170e-04 0.0000000e+00 
1.6161776e-04 -2.0644393e-04 0.0000000e+00 
1.8855934e-04 -2.0323542e-04 0.0000000e+00 
1.9548807e-04 -2.0240167e-04 0.0000000e+00 
2.0734087e-04 -1.4334967e-04 0.0000000e+00 
1.6476928e-04 -1.2485123e-04 0.0000000e+00 
1.2262537e-04 -6.1339459e-05 0.0000000e+00 
0.0000000e+00 3.5288900e-05 0.0000000e+00 
0.0000000e+00 4.4091179e-05 0.0000000e+00 
0.0000000e+00 4.2331230e-05 0.0000000e+00 
0.0000000e+00 3.7441248e-05 0.0000000e+00 
0.0000000e+00 3.2175751e-05 0.0000000e+00 
0.0000000e+00 2.8112998e-05 0.0000000e+00 
0.0000000e+00 1.5763066e-05 0.0000000e+00 
0.0000000e+00 5.8338537e-06 0.0000000e+00 
0.0000000e+00 3.0481815e-06 0.0000000e+00 
4.8082434e-06 -2.3279381e-06 0.0000000e+00 
8.9466710e-07 2.4098799e-05 0.0000000e+00 
1.3204166e-05 -1.7831368e-05 0.0000000e+00 
1.4144871e-04 -1.7770025e-04 0.0000000e+00 
6.9083480e-06 1.7868297e-06 0.0000000e+00 
1.4563104e-04 -1.4440200e-04 0.0000000e+00 
-6.4008141e-06 1.5716911e-05 0.0000000e+00 
8.8269453e-06 -7.1212121e-06 0.0000000e+00 
3.5900692e-05 -2.9576706e-05 0.0000000e+00 
1.2395204e-05 2.8138847e-05 0.0000000e+00 
3.2177945e-06 7.8300531e-07 0.0000000e+00 
1.1312363e-04 -1.2099856e-04 0.0000000e+00 
1.2998941e-05 6.7054598e-06 0.0000000e+00 
9.2029557e-05 -4.1428066e-05 0.0000000e+00 
2.9844870e-07 5.4797483e-06 0.0000000e+00 
1.2494910e-05 -3.4324414e-06 0.0000000e+00 
1.1358135e-05 -1.5887206e-05 0.0000000e+00 
5.2530331e-06 -1.9562525e-05 0.0000000e+00 
1.8991750e-06 -3.3312510e-05 0.0000000e+00 
8.8921644e-07 -2.5906249e-05 0.0000000e+00 
4.1692592e-06 -4.1861145e-05 0.0000000e+00 
2.3188913e-06 -3.1238455e-05 0.0000000e+00 
1.5410962e-05 -4.9957038e-05 0.0000000e+00 
6.6956532e-06 -4.2791402e-05 0.0000000e+00 
1.6227656e-05 -6.8199559e-05 0.0000000e+00 
2.4702995e-05 -7.0600254e-05 0.0000000e+00 
1.0746295e-05 -5.0560302e-05 0.0000000e+00 
1.9090188e-05 -8.0690887e-05 0.0000000e+00 
-7.9030933e-06 -2.7591084e-05 0.0000000e+00 
1.4995547e-05 -5.0657291e-05 0.0000000e+00 
9.5081077e-06 -2.4498249e-05 0.0000000e+00 
4.6901656e-05 -8.2325481e-05 0.0000000e+00 
5.3088082e-05 -1.1255944e-04 0.0000000e+00 
4.7932549e-06 -4.2328986e-05 0.0000000e+00 
2.8225288e-05 -5.5597884e-05 0.0000000e+00 
8.7825581e-05 -1.1821325e-04 0.0000000e+00 
8.5206870e-05 -1.4405856e-04 0.0000000e+00 
6.1121704e-05 -1.1517511e-04 0.0000000e+00 
8.7110893e-05 -1.2565113e-04 0.0000000e+00 
7.2794792e-05 -7.8384306e-05 0.0000000e+00 
8.4173073e-05 -8.4453837e-05 0.0000000e+00 
5.6246743e-05 -5.6111308e-05 0.0000000e+00 
3.8761871e-05 -5.6849534e-05 0.0000000e+00 
1.5782467e-05 -5.7984525e-06 0.0000000e+00 
8.6826643e-05 -6.2734551e-05 0.0000000e+00 
1.4056184e-04 -8.0551334e-05 0.0000000e+00 
7.2829498e-05 -2.9650331e-05 0.0000000e+00 
9.2569950e-05 -9.2873772e-05 0.0000000e+00 
4.8155844e-06 -6.9660655e-06 0.0000000e+00 
3.7616996e-06 -2.5586260e-05 0.0000000e+00 
1.5569280e-05 -1.1321650e-05 0.0000000e+00 
4.6715181e-06 -1.0907320e-06 0.0000000e+00 
-1.1462802e-06 -1.0186485e-05 0.0000000e+00 
8.2200398e-07 1.2225260e-05 0.0000000e+00 
-1.2527787e-05 -1.4280610e-06 0.0000000e+00 
-9.6691056e-06 3.9605379e-06 0.0000000e+00 
-1.2012984e-05 -7.8648682e-06 0.0000000e+00 
-1.5364047e-05 -2.0770587e-05 0.0000000e+00 
-8.3673231e-06 -1.5171094e-05 0.0000000e+00 
-8.5854481e-07 -1.5649550e-05 0.0000000e+00 
-8.9034205e-07 1.9834988e-06 0.0000000e+00 
8.9132736e-06 -7.8954499e-06 0.0000000e+00 
1.9419636e-05 -4.0706371e-05 0.0000000e+00 
1.2013807e-04 -1.7571183e-04 0.0000000e+00 
7.2970183e-06 2.9602668e-05 0.0000000e+00 
4.4100320e-06 -7.0123127e-07 0.0000000e+00 
2.1060927e-05 -2.7751164e-05 0.0000000e+00 
9.1828160e-06 -2.6078653e-05 0.0000000e+00 
7.7563773e-06 -1.4304618e-05 0.0000000e+00 
1.5195746e-05 -4.3831686e-05 0.0000000e+00 
9.6672275e-06 9.1114216e-06 0.0000000e+00 
1.5151055e-04 -1.6921682e-04 0.0000000e+00 
2.5054092e-05 -9.8722354e-05 0.0000000e+00 
-1.7485805e-06 -3.2258409e-05 0.0000000e+00 
3.8883481e-05 -8.0505502e-05 0.0000000e+00 
4.7258559e-06 -1.0711265e-05 0.0000000e+00 
1.8051554e-05 -5.2245425e-05 0.0000000e+00 
3.5504513e-06 -5.7531497e-06 0.0000000e+00 
4.6025289e-05 -2.6858374e-05 0.0000000e+00 
1.1815636e-05 5.9954863e-07 0.0000000e+00 
2.8424241e-05 1.2837151e-05 0.0000000e+00 
3.2699102e-06 3.4885529e-06 0.0000000e+00 
7.7142831e-06 -2.3281724e-05 0.0000000e+00 
-2.0045570e-07 -4.7362678e-06 0.0000000e+00 
2.9063625e-05 -5.5901572e-05 0.0000000e+00 
6.3479114e-05 -6.0522674e-05 0.0000000e+00 
2.6449563e-05 -4.3912001e-05 0.0000000e+00 
6.0377965e-07 2.7623109e-06 0.0000000e+00 
7.0002468e-05 -9.0820664e-05 0.0000000e+00 
2.3168111e-06 2.5387542e-05 0.0000000e+00 
9.7189622e-05 -1.6573649e-04 0.0000000e+00 
9.7478493e-05 -1.2847965e-04 0.0000000e+00 
1.1204601e-04 -1.5272273e-04 0.0000000e+00 
5.3683929e-05 -4.2017036e-05 0.0000000e+00 
1.0730736e-04 -1.3402796e-04 0.0000000e+00 
-5.0796175e-06 8.7149210e-06 0.0000000e+00 
6.8246363e-06 3.2698399e-06 0.0000000e+00 
2.2934123e-06 3.7024781e-06 0.0000000e+00 
4.8006601e-05 -2.8617540e-05 0.0000000e+00 
4.9460141e-05 3.6766248e-06 0.0000000e+00 
3.7260670e-05 1.0539140e-05 0.0000000e+00 
9.1234921e-05 -8.9438028e-05 0.0000000e+00 
6.2236336e-06 -3.1331972e-05 0.0000000e+00 
1.2939494e-05 -4.4470275e-06 0.0000000e+00 
CELL_DATA 246
FIELD FieldData 0
