# vtk DataFile Version 4.0
vtk output
ASCII
DATASET UNSTRUCTURED_GRID
POINTS 144 float
0.0000000e+00 0.0000000e+00 0.0000000e+00 
1.0000000e+00 0.0000000e+00 0.0000000e+00 
1.0000000e+00 1.0000000e+00 0.0000000e+00 
0.0000000e+00 1.0000000e+00 0.0000000e+00 
1.0000000e-01 0.0000000e+00 0.0000000e+00 
2.0000000e-01 0.0000000e+00 0.0000000e+00 
3.0000001e-01 0.0000000e+00 0.0000000e+00 
4.0000001e-01 0.0000000e+00 0.0000000e+00 
5.0000000e-01 0.0000000e+00 0.0000000e+00 
6.0000002e-01 0.0000000e+00 0.0000000e+00 
6.9999999e-01 0.0000000e+00 0.0000000e+00 
8.0000001e-01 0.0000000e+00 0.0000000e+00 
8.9999998e-01 0.0000000e+00 0.0000000e+00 
1.0000000e+00 1.0000000e-01 0.0000000e+00 
1.0000000e+00 2.0000000e-01 0.0000000e+00 
1.0000000e+00 3.0000001e-01 0.0000000e+00 
1.0000000e+00 4.0000001e-01 0.0000000e+00 
1.0000000e+00 5.0000000e-01 0.0000000e+00 
1.0000000e+00 6.0000002e-01 0.0000000e+00 
1.0000000e+00 6.9999999e-01 0.0000000e+00 
1.0000000e+00 8.0000001e-01 0.0000000e+00 
1.0000000e+00 8.9999998e-01 0.0000000e+00 
8.9999998e-01 1.0000000e+00 0.0000000e+00 
8.0000001e-01 1.0000000e+00 0.0000000e+00 
6.9999999e-01 1.0000000e+00 0.0000000e+00 
6.0000002e-01 1.0000000e+00 0.0000000e+00 
5.0000000e-01 1.0000000e+00 0.0000000e+00 
4.0000001e-01 1.0000000e+00 0.0000000e+00 
3.0000001e-01 1.0000000e+00 0.0000000e+00 
2.0000000e-01 1.0000000e+00 0.0000000e+00 
1.0000000e-01 1.0000000e+00 0.0000000e+00 
0.0000000e+00 8.9999998e-01 0.0000000e+00 
0.0000000e+00 8.0000001e-01 0.0000000e+00 
0.0000000e+00 6.9999999e-01 0.0000000e+00 
0.0000000e+00 6.0000002e-01 0.0000000e+00 
0.0000000e+00 5.0000000e-01 0.0000000e+00 
0.0000000e+00 4.0000001e-01 0.0000000e+00 
0.0000000e+00 3.0000001e-01 0.0000000e+00 
0.0000000e+00 2.0000000e-01 0.0000000e+00 
0.0000000e+00 1.0000000e-01 0.0000000e+00 
4.5033512e-01 8.5524812e-02 0.0000000e+00 
9.5000088e-02 5.3608972e-01 0.0000000e+00 
9.1547006e-01 5.5000001e-01 0.0000000e+00 
5.5000001e-01 9.1339743e-01 0.0000000e+00 
9.1339743e-01 3.4999999e-01 0.0000000e+00 
3.4999999e-01 9.1669172e-01 0.0000000e+00 
8.8579953e-02 3.4872410e-01 0.0000000e+00 
6.4999998e-01 8.6602539e-02 0.0000000e+00 
9.1127491e-01 7.4795848e-01 0.0000000e+00 
6.6607341e-02 7.5098073e-01 0.0000000e+00 
2.4514475e-01 8.5484609e-02 0.0000000e+00 
7.4680746e-01 9.1993588e-01 0.0000000e+00 
9.0420872e-01 1.5861149e-01 0.0000000e+00 
1.5042374e-01 9.1532278e-01 0.0000000e+00 
8.7588154e-02 1.6267365e-01 0.0000000e+00 
7.4918270e-01 8.6130671e-02 0.0000000e+00 
6.9882751e-01 1.7252813e-01 0.0000000e+00 
6.0000002e-01 1.7320508e-01 0.0000000e+00 
6.4876831e-01 2.5909650e-01 0.0000000e+00 
5.4933882e-01 2.5818285e-01 0.0000000e+00 
5.9902751e-01 3.4564152e-01 0.0000000e+00 
5.0000000e-01 3.4641016e-01 0.0000000e+00 
5.4918092e-01 4.3250528e-01 0.0000000e+00 
4.4986349e-01 4.3292814e-01 0.0000000e+00 
4.9984074e-01 5.1951659e-01 0.0000000e+00 
5.9917998e-01 5.2102238e-01 0.0000000e+00 
3.9995071e-01 5.1958472e-01 0.0000000e+00 
4.4996524e-01 6.0619622e-01 0.0000000e+00 
3.9827734e-01 3.4236532e-01 0.0000000e+00 
3.4998599e-01 6.0620910e-01 0.0000000e+00 
2.9998946e-01 5.1960868e-01 0.0000000e+00 
4.0246150e-01 6.9138944e-01 0.0000000e+00 
5.0040448e-01 6.9257826e-01 0.0000000e+00 
6.9183892e-01 3.4861544e-01 0.0000000e+00 
3.0287755e-01 6.8788534e-01 0.0000000e+00 
4.5107409e-01 7.7642798e-01 0.0000000e+00 
5.5000001e-01 7.7942288e-01 0.0000000e+00 
6.0006744e-01 6.9277996e-01 0.0000000e+00 
6.4999998e-01 7.7942288e-01 0.0000000e+00 
7.0001125e-01 6.9281358e-01 0.0000000e+00 
7.4810976e-01 7.7827942e-01 0.0000000e+00 
8.1429243e-01 6.9644338e-01 0.0000000e+00 
7.5505483e-01 6.0440248e-01 0.0000000e+00 
7.9754496e-01 1.6455974e-01 0.0000000e+00 
8.4409988e-01 9.0543878e-01 0.0000000e+00 
2.5007063e-01 9.1426742e-01 0.0000000e+00 
1.9948809e-01 8.3684945e-01 0.0000000e+00 
3.0239609e-01 8.4084076e-01 0.0000000e+00 
5.5039096e-01 8.6229436e-02 0.0000000e+00 
2.5227043e-01 6.0435647e-01 0.0000000e+00 
2.0253047e-01 6.7697614e-01 0.0000000e+00 
2.0000000e-01 5.1961523e-01 0.0000000e+00 
2.4994016e-01 4.3122852e-01 0.0000000e+00 
1.5013675e-01 4.3705931e-01 0.0000000e+00 
1.9500943e-01 3.4477931e-01 0.0000000e+00 
1.4187421e-01 2.5843257e-01 0.0000000e+00 
2.4087626e-01 2.5457630e-01 0.0000000e+00 
2.9581064e-01 3.4174213e-01 0.0000000e+00 
3.4302756e-01 2.5211102e-01 0.0000000e+00 
4.4705081e-01 2.5426328e-01 0.0000000e+00 
1.8726690e-01 1.7076795e-01 0.0000000e+00 
9.1374290e-01 4.4999999e-01 0.0000000e+00 
8.1292653e-01 5.1219177e-01 0.0000000e+00 
6.4999998e-01 9.1339743e-01 0.0000000e+00 
9.4903819e-02 6.5753615e-01 0.0000000e+00 
3.4647793e-01 8.5224926e-02 0.0000000e+00 
9.1339743e-01 6.4999998e-01 0.0000000e+00 
8.3004320e-01 4.0203196e-01 0.0000000e+00 
8.3633298e-01 3.0639145e-01 0.0000000e+00 
7.4173015e-01 4.3506145e-01 0.0000000e+00 
9.1635197e-01 2.5751698e-01 0.0000000e+00 
4.4999999e-01 9.1524893e-01 0.0000000e+00 
5.4990965e-01 6.0638523e-01 0.0000000e+00 
3.4897196e-01 4.3124291e-01 0.0000000e+00 
6.5070385e-01 6.0805732e-01 0.0000000e+00 
4.9951929e-01 1.7088418e-01 0.0000000e+00 
6.4682627e-01 4.3563104e-01 0.0000000e+00 
3.9496639e-01 1.7007479e-01 0.0000000e+00 
9.2003214e-01 8.4667110e-01 0.0000000e+00 
8.4628856e-01 8.0417827e-02 0.0000000e+00 
9.0504780e-02 8.4245151e-01 0.0000000e+00 
1.5290669e-01 8.2261533e-02 0.0000000e+00 
7.5581288e-01 2.6161289e-01 0.0000000e+00 
2.9022500e-01 1.7048772e-01 0.0000000e+00 
7.0076448e-01 5.2269316e-01 0.0000000e+00 
8.3802330e-01 7.9983431e-01 0.0000000e+00 
8.4137177e-01 6.0186249e-01 0.0000000e+00 
1.6660626e-01 5.9922481e-01 0.0000000e+00 
3.5146821e-01 7.6715195e-01 0.0000000e+00 
6.7398138e-02 4.4853568e-01 0.0000000e+00 
6.0000002e-01 8.4641016e-01 0.0000000e+00 
6.9999999e-01 8.4641016e-01 0.0000000e+00 
5.0000000e-01 8.4641016e-01 0.0000000e+00 
2.5092945e-01 7.6027036e-01 0.0000000e+00 
4.0000001e-01 8.4656054e-01 0.0000000e+00 
6.1870042e-02 2.5000000e-01 0.0000000e+00 
9.2679495e-01 7.3205084e-02 0.0000000e+00 
7.3205084e-02 7.3205084e-02 0.0000000e+00 
9.2679495e-01 9.2679495e-01 0.0000000e+00 
7.3205084e-02 9.2679495e-01 0.0000000e+00 
1.5420890e-01 7.5578600e-01 0.0000000e+00 
7.7540809e-01 8.4997970e-01 0.0000000e+00 
7.7320510e-01 3.4999999e-01 0.0000000e+00 
8.4417260e-01 2.3009899e-01 0.0000000e+00 

CELLS 246 984
3 82 124 102
3 41 93 91
3 81 106 48
3 90 140 104
3 104 140 49
3 41 129 93
3 102 126 82
3 48 125 81
3 102 124 109
3 54 100 95
3 98 99 68
3 117 123 105
3 95 135 54
3 97 98 68
3 120 140 86
3 46 95 94
3 81 126 106
3 104 127 90
3 97 113 92
3 46 94 93
3 53 120 86
3 116 124 65
3 83 119 52
3 61 99 59
3 68 99 61
3 98 123 117
3 68 113 97
3 94 97 92
3 109 116 73
3 81 125 80
3 128 133 74
3 91 127 41
3 52 143 83
3 109 124 116
3 84 125 118
3 95 96 94
3 99 115 59
3 49 140 120
3 105 123 50
3 96 97 94
3 95 100 96
3 100 121 50
3 87 133 128
3 96 98 97
3 50 123 100
3 28 85 45
3 29 85 28
3 67 71 69
3 71 74 69
3 85 87 45
3 47 88 9
3 41 104 34
3 58 59 57
3 58 60 59
3 7 105 6
3 10 47 9
3 10 55 47
3 35 41 34
3 56 58 57
3 14 110 52
3 16 44 15
3 16 101 44
3 42 101 17
3 19 106 18
3 20 48 19
3 48 106 19
3 23 84 22
3 24 51 23
3 24 103 51
3 26 43 25
3 43 103 25
3 26 111 43
3 53 85 29
3 42 102 101
3 101 107 44
3 108 110 44
3 55 56 47
3 64 112 67
3 65 114 112
3 67 72 71
3 69 89 70
3 74 89 69
3 89 91 70
3 72 76 75
3 72 112 77
3 77 78 76
3 112 114 77
3 8 88 40
3 11 55 10
3 33 49 32
3 6 50 5
3 8 40 7
3 14 52 13
3 37 46 36
3 55 83 56
3 62 63 61
3 64 66 63
3 91 92 70
3 86 87 85
3 39 54 38
3 6 105 50
3 40 105 7
3 15 110 14
3 44 110 15
3 17 101 16
3 27 111 26
3 28 45 27
3 30 53 29
3 33 104 49
3 107 108 44
3 57 88 47
3 64 67 66
3 70 113 66
3 67 112 72
3 72 75 71
3 74 90 89
3 77 114 79
3 93 94 92
3 102 107 101
3 102 109 107
3 9 88 8
3 58 73 60
3 60 61 59
3 63 68 61
3 62 65 64
3 66 113 63
3 77 79 78
3 91 93 92
3 62 64 63
3 63 113 68
3 92 113 70
3 34 104 33
3 56 57 47
3 53 86 85
3 18 42 17
3 51 84 23
3 25 103 24
3 45 111 27
3 60 62 61
3 65 112 64
3 67 69 66
3 79 81 80
3 79 82 81
3 18 106 42
3 69 70 66
3 79 80 78
3 79 114 82
3 72 77 76
3 73 142 109
3 84 141 125
3 88 115 40
3 59 115 57
3 115 117 40
3 98 117 99
3 62 116 65
3 73 116 60
3 57 115 88
3 99 117 115
3 32 120 31
3 55 119 83
3 12 119 11
3 21 118 20
3 58 122 73
3 83 122 56
3 93 129 46
3 5 121 4
3 60 116 62
3 50 121 5
3 65 124 114
3 100 123 96
3 42 126 102
3 82 126 81
3 90 127 89
3 40 117 105
3 46 135 95
3 11 119 55
3 49 120 32
3 20 118 48
3 54 121 100
3 71 128 74
3 35 129 41
3 46 129 36
3 87 134 45
3 56 122 58
3 54 135 38
3 37 135 46
3 1 136 12
3 13 136 1
3 4 137 0
3 0 137 39
3 2 138 21
3 22 138 2
3 3 139 30
3 31 139 3
3 110 143 52
3 109 142 107
3 96 123 98
3 83 143 122
3 114 124 82
3 89 127 91
3 106 126 42
3 41 127 104
3 122 142 73
3 122 143 108
3 118 125 48
3 51 141 84
3 128 134 87
3 75 128 71
3 36 129 35
3 132 134 75
3 43 130 103
3 78 130 76
3 111 132 43
3 86 133 87
3 76 132 75
3 103 131 51
3 78 131 130
3 130 131 103
3 74 133 90
3 80 131 78
3 130 132 76
3 43 132 130
3 111 134 132
3 45 134 111
3 108 142 122
3 12 136 119
3 120 139 31
3 21 138 118
3 38 135 37
3 52 136 13
3 30 139 53
3 39 137 54
3 84 138 22
3 121 137 4
3 107 142 108
3 108 143 110
3 118 138 84
3 53 139 120
3 119 136 52
3 54 137 121
3 75 134 128
3 86 140 133
3 133 140 90
3 125 141 80
3 80 141 131
3 131 141 51

CELL_TYPES 246
5
5
5
5
5
5
5
5
5
5
5
5
5
5
5
5
5
5
5
5
5
5
5
5
5
5
5
5
5
5
5
5
5
5
5
5
5
5
5
5
5
5
5
5
5
5
5
5
5
5
5
5
5
5
5
5
5
5
5
5
5
5
5
5
5
5
5
5
5
5
5
5
5
5
5
5
5
5
5
5
5
5
5
5
5
5
5
5
5
5
5
5
5
5
5
5
5
5
5
5
5
5
5
5
5
5
5
5
5
5
5
5
5
5
5
5
5
5
5
5
5
5
5
5
5
5
5
5
5
5
5
5
5
5
5
5
5
5
5
5
5
5
5
5
5
5
5
5
5
5
5
5
5
5
5
5
5
5
5
5
5
5
5
5
5
5
5
5
5
5
5
5
5
5
5
5
5
5
5
5
5
5
5
5
5
5
5
5
5
5
5
5
5
5
5
5
5
5
5
5
5
5
5
5
5
5
5
5
5
5
5
5
5
5
5
5
5
5
5
5
5
5
5
5
5
5
5
5
5
5
5
5
5
5
5
5
5
5
5
5
5
5
5
5
5
5
POINT_DATA 144
FIELD FieldData 2
DISPLACEMENT 3 144  float
0.0000000e+00 0.0000000e+00 0.0000000e+00 
0.0000000e+00 0.0000000e+00 0.0000000e+00 
0.0000000e+00 -1.5838199e-05 0.0000000e+00 
0.0000000e+00 -1.5548132e-05 0.0000000e+00 
0.0000000e+00 0.0000000e+00 0.0000000e+00 
0.0000000e+00 0.0000000e+00 0.0000000e+00 
0.0000000e+00 0.0000000e+00 0.0000000e+00 
0.0000000e+00 0.0000000e+00 0.0000000e+00 
0.0000000e+00 0.0000000e+00 0.0000000e+00 
0.0000000e+00 0.0000000e+00 0.0000000e+00 
0.0000000e+00 0.0000000e+00 0.0000000e+00 
0.0000000e+00 0.0000000e+00 0.0000000e+00 
0.0000000e+00 0.0000000e+00 0.0000000e+00 
0.0000000e+00 -1.5987545e-06 0.0000000e+00 
0.0000000e+00 -3.1973489e-06 0.0000000e+00 
0.0000000e+00 -4.7882022e-06 0.0000000e+00 
0.0000000e+00 -6.3703151e-06 0.0000000e+00 
0.0000000e+00 -7.9476749e-06 0.0000000e+00 
0.0000000e+00 -9.5226096e-06 0.0000000e+00 
0.0000000e+00 -1.1098442e-05 0.0000000e+00 
0.0000000e+00 -1.2677621e-05 0.0000000e+00 
0.0000000e+00 -1.4258774e-05 0.0000000e+00 
-3.9142133e-08 -1.5848431e-05 0.0000000e+00 
-6.1825617e-08 -1.5855721e-05 0.0000000e+00 
-6.6286532e-08 -1.5843303e-05 0.0000000e+00 
-6.5802297e-08 -1.5831054e-05 0.0000000e+00 
-4.8458102e-08 -1.5802649e-05 0.0000000e+00 
-2.0031703e-08 -1.5750111e-05 0.0000000e+00 
3.4066703e-09 -1.5694042e-05 0.0000000e+00 
2.6225509e-08 -1.5620206e-05 0.0000000e+00 
2.2570061e-08 -1.5571684e-05 0.0000000e+00 
0.0000000e+00 -1.3985685e-05 0.0000000e+00 
0.0000000e+00 -1.2442013e-05 0.0000000e+00 
0.0000000e+00 -1.0905536e-05 0.0000000e+00 
0.0000000e+00 -9.3664403e-06 0.0000000e+00 
0.0000000e+00 -7.8212361e-06 0.0000000e+00 
0.0000000e+00 -6.2713675e-06 0.0000000e+00 
0.0000000e+00 -4.7118829e-06 0.0000000e+00 
0.0000000e+00 -3.1473958e-06 0.0000000e+00 
0.0000000e+00 -1.5788743e-06 0.0000000e+00 
-2.8717131e-09 -1.3471408e-06 0.0000000e+00 
-2.4351655e-08 -8.3930581e-06 0.0000000e+00 
-9.5939345e-09 -8.7319577e-06 0.0000000e+00 
-8.1946460e-08 -1.4469888e-05 0.0000000e+00 
-6.5590773e-09 -5.5722849e-06 0.0000000e+00 
-4.7796725e-08 -1.4429829e-05 0.0000000e+00 
-1.5587839e-08 -5.4804509e-06 0.0000000e+00 
-7.1818240e-09 -1.3637655e-06 0.0000000e+00 
-2.2152349e-08 -1.1862047e-05 0.0000000e+00 
-1.6551637e-08 -1.1700677e-05 0.0000000e+00 
-1.3262068e-08 -1.3556047e-06 0.0000000e+00 
-7.3241715e-08 -1.4596922e-05 0.0000000e+00 
-1.3090609e-08 -2.5323352e-06 0.0000000e+00 
-6.5078223e-09 -1.4276315e-05 0.0000000e+00 
-1.4430605e-08 -2.5694226e-06 0.0000000e+00 
-1.2643924e-08 -1.3646071e-06 0.0000000e+00 
-7.6009048e-09 -2.7203916e-06 0.0000000e+00 
-1.0484632e-09 -2.7210835e-06 0.0000000e+00 
1.2434522e-09 -4.0766517e-06 0.0000000e+00 
-3.3545549e-09 -4.0646783e-06 0.0000000e+00 
-1.0022164e-08 -5.4497505e-06 0.0000000e+00 
-2.4215366e-08 -5.4733050e-06 0.0000000e+00 
-3.8954887e-08 -6.8400968e-06 0.0000000e+00 
-5.1375110e-08 -6.8525446e-06 0.0000000e+00 
-6.3259918e-08 -8.2267925e-06 0.0000000e+00 
-5.0364189e-08 -8.2503057e-06 0.0000000e+00 
-7.1548214e-08 -8.2241268e-06 0.0000000e+00 
-8.1255337e-08 -9.6002050e-06 0.0000000e+00 
-3.3740456e-08 -5.4159973e-06 0.0000000e+00 
-8.0174260e-08 -9.5793794e-06 0.0000000e+00 
-6.8279583e-08 -8.2045071e-06 0.0000000e+00 
-9.3710213e-08 -1.0937300e-05 0.0000000e+00 
-9.2832764e-08 -1.0975456e-05 0.0000000e+00 
-2.8218063e-09 -5.4989296e-06 0.0000000e+00 
-7.7709856e-08 -1.0836733e-05 0.0000000e+00 
-9.6513460e-08 -1.2291404e-05 0.0000000e+00 
-9.2080228e-08 -1.2356708e-05 0.0000000e+00 
-8.3798312e-08 -1.0989100e-05 0.0000000e+00 
-8.2606483e-08 -1.2369743e-05 0.0000000e+00 
-6.9811641e-08 -1.0998672e-05 0.0000000e+00 
-6.6484823e-08 -1.2356469e-05 0.0000000e+00 
-4.1522220e-08 -1.1049407e-05 0.0000000e+00 
-3.8482334e-08 -9.5841515e-06 0.0000000e+00 
-1.4799570e-08 -2.6119851e-06 0.0000000e+00 
-5.3887341e-08 -1.4366244e-05 0.0000000e+00 
-2.9457315e-08 -1.4329526e-05 0.0000000e+00 
-3.9805808e-08 -1.3094566e-05 0.0000000e+00 
-6.1123508e-08 -1.3220641e-05 0.0000000e+00 
-1.9816540e-09 -1.3544162e-06 0.0000000e+00 
-6.3378330e-08 -9.5091973e-06 0.0000000e+00 
-5.5802531e-08 -1.0616892e-05 0.0000000e+00 
-5.0067086e-08 -8.1703165e-06 0.0000000e+00 
-5.1012989e-08 -6.8047630e-06 0.0000000e+00 
-3.5003847e-08 -6.8710137e-06 0.0000000e+00 
-3.1347589e-08 -5.4378506e-06 0.0000000e+00 
-2.0819169e-08 -4.0772629e-06 0.0000000e+00 
-2.7244964e-08 -4.0260043e-06 0.0000000e+00 
-3.6503319e-08 -5.4023049e-06 0.0000000e+00 
-2.4262985e-08 -3.9884835e-06 0.0000000e+00 
-1.5019644e-08 -4.0158743e-06 0.0000000e+00 
-2.3075222e-08 -2.7043529e-06 0.0000000e+00 
-6.8839490e-09 -7.1524155e-06 0.0000000e+00 
-1.5259058e-08 -8.1177359e-06 0.0000000e+00 
-7.9527105e-08 -1.4481669e-05 0.0000000e+00 
-2.7137524e-08 -1.0270266e-05 0.0000000e+00 
-8.2645579e-09 -1.3478974e-06 0.0000000e+00 
-1.5003289e-08 -1.0310963e-05 0.0000000e+00 
-6.6376482e-09 -6.3750963e-06 0.0000000e+00 
-6.7194348e-09 -4.8638067e-06 0.0000000e+00 
-1.2165141e-08 -6.8812142e-06 0.0000000e+00 
-9.5278034e-09 -4.1079470e-06 0.0000000e+00 
-6.9448696e-08 -1.4462857e-05 0.0000000e+00 
-7.2074180e-08 -9.6087470e-06 0.0000000e+00 
-5.5893370e-08 -6.8212389e-06 0.0000000e+00 
-6.0165434e-08 -9.6427493e-06 0.0000000e+00 
-3.5422447e-09 -2.6897683e-06 0.0000000e+00 
-2.4044592e-08 -6.8846684e-06 0.0000000e+00 
-1.2862266e-08 -2.6876194e-06 0.0000000e+00 
-2.5451708e-08 -1.3423389e-05 0.0000000e+00 
-1.2552404e-08 -1.2810576e-06 0.0000000e+00 
-1.2322730e-08 -1.3116634e-05 0.0000000e+00 
-1.3443109e-08 -1.3055499e-06 0.0000000e+00 
-4.2878758e-09 -4.1349363e-06 0.0000000e+00 
-2.1140146e-08 -2.6999217e-06 0.0000000e+00 
-3.3536040e-08 -8.2776814e-06 0.0000000e+00 
-4.5477698e-08 -1.2691166e-05 0.0000000e+00 
-2.2387022e-08 -9.5450441e-06 0.0000000e+00 
-4.3973863e-08 -9.3946583e-06 0.0000000e+00 
-8.4268521e-08 -1.2100619e-05 0.0000000e+00 
-1.6258667e-08 -7.0310643e-06 0.0000000e+00 
-8.5576666e-08 -1.3421490e-05 0.0000000e+00 
-7.8682461e-08 -1.3433722e-05 0.0000000e+00 
-9.0597382e-08 -1.3405948e-05 0.0000000e+00 
-6.4662977e-08 -1.1937150e-05 0.0000000e+00 
-7.8775038e-08 -1.3366428e-05 0.0000000e+00 
-9.0936956e-09 -3.9342822e-06 0.0000000e+00 
-6.6341359e-09 -1.1684339e-06 0.0000000e+00 
-7.2300850e-09 -1.1593999e-06 0.0000000e+00 
-2.6607886e-08 -1.4688967e-05 0.0000000e+00 
3.3564060e-09 -1.4418155e-05 0.0000000e+00 
-4.1060577e-08 -1.1814064e-05 0.0000000e+00 
-6.6810067e-08 -1.3492755e-05 0.0000000e+00 
-3.5978176e-09 -5.5373107e-06 0.0000000e+00 
-1.2220090e-08 -3.6588415e-06 0.0000000e+00 
VELOCITY 3 144  float
0.0000000e+00 0.0000000e+00 0.0000000e+00 
0.0000000e+00 0.0000000e+00 0.0000000e+00 
0.0000000e+00 7.9226273e-05 0.0000000e+00 
0.0000000e+00 3.8088194e-05 0.0000000e+00 
0.0000000e+00 0.0000000e+00 0.0000000e+00 
0.0000000e+00 0.0000000e+00 0.0000000e+00 
0.0000000e+00 0.0000000e+00 0.0000000e+00 
0.0000000e+00 0.0000000e+00 0.0000000e+00 
0.0000000e+00 0.0000000e+00 0.0000000e+00 
0.0000000e+00 0.0000000e+00 0.0000000e+00 
0.0000000e+00 0.0000000e+00 0.0000000e+00 
0.0000000e+00 0.0000000e+00 0.0000000e+00 
0.0000000e+00 0.0000000e+00 0.0000000e+00 
0.0000000e+00 7.6776741e-06 0.0000000e+00 
0.0000000e+00 1.8006396e-05 0.0000000e+00 
0.0000000e+00 3.6254591e-05 0.0000000e+00 
0.0000000e+00 5.8369693e-05 0.0000000e+00 
0.0000000e+00 8.2216735e-05 0.0000000e+00 
0.0000000e+00 1.0074847e-04 0.0000000e+00 
0.0000000e+00 1.0342767e-04 0.0000000e+00 
0.0000000e+00 9.2775117e-05 0.0000000e+00 
0.0000000e+00 7.7170524e-05 0.0000000e+00 
7.2036295e-05 2.3314095e-05 0.0000000e+00 
1.3494633e-04 4.2509478e-06 0.0000000e+00 
1.6662721e-04 -1.9994370e-05 0.0000000e+00 
1.8681746e-04 -4.3269814e-05 0.0000000e+00 
1.9851884e-04 -4.8290229e-05 0.0000000e+00 
1.8159644e-04 -8.5823260e-05 0.0000000e+00 
1.7814523e-04 -8.2212522e-05 0.0000000e+00 
1.4978123e-04 -7.7342964e-05 0.0000000e+00 
1.1102599e-04 -3.4602948e-05 0.0000000e+00 
0.0000000e+00 7.1335024e-05 0.0000000e+00 
0.0000000e+00 7.5362899e-05 0.0000000e+00 
0.0000000e+00 6.0723658e-05 0.0000000e+00 
0.0000000e+00 5.1838582e-05 0.0000000e+00 
0.0000000e+00 4.9431950e-05 0.0000000e+00 
0.0000000e+00 3.8173912e-05 0.0000000e+00 
0.0000000e+00 3.0137180e-05 0.0000000e+00 
0.0000000e+00 3.1163338e-05 0.0000000e+00 
0.0000000e+00 2.4532081e-05 0.0000000e+00 
6.4433752e-06 1.1789231e-05 0.0000000e+00 
2.2043481e-05 5.1462786e-05 0.0000000e+00 
3.8416321e-05 6.9739595e-05 0.0000000e+00 
1.6513382e-04 -1.6079037e-05 0.0000000e+00 
2.2392185e-05 3.7875416e-05 0.0000000e+00 
1.4976780e-04 -4.9889724e-05 0.0000000e+00 
9.1152724e-06 4.0517552e-05 0.0000000e+00 
6.0576322e-06 1.1506477e-05 0.0000000e+00 
3.5332738e-05 6.1726932e-05 0.0000000e+00 
1.5889094e-05 5.0208808e-05 0.0000000e+00 
1.2663903e-05 2.2377031e-05 0.0000000e+00 
1.3000758e-04 1.2993549e-05 0.0000000e+00 
3.9950642e-06 8.6633627e-06 0.0000000e+00 
8.8200017e-05 -1.0264551e-05 0.0000000e+00 
2.1919428e-05 3.8835718e-05 0.0000000e+00 
3.8596932e-06 9.4493234e-06 0.0000000e+00 
1.9656303e-05 2.3487528e-05 0.0000000e+00 
2.1216782e-05 2.5021656e-05 0.0000000e+00 
3.8507518e-05 3.5644018e-05 0.0000000e+00 
4.1102048e-05 4.1091342e-05 0.0000000e+00 
5.7315923e-05 4.8811598e-05 0.0000000e+00 
6.1084778e-05 5.9510392e-05 0.0000000e+00 
8.3887440e-05 6.6997753e-05 0.0000000e+00 
7.7759614e-05 6.8810208e-05 0.0000000e+00 
1.0711396e-04 7.4411524e-05 0.0000000e+00 
1.0383456e-04 6.1887898e-05 0.0000000e+00 
8.7212116e-05 5.9897411e-05 0.0000000e+00 
1.0406237e-04 5.5680168e-05 0.0000000e+00 
5.5493507e-05 5.8064681e-05 0.0000000e+00 
8.9191170e-05 5.3122119e-05 0.0000000e+00 
6.8506517e-05 5.9922142e-05 0.0000000e+00 
1.0650069e-04 3.7868052e-05 0.0000000e+00 
1.1745629e-04 4.1614181e-05 0.0000000e+00 
5.4338852e-05 4.2440388e-05 0.0000000e+00 
8.6469379e-05 4.2874359e-05 0.0000000e+00 
1.3853727e-04 2.0882357e-05 0.0000000e+00 
1.4198499e-04 2.4429064e-05 0.0000000e+00 
1.1727691e-04 4.2504173e-05 0.0000000e+00 
1.3193586e-04 3.1572334e-05 0.0000000e+00 
1.0146469e-04 4.1088344e-05 0.0000000e+00 
1.0213025e-04 3.3865315e-05 0.0000000e+00 
6.8839028e-05 4.1361509e-05 0.0000000e+00 
8.0130732e-05 4.6823665e-05 0.0000000e+00 
1.2415352e-05 1.6524094e-05 0.0000000e+00 
7.8889869e-05 1.8526483e-05 0.0000000e+00 
1.3162324e-04 -3.2166256e-05 0.0000000e+00 
8.0438869e-05 1.0062812e-05 0.0000000e+00 
1.1534202e-04 -1.2088750e-05 0.0000000e+00 
6.6160019e-06 1.1936861e-05 0.0000000e+00 
6.9267429e-05 6.0530318e-05 0.0000000e+00 
5.0822047e-05 4.4895722e-05 0.0000000e+00 
4.9173650e-05 6.2589927e-05 0.0000000e+00 
3.8394941e-05 5.7810939e-05 0.0000000e+00 
2.1610080e-05 5.4246331e-05 0.0000000e+00 
2.9022533e-05 5.6959048e-05 0.0000000e+00 
3.1560114e-05 5.2029431e-05 0.0000000e+00 
4.4023029e-05 5.8262478e-05 0.0000000e+00 
4.3664684e-05 5.7394929e-05 0.0000000e+00 
4.5469995e-05 4.9962287e-05 0.0000000e+00 
4.3187851e-05 4.4209286e-05 0.0000000e+00 
3.3867353e-05 4.7598776e-05 0.0000000e+00 
3.2502103e-05 5.5902856e-05 0.0000000e+00 
6.8318121e-05 5.3436717e-05 0.0000000e+00 
1.5006901e-04 -7.1049767e-06 0.0000000e+00 
1.9722102e-05 5.1210463e-05 0.0000000e+00 
7.6635506e-06 1.4617146e-05 0.0000000e+00 
3.5175282e-05 7.0283575e-05 0.0000000e+00 
4.8028756e-05 4.4553162e-05 0.0000000e+00 
3.1938263e-05 3.1839165e-05 0.0000000e+00 
6.8794165e-05 4.7836224e-05 0.0000000e+00 
1.3019415e-05 2.2206799e-05 0.0000000e+00 
1.7194552e-04 -2.4096233e-05 0.0000000e+00 
1.1226681e-04 6.1148989e-05 0.0000000e+00 
5.5724915e-05 5.6176410e-05 0.0000000e+00 
9.9482386e-05 4.7147249e-05 0.0000000e+00 
2.2178285e-05 2.6350552e-05 0.0000000e+00 
7.7197634e-05 5.0442581e-05 0.0000000e+00 
2.4626072e-05 2.8820376e-05 0.0000000e+00 
3.6857014e-05 5.2862928e-05 0.0000000e+00 
1.9920763e-07 4.0662458e-06 0.0000000e+00 
2.9166104e-05 3.6670084e-05 0.0000000e+00 
1.4264148e-05 2.5820238e-05 0.0000000e+00 
3.4818007e-05 3.3042215e-05 0.0000000e+00 
3.1330728e-05 4.0090246e-05 0.0000000e+00 
8.9180794e-05 4.9162514e-05 0.0000000e+00 
6.1704464e-05 2.9590281e-05 0.0000000e+00 
5.9093643e-05 5.4617802e-05 0.0000000e+00 
4.0335173e-05 5.3565167e-05 0.0000000e+00 
1.2023560e-04 2.1316348e-05 0.0000000e+00 
7.5823823e-06 4.5481778e-05 0.0000000e+00 
1.3886561e-04 5.8248056e-06 0.0000000e+00 
1.2146333e-04 1.9420759e-05 0.0000000e+00 
1.4890716e-04 1.1752675e-06 0.0000000e+00 
8.5501233e-05 2.5246052e-05 0.0000000e+00 
1.4411315e-04 -6.3379498e-06 0.0000000e+00 
1.4668615e-05 3.6657897e-05 0.0000000e+00 
2.2650420e-07 3.7183370e-06 0.0000000e+00 
7.6530423e-06 2.1216058e-05 0.0000000e+00 
4.4484452e-05 4.4493328e-05 0.0000000e+00 
5.2013347e-05 3.0226802e-05 0.0000000e+00 
5.0853021e-05 4.4328033e-05 0.0000000e+00 
9.4347277e-05 2.1094973e-05 0.0000000e+00 
4.8111098e-05 4.0965821e-05 0.0000000e+00 
1.9098117e-05 2.1125823e-05 0.0000000e+00 
CELL_DATA 246
FIELD FieldData 0
