# vtk DataFile Version 4.0
vtk output
ASCII
DATASET UNSTRUCTURED_GRID
POINTS 144 float
0.0000000e+00 0.0000000e+00 0.0000000e+00 
1.0000000e+00 0.0000000e+00 0.0000000e+00 
1.0000000e+00 1.0000000e+00 0.0000000e+00 
0.0000000e+00 1.0000000e+00 0.0000000e+00 
1.0000000e-01 0.0000000e+00 0.0000000e+00 
2.0000000e-01 0.0000000e+00 0.0000000e+00 
3.0000001e-01 0.0000000e+00 0.0000000e+00 
4.0000001e-01 0.0000000e+00 0.0000000e+00 
5.0000000e-01 0.0000000e+00 0.0000000e+00 
6.0000002e-01 0.0000000e+00 0.0000000e+00 
6.9999999e-01 0.0000000e+00 0.0000000e+00 
8.0000001e-01 0.0000000e+00 0.0000000e+00 
8.9999998e-01 0.0000000e+00 0.0000000e+00 
1.0000000e+00 1.0000000e-01 0.0000000e+00 
1.0000000e+00 2.0000000e-01 0.0000000e+00 
1.0000000e+00 3.0000001e-01 0.0000000e+00 
1.0000000e+00 4.0000001e-01 0.0000000e+00 
1.0000000e+00 5.0000000e-01 0.0000000e+00 
1.0000000e+00 6.0000002e-01 0.0000000e+00 
1.0000000e+00 6.9999999e-01 0.0000000e+00 
1.0000000e+00 8.0000001e-01 0.0000000e+00 
1.0000000e+00 8.9999998e-01 0.0000000e+00 
8.9999998e-01 1.0000000e+00 0.0000000e+00 
8.0000001e-01 1.0000000e+00 0.0000000e+00 
6.9999999e-01 1.0000000e+00 0.0000000e+00 
6.0000002e-01 1.0000000e+00 0.0000000e+00 
5.0000000e-01 1.0000000e+00 0.0000000e+00 
4.0000001e-01 1.0000000e+00 0.0000000e+00 
3.0000001e-01 1.0000000e+00 0.0000000e+00 
2.0000000e-01 1.0000000e+00 0.0000000e+00 
1.0000000e-01 1.0000000e+00 0.0000000e+00 
0.0000000e+00 8.9999998e-01 0.0000000e+00 
0.0000000e+00 8.0000001e-01 0.0000000e+00 
0.0000000e+00 6.9999999e-01 0.0000000e+00 
0.0000000e+00 6.0000002e-01 0.0000000e+00 
0.0000000e+00 5.0000000e-01 0.0000000e+00 
0.0000000e+00 4.0000001e-01 0.0000000e+00 
0.0000000e+00 3.0000001e-01 0.0000000e+00 
0.0000000e+00 2.0000000e-01 0.0000000e+00 
0.0000000e+00 1.0000000e-01 0.0000000e+00 
4.5033512e-01 8.5524812e-02 0.0000000e+00 
9.5000088e-02 5.3608972e-01 0.0000000e+00 
9.1547006e-01 5.5000001e-01 0.0000000e+00 
5.5000001e-01 9.1339743e-01 0.0000000e+00 
9.1339743e-01 3.4999999e-01 0.0000000e+00 
3.4999999e-01 9.1669172e-01 0.0000000e+00 
8.8579953e-02 3.4872410e-01 0.0000000e+00 
6.4999998e-01 8.6602539e-02 0.0000000e+00 
9.1127491e-01 7.4795848e-01 0.0000000e+00 
6.6607341e-02 7.5098073e-01 0.0000000e+00 
2.4514475e-01 8.5484609e-02 0.0000000e+00 
7.4680746e-01 9.1993588e-01 0.0000000e+00 
9.0420872e-01 1.5861149e-01 0.0000000e+00 
1.5042374e-01 9.1532278e-01 0.0000000e+00 
8.7588154e-02 1.6267365e-01 0.0000000e+00 
7.4918270e-01 8.6130671e-02 0.0000000e+00 
6.9882751e-01 1.7252813e-01 0.0000000e+00 
6.0000002e-01 1.7320508e-01 0.0000000e+00 
6.4876831e-01 2.5909650e-01 0.0000000e+00 
5.4933882e-01 2.5818285e-01 0.0000000e+00 
5.9902751e-01 3.4564152e-01 0.0000000e+00 
5.0000000e-01 3.4641016e-01 0.0000000e+00 
5.4918092e-01 4.3250528e-01 0.0000000e+00 
4.4986349e-01 4.3292814e-01 0.0000000e+00 
4.9984074e-01 5.1951659e-01 0.0000000e+00 
5.9917998e-01 5.2102238e-01 0.0000000e+00 
3.9995071e-01 5.1958472e-01 0.0000000e+00 
4.4996524e-01 6.0619622e-01 0.0000000e+00 
3.9827734e-01 3.4236532e-01 0.0000000e+00 
3.4998599e-01 6.0620910e-01 0.0000000e+00 
2.9998946e-01 5.1960868e-01 0.0000000e+00 
4.0246150e-01 6.9138944e-01 0.0000000e+00 
5.0040448e-01 6.9257826e-01 0.0000000e+00 
6.9183892e-01 3.4861544e-01 0.0000000e+00 
3.0287755e-01 6.8788534e-01 0.0000000e+00 
4.5107409e-01 7.7642798e-01 0.0000000e+00 
5.5000001e-01 7.7942288e-01 0.0000000e+00 
6.0006744e-01 6.9277996e-01 0.0000000e+00 
6.4999998e-01 7.7942288e-01 0.0000000e+00 
7.0001125e-01 6.9281358e-01 0.0000000e+00 
7.4810976e-01 7.7827942e-01 0.0000000e+00 
8.1429243e-01 6.9644338e-01 0.0000000e+00 
7.5505483e-01 6.0440248e-01 0.0000000e+00 
7.9754496e-01 1.6455974e-01 0.0000000e+00 
8.4409988e-01 9.0543878e-01 0.0000000e+00 
2.5007063e-01 9.1426742e-01 0.0000000e+00 
1.9948809e-01 8.3684945e-01 0.0000000e+00 
3.0239609e-01 8.4084076e-01 0.0000000e+00 
5.5039096e-01 8.6229436e-02 0.0000000e+00 
2.5227043e-01 6.0435647e-01 0.0000000e+00 
2.0253047e-01 6.7697614e-01 0.0000000e+00 
2.0000000e-01 5.1961523e-01 0.0000000e+00 
2.4994016e-01 4.3122852e-01 0.0000000e+00 
1.5013675e-01 4.3705931e-01 0.0000000e+00 
1.9500943e-01 3.4477931e-01 0.0000000e+00 
1.4187421e-01 2.5843257e-01 0.0000000e+00 
2.4087626e-01 2.5457630e-01 0.0000000e+00 
2.9581064e-01 3.4174213e-01 0.0000000e+00 
3.4302756e-01 2.5211102e-01 0.0000000e+00 
4.4705081e-01 2.5426328e-01 0.0000000e+00 
1.8726690e-01 1.7076795e-01 0.0000000e+00 
9.1374290e-01 4.4999999e-01 0.0000000e+00 
8.1292653e-01 5.1219177e-01 0.0000000e+00 
6.4999998e-01 9.1339743e-01 0.0000000e+00 
9.4903819e-02 6.5753615e-01 0.0000000e+00 
3.4647793e-01 8.5224926e-02 0.0000000e+00 
9.1339743e-01 6.4999998e-01 0.0000000e+00 
8.3004320e-01 4.0203196e-01 0.0000000e+00 
8.3633298e-01 3.0639145e-01 0.0000000e+00 
7.4173015e-01 4.3506145e-01 0.0000000e+00 
9.1635197e-01 2.5751698e-01 0.0000000e+00 
4.4999999e-01 9.1524893e-01 0.0000000e+00 
5.4990965e-01 6.0638523e-01 0.0000000e+00 
3.4897196e-01 4.3124291e-01 0.0000000e+00 
6.5070385e-01 6.0805732e-01 0.0000000e+00 
4.9951929e-01 1.7088418e-01 0.0000000e+00 
6.4682627e-01 4.3563104e-01 0.0000000e+00 
3.9496639e-01 1.7007479e-01 0.0000000e+00 
9.2003214e-01 8.4667110e-01 0.0000000e+00 
8.4628856e-01 8.0417827e-02 0.0000000e+00 
9.0504780e-02 8.4245151e-01 0.0000000e+00 
1.5290669e-01 8.2261533e-02 0.0000000e+00 
7.5581288e-01 2.6161289e-01 0.0000000e+00 
2.9022500e-01 1.7048772e-01 0.0000000e+00 
7.0076448e-01 5.2269316e-01 0.0000000e+00 
8.3802330e-01 7.9983431e-01 0.0000000e+00 
8.4137177e-01 6.0186249e-01 0.0000000e+00 
1.6660626e-01 5.9922481e-01 0.0000000e+00 
3.5146821e-01 7.6715195e-01 0.0000000e+00 
6.7398138e-02 4.4853568e-01 0.0000000e+00 
6.0000002e-01 8.4641016e-01 0.0000000e+00 
6.9999999e-01 8.4641016e-01 0.0000000e+00 
5.0000000e-01 8.4641016e-01 0.0000000e+00 
2.5092945e-01 7.6027036e-01 0.0000000e+00 
4.0000001e-01 8.4656054e-01 0.0000000e+00 
6.1870042e-02 2.5000000e-01 0.0000000e+00 
9.2679495e-01 7.3205084e-02 0.0000000e+00 
7.3205084e-02 7.3205084e-02 0.0000000e+00 
9.2679495e-01 9.2679495e-01 0.0000000e+00 
7.3205084e-02 9.2679495e-01 0.0000000e+00 
1.5420890e-01 7.5578600e-01 0.0000000e+00 
7.7540809e-01 8.4997970e-01 0.0000000e+00 
7.7320510e-01 3.4999999e-01 0.0000000e+00 
8.4417260e-01 2.3009899e-01 0.0000000e+00 

CELLS 246 984
3 82 124 102
3 41 93 91
3 81 106 48
3 90 140 104
3 104 140 49
3 41 129 93
3 102 126 82
3 48 125 81
3 102 124 109
3 54 100 95
3 98 99 68
3 117 123 105
3 95 135 54
3 97 98 68
3 120 140 86
3 46 95 94
3 81 126 106
3 104 127 90
3 97 113 92
3 46 94 93
3 53 120 86
3 116 124 65
3 83 119 52
3 61 99 59
3 68 99 61
3 98 123 117
3 68 113 97
3 94 97 92
3 109 116 73
3 81 125 80
3 128 133 74
3 91 127 41
3 52 143 83
3 109 124 116
3 84 125 118
3 95 96 94
3 99 115 59
3 49 140 120
3 105 123 50
3 96 97 94
3 95 100 96
3 100 121 50
3 87 133 128
3 96 98 97
3 50 123 100
3 28 85 45
3 29 85 28
3 67 71 69
3 71 74 69
3 85 87 45
3 47 88 9
3 41 104 34
3 58 59 57
3 58 60 59
3 7 105 6
3 10 47 9
3 10 55 47
3 35 41 34
3 56 58 57
3 14 110 52
3 16 44 15
3 16 101 44
3 42 101 17
3 19 106 18
3 20 48 19
3 48 106 19
3 23 84 22
3 24 51 23
3 24 103 51
3 26 43 25
3 43 103 25
3 26 111 43
3 53 85 29
3 42 102 101
3 101 107 44
3 108 110 44
3 55 56 47
3 64 112 67
3 65 114 112
3 67 72 71
3 69 89 70
3 74 89 69
3 89 91 70
3 72 76 75
3 72 112 77
3 77 78 76
3 112 114 77
3 8 88 40
3 11 55 10
3 33 49 32
3 6 50 5
3 8 40 7
3 14 52 13
3 37 46 36
3 55 83 56
3 62 63 61
3 64 66 63
3 91 92 70
3 86 87 85
3 39 54 38
3 6 105 50
3 40 105 7
3 15 110 14
3 44 110 15
3 17 101 16
3 27 111 26
3 28 45 27
3 30 53 29
3 33 104 49
3 107 108 44
3 57 88 47
3 64 67 66
3 70 113 66
3 67 112 72
3 72 75 71
3 74 90 89
3 77 114 79
3 93 94 92
3 102 107 101
3 102 109 107
3 9 88 8
3 58 73 60
3 60 61 59
3 63 68 61
3 62 65 64
3 66 113 63
3 77 79 78
3 91 93 92
3 62 64 63
3 63 113 68
3 92 113 70
3 34 104 33
3 56 57 47
3 53 86 85
3 18 42 17
3 51 84 23
3 25 103 24
3 45 111 27
3 60 62 61
3 65 112 64
3 67 69 66
3 79 81 80
3 79 82 81
3 18 106 42
3 69 70 66
3 79 80 78
3 79 114 82
3 72 77 76
3 73 142 109
3 84 141 125
3 88 115 40
3 59 115 57
3 115 117 40
3 98 117 99
3 62 116 65
3 73 116 60
3 57 115 88
3 99 117 115
3 32 120 31
3 55 119 83
3 12 119 11
3 21 118 20
3 58 122 73
3 83 122 56
3 93 129 46
3 5 121 4
3 60 116 62
3 50 121 5
3 65 124 114
3 100 123 96
3 42 126 102
3 82 126 81
3 90 127 89
3 40 117 105
3 46 135 95
3 11 119 55
3 49 120 32
3 20 118 48
3 54 121 100
3 71 128 74
3 35 129 41
3 46 129 36
3 87 134 45
3 56 122 58
3 54 135 38
3 37 135 46
3 1 136 12
3 13 136 1
3 4 137 0
3 0 137 39
3 2 138 21
3 22 138 2
3 3 139 30
3 31 139 3
3 110 143 52
3 109 142 107
3 96 123 98
3 83 143 122
3 114 124 82
3 89 127 91
3 106 126 42
3 41 127 104
3 122 142 73
3 122 143 108
3 118 125 48
3 51 141 84
3 128 134 87
3 75 128 71
3 36 129 35
3 132 134 75
3 43 130 103
3 78 130 76
3 111 132 43
3 86 133 87
3 76 132 75
3 103 131 51
3 78 131 130
3 130 131 103
3 74 133 90
3 80 131 78
3 130 132 76
3 43 132 130
3 111 134 132
3 45 134 111
3 108 142 122
3 12 136 119
3 120 139 31
3 21 138 118
3 38 135 37
3 52 136 13
3 30 139 53
3 39 137 54
3 84 138 22
3 121 137 4
3 107 142 108
3 108 143 110
3 118 138 84
3 53 139 120
3 119 136 52
3 54 137 121
3 75 134 128
3 86 140 133
3 133 140 90
3 125 141 80
3 80 141 131
3 131 141 51

CELL_TYPES 246
5
5
5
5
5
5
5
5
5
5
5
5
5
5
5
5
5
5
5
5
5
5
5
5
5
5
5
5
5
5
5
5
5
5
5
5
5
5
5
5
5
5
5
5
5
5
5
5
5
5
5
5
5
5
5
5
5
5
5
5
5
5
5
5
5
5
5
5
5
5
5
5
5
5
5
5
5
5
5
5
5
5
5
5
5
5
5
5
5
5
5
5
5
5
5
5
5
5
5
5
5
5
5
5
5
5
5
5
5
5
5
5
5
5
5
5
5
5
5
5
5
5
5
5
5
5
5
5
5
5
5
5
5
5
5
5
5
5
5
5
5
5
5
5
5
5
5
5
5
5
5
5
5
5
5
5
5
5
5
5
5
5
5
5
5
5
5
5
5
5
5
5
5
5
5
5
5
5
5
5
5
5
5
5
5
5
5
5
5
5
5
5
5
5
5
5
5
5
5
5
5
5
5
5
5
5
5
5
5
5
5
5
5
5
5
5
5
5
5
5
5
5
5
5
5
5
5
5
5
5
5
5
5
5
5
5
5
5
5
5
5
5
5
5
5
5
POINT_DATA 144
FIELD FieldData 2
DISPLACEMENT 3 144  float
0.0000000e+00 0.0000000e+00 0.0000000e+00 
0.0000000e+00 0.0000000e+00 0.0000000e+00 
0.0000000e+00 -1.6042814e-05 0.0000000e+00 
0.0000000e+00 -1.6042597e-05 0.0000000e+00 
0.0000000e+00 0.0000000e+00 0.0000000e+00 
0.0000000e+00 0.0000000e+00 0.0000000e+00 
0.0000000e+00 0.0000000e+00 0.0000000e+00 
0.0000000e+00 0.0000000e+00 0.0000000e+00 
0.0000000e+00 0.0000000e+00 0.0000000e+00 
0.0000000e+00 0.0000000e+00 0.0000000e+00 
0.0000000e+00 0.0000000e+00 0.0000000e+00 
0.0000000e+00 0.0000000e+00 0.0000000e+00 
0.0000000e+00 0.0000000e+00 0.0000000e+00 
0.0000000e+00 -1.5999091e-06 0.0000000e+00 
0.0000000e+00 -3.2038045e-06 0.0000000e+00 
0.0000000e+00 -4.8148436e-06 0.0000000e+00 
0.0000000e+00 -6.4343603e-06 0.0000000e+00 
0.0000000e+00 -8.0605487e-06 0.0000000e+00 
0.0000000e+00 -9.6864651e-06 0.0000000e+00 
0.0000000e+00 -1.1300835e-05 0.0000000e+00 
0.0000000e+00 -1.2895222e-05 0.0000000e+00 
0.0000000e+00 -1.4472349e-05 0.0000000e+00 
-3.0264614e-11 -1.6042844e-05 0.0000000e+00 
-1.3058522e-10 -1.6043368e-05 0.0000000e+00 
-1.0317049e-10 -1.6043521e-05 0.0000000e+00 
4.4722261e-11 -1.6043874e-05 0.0000000e+00 
1.6980291e-10 -1.6043821e-05 0.0000000e+00 
2.2578431e-10 -1.6043714e-05 0.0000000e+00 
1.2812927e-10 -1.6043765e-05 0.0000000e+00 
8.0098365e-11 -1.6043936e-05 0.0000000e+00 
1.4595691e-10 -1.6043006e-05 0.0000000e+00 
0.0000000e+00 -1.4472083e-05 0.0000000e+00 
0.0000000e+00 -1.2894449e-05 0.0000000e+00 
0.0000000e+00 -1.1300158e-05 0.0000000e+00 
0.0000000e+00 -9.6861540e-06 0.0000000e+00 
0.0000000e+00 -8.0602822e-06 0.0000000e+00 
0.0000000e+00 -6.4342189e-06 0.0000000e+00 
0.0000000e+00 -4.8147267e-06 0.0000000e+00 
0.0000000e+00 -3.2037703e-06 0.0000000e+00 
0.0000000e+00 -1.5998395e-06 0.0000000e+00 
-7.7979657e-11 -1.3680353e-06 0.0000000e+00 
3.7956405e-11 -8.6478667e-06 0.0000000e+00 
-6.3690102e-11 -8.8741690e-06 0.0000000e+00 
1.2077356e-10 -1.4684050e-05 0.0000000e+00 
2.0138695e-10 -5.6235149e-06 0.0000000e+00 
2.6058292e-10 -1.4735660e-05 0.0000000e+00 
-1.7528039e-10 -5.6025492e-06 0.0000000e+00 
-4.7404292e-11 -1.3852979e-06 0.0000000e+00 
-2.9655184e-10 -1.2068080e-05 0.0000000e+00 
1.7401816e-11 -1.2115569e-05 0.0000000e+00 
-5.9670033e-11 -1.3673713e-06 0.0000000e+00 
5.2134897e-11 -1.4786434e-05 0.0000000e+00 
-8.3484530e-12 -2.5393138e-06 0.0000000e+00 
-2.0761184e-10 -1.4714114e-05 0.0000000e+00 
-4.0932892e-11 -2.6041748e-06 0.0000000e+00 
-5.4134190e-11 -1.3778163e-06 0.0000000e+00 
5.7479251e-12 -2.7623209e-06 0.0000000e+00 
-3.1589058e-11 -2.7732244e-06 0.0000000e+00 
1.6872183e-10 -4.1546250e-06 0.0000000e+00 
6.2311795e-11 -4.1398839e-06 0.0000000e+00 
1.4503121e-10 -5.5528885e-06 0.0000000e+00 
3.9121687e-13 -5.5653554e-06 0.0000000e+00 
1.1682252e-10 -6.9627777e-06 0.0000000e+00 
-6.3907386e-11 -6.9696180e-06 0.0000000e+00 
1.3948238e-10 -8.3788573e-06 0.0000000e+00 
2.2892958e-10 -8.4032908e-06 0.0000000e+00 
5.4464339e-11 -8.3798250e-06 0.0000000e+00 
2.6899555e-10 -9.7876282e-06 0.0000000e+00 
-1.3652661e-10 -5.4997977e-06 0.0000000e+00 
2.8679273e-10 -9.7876600e-06 0.0000000e+00 
4.0249946e-11 -8.3800232e-06 0.0000000e+00 
2.2651102e-10 -1.1163251e-05 0.0000000e+00 
1.3922731e-10 -1.1182441e-05 0.0000000e+00 
2.3564944e-10 -5.6008994e-06 0.0000000e+00 
1.2396605e-10 -1.1106782e-05 0.0000000e+00 
-1.7902202e-10 -1.2521852e-05 0.0000000e+00 
-1.8140209e-10 -1.2569467e-05 0.0000000e+00 
3.6717669e-12 -1.1185643e-05 0.0000000e+00 
-2.0433784e-10 -1.2569346e-05 0.0000000e+00 
-1.2784082e-10 -1.1185858e-05 0.0000000e+00 
-1.0170489e-10 -1.2550971e-05 0.0000000e+00 
-9.6333191e-11 -1.1244114e-05 0.0000000e+00 
6.0724967e-11 -9.7585444e-06 0.0000000e+00 
5.9237996e-11 -2.6347475e-06 0.0000000e+00 
2.1819586e-10 -1.4558043e-05 0.0000000e+00 
1.0507499e-10 -1.4697560e-05 0.0000000e+00 
2.3461771e-10 -1.3477790e-05 0.0000000e+00 
2.8042491e-10 -1.3540836e-05 0.0000000e+00 
-7.0745368e-11 -1.3793248e-06 0.0000000e+00 
2.8326941e-10 -9.7574621e-06 0.0000000e+00 
-4.0153339e-11 -1.0930959e-05 0.0000000e+00 
6.7079162e-11 -8.3798559e-06 0.0000000e+00 
-2.1907348e-10 -6.9416737e-06 0.0000000e+00 
-1.7155832e-10 -7.0362589e-06 0.0000000e+00 
-2.1835110e-10 -5.5386581e-06 0.0000000e+00 
-1.4445299e-10 -4.1436065e-06 0.0000000e+00 
-2.0231430e-10 -4.0816067e-06 0.0000000e+00 
-2.2487312e-10 -5.4896063e-06 0.0000000e+00 
-1.7433785e-10 -4.0419463e-06 0.0000000e+00 
-7.6093083e-11 -4.0766859e-06 0.0000000e+00 
-5.8068265e-11 -2.7340307e-06 0.0000000e+00 
1.4458697e-10 -7.2470020e-06 0.0000000e+00 
2.2703338e-10 -8.2592842e-06 0.0000000e+00 
7.4251515e-11 -1.4684020e-05 0.0000000e+00 
6.8608334e-11 -1.0617631e-05 0.0000000e+00 
-7.0921748e-11 -1.3632380e-06 0.0000000e+00 
8.3708124e-11 -1.0495772e-05 0.0000000e+00 
2.4826069e-10 -6.4675164e-06 0.0000000e+00 
3.5008763e-10 -4.9180508e-06 0.0000000e+00 
2.6892713e-10 -7.0042538e-06 0.0000000e+00 
2.1676655e-11 -4.1293970e-06 0.0000000e+00 
2.2672633e-10 -1.4713102e-05 0.0000000e+00 
2.2446549e-10 -9.7907550e-06 0.0000000e+00 
-1.7036940e-10 -6.9420907e-06 0.0000000e+00 
2.2191919e-10 -9.8176624e-06 0.0000000e+00 
-9.3419383e-11 -2.7359577e-06 0.0000000e+00 
2.0094354e-10 -7.0135352e-06 0.0000000e+00 
-1.3255791e-10 -2.7229410e-06 0.0000000e+00 
1.2718569e-10 -1.3632164e-05 0.0000000e+00 
2.9485852e-12 -1.2864245e-06 0.0000000e+00 
4.6969161e-11 -1.3565903e-05 0.0000000e+00 
-6.5473023e-11 -1.3157656e-06 0.0000000e+00 
2.6272842e-10 -4.1951189e-06 0.0000000e+00 
-1.0646968e-10 -2.7295521e-06 0.0000000e+00 
2.1369720e-10 -8.4304475e-06 0.0000000e+00 
8.7602876e-11 -1.2892161e-05 0.0000000e+00 
-1.4450120e-10 -9.7165475e-06 0.0000000e+00 
2.3376931e-10 -9.6739768e-06 0.0000000e+00 
-1.3409653e-11 -1.2374242e-05 0.0000000e+00 
-4.4036736e-11 -7.2230609e-06 0.0000000e+00 
-3.2514220e-11 -1.3629000e-05 0.0000000e+00 
4.1331968e-12 -1.3628932e-05 0.0000000e+00 
9.9725297e-11 -1.3629020e-05 0.0000000e+00 
2.5863298e-10 -1.2264662e-05 0.0000000e+00 
2.5569860e-10 -1.3631235e-05 0.0000000e+00 
-7.4758595e-11 -4.0081982e-06 0.0000000e+00 
6.1981476e-11 -1.1711211e-06 0.0000000e+00 
-6.2650947e-11 -1.1710155e-06 0.0000000e+00 
2.0215216e-10 -1.4893733e-05 0.0000000e+00 
-2.4517505e-10 -1.4893873e-05 0.0000000e+00 
2.4829713e-10 -1.2193413e-05 0.0000000e+00 
1.1745074e-10 -1.3684635e-05 0.0000000e+00 
2.8264283e-10 -5.6237177e-06 0.0000000e+00 
6.2211875e-11 -3.6879158e-06 0.0000000e+00 
VELOCITY 3 144  float
0.0000000e+00 0.0000000e+00 0.0000000e+00 
0.0000000e+00 0.0000000e+00 0.0000000e+00 
0.0000000e+00 1.0243935e-04 0.0000000e+00 
0.0000000e+00 1.0188443e-04 0.0000000e+00 
0.0000000e+00 0.0000000e+00 0.0000000e+00 
0.0000000e+00 0.0000000e+00 0.0000000e+00 
0.0000000e+00 0.0000000e+00 0.0000000e+00 
0.0000000e+00 0.0000000e+00 0.0000000e+00 
0.0000000e+00 0.0000000e+00 0.0000000e+00 
0.0000000e+00 0.0000000e+00 0.0000000e+00 
0.0000000e+00 0.0000000e+00 0.0000000e+00 
0.0000000e+00 0.0000000e+00 0.0000000e+00 
0.0000000e+00 0.0000000e+00 0.0000000e+00 
0.0000000e+00 3.1116291e-05 0.0000000e+00 
0.0000000e+00 5.5359233e-05 0.0000000e+00 
0.0000000e+00 6.8823363e-05 0.0000000e+00 
0.0000000e+00 7.2601011e-05 0.0000000e+00 
0.0000000e+00 7.3109812e-05 0.0000000e+00 
0.0000000e+00 8.0209313e-05 0.0000000e+00 
0.0000000e+00 9.9819845e-05 0.0000000e+00 
0.0000000e+00 1.2036326e-04 0.0000000e+00 
0.0000000e+00 1.1428141e-04 0.0000000e+00 
6.3395578e-07 1.0394088e-04 0.0000000e+00 
-5.0901150e-07 1.0216892e-04 0.0000000e+00 
1.3514835e-07 1.0286317e-04 0.0000000e+00 
3.1965661e-07 1.0226146e-04 0.0000000e+00 
3.8186758e-07 1.0289971e-04 0.0000000e+00 
9.6507542e-08 1.0328908e-04 0.0000000e+00 
1.1490641e-07 1.0292698e-04 0.0000000e+00 
5.0884853e-07 1.0274125e-04 0.0000000e+00 
-1.5670315e-07 1.0492442e-04 0.0000000e+00 
0.0000000e+00 1.1453666e-04 0.0000000e+00 
0.0000000e+00 1.2050953e-04 0.0000000e+00 
0.0000000e+00 1.0006619e-04 0.0000000e+00 
0.0000000e+00 8.0308753e-05 0.0000000e+00 
0.0000000e+00 7.3137970e-05 0.0000000e+00 
0.0000000e+00 7.2505129e-05 0.0000000e+00 
0.0000000e+00 6.8585956e-05 0.0000000e+00 
0.0000000e+00 5.5069300e-05 0.0000000e+00 
0.0000000e+00 3.1056363e-05 0.0000000e+00 
2.7014689e-08 2.6960335e-05 0.0000000e+00 
2.5757572e-07 7.4283947e-05 0.0000000e+00 
-4.7760011e-07 7.5395255e-05 0.0000000e+00 
9.3211007e-08 1.0858863e-04 0.0000000e+00 
1.3202650e-07 7.1739632e-05 0.0000000e+00 
-2.3017930e-07 1.0799191e-04 0.0000000e+00 
-1.0455442e-07 7.1589580e-05 0.0000000e+00 
9.3676782e-08 2.7288195e-05 0.0000000e+00 
-1.3215600e-07 1.1175157e-04 0.0000000e+00 
-4.0015945e-07 1.1208886e-04 0.0000000e+00 
1.4808163e-08 2.6963182e-05 0.0000000e+00 
9.9974766e-09 1.0650885e-04 0.0000000e+00 
4.9786319e-08 4.6446672e-05 0.0000000e+00 
2.4493664e-07 1.0816125e-04 0.0000000e+00 
4.5937463e-09 4.7554680e-05 0.0000000e+00 
8.0836983e-08 2.7082157e-05 0.0000000e+00 
2.0510065e-07 4.9916343e-05 0.0000000e+00 
1.6078762e-07 4.9951967e-05 0.0000000e+00 
3.0241139e-07 6.4788408e-05 0.0000000e+00 
2.2716458e-07 6.4683998e-05 0.0000000e+00 
6.3786835e-08 7.1488277e-05 0.0000000e+00 
5.5129863e-08 7.1501374e-05 0.0000000e+00 
-6.6787287e-08 7.2518225e-05 0.0000000e+00 
9.5835011e-09 7.2496303e-05 0.0000000e+00 
-5.0331361e-09 7.3708019e-05 0.0000000e+00 
-2.1473856e-07 7.3803712e-05 0.0000000e+00 
2.3373224e-07 7.3666903e-05 0.0000000e+00 
8.3993143e-08 8.1682039e-05 0.0000000e+00 
4.2399087e-08 7.1334849e-05 0.0000000e+00 
2.7404184e-07 8.1502534e-05 0.0000000e+00 
4.1970668e-07 7.3608855e-05 0.0000000e+00 
-1.7643002e-07 9.8584729e-05 0.0000000e+00 
-2.8351283e-07 9.9013785e-05 0.0000000e+00 
1.0237366e-08 7.1750794e-05 0.0000000e+00 
-1.4030489e-07 9.7480930e-05 0.0000000e+00 
-1.9284737e-08 1.1789606e-04 0.0000000e+00 
-1.7411746e-07 1.1837949e-04 0.0000000e+00 
-3.6135290e-07 9.9029581e-05 0.0000000e+00 
-4.3558423e-08 1.1826651e-04 0.0000000e+00 
-3.5691363e-07 9.8804660e-05 0.0000000e+00 
3.3628882e-07 1.1789303e-04 0.0000000e+00 
-2.3913881e-07 9.9594938e-05 0.0000000e+00 
-5.0019759e-07 8.0852849e-05 0.0000000e+00 
2.5480159e-07 4.7772301e-05 0.0000000e+00 
3.9346386e-07 1.1068167e-04 0.0000000e+00 
-1.7292399e-07 1.0818204e-04 0.0000000e+00 
-2.4955779e-07 1.2248526e-04 0.0000000e+00 
7.7779973e-08 1.2262269e-04 0.0000000e+00 
4.7556576e-08 2.7156693e-05 0.0000000e+00 
2.9162447e-07 8.1027960e-05 0.0000000e+00 
-1.5191428e-07 9.5092917e-05 0.0000000e+00 
4.9706233e-07 7.3645999e-05 0.0000000e+00 
1.4671731e-07 7.2503848e-05 0.0000000e+00 
1.4356200e-07 7.2497234e-05 0.0000000e+00 
-1.5396880e-08 7.1488779e-05 0.0000000e+00 
-4.4731379e-08 6.4930377e-05 0.0000000e+00 
-5.0486506e-08 6.4293577e-05 0.0000000e+00 
4.8903286e-09 7.1328024e-05 0.0000000e+00 
1.8272976e-08 6.3955529e-05 0.0000000e+00 
1.2713980e-07 6.4205706e-05 0.0000000e+00 
7.3332636e-08 4.9417511e-05 0.0000000e+00 
-6.7029532e-08 7.2586758e-05 0.0000000e+00 
-4.2804291e-07 7.3179312e-05 0.0000000e+00 
1.2830914e-07 1.0826286e-04 0.0000000e+00 
9.3070028e-08 9.0598616e-05 0.0000000e+00 
2.6158727e-08 2.6859119e-05 0.0000000e+00 
-1.6202569e-07 8.9005494e-05 0.0000000e+00 
-9.5663573e-08 7.2533810e-05 0.0000000e+00 
3.1773007e-07 6.9484660e-05 0.0000000e+00 
-2.5251370e-07 7.2392795e-05 0.0000000e+00 
1.1162583e-09 6.4538312e-05 0.0000000e+00 
-8.1283176e-09 1.0859438e-04 0.0000000e+00 
-1.7349662e-07 8.1747196e-05 0.0000000e+00 
9.8277056e-08 7.2474199e-05 0.0000000e+00 
-3.4688492e-07 8.1895312e-05 0.0000000e+00 
8.8980961e-08 4.9438189e-05 0.0000000e+00 
-2.1201753e-07 7.2522511e-05 0.0000000e+00 
3.7347895e-08 4.9284332e-05 0.0000000e+00 
6.1433195e-07 1.2280991e-04 0.0000000e+00 
1.1934161e-07 2.5347066e-05 0.0000000e+00 
-5.1988377e-07 1.2294369e-04 0.0000000e+00 
-5.0073822e-08 2.6037233e-05 0.0000000e+00 
3.8235430e-07 6.5323773e-05 0.0000000e+00 
5.6070856e-08 4.9366241e-05 0.0000000e+00 
-3.9039003e-07 7.3679097e-05 0.0000000e+00 
4.2886705e-07 1.2114697e-04 0.0000000e+00 
-4.9536675e-07 8.1042337e-05 0.0000000e+00 
2.4035134e-07 8.0377205e-05 0.0000000e+00 
4.6548976e-08 1.1590540e-04 0.0000000e+00 
2.2103254e-07 7.2528383e-05 0.0000000e+00 
2.7932829e-08 1.2241107e-04 0.0000000e+00 
3.5364266e-07 1.2249144e-04 0.0000000e+00 
-9.0874778e-08 1.2270732e-04 0.0000000e+00 
8.5315797e-08 1.1448744e-04 0.0000000e+00 
1.5294733e-08 1.2274060e-04 0.0000000e+00 
3.6432185e-10 6.3230051e-05 0.0000000e+00 
1.5830240e-07 2.2957358e-05 0.0000000e+00 
-8.8750674e-08 2.2993863e-05 0.0000000e+00 
-1.6781219e-07 1.0471520e-04 0.0000000e+00 
8.4835386e-07 1.0443857e-04 0.0000000e+00 
-2.9934100e-08 1.1395248e-04 0.0000000e+00 
6.3582399e-07 1.2213066e-04 0.0000000e+00 
2.3367763e-08 7.1484952e-05 0.0000000e+00 
1.2569242e-07 6.0572154e-05 0.0000000e+00 
CELL_DATA 246
FIELD FieldData 0
