# vtk DataFile Version 4.0
vtk output
ASCII
DATASET UNSTRUCTURED_GRID
POINTS 144 float
0.0000000e+00 0.0000000e+00 0.0000000e+00 
1.0000000e+00 0.0000000e+00 0.0000000e+00 
1.0000000e+00 1.0000000e+00 0.0000000e+00 
0.0000000e+00 1.0000000e+00 0.0000000e+00 
1.0000000e-01 0.0000000e+00 0.0000000e+00 
2.0000000e-01 0.0000000e+00 0.0000000e+00 
3.0000001e-01 0.0000000e+00 0.0000000e+00 
4.0000001e-01 0.0000000e+00 0.0000000e+00 
5.0000000e-01 0.0000000e+00 0.0000000e+00 
6.0000002e-01 0.0000000e+00 0.0000000e+00 
6.9999999e-01 0.0000000e+00 0.0000000e+00 
8.0000001e-01 0.0000000e+00 0.0000000e+00 
8.9999998e-01 0.0000000e+00 0.0000000e+00 
1.0000000e+00 1.0000000e-01 0.0000000e+00 
1.0000000e+00 2.0000000e-01 0.0000000e+00 
1.0000000e+00 3.0000001e-01 0.0000000e+00 
1.0000000e+00 4.0000001e-01 0.0000000e+00 
1.0000000e+00 5.0000000e-01 0.0000000e+00 
1.0000000e+00 6.0000002e-01 0.0000000e+00 
1.0000000e+00 6.9999999e-01 0.0000000e+00 
1.0000000e+00 8.0000001e-01 0.0000000e+00 
1.0000000e+00 8.9999998e-01 0.0000000e+00 
8.9999998e-01 1.0000000e+00 0.0000000e+00 
8.0000001e-01 1.0000000e+00 0.0000000e+00 
6.9999999e-01 1.0000000e+00 0.0000000e+00 
6.0000002e-01 1.0000000e+00 0.0000000e+00 
5.0000000e-01 1.0000000e+00 0.0000000e+00 
4.0000001e-01 1.0000000e+00 0.0000000e+00 
3.0000001e-01 1.0000000e+00 0.0000000e+00 
2.0000000e-01 1.0000000e+00 0.0000000e+00 
1.0000000e-01 1.0000000e+00 0.0000000e+00 
0.0000000e+00 8.9999998e-01 0.0000000e+00 
0.0000000e+00 8.0000001e-01 0.0000000e+00 
0.0000000e+00 6.9999999e-01 0.0000000e+00 
0.0000000e+00 6.0000002e-01 0.0000000e+00 
0.0000000e+00 5.0000000e-01 0.0000000e+00 
0.0000000e+00 4.0000001e-01 0.0000000e+00 
0.0000000e+00 3.0000001e-01 0.0000000e+00 
0.0000000e+00 2.0000000e-01 0.0000000e+00 
0.0000000e+00 1.0000000e-01 0.0000000e+00 
4.5033512e-01 8.5524812e-02 0.0000000e+00 
9.5000088e-02 5.3608972e-01 0.0000000e+00 
9.1547006e-01 5.5000001e-01 0.0000000e+00 
5.5000001e-01 9.1339743e-01 0.0000000e+00 
9.1339743e-01 3.4999999e-01 0.0000000e+00 
3.4999999e-01 9.1669172e-01 0.0000000e+00 
8.8579953e-02 3.4872410e-01 0.0000000e+00 
6.4999998e-01 8.6602539e-02 0.0000000e+00 
9.1127491e-01 7.4795848e-01 0.0000000e+00 
6.6607341e-02 7.5098073e-01 0.0000000e+00 
2.4514475e-01 8.5484609e-02 0.0000000e+00 
7.4680746e-01 9.1993588e-01 0.0000000e+00 
9.0420872e-01 1.5861149e-01 0.0000000e+00 
1.5042374e-01 9.1532278e-01 0.0000000e+00 
8.7588154e-02 1.6267365e-01 0.0000000e+00 
7.4918270e-01 8.6130671e-02 0.0000000e+00 
6.9882751e-01 1.7252813e-01 0.0000000e+00 
6.0000002e-01 1.7320508e-01 0.0000000e+00 
6.4876831e-01 2.5909650e-01 0.0000000e+00 
5.4933882e-01 2.5818285e-01 0.0000000e+00 
5.9902751e-01 3.4564152e-01 0.0000000e+00 
5.0000000e-01 3.4641016e-01 0.0000000e+00 
5.4918092e-01 4.3250528e-01 0.0000000e+00 
4.4986349e-01 4.3292814e-01 0.0000000e+00 
4.9984074e-01 5.1951659e-01 0.0000000e+00 
5.9917998e-01 5.2102238e-01 0.0000000e+00 
3.9995071e-01 5.1958472e-01 0.0000000e+00 
4.4996524e-01 6.0619622e-01 0.0000000e+00 
3.9827734e-01 3.4236532e-01 0.0000000e+00 
3.4998599e-01 6.0620910e-01 0.0000000e+00 
2.9998946e-01 5.1960868e-01 0.0000000e+00 
4.0246150e-01 6.9138944e-01 0.0000000e+00 
5.0040448e-01 6.9257826e-01 0.0000000e+00 
6.9183892e-01 3.4861544e-01 0.0000000e+00 
3.0287755e-01 6.8788534e-01 0.0000000e+00 
4.5107409e-01 7.7642798e-01 0.0000000e+00 
5.5000001e-01 7.7942288e-01 0.0000000e+00 
6.0006744e-01 6.9277996e-01 0.0000000e+00 
6.4999998e-01 7.7942288e-01 0.0000000e+00 
7.0001125e-01 6.9281358e-01 0.0000000e+00 
7.4810976e-01 7.7827942e-01 0.0000000e+00 
8.1429243e-01 6.9644338e-01 0.0000000e+00 
7.5505483e-01 6.0440248e-01 0.0000000e+00 
7.9754496e-01 1.6455974e-01 0.0000000e+00 
8.4409988e-01 9.0543878e-01 0.0000000e+00 
2.5007063e-01 9.1426742e-01 0.0000000e+00 
1.9948809e-01 8.3684945e-01 0.0000000e+00 
3.0239609e-01 8.4084076e-01 0.0000000e+00 
5.5039096e-01 8.6229436e-02 0.0000000e+00 
2.5227043e-01 6.0435647e-01 0.0000000e+00 
2.0253047e-01 6.7697614e-01 0.0000000e+00 
2.0000000e-01 5.1961523e-01 0.0000000e+00 
2.4994016e-01 4.3122852e-01 0.0000000e+00 
1.5013675e-01 4.3705931e-01 0.0000000e+00 
1.9500943e-01 3.4477931e-01 0.0000000e+00 
1.4187421e-01 2.5843257e-01 0.0000000e+00 
2.4087626e-01 2.5457630e-01 0.0000000e+00 
2.9581064e-01 3.4174213e-01 0.0000000e+00 
3.4302756e-01 2.5211102e-01 0.0000000e+00 
4.4705081e-01 2.5426328e-01 0.0000000e+00 
1.8726690e-01 1.7076795e-01 0.0000000e+00 
9.1374290e-01 4.4999999e-01 0.0000000e+00 
8.1292653e-01 5.1219177e-01 0.0000000e+00 
6.4999998e-01 9.1339743e-01 0.0000000e+00 
9.4903819e-02 6.5753615e-01 0.0000000e+00 
3.4647793e-01 8.5224926e-02 0.0000000e+00 
9.1339743e-01 6.4999998e-01 0.0000000e+00 
8.3004320e-01 4.0203196e-01 0.0000000e+00 
8.3633298e-01 3.0639145e-01 0.0000000e+00 
7.4173015e-01 4.3506145e-01 0.0000000e+00 
9.1635197e-01 2.5751698e-01 0.0000000e+00 
4.4999999e-01 9.1524893e-01 0.0000000e+00 
5.4990965e-01 6.0638523e-01 0.0000000e+00 
3.4897196e-01 4.3124291e-01 0.0000000e+00 
6.5070385e-01 6.0805732e-01 0.0000000e+00 
4.9951929e-01 1.7088418e-01 0.0000000e+00 
6.4682627e-01 4.3563104e-01 0.0000000e+00 
3.9496639e-01 1.7007479e-01 0.0000000e+00 
9.2003214e-01 8.4667110e-01 0.0000000e+00 
8.4628856e-01 8.0417827e-02 0.0000000e+00 
9.0504780e-02 8.4245151e-01 0.0000000e+00 
1.5290669e-01 8.2261533e-02 0.0000000e+00 
7.5581288e-01 2.6161289e-01 0.0000000e+00 
2.9022500e-01 1.7048772e-01 0.0000000e+00 
7.0076448e-01 5.2269316e-01 0.0000000e+00 
8.3802330e-01 7.9983431e-01 0.0000000e+00 
8.4137177e-01 6.0186249e-01 0.0000000e+00 
1.6660626e-01 5.9922481e-01 0.0000000e+00 
3.5146821e-01 7.6715195e-01 0.0000000e+00 
6.7398138e-02 4.4853568e-01 0.0000000e+00 
6.0000002e-01 8.4641016e-01 0.0000000e+00 
6.9999999e-01 8.4641016e-01 0.0000000e+00 
5.0000000e-01 8.4641016e-01 0.0000000e+00 
2.5092945e-01 7.6027036e-01 0.0000000e+00 
4.0000001e-01 8.4656054e-01 0.0000000e+00 
6.1870042e-02 2.5000000e-01 0.0000000e+00 
9.2679495e-01 7.3205084e-02 0.0000000e+00 
7.3205084e-02 7.3205084e-02 0.0000000e+00 
9.2679495e-01 9.2679495e-01 0.0000000e+00 
7.3205084e-02 9.2679495e-01 0.0000000e+00 
1.5420890e-01 7.5578600e-01 0.0000000e+00 
7.7540809e-01 8.4997970e-01 0.0000000e+00 
7.7320510e-01 3.4999999e-01 0.0000000e+00 
8.4417260e-01 2.3009899e-01 0.0000000e+00 

CELLS 246 984
3 82 124 102
3 41 93 91
3 81 106 48
3 90 140 104
3 104 140 49
3 41 129 93
3 102 126 82
3 48 125 81
3 102 124 109
3 54 100 95
3 98 99 68
3 117 123 105
3 95 135 54
3 97 98 68
3 120 140 86
3 46 95 94
3 81 126 106
3 104 127 90
3 97 113 92
3 46 94 93
3 53 120 86
3 116 124 65
3 83 119 52
3 61 99 59
3 68 99 61
3 98 123 117
3 68 113 97
3 94 97 92
3 109 116 73
3 81 125 80
3 128 133 74
3 91 127 41
3 52 143 83
3 109 124 116
3 84 125 118
3 95 96 94
3 99 115 59
3 49 140 120
3 105 123 50
3 96 97 94
3 95 100 96
3 100 121 50
3 87 133 128
3 96 98 97
3 50 123 100
3 28 85 45
3 29 85 28
3 67 71 69
3 71 74 69
3 85 87 45
3 47 88 9
3 41 104 34
3 58 59 57
3 58 60 59
3 7 105 6
3 10 47 9
3 10 55 47
3 35 41 34
3 56 58 57
3 14 110 52
3 16 44 15
3 16 101 44
3 42 101 17
3 19 106 18
3 20 48 19
3 48 106 19
3 23 84 22
3 24 51 23
3 24 103 51
3 26 43 25
3 43 103 25
3 26 111 43
3 53 85 29
3 42 102 101
3 101 107 44
3 108 110 44
3 55 56 47
3 64 112 67
3 65 114 112
3 67 72 71
3 69 89 70
3 74 89 69
3 89 91 70
3 72 76 75
3 72 112 77
3 77 78 76
3 112 114 77
3 8 88 40
3 11 55 10
3 33 49 32
3 6 50 5
3 8 40 7
3 14 52 13
3 37 46 36
3 55 83 56
3 62 63 61
3 64 66 63
3 91 92 70
3 86 87 85
3 39 54 38
3 6 105 50
3 40 105 7
3 15 110 14
3 44 110 15
3 17 101 16
3 27 111 26
3 28 45 27
3 30 53 29
3 33 104 49
3 107 108 44
3 57 88 47
3 64 67 66
3 70 113 66
3 67 112 72
3 72 75 71
3 74 90 89
3 77 114 79
3 93 94 92
3 102 107 101
3 102 109 107
3 9 88 8
3 58 73 60
3 60 61 59
3 63 68 61
3 62 65 64
3 66 113 63
3 77 79 78
3 91 93 92
3 62 64 63
3 63 113 68
3 92 113 70
3 34 104 33
3 56 57 47
3 53 86 85
3 18 42 17
3 51 84 23
3 25 103 24
3 45 111 27
3 60 62 61
3 65 112 64
3 67 69 66
3 79 81 80
3 79 82 81
3 18 106 42
3 69 70 66
3 79 80 78
3 79 114 82
3 72 77 76
3 73 142 109
3 84 141 125
3 88 115 40
3 59 115 57
3 115 117 40
3 98 117 99
3 62 116 65
3 73 116 60
3 57 115 88
3 99 117 115
3 32 120 31
3 55 119 83
3 12 119 11
3 21 118 20
3 58 122 73
3 83 122 56
3 93 129 46
3 5 121 4
3 60 116 62
3 50 121 5
3 65 124 114
3 100 123 96
3 42 126 102
3 82 126 81
3 90 127 89
3 40 117 105
3 46 135 95
3 11 119 55
3 49 120 32
3 20 118 48
3 54 121 100
3 71 128 74
3 35 129 41
3 46 129 36
3 87 134 45
3 56 122 58
3 54 135 38
3 37 135 46
3 1 136 12
3 13 136 1
3 4 137 0
3 0 137 39
3 2 138 21
3 22 138 2
3 3 139 30
3 31 139 3
3 110 143 52
3 109 142 107
3 96 123 98
3 83 143 122
3 114 124 82
3 89 127 91
3 106 126 42
3 41 127 104
3 122 142 73
3 122 143 108
3 118 125 48
3 51 141 84
3 128 134 87
3 75 128 71
3 36 129 35
3 132 134 75
3 43 130 103
3 78 130 76
3 111 132 43
3 86 133 87
3 76 132 75
3 103 131 51
3 78 131 130
3 130 131 103
3 74 133 90
3 80 131 78
3 130 132 76
3 43 132 130
3 111 134 132
3 45 134 111
3 108 142 122
3 12 136 119
3 120 139 31
3 21 138 118
3 38 135 37
3 52 136 13
3 30 139 53
3 39 137 54
3 84 138 22
3 121 137 4
3 107 142 108
3 108 143 110
3 118 138 84
3 53 139 120
3 119 136 52
3 54 137 121
3 75 134 128
3 86 140 133
3 133 140 90
3 125 141 80
3 80 141 131
3 131 141 51

CELL_TYPES 246
5
5
5
5
5
5
5
5
5
5
5
5
5
5
5
5
5
5
5
5
5
5
5
5
5
5
5
5
5
5
5
5
5
5
5
5
5
5
5
5
5
5
5
5
5
5
5
5
5
5
5
5
5
5
5
5
5
5
5
5
5
5
5
5
5
5
5
5
5
5
5
5
5
5
5
5
5
5
5
5
5
5
5
5
5
5
5
5
5
5
5
5
5
5
5
5
5
5
5
5
5
5
5
5
5
5
5
5
5
5
5
5
5
5
5
5
5
5
5
5
5
5
5
5
5
5
5
5
5
5
5
5
5
5
5
5
5
5
5
5
5
5
5
5
5
5
5
5
5
5
5
5
5
5
5
5
5
5
5
5
5
5
5
5
5
5
5
5
5
5
5
5
5
5
5
5
5
5
5
5
5
5
5
5
5
5
5
5
5
5
5
5
5
5
5
5
5
5
5
5
5
5
5
5
5
5
5
5
5
5
5
5
5
5
5
5
5
5
5
5
5
5
5
5
5
5
5
5
5
5
5
5
5
5
5
5
5
5
5
5
5
5
5
5
5
5
POINT_DATA 144
FIELD FieldData 2
DISPLACEMENT 3 144  float
0.0000000e+00 0.0000000e+00 0.0000000e+00 
0.0000000e+00 0.0000000e+00 0.0000000e+00 
0.0000000e+00 -1.4857143e-05 0.0000000e+00 
0.0000000e+00 -1.4857143e-05 0.0000000e+00 
0.0000000e+00 0.0000000e+00 0.0000000e+00 
0.0000000e+00 0.0000000e+00 0.0000000e+00 
0.0000000e+00 0.0000000e+00 0.0000000e+00 
0.0000000e+00 0.0000000e+00 0.0000000e+00 
0.0000000e+00 0.0000000e+00 0.0000000e+00 
0.0000000e+00 0.0000000e+00 0.0000000e+00 
0.0000000e+00 0.0000000e+00 0.0000000e+00 
0.0000000e+00 0.0000000e+00 0.0000000e+00 
0.0000000e+00 0.0000000e+00 0.0000000e+00 
0.0000000e+00 -1.4857143e-06 0.0000000e+00 
0.0000000e+00 -2.9714286e-06 0.0000000e+00 
0.0000000e+00 -4.4571429e-06 0.0000000e+00 
0.0000000e+00 -5.9428571e-06 0.0000000e+00 
0.0000000e+00 -7.4285713e-06 0.0000000e+00 
0.0000000e+00 -8.9142859e-06 0.0000000e+00 
0.0000000e+00 -1.0400000e-05 0.0000000e+00 
0.0000000e+00 -1.1885714e-05 0.0000000e+00 
0.0000000e+00 -1.3371428e-05 0.0000000e+00 
-2.0416228e-22 -1.4857143e-05 0.0000000e+00 
-2.8143755e-22 -1.4857143e-05 0.0000000e+00 
-7.9506335e-22 -1.4857143e-05 0.0000000e+00 
2.3717942e-22 -1.4857143e-05 0.0000000e+00 
1.3571756e-21 -1.4857143e-05 0.0000000e+00 
7.6357278e-22 -1.4857143e-05 0.0000000e+00 
5.1393806e-22 -1.4857143e-05 0.0000000e+00 
1.6175840e-22 -1.4857143e-05 0.0000000e+00 
9.4676728e-22 -1.4857143e-05 0.0000000e+00 
0.0000000e+00 -1.3371428e-05 0.0000000e+00 
0.0000000e+00 -1.1885714e-05 0.0000000e+00 
0.0000000e+00 -1.0400000e-05 0.0000000e+00 
0.0000000e+00 -8.9142859e-06 0.0000000e+00 
0.0000000e+00 -7.4285713e-06 0.0000000e+00 
0.0000000e+00 -5.9428571e-06 0.0000000e+00 
0.0000000e+00 -4.4571429e-06 0.0000000e+00 
0.0000000e+00 -2.9714286e-06 0.0000000e+00 
0.0000000e+00 -1.4857143e-06 0.0000000e+00 
-4.7192723e-23 -1.2706544e-06 0.0000000e+00 
1.7868830e-22 -7.9647616e-06 0.0000000e+00 
4.5647891e-23 -8.1714288e-06 0.0000000e+00 
3.4512671e-23 -1.3570477e-05 0.0000000e+00 
2.0978385e-22 -5.2000000e-06 0.0000000e+00 
6.3829576e-22 -1.3619420e-05 0.0000000e+00 
-7.3444711e-23 -5.1810439e-06 0.0000000e+00 
-1.5661047e-22 -1.2866664e-06 0.0000000e+00 
-1.7654944e-22 -1.1112525e-05 0.0000000e+00 
-5.2352218e-22 -1.1157428e-05 0.0000000e+00 
-1.1582489e-22 -1.2700571e-06 0.0000000e+00 
1.2101702e-22 -1.3667619e-05 0.0000000e+00 
-6.2813554e-23 -2.3565137e-06 0.0000000e+00 
3.5518181e-22 -1.3599081e-05 0.0000000e+00 
-5.2972786e-23 -2.4168658e-06 0.0000000e+00 
-1.5684333e-22 -1.2796556e-06 0.0000000e+00 
-6.7826513e-23 -2.5632751e-06 0.0000000e+00 
-5.2520592e-23 -2.5733327e-06 0.0000000e+00 
-8.7333850e-23 -3.8494336e-06 0.0000000e+00 
-1.7002983e-22 -3.8358598e-06 0.0000000e+00 
-1.4592649e-22 -5.1352458e-06 0.0000000e+00 
-2.7166686e-22 -5.1466654e-06 0.0000000e+00 
2.3907451e-22 -6.4257929e-06 0.0000000e+00 
3.6098409e-22 -6.4320752e-06 0.0000000e+00 
2.5103500e-22 -7.7185323e-06 0.0000000e+00 
2.6271065e-22 -7.7409040e-06 0.0000000e+00 
-9.0502168e-23 -7.7195446e-06 0.0000000e+00 
4.7708551e-22 -9.0063440e-06 0.0000000e+00 
-4.8765044e-22 -5.0865706e-06 0.0000000e+00 
4.0315132e-22 -9.0065350e-06 0.0000000e+00 
6.6531569e-23 -7.7199011e-06 0.0000000e+00 
4.4295017e-22 -1.0272071e-05 0.0000000e+00 
5.2195521e-22 -1.0289734e-05 0.0000000e+00 
-1.3092482e-22 -5.1794295e-06 0.0000000e+00 
5.0701582e-22 -1.0220011e-05 0.0000000e+00 
1.0571697e-22 -1.1535501e-05 0.0000000e+00 
3.5137143e-23 -1.1579997e-05 0.0000000e+00 
7.7352356e-23 -1.0292732e-05 0.0000000e+00 
-8.3209951e-23 -1.1579997e-05 0.0000000e+00 
-4.9066473e-23 -1.0293231e-05 0.0000000e+00 
-1.8529092e-22 -1.1563008e-05 0.0000000e+00 
-1.0049061e-22 -1.0347158e-05 0.0000000e+00 
6.5355836e-22 -8.9796940e-06 0.0000000e+00 
-1.8140269e-22 -2.4448875e-06 0.0000000e+00 
8.3442015e-23 -1.3452233e-05 0.0000000e+00 
4.4206624e-22 -1.3583402e-05 0.0000000e+00 
-8.2240963e-22 -1.2433192e-05 0.0000000e+00 
-7.0178207e-22 -1.2492491e-05 0.0000000e+00 
-7.0366273e-23 -1.2811231e-06 0.0000000e+00 
2.6038796e-22 -8.9790101e-06 0.0000000e+00 
3.5284153e-22 -1.0057932e-05 0.0000000e+00 
3.9547644e-22 -7.7199975e-06 0.0000000e+00 
2.0365532e-22 -6.4068236e-06 0.0000000e+00 
3.4333223e-22 -6.4934525e-06 0.0000000e+00 
-1.6554674e-22 -5.1224351e-06 0.0000000e+00 
-2.2809649e-22 -3.8395697e-06 0.0000000e+00 
-2.8929683e-22 -3.7822763e-06 0.0000000e+00 
-3.1945704e-22 -5.0773115e-06 0.0000000e+00 
-3.2301504e-22 -3.7456496e-06 0.0000000e+00 
-1.8713798e-22 -3.7776260e-06 0.0000000e+00 
-2.8504107e-22 -2.5371237e-06 0.0000000e+00 
-2.9456273e-22 -6.6857142e-06 0.0000000e+00 
-2.3715535e-23 -7.6097067e-06 0.0000000e+00 
2.6570946e-22 -1.3570477e-05 0.0000000e+00 
3.4108642e-22 -9.7691081e-06 0.0000000e+00 
-4.2277344e-23 -1.2661989e-06 0.0000000e+00 
2.6513951e-22 -9.6571430e-06 0.0000000e+00 
6.2852530e-23 -5.9730464e-06 0.0000000e+00 
9.0941614e-23 -4.5521015e-06 0.0000000e+00 
3.9726460e-22 -6.4637702e-06 0.0000000e+00 
-5.8380718e-23 -3.8259668e-06 0.0000000e+00 
2.6722152e-22 -1.3597984e-05 0.0000000e+00 
5.0157826e-22 -9.0091517e-06 0.0000000e+00 
4.8499678e-22 -6.4070377e-06 0.0000000e+00 
5.7015473e-22 -9.0339945e-06 0.0000000e+00 
8.4015899e-26 -2.5388506e-06 0.0000000e+00 
3.9639793e-22 -6.4722326e-06 0.0000000e+00 
-1.0062373e-22 -2.5268255e-06 0.0000000e+00 
-3.9186765e-22 -1.2579113e-05 0.0000000e+00 
-4.6578314e-23 -1.1947792e-06 0.0000000e+00 
1.8970092e-22 -1.2516422e-05 0.0000000e+00 
-7.3466654e-23 -1.2221714e-06 0.0000000e+00 
2.7728858e-23 -3.8868202e-06 0.0000000e+00 
-2.4201735e-22 -2.5329605e-06 0.0000000e+00 
2.7316638e-22 -7.7657269e-06 0.0000000e+00 
-5.7237905e-23 -1.1883252e-05 0.0000000e+00 
4.1266962e-22 -8.9419573e-06 0.0000000e+00 
2.7167612e-22 -8.9027690e-06 0.0000000e+00 
-2.9927522e-22 -1.1397686e-05 0.0000000e+00 
2.0877157e-22 -6.6639586e-06 0.0000000e+00 
-4.1957184e-22 -1.2575237e-05 0.0000000e+00 
-4.1450867e-22 -1.2575237e-05 0.0000000e+00 
-3.5707081e-22 -1.2575237e-05 0.0000000e+00 
-1.6402862e-22 -1.1295445e-05 0.0000000e+00 
-8.5054655e-22 -1.2577470e-05 0.0000000e+00 
1.9827243e-23 -3.7142856e-06 0.0000000e+00 
-4.2176180e-23 -1.0876183e-06 0.0000000e+00 
-7.2017895e-23 -1.0876183e-06 0.0000000e+00 
-1.0715879e-22 -1.3769524e-05 0.0000000e+00 
-5.7419109e-23 -1.3769524e-05 0.0000000e+00 
-3.3848598e-22 -1.1228821e-05 0.0000000e+00 
-3.7417089e-22 -1.2628270e-05 0.0000000e+00 
4.5000173e-23 -5.2000000e-06 0.0000000e+00 
-1.6903299e-22 -3.4186137e-06 0.0000000e+00 
VELOCITY 3 144  float
0.0000000e+00 0.0000000e+00 0.0000000e+00 
0.0000000e+00 0.0000000e+00 0.0000000e+00 
0.0000000e+00 3.3881318e-20 0.0000000e+00 
0.0000000e+00 -3.3881318e-20 0.0000000e+00 
0.0000000e+00 0.0000000e+00 0.0000000e+00 
0.0000000e+00 0.0000000e+00 0.0000000e+00 
0.0000000e+00 0.0000000e+00 0.0000000e+00 
0.0000000e+00 0.0000000e+00 0.0000000e+00 
0.0000000e+00 0.0000000e+00 0.0000000e+00 
0.0000000e+00 0.0000000e+00 0.0000000e+00 
0.0000000e+00 0.0000000e+00 0.0000000e+00 
0.0000000e+00 0.0000000e+00 0.0000000e+00 
0.0000000e+00 0.0000000e+00 0.0000000e+00 
0.0000000e+00 4.2351647e-21 0.0000000e+00 
0.0000000e+00 8.4703295e-21 0.0000000e+00 
0.0000000e+00 1.6940659e-20 0.0000000e+00 
0.0000000e+00 1.6940659e-20 0.0000000e+00 
0.0000000e+00 1.6940659e-20 0.0000000e+00 
0.0000000e+00 6.7762636e-20 0.0000000e+00 
0.0000000e+00 3.3881318e-20 0.0000000e+00 
0.0000000e+00 3.3881318e-20 0.0000000e+00 
0.0000000e+00 6.7762636e-20 0.0000000e+00 
-4.4008036e-21 6.7762636e-20 0.0000000e+00 
-5.9835899e-21 0.0000000e+00 0.0000000e+00 
-1.5172782e-20 0.0000000e+00 0.0000000e+00 
-1.0920096e-20 -3.3881318e-20 0.0000000e+00 
-5.5791842e-21 -3.3881318e-20 0.0000000e+00 
-6.4629479e-21 -3.3881318e-20 0.0000000e+00 
-1.0252020e-20 -6.7762636e-20 0.0000000e+00 
-1.5468961e-20 -3.3881318e-20 0.0000000e+00 
-1.3328380e-20 -6.7762636e-20 0.0000000e+00 
0.0000000e+00 -6.7762636e-20 0.0000000e+00 
0.0000000e+00 -6.7762636e-20 0.0000000e+00 
0.0000000e+00 -3.3881318e-20 0.0000000e+00 
0.0000000e+00 -3.3881318e-20 0.0000000e+00 
0.0000000e+00 -3.3881318e-20 0.0000000e+00 
0.0000000e+00 -1.6940659e-20 0.0000000e+00 
0.0000000e+00 -1.6940659e-20 0.0000000e+00 
0.0000000e+00 -8.4703295e-21 0.0000000e+00 
0.0000000e+00 -8.4703295e-21 0.0000000e+00 
1.6089082e-22 -4.2351647e-21 0.0000000e+00 
5.2711810e-21 -3.3881318e-20 0.0000000e+00 
-6.9089019e-23 0.0000000e+00 0.0000000e+00 
-9.4680535e-22 0.0000000e+00 0.0000000e+00 
4.0497551e-21 1.6940659e-20 0.0000000e+00 
-2.8619403e-21 -3.3881318e-20 0.0000000e+00 
-1.3452333e-21 0.0000000e+00 0.0000000e+00 
2.0758695e-21 0.0000000e+00 0.0000000e+00 
-1.0452238e-20 3.3881318e-20 0.0000000e+00 
-1.4765364e-21 -6.7762636e-20 0.0000000e+00 
1.0296533e-22 0.0000000e+00 0.0000000e+00 
-7.4305603e-22 3.3881318e-20 0.0000000e+00 
-1.5066076e-22 8.4703295e-21 0.0000000e+00 
-1.8410124e-21 -3.3881318e-20 0.0000000e+00 
-2.0960914e-21 -8.4703295e-21 0.0000000e+00 
9.8763598e-22 4.2351647e-21 0.0000000e+00 
4.6747579e-21 0.0000000e+00 0.0000000e+00 
8.2840741e-21 8.4703295e-21 0.0000000e+00 
8.4668543e-21 1.6940659e-20 0.0000000e+00 
1.0774733e-20 0.0000000e+00 0.0000000e+00 
2.2466021e-21 0.0000000e+00 0.0000000e+00 
-1.8511381e-21 0.0000000e+00 0.0000000e+00 
8.8196178e-21 0.0000000e+00 0.0000000e+00 
3.4852177e-21 -1.6940659e-20 0.0000000e+00 
7.6141822e-21 -3.3881318e-20 0.0000000e+00 
9.5953961e-21 0.0000000e+00 0.0000000e+00 
5.3312513e-21 -3.3881318e-20 0.0000000e+00 
7.7607830e-21 -3.3881318e-20 0.0000000e+00 
-4.2903245e-21 -1.6940659e-20 0.0000000e+00 
9.1135981e-21 -3.3881318e-20 0.0000000e+00 
7.7900162e-21 -3.3881318e-20 0.0000000e+00 
1.0532462e-20 -3.3881318e-20 0.0000000e+00 
1.3117785e-20 -3.3881318e-20 0.0000000e+00 
1.8063195e-21 3.3881318e-20 0.0000000e+00 
9.9412351e-21 -3.3881318e-20 0.0000000e+00 
7.2053611e-21 -3.3881318e-20 0.0000000e+00 
3.0640226e-21 -3.3881318e-20 0.0000000e+00 
7.8017939e-21 0.0000000e+00 0.0000000e+00 
1.4775995e-21 0.0000000e+00 0.0000000e+00 
3.6765355e-21 0.0000000e+00 0.0000000e+00 
-2.2488849e-22 0.0000000e+00 0.0000000e+00 
-1.7077059e-21 3.3881318e-20 0.0000000e+00 
7.4101610e-21 3.3881318e-20 0.0000000e+00 
1.1863858e-22 8.4703295e-21 0.0000000e+00 
-3.9988358e-21 6.7762636e-20 0.0000000e+00 
-6.8501428e-21 -6.7762636e-20 0.0000000e+00 
-1.6592288e-21 -3.3881318e-20 0.0000000e+00 
-1.4848939e-21 -6.7762636e-20 0.0000000e+00 
3.5837737e-21 0.0000000e+00 0.0000000e+00 
5.4541087e-21 -3.3881318e-20 0.0000000e+00 
1.2366032e-20 -3.3881318e-20 0.0000000e+00 
9.6245065e-21 0.0000000e+00 0.0000000e+00 
1.5538850e-21 -1.6940659e-20 0.0000000e+00 
9.0502334e-22 -1.6940659e-20 0.0000000e+00 
-2.1177468e-21 -1.6940659e-20 0.0000000e+00 
-7.9150481e-22 -1.6940659e-20 0.0000000e+00 
-1.0796670e-21 -8.4703295e-21 0.0000000e+00 
-1.5642394e-21 -1.6940659e-20 0.0000000e+00 
1.8334264e-21 -1.6940659e-20 0.0000000e+00 
9.1550565e-21 -1.6940659e-20 0.0000000e+00 
-9.7106561e-22 0.0000000e+00 0.0000000e+00 
-1.2302133e-21 1.6940659e-20 0.0000000e+00 
-1.9431278e-21 3.3881318e-20 0.0000000e+00 
3.6922833e-22 0.0000000e+00 0.0000000e+00 
7.2211478e-21 -3.3881318e-20 0.0000000e+00 
7.5904610e-22 0.0000000e+00 0.0000000e+00 
5.5561245e-21 3.3881318e-20 0.0000000e+00 
5.9993827e-21 1.6940659e-20 0.0000000e+00 
3.8385068e-22 1.6940659e-20 0.0000000e+00 
1.0478808e-20 1.6940659e-20 0.0000000e+00 
2.3806873e-22 1.6940659e-20 0.0000000e+00 
-2.7336465e-21 -3.3881318e-20 0.0000000e+00 
9.2275293e-21 -3.3881318e-20 0.0000000e+00 
4.3138713e-21 -3.3881318e-20 0.0000000e+00 
9.6780140e-21 0.0000000e+00 0.0000000e+00 
8.4161710e-21 -8.4703295e-21 0.0000000e+00 
1.3458511e-20 0.0000000e+00 0.0000000e+00 
3.2973966e-21 0.0000000e+00 0.0000000e+00 
3.4206548e-21 3.3881318e-20 0.0000000e+00 
2.0433988e-21 8.4703295e-21 0.0000000e+00 
3.3637013e-21 -3.3881318e-20 0.0000000e+00 
-3.6262328e-22 0.0000000e+00 0.0000000e+00 
6.0015544e-21 1.6940659e-20 0.0000000e+00 
4.4923753e-22 -8.4703295e-21 0.0000000e+00 
3.8415556e-21 0.0000000e+00 0.0000000e+00 
1.6420376e-22 6.7762636e-20 0.0000000e+00 
6.1259906e-21 0.0000000e+00 0.0000000e+00 
7.6662227e-21 -3.3881318e-20 0.0000000e+00 
1.2976276e-20 -3.3881318e-20 0.0000000e+00 
8.6731190e-22 -1.6940659e-20 0.0000000e+00 
8.1222497e-22 0.0000000e+00 0.0000000e+00 
-2.1456883e-21 3.3881318e-20 0.0000000e+00 
-2.4445411e-21 -3.3881318e-20 0.0000000e+00 
6.6787128e-21 -3.3881318e-20 0.0000000e+00 
-4.1812397e-21 -3.3881318e-20 0.0000000e+00 
1.0416686e-21 -8.4703295e-21 0.0000000e+00 
4.3448076e-22 4.2351647e-21 0.0000000e+00 
4.0916314e-22 -4.2351647e-21 0.0000000e+00 
-6.4703190e-21 3.3881318e-20 0.0000000e+00 
-6.6268064e-21 -6.7762636e-20 0.0000000e+00 
1.8508332e-21 -3.3881318e-20 0.0000000e+00 
2.7022265e-22 3.3881318e-20 0.0000000e+00 
3.1225652e-21 1.6940659e-20 0.0000000e+00 
-1.6854583e-21 1.6940659e-20 0.0000000e+00 
CELL_DATA 246
FIELD FieldData 0
