# vtk DataFile Version 4.0
vtk output
ASCII
DATASET UNSTRUCTURED_GRID
POINTS 144 float
0.0000000e+00 0.0000000e+00 0.0000000e+00 
1.0000000e+00 0.0000000e+00 0.0000000e+00 
1.0000000e+00 1.0000000e+00 0.0000000e+00 
0.0000000e+00 1.0000000e+00 0.0000000e+00 
1.0000000e-01 0.0000000e+00 0.0000000e+00 
2.0000000e-01 0.0000000e+00 0.0000000e+00 
3.0000001e-01 0.0000000e+00 0.0000000e+00 
4.0000001e-01 0.0000000e+00 0.0000000e+00 
5.0000000e-01 0.0000000e+00 0.0000000e+00 
6.0000002e-01 0.0000000e+00 0.0000000e+00 
6.9999999e-01 0.0000000e+00 0.0000000e+00 
8.0000001e-01 0.0000000e+00 0.0000000e+00 
8.9999998e-01 0.0000000e+00 0.0000000e+00 
1.0000000e+00 1.0000000e-01 0.0000000e+00 
1.0000000e+00 2.0000000e-01 0.0000000e+00 
1.0000000e+00 3.0000001e-01 0.0000000e+00 
1.0000000e+00 4.0000001e-01 0.0000000e+00 
1.0000000e+00 5.0000000e-01 0.0000000e+00 
1.0000000e+00 6.0000002e-01 0.0000000e+00 
1.0000000e+00 6.9999999e-01 0.0000000e+00 
1.0000000e+00 8.0000001e-01 0.0000000e+00 
1.0000000e+00 8.9999998e-01 0.0000000e+00 
8.9999998e-01 1.0000000e+00 0.0000000e+00 
8.0000001e-01 1.0000000e+00 0.0000000e+00 
6.9999999e-01 1.0000000e+00 0.0000000e+00 
6.0000002e-01 1.0000000e+00 0.0000000e+00 
5.0000000e-01 1.0000000e+00 0.0000000e+00 
4.0000001e-01 1.0000000e+00 0.0000000e+00 
3.0000001e-01 1.0000000e+00 0.0000000e+00 
2.0000000e-01 1.0000000e+00 0.0000000e+00 
1.0000000e-01 1.0000000e+00 0.0000000e+00 
0.0000000e+00 8.9999998e-01 0.0000000e+00 
0.0000000e+00 8.0000001e-01 0.0000000e+00 
0.0000000e+00 6.9999999e-01 0.0000000e+00 
0.0000000e+00 6.0000002e-01 0.0000000e+00 
0.0000000e+00 5.0000000e-01 0.0000000e+00 
0.0000000e+00 4.0000001e-01 0.0000000e+00 
0.0000000e+00 3.0000001e-01 0.0000000e+00 
0.0000000e+00 2.0000000e-01 0.0000000e+00 
0.0000000e+00 1.0000000e-01 0.0000000e+00 
4.5033512e-01 8.5524812e-02 0.0000000e+00 
9.5000088e-02 5.3608972e-01 0.0000000e+00 
9.1547006e-01 5.5000001e-01 0.0000000e+00 
5.5000001e-01 9.1339743e-01 0.0000000e+00 
9.1339743e-01 3.4999999e-01 0.0000000e+00 
3.4999999e-01 9.1669172e-01 0.0000000e+00 
8.8579953e-02 3.4872410e-01 0.0000000e+00 
6.4999998e-01 8.6602539e-02 0.0000000e+00 
9.1127491e-01 7.4795848e-01 0.0000000e+00 
6.6607341e-02 7.5098073e-01 0.0000000e+00 
2.4514475e-01 8.5484609e-02 0.0000000e+00 
7.4680746e-01 9.1993588e-01 0.0000000e+00 
9.0420872e-01 1.5861149e-01 0.0000000e+00 
1.5042374e-01 9.1532278e-01 0.0000000e+00 
8.7588154e-02 1.6267365e-01 0.0000000e+00 
7.4918270e-01 8.6130671e-02 0.0000000e+00 
6.9882751e-01 1.7252813e-01 0.0000000e+00 
6.0000002e-01 1.7320508e-01 0.0000000e+00 
6.4876831e-01 2.5909650e-01 0.0000000e+00 
5.4933882e-01 2.5818285e-01 0.0000000e+00 
5.9902751e-01 3.4564152e-01 0.0000000e+00 
5.0000000e-01 3.4641016e-01 0.0000000e+00 
5.4918092e-01 4.3250528e-01 0.0000000e+00 
4.4986349e-01 4.3292814e-01 0.0000000e+00 
4.9984074e-01 5.1951659e-01 0.0000000e+00 
5.9917998e-01 5.2102238e-01 0.0000000e+00 
3.9995071e-01 5.1958472e-01 0.0000000e+00 
4.4996524e-01 6.0619622e-01 0.0000000e+00 
3.9827734e-01 3.4236532e-01 0.0000000e+00 
3.4998599e-01 6.0620910e-01 0.0000000e+00 
2.9998946e-01 5.1960868e-01 0.0000000e+00 
4.0246150e-01 6.9138944e-01 0.0000000e+00 
5.0040448e-01 6.9257826e-01 0.0000000e+00 
6.9183892e-01 3.4861544e-01 0.0000000e+00 
3.0287755e-01 6.8788534e-01 0.0000000e+00 
4.5107409e-01 7.7642798e-01 0.0000000e+00 
5.5000001e-01 7.7942288e-01 0.0000000e+00 
6.0006744e-01 6.9277996e-01 0.0000000e+00 
6.4999998e-01 7.7942288e-01 0.0000000e+00 
7.0001125e-01 6.9281358e-01 0.0000000e+00 
7.4810976e-01 7.7827942e-01 0.0000000e+00 
8.1429243e-01 6.9644338e-01 0.0000000e+00 
7.5505483e-01 6.0440248e-01 0.0000000e+00 
7.9754496e-01 1.6455974e-01 0.0000000e+00 
8.4409988e-01 9.0543878e-01 0.0000000e+00 
2.5007063e-01 9.1426742e-01 0.0000000e+00 
1.9948809e-01 8.3684945e-01 0.0000000e+00 
3.0239609e-01 8.4084076e-01 0.0000000e+00 
5.5039096e-01 8.6229436e-02 0.0000000e+00 
2.5227043e-01 6.0435647e-01 0.0000000e+00 
2.0253047e-01 6.7697614e-01 0.0000000e+00 
2.0000000e-01 5.1961523e-01 0.0000000e+00 
2.4994016e-01 4.3122852e-01 0.0000000e+00 
1.5013675e-01 4.3705931e-01 0.0000000e+00 
1.9500943e-01 3.4477931e-01 0.0000000e+00 
1.4187421e-01 2.5843257e-01 0.0000000e+00 
2.4087626e-01 2.5457630e-01 0.0000000e+00 
2.9581064e-01 3.4174213e-01 0.0000000e+00 
3.4302756e-01 2.5211102e-01 0.0000000e+00 
4.4705081e-01 2.5426328e-01 0.0000000e+00 
1.8726690e-01 1.7076795e-01 0.0000000e+00 
9.1374290e-01 4.4999999e-01 0.0000000e+00 
8.1292653e-01 5.1219177e-01 0.0000000e+00 
6.4999998e-01 9.1339743e-01 0.0000000e+00 
9.4903819e-02 6.5753615e-01 0.0000000e+00 
3.4647793e-01 8.5224926e-02 0.0000000e+00 
9.1339743e-01 6.4999998e-01 0.0000000e+00 
8.3004320e-01 4.0203196e-01 0.0000000e+00 
8.3633298e-01 3.0639145e-01 0.0000000e+00 
7.4173015e-01 4.3506145e-01 0.0000000e+00 
9.1635197e-01 2.5751698e-01 0.0000000e+00 
4.4999999e-01 9.1524893e-01 0.0000000e+00 
5.4990965e-01 6.0638523e-01 0.0000000e+00 
3.4897196e-01 4.3124291e-01 0.0000000e+00 
6.5070385e-01 6.0805732e-01 0.0000000e+00 
4.9951929e-01 1.7088418e-01 0.0000000e+00 
6.4682627e-01 4.3563104e-01 0.0000000e+00 
3.9496639e-01 1.7007479e-01 0.0000000e+00 
9.2003214e-01 8.4667110e-01 0.0000000e+00 
8.4628856e-01 8.0417827e-02 0.0000000e+00 
9.0504780e-02 8.4245151e-01 0.0000000e+00 
1.5290669e-01 8.2261533e-02 0.0000000e+00 
7.5581288e-01 2.6161289e-01 0.0000000e+00 
2.9022500e-01 1.7048772e-01 0.0000000e+00 
7.0076448e-01 5.2269316e-01 0.0000000e+00 
8.3802330e-01 7.9983431e-01 0.0000000e+00 
8.4137177e-01 6.0186249e-01 0.0000000e+00 
1.6660626e-01 5.9922481e-01 0.0000000e+00 
3.5146821e-01 7.6715195e-01 0.0000000e+00 
6.7398138e-02 4.4853568e-01 0.0000000e+00 
6.0000002e-01 8.4641016e-01 0.0000000e+00 
6.9999999e-01 8.4641016e-01 0.0000000e+00 
5.0000000e-01 8.4641016e-01 0.0000000e+00 
2.5092945e-01 7.6027036e-01 0.0000000e+00 
4.0000001e-01 8.4656054e-01 0.0000000e+00 
6.1870042e-02 2.5000000e-01 0.0000000e+00 
9.2679495e-01 7.3205084e-02 0.0000000e+00 
7.3205084e-02 7.3205084e-02 0.0000000e+00 
9.2679495e-01 9.2679495e-01 0.0000000e+00 
7.3205084e-02 9.2679495e-01 0.0000000e+00 
1.5420890e-01 7.5578600e-01 0.0000000e+00 
7.7540809e-01 8.4997970e-01 0.0000000e+00 
7.7320510e-01 3.4999999e-01 0.0000000e+00 
8.4417260e-01 2.3009899e-01 0.0000000e+00 

CELLS 246 984
3 82 124 102
3 41 93 91
3 81 106 48
3 90 140 104
3 104 140 49
3 41 129 93
3 102 126 82
3 48 125 81
3 102 124 109
3 54 100 95
3 98 99 68
3 117 123 105
3 95 135 54
3 97 98 68
3 120 140 86
3 46 95 94
3 81 126 106
3 104 127 90
3 97 113 92
3 46 94 93
3 53 120 86
3 116 124 65
3 83 119 52
3 61 99 59
3 68 99 61
3 98 123 117
3 68 113 97
3 94 97 92
3 109 116 73
3 81 125 80
3 128 133 74
3 91 127 41
3 52 143 83
3 109 124 116
3 84 125 118
3 95 96 94
3 99 115 59
3 49 140 120
3 105 123 50
3 96 97 94
3 95 100 96
3 100 121 50
3 87 133 128
3 96 98 97
3 50 123 100
3 28 85 45
3 29 85 28
3 67 71 69
3 71 74 69
3 85 87 45
3 47 88 9
3 41 104 34
3 58 59 57
3 58 60 59
3 7 105 6
3 10 47 9
3 10 55 47
3 35 41 34
3 56 58 57
3 14 110 52
3 16 44 15
3 16 101 44
3 42 101 17
3 19 106 18
3 20 48 19
3 48 106 19
3 23 84 22
3 24 51 23
3 24 103 51
3 26 43 25
3 43 103 25
3 26 111 43
3 53 85 29
3 42 102 101
3 101 107 44
3 108 110 44
3 55 56 47
3 64 112 67
3 65 114 112
3 67 72 71
3 69 89 70
3 74 89 69
3 89 91 70
3 72 76 75
3 72 112 77
3 77 78 76
3 112 114 77
3 8 88 40
3 11 55 10
3 33 49 32
3 6 50 5
3 8 40 7
3 14 52 13
3 37 46 36
3 55 83 56
3 62 63 61
3 64 66 63
3 91 92 70
3 86 87 85
3 39 54 38
3 6 105 50
3 40 105 7
3 15 110 14
3 44 110 15
3 17 101 16
3 27 111 26
3 28 45 27
3 30 53 29
3 33 104 49
3 107 108 44
3 57 88 47
3 64 67 66
3 70 113 66
3 67 112 72
3 72 75 71
3 74 90 89
3 77 114 79
3 93 94 92
3 102 107 101
3 102 109 107
3 9 88 8
3 58 73 60
3 60 61 59
3 63 68 61
3 62 65 64
3 66 113 63
3 77 79 78
3 91 93 92
3 62 64 63
3 63 113 68
3 92 113 70
3 34 104 33
3 56 57 47
3 53 86 85
3 18 42 17
3 51 84 23
3 25 103 24
3 45 111 27
3 60 62 61
3 65 112 64
3 67 69 66
3 79 81 80
3 79 82 81
3 18 106 42
3 69 70 66
3 79 80 78
3 79 114 82
3 72 77 76
3 73 142 109
3 84 141 125
3 88 115 40
3 59 115 57
3 115 117 40
3 98 117 99
3 62 116 65
3 73 116 60
3 57 115 88
3 99 117 115
3 32 120 31
3 55 119 83
3 12 119 11
3 21 118 20
3 58 122 73
3 83 122 56
3 93 129 46
3 5 121 4
3 60 116 62
3 50 121 5
3 65 124 114
3 100 123 96
3 42 126 102
3 82 126 81
3 90 127 89
3 40 117 105
3 46 135 95
3 11 119 55
3 49 120 32
3 20 118 48
3 54 121 100
3 71 128 74
3 35 129 41
3 46 129 36
3 87 134 45
3 56 122 58
3 54 135 38
3 37 135 46
3 1 136 12
3 13 136 1
3 4 137 0
3 0 137 39
3 2 138 21
3 22 138 2
3 3 139 30
3 31 139 3
3 110 143 52
3 109 142 107
3 96 123 98
3 83 143 122
3 114 124 82
3 89 127 91
3 106 126 42
3 41 127 104
3 122 142 73
3 122 143 108
3 118 125 48
3 51 141 84
3 128 134 87
3 75 128 71
3 36 129 35
3 132 134 75
3 43 130 103
3 78 130 76
3 111 132 43
3 86 133 87
3 76 132 75
3 103 131 51
3 78 131 130
3 130 131 103
3 74 133 90
3 80 131 78
3 130 132 76
3 43 132 130
3 111 134 132
3 45 134 111
3 108 142 122
3 12 136 119
3 120 139 31
3 21 138 118
3 38 135 37
3 52 136 13
3 30 139 53
3 39 137 54
3 84 138 22
3 121 137 4
3 107 142 108
3 108 143 110
3 118 138 84
3 53 139 120
3 119 136 52
3 54 137 121
3 75 134 128
3 86 140 133
3 133 140 90
3 125 141 80
3 80 141 131
3 131 141 51

CELL_TYPES 246
5
5
5
5
5
5
5
5
5
5
5
5
5
5
5
5
5
5
5
5
5
5
5
5
5
5
5
5
5
5
5
5
5
5
5
5
5
5
5
5
5
5
5
5
5
5
5
5
5
5
5
5
5
5
5
5
5
5
5
5
5
5
5
5
5
5
5
5
5
5
5
5
5
5
5
5
5
5
5
5
5
5
5
5
5
5
5
5
5
5
5
5
5
5
5
5
5
5
5
5
5
5
5
5
5
5
5
5
5
5
5
5
5
5
5
5
5
5
5
5
5
5
5
5
5
5
5
5
5
5
5
5
5
5
5
5
5
5
5
5
5
5
5
5
5
5
5
5
5
5
5
5
5
5
5
5
5
5
5
5
5
5
5
5
5
5
5
5
5
5
5
5
5
5
5
5
5
5
5
5
5
5
5
5
5
5
5
5
5
5
5
5
5
5
5
5
5
5
5
5
5
5
5
5
5
5
5
5
5
5
5
5
5
5
5
5
5
5
5
5
5
5
5
5
5
5
5
5
5
5
5
5
5
5
5
5
5
5
5
5
5
5
5
5
5
5
POINT_DATA 144
FIELD FieldData 2
DISPLACEMENT 3 144  float
0.0000000e+00 0.0000000e+00 0.0000000e+00 
0.0000000e+00 0.0000000e+00 0.0000000e+00 
0.0000000e+00 -1.5683107e-05 0.0000000e+00 
0.0000000e+00 -1.5552088e-05 0.0000000e+00 
0.0000000e+00 0.0000000e+00 0.0000000e+00 
0.0000000e+00 0.0000000e+00 0.0000000e+00 
0.0000000e+00 0.0000000e+00 0.0000000e+00 
0.0000000e+00 0.0000000e+00 0.0000000e+00 
0.0000000e+00 0.0000000e+00 0.0000000e+00 
0.0000000e+00 0.0000000e+00 0.0000000e+00 
0.0000000e+00 0.0000000e+00 0.0000000e+00 
0.0000000e+00 0.0000000e+00 0.0000000e+00 
0.0000000e+00 0.0000000e+00 0.0000000e+00 
0.0000000e+00 -1.5703789e-06 0.0000000e+00 
0.0000000e+00 -3.1429488e-06 0.0000000e+00 
0.0000000e+00 -4.7147082e-06 0.0000000e+00 
0.0000000e+00 -6.2845215e-06 0.0000000e+00 
0.0000000e+00 -7.8537005e-06 0.0000000e+00 
0.0000000e+00 -9.4229908e-06 0.0000000e+00 
0.0000000e+00 -1.0991147e-05 0.0000000e+00 
0.0000000e+00 -1.2557014e-05 0.0000000e+00 
0.0000000e+00 -1.4122504e-05 0.0000000e+00 
2.4004176e-08 -1.5667127e-05 0.0000000e+00 
4.7979345e-08 -1.5626880e-05 0.0000000e+00 
6.0771470e-08 -1.5578848e-05 0.0000000e+00 
5.9903002e-08 -1.5540509e-05 0.0000000e+00 
4.5618034e-08 -1.5525640e-05 0.0000000e+00 
3.0406746e-08 -1.5526693e-05 0.0000000e+00 
2.2438885e-08 -1.5523632e-05 0.0000000e+00 
8.4304173e-09 -1.5537664e-05 0.0000000e+00 
1.7411191e-09 -1.5550459e-05 0.0000000e+00 
0.0000000e+00 -1.3988092e-05 0.0000000e+00 
0.0000000e+00 -1.2430884e-05 0.0000000e+00 
0.0000000e+00 -1.0869706e-05 0.0000000e+00 
0.0000000e+00 -9.3121316e-06 0.0000000e+00 
0.0000000e+00 -7.7572713e-06 0.0000000e+00 
0.0000000e+00 -6.1981177e-06 0.0000000e+00 
0.0000000e+00 -4.6369646e-06 0.0000000e+00 
0.0000000e+00 -3.0811341e-06 0.0000000e+00 
0.0000000e+00 -1.5350435e-06 0.0000000e+00 
-2.8080431e-09 -1.3191432e-06 0.0000000e+00 
4.5939470e-09 -8.3149880e-06 0.0000000e+00 
-4.5368616e-09 -8.6353275e-06 0.0000000e+00 
3.9323869e-08 -1.4176444e-05 0.0000000e+00 
-5.4081437e-09 -5.4985671e-06 0.0000000e+00 
2.2993911e-08 -1.4224416e-05 0.0000000e+00 
2.1712639e-08 -5.3888925e-06 0.0000000e+00 
-1.1536837e-08 -1.3538919e-06 0.0000000e+00 
-1.9982012e-09 -1.1737193e-05 0.0000000e+00 
6.1892989e-09 -1.1663501e-05 0.0000000e+00 
1.4330480e-08 -1.3036927e-06 0.0000000e+00 
2.7550909e-08 -1.4356832e-05 0.0000000e+00 
-7.3511739e-09 -2.4920321e-06 0.0000000e+00 
7.1501201e-09 -1.4223246e-05 0.0000000e+00 
1.7214671e-08 -2.4967121e-06 0.0000000e+00 
-1.0318344e-08 -1.3501793e-06 0.0000000e+00 
-1.3701222e-08 -2.7002495e-06 0.0000000e+00 
-9.8798099e-09 -2.6987746e-06 0.0000000e+00 
-5.5733351e-09 -4.0429982e-06 0.0000000e+00 
7.7420879e-09 -4.0029554e-06 0.0000000e+00 
1.1698578e-08 -5.3720837e-06 0.0000000e+00 
3.2876510e-08 -5.3461231e-06 0.0000000e+00 
2.8848863e-08 -6.6971770e-06 0.0000000e+00 
4.9377867e-08 -6.6644975e-06 0.0000000e+00 
3.7281509e-08 -8.0260916e-06 0.0000000e+00 
1.9325334e-08 -8.0912187e-06 0.0000000e+00 
4.7021036e-08 -8.0023674e-06 0.0000000e+00 
3.6793882e-08 -9.3621265e-06 0.0000000e+00 
5.2924996e-08 -5.2505593e-06 0.0000000e+00 
3.0701649e-08 -9.3623457e-06 0.0000000e+00 
3.9454786e-08 -8.0107429e-06 0.0000000e+00 
3.2252981e-08 -1.0692977e-05 0.0000000e+00 
3.6208252e-08 -1.0719848e-05 0.0000000e+00 
-8.5376262e-10 -5.4443135e-06 0.0000000e+00 
1.8786251e-08 -1.0652660e-05 0.0000000e+00 
3.6567542e-08 -1.2023633e-05 0.0000000e+00 
3.6969460e-08 -1.2086166e-05 0.0000000e+00 
2.7418691e-08 -1.0756778e-05 0.0000000e+00 
2.6472470e-08 -1.2123465e-05 0.0000000e+00 
1.4690062e-08 -1.0798692e-05 0.0000000e+00 
1.3041401e-08 -1.2150481e-05 0.0000000e+00 
1.8556415e-09 -1.0903452e-05 0.0000000e+00 
1.0471191e-09 -9.4454099e-06 0.0000000e+00 
-1.2558793e-08 -2.5819650e-06 0.0000000e+00 
8.8015737e-09 -1.4180229e-05 0.0000000e+00 
1.9147093e-08 -1.4187514e-05 0.0000000e+00 
1.7578214e-08 -1.2984766e-05 0.0000000e+00 
2.1021011e-08 -1.3041134e-05 0.0000000e+00 
-9.5512087e-09 -1.3408817e-06 0.0000000e+00 
1.5549935e-08 -9.3546514e-06 0.0000000e+00 
9.9284065e-09 -1.0496799e-05 0.0000000e+00 
2.1514586e-08 -8.0379823e-06 0.0000000e+00 
4.8913556e-08 -6.6359462e-06 0.0000000e+00 
2.6777508e-08 -6.7559904e-06 0.0000000e+00 
4.7293891e-08 -5.2994669e-06 0.0000000e+00 
3.5019518e-08 -3.9693605e-06 0.0000000e+00 
4.8135700e-08 -3.8923436e-06 0.0000000e+00 
5.9657374e-08 -5.2331916e-06 0.0000000e+00 
4.4382801e-08 -3.8541612e-06 0.0000000e+00 
2.7272685e-08 -3.9098404e-06 0.0000000e+00 
3.0758510e-08 -2.6097521e-06 0.0000000e+00 
-4.6123700e-09 -7.0668930e-06 0.0000000e+00 
-4.4521604e-09 -8.0241407e-06 0.0000000e+00 
3.5911395e-08 -1.4209293e-05 0.0000000e+00 
5.3393645e-09 -1.0203361e-05 0.0000000e+00 
7.1160122e-09 -1.3041557e-06 0.0000000e+00 
-4.2235357e-09 -1.0203750e-05 0.0000000e+00 
-5.1834621e-09 -6.3041898e-06 0.0000000e+00 
-8.9999688e-09 -4.8079005e-06 0.0000000e+00 
-7.7803369e-10 -6.8020281e-06 0.0000000e+00 
-6.6980426e-09 -4.0467698e-06 0.0000000e+00 
3.2029046e-08 -1.4198950e-05 0.0000000e+00 
2.7787969e-08 -9.3955941e-06 0.0000000e+00 
5.8581040e-08 -6.6213993e-06 0.0000000e+00 
1.3351645e-08 -9.4630732e-06 0.0000000e+00 
1.0592853e-09 -2.6423461e-06 0.0000000e+00 
1.0243492e-08 -6.7840119e-06 0.0000000e+00 
1.7307986e-08 -2.6072883e-06 0.0000000e+00 
-1.5337148e-09 -1.3284025e-05 0.0000000e+00 
-7.0901836e-09 -1.2623275e-06 0.0000000e+00 
3.2019107e-09 -1.3091973e-05 0.0000000e+00 
1.3565441e-08 -1.2557117e-06 0.0000000e+00 
-1.1044579e-08 -4.0982732e-06 0.0000000e+00 
3.0172366e-08 -2.6016123e-06 0.0000000e+00 
4.4971586e-09 -8.1552334e-06 0.0000000e+00 
1.9041659e-09 -1.2528407e-05 0.0000000e+00 
-4.3468944e-09 -9.4335592e-06 0.0000000e+00 
6.8644952e-09 -9.2903383e-06 0.0000000e+00 
2.6140897e-08 -1.1885743e-05 0.0000000e+00 
1.0448428e-08 -6.9512444e-06 0.0000000e+00 
3.1972167e-08 -1.3146661e-05 0.0000000e+00 
2.0621256e-08 -1.3189510e-05 0.0000000e+00 
3.5415095e-08 -1.3122604e-05 0.0000000e+00 
1.8967743e-08 -1.1788048e-05 0.0000000e+00 
2.7483674e-08 -1.3125403e-05 0.0000000e+00 
1.5840392e-08 -3.8536714e-06 0.0000000e+00 
-3.1047358e-09 -1.1493628e-06 0.0000000e+00 
6.4800281e-09 -1.1211131e-06 0.0000000e+00 
5.2924420e-09 -1.4535397e-05 0.0000000e+00 
3.8218610e-09 -1.4407849e-05 0.0000000e+00 
1.5291711e-08 -1.1725195e-05 0.0000000e+00 
1.0951728e-08 -1.3283064e-05 0.0000000e+00 
-5.6264629e-09 -5.4808061e-06 0.0000000e+00 
-1.0658698e-08 -3.6126319e-06 0.0000000e+00 
VELOCITY 3 144  float
0.0000000e+00 0.0000000e+00 0.0000000e+00 
0.0000000e+00 0.0000000e+00 0.0000000e+00 
0.0000000e+00 9.9492594e-05 0.0000000e+00 
0.0000000e+00 3.6415917e-05 0.0000000e+00 
0.0000000e+00 0.0000000e+00 0.0000000e+00 
0.0000000e+00 0.0000000e+00 0.0000000e+00 
0.0000000e+00 0.0000000e+00 0.0000000e+00 
0.0000000e+00 0.0000000e+00 0.0000000e+00 
0.0000000e+00 0.0000000e+00 0.0000000e+00 
0.0000000e+00 0.0000000e+00 0.0000000e+00 
0.0000000e+00 0.0000000e+00 0.0000000e+00 
0.0000000e+00 0.0000000e+00 0.0000000e+00 
0.0000000e+00 0.0000000e+00 0.0000000e+00 
0.0000000e+00 9.9653053e-06 0.0000000e+00 
0.0000000e+00 1.9244171e-05 0.0000000e+00 
0.0000000e+00 2.7712344e-05 0.0000000e+00 
0.0000000e+00 3.4850167e-05 0.0000000e+00 
0.0000000e+00 4.1933723e-05 0.0000000e+00 
0.0000000e+00 5.2984433e-05 0.0000000e+00 
0.0000000e+00 6.7929424e-05 0.0000000e+00 
0.0000000e+00 7.9718804e-05 0.0000000e+00 
0.0000000e+00 8.8275039e-05 0.0000000e+00 
-3.8716378e-05 1.8047128e-04 0.0000000e+00 
-5.7334320e-05 2.5210160e-04 0.0000000e+00 
-8.6117550e-05 3.0132628e-04 0.0000000e+00 
-1.2169068e-04 3.0407254e-04 0.0000000e+00 
-1.3855324e-04 2.9738687e-04 0.0000000e+00 
-1.3483026e-04 3.0805590e-04 0.0000000e+00 
-1.3797093e-04 2.9407159e-04 0.0000000e+00 
-1.4103703e-04 2.2424286e-04 0.0000000e+00 
-9.2178510e-05 1.8748723e-04 0.0000000e+00 
0.0000000e+00 8.1914797e-05 0.0000000e+00 
0.0000000e+00 7.7228688e-05 0.0000000e+00 
0.0000000e+00 7.0827460e-05 0.0000000e+00 
0.0000000e+00 7.7139477e-05 0.0000000e+00 
0.0000000e+00 6.9842659e-05 0.0000000e+00 
0.0000000e+00 5.7463574e-05 0.0000000e+00 
0.0000000e+00 4.4410965e-05 0.0000000e+00 
0.0000000e+00 3.3009335e-05 0.0000000e+00 
0.0000000e+00 1.9533700e-05 0.0000000e+00 
3.4542275e-06 1.9496238e-05 0.0000000e+00 
2.0953835e-06 8.3358194e-05 0.0000000e+00 
-1.3153326e-05 7.4547184e-05 0.0000000e+00 
-8.7599314e-05 2.7152602e-04 0.0000000e+00 
-9.6740387e-06 4.6588459e-05 0.0000000e+00 
-8.4374646e-05 2.6889736e-04 0.0000000e+00 
1.5520444e-06 5.2362255e-05 0.0000000e+00 
-3.2934245e-06 1.8329289e-05 0.0000000e+00 
-1.9061979e-05 1.2136571e-04 0.0000000e+00 
-2.1699125e-06 8.5046253e-05 0.0000000e+00 
1.1345303e-05 2.2506694e-05 0.0000000e+00 
-4.7443547e-05 2.6081046e-04 0.0000000e+00 
-5.9082754e-06 2.2870823e-05 0.0000000e+00 
-5.8481262e-05 1.4982682e-04 0.0000000e+00 
9.3303051e-06 3.0916639e-05 0.0000000e+00 
-5.6164240e-06 1.5947124e-05 0.0000000e+00 
-6.9316266e-06 3.6888046e-05 0.0000000e+00 
-2.0674354e-06 3.9555634e-05 0.0000000e+00 
-5.9687509e-06 6.1683291e-05 0.0000000e+00 
1.7366457e-06 6.3328116e-05 0.0000000e+00 
-4.9334990e-06 8.8810833e-05 0.0000000e+00 
3.3307576e-06 8.8558292e-05 0.0000000e+00 
-5.9651752e-06 1.1563690e-04 0.0000000e+00 
-2.5249196e-06 1.0656575e-04 0.0000000e+00 
-9.1287193e-06 1.3650778e-04 0.0000000e+00 
-9.6623244e-06 1.4847565e-04 0.0000000e+00 
-1.1559195e-05 1.1610429e-04 0.0000000e+00 
-1.1853465e-05 1.5105908e-04 0.0000000e+00 
1.0100684e-05 8.3351588e-05 0.0000000e+00 
-1.1812153e-05 1.2748931e-04 0.0000000e+00 
-1.2839556e-05 9.5841257e-05 0.0000000e+00 
-1.7792141e-05 1.6723007e-04 0.0000000e+00 
-1.8162649e-05 1.9177578e-04 0.0000000e+00 
-1.1808477e-05 8.3123094e-05 0.0000000e+00 
-3.0025847e-06 1.5129698e-04 0.0000000e+00 
-4.9385679e-05 2.0589605e-04 0.0000000e+00 
-4.7464346e-05 2.2821740e-04 0.0000000e+00 
-1.3045476e-05 2.1205057e-04 0.0000000e+00 
-4.0091712e-05 2.3739401e-04 0.0000000e+00 
-1.4952378e-05 1.9975768e-04 0.0000000e+00 
-4.0869287e-05 2.0404471e-04 0.0000000e+00 
-2.4137833e-05 1.4356557e-04 0.0000000e+00 
-1.6347154e-05 1.4503743e-04 0.0000000e+00 
-9.4061470e-06 2.8388269e-05 0.0000000e+00 
-3.4365585e-05 1.9307568e-04 0.0000000e+00 
-7.3317708e-05 2.2516515e-04 0.0000000e+00 
-3.4727225e-05 1.6000356e-04 0.0000000e+00 
-4.8340778e-05 2.1862113e-04 0.0000000e+00 
-3.8232250e-07 1.8471272e-05 0.0000000e+00 
-1.9628221e-06 1.1359026e-04 0.0000000e+00 
1.5437030e-05 1.3345439e-04 0.0000000e+00 
-7.7024770e-06 8.5100786e-05 0.0000000e+00 
-5.9934564e-06 7.4232070e-05 0.0000000e+00 
-4.9849205e-06 6.6112065e-05 0.0000000e+00 
5.0590829e-06 5.8776521e-05 0.0000000e+00 
1.1127708e-05 4.5835342e-05 0.0000000e+00 
1.8062483e-05 5.5562319e-05 0.0000000e+00 
1.0224476e-05 7.2298652e-05 0.0000000e+00 
1.8805784e-05 6.2971238e-05 0.0000000e+00 
1.1514722e-05 6.4029518e-05 0.0000000e+00 
1.7036178e-05 3.8584087e-05 0.0000000e+00 
-1.2654301e-05 5.9316353e-05 0.0000000e+00 
-2.2018276e-05 9.3868526e-05 0.0000000e+00 
-6.4512111e-05 2.8363106e-04 0.0000000e+00 
1.4140265e-05 9.5476011e-05 0.0000000e+00 
8.3755449e-06 2.1808981e-05 0.0000000e+00 
-1.3306265e-05 9.6296943e-05 0.0000000e+00 
-1.7719103e-05 6.6955319e-05 0.0000000e+00 
-1.3708112e-05 4.9599650e-05 0.0000000e+00 
-1.8472927e-05 9.7627177e-05 0.0000000e+00 
-7.1197360e-06 3.4580062e-05 0.0000000e+00 
-9.6198128e-05 2.6379572e-04 0.0000000e+00 
-7.7657060e-06 1.7474353e-04 0.0000000e+00 
-3.0684498e-06 9.0882793e-05 0.0000000e+00 
-7.6398619e-06 1.8035425e-04 0.0000000e+00 
4.6159644e-06 4.0116589e-05 0.0000000e+00 
-1.1955245e-05 1.1572606e-04 0.0000000e+00 
1.3105805e-05 4.3159842e-05 0.0000000e+00 
-2.0447509e-05 1.3892280e-04 0.0000000e+00 
-4.8493071e-06 1.3214902e-05 0.0000000e+00 
-2.0124417e-05 9.8542623e-05 0.0000000e+00 
9.5265123e-06 1.9984909e-05 0.0000000e+00 
-1.1804891e-05 5.2540800e-05 0.0000000e+00 
1.8777773e-05 4.3837132e-05 0.0000000e+00 
-1.5296591e-05 1.3684834e-04 0.0000000e+00 
-4.1580646e-05 1.5908087e-04 0.0000000e+00 
-1.8748800e-05 1.0689763e-04 0.0000000e+00 
8.4280773e-06 1.0459947e-04 0.0000000e+00 
-3.1315816e-05 1.9050325e-04 0.0000000e+00 
-1.2190234e-06 6.7437017e-05 0.0000000e+00 
-6.6200846e-05 2.5633801e-04 0.0000000e+00 
-5.3072898e-05 2.4878402e-04 0.0000000e+00 
-7.8504243e-05 2.3815325e-04 0.0000000e+00 
-4.2620809e-06 1.7066875e-04 0.0000000e+00 
-7.2970150e-05 2.2987573e-04 0.0000000e+00 
5.5227251e-06 4.0307772e-05 0.0000000e+00 
-2.7699482e-06 1.0613900e-05 0.0000000e+00 
4.5427732e-06 1.5785308e-05 0.0000000e+00 
-1.5745058e-05 1.5350142e-04 0.0000000e+00 
-1.2784194e-05 1.1818059e-04 0.0000000e+00 
1.5470740e-06 1.2418027e-04 0.0000000e+00 
-4.8343503e-05 2.1436810e-04 0.0000000e+00 
-1.5643431e-05 6.9423288e-05 0.0000000e+00 
-1.0726540e-05 3.6074405e-05 0.0000000e+00 
CELL_DATA 246
FIELD FieldData 0
