# vtk DataFile Version 4.0
vtk output
ASCII
DATASET UNSTRUCTURED_GRID
POINTS 144 float
0.0000000e+00 0.0000000e+00 0.0000000e+00 
1.0000000e+00 0.0000000e+00 0.0000000e+00 
1.0000000e+00 1.0000000e+00 0.0000000e+00 
0.0000000e+00 1.0000000e+00 0.0000000e+00 
1.0000000e-01 0.0000000e+00 0.0000000e+00 
2.0000000e-01 0.0000000e+00 0.0000000e+00 
3.0000001e-01 0.0000000e+00 0.0000000e+00 
4.0000001e-01 0.0000000e+00 0.0000000e+00 
5.0000000e-01 0.0000000e+00 0.0000000e+00 
6.0000002e-01 0.0000000e+00 0.0000000e+00 
6.9999999e-01 0.0000000e+00 0.0000000e+00 
8.0000001e-01 0.0000000e+00 0.0000000e+00 
8.9999998e-01 0.0000000e+00 0.0000000e+00 
1.0000000e+00 1.0000000e-01 0.0000000e+00 
1.0000000e+00 2.0000000e-01 0.0000000e+00 
1.0000000e+00 3.0000001e-01 0.0000000e+00 
1.0000000e+00 4.0000001e-01 0.0000000e+00 
1.0000000e+00 5.0000000e-01 0.0000000e+00 
1.0000000e+00 6.0000002e-01 0.0000000e+00 
1.0000000e+00 6.9999999e-01 0.0000000e+00 
1.0000000e+00 8.0000001e-01 0.0000000e+00 
1.0000000e+00 8.9999998e-01 0.0000000e+00 
8.9999998e-01 1.0000000e+00 0.0000000e+00 
8.0000001e-01 1.0000000e+00 0.0000000e+00 
6.9999999e-01 1.0000000e+00 0.0000000e+00 
6.0000002e-01 1.0000000e+00 0.0000000e+00 
5.0000000e-01 1.0000000e+00 0.0000000e+00 
4.0000001e-01 1.0000000e+00 0.0000000e+00 
3.0000001e-01 1.0000000e+00 0.0000000e+00 
2.0000000e-01 1.0000000e+00 0.0000000e+00 
1.0000000e-01 1.0000000e+00 0.0000000e+00 
0.0000000e+00 8.9999998e-01 0.0000000e+00 
0.0000000e+00 8.0000001e-01 0.0000000e+00 
0.0000000e+00 6.9999999e-01 0.0000000e+00 
0.0000000e+00 6.0000002e-01 0.0000000e+00 
0.0000000e+00 5.0000000e-01 0.0000000e+00 
0.0000000e+00 4.0000001e-01 0.0000000e+00 
0.0000000e+00 3.0000001e-01 0.0000000e+00 
0.0000000e+00 2.0000000e-01 0.0000000e+00 
0.0000000e+00 1.0000000e-01 0.0000000e+00 
4.5033512e-01 8.5524812e-02 0.0000000e+00 
9.5000088e-02 5.3608972e-01 0.0000000e+00 
9.1547006e-01 5.5000001e-01 0.0000000e+00 
5.5000001e-01 9.1339743e-01 0.0000000e+00 
9.1339743e-01 3.4999999e-01 0.0000000e+00 
3.4999999e-01 9.1669172e-01 0.0000000e+00 
8.8579953e-02 3.4872410e-01 0.0000000e+00 
6.4999998e-01 8.6602539e-02 0.0000000e+00 
9.1127491e-01 7.4795848e-01 0.0000000e+00 
6.6607341e-02 7.5098073e-01 0.0000000e+00 
2.4514475e-01 8.5484609e-02 0.0000000e+00 
7.4680746e-01 9.1993588e-01 0.0000000e+00 
9.0420872e-01 1.5861149e-01 0.0000000e+00 
1.5042374e-01 9.1532278e-01 0.0000000e+00 
8.7588154e-02 1.6267365e-01 0.0000000e+00 
7.4918270e-01 8.6130671e-02 0.0000000e+00 
6.9882751e-01 1.7252813e-01 0.0000000e+00 
6.0000002e-01 1.7320508e-01 0.0000000e+00 
6.4876831e-01 2.5909650e-01 0.0000000e+00 
5.4933882e-01 2.5818285e-01 0.0000000e+00 
5.9902751e-01 3.4564152e-01 0.0000000e+00 
5.0000000e-01 3.4641016e-01 0.0000000e+00 
5.4918092e-01 4.3250528e-01 0.0000000e+00 
4.4986349e-01 4.3292814e-01 0.0000000e+00 
4.9984074e-01 5.1951659e-01 0.0000000e+00 
5.9917998e-01 5.2102238e-01 0.0000000e+00 
3.9995071e-01 5.1958472e-01 0.0000000e+00 
4.4996524e-01 6.0619622e-01 0.0000000e+00 
3.9827734e-01 3.4236532e-01 0.0000000e+00 
3.4998599e-01 6.0620910e-01 0.0000000e+00 
2.9998946e-01 5.1960868e-01 0.0000000e+00 
4.0246150e-01 6.9138944e-01 0.0000000e+00 
5.0040448e-01 6.9257826e-01 0.0000000e+00 
6.9183892e-01 3.4861544e-01 0.0000000e+00 
3.0287755e-01 6.8788534e-01 0.0000000e+00 
4.5107409e-01 7.7642798e-01 0.0000000e+00 
5.5000001e-01 7.7942288e-01 0.0000000e+00 
6.0006744e-01 6.9277996e-01 0.0000000e+00 
6.4999998e-01 7.7942288e-01 0.0000000e+00 
7.0001125e-01 6.9281358e-01 0.0000000e+00 
7.4810976e-01 7.7827942e-01 0.0000000e+00 
8.1429243e-01 6.9644338e-01 0.0000000e+00 
7.5505483e-01 6.0440248e-01 0.0000000e+00 
7.9754496e-01 1.6455974e-01 0.0000000e+00 
8.4409988e-01 9.0543878e-01 0.0000000e+00 
2.5007063e-01 9.1426742e-01 0.0000000e+00 
1.9948809e-01 8.3684945e-01 0.0000000e+00 
3.0239609e-01 8.4084076e-01 0.0000000e+00 
5.5039096e-01 8.6229436e-02 0.0000000e+00 
2.5227043e-01 6.0435647e-01 0.0000000e+00 
2.0253047e-01 6.7697614e-01 0.0000000e+00 
2.0000000e-01 5.1961523e-01 0.0000000e+00 
2.4994016e-01 4.3122852e-01 0.0000000e+00 
1.5013675e-01 4.3705931e-01 0.0000000e+00 
1.9500943e-01 3.4477931e-01 0.0000000e+00 
1.4187421e-01 2.5843257e-01 0.0000000e+00 
2.4087626e-01 2.5457630e-01 0.0000000e+00 
2.9581064e-01 3.4174213e-01 0.0000000e+00 
3.4302756e-01 2.5211102e-01 0.0000000e+00 
4.4705081e-01 2.5426328e-01 0.0000000e+00 
1.8726690e-01 1.7076795e-01 0.0000000e+00 
9.1374290e-01 4.4999999e-01 0.0000000e+00 
8.1292653e-01 5.1219177e-01 0.0000000e+00 
6.4999998e-01 9.1339743e-01 0.0000000e+00 
9.4903819e-02 6.5753615e-01 0.0000000e+00 
3.4647793e-01 8.5224926e-02 0.0000000e+00 
9.1339743e-01 6.4999998e-01 0.0000000e+00 
8.3004320e-01 4.0203196e-01 0.0000000e+00 
8.3633298e-01 3.0639145e-01 0.0000000e+00 
7.4173015e-01 4.3506145e-01 0.0000000e+00 
9.1635197e-01 2.5751698e-01 0.0000000e+00 
4.4999999e-01 9.1524893e-01 0.0000000e+00 
5.4990965e-01 6.0638523e-01 0.0000000e+00 
3.4897196e-01 4.3124291e-01 0.0000000e+00 
6.5070385e-01 6.0805732e-01 0.0000000e+00 
4.9951929e-01 1.7088418e-01 0.0000000e+00 
6.4682627e-01 4.3563104e-01 0.0000000e+00 
3.9496639e-01 1.7007479e-01 0.0000000e+00 
9.2003214e-01 8.4667110e-01 0.0000000e+00 
8.4628856e-01 8.0417827e-02 0.0000000e+00 
9.0504780e-02 8.4245151e-01 0.0000000e+00 
1.5290669e-01 8.2261533e-02 0.0000000e+00 
7.5581288e-01 2.6161289e-01 0.0000000e+00 
2.9022500e-01 1.7048772e-01 0.0000000e+00 
7.0076448e-01 5.2269316e-01 0.0000000e+00 
8.3802330e-01 7.9983431e-01 0.0000000e+00 
8.4137177e-01 6.0186249e-01 0.0000000e+00 
1.6660626e-01 5.9922481e-01 0.0000000e+00 
3.5146821e-01 7.6715195e-01 0.0000000e+00 
6.7398138e-02 4.4853568e-01 0.0000000e+00 
6.0000002e-01 8.4641016e-01 0.0000000e+00 
6.9999999e-01 8.4641016e-01 0.0000000e+00 
5.0000000e-01 8.4641016e-01 0.0000000e+00 
2.5092945e-01 7.6027036e-01 0.0000000e+00 
4.0000001e-01 8.4656054e-01 0.0000000e+00 
6.1870042e-02 2.5000000e-01 0.0000000e+00 
9.2679495e-01 7.3205084e-02 0.0000000e+00 
7.3205084e-02 7.3205084e-02 0.0000000e+00 
9.2679495e-01 9.2679495e-01 0.0000000e+00 
7.3205084e-02 9.2679495e-01 0.0000000e+00 
1.5420890e-01 7.5578600e-01 0.0000000e+00 
7.7540809e-01 8.4997970e-01 0.0000000e+00 
7.7320510e-01 3.4999999e-01 0.0000000e+00 
8.4417260e-01 2.3009899e-01 0.0000000e+00 

CELLS 246 984
3 82 124 102
3 41 93 91
3 81 106 48
3 90 140 104
3 104 140 49
3 41 129 93
3 102 126 82
3 48 125 81
3 102 124 109
3 54 100 95
3 98 99 68
3 117 123 105
3 95 135 54
3 97 98 68
3 120 140 86
3 46 95 94
3 81 126 106
3 104 127 90
3 97 113 92
3 46 94 93
3 53 120 86
3 116 124 65
3 83 119 52
3 61 99 59
3 68 99 61
3 98 123 117
3 68 113 97
3 94 97 92
3 109 116 73
3 81 125 80
3 128 133 74
3 91 127 41
3 52 143 83
3 109 124 116
3 84 125 118
3 95 96 94
3 99 115 59
3 49 140 120
3 105 123 50
3 96 97 94
3 95 100 96
3 100 121 50
3 87 133 128
3 96 98 97
3 50 123 100
3 28 85 45
3 29 85 28
3 67 71 69
3 71 74 69
3 85 87 45
3 47 88 9
3 41 104 34
3 58 59 57
3 58 60 59
3 7 105 6
3 10 47 9
3 10 55 47
3 35 41 34
3 56 58 57
3 14 110 52
3 16 44 15
3 16 101 44
3 42 101 17
3 19 106 18
3 20 48 19
3 48 106 19
3 23 84 22
3 24 51 23
3 24 103 51
3 26 43 25
3 43 103 25
3 26 111 43
3 53 85 29
3 42 102 101
3 101 107 44
3 108 110 44
3 55 56 47
3 64 112 67
3 65 114 112
3 67 72 71
3 69 89 70
3 74 89 69
3 89 91 70
3 72 76 75
3 72 112 77
3 77 78 76
3 112 114 77
3 8 88 40
3 11 55 10
3 33 49 32
3 6 50 5
3 8 40 7
3 14 52 13
3 37 46 36
3 55 83 56
3 62 63 61
3 64 66 63
3 91 92 70
3 86 87 85
3 39 54 38
3 6 105 50
3 40 105 7
3 15 110 14
3 44 110 15
3 17 101 16
3 27 111 26
3 28 45 27
3 30 53 29
3 33 104 49
3 107 108 44
3 57 88 47
3 64 67 66
3 70 113 66
3 67 112 72
3 72 75 71
3 74 90 89
3 77 114 79
3 93 94 92
3 102 107 101
3 102 109 107
3 9 88 8
3 58 73 60
3 60 61 59
3 63 68 61
3 62 65 64
3 66 113 63
3 77 79 78
3 91 93 92
3 62 64 63
3 63 113 68
3 92 113 70
3 34 104 33
3 56 57 47
3 53 86 85
3 18 42 17
3 51 84 23
3 25 103 24
3 45 111 27
3 60 62 61
3 65 112 64
3 67 69 66
3 79 81 80
3 79 82 81
3 18 106 42
3 69 70 66
3 79 80 78
3 79 114 82
3 72 77 76
3 73 142 109
3 84 141 125
3 88 115 40
3 59 115 57
3 115 117 40
3 98 117 99
3 62 116 65
3 73 116 60
3 57 115 88
3 99 117 115
3 32 120 31
3 55 119 83
3 12 119 11
3 21 118 20
3 58 122 73
3 83 122 56
3 93 129 46
3 5 121 4
3 60 116 62
3 50 121 5
3 65 124 114
3 100 123 96
3 42 126 102
3 82 126 81
3 90 127 89
3 40 117 105
3 46 135 95
3 11 119 55
3 49 120 32
3 20 118 48
3 54 121 100
3 71 128 74
3 35 129 41
3 46 129 36
3 87 134 45
3 56 122 58
3 54 135 38
3 37 135 46
3 1 136 12
3 13 136 1
3 4 137 0
3 0 137 39
3 2 138 21
3 22 138 2
3 3 139 30
3 31 139 3
3 110 143 52
3 109 142 107
3 96 123 98
3 83 143 122
3 114 124 82
3 89 127 91
3 106 126 42
3 41 127 104
3 122 142 73
3 122 143 108
3 118 125 48
3 51 141 84
3 128 134 87
3 75 128 71
3 36 129 35
3 132 134 75
3 43 130 103
3 78 130 76
3 111 132 43
3 86 133 87
3 76 132 75
3 103 131 51
3 78 131 130
3 130 131 103
3 74 133 90
3 80 131 78
3 130 132 76
3 43 132 130
3 111 134 132
3 45 134 111
3 108 142 122
3 12 136 119
3 120 139 31
3 21 138 118
3 38 135 37
3 52 136 13
3 30 139 53
3 39 137 54
3 84 138 22
3 121 137 4
3 107 142 108
3 108 143 110
3 118 138 84
3 53 139 120
3 119 136 52
3 54 137 121
3 75 134 128
3 86 140 133
3 133 140 90
3 125 141 80
3 80 141 131
3 131 141 51

CELL_TYPES 246
5
5
5
5
5
5
5
5
5
5
5
5
5
5
5
5
5
5
5
5
5
5
5
5
5
5
5
5
5
5
5
5
5
5
5
5
5
5
5
5
5
5
5
5
5
5
5
5
5
5
5
5
5
5
5
5
5
5
5
5
5
5
5
5
5
5
5
5
5
5
5
5
5
5
5
5
5
5
5
5
5
5
5
5
5
5
5
5
5
5
5
5
5
5
5
5
5
5
5
5
5
5
5
5
5
5
5
5
5
5
5
5
5
5
5
5
5
5
5
5
5
5
5
5
5
5
5
5
5
5
5
5
5
5
5
5
5
5
5
5
5
5
5
5
5
5
5
5
5
5
5
5
5
5
5
5
5
5
5
5
5
5
5
5
5
5
5
5
5
5
5
5
5
5
5
5
5
5
5
5
5
5
5
5
5
5
5
5
5
5
5
5
5
5
5
5
5
5
5
5
5
5
5
5
5
5
5
5
5
5
5
5
5
5
5
5
5
5
5
5
5
5
5
5
5
5
5
5
5
5
5
5
5
5
5
5
5
5
5
5
5
5
5
5
5
5
POINT_DATA 144
FIELD FieldData 2
DISPLACEMENT 3 144  float
0.0000000e+00 0.0000000e+00 0.0000000e+00 
0.0000000e+00 0.0000000e+00 0.0000000e+00 
0.0000000e+00 -1.5920550e-05 0.0000000e+00 
0.0000000e+00 -1.5920154e-05 0.0000000e+00 
0.0000000e+00 0.0000000e+00 0.0000000e+00 
0.0000000e+00 0.0000000e+00 0.0000000e+00 
0.0000000e+00 0.0000000e+00 0.0000000e+00 
0.0000000e+00 0.0000000e+00 0.0000000e+00 
0.0000000e+00 0.0000000e+00 0.0000000e+00 
0.0000000e+00 0.0000000e+00 0.0000000e+00 
0.0000000e+00 0.0000000e+00 0.0000000e+00 
0.0000000e+00 0.0000000e+00 0.0000000e+00 
0.0000000e+00 0.0000000e+00 0.0000000e+00 
0.0000000e+00 -1.6189322e-06 0.0000000e+00 
0.0000000e+00 -3.2438552e-06 0.0000000e+00 
0.0000000e+00 -4.8714369e-06 0.0000000e+00 
0.0000000e+00 -6.4898295e-06 0.0000000e+00 
0.0000000e+00 -8.0887903e-06 0.0000000e+00 
0.0000000e+00 -9.6708709e-06 0.0000000e+00 
0.0000000e+00 -1.1243923e-05 0.0000000e+00 
0.0000000e+00 -1.2806159e-05 0.0000000e+00 
0.0000000e+00 -1.4361217e-05 0.0000000e+00 
-1.5243284e-10 -1.5921401e-05 0.0000000e+00 
3.4191996e-10 -1.5921227e-05 0.0000000e+00 
3.9477938e-10 -1.5921059e-05 0.0000000e+00 
4.4077034e-10 -1.5921520e-05 0.0000000e+00 
4.6909393e-10 -1.5921230e-05 0.0000000e+00 
5.9152089e-10 -1.5920918e-05 0.0000000e+00 
7.5738038e-10 -1.5920707e-05 0.0000000e+00 
9.8284070e-10 -1.5920858e-05 0.0000000e+00 
6.0574695e-10 -1.5920712e-05 0.0000000e+00 
0.0000000e+00 -1.4360707e-05 0.0000000e+00 
0.0000000e+00 -1.2805906e-05 0.0000000e+00 
0.0000000e+00 -1.1243727e-05 0.0000000e+00 
0.0000000e+00 -9.6715003e-06 0.0000000e+00 
0.0000000e+00 -8.0891068e-06 0.0000000e+00 
0.0000000e+00 -6.4897586e-06 0.0000000e+00 
0.0000000e+00 -4.8715428e-06 0.0000000e+00 
0.0000000e+00 -3.2440153e-06 0.0000000e+00 
0.0000000e+00 -1.6190276e-06 0.0000000e+00 
1.3761750e-10 -1.3840220e-06 0.0000000e+00 
4.1543258e-11 -8.6621685e-06 0.0000000e+00 
-1.7045965e-10 -8.8814113e-06 0.0000000e+00 
2.9335034e-10 -1.4570312e-05 0.0000000e+00 
3.3435374e-10 -5.6824979e-06 0.0000000e+00 
5.0437415e-10 -1.4621266e-05 0.0000000e+00 
-2.0677463e-10 -5.6624267e-06 0.0000000e+00 
-5.8808382e-11 -1.4014360e-06 0.0000000e+00 
-2.0786975e-10 -1.1994774e-05 0.0000000e+00 
2.4785729e-10 -1.2041417e-05 0.0000000e+00 
2.2430091e-10 -1.3836052e-06 0.0000000e+00 
2.7518215e-10 -1.4672067e-05 0.0000000e+00 
-3.4197777e-11 -2.5702991e-06 0.0000000e+00 
2.8910099e-10 -1.4599492e-05 0.0000000e+00 
2.2664677e-11 -2.6367056e-06 0.0000000e+00 
-5.4812745e-11 -1.3938748e-06 0.0000000e+00 
1.9986957e-10 -2.7963847e-06 0.0000000e+00 
1.2918031e-10 -2.8073089e-06 0.0000000e+00 
4.2178697e-10 -4.2058859e-06 0.0000000e+00 
1.9624789e-10 -4.1908429e-06 0.0000000e+00 
3.2791164e-10 -5.6125382e-06 0.0000000e+00 
2.6741186e-11 -5.6249114e-06 0.0000000e+00 
2.1279356e-10 -7.0129086e-06 0.0000000e+00 
7.4948658e-11 -7.0197957e-06 0.0000000e+00 
1.0228559e-11 -8.4000194e-06 0.0000000e+00 
3.4191091e-11 -8.4237381e-06 0.0000000e+00 
3.8355669e-11 -8.4011745e-06 0.0000000e+00 
-2.0626610e-10 -9.7700267e-06 0.0000000e+00 
-2.5356262e-10 -5.5595565e-06 0.0000000e+00 
-1.1539712e-10 -9.7699785e-06 0.0000000e+00 
1.0267886e-10 -8.4011781e-06 0.0000000e+00 
5.4852230e-11 -1.1109934e-05 0.0000000e+00 
-3.1591074e-11 -1.1128732e-05 0.0000000e+00 
3.9105599e-10 -5.6609447e-06 0.0000000e+00 
3.3231619e-11 -1.1054574e-05 0.0000000e+00 
-4.9919631e-11 -1.2439693e-05 0.0000000e+00 
1.3983120e-11 -1.2486454e-05 0.0000000e+00 
-8.6779452e-11 -1.1131834e-05 0.0000000e+00 
-4.7762787e-11 -1.2486452e-05 0.0000000e+00 
-1.0765075e-10 -1.1132179e-05 0.0000000e+00 
-1.7407817e-10 -1.2468455e-05 0.0000000e+00 
-1.4765588e-11 -1.1188946e-05 0.0000000e+00 
-2.1638316e-10 -9.7413449e-06 0.0000000e+00 
2.1110463e-10 -2.6668954e-06 0.0000000e+00 
1.8221515e-10 -1.4445714e-05 0.0000000e+00 
5.9919136e-10 -1.4583190e-05 0.0000000e+00 
4.4186876e-10 -1.3378143e-05 0.0000000e+00 
3.8061967e-10 -1.3440495e-05 0.0000000e+00 
1.0046184e-11 -1.3953849e-06 0.0000000e+00 
-1.0623367e-10 -9.7403390e-06 0.0000000e+00 
-2.2504687e-10 -1.0883080e-05 0.0000000e+00 
2.0905432e-10 -8.4008270e-06 0.0000000e+00 
2.9137866e-11 -6.9923635e-06 0.0000000e+00 
1.9816135e-10 -7.0859214e-06 0.0000000e+00 
-3.6182526e-10 -5.5988148e-06 0.0000000e+00 
-2.5498703e-10 -4.1956700e-06 0.0000000e+00 
-2.9321634e-10 -4.1327535e-06 0.0000000e+00 
-3.9968637e-10 -5.5495902e-06 0.0000000e+00 
-1.5427071e-10 -4.0923546e-06 0.0000000e+00 
4.1330789e-11 -4.1271255e-06 0.0000000e+00 
1.1065944e-10 -2.7683907e-06 0.0000000e+00 
2.1701846e-10 -7.2919847e-06 0.0000000e+00 
-2.2728237e-10 -8.2831266e-06 0.0000000e+00 
4.3344367e-10 -1.4570348e-05 0.0000000e+00 
-3.7070369e-10 -1.0577442e-05 0.0000000e+00 
2.3556740e-10 -1.3792932e-06 0.0000000e+00 
1.2162935e-10 -1.0458471e-05 0.0000000e+00 
2.9248426e-10 -6.5224099e-06 0.0000000e+00 
3.6862408e-10 -4.9747800e-06 0.0000000e+00 
2.4988406e-10 -7.0536566e-06 0.0000000e+00 
2.0545032e-10 -4.1800340e-06 0.0000000e+00 
3.4034339e-10 -1.4599012e-05 0.0000000e+00 
-2.3828331e-10 -9.7729117e-06 0.0000000e+00 
-7.4634320e-11 -6.9928087e-06 0.0000000e+00 
-2.4639973e-10 -9.7990032e-06 0.0000000e+00 
1.4488082e-10 -2.7695824e-06 0.0000000e+00 
3.4707526e-10 -7.0629972e-06 0.0000000e+00 
1.7154476e-10 -2.7565886e-06 0.0000000e+00 
-2.5553623e-10 -1.3530950e-05 0.0000000e+00 
-3.6060460e-11 -1.3013669e-06 0.0000000e+00 
3.2133285e-10 -1.3465020e-05 0.0000000e+00 
6.2528822e-11 -1.3314115e-06 0.0000000e+00 
5.6724714e-10 -4.2467727e-06 0.0000000e+00 
1.6444296e-10 -2.7635760e-06 0.0000000e+00 
-7.4260292e-11 -8.4499170e-06 0.0000000e+00 
-2.1473415e-10 -1.2803505e-05 0.0000000e+00 
-3.4039525e-11 -9.7006423e-06 0.0000000e+00 
-3.1301481e-10 -9.6592221e-06 0.0000000e+00 
-8.3765765e-11 -1.2294755e-05 0.0000000e+00 
2.2912225e-10 -7.2685302e-06 0.0000000e+00 
1.8537125e-10 -1.3527680e-05 0.0000000e+00 
1.4656179e-10 -1.3527617e-05 0.0000000e+00 
2.7494210e-10 -1.3527621e-05 0.0000000e+00 
-3.2499153e-11 -1.2187259e-05 0.0000000e+00 
4.0124934e-10 -1.3529716e-05 0.0000000e+00 
5.0897942e-11 -4.0581081e-06 0.0000000e+00 
5.2698602e-11 -1.1847920e-06 0.0000000e+00 
-5.2982927e-11 -1.1849563e-06 0.0000000e+00 
4.0743264e-10 -1.4779220e-05 0.0000000e+00 
-9.9196013e-11 -1.4778753e-05 0.0000000e+00 
1.6632616e-10 -1.2117282e-05 0.0000000e+00 
2.6163449e-10 -1.3582674e-05 0.0000000e+00 
2.9797168e-10 -5.6824679e-06 0.0000000e+00 
3.3040845e-10 -3.7332773e-06 0.0000000e+00 
VELOCITY 3 144  float
0.0000000e+00 0.0000000e+00 0.0000000e+00 
0.0000000e+00 0.0000000e+00 0.0000000e+00 
0.0000000e+00 1.6253990e-04 0.0000000e+00 
0.0000000e+00 1.6232976e-04 0.0000000e+00 
0.0000000e+00 0.0000000e+00 0.0000000e+00 
0.0000000e+00 0.0000000e+00 0.0000000e+00 
0.0000000e+00 0.0000000e+00 0.0000000e+00 
0.0000000e+00 0.0000000e+00 0.0000000e+00 
0.0000000e+00 0.0000000e+00 0.0000000e+00 
0.0000000e+00 0.0000000e+00 0.0000000e+00 
0.0000000e+00 0.0000000e+00 0.0000000e+00 
0.0000000e+00 0.0000000e+00 0.0000000e+00 
0.0000000e+00 0.0000000e+00 0.0000000e+00 
0.0000000e+00 6.2166532e-06 0.0000000e+00 
0.0000000e+00 1.3297195e-05 0.0000000e+00 
0.0000000e+00 2.7909444e-05 0.0000000e+00 
0.0000000e+00 5.4110969e-05 0.0000000e+00 
0.0000000e+00 8.0670063e-05 0.0000000e+00 
0.0000000e+00 9.2741539e-05 0.0000000e+00 
0.0000000e+00 1.0569790e-04 0.0000000e+00 
0.0000000e+00 1.4160415e-04 0.0000000e+00 
0.0000000e+00 1.5296550e-04 0.0000000e+00 
1.9675549e-06 1.6320744e-04 0.0000000e+00 
-1.9072365e-06 1.6256787e-04 0.0000000e+00 
2.2391372e-08 1.6411854e-04 0.0000000e+00 
-2.3175336e-07 1.6342411e-04 0.0000000e+00 
-4.7389844e-07 1.6344369e-04 0.0000000e+00 
8.9738158e-08 1.6360066e-04 0.0000000e+00 
1.3715292e-06 1.6378716e-04 0.0000000e+00 
1.4056991e-06 1.6347077e-04 0.0000000e+00 
-1.2331700e-06 1.6470831e-04 0.0000000e+00 
0.0000000e+00 1.5229551e-04 0.0000000e+00 
0.0000000e+00 1.4123732e-04 0.0000000e+00 
0.0000000e+00 1.0633067e-04 0.0000000e+00 
0.0000000e+00 9.2761802e-05 0.0000000e+00 
0.0000000e+00 8.0838698e-05 0.0000000e+00 
0.0000000e+00 5.4269858e-05 0.0000000e+00 
0.0000000e+00 2.8281083e-05 0.0000000e+00 
0.0000000e+00 1.3456150e-05 0.0000000e+00 
0.0000000e+00 6.0802563e-06 0.0000000e+00 
-1.5139735e-08 5.7433463e-06 0.0000000e+00 
-6.7303171e-07 8.6722132e-05 0.0000000e+00 
9.8373130e-07 8.8430403e-05 0.0000000e+00 
-1.8904538e-07 1.4951521e-04 0.0000000e+00 
-2.8399731e-07 4.0084797e-05 0.0000000e+00 
1.7303613e-08 1.4894283e-04 0.0000000e+00 
2.4217127e-07 3.9989438e-05 0.0000000e+00 
1.9029129e-07 5.5007654e-06 0.0000000e+00 
-1.5203909e-06 1.2279107e-04 0.0000000e+00 
4.0185128e-07 1.2364527e-04 0.0000000e+00 
-7.4669915e-09 5.2430951e-06 0.0000000e+00 
-9.2974801e-07 1.4821271e-04 0.0000000e+00 
1.8694489e-07 1.0372397e-05 0.0000000e+00 
2.4351260e-07 1.4895055e-04 0.0000000e+00 
-2.2399465e-07 9.9639847e-06 0.0000000e+00 
4.0695227e-07 5.5510109e-06 0.0000000e+00 
4.4494834e-07 1.0920673e-05 0.0000000e+00 
1.9000649e-07 1.1229730e-05 0.0000000e+00 
1.2539435e-07 2.0633292e-05 0.0000000e+00 
-5.0945523e-08 2.0825792e-05 0.0000000e+00 
1.5207624e-07 3.9244638e-05 0.0000000e+00 
1.7496028e-07 3.9760878e-05 0.0000000e+00 
3.6689087e-07 6.4757231e-05 0.0000000e+00 
4.4308049e-07 6.4887594e-05 0.0000000e+00 
3.9629118e-08 8.4907871e-05 0.0000000e+00 
3.8296584e-09 8.5319247e-05 0.0000000e+00 
-1.5237087e-07 8.4841493e-05 0.0000000e+00 
1.7931418e-07 9.2765622e-05 0.0000000e+00 
-8.4158991e-08 3.8806818e-05 0.0000000e+00 
1.7444744e-07 9.2795657e-05 0.0000000e+00 
-4.1696131e-07 8.4990555e-05 0.0000000e+00 
2.1593432e-07 1.0343331e-04 0.0000000e+00 
3.8711542e-07 1.0381811e-04 0.0000000e+00 
-2.2815884e-08 3.9960036e-05 0.0000000e+00 
-2.0886674e-07 1.0232938e-04 0.0000000e+00 
-4.2518084e-07 1.3350110e-04 0.0000000e+00 
-3.4613669e-07 1.3489647e-04 0.0000000e+00 
1.6931803e-07 1.0369744e-04 0.0000000e+00 
-6.1271487e-07 1.3459746e-04 0.0000000e+00 
6.2226746e-08 1.0337082e-04 0.0000000e+00 
-1.7802616e-07 1.3373692e-04 0.0000000e+00 
1.8758180e-07 1.0366413e-04 0.0000000e+00 
7.2978111e-07 9.2143273e-05 0.0000000e+00 
4.1689941e-07 1.0934941e-05 0.0000000e+00 
-8.2801144e-09 1.4919745e-04 0.0000000e+00 
3.2412279e-07 1.4885307e-04 0.0000000e+00 
3.7639913e-07 1.5062111e-04 0.0000000e+00 
6.8970019e-07 1.5109261e-04 0.0000000e+00 
5.8404317e-09 5.6805811e-06 0.0000000e+00 
-6.3949503e-09 9.2600145e-05 0.0000000e+00 
-6.6075052e-07 9.9919023e-05 0.0000000e+00 
-6.8897816e-07 8.4761188e-05 0.0000000e+00 
1.2201333e-07 6.4439948e-05 0.0000000e+00 
6.0441856e-08 6.5991379e-05 0.0000000e+00 
-5.7066071e-08 3.9094677e-05 0.0000000e+00 
-3.1044871e-07 2.0130374e-05 0.0000000e+00 
-6.2206959e-07 1.9850950e-05 0.0000000e+00 
-2.4012834e-07 3.8432951e-05 0.0000000e+00 
-5.8763561e-07 1.9992447e-05 0.0000000e+00 
-3.2633295e-07 2.0564303e-05 0.0000000e+00 
-4.2462435e-07 1.0433511e-05 0.0000000e+00 
-9.2471545e-08 6.9000387e-05 0.0000000e+00 
5.8706229e-07 8.3783823e-05 0.0000000e+00 
-2.0182068e-07 1.4971843e-04 0.0000000e+00 
1.0044741e-07 9.6697411e-05 0.0000000e+00 
3.6540019e-08 5.5654255e-06 0.0000000e+00 
5.8279386e-07 9.6371303e-05 0.0000000e+00 
-2.2841017e-07 5.5436136e-05 0.0000000e+00 
-4.5357848e-07 2.9870478e-05 0.0000000e+00 
-7.5574199e-08 6.5939174e-05 0.0000000e+00 
8.2484846e-08 2.0604788e-05 0.0000000e+00 
-2.0427260e-08 1.4924024e-04 0.0000000e+00 
1.2938200e-07 9.2812479e-05 0.0000000e+00 
2.4123560e-07 6.4420383e-05 0.0000000e+00 
2.6775456e-07 9.3035778e-05 0.0000000e+00 
-7.4257365e-08 1.1427768e-05 0.0000000e+00 
8.7776009e-08 6.5689906e-05 0.0000000e+00 
-2.4504286e-07 1.1375488e-05 0.0000000e+00 
5.9884411e-07 1.5189817e-04 0.0000000e+00 
2.4797737e-07 5.3107856e-06 0.0000000e+00 
-6.8297970e-07 1.5119657e-04 0.0000000e+00 
-1.1767941e-07 4.8768948e-06 0.0000000e+00 
-4.6236647e-08 2.1070884e-05 0.0000000e+00 
-3.8876468e-07 1.0916790e-05 0.0000000e+00 
-7.7876329e-08 8.5634005e-05 0.0000000e+00 
-4.4994755e-07 1.4217582e-04 0.0000000e+00 
5.6104983e-07 9.2069014e-05 0.0000000e+00 
-1.6041763e-07 9.1660848e-05 0.0000000e+00 
-6.5112260e-07 1.2985630e-04 0.0000000e+00 
-4.5238170e-07 6.8404115e-05 0.0000000e+00 
-7.7074347e-08 1.5157250e-04 0.0000000e+00 
-1.1579771e-07 1.5118027e-04 0.0000000e+00 
1.8722123e-07 1.5133058e-04 0.0000000e+00 
2.5459849e-07 1.2710532e-04 0.0000000e+00 
5.6281897e-07 1.5141779e-04 0.0000000e+00 
-5.1108081e-08 1.9529583e-05 0.0000000e+00 
7.4836180e-08 4.7711533e-06 0.0000000e+00 
-8.5859405e-08 4.4373828e-06 0.0000000e+00 
-9.7368991e-07 1.4804884e-04 0.0000000e+00 
1.5337928e-06 1.4771862e-04 0.0000000e+00 
1.4754921e-06 1.2606567e-04 0.0000000e+00 
1.9671685e-08 1.5114275e-04 0.0000000e+00 
-2.4718267e-07 4.0949308e-05 0.0000000e+00 
2.0970855e-07 1.7292703e-05 0.0000000e+00 
CELL_DATA 246
FIELD FieldData 0
