# vtk DataFile Version 4.0
vtk output
ASCII
DATASET UNSTRUCTURED_GRID
POINTS 144 float
0.0000000e+00 0.0000000e+00 0.0000000e+00 
1.0000000e+00 0.0000000e+00 0.0000000e+00 
1.0000000e+00 1.0000000e+00 0.0000000e+00 
0.0000000e+00 1.0000000e+00 0.0000000e+00 
1.0000000e-01 0.0000000e+00 0.0000000e+00 
2.0000000e-01 0.0000000e+00 0.0000000e+00 
3.0000001e-01 0.0000000e+00 0.0000000e+00 
4.0000001e-01 0.0000000e+00 0.0000000e+00 
5.0000000e-01 0.0000000e+00 0.0000000e+00 
6.0000002e-01 0.0000000e+00 0.0000000e+00 
6.9999999e-01 0.0000000e+00 0.0000000e+00 
8.0000001e-01 0.0000000e+00 0.0000000e+00 
8.9999998e-01 0.0000000e+00 0.0000000e+00 
1.0000000e+00 1.0000000e-01 0.0000000e+00 
1.0000000e+00 2.0000000e-01 0.0000000e+00 
1.0000000e+00 3.0000001e-01 0.0000000e+00 
1.0000000e+00 4.0000001e-01 0.0000000e+00 
1.0000000e+00 5.0000000e-01 0.0000000e+00 
1.0000000e+00 6.0000002e-01 0.0000000e+00 
1.0000000e+00 6.9999999e-01 0.0000000e+00 
1.0000000e+00 8.0000001e-01 0.0000000e+00 
1.0000000e+00 8.9999998e-01 0.0000000e+00 
8.9999998e-01 1.0000000e+00 0.0000000e+00 
8.0000001e-01 1.0000000e+00 0.0000000e+00 
6.9999999e-01 1.0000000e+00 0.0000000e+00 
6.0000002e-01 1.0000000e+00 0.0000000e+00 
5.0000000e-01 1.0000000e+00 0.0000000e+00 
4.0000001e-01 1.0000000e+00 0.0000000e+00 
3.0000001e-01 1.0000000e+00 0.0000000e+00 
2.0000000e-01 1.0000000e+00 0.0000000e+00 
1.0000000e-01 1.0000000e+00 0.0000000e+00 
0.0000000e+00 8.9999998e-01 0.0000000e+00 
0.0000000e+00 8.0000001e-01 0.0000000e+00 
0.0000000e+00 6.9999999e-01 0.0000000e+00 
0.0000000e+00 6.0000002e-01 0.0000000e+00 
0.0000000e+00 5.0000000e-01 0.0000000e+00 
0.0000000e+00 4.0000001e-01 0.0000000e+00 
0.0000000e+00 3.0000001e-01 0.0000000e+00 
0.0000000e+00 2.0000000e-01 0.0000000e+00 
0.0000000e+00 1.0000000e-01 0.0000000e+00 
4.5033512e-01 8.5524812e-02 0.0000000e+00 
9.5000088e-02 5.3608972e-01 0.0000000e+00 
9.1547006e-01 5.5000001e-01 0.0000000e+00 
5.5000001e-01 9.1339743e-01 0.0000000e+00 
9.1339743e-01 3.4999999e-01 0.0000000e+00 
3.4999999e-01 9.1669172e-01 0.0000000e+00 
8.8579953e-02 3.4872410e-01 0.0000000e+00 
6.4999998e-01 8.6602539e-02 0.0000000e+00 
9.1127491e-01 7.4795848e-01 0.0000000e+00 
6.6607341e-02 7.5098073e-01 0.0000000e+00 
2.4514475e-01 8.5484609e-02 0.0000000e+00 
7.4680746e-01 9.1993588e-01 0.0000000e+00 
9.0420872e-01 1.5861149e-01 0.0000000e+00 
1.5042374e-01 9.1532278e-01 0.0000000e+00 
8.7588154e-02 1.6267365e-01 0.0000000e+00 
7.4918270e-01 8.6130671e-02 0.0000000e+00 
6.9882751e-01 1.7252813e-01 0.0000000e+00 
6.0000002e-01 1.7320508e-01 0.0000000e+00 
6.4876831e-01 2.5909650e-01 0.0000000e+00 
5.4933882e-01 2.5818285e-01 0.0000000e+00 
5.9902751e-01 3.4564152e-01 0.0000000e+00 
5.0000000e-01 3.4641016e-01 0.0000000e+00 
5.4918092e-01 4.3250528e-01 0.0000000e+00 
4.4986349e-01 4.3292814e-01 0.0000000e+00 
4.9984074e-01 5.1951659e-01 0.0000000e+00 
5.9917998e-01 5.2102238e-01 0.0000000e+00 
3.9995071e-01 5.1958472e-01 0.0000000e+00 
4.4996524e-01 6.0619622e-01 0.0000000e+00 
3.9827734e-01 3.4236532e-01 0.0000000e+00 
3.4998599e-01 6.0620910e-01 0.0000000e+00 
2.9998946e-01 5.1960868e-01 0.0000000e+00 
4.0246150e-01 6.9138944e-01 0.0000000e+00 
5.0040448e-01 6.9257826e-01 0.0000000e+00 
6.9183892e-01 3.4861544e-01 0.0000000e+00 
3.0287755e-01 6.8788534e-01 0.0000000e+00 
4.5107409e-01 7.7642798e-01 0.0000000e+00 
5.5000001e-01 7.7942288e-01 0.0000000e+00 
6.0006744e-01 6.9277996e-01 0.0000000e+00 
6.4999998e-01 7.7942288e-01 0.0000000e+00 
7.0001125e-01 6.9281358e-01 0.0000000e+00 
7.4810976e-01 7.7827942e-01 0.0000000e+00 
8.1429243e-01 6.9644338e-01 0.0000000e+00 
7.5505483e-01 6.0440248e-01 0.0000000e+00 
7.9754496e-01 1.6455974e-01 0.0000000e+00 
8.4409988e-01 9.0543878e-01 0.0000000e+00 
2.5007063e-01 9.1426742e-01 0.0000000e+00 
1.9948809e-01 8.3684945e-01 0.0000000e+00 
3.0239609e-01 8.4084076e-01 0.0000000e+00 
5.5039096e-01 8.6229436e-02 0.0000000e+00 
2.5227043e-01 6.0435647e-01 0.0000000e+00 
2.0253047e-01 6.7697614e-01 0.0000000e+00 
2.0000000e-01 5.1961523e-01 0.0000000e+00 
2.4994016e-01 4.3122852e-01 0.0000000e+00 
1.5013675e-01 4.3705931e-01 0.0000000e+00 
1.9500943e-01 3.4477931e-01 0.0000000e+00 
1.4187421e-01 2.5843257e-01 0.0000000e+00 
2.4087626e-01 2.5457630e-01 0.0000000e+00 
2.9581064e-01 3.4174213e-01 0.0000000e+00 
3.4302756e-01 2.5211102e-01 0.0000000e+00 
4.4705081e-01 2.5426328e-01 0.0000000e+00 
1.8726690e-01 1.7076795e-01 0.0000000e+00 
9.1374290e-01 4.4999999e-01 0.0000000e+00 
8.1292653e-01 5.1219177e-01 0.0000000e+00 
6.4999998e-01 9.1339743e-01 0.0000000e+00 
9.4903819e-02 6.5753615e-01 0.0000000e+00 
3.4647793e-01 8.5224926e-02 0.0000000e+00 
9.1339743e-01 6.4999998e-01 0.0000000e+00 
8.3004320e-01 4.0203196e-01 0.0000000e+00 
8.3633298e-01 3.0639145e-01 0.0000000e+00 
7.4173015e-01 4.3506145e-01 0.0000000e+00 
9.1635197e-01 2.5751698e-01 0.0000000e+00 
4.4999999e-01 9.1524893e-01 0.0000000e+00 
5.4990965e-01 6.0638523e-01 0.0000000e+00 
3.4897196e-01 4.3124291e-01 0.0000000e+00 
6.5070385e-01 6.0805732e-01 0.0000000e+00 
4.9951929e-01 1.7088418e-01 0.0000000e+00 
6.4682627e-01 4.3563104e-01 0.0000000e+00 
3.9496639e-01 1.7007479e-01 0.0000000e+00 
9.2003214e-01 8.4667110e-01 0.0000000e+00 
8.4628856e-01 8.0417827e-02 0.0000000e+00 
9.0504780e-02 8.4245151e-01 0.0000000e+00 
1.5290669e-01 8.2261533e-02 0.0000000e+00 
7.5581288e-01 2.6161289e-01 0.0000000e+00 
2.9022500e-01 1.7048772e-01 0.0000000e+00 
7.0076448e-01 5.2269316e-01 0.0000000e+00 
8.3802330e-01 7.9983431e-01 0.0000000e+00 
8.4137177e-01 6.0186249e-01 0.0000000e+00 
1.6660626e-01 5.9922481e-01 0.0000000e+00 
3.5146821e-01 7.6715195e-01 0.0000000e+00 
6.7398138e-02 4.4853568e-01 0.0000000e+00 
6.0000002e-01 8.4641016e-01 0.0000000e+00 
6.9999999e-01 8.4641016e-01 0.0000000e+00 
5.0000000e-01 8.4641016e-01 0.0000000e+00 
2.5092945e-01 7.6027036e-01 0.0000000e+00 
4.0000001e-01 8.4656054e-01 0.0000000e+00 
6.1870042e-02 2.5000000e-01 0.0000000e+00 
9.2679495e-01 7.3205084e-02 0.0000000e+00 
7.3205084e-02 7.3205084e-02 0.0000000e+00 
9.2679495e-01 9.2679495e-01 0.0000000e+00 
7.3205084e-02 9.2679495e-01 0.0000000e+00 
1.5420890e-01 7.5578600e-01 0.0000000e+00 
7.7540809e-01 8.4997970e-01 0.0000000e+00 
7.7320510e-01 3.4999999e-01 0.0000000e+00 
8.4417260e-01 2.3009899e-01 0.0000000e+00 

CELLS 246 984
3 82 124 102
3 41 93 91
3 81 106 48
3 90 140 104
3 104 140 49
3 41 129 93
3 102 126 82
3 48 125 81
3 102 124 109
3 54 100 95
3 98 99 68
3 117 123 105
3 95 135 54
3 97 98 68
3 120 140 86
3 46 95 94
3 81 126 106
3 104 127 90
3 97 113 92
3 46 94 93
3 53 120 86
3 116 124 65
3 83 119 52
3 61 99 59
3 68 99 61
3 98 123 117
3 68 113 97
3 94 97 92
3 109 116 73
3 81 125 80
3 128 133 74
3 91 127 41
3 52 143 83
3 109 124 116
3 84 125 118
3 95 96 94
3 99 115 59
3 49 140 120
3 105 123 50
3 96 97 94
3 95 100 96
3 100 121 50
3 87 133 128
3 96 98 97
3 50 123 100
3 28 85 45
3 29 85 28
3 67 71 69
3 71 74 69
3 85 87 45
3 47 88 9
3 41 104 34
3 58 59 57
3 58 60 59
3 7 105 6
3 10 47 9
3 10 55 47
3 35 41 34
3 56 58 57
3 14 110 52
3 16 44 15
3 16 101 44
3 42 101 17
3 19 106 18
3 20 48 19
3 48 106 19
3 23 84 22
3 24 51 23
3 24 103 51
3 26 43 25
3 43 103 25
3 26 111 43
3 53 85 29
3 42 102 101
3 101 107 44
3 108 110 44
3 55 56 47
3 64 112 67
3 65 114 112
3 67 72 71
3 69 89 70
3 74 89 69
3 89 91 70
3 72 76 75
3 72 112 77
3 77 78 76
3 112 114 77
3 8 88 40
3 11 55 10
3 33 49 32
3 6 50 5
3 8 40 7
3 14 52 13
3 37 46 36
3 55 83 56
3 62 63 61
3 64 66 63
3 91 92 70
3 86 87 85
3 39 54 38
3 6 105 50
3 40 105 7
3 15 110 14
3 44 110 15
3 17 101 16
3 27 111 26
3 28 45 27
3 30 53 29
3 33 104 49
3 107 108 44
3 57 88 47
3 64 67 66
3 70 113 66
3 67 112 72
3 72 75 71
3 74 90 89
3 77 114 79
3 93 94 92
3 102 107 101
3 102 109 107
3 9 88 8
3 58 73 60
3 60 61 59
3 63 68 61
3 62 65 64
3 66 113 63
3 77 79 78
3 91 93 92
3 62 64 63
3 63 113 68
3 92 113 70
3 34 104 33
3 56 57 47
3 53 86 85
3 18 42 17
3 51 84 23
3 25 103 24
3 45 111 27
3 60 62 61
3 65 112 64
3 67 69 66
3 79 81 80
3 79 82 81
3 18 106 42
3 69 70 66
3 79 80 78
3 79 114 82
3 72 77 76
3 73 142 109
3 84 141 125
3 88 115 40
3 59 115 57
3 115 117 40
3 98 117 99
3 62 116 65
3 73 116 60
3 57 115 88
3 99 117 115
3 32 120 31
3 55 119 83
3 12 119 11
3 21 118 20
3 58 122 73
3 83 122 56
3 93 129 46
3 5 121 4
3 60 116 62
3 50 121 5
3 65 124 114
3 100 123 96
3 42 126 102
3 82 126 81
3 90 127 89
3 40 117 105
3 46 135 95
3 11 119 55
3 49 120 32
3 20 118 48
3 54 121 100
3 71 128 74
3 35 129 41
3 46 129 36
3 87 134 45
3 56 122 58
3 54 135 38
3 37 135 46
3 1 136 12
3 13 136 1
3 4 137 0
3 0 137 39
3 2 138 21
3 22 138 2
3 3 139 30
3 31 139 3
3 110 143 52
3 109 142 107
3 96 123 98
3 83 143 122
3 114 124 82
3 89 127 91
3 106 126 42
3 41 127 104
3 122 142 73
3 122 143 108
3 118 125 48
3 51 141 84
3 128 134 87
3 75 128 71
3 36 129 35
3 132 134 75
3 43 130 103
3 78 130 76
3 111 132 43
3 86 133 87
3 76 132 75
3 103 131 51
3 78 131 130
3 130 131 103
3 74 133 90
3 80 131 78
3 130 132 76
3 43 132 130
3 111 134 132
3 45 134 111
3 108 142 122
3 12 136 119
3 120 139 31
3 21 138 118
3 38 135 37
3 52 136 13
3 30 139 53
3 39 137 54
3 84 138 22
3 121 137 4
3 107 142 108
3 108 143 110
3 118 138 84
3 53 139 120
3 119 136 52
3 54 137 121
3 75 134 128
3 86 140 133
3 133 140 90
3 125 141 80
3 80 141 131
3 131 141 51

CELL_TYPES 246
5
5
5
5
5
5
5
5
5
5
5
5
5
5
5
5
5
5
5
5
5
5
5
5
5
5
5
5
5
5
5
5
5
5
5
5
5
5
5
5
5
5
5
5
5
5
5
5
5
5
5
5
5
5
5
5
5
5
5
5
5
5
5
5
5
5
5
5
5
5
5
5
5
5
5
5
5
5
5
5
5
5
5
5
5
5
5
5
5
5
5
5
5
5
5
5
5
5
5
5
5
5
5
5
5
5
5
5
5
5
5
5
5
5
5
5
5
5
5
5
5
5
5
5
5
5
5
5
5
5
5
5
5
5
5
5
5
5
5
5
5
5
5
5
5
5
5
5
5
5
5
5
5
5
5
5
5
5
5
5
5
5
5
5
5
5
5
5
5
5
5
5
5
5
5
5
5
5
5
5
5
5
5
5
5
5
5
5
5
5
5
5
5
5
5
5
5
5
5
5
5
5
5
5
5
5
5
5
5
5
5
5
5
5
5
5
5
5
5
5
5
5
5
5
5
5
5
5
5
5
5
5
5
5
5
5
5
5
5
5
5
5
5
5
5
5
POINT_DATA 144
FIELD FieldData 2
DISPLACEMENT 3 144  float
0.0000000e+00 0.0000000e+00 0.0000000e+00 
0.0000000e+00 0.0000000e+00 0.0000000e+00 
0.0000000e+00 -1.6021469e-05 0.0000000e+00 
0.0000000e+00 -1.5930964e-05 0.0000000e+00 
0.0000000e+00 0.0000000e+00 0.0000000e+00 
0.0000000e+00 0.0000000e+00 0.0000000e+00 
0.0000000e+00 0.0000000e+00 0.0000000e+00 
0.0000000e+00 0.0000000e+00 0.0000000e+00 
0.0000000e+00 0.0000000e+00 0.0000000e+00 
0.0000000e+00 0.0000000e+00 0.0000000e+00 
0.0000000e+00 0.0000000e+00 0.0000000e+00 
0.0000000e+00 0.0000000e+00 0.0000000e+00 
0.0000000e+00 0.0000000e+00 0.0000000e+00 
0.0000000e+00 -1.6024464e-06 0.0000000e+00 
0.0000000e+00 -3.2064611e-06 0.0000000e+00 
0.0000000e+00 -4.8131128e-06 0.0000000e+00 
0.0000000e+00 -6.4222654e-06 0.0000000e+00 
0.0000000e+00 -8.0332329e-06 0.0000000e+00 
0.0000000e+00 -9.6438953e-06 0.0000000e+00 
0.0000000e+00 -1.1248329e-05 0.0000000e+00 
0.0000000e+00 -1.2844301e-05 0.0000000e+00 
0.0000000e+00 -1.4435025e-05 0.0000000e+00 
-5.2988330e-08 -1.6022061e-05 0.0000000e+00 
-1.0224310e-07 -1.6028314e-05 0.0000000e+00 
-1.4050440e-07 -1.6049467e-05 0.0000000e+00 
-1.5628790e-07 -1.6069122e-05 0.0000000e+00 
-1.4853953e-07 -1.6074124e-05 0.0000000e+00 
-1.1996731e-07 -1.6053780e-05 0.0000000e+00 
-8.1068762e-08 -1.6005009e-05 0.0000000e+00 
-5.2537615e-08 -1.5960220e-05 0.0000000e+00 
-3.3651872e-08 -1.5947775e-05 0.0000000e+00 
0.0000000e+00 -1.4393383e-05 0.0000000e+00 
0.0000000e+00 -1.2831439e-05 0.0000000e+00 
0.0000000e+00 -1.1264158e-05 0.0000000e+00 
0.0000000e+00 -9.7026159e-06 0.0000000e+00 
0.0000000e+00 -8.1359294e-06 0.0000000e+00 
0.0000000e+00 -6.5515765e-06 0.0000000e+00 
0.0000000e+00 -4.9423720e-06 0.0000000e+00 
0.0000000e+00 -3.3107224e-06 0.0000000e+00 
0.0000000e+00 -1.6609206e-06 0.0000000e+00 
-9.7774508e-09 -1.4001618e-06 0.0000000e+00 
-6.6599164e-08 -8.7161989e-06 0.0000000e+00 
-3.5273505e-08 -8.8435772e-06 0.0000000e+00 
-1.5561881e-07 -1.4719943e-05 0.0000000e+00 
-1.9264066e-08 -5.6217605e-06 0.0000000e+00 
-1.2722600e-07 -1.4743418e-05 0.0000000e+00 
-4.3153939e-08 -5.7331149e-06 0.0000000e+00 
-4.7308766e-09 -1.4044116e-06 0.0000000e+00 
-3.9046171e-08 -1.2018378e-05 0.0000000e+00 
-2.9842159e-08 -1.2066171e-05 0.0000000e+00 
-8.4242036e-09 -1.4098648e-06 0.0000000e+00 
-1.1598664e-07 -1.4774375e-05 0.0000000e+00 
-4.2460457e-09 -2.5450317e-06 0.0000000e+00 
-5.5387265e-08 -1.4635706e-05 0.0000000e+00 
-1.2906257e-08 -2.6955179e-06 0.0000000e+00 
-1.9072592e-09 -1.3890682e-06 0.0000000e+00 
-1.6908661e-08 -2.7910942e-06 0.0000000e+00 
-2.4126940e-08 -2.8174672e-06 0.0000000e+00 
-4.3619881e-08 -4.2040774e-06 0.0000000e+00 
-5.3090076e-08 -4.2090032e-06 0.0000000e+00 
-7.7999694e-08 -5.6205135e-06 0.0000000e+00 
-8.9224329e-08 -5.6544704e-06 0.0000000e+00 
-1.1580435e-07 -7.0421447e-06 0.0000000e+00 
-1.2635613e-07 -7.0699380e-06 0.0000000e+00 
-1.4973472e-07 -8.4611911e-06 0.0000000e+00 
-1.3220362e-07 -8.4589519e-06 0.0000000e+00 
-1.5659252e-07 -8.4794901e-06 0.0000000e+00 
-1.7049288e-07 -9.8637729e-06 0.0000000e+00 
-9.2047138e-08 -5.6051067e-06 0.0000000e+00 
-1.6891664e-07 -9.8710634e-06 0.0000000e+00 
-1.4861287e-07 -8.4866242e-06 0.0000000e+00 
-1.7083940e-07 -1.1224011e-05 0.0000000e+00 
-1.6584455e-07 -1.1233692e-05 0.0000000e+00 
-6.3444382e-08 -5.6434405e-06 0.0000000e+00 
-1.5571574e-07 -1.1157557e-05 0.0000000e+00 
-1.6075148e-07 -1.2567376e-05 0.0000000e+00 
-1.5132454e-07 -1.2602494e-05 0.0000000e+00 
-1.4623413e-07 -1.1211921e-05 0.0000000e+00 
-1.2859910e-07 -1.2573985e-05 0.0000000e+00 
-1.1584096e-07 -1.1177353e-05 0.0000000e+00 
-9.7166669e-08 -1.2522935e-05 0.0000000e+00 
-7.5107074e-08 -1.1202106e-05 0.0000000e+00 
-9.6459260e-08 -9.7458942e-06 0.0000000e+00 
-9.1880477e-09 -2.6488296e-06 0.0000000e+00 
-7.6876887e-08 -1.4526933e-05 0.0000000e+00 
-9.0206932e-08 -1.4652834e-05 0.0000000e+00 
-7.9837136e-08 -1.3430759e-05 0.0000000e+00 
-1.2415761e-07 -1.3542544e-05 0.0000000e+00 
-7.9087306e-09 -1.4058385e-06 0.0000000e+00 
-1.4651121e-07 -9.8314158e-06 0.0000000e+00 
-1.1651488e-07 -1.0954809e-05 0.0000000e+00 
-1.1999842e-07 -8.4789099e-06 0.0000000e+00 
-1.1475458e-07 -7.0648971e-06 0.0000000e+00 
-8.5704130e-08 -7.1559630e-06 0.0000000e+00 
-7.5316471e-08 -5.6670983e-06 0.0000000e+00 
-4.0111946e-08 -4.2640813e-06 0.0000000e+00 
-5.2101672e-08 -4.1903427e-06 0.0000000e+00 
-8.8471154e-08 -5.6084159e-06 0.0000000e+00 
-5.6457260e-08 -4.1378657e-06 0.0000000e+00 
-5.6992569e-08 -4.1603071e-06 0.0000000e+00 
-2.3986814e-08 -2.8197908e-06 0.0000000e+00 
-2.8184061e-08 -7.2327175e-06 0.0000000e+00 
-6.7709614e-08 -8.2482811e-06 0.0000000e+00 
-1.4294910e-07 -1.4699003e-05 0.0000000e+00 
-5.7721756e-08 -1.0613793e-05 0.0000000e+00 
-9.8361612e-09 -1.4003015e-06 0.0000000e+00 
-3.8143931e-08 -1.0451196e-05 0.0000000e+00 
-4.5484512e-08 -6.4705332e-06 0.0000000e+00 
-2.7751080e-08 -4.9282453e-06 0.0000000e+00 
-7.4981862e-08 -7.0253632e-06 0.0000000e+00 
-1.0596263e-08 -4.1335170e-06 0.0000000e+00 
-1.5068991e-07 -1.4750130e-05 0.0000000e+00 
-1.5678934e-07 -9.8459905e-06 0.0000000e+00 
-1.2665332e-07 -7.0575261e-06 0.0000000e+00 
-1.3132536e-07 -9.8403634e-06 0.0000000e+00 
-2.8563102e-08 -2.7921349e-06 0.0000000e+00 
-9.8571221e-08 -7.0648803e-06 0.0000000e+00 
-3.0079228e-08 -2.7888141e-06 0.0000000e+00 
-3.8974989e-08 -1.3590968e-05 0.0000000e+00 
-5.2538335e-10 -1.2921113e-06 0.0000000e+00 
-3.5094299e-08 -1.3495412e-05 0.0000000e+00 
-5.7292806e-09 -1.3622441e-06 0.0000000e+00 
-3.0395093e-08 -4.2207544e-06 0.0000000e+00 
-2.8696073e-08 -2.8050144e-06 0.0000000e+00 
-1.0516002e-07 -8.4512121e-06 0.0000000e+00 
-6.6052337e-08 -1.2847327e-05 0.0000000e+00 
-6.5263293e-08 -9.6845597e-06 0.0000000e+00 
-1.0691479e-07 -9.7272923e-06 0.0000000e+00 
-1.5270658e-07 -1.2411357e-05 0.0000000e+00 
-4.2954898e-08 -7.3280717e-06 0.0000000e+00 
-1.4345500e-07 -1.3652171e-05 0.0000000e+00 
-1.1861842e-07 -1.3621935e-05 0.0000000e+00 
-1.5466640e-07 -1.3669588e-05 0.0000000e+00 
-1.2031120e-07 -1.2268862e-05 0.0000000e+00 
-1.4907120e-07 -1.3665966e-05 0.0000000e+00 
-1.9185089e-08 -4.1290873e-06 0.0000000e+00 
-1.5756940e-10 -1.1742433e-06 0.0000000e+00 
-2.6843623e-09 -1.2151537e-06 0.0000000e+00 
-4.1021796e-08 -1.4864780e-05 0.0000000e+00 
-3.3418431e-08 -1.4810436e-05 0.0000000e+00 
-7.1654640e-08 -1.2158980e-05 0.0000000e+00 
-9.4383012e-08 -1.3657049e-05 0.0000000e+00 
-4.8022240e-08 -5.6443055e-06 0.0000000e+00 
-1.5167226e-08 -3.6987467e-06 0.0000000e+00 
VELOCITY 3 144  float
0.0000000e+00 0.0000000e+00 0.0000000e+00 
0.0000000e+00 0.0000000e+00 0.0000000e+00 
0.0000000e+00 -5.3423523e-06 0.0000000e+00 
0.0000000e+00 3.6222675e-05 0.0000000e+00 
0.0000000e+00 0.0000000e+00 0.0000000e+00 
0.0000000e+00 0.0000000e+00 0.0000000e+00 
0.0000000e+00 0.0000000e+00 0.0000000e+00 
0.0000000e+00 0.0000000e+00 0.0000000e+00 
0.0000000e+00 0.0000000e+00 0.0000000e+00 
0.0000000e+00 0.0000000e+00 0.0000000e+00 
0.0000000e+00 0.0000000e+00 0.0000000e+00 
0.0000000e+00 0.0000000e+00 0.0000000e+00 
0.0000000e+00 0.0000000e+00 0.0000000e+00 
0.0000000e+00 3.7412992e-06 0.0000000e+00 
0.0000000e+00 6.2104282e-06 0.0000000e+00 
0.0000000e+00 7.0540304e-06 0.0000000e+00 
0.0000000e+00 5.4980219e-06 0.0000000e+00 
0.0000000e+00 1.9052727e-06 0.0000000e+00 
0.0000000e+00 -9.5440953e-07 0.0000000e+00 
0.0000000e+00 -7.5931092e-07 0.0000000e+00 
0.0000000e+00 2.9150542e-07 0.0000000e+00 
0.0000000e+00 -2.4199721e-06 0.0000000e+00 
6.1089791e-05 -8.3313666e-05 0.0000000e+00 
1.0781751e-04 -1.3211636e-04 0.0000000e+00 
1.3170000e-04 -1.7720668e-04 0.0000000e+00 
1.5113698e-04 -2.1684023e-04 0.0000000e+00 
1.7387536e-04 -2.2811240e-04 0.0000000e+00 
1.9216345e-04 -2.0410070e-04 0.0000000e+00 
1.8679703e-04 -1.6644002e-04 0.0000000e+00 
1.4899141e-04 -1.5339692e-04 0.0000000e+00 
1.0803354e-04 -1.0630846e-04 0.0000000e+00 
0.0000000e+00 2.0927424e-05 0.0000000e+00 
0.0000000e+00 -2.5309196e-06 0.0000000e+00 
0.0000000e+00 5.9839217e-06 0.0000000e+00 
0.0000000e+00 2.3977091e-05 0.0000000e+00 
0.0000000e+00 2.5921776e-05 0.0000000e+00 
0.0000000e+00 1.9657828e-05 0.0000000e+00 
0.0000000e+00 9.0493477e-06 0.0000000e+00 
0.0000000e+00 7.6192674e-07 0.0000000e+00 
0.0000000e+00 -2.3144360e-06 0.0000000e+00 
-1.0131167e-06 -1.0657195e-05 0.0000000e+00 
4.9769542e-06 1.4772269e-05 0.0000000e+00 
1.6597272e-05 -2.8014700e-05 0.0000000e+00 
1.1374426e-04 -2.0003899e-04 0.0000000e+00 
1.0064299e-05 -9.4702482e-06 0.0000000e+00 
1.3156056e-04 -1.5036720e-04 0.0000000e+00 
-1.1433385e-05 3.3875504e-06 0.0000000e+00 
7.0691394e-06 -4.3030655e-06 0.0000000e+00 
2.8380397e-05 -4.9235641e-05 0.0000000e+00 
1.5177494e-05 -1.1890353e-05 0.0000000e+00 
-8.4883195e-06 -9.7337143e-06 0.0000000e+00 
9.0630725e-05 -1.3673678e-04 0.0000000e+00 
7.0041388e-06 -3.3832778e-06 0.0000000e+00 
6.2112413e-05 -8.8089611e-05 0.0000000e+00 
-8.8929874e-06 -5.5220544e-06 0.0000000e+00 
7.2417415e-06 -2.7428630e-06 0.0000000e+00 
1.2119551e-05 -7.8011199e-06 0.0000000e+00 
7.3466331e-06 -1.4748327e-05 0.0000000e+00 
1.1119013e-05 -2.0322092e-05 0.0000000e+00 
1.0665957e-06 -3.1964501e-05 0.0000000e+00 
6.6635348e-06 -3.9991224e-05 0.0000000e+00 
-7.0619085e-06 -5.2898064e-05 0.0000000e+00 
4.0804966e-06 -6.3540887e-05 0.0000000e+00 
-1.0869210e-05 -7.1722454e-05 0.0000000e+00 
9.7021475e-06 -8.5924941e-05 0.0000000e+00 
2.4676241e-05 -7.1837530e-05 0.0000000e+00 
-3.1849063e-06 -8.2210696e-05 0.0000000e+00 
2.7599284e-05 -1.0147223e-04 0.0000000e+00 
-1.9690355e-05 -5.5199671e-05 0.0000000e+00 
1.9672898e-05 -7.9124395e-05 0.0000000e+00 
-8.0507261e-06 -5.8120680e-05 0.0000000e+00 
5.4421867e-05 -1.0736567e-04 0.0000000e+00 
6.1942017e-05 -1.2284024e-04 0.0000000e+00 
1.6078384e-05 -2.6796231e-05 0.0000000e+00 
4.9546918e-05 -6.5175649e-05 0.0000000e+00 
8.1940452e-05 -1.4242680e-04 0.0000000e+00 
8.4416606e-05 -1.4801559e-04 0.0000000e+00 
6.9850212e-05 -1.1047112e-04 0.0000000e+00 
8.3867366e-05 -1.2545355e-04 0.0000000e+00 
7.0507631e-05 -8.5454514e-05 0.0000000e+00 
7.2597948e-05 -9.8144250e-05 0.0000000e+00 
5.3009218e-05 -6.7521956e-05 0.0000000e+00 
4.7713391e-05 -5.8240134e-05 0.0000000e+00 
1.1315859e-05 -5.3297376e-06 0.0000000e+00 
5.5855588e-05 -1.0353133e-04 0.0000000e+00 
1.1523574e-04 -1.0727780e-04 0.0000000e+00 
6.9473776e-05 -5.3905231e-05 0.0000000e+00 
9.6069292e-05 -9.7909913e-05 0.0000000e+00 
3.9198530e-06 -7.7615896e-06 0.0000000e+00 
1.8545054e-05 -3.9056231e-05 0.0000000e+00 
4.1242569e-05 -1.7212773e-05 0.0000000e+00 
-3.7718321e-06 -2.0941317e-05 0.0000000e+00 
-2.1896245e-05 -4.0236635e-05 0.0000000e+00 
-1.3000827e-05 -7.9513120e-06 0.0000000e+00 
-2.3094948e-05 -2.3704273e-05 0.0000000e+00 
-1.7634004e-05 -1.2032250e-05 0.0000000e+00 
-2.2490396e-05 -2.7698396e-05 0.0000000e+00 
-2.5988877e-05 -4.4872028e-05 0.0000000e+00 
-1.9637995e-05 -3.7635349e-05 0.0000000e+00 
-1.0650668e-05 -3.9038099e-05 0.0000000e+00 
-1.5337935e-05 -1.4669772e-05 0.0000000e+00 
1.2261176e-05 -1.7898441e-05 0.0000000e+00 
2.7782045e-05 -3.7826427e-05 0.0000000e+00 
1.0362257e-04 -1.7417372e-04 0.0000000e+00 
2.2722743e-05 7.4741242e-06 0.0000000e+00 
-5.8607529e-06 -1.1416672e-05 0.0000000e+00 
2.3127250e-05 -3.8611892e-05 0.0000000e+00 
1.8212730e-05 -2.1785836e-05 0.0000000e+00 
1.4819796e-05 -1.2560715e-05 0.0000000e+00 
2.3331106e-05 -3.2786345e-05 0.0000000e+00 
8.2241841e-06 -4.3879481e-06 0.0000000e+00 
1.2489047e-04 -1.9210024e-04 0.0000000e+00 
4.0116094e-05 -9.8339486e-05 0.0000000e+00 
-2.1182257e-05 -6.3608808e-05 0.0000000e+00 
5.0484065e-05 -7.7816308e-05 0.0000000e+00 
-8.9669976e-07 -2.1841393e-05 0.0000000e+00 
1.7667458e-05 -4.7107449e-05 0.0000000e+00 
-9.5808200e-06 -2.5090481e-05 0.0000000e+00 
2.5184807e-05 -5.6944227e-05 0.0000000e+00 
5.3086724e-06 -2.8569768e-06 0.0000000e+00 
8.9049890e-06 -3.4599034e-05 0.0000000e+00 
-7.4242266e-06 -6.7471246e-06 0.0000000e+00 
1.6016942e-05 -1.1435815e-05 0.0000000e+00 
-1.5226140e-05 -2.2441078e-05 0.0000000e+00 
3.3637261e-05 -5.1867333e-05 0.0000000e+00 
4.8037440e-05 -8.4447711e-05 0.0000000e+00 
3.4117271e-05 -4.7742000e-05 0.0000000e+00 
1.9039155e-05 -5.2014125e-06 0.0000000e+00 
7.8411540e-05 -1.0248887e-04 0.0000000e+00 
-3.6497111e-06 1.5757796e-05 0.0000000e+00 
8.9605906e-05 -1.6587670e-04 0.0000000e+00 
8.1117723e-05 -1.3432668e-04 0.0000000e+00 
9.3711933e-05 -1.7611256e-04 0.0000000e+00 
7.0411545e-05 -4.7859558e-05 0.0000000e+00 
9.8126060e-05 -1.5020477e-04 0.0000000e+00 
-7.9773527e-06 1.1414906e-09 0.0000000e+00 
3.5543526e-06 -1.1209332e-06 0.0000000e+00 
-3.4930779e-06 -3.4869695e-06 0.0000000e+00 
3.5047804e-05 -5.7204343e-05 0.0000000e+00 
2.9905206e-05 -3.1264113e-05 0.0000000e+00 
4.5274101e-05 -1.4035312e-05 0.0000000e+00 
6.6530883e-05 -1.1310603e-04 0.0000000e+00 
1.8208122e-05 -1.9251793e-05 0.0000000e+00 
1.2194656e-05 -7.5584448e-06 0.0000000e+00 
CELL_DATA 246
FIELD FieldData 0
