# vtk DataFile Version 4.0
vtk output
ASCII
DATASET UNSTRUCTURED_GRID
POINTS 144 float
0.0000000e+00 0.0000000e+00 0.0000000e+00 
1.0000000e+00 0.0000000e+00 0.0000000e+00 
1.0000000e+00 1.0000000e+00 0.0000000e+00 
0.0000000e+00 1.0000000e+00 0.0000000e+00 
1.0000000e-01 0.0000000e+00 0.0000000e+00 
2.0000000e-01 0.0000000e+00 0.0000000e+00 
3.0000001e-01 0.0000000e+00 0.0000000e+00 
4.0000001e-01 0.0000000e+00 0.0000000e+00 
5.0000000e-01 0.0000000e+00 0.0000000e+00 
6.0000002e-01 0.0000000e+00 0.0000000e+00 
6.9999999e-01 0.0000000e+00 0.0000000e+00 
8.0000001e-01 0.0000000e+00 0.0000000e+00 
8.9999998e-01 0.0000000e+00 0.0000000e+00 
1.0000000e+00 1.0000000e-01 0.0000000e+00 
1.0000000e+00 2.0000000e-01 0.0000000e+00 
1.0000000e+00 3.0000001e-01 0.0000000e+00 
1.0000000e+00 4.0000001e-01 0.0000000e+00 
1.0000000e+00 5.0000000e-01 0.0000000e+00 
1.0000000e+00 6.0000002e-01 0.0000000e+00 
1.0000000e+00 6.9999999e-01 0.0000000e+00 
1.0000000e+00 8.0000001e-01 0.0000000e+00 
1.0000000e+00 8.9999998e-01 0.0000000e+00 
8.9999998e-01 1.0000000e+00 0.0000000e+00 
8.0000001e-01 1.0000000e+00 0.0000000e+00 
6.9999999e-01 1.0000000e+00 0.0000000e+00 
6.0000002e-01 1.0000000e+00 0.0000000e+00 
5.0000000e-01 1.0000000e+00 0.0000000e+00 
4.0000001e-01 1.0000000e+00 0.0000000e+00 
3.0000001e-01 1.0000000e+00 0.0000000e+00 
2.0000000e-01 1.0000000e+00 0.0000000e+00 
1.0000000e-01 1.0000000e+00 0.0000000e+00 
0.0000000e+00 8.9999998e-01 0.0000000e+00 
0.0000000e+00 8.0000001e-01 0.0000000e+00 
0.0000000e+00 6.9999999e-01 0.0000000e+00 
0.0000000e+00 6.0000002e-01 0.0000000e+00 
0.0000000e+00 5.0000000e-01 0.0000000e+00 
0.0000000e+00 4.0000001e-01 0.0000000e+00 
0.0000000e+00 3.0000001e-01 0.0000000e+00 
0.0000000e+00 2.0000000e-01 0.0000000e+00 
0.0000000e+00 1.0000000e-01 0.0000000e+00 
4.5033512e-01 8.5524812e-02 0.0000000e+00 
9.5000088e-02 5.3608972e-01 0.0000000e+00 
9.1547006e-01 5.5000001e-01 0.0000000e+00 
5.5000001e-01 9.1339743e-01 0.0000000e+00 
9.1339743e-01 3.4999999e-01 0.0000000e+00 
3.4999999e-01 9.1669172e-01 0.0000000e+00 
8.8579953e-02 3.4872410e-01 0.0000000e+00 
6.4999998e-01 8.6602539e-02 0.0000000e+00 
9.1127491e-01 7.4795848e-01 0.0000000e+00 
6.6607341e-02 7.5098073e-01 0.0000000e+00 
2.4514475e-01 8.5484609e-02 0.0000000e+00 
7.4680746e-01 9.1993588e-01 0.0000000e+00 
9.0420872e-01 1.5861149e-01 0.0000000e+00 
1.5042374e-01 9.1532278e-01 0.0000000e+00 
8.7588154e-02 1.6267365e-01 0.0000000e+00 
7.4918270e-01 8.6130671e-02 0.0000000e+00 
6.9882751e-01 1.7252813e-01 0.0000000e+00 
6.0000002e-01 1.7320508e-01 0.0000000e+00 
6.4876831e-01 2.5909650e-01 0.0000000e+00 
5.4933882e-01 2.5818285e-01 0.0000000e+00 
5.9902751e-01 3.4564152e-01 0.0000000e+00 
5.0000000e-01 3.4641016e-01 0.0000000e+00 
5.4918092e-01 4.3250528e-01 0.0000000e+00 
4.4986349e-01 4.3292814e-01 0.0000000e+00 
4.9984074e-01 5.1951659e-01 0.0000000e+00 
5.9917998e-01 5.2102238e-01 0.0000000e+00 
3.9995071e-01 5.1958472e-01 0.0000000e+00 
4.4996524e-01 6.0619622e-01 0.0000000e+00 
3.9827734e-01 3.4236532e-01 0.0000000e+00 
3.4998599e-01 6.0620910e-01 0.0000000e+00 
2.9998946e-01 5.1960868e-01 0.0000000e+00 
4.0246150e-01 6.9138944e-01 0.0000000e+00 
5.0040448e-01 6.9257826e-01 0.0000000e+00 
6.9183892e-01 3.4861544e-01 0.0000000e+00 
3.0287755e-01 6.8788534e-01 0.0000000e+00 
4.5107409e-01 7.7642798e-01 0.0000000e+00 
5.5000001e-01 7.7942288e-01 0.0000000e+00 
6.0006744e-01 6.9277996e-01 0.0000000e+00 
6.4999998e-01 7.7942288e-01 0.0000000e+00 
7.0001125e-01 6.9281358e-01 0.0000000e+00 
7.4810976e-01 7.7827942e-01 0.0000000e+00 
8.1429243e-01 6.9644338e-01 0.0000000e+00 
7.5505483e-01 6.0440248e-01 0.0000000e+00 
7.9754496e-01 1.6455974e-01 0.0000000e+00 
8.4409988e-01 9.0543878e-01 0.0000000e+00 
2.5007063e-01 9.1426742e-01 0.0000000e+00 
1.9948809e-01 8.3684945e-01 0.0000000e+00 
3.0239609e-01 8.4084076e-01 0.0000000e+00 
5.5039096e-01 8.6229436e-02 0.0000000e+00 
2.5227043e-01 6.0435647e-01 0.0000000e+00 
2.0253047e-01 6.7697614e-01 0.0000000e+00 
2.0000000e-01 5.1961523e-01 0.0000000e+00 
2.4994016e-01 4.3122852e-01 0.0000000e+00 
1.5013675e-01 4.3705931e-01 0.0000000e+00 
1.9500943e-01 3.4477931e-01 0.0000000e+00 
1.4187421e-01 2.5843257e-01 0.0000000e+00 
2.4087626e-01 2.5457630e-01 0.0000000e+00 
2.9581064e-01 3.4174213e-01 0.0000000e+00 
3.4302756e-01 2.5211102e-01 0.0000000e+00 
4.4705081e-01 2.5426328e-01 0.0000000e+00 
1.8726690e-01 1.7076795e-01 0.0000000e+00 
9.1374290e-01 4.4999999e-01 0.0000000e+00 
8.1292653e-01 5.1219177e-01 0.0000000e+00 
6.4999998e-01 9.1339743e-01 0.0000000e+00 
9.4903819e-02 6.5753615e-01 0.0000000e+00 
3.4647793e-01 8.5224926e-02 0.0000000e+00 
9.1339743e-01 6.4999998e-01 0.0000000e+00 
8.3004320e-01 4.0203196e-01 0.0000000e+00 
8.3633298e-01 3.0639145e-01 0.0000000e+00 
7.4173015e-01 4.3506145e-01 0.0000000e+00 
9.1635197e-01 2.5751698e-01 0.0000000e+00 
4.4999999e-01 9.1524893e-01 0.0000000e+00 
5.4990965e-01 6.0638523e-01 0.0000000e+00 
3.4897196e-01 4.3124291e-01 0.0000000e+00 
6.5070385e-01 6.0805732e-01 0.0000000e+00 
4.9951929e-01 1.7088418e-01 0.0000000e+00 
6.4682627e-01 4.3563104e-01 0.0000000e+00 
3.9496639e-01 1.7007479e-01 0.0000000e+00 
9.2003214e-01 8.4667110e-01 0.0000000e+00 
8.4628856e-01 8.0417827e-02 0.0000000e+00 
9.0504780e-02 8.4245151e-01 0.0000000e+00 
1.5290669e-01 8.2261533e-02 0.0000000e+00 
7.5581288e-01 2.6161289e-01 0.0000000e+00 
2.9022500e-01 1.7048772e-01 0.0000000e+00 
7.0076448e-01 5.2269316e-01 0.0000000e+00 
8.3802330e-01 7.9983431e-01 0.0000000e+00 
8.4137177e-01 6.0186249e-01 0.0000000e+00 
1.6660626e-01 5.9922481e-01 0.0000000e+00 
3.5146821e-01 7.6715195e-01 0.0000000e+00 
6.7398138e-02 4.4853568e-01 0.0000000e+00 
6.0000002e-01 8.4641016e-01 0.0000000e+00 
6.9999999e-01 8.4641016e-01 0.0000000e+00 
5.0000000e-01 8.4641016e-01 0.0000000e+00 
2.5092945e-01 7.6027036e-01 0.0000000e+00 
4.0000001e-01 8.4656054e-01 0.0000000e+00 
6.1870042e-02 2.5000000e-01 0.0000000e+00 
9.2679495e-01 7.3205084e-02 0.0000000e+00 
7.3205084e-02 7.3205084e-02 0.0000000e+00 
9.2679495e-01 9.2679495e-01 0.0000000e+00 
7.3205084e-02 9.2679495e-01 0.0000000e+00 
1.5420890e-01 7.5578600e-01 0.0000000e+00 
7.7540809e-01 8.4997970e-01 0.0000000e+00 
7.7320510e-01 3.4999999e-01 0.0000000e+00 
8.4417260e-01 2.3009899e-01 0.0000000e+00 

CELLS 246 984
3 82 124 102
3 41 93 91
3 81 106 48
3 90 140 104
3 104 140 49
3 41 129 93
3 102 126 82
3 48 125 81
3 102 124 109
3 54 100 95
3 98 99 68
3 117 123 105
3 95 135 54
3 97 98 68
3 120 140 86
3 46 95 94
3 81 126 106
3 104 127 90
3 97 113 92
3 46 94 93
3 53 120 86
3 116 124 65
3 83 119 52
3 61 99 59
3 68 99 61
3 98 123 117
3 68 113 97
3 94 97 92
3 109 116 73
3 81 125 80
3 128 133 74
3 91 127 41
3 52 143 83
3 109 124 116
3 84 125 118
3 95 96 94
3 99 115 59
3 49 140 120
3 105 123 50
3 96 97 94
3 95 100 96
3 100 121 50
3 87 133 128
3 96 98 97
3 50 123 100
3 28 85 45
3 29 85 28
3 67 71 69
3 71 74 69
3 85 87 45
3 47 88 9
3 41 104 34
3 58 59 57
3 58 60 59
3 7 105 6
3 10 47 9
3 10 55 47
3 35 41 34
3 56 58 57
3 14 110 52
3 16 44 15
3 16 101 44
3 42 101 17
3 19 106 18
3 20 48 19
3 48 106 19
3 23 84 22
3 24 51 23
3 24 103 51
3 26 43 25
3 43 103 25
3 26 111 43
3 53 85 29
3 42 102 101
3 101 107 44
3 108 110 44
3 55 56 47
3 64 112 67
3 65 114 112
3 67 72 71
3 69 89 70
3 74 89 69
3 89 91 70
3 72 76 75
3 72 112 77
3 77 78 76
3 112 114 77
3 8 88 40
3 11 55 10
3 33 49 32
3 6 50 5
3 8 40 7
3 14 52 13
3 37 46 36
3 55 83 56
3 62 63 61
3 64 66 63
3 91 92 70
3 86 87 85
3 39 54 38
3 6 105 50
3 40 105 7
3 15 110 14
3 44 110 15
3 17 101 16
3 27 111 26
3 28 45 27
3 30 53 29
3 33 104 49
3 107 108 44
3 57 88 47
3 64 67 66
3 70 113 66
3 67 112 72
3 72 75 71
3 74 90 89
3 77 114 79
3 93 94 92
3 102 107 101
3 102 109 107
3 9 88 8
3 58 73 60
3 60 61 59
3 63 68 61
3 62 65 64
3 66 113 63
3 77 79 78
3 91 93 92
3 62 64 63
3 63 113 68
3 92 113 70
3 34 104 33
3 56 57 47
3 53 86 85
3 18 42 17
3 51 84 23
3 25 103 24
3 45 111 27
3 60 62 61
3 65 112 64
3 67 69 66
3 79 81 80
3 79 82 81
3 18 106 42
3 69 70 66
3 79 80 78
3 79 114 82
3 72 77 76
3 73 142 109
3 84 141 125
3 88 115 40
3 59 115 57
3 115 117 40
3 98 117 99
3 62 116 65
3 73 116 60
3 57 115 88
3 99 117 115
3 32 120 31
3 55 119 83
3 12 119 11
3 21 118 20
3 58 122 73
3 83 122 56
3 93 129 46
3 5 121 4
3 60 116 62
3 50 121 5
3 65 124 114
3 100 123 96
3 42 126 102
3 82 126 81
3 90 127 89
3 40 117 105
3 46 135 95
3 11 119 55
3 49 120 32
3 20 118 48
3 54 121 100
3 71 128 74
3 35 129 41
3 46 129 36
3 87 134 45
3 56 122 58
3 54 135 38
3 37 135 46
3 1 136 12
3 13 136 1
3 4 137 0
3 0 137 39
3 2 138 21
3 22 138 2
3 3 139 30
3 31 139 3
3 110 143 52
3 109 142 107
3 96 123 98
3 83 143 122
3 114 124 82
3 89 127 91
3 106 126 42
3 41 127 104
3 122 142 73
3 122 143 108
3 118 125 48
3 51 141 84
3 128 134 87
3 75 128 71
3 36 129 35
3 132 134 75
3 43 130 103
3 78 130 76
3 111 132 43
3 86 133 87
3 76 132 75
3 103 131 51
3 78 131 130
3 130 131 103
3 74 133 90
3 80 131 78
3 130 132 76
3 43 132 130
3 111 134 132
3 45 134 111
3 108 142 122
3 12 136 119
3 120 139 31
3 21 138 118
3 38 135 37
3 52 136 13
3 30 139 53
3 39 137 54
3 84 138 22
3 121 137 4
3 107 142 108
3 108 143 110
3 118 138 84
3 53 139 120
3 119 136 52
3 54 137 121
3 75 134 128
3 86 140 133
3 133 140 90
3 125 141 80
3 80 141 131
3 131 141 51

CELL_TYPES 246
5
5
5
5
5
5
5
5
5
5
5
5
5
5
5
5
5
5
5
5
5
5
5
5
5
5
5
5
5
5
5
5
5
5
5
5
5
5
5
5
5
5
5
5
5
5
5
5
5
5
5
5
5
5
5
5
5
5
5
5
5
5
5
5
5
5
5
5
5
5
5
5
5
5
5
5
5
5
5
5
5
5
5
5
5
5
5
5
5
5
5
5
5
5
5
5
5
5
5
5
5
5
5
5
5
5
5
5
5
5
5
5
5
5
5
5
5
5
5
5
5
5
5
5
5
5
5
5
5
5
5
5
5
5
5
5
5
5
5
5
5
5
5
5
5
5
5
5
5
5
5
5
5
5
5
5
5
5
5
5
5
5
5
5
5
5
5
5
5
5
5
5
5
5
5
5
5
5
5
5
5
5
5
5
5
5
5
5
5
5
5
5
5
5
5
5
5
5
5
5
5
5
5
5
5
5
5
5
5
5
5
5
5
5
5
5
5
5
5
5
5
5
5
5
5
5
5
5
5
5
5
5
5
5
5
5
5
5
5
5
5
5
5
5
5
5
POINT_DATA 144
FIELD FieldData 2
DISPLACEMENT 3 144  float
0.0000000e+00 0.0000000e+00 0.0000000e+00 
0.0000000e+00 0.0000000e+00 0.0000000e+00 
0.0000000e+00 -1.5138570e-05 0.0000000e+00 
0.0000000e+00 -1.5139093e-05 0.0000000e+00 
0.0000000e+00 0.0000000e+00 0.0000000e+00 
0.0000000e+00 0.0000000e+00 0.0000000e+00 
0.0000000e+00 0.0000000e+00 0.0000000e+00 
0.0000000e+00 0.0000000e+00 0.0000000e+00 
0.0000000e+00 0.0000000e+00 0.0000000e+00 
0.0000000e+00 0.0000000e+00 0.0000000e+00 
0.0000000e+00 0.0000000e+00 0.0000000e+00 
0.0000000e+00 0.0000000e+00 0.0000000e+00 
0.0000000e+00 0.0000000e+00 0.0000000e+00 
0.0000000e+00 -1.4595782e-06 0.0000000e+00 
0.0000000e+00 -2.9282012e-06 0.0000000e+00 
0.0000000e+00 -4.4103485e-06 0.0000000e+00 
0.0000000e+00 -5.9053978e-06 0.0000000e+00 
0.0000000e+00 -7.4123368e-06 0.0000000e+00 
0.0000000e+00 -8.9329769e-06 0.0000000e+00 
0.0000000e+00 -1.0472575e-05 0.0000000e+00 
0.0000000e+00 -1.2026455e-05 0.0000000e+00 
0.0000000e+00 -1.3580992e-05 0.0000000e+00 
-6.4142347e-10 -1.5139420e-05 0.0000000e+00 
2.5819097e-11 -1.5139340e-05 0.0000000e+00 
-1.8649204e-10 -1.5139522e-05 0.0000000e+00 
-2.8797698e-10 -1.5139401e-05 0.0000000e+00 
-3.8876782e-10 -1.5139497e-05 0.0000000e+00 
-2.5097624e-10 -1.5139718e-05 0.0000000e+00 
3.0039225e-11 -1.5139675e-05 0.0000000e+00 
2.8496233e-10 -1.5139490e-05 0.0000000e+00 
4.4825196e-10 -1.5139814e-05 0.0000000e+00 
0.0000000e+00 -1.3581511e-05 0.0000000e+00 
0.0000000e+00 -1.2027125e-05 0.0000000e+00 
0.0000000e+00 -1.0472883e-05 0.0000000e+00 
0.0000000e+00 -8.9329033e-06 0.0000000e+00 
0.0000000e+00 -7.4123891e-06 0.0000000e+00 
0.0000000e+00 -5.9054591e-06 0.0000000e+00 
0.0000000e+00 -4.4104436e-06 0.0000000e+00 
0.0000000e+00 -2.9284263e-06 0.0000000e+00 
0.0000000e+00 -1.4596076e-06 0.0000000e+00 
-3.9033447e-11 -1.2479287e-06 0.0000000e+00 
5.9309509e-11 -7.9586844e-06 0.0000000e+00 
1.1105773e-10 -8.1707703e-06 0.0000000e+00 
-2.4713490e-10 -1.3789165e-05 0.0000000e+00 
7.3117873e-11 -5.1562429e-06 0.0000000e+00 
-6.2291665e-11 -1.3840753e-05 0.0000000e+00 
-2.7924848e-11 -5.1369129e-06 0.0000000e+00 
2.1737652e-10 -1.2637236e-06 0.0000000e+00 
3.7536826e-10 -1.1217232e-05 0.0000000e+00 
2.1619641e-10 -1.1264341e-05 0.0000000e+00 
-1.1240026e-10 -1.2472722e-06 0.0000000e+00 
-5.7362819e-11 -1.3890767e-05 0.0000000e+00 
1.5848688e-10 -2.3188989e-06 0.0000000e+00 
1.5021144e-10 -1.3818943e-05 0.0000000e+00 
-1.0260956e-10 -2.3783557e-06 0.0000000e+00 
2.6727756e-10 -1.2568526e-06 0.0000000e+00 
4.1897988e-10 -2.5234567e-06 0.0000000e+00 
2.7147096e-10 -2.5336096e-06 0.0000000e+00 
4.1776532e-10 -3.8026346e-06 0.0000000e+00 
2.7895528e-10 -3.7890852e-06 0.0000000e+00 
6.5378807e-11 -5.0914396e-06 0.0000000e+00 
1.0057830e-10 -5.1029469e-06 0.0000000e+00 
-3.0202403e-11 -6.3940361e-06 0.0000000e+00 
1.4768299e-10 -6.4003789e-06 0.0000000e+00 
2.7103517e-11 -7.7076520e-06 0.0000000e+00 
-2.3686211e-10 -7.7304221e-06 0.0000000e+00 
1.4786830e-10 -7.7087216e-06 0.0000000e+00 
-5.0224498e-11 -9.0278536e-06 0.0000000e+00 
7.2497584e-11 -5.0423660e-06 0.0000000e+00 
-1.4940892e-11 -9.0280582e-06 0.0000000e+00 
1.3715601e-10 -7.7089853e-06 0.0000000e+00 
7.3297389e-11 -1.0339590e-05 0.0000000e+00 
4.2301877e-11 -1.0357853e-05 0.0000000e+00 
-5.1615545e-11 -5.1355523e-06 0.0000000e+00 
1.7173404e-10 -1.0285317e-05 0.0000000e+00 
5.9269034e-11 -1.1660362e-05 0.0000000e+00 
1.1899777e-10 -1.1706826e-05 0.0000000e+00 
8.4816376e-11 -1.0360909e-05 0.0000000e+00 
1.5107196e-10 -1.1706873e-05 0.0000000e+00 
1.9149360e-10 -1.0361521e-05 0.0000000e+00 
3.9811994e-11 -1.1689068e-05 0.0000000e+00 
2.4284647e-10 -1.0417676e-05 0.0000000e+00 
-8.8667386e-11 -8.9997984e-06 0.0000000e+00 
4.9825272e-10 -2.4065034e-06 0.0000000e+00 
-1.9155036e-10 -1.3665333e-05 0.0000000e+00 
1.5091883e-10 -1.3802807e-05 0.0000000e+00 
1.2844151e-11 -1.2600121e-05 0.0000000e+00 
-1.8770514e-10 -1.2662527e-05 0.0000000e+00 
6.2134624e-11 -1.2582844e-06 0.0000000e+00 
-1.3478990e-11 -8.9994455e-06 0.0000000e+00 
1.8473051e-10 -1.0116755e-05 0.0000000e+00 
3.5738076e-11 -7.7089708e-06 0.0000000e+00 
2.5488817e-10 -6.3745074e-06 0.0000000e+00 
2.3636024e-10 -6.4618603e-06 0.0000000e+00 
-2.7330675e-12 -5.0780050e-06 0.0000000e+00 
-1.5790218e-10 -3.7920252e-06 0.0000000e+00 
-2.3967192e-10 -3.7351565e-06 0.0000000e+00 
8.5328350e-12 -5.0328877e-06 0.0000000e+00 
-1.3469163e-10 -3.6987476e-06 0.0000000e+00 
6.9306658e-11 -3.7308189e-06 0.0000000e+00 
-9.7280774e-11 -2.4974649e-06 0.0000000e+00 
-3.1936004e-10 -6.6573266e-06 0.0000000e+00 
-3.2636838e-10 -7.5964949e-06 0.0000000e+00 
-1.2733835e-10 -1.3789171e-05 0.0000000e+00 
-1.2156431e-10 -9.8162554e-06 0.0000000e+00 
-8.2385564e-11 -1.2435282e-06 0.0000000e+00 
-5.2490359e-11 -9.7006032e-06 0.0000000e+00 
-2.6908245e-10 -5.9359886e-06 0.0000000e+00 
3.1643774e-10 -4.5053639e-06 0.0000000e+00 
-3.6046705e-10 -6.4322730e-06 0.0000000e+00 
1.5045203e-11 -3.7789039e-06 0.0000000e+00 
-2.6081529e-10 -1.3818192e-05 0.0000000e+00 
-1.2979511e-10 -9.0305875e-06 0.0000000e+00 
2.4851390e-10 -6.3749085e-06 0.0000000e+00 
-2.1798853e-10 -9.0562371e-06 0.0000000e+00 
6.1843086e-11 -2.4993972e-06 0.0000000e+00 
-2.7956290e-10 -6.4409019e-06 0.0000000e+00 
-1.0163675e-10 -2.4873652e-06 0.0000000e+00 
-2.8913927e-10 -1.2752488e-05 0.0000000e+00 
2.8263430e-10 -1.1733374e-06 0.0000000e+00 
2.1010907e-10 -1.2687015e-05 0.0000000e+00 
-1.8340271e-10 -1.2001025e-06 0.0000000e+00 
4.9452892e-10 -3.8395206e-06 0.0000000e+00 
-1.3114977e-10 -2.4933861e-06 0.0000000e+00 
-3.1820113e-10 -7.7556715e-06 0.0000000e+00 
-7.1262350e-11 -1.2024635e-05 0.0000000e+00 
5.6435429e-11 -8.9619825e-06 0.0000000e+00 
-4.1384954e-11 -8.9209616e-06 0.0000000e+00 
-3.5278985e-11 -1.1516126e-05 0.0000000e+00 
7.8721370e-11 -6.6352682e-06 0.0000000e+00 
-5.2901163e-11 -1.2748712e-05 0.0000000e+00 
-6.7577090e-11 -1.2748755e-05 0.0000000e+00 
-1.1856421e-10 -1.2748806e-05 0.0000000e+00 
-2.7113395e-10 -1.1409051e-05 0.0000000e+00 
-1.9099616e-10 -1.2751402e-05 0.0000000e+00 
-3.8432143e-11 -3.6676670e-06 0.0000000e+00 
2.6541097e-10 -1.0682357e-06 0.0000000e+00 
-1.7700100e-10 -1.0681771e-06 0.0000000e+00 
9.4982897e-11 -1.3997022e-05 0.0000000e+00 
-1.8865597e-10 -1.3997263e-05 0.0000000e+00 
-2.1422535e-10 -1.1339043e-05 0.0000000e+00 
-7.5460985e-11 -1.2804213e-05 0.0000000e+00 
-6.6666291e-11 -5.1566085e-06 0.0000000e+00 
2.2998373e-10 -3.3729095e-06 0.0000000e+00 
VELOCITY 3 144  float
0.0000000e+00 0.0000000e+00 0.0000000e+00 
0.0000000e+00 0.0000000e+00 0.0000000e+00 
0.0000000e+00 -7.9957143e-05 0.0000000e+00 
0.0000000e+00 -7.9928541e-05 0.0000000e+00 
0.0000000e+00 0.0000000e+00 0.0000000e+00 
0.0000000e+00 0.0000000e+00 0.0000000e+00 
0.0000000e+00 0.0000000e+00 0.0000000e+00 
0.0000000e+00 0.0000000e+00 0.0000000e+00 
0.0000000e+00 0.0000000e+00 0.0000000e+00 
0.0000000e+00 0.0000000e+00 0.0000000e+00 
0.0000000e+00 0.0000000e+00 0.0000000e+00 
0.0000000e+00 0.0000000e+00 0.0000000e+00 
0.0000000e+00 0.0000000e+00 0.0000000e+00 
0.0000000e+00 -3.2517732e-05 0.0000000e+00 
0.0000000e+00 -5.4028198e-05 0.0000000e+00 
0.0000000e+00 -5.8472509e-05 0.0000000e+00 
0.0000000e+00 -4.8826103e-05 0.0000000e+00 
0.0000000e+00 -3.8657574e-05 0.0000000e+00 
0.0000000e+00 -4.4637567e-05 0.0000000e+00 
0.0000000e+00 -6.6341432e-05 0.0000000e+00 
0.0000000e+00 -7.3717216e-05 0.0000000e+00 
0.0000000e+00 -6.4577311e-05 0.0000000e+00 
-1.4626100e-06 -8.3464874e-05 0.0000000e+00 
7.8903923e-07 -8.3496001e-05 0.0000000e+00 
2.7839420e-07 -8.1825623e-05 0.0000000e+00 
2.2671919e-07 -8.2626721e-05 0.0000000e+00 
1.3693773e-07 -8.2840641e-05 0.0000000e+00 
2.8855172e-07 -8.2838153e-05 0.0000000e+00 
7.3282081e-08 -8.2567909e-05 0.0000000e+00 
5.1528463e-07 -8.3276806e-05 0.0000000e+00 
8.4764724e-07 -8.2513623e-05 0.0000000e+00 
0.0000000e+00 -6.4178763e-05 0.0000000e+00 
0.0000000e+00 -7.3922318e-05 0.0000000e+00 
0.0000000e+00 -6.5985791e-05 0.0000000e+00 
0.0000000e+00 -4.4737928e-05 0.0000000e+00 
0.0000000e+00 -3.8959319e-05 0.0000000e+00 
0.0000000e+00 -4.9234222e-05 0.0000000e+00 
0.0000000e+00 -5.8590173e-05 0.0000000e+00 
0.0000000e+00 -5.3931610e-05 0.0000000e+00 
0.0000000e+00 -3.2581011e-05 0.0000000e+00 
1.5711649e-07 -2.8881439e-05 0.0000000e+00 
-3.3466139e-07 -3.8415761e-05 0.0000000e+00 
6.1905018e-07 -3.9247079e-05 0.0000000e+00 
3.3917135e-07 -6.5769280e-05 0.0000000e+00 
-4.8487192e-07 -5.5003329e-05 0.0000000e+00 
1.7318577e-07 -6.6365297e-05 0.0000000e+00 
5.2749078e-07 -5.5354780e-05 0.0000000e+00 
3.6376392e-07 -2.9199011e-05 0.0000000e+00 
-3.7789485e-07 -7.3687406e-05 0.0000000e+00 
8.6209610e-07 -7.3005795e-05 0.0000000e+00 
-6.3014902e-08 -2.8712866e-05 0.0000000e+00 
9.7021420e-08 -6.6820961e-05 0.0000000e+00 
2.2869409e-07 -4.7001606e-05 0.0000000e+00 
-9.8090914e-07 -6.5669621e-05 0.0000000e+00 
-1.8294946e-08 -4.8332371e-05 0.0000000e+00 
4.2146144e-07 -2.8771892e-05 0.0000000e+00 
3.0452463e-07 -5.0889059e-05 0.0000000e+00 
3.2949734e-07 -5.1089602e-05 0.0000000e+00 
-1.7606229e-07 -6.0099013e-05 0.0000000e+00 
4.2471157e-08 -6.0312683e-05 0.0000000e+00 
-1.4675560e-07 -5.6215551e-05 0.0000000e+00 
2.0885095e-07 -5.6218611e-05 0.0000000e+00 
-8.3070738e-08 -4.4800818e-05 0.0000000e+00 
2.4955176e-07 -4.4759574e-05 0.0000000e+00 
-2.3529675e-07 -3.7967002e-05 0.0000000e+00 
-2.8023209e-07 -3.7972939e-05 0.0000000e+00 
-2.7734941e-07 -3.7984017e-05 0.0000000e+00 
-2.2830032e-07 -4.6053156e-05 0.0000000e+00 
4.8424050e-07 -5.6522909e-05 0.0000000e+00 
-2.8398418e-07 -4.5982830e-05 0.0000000e+00 
-3.8524902e-07 -3.8035323e-05 0.0000000e+00 
2.1344987e-07 -6.4818712e-05 0.0000000e+00 
3.3535795e-07 -6.5170694e-05 0.0000000e+00 
-3.2960861e-07 -5.5798697e-05 0.0000000e+00 
9.0578894e-08 -6.4054286e-05 0.0000000e+00 
-2.8981049e-07 -7.4592215e-05 0.0000000e+00 
1.5677411e-07 -7.4551324e-05 0.0000000e+00 
3.4205939e-07 -6.5432570e-05 0.0000000e+00 
-5.7270255e-09 -7.4824238e-05 0.0000000e+00 
3.0654670e-07 -6.5480475e-05 0.0000000e+00 
-2.3436664e-07 -7.5054806e-05 0.0000000e+00 
4.0707417e-07 -6.6700617e-05 0.0000000e+00 
3.7682088e-07 -4.5558209e-05 0.0000000e+00 
1.4264386e-07 -4.8396741e-05 0.0000000e+00 
3.6530969e-07 -6.3990323e-05 0.0000000e+00 
-1.1342641e-07 -6.5383610e-05 0.0000000e+00 
2.6796255e-07 -6.6600143e-05 0.0000000e+00 
1.5163414e-08 -6.6280154e-05 0.0000000e+00 
2.9251436e-07 -2.9112534e-05 0.0000000e+00 
-1.9020091e-07 -4.5662953e-05 0.0000000e+00 
-3.3074347e-08 -6.2261497e-05 0.0000000e+00 
-5.3331593e-07 -3.8246086e-05 0.0000000e+00 
3.9537017e-07 -4.4918634e-05 0.0000000e+00 
2.4227347e-07 -4.4062712e-05 0.0000000e+00 
6.1231515e-07 -5.5959656e-05 0.0000000e+00 
3.2911572e-07 -5.9877671e-05 0.0000000e+00 
4.2167281e-07 -5.9790462e-05 0.0000000e+00 
6.3388251e-07 -5.6432869e-05 0.0000000e+00 
3.8084914e-07 -5.9925955e-05 0.0000000e+00 
2.3929258e-07 -6.0159466e-05 0.0000000e+00 
-7.7828901e-08 -5.0144910e-05 0.0000000e+00 
-3.2475464e-07 -4.2496427e-05 0.0000000e+00 
1.0612023e-07 -3.7748759e-05 0.0000000e+00 
6.1935930e-07 -6.5732071e-05 0.0000000e+00 
-1.2906597e-07 -5.7623405e-05 0.0000000e+00 
1.4997177e-08 -2.8685450e-05 0.0000000e+00 
3.3411189e-07 -5.5564942e-05 0.0000000e+00 
-4.5904665e-07 -4.8611302e-05 0.0000000e+00 
-7.0002227e-07 -5.8752601e-05 0.0000000e+00 
-3.7511549e-07 -4.3902859e-05 0.0000000e+00 
3.7015532e-08 -5.8905851e-05 0.0000000e+00 
1.9344168e-07 -6.6545763e-05 0.0000000e+00 
-1.0563433e-07 -4.6155910e-05 0.0000000e+00 
4.1815889e-07 -4.4925615e-05 0.0000000e+00 
6.0002712e-08 -4.6455170e-05 0.0000000e+00 
3.0618571e-07 -5.0690305e-05 0.0000000e+00 
-2.9453443e-07 -4.4262200e-05 0.0000000e+00 
2.2293922e-07 -5.0451657e-05 0.0000000e+00 
-6.4917822e-07 -6.4987253e-05 0.0000000e+00 
2.1342737e-07 -2.6798267e-05 0.0000000e+00 
2.3873972e-07 -6.6049244e-05 0.0000000e+00 
4.0868597e-09 -2.7681492e-05 0.0000000e+00 
-4.6690948e-07 -6.0042152e-05 0.0000000e+00 
4.6717375e-08 -5.0323488e-05 0.0000000e+00 
-2.2258058e-07 -3.7770686e-05 0.0000000e+00 
-3.8881808e-07 -7.2642069e-05 0.0000000e+00 
3.7245582e-07 -4.5930334e-05 0.0000000e+00 
-1.4571339e-07 -4.5206642e-05 0.0000000e+00 
-6.3194807e-07 -7.4218347e-05 0.0000000e+00 
-2.4730755e-07 -4.3090644e-05 0.0000000e+00 
3.5900311e-07 -6.5937820e-05 0.0000000e+00 
5.3254940e-08 -6.6284112e-05 0.0000000e+00 
5.3304939e-07 -6.6195375e-05 0.0000000e+00 
-3.4073236e-07 -7.4342934e-05 0.0000000e+00 
3.7658171e-07 -6.6130582e-05 0.0000000e+00 
1.0234918e-07 -5.8477224e-05 0.0000000e+00 
-6.3441327e-08 -2.4138957e-05 0.0000000e+00 
9.6692766e-08 -2.4291157e-05 0.0000000e+00 
1.7440497e-06 -6.8781934e-05 0.0000000e+00 
-1.8170348e-06 -6.8807654e-05 0.0000000e+00 
4.4964111e-07 -7.4882839e-05 0.0000000e+00 
6.5796490e-07 -6.4985106e-05 0.0000000e+00 
-4.4404899e-07 -5.4933465e-05 0.0000000e+00 
2.3523077e-08 -5.7482452e-05 0.0000000e+00 
CELL_DATA 246
FIELD FieldData 0
