# vtk DataFile Version 4.0
vtk output
ASCII
DATASET UNSTRUCTURED_GRID
POINTS 144 float
0.0000000e+00 0.0000000e+00 0.0000000e+00 
1.0000000e+00 0.0000000e+00 0.0000000e+00 
1.0000000e+00 1.0000000e+00 0.0000000e+00 
0.0000000e+00 1.0000000e+00 0.0000000e+00 
1.0000000e-01 0.0000000e+00 0.0000000e+00 
2.0000000e-01 0.0000000e+00 0.0000000e+00 
3.0000001e-01 0.0000000e+00 0.0000000e+00 
4.0000001e-01 0.0000000e+00 0.0000000e+00 
5.0000000e-01 0.0000000e+00 0.0000000e+00 
6.0000002e-01 0.0000000e+00 0.0000000e+00 
6.9999999e-01 0.0000000e+00 0.0000000e+00 
8.0000001e-01 0.0000000e+00 0.0000000e+00 
8.9999998e-01 0.0000000e+00 0.0000000e+00 
1.0000000e+00 1.0000000e-01 0.0000000e+00 
1.0000000e+00 2.0000000e-01 0.0000000e+00 
1.0000000e+00 3.0000001e-01 0.0000000e+00 
1.0000000e+00 4.0000001e-01 0.0000000e+00 
1.0000000e+00 5.0000000e-01 0.0000000e+00 
1.0000000e+00 6.0000002e-01 0.0000000e+00 
1.0000000e+00 6.9999999e-01 0.0000000e+00 
1.0000000e+00 8.0000001e-01 0.0000000e+00 
1.0000000e+00 8.9999998e-01 0.0000000e+00 
8.9999998e-01 1.0000000e+00 0.0000000e+00 
8.0000001e-01 1.0000000e+00 0.0000000e+00 
6.9999999e-01 1.0000000e+00 0.0000000e+00 
6.0000002e-01 1.0000000e+00 0.0000000e+00 
5.0000000e-01 1.0000000e+00 0.0000000e+00 
4.0000001e-01 1.0000000e+00 0.0000000e+00 
3.0000001e-01 1.0000000e+00 0.0000000e+00 
2.0000000e-01 1.0000000e+00 0.0000000e+00 
1.0000000e-01 1.0000000e+00 0.0000000e+00 
0.0000000e+00 8.9999998e-01 0.0000000e+00 
0.0000000e+00 8.0000001e-01 0.0000000e+00 
0.0000000e+00 6.9999999e-01 0.0000000e+00 
0.0000000e+00 6.0000002e-01 0.0000000e+00 
0.0000000e+00 5.0000000e-01 0.0000000e+00 
0.0000000e+00 4.0000001e-01 0.0000000e+00 
0.0000000e+00 3.0000001e-01 0.0000000e+00 
0.0000000e+00 2.0000000e-01 0.0000000e+00 
0.0000000e+00 1.0000000e-01 0.0000000e+00 
4.5033512e-01 8.5524812e-02 0.0000000e+00 
9.5000088e-02 5.3608972e-01 0.0000000e+00 
9.1547006e-01 5.5000001e-01 0.0000000e+00 
5.5000001e-01 9.1339743e-01 0.0000000e+00 
9.1339743e-01 3.4999999e-01 0.0000000e+00 
3.4999999e-01 9.1669172e-01 0.0000000e+00 
8.8579953e-02 3.4872410e-01 0.0000000e+00 
6.4999998e-01 8.6602539e-02 0.0000000e+00 
9.1127491e-01 7.4795848e-01 0.0000000e+00 
6.6607341e-02 7.5098073e-01 0.0000000e+00 
2.4514475e-01 8.5484609e-02 0.0000000e+00 
7.4680746e-01 9.1993588e-01 0.0000000e+00 
9.0420872e-01 1.5861149e-01 0.0000000e+00 
1.5042374e-01 9.1532278e-01 0.0000000e+00 
8.7588154e-02 1.6267365e-01 0.0000000e+00 
7.4918270e-01 8.6130671e-02 0.0000000e+00 
6.9882751e-01 1.7252813e-01 0.0000000e+00 
6.0000002e-01 1.7320508e-01 0.0000000e+00 
6.4876831e-01 2.5909650e-01 0.0000000e+00 
5.4933882e-01 2.5818285e-01 0.0000000e+00 
5.9902751e-01 3.4564152e-01 0.0000000e+00 
5.0000000e-01 3.4641016e-01 0.0000000e+00 
5.4918092e-01 4.3250528e-01 0.0000000e+00 
4.4986349e-01 4.3292814e-01 0.0000000e+00 
4.9984074e-01 5.1951659e-01 0.0000000e+00 
5.9917998e-01 5.2102238e-01 0.0000000e+00 
3.9995071e-01 5.1958472e-01 0.0000000e+00 
4.4996524e-01 6.0619622e-01 0.0000000e+00 
3.9827734e-01 3.4236532e-01 0.0000000e+00 
3.4998599e-01 6.0620910e-01 0.0000000e+00 
2.9998946e-01 5.1960868e-01 0.0000000e+00 
4.0246150e-01 6.9138944e-01 0.0000000e+00 
5.0040448e-01 6.9257826e-01 0.0000000e+00 
6.9183892e-01 3.4861544e-01 0.0000000e+00 
3.0287755e-01 6.8788534e-01 0.0000000e+00 
4.5107409e-01 7.7642798e-01 0.0000000e+00 
5.5000001e-01 7.7942288e-01 0.0000000e+00 
6.0006744e-01 6.9277996e-01 0.0000000e+00 
6.4999998e-01 7.7942288e-01 0.0000000e+00 
7.0001125e-01 6.9281358e-01 0.0000000e+00 
7.4810976e-01 7.7827942e-01 0.0000000e+00 
8.1429243e-01 6.9644338e-01 0.0000000e+00 
7.5505483e-01 6.0440248e-01 0.0000000e+00 
7.9754496e-01 1.6455974e-01 0.0000000e+00 
8.4409988e-01 9.0543878e-01 0.0000000e+00 
2.5007063e-01 9.1426742e-01 0.0000000e+00 
1.9948809e-01 8.3684945e-01 0.0000000e+00 
3.0239609e-01 8.4084076e-01 0.0000000e+00 
5.5039096e-01 8.6229436e-02 0.0000000e+00 
2.5227043e-01 6.0435647e-01 0.0000000e+00 
2.0253047e-01 6.7697614e-01 0.0000000e+00 
2.0000000e-01 5.1961523e-01 0.0000000e+00 
2.4994016e-01 4.3122852e-01 0.0000000e+00 
1.5013675e-01 4.3705931e-01 0.0000000e+00 
1.9500943e-01 3.4477931e-01 0.0000000e+00 
1.4187421e-01 2.5843257e-01 0.0000000e+00 
2.4087626e-01 2.5457630e-01 0.0000000e+00 
2.9581064e-01 3.4174213e-01 0.0000000e+00 
3.4302756e-01 2.5211102e-01 0.0000000e+00 
4.4705081e-01 2.5426328e-01 0.0000000e+00 
1.8726690e-01 1.7076795e-01 0.0000000e+00 
9.1374290e-01 4.4999999e-01 0.0000000e+00 
8.1292653e-01 5.1219177e-01 0.0000000e+00 
6.4999998e-01 9.1339743e-01 0.0000000e+00 
9.4903819e-02 6.5753615e-01 0.0000000e+00 
3.4647793e-01 8.5224926e-02 0.0000000e+00 
9.1339743e-01 6.4999998e-01 0.0000000e+00 
8.3004320e-01 4.0203196e-01 0.0000000e+00 
8.3633298e-01 3.0639145e-01 0.0000000e+00 
7.4173015e-01 4.3506145e-01 0.0000000e+00 
9.1635197e-01 2.5751698e-01 0.0000000e+00 
4.4999999e-01 9.1524893e-01 0.0000000e+00 
5.4990965e-01 6.0638523e-01 0.0000000e+00 
3.4897196e-01 4.3124291e-01 0.0000000e+00 
6.5070385e-01 6.0805732e-01 0.0000000e+00 
4.9951929e-01 1.7088418e-01 0.0000000e+00 
6.4682627e-01 4.3563104e-01 0.0000000e+00 
3.9496639e-01 1.7007479e-01 0.0000000e+00 
9.2003214e-01 8.4667110e-01 0.0000000e+00 
8.4628856e-01 8.0417827e-02 0.0000000e+00 
9.0504780e-02 8.4245151e-01 0.0000000e+00 
1.5290669e-01 8.2261533e-02 0.0000000e+00 
7.5581288e-01 2.6161289e-01 0.0000000e+00 
2.9022500e-01 1.7048772e-01 0.0000000e+00 
7.0076448e-01 5.2269316e-01 0.0000000e+00 
8.3802330e-01 7.9983431e-01 0.0000000e+00 
8.4137177e-01 6.0186249e-01 0.0000000e+00 
1.6660626e-01 5.9922481e-01 0.0000000e+00 
3.5146821e-01 7.6715195e-01 0.0000000e+00 
6.7398138e-02 4.4853568e-01 0.0000000e+00 
6.0000002e-01 8.4641016e-01 0.0000000e+00 
6.9999999e-01 8.4641016e-01 0.0000000e+00 
5.0000000e-01 8.4641016e-01 0.0000000e+00 
2.5092945e-01 7.6027036e-01 0.0000000e+00 
4.0000001e-01 8.4656054e-01 0.0000000e+00 
6.1870042e-02 2.5000000e-01 0.0000000e+00 
9.2679495e-01 7.3205084e-02 0.0000000e+00 
7.3205084e-02 7.3205084e-02 0.0000000e+00 
9.2679495e-01 9.2679495e-01 0.0000000e+00 
7.3205084e-02 9.2679495e-01 0.0000000e+00 
1.5420890e-01 7.5578600e-01 0.0000000e+00 
7.7540809e-01 8.4997970e-01 0.0000000e+00 
7.7320510e-01 3.4999999e-01 0.0000000e+00 
8.4417260e-01 2.3009899e-01 0.0000000e+00 

CELLS 246 984
3 82 124 102
3 41 93 91
3 81 106 48
3 90 140 104
3 104 140 49
3 41 129 93
3 102 126 82
3 48 125 81
3 102 124 109
3 54 100 95
3 98 99 68
3 117 123 105
3 95 135 54
3 97 98 68
3 120 140 86
3 46 95 94
3 81 126 106
3 104 127 90
3 97 113 92
3 46 94 93
3 53 120 86
3 116 124 65
3 83 119 52
3 61 99 59
3 68 99 61
3 98 123 117
3 68 113 97
3 94 97 92
3 109 116 73
3 81 125 80
3 128 133 74
3 91 127 41
3 52 143 83
3 109 124 116
3 84 125 118
3 95 96 94
3 99 115 59
3 49 140 120
3 105 123 50
3 96 97 94
3 95 100 96
3 100 121 50
3 87 133 128
3 96 98 97
3 50 123 100
3 28 85 45
3 29 85 28
3 67 71 69
3 71 74 69
3 85 87 45
3 47 88 9
3 41 104 34
3 58 59 57
3 58 60 59
3 7 105 6
3 10 47 9
3 10 55 47
3 35 41 34
3 56 58 57
3 14 110 52
3 16 44 15
3 16 101 44
3 42 101 17
3 19 106 18
3 20 48 19
3 48 106 19
3 23 84 22
3 24 51 23
3 24 103 51
3 26 43 25
3 43 103 25
3 26 111 43
3 53 85 29
3 42 102 101
3 101 107 44
3 108 110 44
3 55 56 47
3 64 112 67
3 65 114 112
3 67 72 71
3 69 89 70
3 74 89 69
3 89 91 70
3 72 76 75
3 72 112 77
3 77 78 76
3 112 114 77
3 8 88 40
3 11 55 10
3 33 49 32
3 6 50 5
3 8 40 7
3 14 52 13
3 37 46 36
3 55 83 56
3 62 63 61
3 64 66 63
3 91 92 70
3 86 87 85
3 39 54 38
3 6 105 50
3 40 105 7
3 15 110 14
3 44 110 15
3 17 101 16
3 27 111 26
3 28 45 27
3 30 53 29
3 33 104 49
3 107 108 44
3 57 88 47
3 64 67 66
3 70 113 66
3 67 112 72
3 72 75 71
3 74 90 89
3 77 114 79
3 93 94 92
3 102 107 101
3 102 109 107
3 9 88 8
3 58 73 60
3 60 61 59
3 63 68 61
3 62 65 64
3 66 113 63
3 77 79 78
3 91 93 92
3 62 64 63
3 63 113 68
3 92 113 70
3 34 104 33
3 56 57 47
3 53 86 85
3 18 42 17
3 51 84 23
3 25 103 24
3 45 111 27
3 60 62 61
3 65 112 64
3 67 69 66
3 79 81 80
3 79 82 81
3 18 106 42
3 69 70 66
3 79 80 78
3 79 114 82
3 72 77 76
3 73 142 109
3 84 141 125
3 88 115 40
3 59 115 57
3 115 117 40
3 98 117 99
3 62 116 65
3 73 116 60
3 57 115 88
3 99 117 115
3 32 120 31
3 55 119 83
3 12 119 11
3 21 118 20
3 58 122 73
3 83 122 56
3 93 129 46
3 5 121 4
3 60 116 62
3 50 121 5
3 65 124 114
3 100 123 96
3 42 126 102
3 82 126 81
3 90 127 89
3 40 117 105
3 46 135 95
3 11 119 55
3 49 120 32
3 20 118 48
3 54 121 100
3 71 128 74
3 35 129 41
3 46 129 36
3 87 134 45
3 56 122 58
3 54 135 38
3 37 135 46
3 1 136 12
3 13 136 1
3 4 137 0
3 0 137 39
3 2 138 21
3 22 138 2
3 3 139 30
3 31 139 3
3 110 143 52
3 109 142 107
3 96 123 98
3 83 143 122
3 114 124 82
3 89 127 91
3 106 126 42
3 41 127 104
3 122 142 73
3 122 143 108
3 118 125 48
3 51 141 84
3 128 134 87
3 75 128 71
3 36 129 35
3 132 134 75
3 43 130 103
3 78 130 76
3 111 132 43
3 86 133 87
3 76 132 75
3 103 131 51
3 78 131 130
3 130 131 103
3 74 133 90
3 80 131 78
3 130 132 76
3 43 132 130
3 111 134 132
3 45 134 111
3 108 142 122
3 12 136 119
3 120 139 31
3 21 138 118
3 38 135 37
3 52 136 13
3 30 139 53
3 39 137 54
3 84 138 22
3 121 137 4
3 107 142 108
3 108 143 110
3 118 138 84
3 53 139 120
3 119 136 52
3 54 137 121
3 75 134 128
3 86 140 133
3 133 140 90
3 125 141 80
3 80 141 131
3 131 141 51

CELL_TYPES 246
5
5
5
5
5
5
5
5
5
5
5
5
5
5
5
5
5
5
5
5
5
5
5
5
5
5
5
5
5
5
5
5
5
5
5
5
5
5
5
5
5
5
5
5
5
5
5
5
5
5
5
5
5
5
5
5
5
5
5
5
5
5
5
5
5
5
5
5
5
5
5
5
5
5
5
5
5
5
5
5
5
5
5
5
5
5
5
5
5
5
5
5
5
5
5
5
5
5
5
5
5
5
5
5
5
5
5
5
5
5
5
5
5
5
5
5
5
5
5
5
5
5
5
5
5
5
5
5
5
5
5
5
5
5
5
5
5
5
5
5
5
5
5
5
5
5
5
5
5
5
5
5
5
5
5
5
5
5
5
5
5
5
5
5
5
5
5
5
5
5
5
5
5
5
5
5
5
5
5
5
5
5
5
5
5
5
5
5
5
5
5
5
5
5
5
5
5
5
5
5
5
5
5
5
5
5
5
5
5
5
5
5
5
5
5
5
5
5
5
5
5
5
5
5
5
5
5
5
5
5
5
5
5
5
5
5
5
5
5
5
5
5
5
5
5
5
POINT_DATA 144
FIELD FieldData 2
DISPLACEMENT 3 144  float
0.0000000e+00 0.0000000e+00 0.0000000e+00 
0.0000000e+00 0.0000000e+00 0.0000000e+00 
0.0000000e+00 -1.5435644e-05 0.0000000e+00 
0.0000000e+00 -1.5435204e-05 0.0000000e+00 
0.0000000e+00 0.0000000e+00 0.0000000e+00 
0.0000000e+00 0.0000000e+00 0.0000000e+00 
0.0000000e+00 0.0000000e+00 0.0000000e+00 
0.0000000e+00 0.0000000e+00 0.0000000e+00 
0.0000000e+00 0.0000000e+00 0.0000000e+00 
0.0000000e+00 0.0000000e+00 0.0000000e+00 
0.0000000e+00 0.0000000e+00 0.0000000e+00 
0.0000000e+00 0.0000000e+00 0.0000000e+00 
0.0000000e+00 0.0000000e+00 0.0000000e+00 
0.0000000e+00 -1.5334987e-06 0.0000000e+00 
0.0000000e+00 -3.0745425e-06 0.0000000e+00 
0.0000000e+00 -4.6195591e-06 0.0000000e+00 
0.0000000e+00 -6.1586234e-06 0.0000000e+00 
0.0000000e+00 -7.6907181e-06 0.0000000e+00 
0.0000000e+00 -9.2270357e-06 0.0000000e+00 
0.0000000e+00 -1.0771836e-05 0.0000000e+00 
0.0000000e+00 -1.2319570e-05 0.0000000e+00 
0.0000000e+00 -1.3876715e-05 0.0000000e+00 
6.5933975e-10 -1.5435424e-05 0.0000000e+00 
-4.3530898e-10 -1.5434996e-05 0.0000000e+00 
-2.7952940e-10 -1.5435409e-05 0.0000000e+00 
-3.9496106e-10 -1.5436141e-05 0.0000000e+00 
-5.4979671e-10 -1.5436135e-05 0.0000000e+00 
-5.0688831e-10 -1.5435946e-05 0.0000000e+00 
-7.4020859e-12 -1.5435849e-05 0.0000000e+00 
1.0696206e-10 -1.5435624e-05 0.0000000e+00 
-4.2733153e-10 -1.5435302e-05 0.0000000e+00 
0.0000000e+00 -1.3876846e-05 0.0000000e+00 
0.0000000e+00 -1.2319900e-05 0.0000000e+00 
0.0000000e+00 -1.0771734e-05 0.0000000e+00 
0.0000000e+00 -9.2271111e-06 0.0000000e+00 
0.0000000e+00 -7.6906908e-06 0.0000000e+00 
0.0000000e+00 -6.1582887e-06 0.0000000e+00 
0.0000000e+00 -4.6190453e-06 0.0000000e+00 
0.0000000e+00 -3.0740730e-06 0.0000000e+00 
0.0000000e+00 -1.5332233e-06 0.0000000e+00 
-3.8984437e-11 -1.3110611e-06 0.0000000e+00 
-1.9564159e-10 -8.2441029e-06 0.0000000e+00 
1.8591616e-10 -8.4577259e-06 0.0000000e+00 
-2.6692912e-10 -1.4086855e-05 0.0000000e+00 
1.1215306e-10 -5.3902395e-06 0.0000000e+00 
-4.5719026e-10 -1.4138035e-05 0.0000000e+00 
2.7764712e-11 -5.3702247e-06 0.0000000e+00 
-5.1805077e-10 -1.3274293e-06 0.0000000e+00 
-2.8690775e-10 -1.1513141e-05 0.0000000e+00 
1.2147605e-10 -1.1560266e-05 0.0000000e+00 
2.4372585e-10 -1.3102359e-06 0.0000000e+00 
-1.2010966e-10 -1.4187966e-05 0.0000000e+00 
-3.2595288e-10 -2.4355456e-06 0.0000000e+00 
-3.1395425e-10 -1.4116164e-05 0.0000000e+00 
1.8305588e-10 -2.4978663e-06 0.0000000e+00 
-5.2765031e-10 -1.3202813e-06 0.0000000e+00 
-5.2233795e-10 -2.6499326e-06 0.0000000e+00 
-4.5257811e-10 -2.6602424e-06 0.0000000e+00 
-2.6104971e-10 -3.9873239e-06 0.0000000e+00 
-2.3879404e-10 -3.9729684e-06 0.0000000e+00 
-1.9217021e-10 -5.3229392e-06 0.0000000e+00 
-1.7281110e-10 -5.3346339e-06 0.0000000e+00 
4.5892248e-12 -6.6568105e-06 0.0000000e+00 
1.0199000e-11 -6.6634084e-06 0.0000000e+00 
-1.2215307e-10 -7.9899201e-06 0.0000000e+00 
3.9310531e-11 -8.0129857e-06 0.0000000e+00 
-2.6827940e-10 -7.9911342e-06 0.0000000e+00 
-1.5403903e-10 -9.3231329e-06 0.0000000e+00 
-3.9831999e-11 -5.2726059e-06 0.0000000e+00 
-1.0357352e-10 -9.3231120e-06 0.0000000e+00 
-2.6981786e-10 -7.9912970e-06 0.0000000e+00 
1.3310494e-10 -1.0638967e-05 0.0000000e+00 
2.5592678e-10 -1.0657604e-05 0.0000000e+00 
-1.3772800e-10 -5.3692538e-06 0.0000000e+00 
4.4548337e-11 -1.0584605e-05 0.0000000e+00 
-6.2110150e-11 -1.1954624e-05 0.0000000e+00 
7.5570508e-11 -1.2001137e-05 0.0000000e+00 
3.4294581e-10 -1.0660658e-05 0.0000000e+00 
1.1067385e-10 -1.2000822e-05 0.0000000e+00 
3.8207351e-10 -1.0660755e-05 0.0000000e+00 
2.1001166e-10 -1.1982618e-05 0.0000000e+00 
2.0898216e-10 -1.0716755e-05 0.0000000e+00 
2.1050837e-10 -9.2948549e-06 0.0000000e+00 
-3.5163783e-10 -2.5272541e-06 0.0000000e+00 
1.5440947e-13 -1.3961717e-05 0.0000000e+00 
-3.5483197e-10 -1.4100180e-05 0.0000000e+00 
-4.2941675e-10 -1.2892736e-05 0.0000000e+00 
-2.7548169e-10 -1.2955118e-05 0.0000000e+00 
-2.9526648e-10 -1.3217833e-06 0.0000000e+00 
-9.8526368e-11 -9.2942137e-06 0.0000000e+00 
-2.1068038e-10 -1.0416073e-05 0.0000000e+00 
-2.2700246e-10 -7.9912388e-06 0.0000000e+00 
1.6175118e-10 -6.6374696e-06 0.0000000e+00 
2.6983699e-10 -6.7266501e-06 0.0000000e+00 
-7.7487808e-12 -5.3097619e-06 0.0000000e+00 
2.7312699e-11 -3.9770775e-06 0.0000000e+00 
1.1626233e-10 -3.9175056e-06 0.0000000e+00 
8.4487504e-12 -5.2631440e-06 0.0000000e+00 
2.2474683e-10 -3.8794410e-06 0.0000000e+00 
5.9714685e-11 -3.9125862e-06 0.0000000e+00 
3.8169184e-10 -2.6227863e-06 0.0000000e+00 
-1.8189802e-10 -6.9249431e-06 0.0000000e+00 
-1.6126081e-10 -7.8775074e-06 0.0000000e+00 
-2.0528660e-11 -1.4086407e-05 0.0000000e+00 
-1.3351092e-10 -1.0115443e-05 0.0000000e+00 
1.4798281e-10 -1.3064084e-06 0.0000000e+00 
1.2465367e-11 -9.9989438e-06 0.0000000e+00 
-5.6877666e-11 -6.1899314e-06 0.0000000e+00 
-1.2524200e-11 -4.7179128e-06 0.0000000e+00 
2.2674959e-12 -6.6963385e-06 0.0000000e+00 
-1.3521967e-11 -3.9631364e-06 0.0000000e+00 
-3.9160916e-10 -1.4115539e-05 0.0000000e+00 
2.6516591e-12 -9.3260205e-06 0.0000000e+00 
2.4968007e-11 -6.6378020e-06 0.0000000e+00 
1.5138280e-10 -9.3515582e-06 0.0000000e+00 
-1.0687136e-10 -2.6246023e-06 0.0000000e+00 
8.4531333e-11 -6.7049623e-06 0.0000000e+00 
2.3768937e-10 -2.6122177e-06 0.0000000e+00 
1.2005601e-10 -1.3045525e-05 0.0000000e+00 
-3.3067596e-10 -1.2326085e-06 0.0000000e+00 
-4.5572426e-10 -1.2979829e-05 0.0000000e+00 
1.2381698e-10 -1.2606827e-06 0.0000000e+00 
-6.6555025e-11 -4.0264845e-06 0.0000000e+00 
4.1484810e-10 -2.6184689e-06 0.0000000e+00 
-1.0393915e-11 -8.0385335e-06 0.0000000e+00 
-3.7586281e-11 -1.2316723e-05 0.0000000e+00 
7.9372182e-11 -9.2561804e-06 0.0000000e+00 
-2.2382381e-10 -9.2153969e-06 0.0000000e+00 
-2.7438654e-10 -1.1810655e-05 0.0000000e+00 
-3.7787079e-11 -6.9022558e-06 0.0000000e+00 
8.4288646e-11 -1.3042130e-05 0.0000000e+00 
1.8132079e-10 -1.3041617e-05 0.0000000e+00 
-4.2270867e-11 -1.3042264e-05 0.0000000e+00 
-2.3246680e-10 -1.1704102e-05 0.0000000e+00 
-1.0727647e-10 -1.3044321e-05 0.0000000e+00 
1.8625050e-10 -3.8465928e-06 0.0000000e+00 
-5.5461667e-11 -1.1221849e-06 0.0000000e+00 
-3.0969994e-11 -1.1220518e-06 0.0000000e+00 
-1.9076697e-10 -1.4295048e-05 0.0000000e+00 
8.2938746e-11 -1.4294917e-05 0.0000000e+00 
1.9820802e-10 -1.1634249e-05 0.0000000e+00 
7.1588173e-11 -1.3097033e-05 0.0000000e+00 
-1.2650209e-10 -5.3902345e-06 0.0000000e+00 
-1.0729232e-10 -3.5391411e-06 0.0000000e+00 
VELOCITY 3 144  float
0.0000000e+00 0.0000000e+00 0.0000000e+00 
0.0000000e+00 0.0000000e+00 0.0000000e+00 
0.0000000e+00 -1.8297171e-04 0.0000000e+00 
0.0000000e+00 -1.8311717e-04 0.0000000e+00 
0.0000000e+00 0.0000000e+00 0.0000000e+00 
0.0000000e+00 0.0000000e+00 0.0000000e+00 
0.0000000e+00 0.0000000e+00 0.0000000e+00 
0.0000000e+00 0.0000000e+00 0.0000000e+00 
0.0000000e+00 0.0000000e+00 0.0000000e+00 
0.0000000e+00 0.0000000e+00 0.0000000e+00 
0.0000000e+00 0.0000000e+00 0.0000000e+00 
0.0000000e+00 0.0000000e+00 0.0000000e+00 
0.0000000e+00 0.0000000e+00 0.0000000e+00 
0.0000000e+00 5.0957492e-06 0.0000000e+00 
0.0000000e+00 -4.9383029e-06 0.0000000e+00 
0.0000000e+00 -2.6051393e-05 0.0000000e+00 
0.0000000e+00 -5.2259056e-05 0.0000000e+00 
0.0000000e+00 -9.3480783e-05 0.0000000e+00 
0.0000000e+00 -1.4273322e-04 0.0000000e+00 
0.0000000e+00 -1.6061704e-04 0.0000000e+00 
0.0000000e+00 -1.6994044e-04 0.0000000e+00 
0.0000000e+00 -1.8407803e-04 0.0000000e+00 
2.6050243e-06 -1.8023887e-04 0.0000000e+00 
6.3776741e-07 -1.7918528e-04 0.0000000e+00 
1.0856128e-08 -1.8177211e-04 0.0000000e+00 
-2.8986045e-07 -1.8061970e-04 0.0000000e+00 
-7.1363303e-07 -1.8204722e-04 0.0000000e+00 
-6.9048599e-07 -1.8197458e-04 0.0000000e+00 
-3.2737131e-07 -1.8159169e-04 0.0000000e+00 
-2.2797126e-06 -1.8016939e-04 0.0000000e+00 
-1.6913444e-06 -1.8339418e-04 0.0000000e+00 
0.0000000e+00 -1.8476503e-04 0.0000000e+00 
0.0000000e+00 -1.6901077e-04 0.0000000e+00 
0.0000000e+00 -1.6180844e-04 0.0000000e+00 
0.0000000e+00 -1.4249944e-04 0.0000000e+00 
0.0000000e+00 -9.2766801e-05 0.0000000e+00 
0.0000000e+00 -5.1420342e-05 0.0000000e+00 
0.0000000e+00 -2.4197565e-05 0.0000000e+00 
0.0000000e+00 -3.4740044e-06 0.0000000e+00 
0.0000000e+00 5.7178854e-06 0.0000000e+00 
-3.1928067e-08 5.8033843e-06 0.0000000e+00 
-3.1452836e-07 -1.1208174e-04 0.0000000e+00 
3.6262915e-07 -1.1903793e-04 0.0000000e+00 
1.4858914e-07 -1.8188101e-04 0.0000000e+00 
-2.3219532e-07 -3.7535370e-05 0.0000000e+00 
-5.5775479e-07 -1.8088474e-04 0.0000000e+00 
6.1195936e-07 -3.5541791e-05 0.0000000e+00 
-2.5692708e-07 5.4910720e-06 0.0000000e+00 
-1.0677221e-06 -1.6327683e-04 0.0000000e+00 
-1.5920390e-06 -1.6474088e-04 0.0000000e+00 
1.8667525e-07 5.2568435e-06 0.0000000e+00 
5.8816755e-07 -1.7984647e-04 0.0000000e+00 
-1.7922025e-07 2.0585669e-06 0.0000000e+00 
2.1571162e-07 -1.8115086e-04 0.0000000e+00 
-1.2758062e-07 1.9168701e-06 0.0000000e+00 
6.7211090e-08 5.5672044e-06 0.0000000e+00 
-3.8034109e-08 2.0877721e-07 0.0000000e+00 
-3.0688815e-07 3.9407760e-07 0.0000000e+00 
-4.4234053e-08 -1.5622320e-05 0.0000000e+00 
-2.5095301e-07 -1.4736186e-05 0.0000000e+00 
8.9061253e-08 -3.5710789e-05 0.0000000e+00 
1.4767789e-07 -3.5364414e-05 0.0000000e+00 
3.0732141e-07 -6.2659507e-05 0.0000000e+00 
2.6012708e-07 -6.2807121e-05 0.0000000e+00 
-2.4592759e-07 -1.0400154e-04 0.0000000e+00 
-3.4424079e-07 -1.0439404e-04 0.0000000e+00 
-1.2282705e-07 -1.0362233e-04 0.0000000e+00 
6.6985973e-07 -1.4538523e-04 0.0000000e+00 
-1.2051342e-07 -3.4312445e-05 0.0000000e+00 
9.5297463e-07 -1.4485544e-04 0.0000000e+00 
2.1199467e-07 -1.0284089e-04 0.0000000e+00 
-3.2771666e-07 -1.6083721e-04 0.0000000e+00 
5.0227104e-08 -1.6126978e-04 0.0000000e+00 
-1.4394020e-07 -3.6255860e-05 0.0000000e+00 
-1.0154179e-06 -1.6091931e-04 0.0000000e+00 
-1.6321469e-07 -1.6670799e-04 0.0000000e+00 
-1.9210118e-07 -1.6702671e-04 0.0000000e+00 
-5.7431667e-08 -1.6117728e-04 0.0000000e+00 
2.3946674e-07 -1.6645527e-04 0.0000000e+00 
-1.8741038e-07 -1.6099922e-04 0.0000000e+00 
1.0061610e-06 -1.6692338e-04 0.0000000e+00 
-6.7080981e-07 -1.6151293e-04 0.0000000e+00 
1.2899656e-07 -1.4589928e-04 0.0000000e+00 
1.8106699e-07 1.5539205e-06 0.0000000e+00 
1.9940281e-07 -1.8294627e-04 0.0000000e+00 
-5.9927800e-07 -1.8117543e-04 0.0000000e+00 
-9.4504077e-07 -1.8204591e-04 0.0000000e+00 
-6.3665067e-07 -1.8260638e-04 0.0000000e+00 
-3.5586169e-07 5.7188408e-06 0.0000000e+00 
5.8835116e-07 -1.4451094e-04 0.0000000e+00 
-8.0765483e-07 -1.5912260e-04 0.0000000e+00 
2.0487465e-07 -1.0313515e-04 0.0000000e+00 
5.0675817e-07 -6.1170060e-05 0.0000000e+00 
2.7340349e-07 -6.3179970e-05 0.0000000e+00 
4.5345158e-07 -3.4459154e-05 0.0000000e+00 
2.2523571e-08 -1.4720793e-05 0.0000000e+00 
-6.1343042e-07 -1.4471732e-05 0.0000000e+00 
-1.2818775e-07 -3.4278262e-05 0.0000000e+00 
-6.5058396e-07 -1.3494888e-05 0.0000000e+00 
-4.3707360e-07 -1.3448808e-05 0.0000000e+00 
-1.4338070e-07 4.1315516e-08 0.0000000e+00 
-3.9936790e-08 -6.9856906e-05 0.0000000e+00 
4.8943713e-07 -9.9362987e-05 0.0000000e+00 
2.9937988e-07 -1.8071750e-04 0.0000000e+00 
1.1216868e-06 -1.5843996e-04 0.0000000e+00 
2.9464161e-07 5.5368109e-06 0.0000000e+00 
-9.3196405e-08 -1.5671644e-04 0.0000000e+00 
-2.8525020e-07 -5.2107647e-05 0.0000000e+00 
-4.0326478e-07 -2.6134056e-05 0.0000000e+00 
-3.3892141e-07 -6.2907886e-05 0.0000000e+00 
-1.5810795e-07 -1.5604905e-05 0.0000000e+00 
-4.3323169e-07 -1.8147875e-04 0.0000000e+00 
2.8398131e-07 -1.4580773e-04 0.0000000e+00 
2.4212900e-07 -6.1857791e-05 0.0000000e+00 
2.5823667e-07 -1.4594123e-04 0.0000000e+00 
-3.3700042e-07 1.2256693e-06 0.0000000e+00 
-2.1096839e-07 -6.3800260e-05 0.0000000e+00 
-1.3957933e-07 1.2252530e-06 0.0000000e+00 
1.4744979e-06 -1.8493105e-04 0.0000000e+00 
7.9083193e-08 5.6960753e-06 0.0000000e+00 
-6.9884175e-07 -1.8423102e-04 0.0000000e+00 
-2.8124509e-07 5.3192584e-06 0.0000000e+00 
-1.6806574e-07 -1.5869304e-05 0.0000000e+00 
-8.3791839e-08 4.4672626e-07 0.0000000e+00 
-6.0774971e-07 -1.0529725e-04 0.0000000e+00 
8.0654718e-07 -1.7072074e-04 0.0000000e+00 
-3.0835614e-07 -1.4280692e-04 0.0000000e+00 
8.4047070e-07 -1.4305743e-04 0.0000000e+00 
9.3126964e-08 -1.6576920e-04 0.0000000e+00 
-3.3882441e-07 -6.9269066e-05 0.0000000e+00 
5.3983490e-07 -1.8308974e-04 0.0000000e+00 
6.5845666e-07 -1.8302015e-04 0.0000000e+00 
-3.5096849e-07 -1.8364511e-04 0.0000000e+00 
9.2971823e-07 -1.6414335e-04 0.0000000e+00 
-8.9370553e-07 -1.8363584e-04 0.0000000e+00 
2.2445795e-07 -1.2853936e-05 0.0000000e+00 
1.8294662e-07 4.7416984e-06 0.0000000e+00 
-3.6310720e-07 4.7420335e-06 0.0000000e+00 
-7.0999181e-07 -1.7745563e-04 0.0000000e+00 
8.5071071e-07 -1.7754118e-04 0.0000000e+00 
4.7164491e-07 -1.6292295e-04 0.0000000e+00 
-7.6677543e-07 -1.8472064e-04 0.0000000e+00 
-3.4644341e-07 -3.6636782e-05 0.0000000e+00 
-1.1669133e-07 -9.1275360e-06 0.0000000e+00 
CELL_DATA 246
FIELD FieldData 0
