# vtk DataFile Version 4.0
vtk output
ASCII
DATASET UNSTRUCTURED_GRID
POINTS 144 float
0.0000000e+00 0.0000000e+00 0.0000000e+00 
1.0000000e+00 0.0000000e+00 0.0000000e+00 
1.0000000e+00 1.0000000e+00 0.0000000e+00 
0.0000000e+00 1.0000000e+00 0.0000000e+00 
1.0000000e-01 0.0000000e+00 0.0000000e+00 
2.0000000e-01 0.0000000e+00 0.0000000e+00 
3.0000001e-01 0.0000000e+00 0.0000000e+00 
4.0000001e-01 0.0000000e+00 0.0000000e+00 
5.0000000e-01 0.0000000e+00 0.0000000e+00 
6.0000002e-01 0.0000000e+00 0.0000000e+00 
6.9999999e-01 0.0000000e+00 0.0000000e+00 
8.0000001e-01 0.0000000e+00 0.0000000e+00 
8.9999998e-01 0.0000000e+00 0.0000000e+00 
1.0000000e+00 1.0000000e-01 0.0000000e+00 
1.0000000e+00 2.0000000e-01 0.0000000e+00 
1.0000000e+00 3.0000001e-01 0.0000000e+00 
1.0000000e+00 4.0000001e-01 0.0000000e+00 
1.0000000e+00 5.0000000e-01 0.0000000e+00 
1.0000000e+00 6.0000002e-01 0.0000000e+00 
1.0000000e+00 6.9999999e-01 0.0000000e+00 
1.0000000e+00 8.0000001e-01 0.0000000e+00 
1.0000000e+00 8.9999998e-01 0.0000000e+00 
8.9999998e-01 1.0000000e+00 0.0000000e+00 
8.0000001e-01 1.0000000e+00 0.0000000e+00 
6.9999999e-01 1.0000000e+00 0.0000000e+00 
6.0000002e-01 1.0000000e+00 0.0000000e+00 
5.0000000e-01 1.0000000e+00 0.0000000e+00 
4.0000001e-01 1.0000000e+00 0.0000000e+00 
3.0000001e-01 1.0000000e+00 0.0000000e+00 
2.0000000e-01 1.0000000e+00 0.0000000e+00 
1.0000000e-01 1.0000000e+00 0.0000000e+00 
0.0000000e+00 8.9999998e-01 0.0000000e+00 
0.0000000e+00 8.0000001e-01 0.0000000e+00 
0.0000000e+00 6.9999999e-01 0.0000000e+00 
0.0000000e+00 6.0000002e-01 0.0000000e+00 
0.0000000e+00 5.0000000e-01 0.0000000e+00 
0.0000000e+00 4.0000001e-01 0.0000000e+00 
0.0000000e+00 3.0000001e-01 0.0000000e+00 
0.0000000e+00 2.0000000e-01 0.0000000e+00 
0.0000000e+00 1.0000000e-01 0.0000000e+00 
4.5033512e-01 8.5524812e-02 0.0000000e+00 
9.5000088e-02 5.3608972e-01 0.0000000e+00 
9.1547006e-01 5.5000001e-01 0.0000000e+00 
5.5000001e-01 9.1339743e-01 0.0000000e+00 
9.1339743e-01 3.4999999e-01 0.0000000e+00 
3.4999999e-01 9.1669172e-01 0.0000000e+00 
8.8579953e-02 3.4872410e-01 0.0000000e+00 
6.4999998e-01 8.6602539e-02 0.0000000e+00 
9.1127491e-01 7.4795848e-01 0.0000000e+00 
6.6607341e-02 7.5098073e-01 0.0000000e+00 
2.4514475e-01 8.5484609e-02 0.0000000e+00 
7.4680746e-01 9.1993588e-01 0.0000000e+00 
9.0420872e-01 1.5861149e-01 0.0000000e+00 
1.5042374e-01 9.1532278e-01 0.0000000e+00 
8.7588154e-02 1.6267365e-01 0.0000000e+00 
7.4918270e-01 8.6130671e-02 0.0000000e+00 
6.9882751e-01 1.7252813e-01 0.0000000e+00 
6.0000002e-01 1.7320508e-01 0.0000000e+00 
6.4876831e-01 2.5909650e-01 0.0000000e+00 
5.4933882e-01 2.5818285e-01 0.0000000e+00 
5.9902751e-01 3.4564152e-01 0.0000000e+00 
5.0000000e-01 3.4641016e-01 0.0000000e+00 
5.4918092e-01 4.3250528e-01 0.0000000e+00 
4.4986349e-01 4.3292814e-01 0.0000000e+00 
4.9984074e-01 5.1951659e-01 0.0000000e+00 
5.9917998e-01 5.2102238e-01 0.0000000e+00 
3.9995071e-01 5.1958472e-01 0.0000000e+00 
4.4996524e-01 6.0619622e-01 0.0000000e+00 
3.9827734e-01 3.4236532e-01 0.0000000e+00 
3.4998599e-01 6.0620910e-01 0.0000000e+00 
2.9998946e-01 5.1960868e-01 0.0000000e+00 
4.0246150e-01 6.9138944e-01 0.0000000e+00 
5.0040448e-01 6.9257826e-01 0.0000000e+00 
6.9183892e-01 3.4861544e-01 0.0000000e+00 
3.0287755e-01 6.8788534e-01 0.0000000e+00 
4.5107409e-01 7.7642798e-01 0.0000000e+00 
5.5000001e-01 7.7942288e-01 0.0000000e+00 
6.0006744e-01 6.9277996e-01 0.0000000e+00 
6.4999998e-01 7.7942288e-01 0.0000000e+00 
7.0001125e-01 6.9281358e-01 0.0000000e+00 
7.4810976e-01 7.7827942e-01 0.0000000e+00 
8.1429243e-01 6.9644338e-01 0.0000000e+00 
7.5505483e-01 6.0440248e-01 0.0000000e+00 
7.9754496e-01 1.6455974e-01 0.0000000e+00 
8.4409988e-01 9.0543878e-01 0.0000000e+00 
2.5007063e-01 9.1426742e-01 0.0000000e+00 
1.9948809e-01 8.3684945e-01 0.0000000e+00 
3.0239609e-01 8.4084076e-01 0.0000000e+00 
5.5039096e-01 8.6229436e-02 0.0000000e+00 
2.5227043e-01 6.0435647e-01 0.0000000e+00 
2.0253047e-01 6.7697614e-01 0.0000000e+00 
2.0000000e-01 5.1961523e-01 0.0000000e+00 
2.4994016e-01 4.3122852e-01 0.0000000e+00 
1.5013675e-01 4.3705931e-01 0.0000000e+00 
1.9500943e-01 3.4477931e-01 0.0000000e+00 
1.4187421e-01 2.5843257e-01 0.0000000e+00 
2.4087626e-01 2.5457630e-01 0.0000000e+00 
2.9581064e-01 3.4174213e-01 0.0000000e+00 
3.4302756e-01 2.5211102e-01 0.0000000e+00 
4.4705081e-01 2.5426328e-01 0.0000000e+00 
1.8726690e-01 1.7076795e-01 0.0000000e+00 
9.1374290e-01 4.4999999e-01 0.0000000e+00 
8.1292653e-01 5.1219177e-01 0.0000000e+00 
6.4999998e-01 9.1339743e-01 0.0000000e+00 
9.4903819e-02 6.5753615e-01 0.0000000e+00 
3.4647793e-01 8.5224926e-02 0.0000000e+00 
9.1339743e-01 6.4999998e-01 0.0000000e+00 
8.3004320e-01 4.0203196e-01 0.0000000e+00 
8.3633298e-01 3.0639145e-01 0.0000000e+00 
7.4173015e-01 4.3506145e-01 0.0000000e+00 
9.1635197e-01 2.5751698e-01 0.0000000e+00 
4.4999999e-01 9.1524893e-01 0.0000000e+00 
5.4990965e-01 6.0638523e-01 0.0000000e+00 
3.4897196e-01 4.3124291e-01 0.0000000e+00 
6.5070385e-01 6.0805732e-01 0.0000000e+00 
4.9951929e-01 1.7088418e-01 0.0000000e+00 
6.4682627e-01 4.3563104e-01 0.0000000e+00 
3.9496639e-01 1.7007479e-01 0.0000000e+00 
9.2003214e-01 8.4667110e-01 0.0000000e+00 
8.4628856e-01 8.0417827e-02 0.0000000e+00 
9.0504780e-02 8.4245151e-01 0.0000000e+00 
1.5290669e-01 8.2261533e-02 0.0000000e+00 
7.5581288e-01 2.6161289e-01 0.0000000e+00 
2.9022500e-01 1.7048772e-01 0.0000000e+00 
7.0076448e-01 5.2269316e-01 0.0000000e+00 
8.3802330e-01 7.9983431e-01 0.0000000e+00 
8.4137177e-01 6.0186249e-01 0.0000000e+00 
1.6660626e-01 5.9922481e-01 0.0000000e+00 
3.5146821e-01 7.6715195e-01 0.0000000e+00 
6.7398138e-02 4.4853568e-01 0.0000000e+00 
6.0000002e-01 8.4641016e-01 0.0000000e+00 
6.9999999e-01 8.4641016e-01 0.0000000e+00 
5.0000000e-01 8.4641016e-01 0.0000000e+00 
2.5092945e-01 7.6027036e-01 0.0000000e+00 
4.0000001e-01 8.4656054e-01 0.0000000e+00 
6.1870042e-02 2.5000000e-01 0.0000000e+00 
9.2679495e-01 7.3205084e-02 0.0000000e+00 
7.3205084e-02 7.3205084e-02 0.0000000e+00 
9.2679495e-01 9.2679495e-01 0.0000000e+00 
7.3205084e-02 9.2679495e-01 0.0000000e+00 
1.5420890e-01 7.5578600e-01 0.0000000e+00 
7.7540809e-01 8.4997970e-01 0.0000000e+00 
7.7320510e-01 3.4999999e-01 0.0000000e+00 
8.4417260e-01 2.3009899e-01 0.0000000e+00 

CELLS 246 984
3 82 124 102
3 41 93 91
3 81 106 48
3 90 140 104
3 104 140 49
3 41 129 93
3 102 126 82
3 48 125 81
3 102 124 109
3 54 100 95
3 98 99 68
3 117 123 105
3 95 135 54
3 97 98 68
3 120 140 86
3 46 95 94
3 81 126 106
3 104 127 90
3 97 113 92
3 46 94 93
3 53 120 86
3 116 124 65
3 83 119 52
3 61 99 59
3 68 99 61
3 98 123 117
3 68 113 97
3 94 97 92
3 109 116 73
3 81 125 80
3 128 133 74
3 91 127 41
3 52 143 83
3 109 124 116
3 84 125 118
3 95 96 94
3 99 115 59
3 49 140 120
3 105 123 50
3 96 97 94
3 95 100 96
3 100 121 50
3 87 133 128
3 96 98 97
3 50 123 100
3 28 85 45
3 29 85 28
3 67 71 69
3 71 74 69
3 85 87 45
3 47 88 9
3 41 104 34
3 58 59 57
3 58 60 59
3 7 105 6
3 10 47 9
3 10 55 47
3 35 41 34
3 56 58 57
3 14 110 52
3 16 44 15
3 16 101 44
3 42 101 17
3 19 106 18
3 20 48 19
3 48 106 19
3 23 84 22
3 24 51 23
3 24 103 51
3 26 43 25
3 43 103 25
3 26 111 43
3 53 85 29
3 42 102 101
3 101 107 44
3 108 110 44
3 55 56 47
3 64 112 67
3 65 114 112
3 67 72 71
3 69 89 70
3 74 89 69
3 89 91 70
3 72 76 75
3 72 112 77
3 77 78 76
3 112 114 77
3 8 88 40
3 11 55 10
3 33 49 32
3 6 50 5
3 8 40 7
3 14 52 13
3 37 46 36
3 55 83 56
3 62 63 61
3 64 66 63
3 91 92 70
3 86 87 85
3 39 54 38
3 6 105 50
3 40 105 7
3 15 110 14
3 44 110 15
3 17 101 16
3 27 111 26
3 28 45 27
3 30 53 29
3 33 104 49
3 107 108 44
3 57 88 47
3 64 67 66
3 70 113 66
3 67 112 72
3 72 75 71
3 74 90 89
3 77 114 79
3 93 94 92
3 102 107 101
3 102 109 107
3 9 88 8
3 58 73 60
3 60 61 59
3 63 68 61
3 62 65 64
3 66 113 63
3 77 79 78
3 91 93 92
3 62 64 63
3 63 113 68
3 92 113 70
3 34 104 33
3 56 57 47
3 53 86 85
3 18 42 17
3 51 84 23
3 25 103 24
3 45 111 27
3 60 62 61
3 65 112 64
3 67 69 66
3 79 81 80
3 79 82 81
3 18 106 42
3 69 70 66
3 79 80 78
3 79 114 82
3 72 77 76
3 73 142 109
3 84 141 125
3 88 115 40
3 59 115 57
3 115 117 40
3 98 117 99
3 62 116 65
3 73 116 60
3 57 115 88
3 99 117 115
3 32 120 31
3 55 119 83
3 12 119 11
3 21 118 20
3 58 122 73
3 83 122 56
3 93 129 46
3 5 121 4
3 60 116 62
3 50 121 5
3 65 124 114
3 100 123 96
3 42 126 102
3 82 126 81
3 90 127 89
3 40 117 105
3 46 135 95
3 11 119 55
3 49 120 32
3 20 118 48
3 54 121 100
3 71 128 74
3 35 129 41
3 46 129 36
3 87 134 45
3 56 122 58
3 54 135 38
3 37 135 46
3 1 136 12
3 13 136 1
3 4 137 0
3 0 137 39
3 2 138 21
3 22 138 2
3 3 139 30
3 31 139 3
3 110 143 52
3 109 142 107
3 96 123 98
3 83 143 122
3 114 124 82
3 89 127 91
3 106 126 42
3 41 127 104
3 122 142 73
3 122 143 108
3 118 125 48
3 51 141 84
3 128 134 87
3 75 128 71
3 36 129 35
3 132 134 75
3 43 130 103
3 78 130 76
3 111 132 43
3 86 133 87
3 76 132 75
3 103 131 51
3 78 131 130
3 130 131 103
3 74 133 90
3 80 131 78
3 130 132 76
3 43 132 130
3 111 134 132
3 45 134 111
3 108 142 122
3 12 136 119
3 120 139 31
3 21 138 118
3 38 135 37
3 52 136 13
3 30 139 53
3 39 137 54
3 84 138 22
3 121 137 4
3 107 142 108
3 108 143 110
3 118 138 84
3 53 139 120
3 119 136 52
3 54 137 121
3 75 134 128
3 86 140 133
3 133 140 90
3 125 141 80
3 80 141 131
3 131 141 51

CELL_TYPES 246
5
5
5
5
5
5
5
5
5
5
5
5
5
5
5
5
5
5
5
5
5
5
5
5
5
5
5
5
5
5
5
5
5
5
5
5
5
5
5
5
5
5
5
5
5
5
5
5
5
5
5
5
5
5
5
5
5
5
5
5
5
5
5
5
5
5
5
5
5
5
5
5
5
5
5
5
5
5
5
5
5
5
5
5
5
5
5
5
5
5
5
5
5
5
5
5
5
5
5
5
5
5
5
5
5
5
5
5
5
5
5
5
5
5
5
5
5
5
5
5
5
5
5
5
5
5
5
5
5
5
5
5
5
5
5
5
5
5
5
5
5
5
5
5
5
5
5
5
5
5
5
5
5
5
5
5
5
5
5
5
5
5
5
5
5
5
5
5
5
5
5
5
5
5
5
5
5
5
5
5
5
5
5
5
5
5
5
5
5
5
5
5
5
5
5
5
5
5
5
5
5
5
5
5
5
5
5
5
5
5
5
5
5
5
5
5
5
5
5
5
5
5
5
5
5
5
5
5
5
5
5
5
5
5
5
5
5
5
5
5
5
5
5
5
5
5
POINT_DATA 144
FIELD FieldData 2
DISPLACEMENT 3 144  float
0.0000000e+00 0.0000000e+00 0.0000000e+00 
0.0000000e+00 0.0000000e+00 0.0000000e+00 
0.0000000e+00 -1.4857143e-05 0.0000000e+00 
0.0000000e+00 -1.4857143e-05 0.0000000e+00 
0.0000000e+00 0.0000000e+00 0.0000000e+00 
0.0000000e+00 0.0000000e+00 0.0000000e+00 
0.0000000e+00 0.0000000e+00 0.0000000e+00 
0.0000000e+00 0.0000000e+00 0.0000000e+00 
0.0000000e+00 0.0000000e+00 0.0000000e+00 
0.0000000e+00 0.0000000e+00 0.0000000e+00 
0.0000000e+00 0.0000000e+00 0.0000000e+00 
0.0000000e+00 0.0000000e+00 0.0000000e+00 
0.0000000e+00 0.0000000e+00 0.0000000e+00 
0.0000000e+00 -1.4857143e-06 0.0000000e+00 
0.0000000e+00 -2.9714286e-06 0.0000000e+00 
0.0000000e+00 -4.4571429e-06 0.0000000e+00 
0.0000000e+00 -5.9428571e-06 0.0000000e+00 
0.0000000e+00 -7.4285713e-06 0.0000000e+00 
0.0000000e+00 -8.9142859e-06 0.0000000e+00 
0.0000000e+00 -1.0400000e-05 0.0000000e+00 
0.0000000e+00 -1.1885714e-05 0.0000000e+00 
0.0000000e+00 -1.3371428e-05 0.0000000e+00 
1.5877908e-23 -1.4857143e-05 0.0000000e+00 
1.7741946e-23 -1.4857143e-05 0.0000000e+00 
-3.6424295e-23 -1.4857143e-05 0.0000000e+00 
7.8318424e-22 -1.4857143e-05 0.0000000e+00 
1.6361348e-21 -1.4857143e-05 0.0000000e+00 
1.0867201e-21 -1.4857143e-05 0.0000000e+00 
1.0265390e-21 -1.4857143e-05 0.0000000e+00 
9.3520644e-22 -1.4857143e-05 0.0000000e+00 
1.6131863e-21 -1.4857143e-05 0.0000000e+00 
0.0000000e+00 -1.3371428e-05 0.0000000e+00 
0.0000000e+00 -1.1885714e-05 0.0000000e+00 
0.0000000e+00 -1.0400000e-05 0.0000000e+00 
0.0000000e+00 -8.9142859e-06 0.0000000e+00 
0.0000000e+00 -7.4285713e-06 0.0000000e+00 
0.0000000e+00 -5.9428571e-06 0.0000000e+00 
0.0000000e+00 -4.4571429e-06 0.0000000e+00 
0.0000000e+00 -2.9714286e-06 0.0000000e+00 
0.0000000e+00 -1.4857143e-06 0.0000000e+00 
-5.5237265e-23 -1.2706544e-06 0.0000000e+00 
-8.4870743e-23 -7.9647616e-06 0.0000000e+00 
4.9102341e-23 -8.1714288e-06 0.0000000e+00 
8.1852933e-23 -1.3570477e-05 0.0000000e+00 
7.2961019e-24 -5.2000000e-06 0.0000000e+00 
7.8139275e-22 -1.3619420e-05 0.0000000e+00 
-6.1830476e-24 -5.1810439e-06 0.0000000e+00 
-2.6040394e-22 -1.2866664e-06 0.0000000e+00 
3.4606247e-22 -1.1112525e-05 0.0000000e+00 
-4.4969540e-22 -1.1157428e-05 0.0000000e+00 
-1.2097316e-22 -1.2700571e-06 0.0000000e+00 
1.5816982e-22 -1.3667619e-05 0.0000000e+00 
-5.5280513e-23 -2.3565137e-06 0.0000000e+00 
4.4723243e-22 -1.3599081e-05 0.0000000e+00 
5.1831781e-23 -2.4168658e-06 0.0000000e+00 
-2.0622513e-22 -1.2796556e-06 0.0000000e+00 
-3.0156441e-22 -2.5632751e-06 0.0000000e+00 
-4.6672429e-22 -2.5733327e-06 0.0000000e+00 
-5.1067659e-22 -3.8494336e-06 0.0000000e+00 
-7.0876646e-22 -3.8358598e-06 0.0000000e+00 
-2.5825660e-22 -5.1352458e-06 0.0000000e+00 
-1.7910996e-22 -5.1466654e-06 0.0000000e+00 
-2.0190637e-22 -6.4257929e-06 0.0000000e+00 
1.8672320e-22 -6.4320752e-06 0.0000000e+00 
-1.2967410e-22 -7.7185323e-06 0.0000000e+00 
-2.1705913e-22 -7.7409040e-06 0.0000000e+00 
-3.5706475e-22 -7.7195446e-06 0.0000000e+00 
8.9046335e-23 -9.0063440e-06 0.0000000e+00 
-2.7313419e-22 -5.0865706e-06 0.0000000e+00 
-5.2528585e-23 -9.0065350e-06 0.0000000e+00 
-3.2296922e-22 -7.7199011e-06 0.0000000e+00 
-8.3672955e-23 -1.0272071e-05 0.0000000e+00 
-1.3393404e-22 -1.0289734e-05 0.0000000e+00 
-2.2124080e-22 -5.1794295e-06 0.0000000e+00 
9.9540938e-24 -1.0220011e-05 0.0000000e+00 
-2.5455110e-22 -1.1535501e-05 0.0000000e+00 
-1.1806398e-22 -1.1579997e-05 0.0000000e+00 
-3.1273736e-22 -1.0292732e-05 0.0000000e+00 
-1.5708992e-22 -1.1579997e-05 0.0000000e+00 
-2.3289325e-22 -1.0293231e-05 0.0000000e+00 
-1.7404648e-22 -1.1563008e-05 0.0000000e+00 
-1.5105311e-23 -1.0347158e-05 0.0000000e+00 
2.8305031e-22 -8.9796940e-06 0.0000000e+00 
-1.8733462e-22 -2.4448875e-06 0.0000000e+00 
2.8338380e-22 -1.3452233e-05 0.0000000e+00 
7.8457334e-22 -1.3583402e-05 0.0000000e+00 
-7.3944817e-22 -1.2433192e-05 0.0000000e+00 
-6.2753741e-22 -1.2492491e-05 0.0000000e+00 
-2.4955497e-22 -1.2811231e-06 0.0000000e+00 
-1.2317452e-23 -8.9790101e-06 0.0000000e+00 
-2.6546010e-22 -1.0057932e-05 0.0000000e+00 
-8.5748896e-23 -7.7199975e-06 0.0000000e+00 
1.2596108e-22 -6.4068236e-06 0.0000000e+00 
2.9808108e-22 -6.4934525e-06 0.0000000e+00 
-5.9659398e-23 -5.1224351e-06 0.0000000e+00 
-1.8852125e-22 -3.8395697e-06 0.0000000e+00 
-2.3531347e-22 -3.7822763e-06 0.0000000e+00 
-2.4124507e-22 -5.0773115e-06 0.0000000e+00 
-4.1468636e-22 -3.7456496e-06 0.0000000e+00 
-6.4489079e-22 -3.7776260e-06 0.0000000e+00 
-2.3648780e-22 -2.5371237e-06 0.0000000e+00 
-2.3305205e-22 -6.6857142e-06 0.0000000e+00 
7.3440861e-23 -7.6097067e-06 0.0000000e+00 
2.4724804e-22 -1.3570477e-05 0.0000000e+00 
-1.9970967e-23 -9.7691081e-06 0.0000000e+00 
-8.0229647e-23 -1.2661989e-06 0.0000000e+00 
-1.2666710e-23 -9.6571430e-06 0.0000000e+00 
-2.3711659e-22 -5.9730464e-06 0.0000000e+00 
7.1749077e-23 -4.5521015e-06 0.0000000e+00 
-1.2667578e-22 -6.4637702e-06 0.0000000e+00 
-7.0284156e-23 -3.8259668e-06 0.0000000e+00 
4.0390383e-22 -1.3597984e-05 0.0000000e+00 
4.0201791e-23 -9.0091517e-06 0.0000000e+00 
2.6930320e-22 -6.4070377e-06 0.0000000e+00 
8.6254014e-23 -9.0339945e-06 0.0000000e+00 
-4.2072451e-22 -2.5388506e-06 0.0000000e+00 
-2.7652766e-22 -6.4722326e-06 0.0000000e+00 
-2.6549355e-22 -2.5268255e-06 0.0000000e+00 
-5.6290040e-22 -1.2579113e-05 0.0000000e+00 
-1.4874826e-22 -1.1947792e-06 0.0000000e+00 
2.1515851e-23 -1.2516422e-05 0.0000000e+00 
-5.5335488e-23 -1.2221714e-06 0.0000000e+00 
-2.7234886e-22 -3.8868202e-06 0.0000000e+00 
-2.6447921e-22 -2.5329605e-06 0.0000000e+00 
8.1088615e-23 -7.7657269e-06 0.0000000e+00 
-6.5448097e-23 -1.1883252e-05 0.0000000e+00 
1.0637008e-22 -8.9419573e-06 0.0000000e+00 
-1.1163500e-22 -8.9027690e-06 0.0000000e+00 
-9.4808903e-22 -1.1397686e-05 0.0000000e+00 
1.6540598e-22 -6.6639586e-06 0.0000000e+00 
-4.6018308e-22 -1.2575237e-05 0.0000000e+00 
-3.0722424e-22 -1.2575237e-05 0.0000000e+00 
-2.3484377e-22 -1.2575237e-05 0.0000000e+00 
-4.9796424e-22 -1.1295445e-05 0.0000000e+00 
-6.4148457e-22 -1.2577470e-05 0.0000000e+00 
-3.2256185e-23 -3.7142856e-06 0.0000000e+00 
-6.3900214e-23 -1.0876183e-06 0.0000000e+00 
-9.2476050e-23 -1.0876183e-06 0.0000000e+00 
2.1635716e-22 -1.3769524e-05 0.0000000e+00 
2.7392121e-22 -1.3769524e-05 0.0000000e+00 
-4.3102764e-22 -1.1228821e-05 0.0000000e+00 
-3.8768202e-22 -1.2628270e-05 0.0000000e+00 
-1.1112809e-22 -5.2000000e-06 0.0000000e+00 
-8.4760069e-23 -3.4186137e-06 0.0000000e+00 
VELOCITY 3 144  float
0.0000000e+00 0.0000000e+00 0.0000000e+00 
0.0000000e+00 0.0000000e+00 0.0000000e+00 
0.0000000e+00 -3.3881318e-20 0.0000000e+00 
0.0000000e+00 -3.3881318e-20 0.0000000e+00 
0.0000000e+00 0.0000000e+00 0.0000000e+00 
0.0000000e+00 0.0000000e+00 0.0000000e+00 
0.0000000e+00 0.0000000e+00 0.0000000e+00 
0.0000000e+00 0.0000000e+00 0.0000000e+00 
0.0000000e+00 0.0000000e+00 0.0000000e+00 
0.0000000e+00 0.0000000e+00 0.0000000e+00 
0.0000000e+00 0.0000000e+00 0.0000000e+00 
0.0000000e+00 0.0000000e+00 0.0000000e+00 
0.0000000e+00 0.0000000e+00 0.0000000e+00 
0.0000000e+00 0.0000000e+00 0.0000000e+00 
0.0000000e+00 -8.4703295e-21 0.0000000e+00 
0.0000000e+00 -1.6940659e-20 0.0000000e+00 
0.0000000e+00 0.0000000e+00 0.0000000e+00 
0.0000000e+00 -3.3881318e-20 0.0000000e+00 
0.0000000e+00 -3.3881318e-20 0.0000000e+00 
0.0000000e+00 0.0000000e+00 0.0000000e+00 
0.0000000e+00 0.0000000e+00 0.0000000e+00 
0.0000000e+00 -6.7762636e-20 0.0000000e+00 
-6.4451280e-21 -6.7762636e-20 0.0000000e+00 
1.2087210e-20 -3.3881318e-20 0.0000000e+00 
2.0318700e-20 -3.3881318e-20 0.0000000e+00 
2.8049158e-20 0.0000000e+00 0.0000000e+00 
2.3795351e-20 0.0000000e+00 0.0000000e+00 
1.5818540e-20 -3.3881318e-20 0.0000000e+00 
3.1645416e-20 3.3881318e-20 0.0000000e+00 
2.1660984e-20 -3.3881318e-20 0.0000000e+00 
1.7566481e-20 0.0000000e+00 0.0000000e+00 
0.0000000e+00 3.3881318e-20 0.0000000e+00 
0.0000000e+00 0.0000000e+00 0.0000000e+00 
0.0000000e+00 0.0000000e+00 0.0000000e+00 
0.0000000e+00 3.3881318e-20 0.0000000e+00 
0.0000000e+00 3.3881318e-20 0.0000000e+00 
0.0000000e+00 1.6940659e-20 0.0000000e+00 
0.0000000e+00 0.0000000e+00 0.0000000e+00 
0.0000000e+00 0.0000000e+00 0.0000000e+00 
0.0000000e+00 8.4703295e-21 0.0000000e+00 
2.4822214e-21 0.0000000e+00 0.0000000e+00 
-4.1718858e-21 0.0000000e+00 0.0000000e+00 
-4.8352074e-22 -3.3881318e-20 0.0000000e+00 
1.0254240e-20 0.0000000e+00 0.0000000e+00 
2.6827210e-21 0.0000000e+00 0.0000000e+00 
7.9909371e-21 0.0000000e+00 0.0000000e+00 
-3.3489796e-22 0.0000000e+00 0.0000000e+00 
-2.2179711e-21 -8.4703295e-21 0.0000000e+00 
1.2357376e-21 -3.3881318e-20 0.0000000e+00 
-6.9892497e-21 0.0000000e+00 0.0000000e+00 
-4.2457307e-22 -4.2351647e-21 0.0000000e+00 
-3.6756435e-22 -3.3881318e-20 0.0000000e+00 
4.3142977e-22 -1.6940659e-20 0.0000000e+00 
1.0054258e-20 -3.3881318e-20 0.0000000e+00 
2.6582958e-21 0.0000000e+00 0.0000000e+00 
-1.2554900e-21 -8.4703295e-21 0.0000000e+00 
-2.1411277e-21 -8.4703295e-21 0.0000000e+00 
-4.6574425e-21 -8.4703295e-21 0.0000000e+00 
-1.7501270e-21 -1.6940659e-20 0.0000000e+00 
-6.5732251e-21 -1.6940659e-20 0.0000000e+00 
-5.7913669e-21 -1.6940659e-20 0.0000000e+00 
-5.8568535e-21 -1.6940659e-20 0.0000000e+00 
-1.0722970e-20 -1.6940659e-20 0.0000000e+00 
-2.6504783e-21 0.0000000e+00 0.0000000e+00 
-1.8671730e-21 0.0000000e+00 0.0000000e+00 
-9.1127330e-21 0.0000000e+00 0.0000000e+00 
-4.7111640e-21 -3.3881318e-20 0.0000000e+00 
-7.3929275e-21 0.0000000e+00 0.0000000e+00 
-4.9402841e-21 0.0000000e+00 0.0000000e+00 
-8.0204531e-21 0.0000000e+00 0.0000000e+00 
-7.5340095e-21 0.0000000e+00 0.0000000e+00 
-9.0941674e-21 0.0000000e+00 0.0000000e+00 
-1.1863607e-20 0.0000000e+00 0.0000000e+00 
9.4587093e-22 -3.3881318e-20 0.0000000e+00 
-4.7639161e-21 0.0000000e+00 0.0000000e+00 
-8.0125981e-21 0.0000000e+00 0.0000000e+00 
-4.2437136e-21 3.3881318e-20 0.0000000e+00 
-1.0885291e-20 0.0000000e+00 0.0000000e+00 
-9.9208739e-21 0.0000000e+00 0.0000000e+00 
-7.5766860e-21 -3.3881318e-20 0.0000000e+00 
-5.3701099e-21 0.0000000e+00 0.0000000e+00 
-1.1403318e-20 -3.3881318e-20 0.0000000e+00 
-6.1877024e-21 -3.3881318e-20 0.0000000e+00 
-5.3751518e-22 -8.4703295e-21 0.0000000e+00 
4.8962678e-21 -3.3881318e-20 0.0000000e+00 
5.2309561e-21 3.3881318e-20 0.0000000e+00 
-8.0164973e-21 0.0000000e+00 0.0000000e+00 
-1.7549004e-21 3.3881318e-20 0.0000000e+00 
-8.1896873e-22 -4.2351647e-21 0.0000000e+00 
-8.3307411e-21 3.3881318e-20 0.0000000e+00 
6.5073260e-22 0.0000000e+00 0.0000000e+00 
-6.8924077e-22 -3.3881318e-20 0.0000000e+00 
5.5458922e-23 0.0000000e+00 0.0000000e+00 
4.2160403e-23 1.6940659e-20 0.0000000e+00 
-1.1515666e-21 0.0000000e+00 0.0000000e+00 
1.8115227e-21 0.0000000e+00 0.0000000e+00 
1.2673535e-21 -8.4703295e-21 0.0000000e+00 
-2.4013261e-21 0.0000000e+00 0.0000000e+00 
-3.8627868e-21 -8.4703295e-21 0.0000000e+00 
-1.0310940e-20 -8.4703295e-21 0.0000000e+00 
-1.0771950e-22 0.0000000e+00 0.0000000e+00 
-5.8624209e-21 0.0000000e+00 0.0000000e+00 
-2.6066967e-21 -1.6940659e-20 0.0000000e+00 
6.8620763e-21 -3.3881318e-20 0.0000000e+00 
3.0172245e-21 0.0000000e+00 0.0000000e+00 
1.5521001e-21 -8.4703295e-21 0.0000000e+00 
5.0987718e-22 -3.3881318e-20 0.0000000e+00 
-2.6200342e-21 -1.6940659e-20 0.0000000e+00 
5.1666666e-21 0.0000000e+00 0.0000000e+00 
-3.9606975e-21 -1.6940659e-20 0.0000000e+00 
1.2760901e-21 0.0000000e+00 0.0000000e+00 
1.4125240e-20 0.0000000e+00 0.0000000e+00 
-8.8385226e-21 0.0000000e+00 0.0000000e+00 
7.9318906e-22 0.0000000e+00 0.0000000e+00 
-6.4759207e-21 0.0000000e+00 0.0000000e+00 
-3.1690733e-21 0.0000000e+00 0.0000000e+00 
-8.0832510e-21 -1.6940659e-20 0.0000000e+00 
-3.0382980e-21 -8.4703295e-21 0.0000000e+00 
3.3160282e-23 -3.3881318e-20 0.0000000e+00 
-1.6527606e-21 -8.4703295e-21 0.0000000e+00 
-2.3128758e-21 0.0000000e+00 0.0000000e+00 
-4.4667983e-23 0.0000000e+00 0.0000000e+00 
1.1565490e-21 -1.6940659e-20 0.0000000e+00 
-1.5402230e-22 0.0000000e+00 0.0000000e+00 
-3.3966597e-21 -3.3881318e-20 0.0000000e+00 
3.0184189e-22 -3.3881318e-20 0.0000000e+00 
-9.6743377e-21 0.0000000e+00 0.0000000e+00 
-6.4788893e-21 3.3881318e-20 0.0000000e+00 
-1.3521647e-20 0.0000000e+00 0.0000000e+00 
-3.0760561e-21 1.6940659e-20 0.0000000e+00 
-8.9453226e-21 0.0000000e+00 0.0000000e+00 
6.0774555e-21 -3.3881318e-20 0.0000000e+00 
-5.0452440e-21 0.0000000e+00 0.0000000e+00 
-5.5142408e-21 0.0000000e+00 0.0000000e+00 
-3.8588666e-21 0.0000000e+00 0.0000000e+00 
-3.6440171e-22 0.0000000e+00 0.0000000e+00 
-1.5434680e-22 -8.4703295e-21 0.0000000e+00 
-1.7239528e-21 0.0000000e+00 0.0000000e+00 
5.6068055e-21 -3.3881318e-20 0.0000000e+00 
1.8505541e-21 0.0000000e+00 0.0000000e+00 
6.7966519e-22 0.0000000e+00 0.0000000e+00 
4.1547089e-21 -3.3881318e-20 0.0000000e+00 
7.3984569e-21 -1.6940659e-20 0.0000000e+00 
1.8142535e-21 -1.6940659e-20 0.0000000e+00 
CELL_DATA 246
FIELD FieldData 0
