# vtk DataFile Version 4.0
vtk output
ASCII
DATASET UNSTRUCTURED_GRID
POINTS 144 float
0.0000000e+00 0.0000000e+00 0.0000000e+00 
1.0000000e+00 0.0000000e+00 0.0000000e+00 
1.0000000e+00 1.0000000e+00 0.0000000e+00 
0.0000000e+00 1.0000000e+00 0.0000000e+00 
1.0000000e-01 0.0000000e+00 0.0000000e+00 
2.0000000e-01 0.0000000e+00 0.0000000e+00 
3.0000001e-01 0.0000000e+00 0.0000000e+00 
4.0000001e-01 0.0000000e+00 0.0000000e+00 
5.0000000e-01 0.0000000e+00 0.0000000e+00 
6.0000002e-01 0.0000000e+00 0.0000000e+00 
6.9999999e-01 0.0000000e+00 0.0000000e+00 
8.0000001e-01 0.0000000e+00 0.0000000e+00 
8.9999998e-01 0.0000000e+00 0.0000000e+00 
1.0000000e+00 1.0000000e-01 0.0000000e+00 
1.0000000e+00 2.0000000e-01 0.0000000e+00 
1.0000000e+00 3.0000001e-01 0.0000000e+00 
1.0000000e+00 4.0000001e-01 0.0000000e+00 
1.0000000e+00 5.0000000e-01 0.0000000e+00 
1.0000000e+00 6.0000002e-01 0.0000000e+00 
1.0000000e+00 6.9999999e-01 0.0000000e+00 
1.0000000e+00 8.0000001e-01 0.0000000e+00 
1.0000000e+00 8.9999998e-01 0.0000000e+00 
8.9999998e-01 1.0000000e+00 0.0000000e+00 
8.0000001e-01 1.0000000e+00 0.0000000e+00 
6.9999999e-01 1.0000000e+00 0.0000000e+00 
6.0000002e-01 1.0000000e+00 0.0000000e+00 
5.0000000e-01 1.0000000e+00 0.0000000e+00 
4.0000001e-01 1.0000000e+00 0.0000000e+00 
3.0000001e-01 1.0000000e+00 0.0000000e+00 
2.0000000e-01 1.0000000e+00 0.0000000e+00 
1.0000000e-01 1.0000000e+00 0.0000000e+00 
0.0000000e+00 8.9999998e-01 0.0000000e+00 
0.0000000e+00 8.0000001e-01 0.0000000e+00 
0.0000000e+00 6.9999999e-01 0.0000000e+00 
0.0000000e+00 6.0000002e-01 0.0000000e+00 
0.0000000e+00 5.0000000e-01 0.0000000e+00 
0.0000000e+00 4.0000001e-01 0.0000000e+00 
0.0000000e+00 3.0000001e-01 0.0000000e+00 
0.0000000e+00 2.0000000e-01 0.0000000e+00 
0.0000000e+00 1.0000000e-01 0.0000000e+00 
4.5033512e-01 8.5524812e-02 0.0000000e+00 
9.5000088e-02 5.3608972e-01 0.0000000e+00 
9.1547006e-01 5.5000001e-01 0.0000000e+00 
5.5000001e-01 9.1339743e-01 0.0000000e+00 
9.1339743e-01 3.4999999e-01 0.0000000e+00 
3.4999999e-01 9.1669172e-01 0.0000000e+00 
8.8579953e-02 3.4872410e-01 0.0000000e+00 
6.4999998e-01 8.6602539e-02 0.0000000e+00 
9.1127491e-01 7.4795848e-01 0.0000000e+00 
6.6607341e-02 7.5098073e-01 0.0000000e+00 
2.4514475e-01 8.5484609e-02 0.0000000e+00 
7.4680746e-01 9.1993588e-01 0.0000000e+00 
9.0420872e-01 1.5861149e-01 0.0000000e+00 
1.5042374e-01 9.1532278e-01 0.0000000e+00 
8.7588154e-02 1.6267365e-01 0.0000000e+00 
7.4918270e-01 8.6130671e-02 0.0000000e+00 
6.9882751e-01 1.7252813e-01 0.0000000e+00 
6.0000002e-01 1.7320508e-01 0.0000000e+00 
6.4876831e-01 2.5909650e-01 0.0000000e+00 
5.4933882e-01 2.5818285e-01 0.0000000e+00 
5.9902751e-01 3.4564152e-01 0.0000000e+00 
5.0000000e-01 3.4641016e-01 0.0000000e+00 
5.4918092e-01 4.3250528e-01 0.0000000e+00 
4.4986349e-01 4.3292814e-01 0.0000000e+00 
4.9984074e-01 5.1951659e-01 0.0000000e+00 
5.9917998e-01 5.2102238e-01 0.0000000e+00 
3.9995071e-01 5.1958472e-01 0.0000000e+00 
4.4996524e-01 6.0619622e-01 0.0000000e+00 
3.9827734e-01 3.4236532e-01 0.0000000e+00 
3.4998599e-01 6.0620910e-01 0.0000000e+00 
2.9998946e-01 5.1960868e-01 0.0000000e+00 
4.0246150e-01 6.9138944e-01 0.0000000e+00 
5.0040448e-01 6.9257826e-01 0.0000000e+00 
6.9183892e-01 3.4861544e-01 0.0000000e+00 
3.0287755e-01 6.8788534e-01 0.0000000e+00 
4.5107409e-01 7.7642798e-01 0.0000000e+00 
5.5000001e-01 7.7942288e-01 0.0000000e+00 
6.0006744e-01 6.9277996e-01 0.0000000e+00 
6.4999998e-01 7.7942288e-01 0.0000000e+00 
7.0001125e-01 6.9281358e-01 0.0000000e+00 
7.4810976e-01 7.7827942e-01 0.0000000e+00 
8.1429243e-01 6.9644338e-01 0.0000000e+00 
7.5505483e-01 6.0440248e-01 0.0000000e+00 
7.9754496e-01 1.6455974e-01 0.0000000e+00 
8.4409988e-01 9.0543878e-01 0.0000000e+00 
2.5007063e-01 9.1426742e-01 0.0000000e+00 
1.9948809e-01 8.3684945e-01 0.0000000e+00 
3.0239609e-01 8.4084076e-01 0.0000000e+00 
5.5039096e-01 8.6229436e-02 0.0000000e+00 
2.5227043e-01 6.0435647e-01 0.0000000e+00 
2.0253047e-01 6.7697614e-01 0.0000000e+00 
2.0000000e-01 5.1961523e-01 0.0000000e+00 
2.4994016e-01 4.3122852e-01 0.0000000e+00 
1.5013675e-01 4.3705931e-01 0.0000000e+00 
1.9500943e-01 3.4477931e-01 0.0000000e+00 
1.4187421e-01 2.5843257e-01 0.0000000e+00 
2.4087626e-01 2.5457630e-01 0.0000000e+00 
2.9581064e-01 3.4174213e-01 0.0000000e+00 
3.4302756e-01 2.5211102e-01 0.0000000e+00 
4.4705081e-01 2.5426328e-01 0.0000000e+00 
1.8726690e-01 1.7076795e-01 0.0000000e+00 
9.1374290e-01 4.4999999e-01 0.0000000e+00 
8.1292653e-01 5.1219177e-01 0.0000000e+00 
6.4999998e-01 9.1339743e-01 0.0000000e+00 
9.4903819e-02 6.5753615e-01 0.0000000e+00 
3.4647793e-01 8.5224926e-02 0.0000000e+00 
9.1339743e-01 6.4999998e-01 0.0000000e+00 
8.3004320e-01 4.0203196e-01 0.0000000e+00 
8.3633298e-01 3.0639145e-01 0.0000000e+00 
7.4173015e-01 4.3506145e-01 0.0000000e+00 
9.1635197e-01 2.5751698e-01 0.0000000e+00 
4.4999999e-01 9.1524893e-01 0.0000000e+00 
5.4990965e-01 6.0638523e-01 0.0000000e+00 
3.4897196e-01 4.3124291e-01 0.0000000e+00 
6.5070385e-01 6.0805732e-01 0.0000000e+00 
4.9951929e-01 1.7088418e-01 0.0000000e+00 
6.4682627e-01 4.3563104e-01 0.0000000e+00 
3.9496639e-01 1.7007479e-01 0.0000000e+00 
9.2003214e-01 8.4667110e-01 0.0000000e+00 
8.4628856e-01 8.0417827e-02 0.0000000e+00 
9.0504780e-02 8.4245151e-01 0.0000000e+00 
1.5290669e-01 8.2261533e-02 0.0000000e+00 
7.5581288e-01 2.6161289e-01 0.0000000e+00 
2.9022500e-01 1.7048772e-01 0.0000000e+00 
7.0076448e-01 5.2269316e-01 0.0000000e+00 
8.3802330e-01 7.9983431e-01 0.0000000e+00 
8.4137177e-01 6.0186249e-01 0.0000000e+00 
1.6660626e-01 5.9922481e-01 0.0000000e+00 
3.5146821e-01 7.6715195e-01 0.0000000e+00 
6.7398138e-02 4.4853568e-01 0.0000000e+00 
6.0000002e-01 8.4641016e-01 0.0000000e+00 
6.9999999e-01 8.4641016e-01 0.0000000e+00 
5.0000000e-01 8.4641016e-01 0.0000000e+00 
2.5092945e-01 7.6027036e-01 0.0000000e+00 
4.0000001e-01 8.4656054e-01 0.0000000e+00 
6.1870042e-02 2.5000000e-01 0.0000000e+00 
9.2679495e-01 7.3205084e-02 0.0000000e+00 
7.3205084e-02 7.3205084e-02 0.0000000e+00 
9.2679495e-01 9.2679495e-01 0.0000000e+00 
7.3205084e-02 9.2679495e-01 0.0000000e+00 
1.5420890e-01 7.5578600e-01 0.0000000e+00 
7.7540809e-01 8.4997970e-01 0.0000000e+00 
7.7320510e-01 3.4999999e-01 0.0000000e+00 
8.4417260e-01 2.3009899e-01 0.0000000e+00 

CELLS 246 984
3 82 124 102
3 41 93 91
3 81 106 48
3 90 140 104
3 104 140 49
3 41 129 93
3 102 126 82
3 48 125 81
3 102 124 109
3 54 100 95
3 98 99 68
3 117 123 105
3 95 135 54
3 97 98 68
3 120 140 86
3 46 95 94
3 81 126 106
3 104 127 90
3 97 113 92
3 46 94 93
3 53 120 86
3 116 124 65
3 83 119 52
3 61 99 59
3 68 99 61
3 98 123 117
3 68 113 97
3 94 97 92
3 109 116 73
3 81 125 80
3 128 133 74
3 91 127 41
3 52 143 83
3 109 124 116
3 84 125 118
3 95 96 94
3 99 115 59
3 49 140 120
3 105 123 50
3 96 97 94
3 95 100 96
3 100 121 50
3 87 133 128
3 96 98 97
3 50 123 100
3 28 85 45
3 29 85 28
3 67 71 69
3 71 74 69
3 85 87 45
3 47 88 9
3 41 104 34
3 58 59 57
3 58 60 59
3 7 105 6
3 10 47 9
3 10 55 47
3 35 41 34
3 56 58 57
3 14 110 52
3 16 44 15
3 16 101 44
3 42 101 17
3 19 106 18
3 20 48 19
3 48 106 19
3 23 84 22
3 24 51 23
3 24 103 51
3 26 43 25
3 43 103 25
3 26 111 43
3 53 85 29
3 42 102 101
3 101 107 44
3 108 110 44
3 55 56 47
3 64 112 67
3 65 114 112
3 67 72 71
3 69 89 70
3 74 89 69
3 89 91 70
3 72 76 75
3 72 112 77
3 77 78 76
3 112 114 77
3 8 88 40
3 11 55 10
3 33 49 32
3 6 50 5
3 8 40 7
3 14 52 13
3 37 46 36
3 55 83 56
3 62 63 61
3 64 66 63
3 91 92 70
3 86 87 85
3 39 54 38
3 6 105 50
3 40 105 7
3 15 110 14
3 44 110 15
3 17 101 16
3 27 111 26
3 28 45 27
3 30 53 29
3 33 104 49
3 107 108 44
3 57 88 47
3 64 67 66
3 70 113 66
3 67 112 72
3 72 75 71
3 74 90 89
3 77 114 79
3 93 94 92
3 102 107 101
3 102 109 107
3 9 88 8
3 58 73 60
3 60 61 59
3 63 68 61
3 62 65 64
3 66 113 63
3 77 79 78
3 91 93 92
3 62 64 63
3 63 113 68
3 92 113 70
3 34 104 33
3 56 57 47
3 53 86 85
3 18 42 17
3 51 84 23
3 25 103 24
3 45 111 27
3 60 62 61
3 65 112 64
3 67 69 66
3 79 81 80
3 79 82 81
3 18 106 42
3 69 70 66
3 79 80 78
3 79 114 82
3 72 77 76
3 73 142 109
3 84 141 125
3 88 115 40
3 59 115 57
3 115 117 40
3 98 117 99
3 62 116 65
3 73 116 60
3 57 115 88
3 99 117 115
3 32 120 31
3 55 119 83
3 12 119 11
3 21 118 20
3 58 122 73
3 83 122 56
3 93 129 46
3 5 121 4
3 60 116 62
3 50 121 5
3 65 124 114
3 100 123 96
3 42 126 102
3 82 126 81
3 90 127 89
3 40 117 105
3 46 135 95
3 11 119 55
3 49 120 32
3 20 118 48
3 54 121 100
3 71 128 74
3 35 129 41
3 46 129 36
3 87 134 45
3 56 122 58
3 54 135 38
3 37 135 46
3 1 136 12
3 13 136 1
3 4 137 0
3 0 137 39
3 2 138 21
3 22 138 2
3 3 139 30
3 31 139 3
3 110 143 52
3 109 142 107
3 96 123 98
3 83 143 122
3 114 124 82
3 89 127 91
3 106 126 42
3 41 127 104
3 122 142 73
3 122 143 108
3 118 125 48
3 51 141 84
3 128 134 87
3 75 128 71
3 36 129 35
3 132 134 75
3 43 130 103
3 78 130 76
3 111 132 43
3 86 133 87
3 76 132 75
3 103 131 51
3 78 131 130
3 130 131 103
3 74 133 90
3 80 131 78
3 130 132 76
3 43 132 130
3 111 134 132
3 45 134 111
3 108 142 122
3 12 136 119
3 120 139 31
3 21 138 118
3 38 135 37
3 52 136 13
3 30 139 53
3 39 137 54
3 84 138 22
3 121 137 4
3 107 142 108
3 108 143 110
3 118 138 84
3 53 139 120
3 119 136 52
3 54 137 121
3 75 134 128
3 86 140 133
3 133 140 90
3 125 141 80
3 80 141 131
3 131 141 51

CELL_TYPES 246
5
5
5
5
5
5
5
5
5
5
5
5
5
5
5
5
5
5
5
5
5
5
5
5
5
5
5
5
5
5
5
5
5
5
5
5
5
5
5
5
5
5
5
5
5
5
5
5
5
5
5
5
5
5
5
5
5
5
5
5
5
5
5
5
5
5
5
5
5
5
5
5
5
5
5
5
5
5
5
5
5
5
5
5
5
5
5
5
5
5
5
5
5
5
5
5
5
5
5
5
5
5
5
5
5
5
5
5
5
5
5
5
5
5
5
5
5
5
5
5
5
5
5
5
5
5
5
5
5
5
5
5
5
5
5
5
5
5
5
5
5
5
5
5
5
5
5
5
5
5
5
5
5
5
5
5
5
5
5
5
5
5
5
5
5
5
5
5
5
5
5
5
5
5
5
5
5
5
5
5
5
5
5
5
5
5
5
5
5
5
5
5
5
5
5
5
5
5
5
5
5
5
5
5
5
5
5
5
5
5
5
5
5
5
5
5
5
5
5
5
5
5
5
5
5
5
5
5
5
5
5
5
5
5
5
5
5
5
5
5
5
5
5
5
5
5
POINT_DATA 144
FIELD FieldData 2
DISPLACEMENT 3 144  float
0.0000000e+00 0.0000000e+00 0.0000000e+00 
0.0000000e+00 0.0000000e+00 0.0000000e+00 
0.0000000e+00 -1.5031740e-05 0.0000000e+00 
0.0000000e+00 -1.5259815e-05 0.0000000e+00 
0.0000000e+00 0.0000000e+00 0.0000000e+00 
0.0000000e+00 0.0000000e+00 0.0000000e+00 
0.0000000e+00 0.0000000e+00 0.0000000e+00 
0.0000000e+00 0.0000000e+00 0.0000000e+00 
0.0000000e+00 0.0000000e+00 0.0000000e+00 
0.0000000e+00 0.0000000e+00 0.0000000e+00 
0.0000000e+00 0.0000000e+00 0.0000000e+00 
0.0000000e+00 0.0000000e+00 0.0000000e+00 
0.0000000e+00 0.0000000e+00 0.0000000e+00 
0.0000000e+00 -1.5037367e-06 0.0000000e+00 
0.0000000e+00 -3.0054728e-06 0.0000000e+00 
0.0000000e+00 -4.5050560e-06 0.0000000e+00 
0.0000000e+00 -6.0027851e-06 0.0000000e+00 
0.0000000e+00 -7.4984168e-06 0.0000000e+00 
0.0000000e+00 -8.9948653e-06 0.0000000e+00 
0.0000000e+00 -1.0494738e-05 0.0000000e+00 
0.0000000e+00 -1.1997862e-05 0.0000000e+00 
0.0000000e+00 -1.3508288e-05 0.0000000e+00 
6.3057392e-08 -1.5037984e-05 0.0000000e+00 
1.0693931e-07 -1.5057374e-05 0.0000000e+00 
1.3810477e-07 -1.5082924e-05 0.0000000e+00 
1.6199003e-07 -1.5095088e-05 0.0000000e+00 
1.6257665e-07 -1.5114045e-05 0.0000000e+00 
1.3899587e-07 -1.5159743e-05 0.0000000e+00 
1.1501862e-07 -1.5199088e-05 0.0000000e+00 
8.7275993e-08 -1.5220966e-05 0.0000000e+00 
4.2463057e-08 -1.5252520e-05 0.0000000e+00 
0.0000000e+00 -1.3681863e-05 0.0000000e+00 
0.0000000e+00 -1.2109419e-05 0.0000000e+00 
0.0000000e+00 -1.0547365e-05 0.0000000e+00 
0.0000000e+00 -9.0024514e-06 0.0000000e+00 
0.0000000e+00 -7.4714721e-06 0.0000000e+00 
0.0000000e+00 -5.9575359e-06 0.0000000e+00 
0.0000000e+00 -4.4628064e-06 0.0000000e+00 
0.0000000e+00 -2.9781017e-06 0.0000000e+00 
0.0000000e+00 -1.4925080e-06 0.0000000e+00 
8.4623570e-09 -1.2778881e-06 0.0000000e+00 
4.5731184e-08 -8.0235423e-06 0.0000000e+00 
3.5197498e-08 -8.2444431e-06 0.0000000e+00 
1.7681046e-07 -1.3760337e-05 0.0000000e+00 
1.7500426e-08 -5.2520318e-06 0.0000000e+00 
1.4807708e-07 -1.3877099e-05 0.0000000e+00 
1.0380842e-08 -5.1954094e-06 0.0000000e+00 
9.9694306e-09 -1.2923571e-06 0.0000000e+00 
5.3786071e-08 -1.1215607e-05 0.0000000e+00 
4.1737081e-08 -1.1340220e-05 0.0000000e+00 
-8.0705407e-09 -1.2863657e-06 0.0000000e+00 
1.3275596e-07 -1.3838593e-05 0.0000000e+00 
5.7628124e-09 -2.3826819e-06 0.0000000e+00 
8.0501273e-08 -1.3902909e-05 0.0000000e+00 
-1.0075182e-08 -2.4297510e-06 0.0000000e+00 
6.9763639e-09 -1.2885869e-06 0.0000000e+00 
1.9755973e-08 -2.5777324e-06 0.0000000e+00 
2.2294168e-08 -2.5839661e-06 0.0000000e+00 
3.4228378e-08 -3.8702615e-06 0.0000000e+00 
3.1263827e-08 -3.8582748e-06 0.0000000e+00 
5.0584923e-08 -5.1685811e-06 0.0000000e+00 
4.1987889e-08 -5.1901357e-06 0.0000000e+00 
7.1544903e-08 -6.4786309e-06 0.0000000e+00 
6.3792193e-08 -6.4961368e-06 0.0000000e+00 
9.8154835e-08 -7.7918348e-06 0.0000000e+00 
9.7177058e-08 -7.8074609e-06 0.0000000e+00 
9.7110295e-08 -7.7958493e-06 0.0000000e+00 
1.2705793e-07 -9.0968360e-06 0.0000000e+00 
2.5927029e-08 -5.1437669e-06 0.0000000e+00 
1.2626852e-07 -9.0960611e-06 0.0000000e+00 
9.3235940e-08 -7.7891218e-06 0.0000000e+00 
1.5166592e-07 -1.0384468e-05 0.0000000e+00 
1.4983821e-07 -1.0399351e-05 0.0000000e+00 
4.9746852e-08 -5.2134205e-06 0.0000000e+00 
1.3456928e-07 -1.0343152e-05 0.0000000e+00 
1.7601739e-07 -1.1672680e-05 0.0000000e+00 
1.7061656e-07 -1.1712506e-05 0.0000000e+00 
1.3845505e-07 -1.0400554e-05 0.0000000e+00 
1.5424743e-07 -1.1707466e-05 0.0000000e+00 
1.2311959e-07 -1.0390995e-05 0.0000000e+00 
1.3190112e-07 -1.1675878e-05 0.0000000e+00 
9.3970002e-08 -1.0434343e-05 0.0000000e+00 
9.4645245e-08 -9.0527192e-06 0.0000000e+00 
1.3255657e-08 -2.4647072e-06 0.0000000e+00 
9.6538059e-08 -1.3597336e-05 0.0000000e+00 
1.1838729e-07 -1.3866557e-05 0.0000000e+00 
1.0908947e-07 -1.2665424e-05 0.0000000e+00 
1.4474715e-07 -1.2708852e-05 0.0000000e+00 
1.1371754e-08 -1.2852850e-06 0.0000000e+00 
1.0951454e-07 -9.0687818e-06 0.0000000e+00 
9.8723163e-08 -1.0189300e-05 0.0000000e+00 
7.7404785e-08 -7.7790437e-06 0.0000000e+00 
5.1200178e-08 -6.4595888e-06 0.0000000e+00 
4.2367798e-08 -6.5274744e-06 0.0000000e+00 
1.3694499e-08 -5.1599586e-06 0.0000000e+00 
-6.9063604e-09 -3.8632902e-06 0.0000000e+00 
-8.8560785e-09 -3.8252597e-06 0.0000000e+00 
1.5294924e-08 -5.1341722e-06 0.0000000e+00 
-7.9905117e-11 -3.7929774e-06 0.0000000e+00 
1.7445231e-08 -3.8125495e-06 0.0000000e+00 
-1.5012075e-08 -2.5641575e-06 0.0000000e+00 
2.6909419e-08 -6.7483684e-06 0.0000000e+00 
6.5352040e-08 -7.6686702e-06 0.0000000e+00 
1.5874015e-07 -1.3754724e-05 0.0000000e+00 
5.0949104e-08 -9.8906148e-06 0.0000000e+00 
2.0997894e-10 -1.2796991e-06 0.0000000e+00 
4.3741277e-08 -9.7435204e-06 0.0000000e+00 
4.1413269e-08 -6.0220241e-06 0.0000000e+00 
2.5965523e-08 -4.5918391e-06 0.0000000e+00 
6.4612713e-08 -6.5105596e-06 0.0000000e+00 
1.0535648e-08 -3.8665503e-06 0.0000000e+00 
1.7432387e-07 -1.3810666e-05 0.0000000e+00 
1.2108313e-07 -9.0980584e-06 0.0000000e+00 
5.5696525e-08 -6.4736964e-06 0.0000000e+00 
1.1186426e-07 -9.1170041e-06 0.0000000e+00 
1.7777298e-08 -2.5528936e-06 0.0000000e+00 
7.3399065e-08 -6.5190984e-06 0.0000000e+00 
4.8099817e-09 -2.5526510e-06 0.0000000e+00 
5.3809295e-08 -1.2703568e-05 0.0000000e+00 
3.2355378e-09 -1.2068986e-06 0.0000000e+00 
5.6288634e-08 -1.2769864e-05 0.0000000e+00 
-9.7570165e-09 -1.2351856e-06 0.0000000e+00 
2.8803116e-08 -3.9143538e-06 0.0000000e+00 
-9.5285611e-09 -2.5665231e-06 0.0000000e+00 
8.9341867e-08 -7.8260900e-06 0.0000000e+00 
9.9305616e-08 -1.1993191e-05 0.0000000e+00 
6.8159210e-08 -9.0150888e-06 0.0000000e+00 
7.9548549e-08 -8.9927471e-06 0.0000000e+00 
1.5943964e-07 -1.1551303e-05 0.0000000e+00 
2.3025567e-08 -6.6929824e-06 0.0000000e+00 
1.7127854e-07 -1.2730829e-05 0.0000000e+00 
1.4973376e-07 -1.2720952e-05 0.0000000e+00 
1.8378510e-07 -1.2736310e-05 0.0000000e+00 
1.2508870e-07 -1.1469850e-05 0.0000000e+00 
1.7436636e-07 -1.2762858e-05 0.0000000e+00 
-3.7652077e-09 -3.7241300e-06 0.0000000e+00 
1.2767094e-09 -1.1003476e-06 0.0000000e+00 
-4.9994222e-09 -1.0952521e-06 0.0000000e+00 
4.9383992e-08 -1.3918321e-05 0.0000000e+00 
3.8835243e-08 -1.4101122e-05 0.0000000e+00 
8.7447766e-08 -1.1409255e-05 0.0000000e+00 
1.2714163e-07 -1.2762144e-05 0.0000000e+00 
4.1769383e-08 -5.2388459e-06 0.0000000e+00 
1.6451702e-08 -3.4499008e-06 0.0000000e+00 
VELOCITY 3 144  float
0.0000000e+00 0.0000000e+00 0.0000000e+00 
0.0000000e+00 0.0000000e+00 0.0000000e+00 
0.0000000e+00 9.9500030e-05 0.0000000e+00 
0.0000000e+00 1.3552177e-05 0.0000000e+00 
0.0000000e+00 0.0000000e+00 0.0000000e+00 
0.0000000e+00 0.0000000e+00 0.0000000e+00 
0.0000000e+00 0.0000000e+00 0.0000000e+00 
0.0000000e+00 0.0000000e+00 0.0000000e+00 
0.0000000e+00 0.0000000e+00 0.0000000e+00 
0.0000000e+00 0.0000000e+00 0.0000000e+00 
0.0000000e+00 0.0000000e+00 0.0000000e+00 
0.0000000e+00 0.0000000e+00 0.0000000e+00 
0.0000000e+00 0.0000000e+00 0.0000000e+00 
0.0000000e+00 1.5022412e-05 0.0000000e+00 
0.0000000e+00 3.0770057e-05 0.0000000e+00 
0.0000000e+00 4.8608908e-05 0.0000000e+00 
0.0000000e+00 6.6362758e-05 0.0000000e+00 
0.0000000e+00 8.1682789e-05 0.0000000e+00 
0.0000000e+00 9.1658942e-05 0.0000000e+00 
0.0000000e+00 1.0000752e-04 0.0000000e+00 
0.0000000e+00 1.0659554e-04 0.0000000e+00 
0.0000000e+00 1.0467156e-04 0.0000000e+00 
-8.9361827e-05 1.4587831e-04 0.0000000e+00 
-1.4212965e-04 1.5928590e-04 0.0000000e+00 
-1.7347044e-04 1.6980375e-04 0.0000000e+00 
-1.8464451e-04 1.9226888e-04 0.0000000e+00 
-1.9590578e-04 1.9586481e-04 0.0000000e+00 
-1.9684022e-04 1.7961775e-04 0.0000000e+00 
-1.6680271e-04 1.9395944e-04 0.0000000e+00 
-1.4653712e-04 1.6789530e-04 0.0000000e+00 
-9.6939089e-05 1.4114159e-04 0.0000000e+00 
0.0000000e+00 5.4845299e-05 0.0000000e+00 
0.0000000e+00 3.8050486e-05 0.0000000e+00 
0.0000000e+00 2.8495526e-05 0.0000000e+00 
0.0000000e+00 2.5062796e-05 0.0000000e+00 
0.0000000e+00 1.9079576e-05 0.0000000e+00 
0.0000000e+00 1.7692651e-05 0.0000000e+00 
0.0000000e+00 1.3699609e-05 0.0000000e+00 
0.0000000e+00 5.0183357e-06 0.0000000e+00 
0.0000000e+00 -1.3113483e-06 0.0000000e+00 
-7.7815039e-06 4.9673065e-07 0.0000000e+00 
-1.1758794e-05 2.0707499e-05 0.0000000e+00 
-1.3951269e-05 9.8845616e-05 0.0000000e+00 
-1.5388800e-04 1.6366143e-04 0.0000000e+00 
-2.6853636e-06 6.4752734e-05 0.0000000e+00 
-1.5116135e-04 1.3822468e-04 0.0000000e+00 
1.8202890e-07 1.5371219e-05 0.0000000e+00 
-9.2862552e-07 7.9183146e-06 0.0000000e+00 
-2.8947010e-05 1.2516511e-04 0.0000000e+00 
-1.2040322e-05 3.7801441e-05 0.0000000e+00 
-1.1336827e-05 -2.6916207e-06 0.0000000e+00 
-1.2983022e-04 1.4480247e-04 0.0000000e+00 
-1.9616343e-06 2.7200693e-05 0.0000000e+00 
-8.0881604e-05 9.4077979e-05 0.0000000e+00 
-9.6615577e-06 1.9535321e-07 0.0000000e+00 
1.5393363e-07 1.2515238e-05 0.0000000e+00 
-3.1994491e-06 2.1022064e-05 0.0000000e+00 
-8.9827954e-06 8.7042017e-06 0.0000000e+00 
-1.2067424e-05 2.1096805e-05 0.0000000e+00 
-1.8920135e-05 6.8811087e-06 0.0000000e+00 
-2.2932476e-05 1.7791821e-05 0.0000000e+00 
-2.5225949e-05 9.7796737e-06 0.0000000e+00 
-3.6901110e-05 1.8757457e-05 0.0000000e+00 
-2.7185224e-05 2.3803295e-05 0.0000000e+00 
-5.1640498e-05 3.3321459e-05 0.0000000e+00 
-5.8829628e-05 3.4353317e-05 0.0000000e+00 
-3.2701722e-05 4.4474142e-05 0.0000000e+00 
-6.1389452e-05 5.9836708e-05 0.0000000e+00 
-1.8603721e-05 1.3728999e-05 0.0000000e+00 
-4.8837192e-05 5.4046097e-05 0.0000000e+00 
-2.0160898e-05 3.9073984e-05 0.0000000e+00 
-6.8454487e-05 7.9927064e-05 0.0000000e+00 
-7.7579571e-05 8.3931278e-05 0.0000000e+00 
-1.4519856e-05 4.0614927e-05 0.0000000e+00 
-6.3587257e-05 5.2786861e-05 0.0000000e+00 
-9.1359536e-05 1.1174913e-04 0.0000000e+00 
-9.9848468e-05 1.1205276e-04 0.0000000e+00 
-8.4892046e-05 7.8599158e-05 0.0000000e+00 
-1.0043869e-04 1.0996371e-04 0.0000000e+00 
-7.2070987e-05 9.7639924e-05 0.0000000e+00 
-8.2415914e-05 1.2146540e-04 0.0000000e+00 
-4.7405527e-05 1.1563983e-04 0.0000000e+00 
-5.2032447e-05 9.2778755e-05 0.0000000e+00 
-2.0464201e-06 2.6777894e-05 0.0000000e+00 
-8.7754619e-05 1.3818846e-04 0.0000000e+00 
-1.1400697e-04 1.3968411e-04 0.0000000e+00 
-6.6703957e-05 8.9752815e-05 0.0000000e+00 
-1.0877448e-04 1.0119286e-04 0.0000000e+00 
-4.5146885e-06 2.7924912e-06 0.0000000e+00 
-4.3439650e-05 3.1248601e-05 0.0000000e+00 
-4.2936143e-05 3.8265072e-05 0.0000000e+00 
-1.6694758e-05 2.2118442e-05 0.0000000e+00 
-1.8411856e-06 2.7832641e-05 0.0000000e+00 
-1.0663266e-06 1.9512059e-05 0.0000000e+00 
-2.0682826e-06 1.7011524e-05 0.0000000e+00 
-8.9562745e-06 7.6762535e-06 0.0000000e+00 
-1.4843500e-05 5.8873234e-06 0.0000000e+00 
-8.6786395e-06 1.7842751e-05 0.0000000e+00 
-2.0052024e-05 4.0059722e-06 0.0000000e+00 
-2.1639440e-05 3.2211447e-06 0.0000000e+00 
-1.6079366e-05 -9.4343841e-07 0.0000000e+00 
-5.6251383e-06 8.4550134e-05 0.0000000e+00 
-2.4861234e-05 9.0154215e-05 0.0000000e+00 
-1.5107656e-04 1.4821248e-04 0.0000000e+00 
-1.3086038e-05 3.5232370e-05 0.0000000e+00 
-1.0350412e-05 -1.2756344e-06 0.0000000e+00 
-2.1305506e-05 1.1067025e-04 0.0000000e+00 
-8.5053362e-06 7.3035633e-05 0.0000000e+00 
-4.5141196e-06 5.4174732e-05 0.0000000e+00 
-2.0317981e-05 6.6030509e-05 0.0000000e+00 
-1.7436329e-06 4.5830297e-05 0.0000000e+00 
-1.5734107e-04 1.5307729e-04 0.0000000e+00 
-7.6739947e-05 4.9356597e-05 0.0000000e+00 
-1.1137618e-05 3.1794811e-05 0.0000000e+00 
-7.3881907e-05 6.2562234e-05 0.0000000e+00 
-1.4344285e-05 2.0733373e-06 0.0000000e+00 
-3.2733264e-05 3.6844351e-05 0.0000000e+00 
-1.8089349e-05 -3.2567513e-07 0.0000000e+00 
-3.8924463e-05 1.3593640e-04 0.0000000e+00 
-7.6521928e-07 1.2911361e-05 0.0000000e+00 
-3.7341273e-05 5.0267259e-05 0.0000000e+00 
-9.2618147e-06 -2.9345724e-06 0.0000000e+00 
-4.8495967e-06 4.0997122e-05 0.0000000e+00 
-1.9091389e-05 -1.5301240e-06 0.0000000e+00 
-4.6299880e-05 6.5010812e-05 0.0000000e+00 
-6.6958826e-05 1.2548135e-04 0.0000000e+00 
-3.4299490e-05 1.0281694e-04 0.0000000e+00 
-3.0052121e-05 2.2699634e-05 0.0000000e+00 
-8.5053696e-05 8.4595675e-05 0.0000000e+00 
1.6144355e-07 1.8247414e-05 0.0000000e+00 
-1.3572490e-04 1.2943090e-04 0.0000000e+00 
-1.2546149e-04 1.2632816e-04 0.0000000e+00 
-1.2944704e-04 1.3642652e-04 0.0000000e+00 
-6.0445447e-05 6.6601126e-05 0.0000000e+00 
-1.2833157e-04 1.1757601e-04 0.0000000e+00 
-4.7848421e-06 8.2696752e-06 0.0000000e+00 
-6.9558325e-07 1.2358156e-05 0.0000000e+00 
-4.7212552e-06 -2.3099756e-06 0.0000000e+00 
-4.1331066e-05 1.4445817e-04 0.0000000e+00 
-2.3116563e-05 7.7829609e-05 0.0000000e+00 
-2.5837038e-05 6.0835526e-05 0.0000000e+00 
-1.0514043e-04 1.2991433e-04 0.0000000e+00 
-8.5112497e-06 5.8041966e-05 0.0000000e+00 
-2.9380831e-06 3.9740255e-05 0.0000000e+00 
CELL_DATA 246
FIELD FieldData 0
