# vtk DataFile Version 4.0
vtk output
ASCII
DATASET UNSTRUCTURED_GRID
POINTS 144 float
0.0000000e+00 0.0000000e+00 0.0000000e+00 
1.0000000e+00 0.0000000e+00 0.0000000e+00 
1.0000000e+00 1.0000000e+00 0.0000000e+00 
0.0000000e+00 1.0000000e+00 0.0000000e+00 
1.0000000e-01 0.0000000e+00 0.0000000e+00 
2.0000000e-01 0.0000000e+00 0.0000000e+00 
3.0000001e-01 0.0000000e+00 0.0000000e+00 
4.0000001e-01 0.0000000e+00 0.0000000e+00 
5.0000000e-01 0.0000000e+00 0.0000000e+00 
6.0000002e-01 0.0000000e+00 0.0000000e+00 
6.9999999e-01 0.0000000e+00 0.0000000e+00 
8.0000001e-01 0.0000000e+00 0.0000000e+00 
8.9999998e-01 0.0000000e+00 0.0000000e+00 
1.0000000e+00 1.0000000e-01 0.0000000e+00 
1.0000000e+00 2.0000000e-01 0.0000000e+00 
1.0000000e+00 3.0000001e-01 0.0000000e+00 
1.0000000e+00 4.0000001e-01 0.0000000e+00 
1.0000000e+00 5.0000000e-01 0.0000000e+00 
1.0000000e+00 6.0000002e-01 0.0000000e+00 
1.0000000e+00 6.9999999e-01 0.0000000e+00 
1.0000000e+00 8.0000001e-01 0.0000000e+00 
1.0000000e+00 8.9999998e-01 0.0000000e+00 
8.9999998e-01 1.0000000e+00 0.0000000e+00 
8.0000001e-01 1.0000000e+00 0.0000000e+00 
6.9999999e-01 1.0000000e+00 0.0000000e+00 
6.0000002e-01 1.0000000e+00 0.0000000e+00 
5.0000000e-01 1.0000000e+00 0.0000000e+00 
4.0000001e-01 1.0000000e+00 0.0000000e+00 
3.0000001e-01 1.0000000e+00 0.0000000e+00 
2.0000000e-01 1.0000000e+00 0.0000000e+00 
1.0000000e-01 1.0000000e+00 0.0000000e+00 
0.0000000e+00 8.9999998e-01 0.0000000e+00 
0.0000000e+00 8.0000001e-01 0.0000000e+00 
0.0000000e+00 6.9999999e-01 0.0000000e+00 
0.0000000e+00 6.0000002e-01 0.0000000e+00 
0.0000000e+00 5.0000000e-01 0.0000000e+00 
0.0000000e+00 4.0000001e-01 0.0000000e+00 
0.0000000e+00 3.0000001e-01 0.0000000e+00 
0.0000000e+00 2.0000000e-01 0.0000000e+00 
0.0000000e+00 1.0000000e-01 0.0000000e+00 
4.5033512e-01 8.5524812e-02 0.0000000e+00 
9.5000088e-02 5.3608972e-01 0.0000000e+00 
9.1547006e-01 5.5000001e-01 0.0000000e+00 
5.5000001e-01 9.1339743e-01 0.0000000e+00 
9.1339743e-01 3.4999999e-01 0.0000000e+00 
3.4999999e-01 9.1669172e-01 0.0000000e+00 
8.8579953e-02 3.4872410e-01 0.0000000e+00 
6.4999998e-01 8.6602539e-02 0.0000000e+00 
9.1127491e-01 7.4795848e-01 0.0000000e+00 
6.6607341e-02 7.5098073e-01 0.0000000e+00 
2.4514475e-01 8.5484609e-02 0.0000000e+00 
7.4680746e-01 9.1993588e-01 0.0000000e+00 
9.0420872e-01 1.5861149e-01 0.0000000e+00 
1.5042374e-01 9.1532278e-01 0.0000000e+00 
8.7588154e-02 1.6267365e-01 0.0000000e+00 
7.4918270e-01 8.6130671e-02 0.0000000e+00 
6.9882751e-01 1.7252813e-01 0.0000000e+00 
6.0000002e-01 1.7320508e-01 0.0000000e+00 
6.4876831e-01 2.5909650e-01 0.0000000e+00 
5.4933882e-01 2.5818285e-01 0.0000000e+00 
5.9902751e-01 3.4564152e-01 0.0000000e+00 
5.0000000e-01 3.4641016e-01 0.0000000e+00 
5.4918092e-01 4.3250528e-01 0.0000000e+00 
4.4986349e-01 4.3292814e-01 0.0000000e+00 
4.9984074e-01 5.1951659e-01 0.0000000e+00 
5.9917998e-01 5.2102238e-01 0.0000000e+00 
3.9995071e-01 5.1958472e-01 0.0000000e+00 
4.4996524e-01 6.0619622e-01 0.0000000e+00 
3.9827734e-01 3.4236532e-01 0.0000000e+00 
3.4998599e-01 6.0620910e-01 0.0000000e+00 
2.9998946e-01 5.1960868e-01 0.0000000e+00 
4.0246150e-01 6.9138944e-01 0.0000000e+00 
5.0040448e-01 6.9257826e-01 0.0000000e+00 
6.9183892e-01 3.4861544e-01 0.0000000e+00 
3.0287755e-01 6.8788534e-01 0.0000000e+00 
4.5107409e-01 7.7642798e-01 0.0000000e+00 
5.5000001e-01 7.7942288e-01 0.0000000e+00 
6.0006744e-01 6.9277996e-01 0.0000000e+00 
6.4999998e-01 7.7942288e-01 0.0000000e+00 
7.0001125e-01 6.9281358e-01 0.0000000e+00 
7.4810976e-01 7.7827942e-01 0.0000000e+00 
8.1429243e-01 6.9644338e-01 0.0000000e+00 
7.5505483e-01 6.0440248e-01 0.0000000e+00 
7.9754496e-01 1.6455974e-01 0.0000000e+00 
8.4409988e-01 9.0543878e-01 0.0000000e+00 
2.5007063e-01 9.1426742e-01 0.0000000e+00 
1.9948809e-01 8.3684945e-01 0.0000000e+00 
3.0239609e-01 8.4084076e-01 0.0000000e+00 
5.5039096e-01 8.6229436e-02 0.0000000e+00 
2.5227043e-01 6.0435647e-01 0.0000000e+00 
2.0253047e-01 6.7697614e-01 0.0000000e+00 
2.0000000e-01 5.1961523e-01 0.0000000e+00 
2.4994016e-01 4.3122852e-01 0.0000000e+00 
1.5013675e-01 4.3705931e-01 0.0000000e+00 
1.9500943e-01 3.4477931e-01 0.0000000e+00 
1.4187421e-01 2.5843257e-01 0.0000000e+00 
2.4087626e-01 2.5457630e-01 0.0000000e+00 
2.9581064e-01 3.4174213e-01 0.0000000e+00 
3.4302756e-01 2.5211102e-01 0.0000000e+00 
4.4705081e-01 2.5426328e-01 0.0000000e+00 
1.8726690e-01 1.7076795e-01 0.0000000e+00 
9.1374290e-01 4.4999999e-01 0.0000000e+00 
8.1292653e-01 5.1219177e-01 0.0000000e+00 
6.4999998e-01 9.1339743e-01 0.0000000e+00 
9.4903819e-02 6.5753615e-01 0.0000000e+00 
3.4647793e-01 8.5224926e-02 0.0000000e+00 
9.1339743e-01 6.4999998e-01 0.0000000e+00 
8.3004320e-01 4.0203196e-01 0.0000000e+00 
8.3633298e-01 3.0639145e-01 0.0000000e+00 
7.4173015e-01 4.3506145e-01 0.0000000e+00 
9.1635197e-01 2.5751698e-01 0.0000000e+00 
4.4999999e-01 9.1524893e-01 0.0000000e+00 
5.4990965e-01 6.0638523e-01 0.0000000e+00 
3.4897196e-01 4.3124291e-01 0.0000000e+00 
6.5070385e-01 6.0805732e-01 0.0000000e+00 
4.9951929e-01 1.7088418e-01 0.0000000e+00 
6.4682627e-01 4.3563104e-01 0.0000000e+00 
3.9496639e-01 1.7007479e-01 0.0000000e+00 
9.2003214e-01 8.4667110e-01 0.0000000e+00 
8.4628856e-01 8.0417827e-02 0.0000000e+00 
9.0504780e-02 8.4245151e-01 0.0000000e+00 
1.5290669e-01 8.2261533e-02 0.0000000e+00 
7.5581288e-01 2.6161289e-01 0.0000000e+00 
2.9022500e-01 1.7048772e-01 0.0000000e+00 
7.0076448e-01 5.2269316e-01 0.0000000e+00 
8.3802330e-01 7.9983431e-01 0.0000000e+00 
8.4137177e-01 6.0186249e-01 0.0000000e+00 
1.6660626e-01 5.9922481e-01 0.0000000e+00 
3.5146821e-01 7.6715195e-01 0.0000000e+00 
6.7398138e-02 4.4853568e-01 0.0000000e+00 
6.0000002e-01 8.4641016e-01 0.0000000e+00 
6.9999999e-01 8.4641016e-01 0.0000000e+00 
5.0000000e-01 8.4641016e-01 0.0000000e+00 
2.5092945e-01 7.6027036e-01 0.0000000e+00 
4.0000001e-01 8.4656054e-01 0.0000000e+00 
6.1870042e-02 2.5000000e-01 0.0000000e+00 
9.2679495e-01 7.3205084e-02 0.0000000e+00 
7.3205084e-02 7.3205084e-02 0.0000000e+00 
9.2679495e-01 9.2679495e-01 0.0000000e+00 
7.3205084e-02 9.2679495e-01 0.0000000e+00 
1.5420890e-01 7.5578600e-01 0.0000000e+00 
7.7540809e-01 8.4997970e-01 0.0000000e+00 
7.7320510e-01 3.4999999e-01 0.0000000e+00 
8.4417260e-01 2.3009899e-01 0.0000000e+00 

CELLS 246 984
3 82 124 102
3 41 93 91
3 81 106 48
3 90 140 104
3 104 140 49
3 41 129 93
3 102 126 82
3 48 125 81
3 102 124 109
3 54 100 95
3 98 99 68
3 117 123 105
3 95 135 54
3 97 98 68
3 120 140 86
3 46 95 94
3 81 126 106
3 104 127 90
3 97 113 92
3 46 94 93
3 53 120 86
3 116 124 65
3 83 119 52
3 61 99 59
3 68 99 61
3 98 123 117
3 68 113 97
3 94 97 92
3 109 116 73
3 81 125 80
3 128 133 74
3 91 127 41
3 52 143 83
3 109 124 116
3 84 125 118
3 95 96 94
3 99 115 59
3 49 140 120
3 105 123 50
3 96 97 94
3 95 100 96
3 100 121 50
3 87 133 128
3 96 98 97
3 50 123 100
3 28 85 45
3 29 85 28
3 67 71 69
3 71 74 69
3 85 87 45
3 47 88 9
3 41 104 34
3 58 59 57
3 58 60 59
3 7 105 6
3 10 47 9
3 10 55 47
3 35 41 34
3 56 58 57
3 14 110 52
3 16 44 15
3 16 101 44
3 42 101 17
3 19 106 18
3 20 48 19
3 48 106 19
3 23 84 22
3 24 51 23
3 24 103 51
3 26 43 25
3 43 103 25
3 26 111 43
3 53 85 29
3 42 102 101
3 101 107 44
3 108 110 44
3 55 56 47
3 64 112 67
3 65 114 112
3 67 72 71
3 69 89 70
3 74 89 69
3 89 91 70
3 72 76 75
3 72 112 77
3 77 78 76
3 112 114 77
3 8 88 40
3 11 55 10
3 33 49 32
3 6 50 5
3 8 40 7
3 14 52 13
3 37 46 36
3 55 83 56
3 62 63 61
3 64 66 63
3 91 92 70
3 86 87 85
3 39 54 38
3 6 105 50
3 40 105 7
3 15 110 14
3 44 110 15
3 17 101 16
3 27 111 26
3 28 45 27
3 30 53 29
3 33 104 49
3 107 108 44
3 57 88 47
3 64 67 66
3 70 113 66
3 67 112 72
3 72 75 71
3 74 90 89
3 77 114 79
3 93 94 92
3 102 107 101
3 102 109 107
3 9 88 8
3 58 73 60
3 60 61 59
3 63 68 61
3 62 65 64
3 66 113 63
3 77 79 78
3 91 93 92
3 62 64 63
3 63 113 68
3 92 113 70
3 34 104 33
3 56 57 47
3 53 86 85
3 18 42 17
3 51 84 23
3 25 103 24
3 45 111 27
3 60 62 61
3 65 112 64
3 67 69 66
3 79 81 80
3 79 82 81
3 18 106 42
3 69 70 66
3 79 80 78
3 79 114 82
3 72 77 76
3 73 142 109
3 84 141 125
3 88 115 40
3 59 115 57
3 115 117 40
3 98 117 99
3 62 116 65
3 73 116 60
3 57 115 88
3 99 117 115
3 32 120 31
3 55 119 83
3 12 119 11
3 21 118 20
3 58 122 73
3 83 122 56
3 93 129 46
3 5 121 4
3 60 116 62
3 50 121 5
3 65 124 114
3 100 123 96
3 42 126 102
3 82 126 81
3 90 127 89
3 40 117 105
3 46 135 95
3 11 119 55
3 49 120 32
3 20 118 48
3 54 121 100
3 71 128 74
3 35 129 41
3 46 129 36
3 87 134 45
3 56 122 58
3 54 135 38
3 37 135 46
3 1 136 12
3 13 136 1
3 4 137 0
3 0 137 39
3 2 138 21
3 22 138 2
3 3 139 30
3 31 139 3
3 110 143 52
3 109 142 107
3 96 123 98
3 83 143 122
3 114 124 82
3 89 127 91
3 106 126 42
3 41 127 104
3 122 142 73
3 122 143 108
3 118 125 48
3 51 141 84
3 128 134 87
3 75 128 71
3 36 129 35
3 132 134 75
3 43 130 103
3 78 130 76
3 111 132 43
3 86 133 87
3 76 132 75
3 103 131 51
3 78 131 130
3 130 131 103
3 74 133 90
3 80 131 78
3 130 132 76
3 43 132 130
3 111 134 132
3 45 134 111
3 108 142 122
3 12 136 119
3 120 139 31
3 21 138 118
3 38 135 37
3 52 136 13
3 30 139 53
3 39 137 54
3 84 138 22
3 121 137 4
3 107 142 108
3 108 143 110
3 118 138 84
3 53 139 120
3 119 136 52
3 54 137 121
3 75 134 128
3 86 140 133
3 133 140 90
3 125 141 80
3 80 141 131
3 131 141 51

CELL_TYPES 246
5
5
5
5
5
5
5
5
5
5
5
5
5
5
5
5
5
5
5
5
5
5
5
5
5
5
5
5
5
5
5
5
5
5
5
5
5
5
5
5
5
5
5
5
5
5
5
5
5
5
5
5
5
5
5
5
5
5
5
5
5
5
5
5
5
5
5
5
5
5
5
5
5
5
5
5
5
5
5
5
5
5
5
5
5
5
5
5
5
5
5
5
5
5
5
5
5
5
5
5
5
5
5
5
5
5
5
5
5
5
5
5
5
5
5
5
5
5
5
5
5
5
5
5
5
5
5
5
5
5
5
5
5
5
5
5
5
5
5
5
5
5
5
5
5
5
5
5
5
5
5
5
5
5
5
5
5
5
5
5
5
5
5
5
5
5
5
5
5
5
5
5
5
5
5
5
5
5
5
5
5
5
5
5
5
5
5
5
5
5
5
5
5
5
5
5
5
5
5
5
5
5
5
5
5
5
5
5
5
5
5
5
5
5
5
5
5
5
5
5
5
5
5
5
5
5
5
5
5
5
5
5
5
5
5
5
5
5
5
5
5
5
5
5
5
5
POINT_DATA 144
FIELD FieldData 2
DISPLACEMENT 3 144  float
0.0000000e+00 0.0000000e+00 0.0000000e+00 
0.0000000e+00 0.0000000e+00 0.0000000e+00 
0.0000000e+00 -1.6052485e-05 0.0000000e+00 
0.0000000e+00 -1.5923688e-05 0.0000000e+00 
0.0000000e+00 0.0000000e+00 0.0000000e+00 
0.0000000e+00 0.0000000e+00 0.0000000e+00 
0.0000000e+00 0.0000000e+00 0.0000000e+00 
0.0000000e+00 0.0000000e+00 0.0000000e+00 
0.0000000e+00 0.0000000e+00 0.0000000e+00 
0.0000000e+00 0.0000000e+00 0.0000000e+00 
0.0000000e+00 0.0000000e+00 0.0000000e+00 
0.0000000e+00 0.0000000e+00 0.0000000e+00 
0.0000000e+00 0.0000000e+00 0.0000000e+00 
0.0000000e+00 -1.6174148e-06 0.0000000e+00 
0.0000000e+00 -3.2373484e-06 0.0000000e+00 
0.0000000e+00 -4.8541701e-06 0.0000000e+00 
0.0000000e+00 -6.4647529e-06 0.0000000e+00 
0.0000000e+00 -8.0718955e-06 0.0000000e+00 
0.0000000e+00 -9.6765307e-06 0.0000000e+00 
0.0000000e+00 -1.1277973e-05 0.0000000e+00 
0.0000000e+00 -1.2876812e-05 0.0000000e+00 
0.0000000e+00 -1.4469022e-05 0.0000000e+00 
-2.6557901e-08 -1.6043961e-05 0.0000000e+00 
-3.9300375e-08 -1.6011147e-05 0.0000000e+00 
-4.3158060e-08 -1.5952695e-05 0.0000000e+00 
-6.3958240e-08 -1.5915031e-05 0.0000000e+00 
-9.0332357e-08 -1.5910007e-05 0.0000000e+00 
-1.0380475e-07 -1.5912769e-05 0.0000000e+00 
-1.0945981e-07 -1.5936701e-05 0.0000000e+00 
-8.6931628e-08 -1.5945614e-05 0.0000000e+00 
-4.6861771e-08 -1.5936941e-05 0.0000000e+00 
0.0000000e+00 -1.4389057e-05 0.0000000e+00 
0.0000000e+00 -1.2833026e-05 0.0000000e+00 
0.0000000e+00 -1.1262380e-05 0.0000000e+00 
0.0000000e+00 -9.6780805e-06 0.0000000e+00 
0.0000000e+00 -8.0839045e-06 0.0000000e+00 
0.0000000e+00 -6.4799669e-06 0.0000000e+00 
0.0000000e+00 -4.8675133e-06 0.0000000e+00 
0.0000000e+00 -3.2521320e-06 0.0000000e+00 
0.0000000e+00 -1.6316761e-06 0.0000000e+00 
-1.4182199e-08 -1.3815135e-06 0.0000000e+00 
-2.5277044e-08 -8.6564678e-06 0.0000000e+00 
-2.6643090e-08 -8.8694551e-06 0.0000000e+00 
-8.2551267e-08 -1.4548546e-05 0.0000000e+00 
-1.9155189e-08 -5.6547533e-06 0.0000000e+00 
-9.6340578e-08 -1.4618123e-05 0.0000000e+00 
-1.2944096e-08 -5.6521844e-06 0.0000000e+00 
-1.6462335e-08 -1.3943981e-06 0.0000000e+00 
-3.7199808e-08 -1.2041574e-05 0.0000000e+00 
-2.7294830e-08 -1.2062810e-05 0.0000000e+00 
-1.3818851e-08 -1.3910437e-06 0.0000000e+00 
-6.7932369e-08 -1.4728491e-05 0.0000000e+00 
-1.6546752e-08 -2.5650038e-06 0.0000000e+00 
-6.8434943e-08 -1.4630449e-05 0.0000000e+00 
-1.3833985e-08 -2.6505227e-06 0.0000000e+00 
-1.7549088e-08 -1.3896914e-06 0.0000000e+00 
-2.8353723e-08 -2.7774131e-06 0.0000000e+00 
-2.7503123e-08 -2.7863459e-06 0.0000000e+00 
-3.5073498e-08 -4.1652142e-06 0.0000000e+00 
-3.8639289e-08 -4.1558833e-06 0.0000000e+00 
-4.7875144e-08 -5.5578262e-06 0.0000000e+00 
-5.0802338e-08 -5.5767305e-06 0.0000000e+00 
-6.4951742e-08 -6.9535395e-06 0.0000000e+00 
-5.8801472e-08 -6.9597909e-06 0.0000000e+00 
-7.2172043e-08 -8.3374707e-06 0.0000000e+00 
-7.6133183e-08 -8.3674722e-06 0.0000000e+00 
-6.1618408e-08 -8.3384566e-06 0.0000000e+00 
-6.8582828e-08 -9.7075153e-06 0.0000000e+00 
-4.4000863e-08 -5.5150799e-06 0.0000000e+00 
-6.2777751e-08 -9.7215070e-06 0.0000000e+00 
-5.3818660e-08 -8.3556561e-06 0.0000000e+00 
-7.1784847e-08 -1.1060621e-05 0.0000000e+00 
-7.6323843e-08 -1.1071016e-05 0.0000000e+00 
-4.1990660e-08 -5.6047593e-06 0.0000000e+00 
-6.5161863e-08 -1.1025593e-05 0.0000000e+00 
-8.4808704e-08 -1.2397301e-05 0.0000000e+00 
-8.5964885e-08 -1.2443254e-05 0.0000000e+00 
-8.3604299e-08 -1.1089146e-05 0.0000000e+00 
-9.0536133e-08 -1.2472582e-05 0.0000000e+00 
-8.5885979e-08 -1.1122112e-05 0.0000000e+00 
-8.6863757e-08 -1.2495865e-05 0.0000000e+00 
-6.7184011e-08 -1.1207212e-05 0.0000000e+00 
-6.9357135e-08 -9.7228349e-06 0.0000000e+00 
-2.6361457e-08 -2.6562577e-06 0.0000000e+00 
-5.6817996e-08 -1.4541513e-05 0.0000000e+00 
-9.3473126e-08 -1.4608886e-05 0.0000000e+00 
-7.5428240e-08 -1.3403258e-05 0.0000000e+00 
-8.5288221e-08 -1.3439345e-05 0.0000000e+00 
-1.4522387e-08 -1.3889896e-06 0.0000000e+00 
-5.4706216e-08 -9.7145485e-06 0.0000000e+00 
-5.1857313e-08 -1.0875707e-05 0.0000000e+00 
-4.3653987e-08 -8.3779933e-06 0.0000000e+00 
-3.7876600e-08 -6.9542198e-06 0.0000000e+00 
-2.7738015e-08 -7.0660994e-06 0.0000000e+00 
-2.5266662e-08 -5.5782693e-06 0.0000000e+00 
-2.0046523e-08 -4.1955127e-06 0.0000000e+00 
-2.8931000e-08 -4.1240669e-06 0.0000000e+00 
-3.3938633e-08 -5.5136306e-06 0.0000000e+00 
-3.5364366e-08 -4.0734767e-06 0.0000000e+00 
-3.9587839e-08 -4.1010776e-06 0.0000000e+00 
-2.3335179e-08 -2.7782291e-06 0.0000000e+00 
-2.2348674e-08 -7.2628313e-06 0.0000000e+00 
-4.8474934e-08 -8.2498073e-06 0.0000000e+00 
-7.2196450e-08 -1.4571284e-05 0.0000000e+00 
-2.9442770e-08 -1.0587346e-05 0.0000000e+00 
-1.4189810e-08 -1.3813376e-06 0.0000000e+00 
-3.1350794e-08 -1.0472505e-05 0.0000000e+00 
-3.3944577e-08 -6.4803094e-06 0.0000000e+00 
-2.8844717e-08 -4.9429855e-06 0.0000000e+00 
-4.9975924e-08 -6.9997964e-06 0.0000000e+00 
-1.8015955e-08 -4.1647259e-06 0.0000000e+00 
-9.4698812e-08 -1.4581566e-05 0.0000000e+00 
-7.6724540e-08 -9.7154125e-06 0.0000000e+00 
-4.6625196e-08 -6.9366729e-06 0.0000000e+00 
-7.9763062e-08 -9.7598695e-06 0.0000000e+00 
-2.8392527e-08 -2.7551932e-06 0.0000000e+00 
-6.0592818e-08 -7.0025703e-06 0.0000000e+00 
-2.8883102e-08 -2.7495878e-06 0.0000000e+00 
-3.4860008e-08 -1.3619586e-05 0.0000000e+00 
-1.3391784e-08 -1.2990304e-06 0.0000000e+00 
-4.1197517e-08 -1.3494560e-05 0.0000000e+00 
-1.1524792e-08 -1.3430785e-06 0.0000000e+00 
-3.2897621e-08 -4.2130200e-06 0.0000000e+00 
-2.7349806e-08 -2.7646249e-06 0.0000000e+00 
-6.8875664e-08 -8.4042786e-06 0.0000000e+00 
-6.4219989e-08 -1.2861701e-05 0.0000000e+00 
-4.9111801e-08 -9.6931990e-06 0.0000000e+00 
-4.1408750e-08 -9.6497624e-06 0.0000000e+00 
-8.0440245e-08 -1.2267693e-05 0.0000000e+00 
-1.4599939e-08 -7.2575253e-06 0.0000000e+00 
-8.1689919e-08 -1.3504333e-05 0.0000000e+00 
-8.3143625e-08 -1.3547670e-05 0.0000000e+00 
-8.6605780e-08 -1.3494890e-05 0.0000000e+00 
-7.1367005e-08 -1.2182743e-05 0.0000000e+00 
-8.9783533e-08 -1.3508630e-05 0.0000000e+00 
-9.6467403e-09 -4.0608575e-06 0.0000000e+00 
-6.6268391e-09 -1.1828735e-06 0.0000000e+00 
-6.0818484e-09 -1.1961313e-06 0.0000000e+00 
-2.9755597e-08 -1.4893627e-05 0.0000000e+00 
-3.8484508e-08 -1.4804215e-05 0.0000000e+00 
-5.6941900e-08 -1.2134854e-05 0.0000000e+00 
-7.6051641e-08 -1.3639840e-05 0.0000000e+00 
-3.6298474e-08 -5.6356230e-06 0.0000000e+00 
-2.6729628e-08 -3.7159405e-06 0.0000000e+00 
VELOCITY 3 144  float
0.0000000e+00 0.0000000e+00 0.0000000e+00 
0.0000000e+00 0.0000000e+00 0.0000000e+00 
0.0000000e+00 -8.7120337e-05 0.0000000e+00 
0.0000000e+00 -5.1440635e-05 0.0000000e+00 
0.0000000e+00 0.0000000e+00 0.0000000e+00 
0.0000000e+00 0.0000000e+00 0.0000000e+00 
0.0000000e+00 0.0000000e+00 0.0000000e+00 
0.0000000e+00 0.0000000e+00 0.0000000e+00 
0.0000000e+00 0.0000000e+00 0.0000000e+00 
0.0000000e+00 0.0000000e+00 0.0000000e+00 
0.0000000e+00 0.0000000e+00 0.0000000e+00 
0.0000000e+00 0.0000000e+00 0.0000000e+00 
0.0000000e+00 0.0000000e+00 0.0000000e+00 
0.0000000e+00 2.2810349e-07 0.0000000e+00 
0.0000000e+00 -1.0116964e-06 0.0000000e+00 
0.0000000e+00 -4.3591726e-06 0.0000000e+00 
0.0000000e+00 -1.1474186e-05 0.0000000e+00 
0.0000000e+00 -2.2179607e-05 0.0000000e+00 
0.0000000e+00 -3.3164655e-05 0.0000000e+00 
0.0000000e+00 -4.5724548e-05 0.0000000e+00 
0.0000000e+00 -5.8761714e-05 0.0000000e+00 
0.0000000e+00 -7.1570706e-05 0.0000000e+00 
-6.5719018e-05 -2.0035146e-05 0.0000000e+00 
-1.1157998e-04 3.0676329e-05 0.0000000e+00 
-1.4727007e-04 6.9997783e-05 0.0000000e+00 
-1.7428506e-04 8.5890206e-05 0.0000000e+00 
-1.7742290e-04 1.1055198e-04 0.0000000e+00 
-1.7396057e-04 1.3420393e-04 0.0000000e+00 
-1.7627566e-04 1.1338182e-04 0.0000000e+00 
-1.4215085e-04 1.1379553e-04 0.0000000e+00 
-1.1554659e-04 4.5592991e-05 0.0000000e+00 
0.0000000e+00 -4.5972880e-05 0.0000000e+00 
0.0000000e+00 -5.0785398e-05 0.0000000e+00 
0.0000000e+00 -5.1715935e-05 0.0000000e+00 
0.0000000e+00 -5.2323572e-05 0.0000000e+00 
0.0000000e+00 -5.1812844e-05 0.0000000e+00 
0.0000000e+00 -5.5609449e-05 0.0000000e+00 
0.0000000e+00 -4.5378049e-05 0.0000000e+00 
0.0000000e+00 -2.5291014e-05 0.0000000e+00 
0.0000000e+00 -9.0725853e-06 0.0000000e+00 
-2.6802871e-05 -2.5151499e-05 0.0000000e+00 
-1.6912798e-05 -4.4128727e-05 0.0000000e+00 
-3.0918636e-05 -2.0376026e-05 0.0000000e+00 
-1.5971031e-04 6.0525032e-05 0.0000000e+00 
-1.8080862e-05 -3.7174257e-06 0.0000000e+00 
-1.4159967e-04 8.9397487e-05 0.0000000e+00 
-1.5238033e-05 -4.4237673e-05 0.0000000e+00 
-1.5088937e-05 -1.4262082e-05 0.0000000e+00 
-4.8647526e-05 -3.8268936e-05 0.0000000e+00 
-1.4658802e-05 -3.7698272e-05 0.0000000e+00 
-1.1613705e-05 -1.0168486e-05 0.0000000e+00 
-1.2479088e-04 3.0090076e-05 0.0000000e+00 
-6.2166619e-06 2.8554045e-06 0.0000000e+00 
-8.0893333e-05 3.1695363e-05 0.0000000e+00 
2.8264501e-06 -1.4692679e-05 0.0000000e+00 
-7.4726036e-06 -4.5303846e-06 0.0000000e+00 
-2.8454484e-05 -2.1019976e-05 0.0000000e+00 
-4.0368988e-05 -3.6034337e-05 0.0000000e+00 
-5.4511078e-05 -4.1913656e-05 0.0000000e+00 
-6.2527135e-05 -5.3974760e-05 0.0000000e+00 
-7.8980731e-05 -5.5251330e-05 0.0000000e+00 
-7.5796866e-05 -5.6262143e-05 0.0000000e+00 
-8.8360808e-05 -4.9281727e-05 0.0000000e+00 
-7.9431709e-05 -4.6468293e-05 0.0000000e+00 
-8.0869322e-05 -3.1253297e-05 0.0000000e+00 
-8.7777298e-05 -3.6101359e-05 0.0000000e+00 
-7.6306329e-05 -3.8807211e-05 0.0000000e+00 
-8.2147824e-05 -2.0932761e-05 0.0000000e+00 
-5.9645125e-05 -4.5375291e-05 0.0000000e+00 
-6.7014400e-05 -2.2917993e-05 0.0000000e+00 
-6.2315383e-05 -3.6111680e-05 0.0000000e+00 
-9.6074640e-05 -4.7008671e-06 0.0000000e+00 
-1.0890859e-04 7.3376967e-08 0.0000000e+00 
-6.9165268e-05 -4.3908512e-05 0.0000000e+00 
-6.3508996e-05 3.7653151e-06 0.0000000e+00 
-1.2016483e-04 2.2171003e-05 0.0000000e+00 
-1.2099129e-04 2.5569212e-05 0.0000000e+00 
-1.1092753e-04 -6.6754654e-07 0.0000000e+00 
-1.1383228e-04 1.5022072e-05 0.0000000e+00 
-1.1166512e-04 -2.1830232e-05 0.0000000e+00 
-1.0132698e-04 -3.4553657e-06 0.0000000e+00 
-8.3834180e-05 -2.3233175e-05 0.0000000e+00 
-8.5699168e-05 -3.3179567e-05 0.0000000e+00 
-1.4231790e-05 -3.7013745e-06 0.0000000e+00 
-9.2885195e-05 -1.1473719e-05 0.0000000e+00 
-1.2676090e-04 6.3413238e-05 0.0000000e+00 
-6.8740970e-05 1.8167020e-05 0.0000000e+00 
-9.9017183e-05 5.0995081e-05 0.0000000e+00 
-2.2309501e-05 -2.1738599e-05 0.0000000e+00 
-3.8931154e-05 -1.4703342e-05 0.0000000e+00 
-4.0597522e-05 -1.6118673e-05 0.0000000e+00 
-3.8520313e-05 -3.0935844e-05 0.0000000e+00 
-5.4174630e-05 -3.8200047e-05 0.0000000e+00 
-3.5721587e-05 -4.1632851e-05 0.0000000e+00 
-2.8099164e-05 -3.1212203e-05 0.0000000e+00 
-4.8875290e-06 -2.3473051e-05 0.0000000e+00 
-1.5631074e-05 -1.9049990e-05 0.0000000e+00 
-4.1515745e-05 -3.1928437e-05 0.0000000e+00 
-3.5301215e-05 -3.2481676e-05 0.0000000e+00 
-5.5858469e-05 -5.1655785e-05 0.0000000e+00 
-4.2233169e-06 -1.1590342e-05 0.0000000e+00 
-2.6161248e-05 -1.2469170e-05 0.0000000e+00 
-6.1361228e-05 -2.5602072e-05 0.0000000e+00 
-1.4283415e-04 5.4012129e-05 0.0000000e+00 
-1.9660589e-05 -4.3141874e-05 0.0000000e+00 
-2.2732514e-05 -1.9166979e-05 0.0000000e+00 
-3.8416376e-05 -2.9161069e-05 0.0000000e+00 
-4.5560195e-05 -1.6331391e-05 0.0000000e+00 
-2.8430077e-05 -6.7539349e-06 0.0000000e+00 
-7.4074844e-05 -3.9535371e-05 0.0000000e+00 
-1.0441648e-05 9.5185788e-07 0.0000000e+00 
-1.5416548e-04 8.4755418e-05 0.0000000e+00 
-8.6166932e-05 -1.1794239e-05 0.0000000e+00 
-6.8427202e-05 -4.3000935e-05 0.0000000e+00 
-9.4918018e-05 -2.8486356e-05 0.0000000e+00 
-4.6265821e-05 -4.4624081e-05 0.0000000e+00 
-8.9714107e-05 -5.2115458e-05 0.0000000e+00 
-3.9590628e-05 -3.7658359e-05 0.0000000e+00 
-5.2716387e-05 -4.4264976e-05 0.0000000e+00 
-3.4198436e-06 9.8965108e-07 0.0000000e+00 
-2.6398711e-05 -2.3152934e-05 0.0000000e+00 
-2.6507848e-06 -6.3096049e-06 0.0000000e+00 
-3.6539921e-05 -1.9493455e-05 0.0000000e+00 
-2.0981728e-05 -1.9721827e-05 0.0000000e+00 
-8.7704066e-05 -4.4694905e-05 0.0000000e+00 
-7.6586053e-05 -1.6465179e-05 0.0000000e+00 
-5.9826762e-05 -2.3846853e-05 0.0000000e+00 
-2.5225019e-05 -2.7858949e-05 0.0000000e+00 
-9.3283983e-05 2.9400037e-05 0.0000000e+00 
-1.9058933e-05 -4.9942995e-05 0.0000000e+00 
-1.2683401e-04 4.2412481e-05 0.0000000e+00 
-1.1622308e-04 2.5471571e-05 0.0000000e+00 
-1.3713463e-04 4.5165478e-05 0.0000000e+00 
-6.7951005e-05 1.0166220e-05 0.0000000e+00 
-1.2033527e-04 6.1023315e-05 0.0000000e+00 
-4.1562285e-07 -3.1320531e-05 0.0000000e+00 
-1.8227499e-06 1.5997732e-06 0.0000000e+00 
-1.1640000e-07 -5.8040214e-06 0.0000000e+00 
-4.9668964e-05 -4.1604326e-05 0.0000000e+00 
-4.1274838e-05 -1.7272416e-05 0.0000000e+00 
-4.0632367e-05 -2.0457937e-05 0.0000000e+00 
-1.0376010e-04 5.0096869e-06 0.0000000e+00 
-5.1104340e-05 -2.4834715e-05 0.0000000e+00 
-1.7087594e-05 -1.3165630e-06 0.0000000e+00 
CELL_DATA 246
FIELD FieldData 0
