# vtk DataFile Version 4.0
vtk output
ASCII
DATASET UNSTRUCTURED_GRID
POINTS 144 float
0.0000000e+00 0.0000000e+00 0.0000000e+00 
1.0000000e+00 0.0000000e+00 0.0000000e+00 
1.0000000e+00 1.0000000e+00 0.0000000e+00 
0.0000000e+00 1.0000000e+00 0.0000000e+00 
1.0000000e-01 0.0000000e+00 0.0000000e+00 
2.0000000e-01 0.0000000e+00 0.0000000e+00 
3.0000001e-01 0.0000000e+00 0.0000000e+00 
4.0000001e-01 0.0000000e+00 0.0000000e+00 
5.0000000e-01 0.0000000e+00 0.0000000e+00 
6.0000002e-01 0.0000000e+00 0.0000000e+00 
6.9999999e-01 0.0000000e+00 0.0000000e+00 
8.0000001e-01 0.0000000e+00 0.0000000e+00 
8.9999998e-01 0.0000000e+00 0.0000000e+00 
1.0000000e+00 1.0000000e-01 0.0000000e+00 
1.0000000e+00 2.0000000e-01 0.0000000e+00 
1.0000000e+00 3.0000001e-01 0.0000000e+00 
1.0000000e+00 4.0000001e-01 0.0000000e+00 
1.0000000e+00 5.0000000e-01 0.0000000e+00 
1.0000000e+00 6.0000002e-01 0.0000000e+00 
1.0000000e+00 6.9999999e-01 0.0000000e+00 
1.0000000e+00 8.0000001e-01 0.0000000e+00 
1.0000000e+00 8.9999998e-01 0.0000000e+00 
8.9999998e-01 1.0000000e+00 0.0000000e+00 
8.0000001e-01 1.0000000e+00 0.0000000e+00 
6.9999999e-01 1.0000000e+00 0.0000000e+00 
6.0000002e-01 1.0000000e+00 0.0000000e+00 
5.0000000e-01 1.0000000e+00 0.0000000e+00 
4.0000001e-01 1.0000000e+00 0.0000000e+00 
3.0000001e-01 1.0000000e+00 0.0000000e+00 
2.0000000e-01 1.0000000e+00 0.0000000e+00 
1.0000000e-01 1.0000000e+00 0.0000000e+00 
0.0000000e+00 8.9999998e-01 0.0000000e+00 
0.0000000e+00 8.0000001e-01 0.0000000e+00 
0.0000000e+00 6.9999999e-01 0.0000000e+00 
0.0000000e+00 6.0000002e-01 0.0000000e+00 
0.0000000e+00 5.0000000e-01 0.0000000e+00 
0.0000000e+00 4.0000001e-01 0.0000000e+00 
0.0000000e+00 3.0000001e-01 0.0000000e+00 
0.0000000e+00 2.0000000e-01 0.0000000e+00 
0.0000000e+00 1.0000000e-01 0.0000000e+00 
4.5033512e-01 8.5524812e-02 0.0000000e+00 
9.5000088e-02 5.3608972e-01 0.0000000e+00 
9.1547006e-01 5.5000001e-01 0.0000000e+00 
5.5000001e-01 9.1339743e-01 0.0000000e+00 
9.1339743e-01 3.4999999e-01 0.0000000e+00 
3.4999999e-01 9.1669172e-01 0.0000000e+00 
8.8579953e-02 3.4872410e-01 0.0000000e+00 
6.4999998e-01 8.6602539e-02 0.0000000e+00 
9.1127491e-01 7.4795848e-01 0.0000000e+00 
6.6607341e-02 7.5098073e-01 0.0000000e+00 
2.4514475e-01 8.5484609e-02 0.0000000e+00 
7.4680746e-01 9.1993588e-01 0.0000000e+00 
9.0420872e-01 1.5861149e-01 0.0000000e+00 
1.5042374e-01 9.1532278e-01 0.0000000e+00 
8.7588154e-02 1.6267365e-01 0.0000000e+00 
7.4918270e-01 8.6130671e-02 0.0000000e+00 
6.9882751e-01 1.7252813e-01 0.0000000e+00 
6.0000002e-01 1.7320508e-01 0.0000000e+00 
6.4876831e-01 2.5909650e-01 0.0000000e+00 
5.4933882e-01 2.5818285e-01 0.0000000e+00 
5.9902751e-01 3.4564152e-01 0.0000000e+00 
5.0000000e-01 3.4641016e-01 0.0000000e+00 
5.4918092e-01 4.3250528e-01 0.0000000e+00 
4.4986349e-01 4.3292814e-01 0.0000000e+00 
4.9984074e-01 5.1951659e-01 0.0000000e+00 
5.9917998e-01 5.2102238e-01 0.0000000e+00 
3.9995071e-01 5.1958472e-01 0.0000000e+00 
4.4996524e-01 6.0619622e-01 0.0000000e+00 
3.9827734e-01 3.4236532e-01 0.0000000e+00 
3.4998599e-01 6.0620910e-01 0.0000000e+00 
2.9998946e-01 5.1960868e-01 0.0000000e+00 
4.0246150e-01 6.9138944e-01 0.0000000e+00 
5.0040448e-01 6.9257826e-01 0.0000000e+00 
6.9183892e-01 3.4861544e-01 0.0000000e+00 
3.0287755e-01 6.8788534e-01 0.0000000e+00 
4.5107409e-01 7.7642798e-01 0.0000000e+00 
5.5000001e-01 7.7942288e-01 0.0000000e+00 
6.0006744e-01 6.9277996e-01 0.0000000e+00 
6.4999998e-01 7.7942288e-01 0.0000000e+00 
7.0001125e-01 6.9281358e-01 0.0000000e+00 
7.4810976e-01 7.7827942e-01 0.0000000e+00 
8.1429243e-01 6.9644338e-01 0.0000000e+00 
7.5505483e-01 6.0440248e-01 0.0000000e+00 
7.9754496e-01 1.6455974e-01 0.0000000e+00 
8.4409988e-01 9.0543878e-01 0.0000000e+00 
2.5007063e-01 9.1426742e-01 0.0000000e+00 
1.9948809e-01 8.3684945e-01 0.0000000e+00 
3.0239609e-01 8.4084076e-01 0.0000000e+00 
5.5039096e-01 8.6229436e-02 0.0000000e+00 
2.5227043e-01 6.0435647e-01 0.0000000e+00 
2.0253047e-01 6.7697614e-01 0.0000000e+00 
2.0000000e-01 5.1961523e-01 0.0000000e+00 
2.4994016e-01 4.3122852e-01 0.0000000e+00 
1.5013675e-01 4.3705931e-01 0.0000000e+00 
1.9500943e-01 3.4477931e-01 0.0000000e+00 
1.4187421e-01 2.5843257e-01 0.0000000e+00 
2.4087626e-01 2.5457630e-01 0.0000000e+00 
2.9581064e-01 3.4174213e-01 0.0000000e+00 
3.4302756e-01 2.5211102e-01 0.0000000e+00 
4.4705081e-01 2.5426328e-01 0.0000000e+00 
1.8726690e-01 1.7076795e-01 0.0000000e+00 
9.1374290e-01 4.4999999e-01 0.0000000e+00 
8.1292653e-01 5.1219177e-01 0.0000000e+00 
6.4999998e-01 9.1339743e-01 0.0000000e+00 
9.4903819e-02 6.5753615e-01 0.0000000e+00 
3.4647793e-01 8.5224926e-02 0.0000000e+00 
9.1339743e-01 6.4999998e-01 0.0000000e+00 
8.3004320e-01 4.0203196e-01 0.0000000e+00 
8.3633298e-01 3.0639145e-01 0.0000000e+00 
7.4173015e-01 4.3506145e-01 0.0000000e+00 
9.1635197e-01 2.5751698e-01 0.0000000e+00 
4.4999999e-01 9.1524893e-01 0.0000000e+00 
5.4990965e-01 6.0638523e-01 0.0000000e+00 
3.4897196e-01 4.3124291e-01 0.0000000e+00 
6.5070385e-01 6.0805732e-01 0.0000000e+00 
4.9951929e-01 1.7088418e-01 0.0000000e+00 
6.4682627e-01 4.3563104e-01 0.0000000e+00 
3.9496639e-01 1.7007479e-01 0.0000000e+00 
9.2003214e-01 8.4667110e-01 0.0000000e+00 
8.4628856e-01 8.0417827e-02 0.0000000e+00 
9.0504780e-02 8.4245151e-01 0.0000000e+00 
1.5290669e-01 8.2261533e-02 0.0000000e+00 
7.5581288e-01 2.6161289e-01 0.0000000e+00 
2.9022500e-01 1.7048772e-01 0.0000000e+00 
7.0076448e-01 5.2269316e-01 0.0000000e+00 
8.3802330e-01 7.9983431e-01 0.0000000e+00 
8.4137177e-01 6.0186249e-01 0.0000000e+00 
1.6660626e-01 5.9922481e-01 0.0000000e+00 
3.5146821e-01 7.6715195e-01 0.0000000e+00 
6.7398138e-02 4.4853568e-01 0.0000000e+00 
6.0000002e-01 8.4641016e-01 0.0000000e+00 
6.9999999e-01 8.4641016e-01 0.0000000e+00 
5.0000000e-01 8.4641016e-01 0.0000000e+00 
2.5092945e-01 7.6027036e-01 0.0000000e+00 
4.0000001e-01 8.4656054e-01 0.0000000e+00 
6.1870042e-02 2.5000000e-01 0.0000000e+00 
9.2679495e-01 7.3205084e-02 0.0000000e+00 
7.3205084e-02 7.3205084e-02 0.0000000e+00 
9.2679495e-01 9.2679495e-01 0.0000000e+00 
7.3205084e-02 9.2679495e-01 0.0000000e+00 
1.5420890e-01 7.5578600e-01 0.0000000e+00 
7.7540809e-01 8.4997970e-01 0.0000000e+00 
7.7320510e-01 3.4999999e-01 0.0000000e+00 
8.4417260e-01 2.3009899e-01 0.0000000e+00 

CELLS 246 984
3 82 124 102
3 41 93 91
3 81 106 48
3 90 140 104
3 104 140 49
3 41 129 93
3 102 126 82
3 48 125 81
3 102 124 109
3 54 100 95
3 98 99 68
3 117 123 105
3 95 135 54
3 97 98 68
3 120 140 86
3 46 95 94
3 81 126 106
3 104 127 90
3 97 113 92
3 46 94 93
3 53 120 86
3 116 124 65
3 83 119 52
3 61 99 59
3 68 99 61
3 98 123 117
3 68 113 97
3 94 97 92
3 109 116 73
3 81 125 80
3 128 133 74
3 91 127 41
3 52 143 83
3 109 124 116
3 84 125 118
3 95 96 94
3 99 115 59
3 49 140 120
3 105 123 50
3 96 97 94
3 95 100 96
3 100 121 50
3 87 133 128
3 96 98 97
3 50 123 100
3 28 85 45
3 29 85 28
3 67 71 69
3 71 74 69
3 85 87 45
3 47 88 9
3 41 104 34
3 58 59 57
3 58 60 59
3 7 105 6
3 10 47 9
3 10 55 47
3 35 41 34
3 56 58 57
3 14 110 52
3 16 44 15
3 16 101 44
3 42 101 17
3 19 106 18
3 20 48 19
3 48 106 19
3 23 84 22
3 24 51 23
3 24 103 51
3 26 43 25
3 43 103 25
3 26 111 43
3 53 85 29
3 42 102 101
3 101 107 44
3 108 110 44
3 55 56 47
3 64 112 67
3 65 114 112
3 67 72 71
3 69 89 70
3 74 89 69
3 89 91 70
3 72 76 75
3 72 112 77
3 77 78 76
3 112 114 77
3 8 88 40
3 11 55 10
3 33 49 32
3 6 50 5
3 8 40 7
3 14 52 13
3 37 46 36
3 55 83 56
3 62 63 61
3 64 66 63
3 91 92 70
3 86 87 85
3 39 54 38
3 6 105 50
3 40 105 7
3 15 110 14
3 44 110 15
3 17 101 16
3 27 111 26
3 28 45 27
3 30 53 29
3 33 104 49
3 107 108 44
3 57 88 47
3 64 67 66
3 70 113 66
3 67 112 72
3 72 75 71
3 74 90 89
3 77 114 79
3 93 94 92
3 102 107 101
3 102 109 107
3 9 88 8
3 58 73 60
3 60 61 59
3 63 68 61
3 62 65 64
3 66 113 63
3 77 79 78
3 91 93 92
3 62 64 63
3 63 113 68
3 92 113 70
3 34 104 33
3 56 57 47
3 53 86 85
3 18 42 17
3 51 84 23
3 25 103 24
3 45 111 27
3 60 62 61
3 65 112 64
3 67 69 66
3 79 81 80
3 79 82 81
3 18 106 42
3 69 70 66
3 79 80 78
3 79 114 82
3 72 77 76
3 73 142 109
3 84 141 125
3 88 115 40
3 59 115 57
3 115 117 40
3 98 117 99
3 62 116 65
3 73 116 60
3 57 115 88
3 99 117 115
3 32 120 31
3 55 119 83
3 12 119 11
3 21 118 20
3 58 122 73
3 83 122 56
3 93 129 46
3 5 121 4
3 60 116 62
3 50 121 5
3 65 124 114
3 100 123 96
3 42 126 102
3 82 126 81
3 90 127 89
3 40 117 105
3 46 135 95
3 11 119 55
3 49 120 32
3 20 118 48
3 54 121 100
3 71 128 74
3 35 129 41
3 46 129 36
3 87 134 45
3 56 122 58
3 54 135 38
3 37 135 46
3 1 136 12
3 13 136 1
3 4 137 0
3 0 137 39
3 2 138 21
3 22 138 2
3 3 139 30
3 31 139 3
3 110 143 52
3 109 142 107
3 96 123 98
3 83 143 122
3 114 124 82
3 89 127 91
3 106 126 42
3 41 127 104
3 122 142 73
3 122 143 108
3 118 125 48
3 51 141 84
3 128 134 87
3 75 128 71
3 36 129 35
3 132 134 75
3 43 130 103
3 78 130 76
3 111 132 43
3 86 133 87
3 76 132 75
3 103 131 51
3 78 131 130
3 130 131 103
3 74 133 90
3 80 131 78
3 130 132 76
3 43 132 130
3 111 134 132
3 45 134 111
3 108 142 122
3 12 136 119
3 120 139 31
3 21 138 118
3 38 135 37
3 52 136 13
3 30 139 53
3 39 137 54
3 84 138 22
3 121 137 4
3 107 142 108
3 108 143 110
3 118 138 84
3 53 139 120
3 119 136 52
3 54 137 121
3 75 134 128
3 86 140 133
3 133 140 90
3 125 141 80
3 80 141 131
3 131 141 51

CELL_TYPES 246
5
5
5
5
5
5
5
5
5
5
5
5
5
5
5
5
5
5
5
5
5
5
5
5
5
5
5
5
5
5
5
5
5
5
5
5
5
5
5
5
5
5
5
5
5
5
5
5
5
5
5
5
5
5
5
5
5
5
5
5
5
5
5
5
5
5
5
5
5
5
5
5
5
5
5
5
5
5
5
5
5
5
5
5
5
5
5
5
5
5
5
5
5
5
5
5
5
5
5
5
5
5
5
5
5
5
5
5
5
5
5
5
5
5
5
5
5
5
5
5
5
5
5
5
5
5
5
5
5
5
5
5
5
5
5
5
5
5
5
5
5
5
5
5
5
5
5
5
5
5
5
5
5
5
5
5
5
5
5
5
5
5
5
5
5
5
5
5
5
5
5
5
5
5
5
5
5
5
5
5
5
5
5
5
5
5
5
5
5
5
5
5
5
5
5
5
5
5
5
5
5
5
5
5
5
5
5
5
5
5
5
5
5
5
5
5
5
5
5
5
5
5
5
5
5
5
5
5
5
5
5
5
5
5
5
5
5
5
5
5
5
5
5
5
5
5
POINT_DATA 144
FIELD FieldData 2
DISPLACEMENT 3 144  float
0.0000000e+00 0.0000000e+00 0.0000000e+00 
0.0000000e+00 0.0000000e+00 0.0000000e+00 
0.0000000e+00 -1.4974313e-05 0.0000000e+00 
0.0000000e+00 -1.5268952e-05 0.0000000e+00 
0.0000000e+00 0.0000000e+00 0.0000000e+00 
0.0000000e+00 0.0000000e+00 0.0000000e+00 
0.0000000e+00 0.0000000e+00 0.0000000e+00 
0.0000000e+00 0.0000000e+00 0.0000000e+00 
0.0000000e+00 0.0000000e+00 0.0000000e+00 
0.0000000e+00 0.0000000e+00 0.0000000e+00 
0.0000000e+00 0.0000000e+00 0.0000000e+00 
0.0000000e+00 0.0000000e+00 0.0000000e+00 
0.0000000e+00 0.0000000e+00 0.0000000e+00 
0.0000000e+00 -1.4870594e-06 0.0000000e+00 
0.0000000e+00 -2.9695054e-06 0.0000000e+00 
0.0000000e+00 -4.4493859e-06 0.0000000e+00 
0.0000000e+00 -5.9307617e-06 0.0000000e+00 
0.0000000e+00 -7.4168756e-06 0.0000000e+00 
0.0000000e+00 -8.9107298e-06 0.0000000e+00 
0.0000000e+00 -1.0410648e-05 0.0000000e+00 
0.0000000e+00 -1.1920079e-05 0.0000000e+00 
0.0000000e+00 -1.3440955e-05 0.0000000e+00 
1.0757856e-08 -1.5012942e-05 0.0000000e+00 
2.8985317e-08 -1.5073761e-05 0.0000000e+00 
5.3490012e-08 -1.5125877e-05 0.0000000e+00 
7.2730252e-08 -1.5169294e-05 0.0000000e+00 
8.3661313e-08 -1.5210186e-05 0.0000000e+00 
9.2135480e-08 -1.5233188e-05 0.0000000e+00 
8.9998949e-08 -1.5243123e-05 0.0000000e+00 
6.8925239e-08 -1.5261669e-05 0.0000000e+00 
4.5013756e-08 -1.5261181e-05 0.0000000e+00 
0.0000000e+00 -1.3691727e-05 0.0000000e+00 
0.0000000e+00 -1.2132765e-05 0.0000000e+00 
0.0000000e+00 -1.0582956e-05 0.0000000e+00 
0.0000000e+00 -9.0430549e-06 0.0000000e+00 
0.0000000e+00 -7.5178082e-06 0.0000000e+00 
0.0000000e+00 -5.9975750e-06 0.0000000e+00 
0.0000000e+00 -4.4865787e-06 0.0000000e+00 
0.0000000e+00 -2.9864657e-06 0.0000000e+00 
0.0000000e+00 -1.4931733e-06 0.0000000e+00 
3.7392676e-09 -1.2904070e-06 0.0000000e+00 
2.7313966e-08 -8.0699701e-06 0.0000000e+00 
4.0443584e-08 -8.1710668e-06 0.0000000e+00 
1.0654809e-07 -1.3845978e-05 0.0000000e+00 
3.2022253e-08 -5.1927136e-06 0.0000000e+00 
1.0401885e-07 -1.3940663e-05 0.0000000e+00 
1.9377438e-08 -5.2234614e-06 0.0000000e+00 
1.6872487e-08 -1.2983348e-06 0.0000000e+00 
4.8957553e-08 -1.1146130e-05 0.0000000e+00 
2.9826246e-08 -1.1373336e-05 0.0000000e+00 
-3.1978424e-09 -1.2832553e-06 0.0000000e+00 
7.4322685e-08 -1.3865506e-05 0.0000000e+00 
1.6647776e-08 -2.3575428e-06 0.0000000e+00 
6.2152971e-08 -1.3935348e-05 0.0000000e+00 
1.1116114e-10 -2.4310796e-06 0.0000000e+00 
1.7366220e-08 -1.2860058e-06 0.0000000e+00 
3.2756176e-08 -2.5812913e-06 0.0000000e+00 
2.6503654e-08 -2.6062853e-06 0.0000000e+00 
4.4376794e-08 -3.8904004e-06 0.0000000e+00 
3.4581333e-08 -3.8955959e-06 0.0000000e+00 
5.4673436e-08 -5.2070732e-06 0.0000000e+00 
4.8866092e-08 -5.2297969e-06 0.0000000e+00 
6.5612568e-08 -6.5273830e-06 0.0000000e+00 
6.7445718e-08 -6.5298095e-06 0.0000000e+00 
8.1652672e-08 -7.8420371e-06 0.0000000e+00 
7.9204689e-08 -7.8548483e-06 0.0000000e+00 
8.3502592e-08 -7.8329585e-06 0.0000000e+00 
1.0187833e-07 -9.1514084e-06 0.0000000e+00 
4.7518686e-08 -5.1571169e-06 0.0000000e+00 
9.1777174e-08 -9.1515976e-06 0.0000000e+00 
7.2488490e-08 -7.8279008e-06 0.0000000e+00 
1.1392590e-07 -1.0453809e-05 0.0000000e+00 
1.2041302e-07 -1.0463363e-05 0.0000000e+00 
6.1409452e-08 -5.2237638e-06 0.0000000e+00 
9.5517692e-08 -1.0406242e-05 0.0000000e+00 
1.2137525e-07 -1.1756126e-05 0.0000000e+00 
1.2126371e-07 -1.1782765e-05 0.0000000e+00 
1.1449715e-07 -1.0449598e-05 0.0000000e+00 
1.0965715e-07 -1.1753250e-05 0.0000000e+00 
1.0331595e-07 -1.0414104e-05 0.0000000e+00 
9.2532353e-08 -1.1693278e-05 0.0000000e+00 
8.2090615e-08 -1.0413500e-05 0.0000000e+00 
8.5352156e-08 -9.0508702e-06 0.0000000e+00 
2.8266774e-08 -2.4518802e-06 0.0000000e+00 
5.8423268e-08 -1.3583903e-05 0.0000000e+00 
9.1185925e-08 -1.3910127e-05 0.0000000e+00 
7.8182779e-08 -1.2707646e-05 0.0000000e+00 
1.0134952e-07 -1.2766140e-05 0.0000000e+00 
1.0991899e-08 -1.2989427e-06 0.0000000e+00 
7.0995767e-08 -9.1248203e-06 0.0000000e+00 
7.3127474e-08 -1.0233734e-05 0.0000000e+00 
5.1080548e-08 -7.8265721e-06 0.0000000e+00 
5.6847838e-08 -6.4803698e-06 0.0000000e+00 
3.7450889e-08 -6.5653899e-06 0.0000000e+00 
3.6538605e-08 -5.1694019e-06 0.0000000e+00 
1.4770096e-08 -3.8672656e-06 0.0000000e+00 
2.0417200e-08 -3.8172961e-06 0.0000000e+00 
4.5693607e-08 -5.1317070e-06 0.0000000e+00 
2.2696820e-08 -3.7924797e-06 0.0000000e+00 
2.6170916e-08 -3.8374978e-06 0.0000000e+00 
2.6353597e-09 -2.5579664e-06 0.0000000e+00 
3.8390763e-08 -6.6779530e-06 0.0000000e+00 
6.8116471e-08 -7.6365868e-06 0.0000000e+00 
9.4882736e-08 -1.3807770e-05 0.0000000e+00 
3.8682753e-08 -9.9285880e-06 0.0000000e+00 
-1.2331127e-09 -1.2833265e-06 0.0000000e+00 
4.6393104e-08 -9.6696913e-06 0.0000000e+00 
5.7084407e-08 -5.9821182e-06 0.0000000e+00 
4.5690459e-08 -4.5570605e-06 0.0000000e+00 
7.0633092e-08 -6.5051713e-06 0.0000000e+00 
2.3625580e-08 -3.8223975e-06 0.0000000e+00 
1.0698879e-07 -1.3906457e-05 0.0000000e+00 
9.9269798e-08 -9.1522170e-06 0.0000000e+00 
6.7678855e-08 -6.4882252e-06 0.0000000e+00 
9.4538748e-08 -9.1516586e-06 0.0000000e+00 
1.5901973e-08 -2.5799686e-06 0.0000000e+00 
6.9745624e-08 -6.5504933e-06 0.0000000e+00 
8.0054789e-09 -2.5644604e-06 0.0000000e+00 
4.2285649e-08 -1.2640638e-05 0.0000000e+00 
1.2603391e-08 -1.1980057e-06 0.0000000e+00 
3.9282913e-08 -1.2795487e-05 0.0000000e+00 
-3.3304661e-09 -1.2317587e-06 0.0000000e+00 
4.7550397e-08 -3.9035908e-06 0.0000000e+00 
4.4985993e-09 -2.5616127e-06 0.0000000e+00 
7.9123865e-08 -7.8421190e-06 0.0000000e+00 
7.0424100e-08 -1.1972489e-05 0.0000000e+00 
6.8002301e-08 -8.9737778e-06 0.0000000e+00 
5.1668358e-08 -9.0400872e-06 0.0000000e+00 
1.0946754e-07 -1.1625684e-05 0.0000000e+00 
1.8725373e-08 -6.7359770e-06 0.0000000e+00 
1.1093017e-07 -1.2796386e-05 0.0000000e+00 
9.5385026e-08 -1.2757969e-05 0.0000000e+00 
1.1686770e-07 -1.2826216e-05 0.0000000e+00 
9.2482125e-08 -1.1518868e-05 0.0000000e+00 
1.1084161e-07 -1.2849731e-05 0.0000000e+00 
6.5457808e-09 -3.7371065e-06 0.0000000e+00 
5.9179515e-09 -1.0894906e-06 0.0000000e+00 
-1.9431738e-09 -1.0946014e-06 0.0000000e+00 
3.0649328e-08 -1.3864666e-05 0.0000000e+00 
3.6256186e-08 -1.4111449e-05 0.0000000e+00 
6.4675973e-08 -1.1447248e-05 0.0000000e+00 
8.0431775e-08 -1.2774512e-05 0.0000000e+00 
5.9024007e-08 -5.2203600e-06 0.0000000e+00 
3.3729201e-08 -3.4223526e-06 0.0000000e+00 
VELOCITY 3 144  float
0.0000000e+00 0.0000000e+00 0.0000000e+00 
0.0000000e+00 0.0000000e+00 0.0000000e+00 
0.0000000e+00 -5.3557986e-05 0.0000000e+00 
0.0000000e+00 -2.0861271e-05 0.0000000e+00 
0.0000000e+00 0.0000000e+00 0.0000000e+00 
0.0000000e+00 0.0000000e+00 0.0000000e+00 
0.0000000e+00 0.0000000e+00 0.0000000e+00 
0.0000000e+00 0.0000000e+00 0.0000000e+00 
0.0000000e+00 0.0000000e+00 0.0000000e+00 
0.0000000e+00 0.0000000e+00 0.0000000e+00 
0.0000000e+00 0.0000000e+00 0.0000000e+00 
0.0000000e+00 0.0000000e+00 0.0000000e+00 
0.0000000e+00 0.0000000e+00 0.0000000e+00 
0.0000000e+00 -1.6805819e-06 0.0000000e+00 
0.0000000e+00 -1.9961224e-06 0.0000000e+00 
0.0000000e+00 -4.0727891e-06 0.0000000e+00 
0.0000000e+00 -8.7439494e-06 0.0000000e+00 
0.0000000e+00 -1.6450043e-05 0.0000000e+00 
0.0000000e+00 -2.4350389e-05 0.0000000e+00 
0.0000000e+00 -3.2735661e-05 0.0000000e+00 
0.0000000e+00 -4.4369437e-05 0.0000000e+00 
0.0000000e+00 -5.0805145e-05 0.0000000e+00 
4.7522197e-05 -1.2584501e-04 0.0000000e+00 
7.9766454e-05 -1.7239517e-04 0.0000000e+00 
1.0577864e-04 -2.0416670e-04 0.0000000e+00 
1.1323669e-04 -2.5163370e-04 0.0000000e+00 
1.3277351e-04 -2.7277702e-04 0.0000000e+00 
1.5935190e-04 -2.3837293e-04 0.0000000e+00 
1.4678697e-04 -2.2918750e-04 0.0000000e+00 
1.3185652e-04 -2.0045674e-04 0.0000000e+00 
9.8979654e-05 -1.4807019e-04 0.0000000e+00 
0.0000000e+00 -6.2736755e-05 0.0000000e+00 
0.0000000e+00 -5.6727145e-05 0.0000000e+00 
0.0000000e+00 -5.6968380e-05 0.0000000e+00 
0.0000000e+00 -5.7545010e-05 0.0000000e+00 
0.0000000e+00 -5.6148139e-05 0.0000000e+00 
0.0000000e+00 -4.9724116e-05 0.0000000e+00 
0.0000000e+00 -3.2717446e-05 0.0000000e+00 
0.0000000e+00 -1.1709437e-05 0.0000000e+00 
0.0000000e+00 7.7913347e-07 0.0000000e+00 
4.0030322e-06 -1.0511851e-05 0.0000000e+00 
-2.9749806e-06 -5.7849782e-05 0.0000000e+00 
1.8148135e-05 -4.0144372e-05 0.0000000e+00 
9.7678116e-05 -2.3217480e-04 0.0000000e+00 
1.4302825e-05 -1.7298456e-05 0.0000000e+00 
1.1591479e-04 -1.8907545e-04 0.0000000e+00 
7.0152478e-06 -3.7812650e-05 0.0000000e+00 
6.4510714e-06 -1.2700520e-05 0.0000000e+00 
2.5084193e-05 -6.9583788e-05 0.0000000e+00 
2.5116553e-06 -6.4293446e-05 0.0000000e+00 
1.5234986e-05 5.1798684e-06 0.0000000e+00 
8.3083600e-05 -1.6633280e-04 0.0000000e+00 
1.0669606e-05 -7.0894553e-06 0.0000000e+00 
6.6202963e-05 -1.2002929e-04 0.0000000e+00 
1.7810631e-05 -1.2581619e-06 0.0000000e+00 
8.1579519e-06 -1.0450425e-05 0.0000000e+00 
1.3599611e-05 -2.3868999e-05 0.0000000e+00 
1.2350384e-05 -2.6559446e-05 0.0000000e+00 
2.0186159e-05 -3.7207639e-05 0.0000000e+00 
2.1574138e-05 -3.6737983e-05 0.0000000e+00 
2.6203285e-05 -4.8585644e-05 0.0000000e+00 
3.0728512e-05 -4.1508876e-05 0.0000000e+00 
3.2155240e-05 -5.7759182e-05 0.0000000e+00 
3.0108040e-05 -5.0741564e-05 0.0000000e+00 
3.8438768e-05 -7.3483287e-05 0.0000000e+00 
4.4451739e-05 -7.2262759e-05 0.0000000e+00 
2.1815560e-05 -7.4161893e-05 0.0000000e+00 
4.1245767e-05 -1.0349438e-04 0.0000000e+00 
3.5877049e-05 -2.4409210e-05 0.0000000e+00 
2.1244117e-05 -9.8474979e-05 0.0000000e+00 
3.5629405e-06 -7.0096845e-05 0.0000000e+00 
3.8262475e-05 -1.3540083e-04 0.0000000e+00 
5.4039410e-05 -1.3514044e-04 0.0000000e+00 
2.3849940e-05 -4.8889200e-05 0.0000000e+00 
3.2345986e-05 -1.0325898e-04 0.0000000e+00 
4.7645823e-05 -1.7850648e-04 0.0000000e+00 
6.0366190e-05 -1.6826016e-04 0.0000000e+00 
6.5725733e-05 -1.1783446e-04 0.0000000e+00 
6.4766471e-05 -1.4659108e-04 0.0000000e+00 
5.6228073e-05 -1.1612622e-04 0.0000000e+00 
5.0920902e-05 -1.3538515e-04 0.0000000e+00 
3.7902024e-05 -9.8965866e-05 0.0000000e+00 
4.4597971e-05 -9.1299320e-05 0.0000000e+00 
1.4055314e-05 -1.6516269e-05 0.0000000e+00 
5.7262787e-05 -1.2744218e-04 0.0000000e+00 
9.2245871e-05 -1.7453985e-04 0.0000000e+00 
4.1978612e-05 -1.2353002e-04 0.0000000e+00 
7.4056392e-05 -1.4702373e-04 0.0000000e+00 
4.2108045e-06 -1.3718667e-05 0.0000000e+00 
1.2624624e-05 -7.6079785e-05 0.0000000e+00 
2.2459590e-05 -7.3812851e-05 0.0000000e+00 
-4.3646346e-06 -6.0141094e-05 0.0000000e+00 
6.3593134e-06 -4.4457556e-05 0.0000000e+00 
-2.8671989e-06 -4.9844617e-05 0.0000000e+00 
2.0343567e-05 -2.4566325e-05 0.0000000e+00 
2.6297439e-05 -1.0856616e-05 0.0000000e+00 
3.8262122e-05 4.8339842e-07 0.0000000e+00 
3.2997585e-05 -1.5870488e-05 0.0000000e+00 
3.8273403e-05 -3.6078079e-06 0.0000000e+00 
2.8619988e-05 -2.3179749e-05 0.0000000e+00 
3.0197314e-05 5.8963442e-06 0.0000000e+00 
1.4810215e-05 -2.8217655e-05 0.0000000e+00 
2.7072781e-05 -6.4487729e-05 0.0000000e+00 
9.9990633e-05 -1.9064973e-04 0.0000000e+00 
3.2729577e-06 -6.5610868e-05 0.0000000e+00 
9.1959382e-06 -1.6262939e-06 0.0000000e+00 
2.3426966e-05 -5.1607112e-05 0.0000000e+00 
2.1042246e-05 -4.1110779e-05 0.0000000e+00 
2.0294070e-05 -2.6351747e-05 0.0000000e+00 
2.5134284e-05 -6.1720028e-05 0.0000000e+00 
1.2215578e-05 -1.0507886e-05 0.0000000e+00 
1.0347301e-04 -2.2970968e-04 0.0000000e+00 
5.9289276e-05 -9.2683855e-05 0.0000000e+00 
2.0723484e-05 -4.3417873e-05 0.0000000e+00 
6.0021499e-05 -9.0286085e-05 0.0000000e+00 
1.2844025e-05 -2.3733252e-05 0.0000000e+00 
2.9810515e-05 -6.1960192e-05 0.0000000e+00 
2.0645746e-05 -9.1216834e-06 0.0000000e+00 
2.9705545e-05 -8.5593070e-05 0.0000000e+00 
8.2595025e-06 -5.7971397e-06 0.0000000e+00 
2.3736695e-05 -7.0765782e-05 0.0000000e+00 
1.4403056e-05 5.6760346e-06 0.0000000e+00 
1.9847421e-05 -3.2387001e-05 0.0000000e+00 
3.0313116e-05 5.4583775e-06 0.0000000e+00 
3.8125476e-05 -7.7834156e-05 0.0000000e+00 
4.3853615e-05 -1.0891990e-04 0.0000000e+00 
3.4173965e-05 -6.9768430e-05 0.0000000e+00 
7.7479654e-06 -6.0571489e-05 0.0000000e+00 
4.5076020e-05 -1.4410072e-04 0.0000000e+00 
-3.6015981e-06 -5.2643132e-05 0.0000000e+00 
8.7446191e-05 -1.8187723e-04 0.0000000e+00 
8.1982493e-05 -1.5594103e-04 0.0000000e+00 
7.5913114e-05 -2.0835188e-04 0.0000000e+00 
3.4360179e-05 -1.0581604e-04 0.0000000e+00 
7.7511766e-05 -1.8707462e-04 0.0000000e+00 
1.3033633e-05 -1.8650793e-05 0.0000000e+00 
4.4085768e-06 -3.6726399e-06 0.0000000e+00 
7.1662539e-06 2.8304203e-06 0.0000000e+00 
2.6343336e-05 -1.0153458e-04 0.0000000e+00 
2.1053318e-05 -8.6090673e-05 0.0000000e+00 
7.6196002e-06 -9.1229282e-05 0.0000000e+00 
6.7772540e-05 -1.3980945e-04 0.0000000e+00 
2.2314951e-05 -4.3253232e-05 0.0000000e+00 
1.6760081e-05 -1.7701763e-05 0.0000000e+00 
CELL_DATA 246
FIELD FieldData 0
