# vtk DataFile Version 4.0
vtk output
ASCII
DATASET UNSTRUCTURED_GRID
POINTS 144 float
0.0000000e+00 0.0000000e+00 0.0000000e+00 
1.0000000e+00 0.0000000e+00 0.0000000e+00 
1.0000000e+00 1.0000000e+00 0.0000000e+00 
0.0000000e+00 1.0000000e+00 0.0000000e+00 
1.0000000e-01 0.0000000e+00 0.0000000e+00 
2.0000000e-01 0.0000000e+00 0.0000000e+00 
3.0000001e-01 0.0000000e+00 0.0000000e+00 
4.0000001e-01 0.0000000e+00 0.0000000e+00 
5.0000000e-01 0.0000000e+00 0.0000000e+00 
6.0000002e-01 0.0000000e+00 0.0000000e+00 
6.9999999e-01 0.0000000e+00 0.0000000e+00 
8.0000001e-01 0.0000000e+00 0.0000000e+00 
8.9999998e-01 0.0000000e+00 0.0000000e+00 
1.0000000e+00 1.0000000e-01 0.0000000e+00 
1.0000000e+00 2.0000000e-01 0.0000000e+00 
1.0000000e+00 3.0000001e-01 0.0000000e+00 
1.0000000e+00 4.0000001e-01 0.0000000e+00 
1.0000000e+00 5.0000000e-01 0.0000000e+00 
1.0000000e+00 6.0000002e-01 0.0000000e+00 
1.0000000e+00 6.9999999e-01 0.0000000e+00 
1.0000000e+00 8.0000001e-01 0.0000000e+00 
1.0000000e+00 8.9999998e-01 0.0000000e+00 
8.9999998e-01 1.0000000e+00 0.0000000e+00 
8.0000001e-01 1.0000000e+00 0.0000000e+00 
6.9999999e-01 1.0000000e+00 0.0000000e+00 
6.0000002e-01 1.0000000e+00 0.0000000e+00 
5.0000000e-01 1.0000000e+00 0.0000000e+00 
4.0000001e-01 1.0000000e+00 0.0000000e+00 
3.0000001e-01 1.0000000e+00 0.0000000e+00 
2.0000000e-01 1.0000000e+00 0.0000000e+00 
1.0000000e-01 1.0000000e+00 0.0000000e+00 
0.0000000e+00 8.9999998e-01 0.0000000e+00 
0.0000000e+00 8.0000001e-01 0.0000000e+00 
0.0000000e+00 6.9999999e-01 0.0000000e+00 
0.0000000e+00 6.0000002e-01 0.0000000e+00 
0.0000000e+00 5.0000000e-01 0.0000000e+00 
0.0000000e+00 4.0000001e-01 0.0000000e+00 
0.0000000e+00 3.0000001e-01 0.0000000e+00 
0.0000000e+00 2.0000000e-01 0.0000000e+00 
0.0000000e+00 1.0000000e-01 0.0000000e+00 
4.5033512e-01 8.5524812e-02 0.0000000e+00 
9.5000088e-02 5.3608972e-01 0.0000000e+00 
9.1547006e-01 5.5000001e-01 0.0000000e+00 
5.5000001e-01 9.1339743e-01 0.0000000e+00 
9.1339743e-01 3.4999999e-01 0.0000000e+00 
3.4999999e-01 9.1669172e-01 0.0000000e+00 
8.8579953e-02 3.4872410e-01 0.0000000e+00 
6.4999998e-01 8.6602539e-02 0.0000000e+00 
9.1127491e-01 7.4795848e-01 0.0000000e+00 
6.6607341e-02 7.5098073e-01 0.0000000e+00 
2.4514475e-01 8.5484609e-02 0.0000000e+00 
7.4680746e-01 9.1993588e-01 0.0000000e+00 
9.0420872e-01 1.5861149e-01 0.0000000e+00 
1.5042374e-01 9.1532278e-01 0.0000000e+00 
8.7588154e-02 1.6267365e-01 0.0000000e+00 
7.4918270e-01 8.6130671e-02 0.0000000e+00 
6.9882751e-01 1.7252813e-01 0.0000000e+00 
6.0000002e-01 1.7320508e-01 0.0000000e+00 
6.4876831e-01 2.5909650e-01 0.0000000e+00 
5.4933882e-01 2.5818285e-01 0.0000000e+00 
5.9902751e-01 3.4564152e-01 0.0000000e+00 
5.0000000e-01 3.4641016e-01 0.0000000e+00 
5.4918092e-01 4.3250528e-01 0.0000000e+00 
4.4986349e-01 4.3292814e-01 0.0000000e+00 
4.9984074e-01 5.1951659e-01 0.0000000e+00 
5.9917998e-01 5.2102238e-01 0.0000000e+00 
3.9995071e-01 5.1958472e-01 0.0000000e+00 
4.4996524e-01 6.0619622e-01 0.0000000e+00 
3.9827734e-01 3.4236532e-01 0.0000000e+00 
3.4998599e-01 6.0620910e-01 0.0000000e+00 
2.9998946e-01 5.1960868e-01 0.0000000e+00 
4.0246150e-01 6.9138944e-01 0.0000000e+00 
5.0040448e-01 6.9257826e-01 0.0000000e+00 
6.9183892e-01 3.4861544e-01 0.0000000e+00 
3.0287755e-01 6.8788534e-01 0.0000000e+00 
4.5107409e-01 7.7642798e-01 0.0000000e+00 
5.5000001e-01 7.7942288e-01 0.0000000e+00 
6.0006744e-01 6.9277996e-01 0.0000000e+00 
6.4999998e-01 7.7942288e-01 0.0000000e+00 
7.0001125e-01 6.9281358e-01 0.0000000e+00 
7.4810976e-01 7.7827942e-01 0.0000000e+00 
8.1429243e-01 6.9644338e-01 0.0000000e+00 
7.5505483e-01 6.0440248e-01 0.0000000e+00 
7.9754496e-01 1.6455974e-01 0.0000000e+00 
8.4409988e-01 9.0543878e-01 0.0000000e+00 
2.5007063e-01 9.1426742e-01 0.0000000e+00 
1.9948809e-01 8.3684945e-01 0.0000000e+00 
3.0239609e-01 8.4084076e-01 0.0000000e+00 
5.5039096e-01 8.6229436e-02 0.0000000e+00 
2.5227043e-01 6.0435647e-01 0.0000000e+00 
2.0253047e-01 6.7697614e-01 0.0000000e+00 
2.0000000e-01 5.1961523e-01 0.0000000e+00 
2.4994016e-01 4.3122852e-01 0.0000000e+00 
1.5013675e-01 4.3705931e-01 0.0000000e+00 
1.9500943e-01 3.4477931e-01 0.0000000e+00 
1.4187421e-01 2.5843257e-01 0.0000000e+00 
2.4087626e-01 2.5457630e-01 0.0000000e+00 
2.9581064e-01 3.4174213e-01 0.0000000e+00 
3.4302756e-01 2.5211102e-01 0.0000000e+00 
4.4705081e-01 2.5426328e-01 0.0000000e+00 
1.8726690e-01 1.7076795e-01 0.0000000e+00 
9.1374290e-01 4.4999999e-01 0.0000000e+00 
8.1292653e-01 5.1219177e-01 0.0000000e+00 
6.4999998e-01 9.1339743e-01 0.0000000e+00 
9.4903819e-02 6.5753615e-01 0.0000000e+00 
3.4647793e-01 8.5224926e-02 0.0000000e+00 
9.1339743e-01 6.4999998e-01 0.0000000e+00 
8.3004320e-01 4.0203196e-01 0.0000000e+00 
8.3633298e-01 3.0639145e-01 0.0000000e+00 
7.4173015e-01 4.3506145e-01 0.0000000e+00 
9.1635197e-01 2.5751698e-01 0.0000000e+00 
4.4999999e-01 9.1524893e-01 0.0000000e+00 
5.4990965e-01 6.0638523e-01 0.0000000e+00 
3.4897196e-01 4.3124291e-01 0.0000000e+00 
6.5070385e-01 6.0805732e-01 0.0000000e+00 
4.9951929e-01 1.7088418e-01 0.0000000e+00 
6.4682627e-01 4.3563104e-01 0.0000000e+00 
3.9496639e-01 1.7007479e-01 0.0000000e+00 
9.2003214e-01 8.4667110e-01 0.0000000e+00 
8.4628856e-01 8.0417827e-02 0.0000000e+00 
9.0504780e-02 8.4245151e-01 0.0000000e+00 
1.5290669e-01 8.2261533e-02 0.0000000e+00 
7.5581288e-01 2.6161289e-01 0.0000000e+00 
2.9022500e-01 1.7048772e-01 0.0000000e+00 
7.0076448e-01 5.2269316e-01 0.0000000e+00 
8.3802330e-01 7.9983431e-01 0.0000000e+00 
8.4137177e-01 6.0186249e-01 0.0000000e+00 
1.6660626e-01 5.9922481e-01 0.0000000e+00 
3.5146821e-01 7.6715195e-01 0.0000000e+00 
6.7398138e-02 4.4853568e-01 0.0000000e+00 
6.0000002e-01 8.4641016e-01 0.0000000e+00 
6.9999999e-01 8.4641016e-01 0.0000000e+00 
5.0000000e-01 8.4641016e-01 0.0000000e+00 
2.5092945e-01 7.6027036e-01 0.0000000e+00 
4.0000001e-01 8.4656054e-01 0.0000000e+00 
6.1870042e-02 2.5000000e-01 0.0000000e+00 
9.2679495e-01 7.3205084e-02 0.0000000e+00 
7.3205084e-02 7.3205084e-02 0.0000000e+00 
9.2679495e-01 9.2679495e-01 0.0000000e+00 
7.3205084e-02 9.2679495e-01 0.0000000e+00 
1.5420890e-01 7.5578600e-01 0.0000000e+00 
7.7540809e-01 8.4997970e-01 0.0000000e+00 
7.7320510e-01 3.4999999e-01 0.0000000e+00 
8.4417260e-01 2.3009899e-01 0.0000000e+00 

CELLS 246 984
3 82 124 102
3 41 93 91
3 81 106 48
3 90 140 104
3 104 140 49
3 41 129 93
3 102 126 82
3 48 125 81
3 102 124 109
3 54 100 95
3 98 99 68
3 117 123 105
3 95 135 54
3 97 98 68
3 120 140 86
3 46 95 94
3 81 126 106
3 104 127 90
3 97 113 92
3 46 94 93
3 53 120 86
3 116 124 65
3 83 119 52
3 61 99 59
3 68 99 61
3 98 123 117
3 68 113 97
3 94 97 92
3 109 116 73
3 81 125 80
3 128 133 74
3 91 127 41
3 52 143 83
3 109 124 116
3 84 125 118
3 95 96 94
3 99 115 59
3 49 140 120
3 105 123 50
3 96 97 94
3 95 100 96
3 100 121 50
3 87 133 128
3 96 98 97
3 50 123 100
3 28 85 45
3 29 85 28
3 67 71 69
3 71 74 69
3 85 87 45
3 47 88 9
3 41 104 34
3 58 59 57
3 58 60 59
3 7 105 6
3 10 47 9
3 10 55 47
3 35 41 34
3 56 58 57
3 14 110 52
3 16 44 15
3 16 101 44
3 42 101 17
3 19 106 18
3 20 48 19
3 48 106 19
3 23 84 22
3 24 51 23
3 24 103 51
3 26 43 25
3 43 103 25
3 26 111 43
3 53 85 29
3 42 102 101
3 101 107 44
3 108 110 44
3 55 56 47
3 64 112 67
3 65 114 112
3 67 72 71
3 69 89 70
3 74 89 69
3 89 91 70
3 72 76 75
3 72 112 77
3 77 78 76
3 112 114 77
3 8 88 40
3 11 55 10
3 33 49 32
3 6 50 5
3 8 40 7
3 14 52 13
3 37 46 36
3 55 83 56
3 62 63 61
3 64 66 63
3 91 92 70
3 86 87 85
3 39 54 38
3 6 105 50
3 40 105 7
3 15 110 14
3 44 110 15
3 17 101 16
3 27 111 26
3 28 45 27
3 30 53 29
3 33 104 49
3 107 108 44
3 57 88 47
3 64 67 66
3 70 113 66
3 67 112 72
3 72 75 71
3 74 90 89
3 77 114 79
3 93 94 92
3 102 107 101
3 102 109 107
3 9 88 8
3 58 73 60
3 60 61 59
3 63 68 61
3 62 65 64
3 66 113 63
3 77 79 78
3 91 93 92
3 62 64 63
3 63 113 68
3 92 113 70
3 34 104 33
3 56 57 47
3 53 86 85
3 18 42 17
3 51 84 23
3 25 103 24
3 45 111 27
3 60 62 61
3 65 112 64
3 67 69 66
3 79 81 80
3 79 82 81
3 18 106 42
3 69 70 66
3 79 80 78
3 79 114 82
3 72 77 76
3 73 142 109
3 84 141 125
3 88 115 40
3 59 115 57
3 115 117 40
3 98 117 99
3 62 116 65
3 73 116 60
3 57 115 88
3 99 117 115
3 32 120 31
3 55 119 83
3 12 119 11
3 21 118 20
3 58 122 73
3 83 122 56
3 93 129 46
3 5 121 4
3 60 116 62
3 50 121 5
3 65 124 114
3 100 123 96
3 42 126 102
3 82 126 81
3 90 127 89
3 40 117 105
3 46 135 95
3 11 119 55
3 49 120 32
3 20 118 48
3 54 121 100
3 71 128 74
3 35 129 41
3 46 129 36
3 87 134 45
3 56 122 58
3 54 135 38
3 37 135 46
3 1 136 12
3 13 136 1
3 4 137 0
3 0 137 39
3 2 138 21
3 22 138 2
3 3 139 30
3 31 139 3
3 110 143 52
3 109 142 107
3 96 123 98
3 83 143 122
3 114 124 82
3 89 127 91
3 106 126 42
3 41 127 104
3 122 142 73
3 122 143 108
3 118 125 48
3 51 141 84
3 128 134 87
3 75 128 71
3 36 129 35
3 132 134 75
3 43 130 103
3 78 130 76
3 111 132 43
3 86 133 87
3 76 132 75
3 103 131 51
3 78 131 130
3 130 131 103
3 74 133 90
3 80 131 78
3 130 132 76
3 43 132 130
3 111 134 132
3 45 134 111
3 108 142 122
3 12 136 119
3 120 139 31
3 21 138 118
3 38 135 37
3 52 136 13
3 30 139 53
3 39 137 54
3 84 138 22
3 121 137 4
3 107 142 108
3 108 143 110
3 118 138 84
3 53 139 120
3 119 136 52
3 54 137 121
3 75 134 128
3 86 140 133
3 133 140 90
3 125 141 80
3 80 141 131
3 131 141 51

CELL_TYPES 246
5
5
5
5
5
5
5
5
5
5
5
5
5
5
5
5
5
5
5
5
5
5
5
5
5
5
5
5
5
5
5
5
5
5
5
5
5
5
5
5
5
5
5
5
5
5
5
5
5
5
5
5
5
5
5
5
5
5
5
5
5
5
5
5
5
5
5
5
5
5
5
5
5
5
5
5
5
5
5
5
5
5
5
5
5
5
5
5
5
5
5
5
5
5
5
5
5
5
5
5
5
5
5
5
5
5
5
5
5
5
5
5
5
5
5
5
5
5
5
5
5
5
5
5
5
5
5
5
5
5
5
5
5
5
5
5
5
5
5
5
5
5
5
5
5
5
5
5
5
5
5
5
5
5
5
5
5
5
5
5
5
5
5
5
5
5
5
5
5
5
5
5
5
5
5
5
5
5
5
5
5
5
5
5
5
5
5
5
5
5
5
5
5
5
5
5
5
5
5
5
5
5
5
5
5
5
5
5
5
5
5
5
5
5
5
5
5
5
5
5
5
5
5
5
5
5
5
5
5
5
5
5
5
5
5
5
5
5
5
5
5
5
5
5
5
5
POINT_DATA 144
FIELD FieldData 2
DISPLACEMENT 3 144  float
0.0000000e+00 0.0000000e+00 0.0000000e+00 
0.0000000e+00 0.0000000e+00 0.0000000e+00 
0.0000000e+00 -1.5030557e-05 0.0000000e+00 
0.0000000e+00 -1.5030658e-05 0.0000000e+00 
0.0000000e+00 0.0000000e+00 0.0000000e+00 
0.0000000e+00 0.0000000e+00 0.0000000e+00 
0.0000000e+00 0.0000000e+00 0.0000000e+00 
0.0000000e+00 0.0000000e+00 0.0000000e+00 
0.0000000e+00 0.0000000e+00 0.0000000e+00 
0.0000000e+00 0.0000000e+00 0.0000000e+00 
0.0000000e+00 0.0000000e+00 0.0000000e+00 
0.0000000e+00 0.0000000e+00 0.0000000e+00 
0.0000000e+00 0.0000000e+00 0.0000000e+00 
0.0000000e+00 -1.4878802e-06 0.0000000e+00 
0.0000000e+00 -2.9761673e-06 0.0000000e+00 
0.0000000e+00 -4.4653289e-06 0.0000000e+00 
0.0000000e+00 -5.9559761e-06 0.0000000e+00 
0.0000000e+00 -7.4490740e-06 0.0000000e+00 
0.0000000e+00 -8.9458626e-06 0.0000000e+00 
0.0000000e+00 -1.0448555e-05 0.0000000e+00 
0.0000000e+00 -1.1960084e-05 0.0000000e+00 
0.0000000e+00 -1.3485535e-05 0.0000000e+00 
-4.5978665e-10 -1.5031985e-05 0.0000000e+00 
-2.4126909e-12 -1.5031326e-05 0.0000000e+00 
-2.4290278e-10 -1.5031453e-05 0.0000000e+00 
-1.4455459e-10 -1.5031304e-05 0.0000000e+00 
-1.1902508e-11 -1.5031383e-05 0.0000000e+00 
2.1945157e-11 -1.5031410e-05 0.0000000e+00 
3.3451793e-11 -1.5031337e-05 0.0000000e+00 
2.7870503e-10 -1.5031083e-05 0.0000000e+00 
3.3855094e-10 -1.5032142e-05 0.0000000e+00 
0.0000000e+00 -1.3485500e-05 0.0000000e+00 
0.0000000e+00 -1.1960423e-05 0.0000000e+00 
0.0000000e+00 -1.0448738e-05 0.0000000e+00 
0.0000000e+00 -8.9458681e-06 0.0000000e+00 
0.0000000e+00 -7.4491390e-06 0.0000000e+00 
0.0000000e+00 -5.9560421e-06 0.0000000e+00 
0.0000000e+00 -4.4653616e-06 0.0000000e+00 
0.0000000e+00 -2.9761904e-06 0.0000000e+00 
0.0000000e+00 -1.4878843e-06 0.0000000e+00 
8.1938872e-13 -1.2724828e-06 0.0000000e+00 
-2.2694588e-11 -7.9886040e-06 0.0000000e+00 
7.2506251e-11 -8.1969183e-06 0.0000000e+00 
-8.9842314e-11 -1.3690944e-05 0.0000000e+00 
1.1220896e-11 -5.2104069e-06 0.0000000e+00 
-9.1248904e-11 -1.3741638e-05 0.0000000e+00 
2.9504316e-12 -5.1913644e-06 0.0000000e+00 
9.7967619e-13 -1.2885179e-06 0.0000000e+00 
5.0313979e-11 -1.1171995e-05 0.0000000e+00 
1.1109103e-11 -1.1217989e-05 0.0000000e+00 
1.5777495e-12 -1.2718846e-06 0.0000000e+00 
-2.1021292e-10 -1.3791609e-05 0.0000000e+00 
-3.2933470e-13 -2.3601187e-06 0.0000000e+00 
8.6066258e-11 -1.3720165e-05 0.0000000e+00 
3.2356138e-12 -2.4205560e-06 0.0000000e+00 
-2.3722099e-12 -1.2815032e-06 0.0000000e+00 
2.1438452e-12 -2.5672111e-06 0.0000000e+00 
3.9261411e-12 -2.5772933e-06 0.0000000e+00 
1.6297843e-11 -3.8560215e-06 0.0000000e+00 
1.3824088e-11 -3.8424196e-06 0.0000000e+00 
9.1720477e-12 -5.1453821e-06 0.0000000e+00 
3.8508472e-12 -5.1568522e-06 0.0000000e+00 
-1.3394643e-12 -6.4409196e-06 0.0000000e+00 
-1.2155386e-11 -6.4472297e-06 0.0000000e+00 
-6.9208792e-12 -7.7407585e-06 0.0000000e+00 
1.1217049e-12 -7.7632812e-06 0.0000000e+00 
-3.3822698e-11 -7.7417726e-06 0.0000000e+00 
-1.9105946e-11 -9.0387266e-06 0.0000000e+00 
-5.9998030e-13 -5.0965618e-06 0.0000000e+00 
-3.7442605e-11 -9.0389012e-06 0.0000000e+00 
-5.9593497e-11 -7.7421291e-06 0.0000000e+00 
-3.6949614e-12 -1.0318754e-05 0.0000000e+00 
1.5185424e-11 -1.0336668e-05 0.0000000e+00 
1.6337116e-11 -5.1896800e-06 0.0000000e+00 
4.4043852e-11 -1.0265961e-05 0.0000000e+00 
1.4824714e-10 -1.1602687e-05 0.0000000e+00 
9.0887353e-11 -1.1648022e-05 0.0000000e+00 
3.8401182e-11 -1.0339674e-05 0.0000000e+00 
5.5900368e-11 -1.1647957e-05 0.0000000e+00 
5.3051490e-11 -1.0340183e-05 0.0000000e+00 
3.6013120e-11 -1.1630586e-05 0.0000000e+00 
9.2316797e-12 -1.0394726e-05 0.0000000e+00 
3.8551020e-11 -9.0116318e-06 0.0000000e+00 
5.5401651e-12 -2.4486476e-06 0.0000000e+00 
-9.6689448e-11 -1.3568176e-05 0.0000000e+00 
-3.9218274e-11 -1.3704230e-05 0.0000000e+00 
-6.7754122e-11 -1.2520037e-05 0.0000000e+00 
-1.6069091e-11 -1.2580907e-05 0.0000000e+00 
3.8616202e-13 -1.2829671e-06 0.0000000e+00 
-4.0111907e-11 -9.0110716e-06 0.0000000e+00 
9.5757680e-11 -1.0101796e-05 0.0000000e+00 
-7.7057645e-11 -7.7422519e-06 0.0000000e+00 
-2.2111585e-11 -6.4218657e-06 0.0000000e+00 
-1.9135754e-11 -6.5088484e-06 0.0000000e+00 
-2.9380704e-12 -5.1325396e-06 0.0000000e+00 
2.7975981e-12 -3.8461262e-06 0.0000000e+00 
-1.1080445e-12 -3.7887110e-06 0.0000000e+00 
-3.3216858e-12 -5.0872773e-06 0.0000000e+00 
7.5714104e-13 -3.7519997e-06 0.0000000e+00 
4.5472124e-12 -3.7840505e-06 0.0000000e+00 
6.8851348e-12 -2.5410227e-06 0.0000000e+00 
-2.5074609e-11 -6.7021292e-06 0.0000000e+00 
3.0994703e-11 -7.6311908e-06 0.0000000e+00 
-8.2485366e-11 -1.3690833e-05 0.0000000e+00 
4.7116446e-11 -9.8093851e-06 0.0000000e+00 
1.5377582e-12 -1.2680222e-06 0.0000000e+00 
-6.1218322e-11 -9.6963076e-06 0.0000000e+00 
1.0895433e-11 -5.9862887e-06 0.0000000e+00 
3.1065383e-11 -4.5605448e-06 0.0000000e+00 
2.0236484e-11 -6.4790484e-06 0.0000000e+00 
-3.2294790e-12 -3.8325475e-06 0.0000000e+00 
-9.7816047e-11 -1.3719437e-05 0.0000000e+00 
5.2228321e-12 -9.0415506e-06 0.0000000e+00 
-1.6256727e-11 -6.4220735e-06 0.0000000e+00 
3.4390372e-12 -9.0666363e-06 0.0000000e+00 
1.5120378e-12 -2.5427498e-06 0.0000000e+00 
7.2657032e-12 -6.4875499e-06 0.0000000e+00 
7.1325021e-13 -2.5307040e-06 0.0000000e+00 
-1.3037410e-10 -1.2669705e-05 0.0000000e+00 
2.1430171e-12 -1.1965038e-06 0.0000000e+00 
-3.0036570e-11 -1.2605284e-05 0.0000000e+00 
-1.0108766e-12 -1.2239257e-06 0.0000000e+00 
1.8434204e-11 -3.8934941e-06 0.0000000e+00 
4.2952647e-12 -2.5368513e-06 0.0000000e+00 
3.4493911e-11 -7.7882360e-06 0.0000000e+00 
-4.8131565e-11 -1.1957442e-05 0.0000000e+00 
5.5185845e-11 -8.9738514e-06 0.0000000e+00 
-1.5623955e-11 -8.9341656e-06 0.0000000e+00 
9.6176470e-11 -1.1462250e-05 0.0000000e+00 
-3.0927351e-11 -6.6803209e-06 0.0000000e+00 
-8.7566968e-12 -1.2665743e-05 0.0000000e+00 
-5.1296991e-11 -1.2665592e-05 0.0000000e+00 
-1.2703847e-12 -1.2665801e-05 0.0000000e+00 
1.2344072e-12 -1.1358049e-05 0.0000000e+00 
-2.2196682e-12 -1.2668102e-05 0.0000000e+00 
-2.9461542e-12 -3.7206214e-06 0.0000000e+00 
7.1992100e-12 -1.0891964e-06 0.0000000e+00 
-3.4819812e-12 -1.0891911e-06 0.0000000e+00 
3.2942554e-10 -1.3897418e-05 0.0000000e+00 
-1.2826237e-10 -1.3897399e-05 0.0000000e+00 
2.5301815e-13 -1.1290008e-05 0.0000000e+00 
1.1103544e-10 -1.2720172e-05 0.0000000e+00 
2.4032354e-11 -5.2104128e-06 0.0000000e+00 
-2.4594579e-13 -3.4242880e-06 0.0000000e+00 
VELOCITY 3 144  float
0.0000000e+00 0.0000000e+00 0.0000000e+00 
0.0000000e+00 0.0000000e+00 0.0000000e+00 
0.0000000e+00 -1.3873090e-04 0.0000000e+00 
0.0000000e+00 -1.3881229e-04 0.0000000e+00 
0.0000000e+00 0.0000000e+00 0.0000000e+00 
0.0000000e+00 0.0000000e+00 0.0000000e+00 
0.0000000e+00 0.0000000e+00 0.0000000e+00 
0.0000000e+00 0.0000000e+00 0.0000000e+00 
0.0000000e+00 0.0000000e+00 0.0000000e+00 
0.0000000e+00 0.0000000e+00 0.0000000e+00 
0.0000000e+00 0.0000000e+00 0.0000000e+00 
0.0000000e+00 0.0000000e+00 0.0000000e+00 
0.0000000e+00 0.0000000e+00 0.0000000e+00 
0.0000000e+00 -1.7327608e-06 0.0000000e+00 
0.0000000e+00 -3.7910152e-06 0.0000000e+00 
0.0000000e+00 -6.5486661e-06 0.0000000e+00 
0.0000000e+00 -1.0495063e-05 0.0000000e+00 
0.0000000e+00 -1.6402211e-05 0.0000000e+00 
0.0000000e+00 -2.5261550e-05 0.0000000e+00 
0.0000000e+00 -3.8843878e-05 0.0000000e+00 
0.0000000e+00 -5.9495804e-05 0.0000000e+00 
0.0000000e+00 -9.1284921e-05 0.0000000e+00 
-3.6782930e-07 -1.3987337e-04 0.0000000e+00 
-1.9301527e-09 -1.3934643e-04 0.0000000e+00 
-1.9432223e-07 -1.3944776e-04 0.0000000e+00 
-1.1564368e-07 -1.3932947e-04 0.0000000e+00 
-9.5220063e-09 -1.3939192e-04 0.0000000e+00 
1.7556127e-08 -1.3941394e-04 0.0000000e+00 
2.6761434e-08 -1.3935535e-04 0.0000000e+00 
2.2296402e-07 -1.3915222e-04 0.0000000e+00 
2.7084073e-07 -1.3999932e-04 0.0000000e+00 
0.0000000e+00 -9.1256748e-05 0.0000000e+00 
0.0000000e+00 -5.9767190e-05 0.0000000e+00 
0.0000000e+00 -3.8990504e-05 0.0000000e+00 
0.0000000e+00 -2.5265677e-05 0.0000000e+00 
0.0000000e+00 -1.6454158e-05 0.0000000e+00 
0.0000000e+00 -1.0547900e-05 0.0000000e+00 
0.0000000e+00 -6.5750178e-06 0.0000000e+00 
0.0000000e+00 -3.8094643e-06 0.0000000e+00 
0.0000000e+00 -1.7360614e-06 0.0000000e+00 
6.5551098e-10 -1.4627791e-06 0.0000000e+00 
-1.8155671e-08 -1.9074008e-05 0.0000000e+00 
5.8005000e-08 -2.0391495e-05 0.0000000e+00 
-7.1873849e-08 -9.6373784e-05 0.0000000e+00 
8.9767171e-09 -8.3256027e-06 0.0000000e+00 
-7.2999121e-08 -9.7774420e-05 0.0000000e+00 
2.3603453e-09 -8.2563183e-06 0.0000000e+00 
7.8374096e-10 -1.4811953e-06 0.0000000e+00 
4.0251184e-08 -4.7575235e-05 0.0000000e+00 
8.8872820e-09 -4.8447979e-05 0.0000000e+00 
1.2621996e-09 -1.4620693e-06 0.0000000e+00 
-1.6817033e-07 -9.9191886e-05 0.0000000e+00 
-2.6346778e-10 -2.8840266e-06 0.0000000e+00 
6.8853005e-08 -9.6866737e-05 0.0000000e+00 
2.5884910e-09 -2.9523544e-06 0.0000000e+00 
-1.8977679e-09 -1.4779470e-06 0.0000000e+00 
1.7150762e-09 -3.1488755e-06 0.0000000e+00 
3.1409129e-09 -3.1686409e-06 0.0000000e+00 
1.3038274e-08 -5.2703681e-06 0.0000000e+00 
1.1059271e-08 -5.2478981e-06 0.0000000e+00 
7.3376381e-09 -8.1090902e-06 0.0000000e+00 
3.0806777e-09 -8.1497337e-06 0.0000000e+00 
-1.0715715e-09 -1.2101427e-05 0.0000000e+00 
-9.7243085e-09 -1.2123492e-05 0.0000000e+00 
-5.5367031e-09 -1.7781093e-05 0.0000000e+00 
8.9736396e-10 -1.7901819e-05 0.0000000e+00 
-2.7058157e-08 -1.7782395e-05 0.0000000e+00 
-1.5284757e-08 -2.5905727e-05 0.0000000e+00 
-4.7998427e-10 -7.9929277e-06 0.0000000e+00 
-2.9954084e-08 -2.5892870e-05 0.0000000e+00 
-4.7674799e-08 -1.7782337e-05 0.0000000e+00 
-2.9559692e-09 -3.7346115e-05 0.0000000e+00 
1.2148340e-08 -3.7547266e-05 0.0000000e+00 
1.3069693e-08 -8.2003489e-06 0.0000000e+00 
3.5235082e-08 -3.6760168e-05 0.0000000e+00 
1.1859770e-07 -5.3748696e-05 0.0000000e+00 
7.2709881e-08 -5.4420074e-05 0.0000000e+00 
3.0720948e-08 -3.7554350e-05 0.0000000e+00 
4.4720291e-08 -5.4367873e-05 0.0000000e+00 
4.2441190e-08 -3.7561938e-05 0.0000000e+00 
2.8810497e-08 -5.4062344e-05 0.0000000e+00 
7.3853439e-09 -3.8053557e-05 0.0000000e+00 
3.0840816e-08 -2.5550133e-05 0.0000000e+00 
4.4321320e-09 -3.0080867e-06 0.0000000e+00 
-7.7351558e-08 -9.2754104e-05 0.0000000e+00 
-3.1374618e-08 -9.6662923e-05 0.0000000e+00 
-5.4203298e-08 -6.9476562e-05 0.0000000e+00 
-1.2855272e-08 -7.0732320e-05 0.0000000e+00 
3.0892963e-10 -1.4752578e-06 0.0000000e+00 
-3.2089524e-08 -2.5649304e-05 0.0000000e+00 
7.6606142e-08 -3.5091020e-05 0.0000000e+00 
-6.1646112e-08 -1.7803581e-05 0.0000000e+00 
-1.7689269e-08 -1.2033734e-05 0.0000000e+00 
-1.5308602e-08 -1.2316437e-05 0.0000000e+00 
-2.3504563e-09 -8.0835289e-06 0.0000000e+00 
2.2380786e-09 -5.2454834e-06 0.0000000e+00 
-8.8643565e-10 -5.1479069e-06 0.0000000e+00 
-2.6573488e-09 -7.9722868e-06 0.0000000e+00 
6.0571281e-10 -5.0801314e-06 0.0000000e+00 
3.6377699e-09 -5.1396310e-06 0.0000000e+00 
5.5081077e-09 -3.1190732e-06 0.0000000e+00 
-2.0059687e-08 -1.3131991e-05 0.0000000e+00 
2.4795764e-08 -1.7187091e-05 0.0000000e+00 
-6.5988296e-08 -9.6284821e-05 0.0000000e+00 
3.7693155e-08 -3.2221287e-05 0.0000000e+00 
1.2302066e-09 -1.4585826e-06 0.0000000e+00 
-4.8974655e-08 -3.1331732e-05 0.0000000e+00 
8.7163459e-09 -1.0593809e-05 0.0000000e+00 
2.4852305e-08 -6.7543706e-06 0.0000000e+00 
1.6189189e-08 -1.2222466e-05 0.0000000e+00 
-2.5835831e-09 -5.2644741e-06 0.0000000e+00 
-7.8252839e-08 -9.7162614e-05 0.0000000e+00 
4.1782657e-09 -2.5919206e-05 0.0000000e+00 
-1.3005382e-08 -1.2028588e-05 0.0000000e+00 
2.7512299e-09 -2.6113659e-05 0.0000000e+00 
1.2096302e-09 -3.1193554e-06 0.0000000e+00 
5.8125624e-09 -1.2253701e-05 0.0000000e+00 
5.7060012e-10 -3.1027914e-06 0.0000000e+00 
-1.0429928e-07 -7.2473529e-05 0.0000000e+00 
1.7144137e-09 -1.3797207e-06 0.0000000e+00 
-2.4029257e-08 -7.1089278e-05 0.0000000e+00 
-8.0870133e-10 -1.4034518e-06 0.0000000e+00 
1.4747362e-08 -5.3390218e-06 0.0000000e+00 
3.4362118e-09 -3.1127493e-06 0.0000000e+00 
2.7595130e-08 -1.8007333e-05 0.0000000e+00 
-3.8505252e-08 -5.9351521e-05 0.0000000e+00 
4.4148678e-08 -2.5514924e-05 0.0000000e+00 
-1.2499164e-08 -2.5117764e-05 0.0000000e+00 
7.6941177e-08 -5.1651310e-05 0.0000000e+00 
-2.4741881e-08 -1.3089948e-05 0.0000000e+00 
-7.0053576e-09 -7.2405550e-05 0.0000000e+00 
-4.1037591e-08 -7.2284274e-05 0.0000000e+00 
-1.0163078e-09 -7.2451046e-05 0.0000000e+00 
9.8752573e-10 -5.0082857e-05 0.0000000e+00 
-1.7757347e-09 -7.2505434e-05 0.0000000e+00 
-2.3569233e-09 -5.0685253e-06 0.0000000e+00 
5.7593676e-09 -1.2624554e-06 0.0000000e+00 
-2.7855851e-09 -1.2582005e-06 0.0000000e+00 
2.6354041e-07 -1.0231505e-04 0.0000000e+00 
-1.0260990e-07 -1.0230004e-04 0.0000000e+00 
2.0241452e-10 -4.8949372e-05 0.0000000e+00 
8.8828358e-08 -7.3521776e-05 0.0000000e+00 
1.9225883e-08 -8.3302129e-06 0.0000000e+00 
-1.9675662e-10 -4.5395432e-06 0.0000000e+00 
CELL_DATA 246
FIELD FieldData 0
