# vtk DataFile Version 4.0
vtk output
ASCII
DATASET UNSTRUCTURED_GRID
POINTS 144 float
0.0000000e+00 0.0000000e+00 0.0000000e+00 
1.0000000e+00 0.0000000e+00 0.0000000e+00 
1.0000000e+00 1.0000000e+00 0.0000000e+00 
0.0000000e+00 1.0000000e+00 0.0000000e+00 
1.0000000e-01 0.0000000e+00 0.0000000e+00 
2.0000000e-01 0.0000000e+00 0.0000000e+00 
3.0000001e-01 0.0000000e+00 0.0000000e+00 
4.0000001e-01 0.0000000e+00 0.0000000e+00 
5.0000000e-01 0.0000000e+00 0.0000000e+00 
6.0000002e-01 0.0000000e+00 0.0000000e+00 
6.9999999e-01 0.0000000e+00 0.0000000e+00 
8.0000001e-01 0.0000000e+00 0.0000000e+00 
8.9999998e-01 0.0000000e+00 0.0000000e+00 
1.0000000e+00 1.0000000e-01 0.0000000e+00 
1.0000000e+00 2.0000000e-01 0.0000000e+00 
1.0000000e+00 3.0000001e-01 0.0000000e+00 
1.0000000e+00 4.0000001e-01 0.0000000e+00 
1.0000000e+00 5.0000000e-01 0.0000000e+00 
1.0000000e+00 6.0000002e-01 0.0000000e+00 
1.0000000e+00 6.9999999e-01 0.0000000e+00 
1.0000000e+00 8.0000001e-01 0.0000000e+00 
1.0000000e+00 8.9999998e-01 0.0000000e+00 
8.9999998e-01 1.0000000e+00 0.0000000e+00 
8.0000001e-01 1.0000000e+00 0.0000000e+00 
6.9999999e-01 1.0000000e+00 0.0000000e+00 
6.0000002e-01 1.0000000e+00 0.0000000e+00 
5.0000000e-01 1.0000000e+00 0.0000000e+00 
4.0000001e-01 1.0000000e+00 0.0000000e+00 
3.0000001e-01 1.0000000e+00 0.0000000e+00 
2.0000000e-01 1.0000000e+00 0.0000000e+00 
1.0000000e-01 1.0000000e+00 0.0000000e+00 
0.0000000e+00 8.9999998e-01 0.0000000e+00 
0.0000000e+00 8.0000001e-01 0.0000000e+00 
0.0000000e+00 6.9999999e-01 0.0000000e+00 
0.0000000e+00 6.0000002e-01 0.0000000e+00 
0.0000000e+00 5.0000000e-01 0.0000000e+00 
0.0000000e+00 4.0000001e-01 0.0000000e+00 
0.0000000e+00 3.0000001e-01 0.0000000e+00 
0.0000000e+00 2.0000000e-01 0.0000000e+00 
0.0000000e+00 1.0000000e-01 0.0000000e+00 
4.5033512e-01 8.5524812e-02 0.0000000e+00 
9.5000088e-02 5.3608972e-01 0.0000000e+00 
9.1547006e-01 5.5000001e-01 0.0000000e+00 
5.5000001e-01 9.1339743e-01 0.0000000e+00 
9.1339743e-01 3.4999999e-01 0.0000000e+00 
3.4999999e-01 9.1669172e-01 0.0000000e+00 
8.8579953e-02 3.4872410e-01 0.0000000e+00 
6.4999998e-01 8.6602539e-02 0.0000000e+00 
9.1127491e-01 7.4795848e-01 0.0000000e+00 
6.6607341e-02 7.5098073e-01 0.0000000e+00 
2.4514475e-01 8.5484609e-02 0.0000000e+00 
7.4680746e-01 9.1993588e-01 0.0000000e+00 
9.0420872e-01 1.5861149e-01 0.0000000e+00 
1.5042374e-01 9.1532278e-01 0.0000000e+00 
8.7588154e-02 1.6267365e-01 0.0000000e+00 
7.4918270e-01 8.6130671e-02 0.0000000e+00 
6.9882751e-01 1.7252813e-01 0.0000000e+00 
6.0000002e-01 1.7320508e-01 0.0000000e+00 
6.4876831e-01 2.5909650e-01 0.0000000e+00 
5.4933882e-01 2.5818285e-01 0.0000000e+00 
5.9902751e-01 3.4564152e-01 0.0000000e+00 
5.0000000e-01 3.4641016e-01 0.0000000e+00 
5.4918092e-01 4.3250528e-01 0.0000000e+00 
4.4986349e-01 4.3292814e-01 0.0000000e+00 
4.9984074e-01 5.1951659e-01 0.0000000e+00 
5.9917998e-01 5.2102238e-01 0.0000000e+00 
3.9995071e-01 5.1958472e-01 0.0000000e+00 
4.4996524e-01 6.0619622e-01 0.0000000e+00 
3.9827734e-01 3.4236532e-01 0.0000000e+00 
3.4998599e-01 6.0620910e-01 0.0000000e+00 
2.9998946e-01 5.1960868e-01 0.0000000e+00 
4.0246150e-01 6.9138944e-01 0.0000000e+00 
5.0040448e-01 6.9257826e-01 0.0000000e+00 
6.9183892e-01 3.4861544e-01 0.0000000e+00 
3.0287755e-01 6.8788534e-01 0.0000000e+00 
4.5107409e-01 7.7642798e-01 0.0000000e+00 
5.5000001e-01 7.7942288e-01 0.0000000e+00 
6.0006744e-01 6.9277996e-01 0.0000000e+00 
6.4999998e-01 7.7942288e-01 0.0000000e+00 
7.0001125e-01 6.9281358e-01 0.0000000e+00 
7.4810976e-01 7.7827942e-01 0.0000000e+00 
8.1429243e-01 6.9644338e-01 0.0000000e+00 
7.5505483e-01 6.0440248e-01 0.0000000e+00 
7.9754496e-01 1.6455974e-01 0.0000000e+00 
8.4409988e-01 9.0543878e-01 0.0000000e+00 
2.5007063e-01 9.1426742e-01 0.0000000e+00 
1.9948809e-01 8.3684945e-01 0.0000000e+00 
3.0239609e-01 8.4084076e-01 0.0000000e+00 
5.5039096e-01 8.6229436e-02 0.0000000e+00 
2.5227043e-01 6.0435647e-01 0.0000000e+00 
2.0253047e-01 6.7697614e-01 0.0000000e+00 
2.0000000e-01 5.1961523e-01 0.0000000e+00 
2.4994016e-01 4.3122852e-01 0.0000000e+00 
1.5013675e-01 4.3705931e-01 0.0000000e+00 
1.9500943e-01 3.4477931e-01 0.0000000e+00 
1.4187421e-01 2.5843257e-01 0.0000000e+00 
2.4087626e-01 2.5457630e-01 0.0000000e+00 
2.9581064e-01 3.4174213e-01 0.0000000e+00 
3.4302756e-01 2.5211102e-01 0.0000000e+00 
4.4705081e-01 2.5426328e-01 0.0000000e+00 
1.8726690e-01 1.7076795e-01 0.0000000e+00 
9.1374290e-01 4.4999999e-01 0.0000000e+00 
8.1292653e-01 5.1219177e-01 0.0000000e+00 
6.4999998e-01 9.1339743e-01 0.0000000e+00 
9.4903819e-02 6.5753615e-01 0.0000000e+00 
3.4647793e-01 8.5224926e-02 0.0000000e+00 
9.1339743e-01 6.4999998e-01 0.0000000e+00 
8.3004320e-01 4.0203196e-01 0.0000000e+00 
8.3633298e-01 3.0639145e-01 0.0000000e+00 
7.4173015e-01 4.3506145e-01 0.0000000e+00 
9.1635197e-01 2.5751698e-01 0.0000000e+00 
4.4999999e-01 9.1524893e-01 0.0000000e+00 
5.4990965e-01 6.0638523e-01 0.0000000e+00 
3.4897196e-01 4.3124291e-01 0.0000000e+00 
6.5070385e-01 6.0805732e-01 0.0000000e+00 
4.9951929e-01 1.7088418e-01 0.0000000e+00 
6.4682627e-01 4.3563104e-01 0.0000000e+00 
3.9496639e-01 1.7007479e-01 0.0000000e+00 
9.2003214e-01 8.4667110e-01 0.0000000e+00 
8.4628856e-01 8.0417827e-02 0.0000000e+00 
9.0504780e-02 8.4245151e-01 0.0000000e+00 
1.5290669e-01 8.2261533e-02 0.0000000e+00 
7.5581288e-01 2.6161289e-01 0.0000000e+00 
2.9022500e-01 1.7048772e-01 0.0000000e+00 
7.0076448e-01 5.2269316e-01 0.0000000e+00 
8.3802330e-01 7.9983431e-01 0.0000000e+00 
8.4137177e-01 6.0186249e-01 0.0000000e+00 
1.6660626e-01 5.9922481e-01 0.0000000e+00 
3.5146821e-01 7.6715195e-01 0.0000000e+00 
6.7398138e-02 4.4853568e-01 0.0000000e+00 
6.0000002e-01 8.4641016e-01 0.0000000e+00 
6.9999999e-01 8.4641016e-01 0.0000000e+00 
5.0000000e-01 8.4641016e-01 0.0000000e+00 
2.5092945e-01 7.6027036e-01 0.0000000e+00 
4.0000001e-01 8.4656054e-01 0.0000000e+00 
6.1870042e-02 2.5000000e-01 0.0000000e+00 
9.2679495e-01 7.3205084e-02 0.0000000e+00 
7.3205084e-02 7.3205084e-02 0.0000000e+00 
9.2679495e-01 9.2679495e-01 0.0000000e+00 
7.3205084e-02 9.2679495e-01 0.0000000e+00 
1.5420890e-01 7.5578600e-01 0.0000000e+00 
7.7540809e-01 8.4997970e-01 0.0000000e+00 
7.7320510e-01 3.4999999e-01 0.0000000e+00 
8.4417260e-01 2.3009899e-01 0.0000000e+00 

CELLS 246 984
3 82 124 102
3 41 93 91
3 81 106 48
3 90 140 104
3 104 140 49
3 41 129 93
3 102 126 82
3 48 125 81
3 102 124 109
3 54 100 95
3 98 99 68
3 117 123 105
3 95 135 54
3 97 98 68
3 120 140 86
3 46 95 94
3 81 126 106
3 104 127 90
3 97 113 92
3 46 94 93
3 53 120 86
3 116 124 65
3 83 119 52
3 61 99 59
3 68 99 61
3 98 123 117
3 68 113 97
3 94 97 92
3 109 116 73
3 81 125 80
3 128 133 74
3 91 127 41
3 52 143 83
3 109 124 116
3 84 125 118
3 95 96 94
3 99 115 59
3 49 140 120
3 105 123 50
3 96 97 94
3 95 100 96
3 100 121 50
3 87 133 128
3 96 98 97
3 50 123 100
3 28 85 45
3 29 85 28
3 67 71 69
3 71 74 69
3 85 87 45
3 47 88 9
3 41 104 34
3 58 59 57
3 58 60 59
3 7 105 6
3 10 47 9
3 10 55 47
3 35 41 34
3 56 58 57
3 14 110 52
3 16 44 15
3 16 101 44
3 42 101 17
3 19 106 18
3 20 48 19
3 48 106 19
3 23 84 22
3 24 51 23
3 24 103 51
3 26 43 25
3 43 103 25
3 26 111 43
3 53 85 29
3 42 102 101
3 101 107 44
3 108 110 44
3 55 56 47
3 64 112 67
3 65 114 112
3 67 72 71
3 69 89 70
3 74 89 69
3 89 91 70
3 72 76 75
3 72 112 77
3 77 78 76
3 112 114 77
3 8 88 40
3 11 55 10
3 33 49 32
3 6 50 5
3 8 40 7
3 14 52 13
3 37 46 36
3 55 83 56
3 62 63 61
3 64 66 63
3 91 92 70
3 86 87 85
3 39 54 38
3 6 105 50
3 40 105 7
3 15 110 14
3 44 110 15
3 17 101 16
3 27 111 26
3 28 45 27
3 30 53 29
3 33 104 49
3 107 108 44
3 57 88 47
3 64 67 66
3 70 113 66
3 67 112 72
3 72 75 71
3 74 90 89
3 77 114 79
3 93 94 92
3 102 107 101
3 102 109 107
3 9 88 8
3 58 73 60
3 60 61 59
3 63 68 61
3 62 65 64
3 66 113 63
3 77 79 78
3 91 93 92
3 62 64 63
3 63 113 68
3 92 113 70
3 34 104 33
3 56 57 47
3 53 86 85
3 18 42 17
3 51 84 23
3 25 103 24
3 45 111 27
3 60 62 61
3 65 112 64
3 67 69 66
3 79 81 80
3 79 82 81
3 18 106 42
3 69 70 66
3 79 80 78
3 79 114 82
3 72 77 76
3 73 142 109
3 84 141 125
3 88 115 40
3 59 115 57
3 115 117 40
3 98 117 99
3 62 116 65
3 73 116 60
3 57 115 88
3 99 117 115
3 32 120 31
3 55 119 83
3 12 119 11
3 21 118 20
3 58 122 73
3 83 122 56
3 93 129 46
3 5 121 4
3 60 116 62
3 50 121 5
3 65 124 114
3 100 123 96
3 42 126 102
3 82 126 81
3 90 127 89
3 40 117 105
3 46 135 95
3 11 119 55
3 49 120 32
3 20 118 48
3 54 121 100
3 71 128 74
3 35 129 41
3 46 129 36
3 87 134 45
3 56 122 58
3 54 135 38
3 37 135 46
3 1 136 12
3 13 136 1
3 4 137 0
3 0 137 39
3 2 138 21
3 22 138 2
3 3 139 30
3 31 139 3
3 110 143 52
3 109 142 107
3 96 123 98
3 83 143 122
3 114 124 82
3 89 127 91
3 106 126 42
3 41 127 104
3 122 142 73
3 122 143 108
3 118 125 48
3 51 141 84
3 128 134 87
3 75 128 71
3 36 129 35
3 132 134 75
3 43 130 103
3 78 130 76
3 111 132 43
3 86 133 87
3 76 132 75
3 103 131 51
3 78 131 130
3 130 131 103
3 74 133 90
3 80 131 78
3 130 132 76
3 43 132 130
3 111 134 132
3 45 134 111
3 108 142 122
3 12 136 119
3 120 139 31
3 21 138 118
3 38 135 37
3 52 136 13
3 30 139 53
3 39 137 54
3 84 138 22
3 121 137 4
3 107 142 108
3 108 143 110
3 118 138 84
3 53 139 120
3 119 136 52
3 54 137 121
3 75 134 128
3 86 140 133
3 133 140 90
3 125 141 80
3 80 141 131
3 131 141 51

CELL_TYPES 246
5
5
5
5
5
5
5
5
5
5
5
5
5
5
5
5
5
5
5
5
5
5
5
5
5
5
5
5
5
5
5
5
5
5
5
5
5
5
5
5
5
5
5
5
5
5
5
5
5
5
5
5
5
5
5
5
5
5
5
5
5
5
5
5
5
5
5
5
5
5
5
5
5
5
5
5
5
5
5
5
5
5
5
5
5
5
5
5
5
5
5
5
5
5
5
5
5
5
5
5
5
5
5
5
5
5
5
5
5
5
5
5
5
5
5
5
5
5
5
5
5
5
5
5
5
5
5
5
5
5
5
5
5
5
5
5
5
5
5
5
5
5
5
5
5
5
5
5
5
5
5
5
5
5
5
5
5
5
5
5
5
5
5
5
5
5
5
5
5
5
5
5
5
5
5
5
5
5
5
5
5
5
5
5
5
5
5
5
5
5
5
5
5
5
5
5
5
5
5
5
5
5
5
5
5
5
5
5
5
5
5
5
5
5
5
5
5
5
5
5
5
5
5
5
5
5
5
5
5
5
5
5
5
5
5
5
5
5
5
5
5
5
5
5
5
5
POINT_DATA 144
FIELD FieldData 2
DISPLACEMENT 3 144  float
0.0000000e+00 0.0000000e+00 0.0000000e+00 
0.0000000e+00 0.0000000e+00 0.0000000e+00 
0.0000000e+00 -1.5377269e-05 0.0000000e+00 
0.0000000e+00 -1.5486021e-05 0.0000000e+00 
0.0000000e+00 0.0000000e+00 0.0000000e+00 
0.0000000e+00 0.0000000e+00 0.0000000e+00 
0.0000000e+00 0.0000000e+00 0.0000000e+00 
0.0000000e+00 0.0000000e+00 0.0000000e+00 
0.0000000e+00 0.0000000e+00 0.0000000e+00 
0.0000000e+00 0.0000000e+00 0.0000000e+00 
0.0000000e+00 0.0000000e+00 0.0000000e+00 
0.0000000e+00 0.0000000e+00 0.0000000e+00 
0.0000000e+00 0.0000000e+00 0.0000000e+00 
0.0000000e+00 -1.5337674e-06 0.0000000e+00 
0.0000000e+00 -3.0657229e-06 0.0000000e+00 
0.0000000e+00 -4.5965235e-06 0.0000000e+00 
0.0000000e+00 -6.1274336e-06 0.0000000e+00 
0.0000000e+00 -7.6593060e-06 0.0000000e+00 
0.0000000e+00 -9.1935690e-06 0.0000000e+00 
0.0000000e+00 -1.0731022e-05 0.0000000e+00 
0.0000000e+00 -1.2273148e-05 0.0000000e+00 
0.0000000e+00 -1.3822251e-05 0.0000000e+00 
2.5145358e-08 -1.5356314e-05 0.0000000e+00 
4.3509939e-08 -1.5339454e-05 0.0000000e+00 
5.4435500e-08 -1.5334452e-05 0.0000000e+00 
6.1229684e-08 -1.5336936e-05 0.0000000e+00 
6.2964382e-08 -1.5342301e-05 0.0000000e+00 
5.7406066e-08 -1.5350593e-05 0.0000000e+00 
4.2216918e-08 -1.5365664e-05 0.0000000e+00 
1.7787331e-08 -1.5396236e-05 0.0000000e+00 
-6.2274093e-09 -1.5444381e-05 0.0000000e+00 
0.0000000e+00 -1.3901135e-05 0.0000000e+00 
0.0000000e+00 -1.2301561e-05 0.0000000e+00 
0.0000000e+00 -1.0709879e-05 0.0000000e+00 
0.0000000e+00 -9.1378261e-06 0.0000000e+00 
0.0000000e+00 -7.5862863e-06 0.0000000e+00 
0.0000000e+00 -6.0489137e-06 0.0000000e+00 
0.0000000e+00 -4.5251672e-06 0.0000000e+00 
0.0000000e+00 -3.0108554e-06 0.0000000e+00 
0.0000000e+00 -1.5032907e-06 0.0000000e+00 
6.7854198e-09 -1.2974782e-06 0.0000000e+00 
3.7644153e-08 -8.1432681e-06 0.0000000e+00 
2.3183421e-08 -8.4157191e-06 0.0000000e+00 
8.1021540e-08 -1.3987269e-05 0.0000000e+00 
1.3657880e-08 -5.3552085e-06 0.0000000e+00 
7.5137699e-08 -1.4051745e-05 0.0000000e+00 
1.8619270e-08 -5.2680962e-06 0.0000000e+00 
6.3649774e-09 -1.3182288e-06 0.0000000e+00 
3.0588332e-08 -1.1454965e-05 0.0000000e+00 
3.6841218e-08 -1.1511133e-05 0.0000000e+00 
4.1007366e-09 -1.2908483e-06 0.0000000e+00 
6.0174926e-08 -1.4088190e-05 0.0000000e+00 
4.2488826e-09 -2.4279520e-06 0.0000000e+00 
4.0558870e-08 -1.4084872e-05 0.0000000e+00 
5.1913189e-09 -2.4487829e-06 0.0000000e+00 
4.5175153e-09 -1.3135796e-06 0.0000000e+00 
1.5126606e-08 -2.6281655e-06 0.0000000e+00 
1.7927064e-08 -2.6344530e-06 0.0000000e+00 
2.9507062e-08 -3.9440624e-06 0.0000000e+00 
3.2376761e-08 -3.9255101e-06 0.0000000e+00 
4.6344844e-08 -5.2600381e-06 0.0000000e+00 
4.9098464e-08 -5.2669716e-06 0.0000000e+00 
6.4299456e-08 -6.5826730e-06 0.0000000e+00 
6.5946921e-08 -6.5845647e-06 0.0000000e+00 
8.1805752e-08 -7.9107103e-06 0.0000000e+00 
7.6911064e-08 -7.9369756e-06 0.0000000e+00 
8.1730114e-08 -7.9079518e-06 0.0000000e+00 
9.6846449e-08 -9.2382143e-06 0.0000000e+00 
4.7226187e-08 -5.1993170e-06 0.0000000e+00 
9.4488307e-08 -9.2364489e-06 0.0000000e+00 
7.5675239e-08 -7.9026813e-06 0.0000000e+00 
1.0593104e-07 -1.0549116e-05 0.0000000e+00 
1.0510703e-07 -1.0566616e-05 0.0000000e+00 
4.0904624e-08 -5.3108988e-06 0.0000000e+00 
1.0023363e-07 -1.0496666e-05 0.0000000e+00 
1.0697067e-07 -1.1861920e-05 0.0000000e+00 
1.0362956e-07 -1.1905934e-05 0.0000000e+00 
9.8461129e-08 -1.0569750e-05 0.0000000e+00 
9.4183321e-08 -1.1905536e-05 0.0000000e+00 
8.5105455e-08 -1.0573401e-05 0.0000000e+00 
7.7481573e-08 -1.1892648e-05 0.0000000e+00 
6.0193507e-08 -1.0641442e-05 0.0000000e+00 
6.6938163e-08 -9.2227056e-06 0.0000000e+00 
9.8794448e-09 -2.5117999e-06 0.0000000e+00 
4.2164519e-08 -1.3874284e-05 0.0000000e+00 
6.2735076e-08 -1.4031531e-05 0.0000000e+00 
7.6157448e-08 -1.2830492e-05 0.0000000e+00 
9.1362352e-08 -1.2872772e-05 0.0000000e+00 
7.1195805e-09 -1.3104043e-06 0.0000000e+00 
8.4747256e-08 -9.2052414e-06 0.0000000e+00 
8.3932839e-08 -1.0331521e-05 0.0000000e+00 
6.1663393e-08 -7.8952226e-06 0.0000000e+00 
5.4133714e-08 -6.5432787e-06 0.0000000e+00 
3.9995584e-08 -6.6225998e-06 0.0000000e+00 
3.3556727e-08 -5.2176165e-06 0.0000000e+00 
1.6942961e-08 -3.9002389e-06 0.0000000e+00 
2.4020622e-08 -3.8505818e-06 0.0000000e+00 
4.2120909e-08 -5.1814509e-06 0.0000000e+00 
2.8779581e-08 -3.8214880e-06 0.0000000e+00 
3.1824225e-08 -3.8608664e-06 0.0000000e+00 
1.0692086e-08 -2.5768277e-06 0.0000000e+00 
1.8931500e-08 -6.8846498e-06 0.0000000e+00 
4.5344407e-08 -7.8196254e-06 0.0000000e+00 
7.4105394e-08 -1.3984647e-05 0.0000000e+00 
4.8131998e-08 -1.0034715e-05 0.0000000e+00 
5.6453042e-09 -1.2901703e-06 0.0000000e+00 
2.7967797e-08 -9.9491326e-06 0.0000000e+00 
3.1066584e-08 -6.1390965e-06 0.0000000e+00 
2.0803801e-08 -4.6797395e-06 0.0000000e+00 
4.8319698e-08 -6.6335137e-06 0.0000000e+00 
8.5167002e-09 -3.9414176e-06 0.0000000e+00 
8.1388322e-08 -1.4020892e-05 0.0000000e+00 
9.3444051e-08 -9.2425635e-06 0.0000000e+00 
6.2516563e-08 -6.5523500e-06 0.0000000e+00 
8.4280593e-08 -9.2708287e-06 0.0000000e+00 
1.8344927e-08 -2.5954891e-06 0.0000000e+00 
5.8871816e-08 -6.6350244e-06 0.0000000e+00 
1.7075990e-08 -2.5786890e-06 0.0000000e+00 
2.5227338e-08 -1.2980886e-05 0.0000000e+00 
1.9234507e-09 -1.2294665e-06 0.0000000e+00 
4.2303125e-08 -1.2958371e-05 0.0000000e+00 
2.4000437e-09 -1.2390735e-06 0.0000000e+00 
2.3357456e-08 -3.9891706e-06 0.0000000e+00 
1.4462367e-08 -2.5791969e-06 0.0000000e+00 
6.6153767e-08 -7.9678903e-06 0.0000000e+00 
5.4006236e-08 -1.2237753e-05 0.0000000e+00 
4.6315677e-08 -9.1962938e-06 0.0000000e+00 
6.6737734e-08 -9.1235770e-06 0.0000000e+00 
1.0486465e-07 -1.1722280e-05 0.0000000e+00 
2.1120227e-08 -6.7939927e-06 0.0000000e+00 
9.2779999e-08 -1.2943056e-05 0.0000000e+00 
8.0948190e-08 -1.2943429e-05 0.0000000e+00 
9.7917848e-08 -1.2945839e-05 0.0000000e+00 
9.5219221e-08 -1.1623821e-05 0.0000000e+00 
9.7078043e-08 -1.2952921e-05 0.0000000e+00 
7.9535134e-09 -3.7681418e-06 0.0000000e+00 
4.8135451e-10 -1.1212805e-06 0.0000000e+00 
1.0639418e-09 -1.1010402e-06 0.0000000e+00 
1.7881872e-08 -1.4226433e-05 0.0000000e+00 
1.4873764e-08 -1.4306327e-05 0.0000000e+00 
7.4045396e-08 -1.1568899e-05 0.0000000e+00 
6.5919060e-08 -1.3004216e-05 0.0000000e+00 
3.3023511e-08 -5.3386912e-06 0.0000000e+00 
1.3117860e-08 -3.5157129e-06 0.0000000e+00 
VELOCITY 3 144  float
0.0000000e+00 0.0000000e+00 0.0000000e+00 
0.0000000e+00 0.0000000e+00 0.0000000e+00 
0.0000000e+00 -1.3675877e-04 0.0000000e+00 
0.0000000e+00 -9.4593532e-05 0.0000000e+00 
0.0000000e+00 0.0000000e+00 0.0000000e+00 
0.0000000e+00 0.0000000e+00 0.0000000e+00 
0.0000000e+00 0.0000000e+00 0.0000000e+00 
0.0000000e+00 0.0000000e+00 0.0000000e+00 
0.0000000e+00 0.0000000e+00 0.0000000e+00 
0.0000000e+00 0.0000000e+00 0.0000000e+00 
0.0000000e+00 0.0000000e+00 0.0000000e+00 
0.0000000e+00 0.0000000e+00 0.0000000e+00 
0.0000000e+00 0.0000000e+00 0.0000000e+00 
0.0000000e+00 -1.6389567e-05 0.0000000e+00 
0.0000000e+00 -3.3729633e-05 0.0000000e+00 
0.0000000e+00 -5.1029456e-05 0.0000000e+00 
0.0000000e+00 -6.7223227e-05 0.0000000e+00 
0.0000000e+00 -8.2636318e-05 0.0000000e+00 
0.0000000e+00 -9.7382836e-05 0.0000000e+00 
0.0000000e+00 -1.1128737e-04 0.0000000e+00 
0.0000000e+00 -1.2408326e-04 0.0000000e+00 
0.0000000e+00 -1.3581147e-04 0.0000000e+00 
-6.7762230e-05 -8.3772713e-05 0.0000000e+00 
-1.2358534e-04 -1.7213048e-05 0.0000000e+00 
-1.7094154e-04 3.6214074e-05 0.0000000e+00 
-2.0717147e-04 6.9809823e-05 0.0000000e+00 
-2.3088424e-04 8.7056374e-05 0.0000000e+00 
-2.4163764e-04 8.6835367e-05 0.0000000e+00 
-2.3778192e-04 6.5835797e-05 0.0000000e+00 
-2.1252490e-04 1.8572095e-05 0.0000000e+00 
-1.4582790e-04 -4.1925839e-05 0.0000000e+00 
0.0000000e+00 -1.6159684e-04 0.0000000e+00 
0.0000000e+00 -1.6478758e-04 0.0000000e+00 
0.0000000e+00 -1.4177522e-04 0.0000000e+00 
0.0000000e+00 -1.1237005e-04 0.0000000e+00 
0.0000000e+00 -8.3687126e-05 0.0000000e+00 
0.0000000e+00 -5.8830778e-05 0.0000000e+00 
0.0000000e+00 -3.9370752e-05 0.0000000e+00 
0.0000000e+00 -2.3544455e-05 0.0000000e+00 
0.0000000e+00 -1.0863972e-05 0.0000000e+00 
-1.7980168e-06 -8.0111067e-06 0.0000000e+00 
1.8695051e-06 -8.2629856e-05 0.0000000e+00 
-2.6753580e-05 -7.4241965e-05 0.0000000e+00 
-2.0073378e-04 4.9309714e-05 0.0000000e+00 
-1.5396252e-05 -5.0265706e-05 0.0000000e+00 
-1.9928672e-04 3.8637849e-05 0.0000000e+00 
4.0990963e-06 -4.5603836e-05 0.0000000e+00 
-5.7522898e-06 -6.9520624e-06 0.0000000e+00 
-4.9120987e-05 -9.2411661e-05 0.0000000e+00 
-1.7915921e-05 -1.3825890e-04 0.0000000e+00 
6.2457411e-07 -9.4554052e-06 0.0000000e+00 
-1.5389972e-04 -6.2385175e-06 0.0000000e+00 
-8.9118303e-06 -2.2023893e-05 0.0000000e+00 
-1.3069077e-04 -6.7167603e-05 0.0000000e+00 
1.7583134e-06 -1.8253291e-05 0.0000000e+00 
-7.1130826e-06 -7.7544964e-06 0.0000000e+00 
-1.2267478e-05 -1.3198553e-05 0.0000000e+00 
-9.5501646e-06 -1.2343141e-05 0.0000000e+00 
-1.6815127e-05 -1.6328237e-05 0.0000000e+00 
-1.2435667e-05 -1.6577129e-05 0.0000000e+00 
-2.1870615e-05 -1.7749438e-05 0.0000000e+00 
-1.5682306e-05 -2.0114143e-05 0.0000000e+00 
-2.8618275e-05 -1.7446922e-05 0.0000000e+00 
-2.0008460e-05 -2.3204801e-05 0.0000000e+00 
-3.8594728e-05 -1.5787415e-05 0.0000000e+00 
-4.6266934e-05 -1.3065532e-05 0.0000000e+00 
-2.6895832e-05 -2.6283211e-05 0.0000000e+00 
-5.3435593e-05 -1.2965085e-05 0.0000000e+00 
-7.7301711e-06 -2.5949272e-05 0.0000000e+00 
-3.7807902e-05 -2.9928344e-05 0.0000000e+00 
-1.3519414e-05 -4.2135915e-05 0.0000000e+00 
-7.5568532e-05 -8.8930256e-06 0.0000000e+00 
-8.8842629e-05 3.7859174e-06 0.0000000e+00 
-2.5578187e-05 -2.0654012e-05 0.0000000e+00 
-5.4373191e-05 -3.4536017e-05 0.0000000e+00 
-1.2330325e-04 1.5402122e-05 0.0000000e+00 
-1.3017743e-04 1.9682604e-05 0.0000000e+00 
-9.3107730e-05 3.3312610e-06 0.0000000e+00 
-1.2450184e-04 7.8708708e-06 0.0000000e+00 
-8.7897723e-05 -1.1281661e-05 0.0000000e+00 
-1.0791312e-04 -1.9711264e-05 0.0000000e+00 
-7.1088150e-05 -4.6874975e-05 0.0000000e+00 
-6.0828956e-05 -2.9030964e-05 0.0000000e+00 
-1.2388731e-05 -1.6100810e-05 0.0000000e+00 
-1.1188407e-04 -6.2558967e-05 0.0000000e+00 
-1.7313381e-04 -1.2327131e-06 0.0000000e+00 
-9.8098266e-05 -5.6826575e-05 0.0000000e+00 
-1.3500841e-04 -3.6980773e-06 0.0000000e+00 
-3.7377661e-06 -7.1878862e-06 0.0000000e+00 
-1.9943813e-05 -5.4065968e-05 0.0000000e+00 
-2.8804394e-05 -7.1302442e-05 0.0000000e+00 
-2.3707946e-06 -6.0308917e-05 0.0000000e+00 
-7.0193465e-07 -4.4376757e-05 0.0000000e+00 
4.1795124e-06 -5.6133613e-05 0.0000000e+00 
3.8718849e-06 -3.9620892e-05 0.0000000e+00 
3.8349149e-06 -3.0220337e-05 0.0000000e+00 
2.5001318e-06 -2.7470358e-05 0.0000000e+00 
-6.0538764e-07 -3.2957807e-05 0.0000000e+00 
-1.2817954e-06 -2.3677574e-05 0.0000000e+00 
-6.6851489e-06 -1.9610417e-05 0.0000000e+00 
2.2027155e-06 -1.9083323e-05 0.0000000e+00 
-2.0649120e-05 -6.2906489e-05 0.0000000e+00 
-4.0231873e-05 -4.2223841e-05 0.0000000e+00 
-1.8244074e-04 2.8926299e-05 0.0000000e+00 
-6.7211122e-06 -1.1090416e-04 0.0000000e+00 
-2.6263723e-07 -8.9133446e-06 0.0000000e+00 
-3.6195644e-05 -8.4526393e-05 0.0000000e+00 
-2.6944241e-05 -3.9880873e-05 0.0000000e+00 
-2.0071453e-05 -3.2741245e-05 0.0000000e+00 
-3.5043362e-05 -2.6868855e-05 0.0000000e+00 
-1.1419234e-05 -3.7736012e-05 0.0000000e+00 
-2.0699231e-04 5.3302334e-05 0.0000000e+00 
-6.3559688e-05 -5.7633929e-06 0.0000000e+00 
-9.6052036e-06 -3.3146483e-05 0.0000000e+00 
-6.6923225e-05 -9.9670551e-06 0.0000000e+00 
-5.7837187e-06 -1.3542034e-05 0.0000000e+00 
-3.4325087e-05 -1.8193366e-05 0.0000000e+00 
-2.0786622e-06 -1.5815833e-05 0.0000000e+00 
-5.9518730e-05 -1.0488142e-04 0.0000000e+00 
-6.6181383e-06 -9.1420670e-06 0.0000000e+00 
-5.3520460e-05 -1.3427730e-04 0.0000000e+00 
7.9107554e-07 -9.0325757e-06 0.0000000e+00 
-1.9045521e-05 -2.1048272e-05 0.0000000e+00 
7.5013440e-07 -1.7935448e-05 0.0000000e+00 
-4.8252579e-05 -2.0746804e-05 0.0000000e+00 
-8.7822198e-05 -5.9427864e-05 0.0000000e+00 
-4.7961192e-05 -5.4490258e-05 0.0000000e+00 
-6.9404282e-06 -7.7680059e-05 0.0000000e+00 
-1.0173456e-04 -6.2255854e-06 0.0000000e+00 
3.0664185e-06 -6.6234985e-05 0.0000000e+00 
-1.6124372e-04 2.7246391e-05 0.0000000e+00 
-1.4412499e-04 2.8796662e-06 0.0000000e+00 
-1.6644223e-04 3.4833996e-05 0.0000000e+00 
-7.1843970e-05 -4.4630458e-05 0.0000000e+00 
-1.5901856e-04 2.5566042e-05 0.0000000e+00 
2.2355580e-06 -3.0326008e-05 0.0000000e+00 
-3.7432210e-06 -1.0010772e-05 0.0000000e+00 
4.3971167e-07 -7.8948087e-06 0.0000000e+00 
-6.3439184e-05 -1.1304890e-04 0.0000000e+00 
-8.1399572e-05 -1.1951786e-04 0.0000000e+00 
-4.0837367e-05 -9.5418254e-05 0.0000000e+00 
-1.2440879e-04 -2.7855131e-05 0.0000000e+00 
-2.5453342e-05 -2.7847287e-05 0.0000000e+00 
-1.5112398e-05 -2.6091719e-05 0.0000000e+00 
CELL_DATA 246
FIELD FieldData 0
