# vtk DataFile Version 4.0
vtk output
ASCII
DATASET UNSTRUCTURED_GRID
POINTS 1664 float
0.0000000e+00 0.0000000e+00 0.0000000e+00 
0.0000000e+00 0.0000000e+00 5.0000000e+01 
5.0000000e+00 0.0000000e+00 0.0000000e+00 
5.0000000e+00 0.0000000e+00 5.0000000e+01 
5.0000000e+00 1.0000000e+00 0.0000000e+00 
5.0000000e+00 1.0000000e+00 5.0000000e+01 
0.0000000e+00 1.0000000e+00 0.0000000e+00 
0.0000000e+00 1.0000000e+00 5.0000000e+01 
5.0000000e+00 2.0000000e+00 0.0000000e+00 
5.0000000e+00 2.0000000e+00 5.0000000e+01 
3.0000000e+00 2.0000000e+00 0.0000000e+00 
3.0000000e+00 2.0000000e+00 5.0000000e+01 
0.0000000e+00 2.0000000e+00 0.0000000e+00 
0.0000000e+00 2.0000000e+00 5.0000000e+01 
1.5000000e+00 3.0000000e+00 0.0000000e+00 
1.5000000e+00 3.0000000e+00 5.0000000e+01 
7.5000000e-01 3.0000000e+00 0.0000000e+00 
7.5000000e-01 3.0000000e+00 5.0000000e+01 
0.0000000e+00 3.0000000e+00 0.0000000e+00 
0.0000000e+00 3.0000000e+00 5.0000000e+01 
0.0000000e+00 0.0000000e+00 1.0000000e+00 
0.0000000e+00 0.0000000e+00 2.0000000e+00 
0.0000000e+00 0.0000000e+00 3.0000000e+00 
0.0000000e+00 0.0000000e+00 4.0000000e+00 
0.0000000e+00 0.0000000e+00 5.0000000e+00 
0.0000000e+00 0.0000000e+00 6.0000000e+00 
0.0000000e+00 0.0000000e+00 7.0000000e+00 
0.0000000e+00 0.0000000e+00 8.0000000e+00 
0.0000000e+00 0.0000000e+00 9.0000000e+00 
0.0000000e+00 0.0000000e+00 1.0000000e+01 
0.0000000e+00 0.0000000e+00 1.1000000e+01 
0.0000000e+00 0.0000000e+00 1.2000000e+01 
0.0000000e+00 0.0000000e+00 1.3000000e+01 
0.0000000e+00 0.0000000e+00 1.4000000e+01 
0.0000000e+00 0.0000000e+00 1.5000000e+01 
0.0000000e+00 0.0000000e+00 1.6000000e+01 
0.0000000e+00 0.0000000e+00 1.7000000e+01 
0.0000000e+00 0.0000000e+00 1.8000000e+01 
0.0000000e+00 0.0000000e+00 1.9000000e+01 
0.0000000e+00 0.0000000e+00 2.0000000e+01 
0.0000000e+00 0.0000000e+00 2.1000000e+01 
0.0000000e+00 0.0000000e+00 2.2000000e+01 
0.0000000e+00 0.0000000e+00 2.3000000e+01 
0.0000000e+00 0.0000000e+00 2.4000000e+01 
0.0000000e+00 0.0000000e+00 2.5000000e+01 
0.0000000e+00 0.0000000e+00 2.6000000e+01 
0.0000000e+00 0.0000000e+00 2.7000000e+01 
0.0000000e+00 0.0000000e+00 2.8000000e+01 
0.0000000e+00 0.0000000e+00 2.9000000e+01 
0.0000000e+00 0.0000000e+00 3.0000000e+01 
0.0000000e+00 0.0000000e+00 3.1000000e+01 
0.0000000e+00 0.0000000e+00 3.2000000e+01 
0.0000000e+00 0.0000000e+00 3.3000000e+01 
0.0000000e+00 0.0000000e+00 3.4000000e+01 
0.0000000e+00 0.0000000e+00 3.5000000e+01 
0.0000000e+00 0.0000000e+00 3.6000000e+01 
0.0000000e+00 0.0000000e+00 3.7000000e+01 
0.0000000e+00 0.0000000e+00 3.8000000e+01 
0.0000000e+00 0.0000000e+00 3.9000000e+01 
0.0000000e+00 0.0000000e+00 4.0000000e+01 
0.0000000e+00 0.0000000e+00 4.1000000e+01 
0.0000000e+00 0.0000000e+00 4.2000000e+01 
0.0000000e+00 0.0000000e+00 4.3000000e+01 
0.0000000e+00 0.0000000e+00 4.4000000e+01 
0.0000000e+00 0.0000000e+00 4.5000000e+01 
0.0000000e+00 0.0000000e+00 4.6000000e+01 
0.0000000e+00 0.0000000e+00 4.7000000e+01 
0.0000000e+00 0.0000000e+00 4.8000000e+01 
0.0000000e+00 0.0000000e+00 4.9000000e+01 
5.0000000e+00 0.0000000e+00 1.0000000e+00 
5.0000000e+00 0.0000000e+00 2.0000000e+00 
5.0000000e+00 0.0000000e+00 3.0000000e+00 
5.0000000e+00 0.0000000e+00 4.0000000e+00 
5.0000000e+00 0.0000000e+00 5.0000000e+00 
5.0000000e+00 0.0000000e+00 6.0000000e+00 
5.0000000e+00 0.0000000e+00 7.0000000e+00 
5.0000000e+00 0.0000000e+00 8.0000000e+00 
5.0000000e+00 0.0000000e+00 9.0000000e+00 
5.0000000e+00 0.0000000e+00 1.0000000e+01 
5.0000000e+00 0.0000000e+00 1.1000000e+01 
5.0000000e+00 0.0000000e+00 1.2000000e+01 
5.0000000e+00 0.0000000e+00 1.3000000e+01 
5.0000000e+00 0.0000000e+00 1.4000000e+01 
5.0000000e+00 0.0000000e+00 1.5000000e+01 
5.0000000e+00 0.0000000e+00 1.6000000e+01 
5.0000000e+00 0.0000000e+00 1.7000000e+01 
5.0000000e+00 0.0000000e+00 1.8000000e+01 
5.0000000e+00 0.0000000e+00 1.9000000e+01 
5.0000000e+00 0.0000000e+00 2.0000000e+01 
5.0000000e+00 0.0000000e+00 2.1000000e+01 
5.0000000e+00 0.0000000e+00 2.2000000e+01 
5.0000000e+00 0.0000000e+00 2.3000000e+01 
5.0000000e+00 0.0000000e+00 2.4000000e+01 
5.0000000e+00 0.0000000e+00 2.5000000e+01 
5.0000000e+00 0.0000000e+00 2.6000000e+01 
5.0000000e+00 0.0000000e+00 2.7000000e+01 
5.0000000e+00 0.0000000e+00 2.8000000e+01 
5.0000000e+00 0.0000000e+00 2.9000000e+01 
5.0000000e+00 0.0000000e+00 3.0000000e+01 
5.0000000e+00 0.0000000e+00 3.1000000e+01 
5.0000000e+00 0.0000000e+00 3.2000000e+01 
5.0000000e+00 0.0000000e+00 3.3000000e+01 
5.0000000e+00 0.0000000e+00 3.4000000e+01 
5.0000000e+00 0.0000000e+00 3.5000000e+01 
5.0000000e+00 0.0000000e+00 3.6000000e+01 
5.0000000e+00 0.0000000e+00 3.7000000e+01 
5.0000000e+00 0.0000000e+00 3.8000000e+01 
5.0000000e+00 0.0000000e+00 3.9000000e+01 
5.0000000e+00 0.0000000e+00 4.0000000e+01 
5.0000000e+00 0.0000000e+00 4.1000000e+01 
5.0000000e+00 0.0000000e+00 4.2000000e+01 
5.0000000e+00 0.0000000e+00 4.3000000e+01 
5.0000000e+00 0.0000000e+00 4.4000000e+01 
5.0000000e+00 0.0000000e+00 4.5000000e+01 
5.0000000e+00 0.0000000e+00 4.6000000e+01 
5.0000000e+00 0.0000000e+00 4.7000000e+01 
5.0000000e+00 0.0000000e+00 4.8000000e+01 
5.0000000e+00 0.0000000e+00 4.9000000e+01 
1.0000000e+00 0.0000000e+00 0.0000000e+00 
2.0000000e+00 0.0000000e+00 0.0000000e+00 
3.0000000e+00 0.0000000e+00 0.0000000e+00 
4.0000000e+00 0.0000000e+00 0.0000000e+00 
1.0000000e+00 0.0000000e+00 5.0000000e+01 
2.0000000e+00 0.0000000e+00 5.0000000e+01 
3.0000000e+00 0.0000000e+00 5.0000000e+01 
4.0000000e+00 0.0000000e+00 5.0000000e+01 
5.0000000e+00 1.0000000e+00 1.0000000e+00 
5.0000000e+00 1.0000000e+00 2.0000000e+00 
5.0000000e+00 1.0000000e+00 3.0000000e+00 
5.0000000e+00 1.0000000e+00 4.0000000e+00 
5.0000000e+00 1.0000000e+00 5.0000000e+00 
5.0000000e+00 1.0000000e+00 6.0000000e+00 
5.0000000e+00 1.0000000e+00 7.0000000e+00 
5.0000000e+00 1.0000000e+00 8.0000000e+00 
5.0000000e+00 1.0000000e+00 9.0000000e+00 
5.0000000e+00 1.0000000e+00 1.0000000e+01 
5.0000000e+00 1.0000000e+00 1.1000000e+01 
5.0000000e+00 1.0000000e+00 1.2000000e+01 
5.0000000e+00 1.0000000e+00 1.3000000e+01 
5.0000000e+00 1.0000000e+00 1.4000000e+01 
5.0000000e+00 1.0000000e+00 1.5000000e+01 
5.0000000e+00 1.0000000e+00 1.6000000e+01 
5.0000000e+00 1.0000000e+00 1.7000000e+01 
5.0000000e+00 1.0000000e+00 1.8000000e+01 
5.0000000e+00 1.0000000e+00 1.9000000e+01 
5.0000000e+00 1.0000000e+00 2.0000000e+01 
5.0000000e+00 1.0000000e+00 2.1000000e+01 
5.0000000e+00 1.0000000e+00 2.2000000e+01 
5.0000000e+00 1.0000000e+00 2.3000000e+01 
5.0000000e+00 1.0000000e+00 2.4000000e+01 
5.0000000e+00 1.0000000e+00 2.5000000e+01 
5.0000000e+00 1.0000000e+00 2.6000000e+01 
5.0000000e+00 1.0000000e+00 2.7000000e+01 
5.0000000e+00 1.0000000e+00 2.8000000e+01 
5.0000000e+00 1.0000000e+00 2.9000000e+01 
5.0000000e+00 1.0000000e+00 3.0000000e+01 
5.0000000e+00 1.0000000e+00 3.1000000e+01 
5.0000000e+00 1.0000000e+00 3.2000000e+01 
5.0000000e+00 1.0000000e+00 3.3000000e+01 
5.0000000e+00 1.0000000e+00 3.4000000e+01 
5.0000000e+00 1.0000000e+00 3.5000000e+01 
5.0000000e+00 1.0000000e+00 3.6000000e+01 
5.0000000e+00 1.0000000e+00 3.7000000e+01 
5.0000000e+00 1.0000000e+00 3.8000000e+01 
5.0000000e+00 1.0000000e+00 3.9000000e+01 
5.0000000e+00 1.0000000e+00 4.0000000e+01 
5.0000000e+00 1.0000000e+00 4.1000000e+01 
5.0000000e+00 1.0000000e+00 4.2000000e+01 
5.0000000e+00 1.0000000e+00 4.3000000e+01 
5.0000000e+00 1.0000000e+00 4.4000000e+01 
5.0000000e+00 1.0000000e+00 4.5000000e+01 
5.0000000e+00 1.0000000e+00 4.6000000e+01 
5.0000000e+00 1.0000000e+00 4.7000000e+01 
5.0000000e+00 1.0000000e+00 4.8000000e+01 
5.0000000e+00 1.0000000e+00 4.9000000e+01 
0.0000000e+00 1.0000000e+00 1.0000000e+00 
0.0000000e+00 1.0000000e+00 2.0000000e+00 
0.0000000e+00 1.0000000e+00 3.0000000e+00 
0.0000000e+00 1.0000000e+00 4.0000000e+00 
0.0000000e+00 1.0000000e+00 5.0000000e+00 
0.0000000e+00 1.0000000e+00 6.0000000e+00 
0.0000000e+00 1.0000000e+00 7.0000000e+00 
0.0000000e+00 1.0000000e+00 8.0000000e+00 
0.0000000e+00 1.0000000e+00 9.0000000e+00 
0.0000000e+00 1.0000000e+00 1.0000000e+01 
0.0000000e+00 1.0000000e+00 1.1000000e+01 
0.0000000e+00 1.0000000e+00 1.2000000e+01 
0.0000000e+00 1.0000000e+00 1.3000000e+01 
0.0000000e+00 1.0000000e+00 1.4000000e+01 
0.0000000e+00 1.0000000e+00 1.5000000e+01 
0.0000000e+00 1.0000000e+00 1.6000000e+01 
0.0000000e+00 1.0000000e+00 1.7000000e+01 
0.0000000e+00 1.0000000e+00 1.8000000e+01 
0.0000000e+00 1.0000000e+00 1.9000000e+01 
0.0000000e+00 1.0000000e+00 2.0000000e+01 
0.0000000e+00 1.0000000e+00 2.1000000e+01 
0.0000000e+00 1.0000000e+00 2.2000000e+01 
0.0000000e+00 1.0000000e+00 2.3000000e+01 
0.0000000e+00 1.0000000e+00 2.4000000e+01 
0.0000000e+00 1.0000000e+00 2.5000000e+01 
0.0000000e+00 1.0000000e+00 2.6000000e+01 
0.0000000e+00 1.0000000e+00 2.7000000e+01 
0.0000000e+00 1.0000000e+00 2.8000000e+01 
0.0000000e+00 1.0000000e+00 2.9000000e+01 
0.0000000e+00 1.0000000e+00 3.0000000e+01 
0.0000000e+00 1.0000000e+00 3.1000000e+01 
0.0000000e+00 1.0000000e+00 3.2000000e+01 
0.0000000e+00 1.0000000e+00 3.3000000e+01 
0.0000000e+00 1.0000000e+00 3.4000000e+01 
0.0000000e+00 1.0000000e+00 3.5000000e+01 
0.0000000e+00 1.0000000e+00 3.6000000e+01 
0.0000000e+00 1.0000000e+00 3.7000000e+01 
0.0000000e+00 1.0000000e+00 3.8000000e+01 
0.0000000e+00 1.0000000e+00 3.9000000e+01 
0.0000000e+00 1.0000000e+00 4.0000000e+01 
0.0000000e+00 1.0000000e+00 4.1000000e+01 
0.0000000e+00 1.0000000e+00 4.2000000e+01 
0.0000000e+00 1.0000000e+00 4.3000000e+01 
0.0000000e+00 1.0000000e+00 4.4000000e+01 
0.0000000e+00 1.0000000e+00 4.5000000e+01 
0.0000000e+00 1.0000000e+00 4.6000000e+01 
0.0000000e+00 1.0000000e+00 4.7000000e+01 
0.0000000e+00 1.0000000e+00 4.8000000e+01 
0.0000000e+00 1.0000000e+00 4.9000000e+01 
4.0000000e+00 1.0000000e+00 0.0000000e+00 
3.0000000e+00 1.0000000e+00 0.0000000e+00 
2.0000000e+00 1.0000000e+00 0.0000000e+00 
1.0000000e+00 1.0000000e+00 0.0000000e+00 
4.0000000e+00 1.0000000e+00 5.0000000e+01 
3.0000000e+00 1.0000000e+00 5.0000000e+01 
[...]
POINT_DATA 1664
FIELD FieldData 2
DISPLACEMENT 3 1664  float
0.0000000e+00 0.0000000e+00 0.0000000e+00 
0.0000000e+00 0.0000000e+00 0.0000000e+00 
0.0000000e+00 0.0000000e+00 0.0000000e+00 
0.0000000e+00 0.0000000e+00 0.0000000e+00 
0.0000000e+00 -4.9642044e-11 0.0000000e+00 
0.0000000e+00 -7.9938470e-24 0.0000000e+00 
0.0000000e+00 -3.7531186e-10 0.0000000e+00 
0.0000000e+00 2.6260917e-24 0.0000000e+00 
0.0000000e+00 -4.3647752e-11 0.0000000e+00 
0.0000000e+00 1.0106760e-23 0.0000000e+00 
0.0000000e+00 -7.1030754e-10 0.0000000e+00 
0.0000000e+00 -3.9087736e-23 0.0000000e+00 
0.0000000e+00 -5.8242894e-10 0.0000000e+00 
0.0000000e+00 4.5109344e-25 0.0000000e+00 
0.0000000e+00 -2.7803684e-10 0.0000000e+00 
3.6866290e-24 5.5216138e-24 2.1073198e-24 
0.0000000e+00 1.2688889e-09 0.0000000e+00 
0.0000000e+00 9.1161879e-24 0.0000000e+00 
0.0000000e+00 -5.0995996e-10 0.0000000e+00 
0.0000000e+00 -1.4835165e-23 0.0000000e+00 
0.0000000e+00 0.0000000e+00 0.0000000e+00 
0.0000000e+00 0.0000000e+00 0.0000000e+00 
0.0000000e+00 0.0000000e+00 0.0000000e+00 
0.0000000e+00 0.0000000e+00 0.0000000e+00 
0.0000000e+00 0.0000000e+00 0.0000000e+00 
0.0000000e+00 0.0000000e+00 0.0000000e+00 
0.0000000e+00 0.0000000e+00 0.0000000e+00 
0.0000000e+00 0.0000000e+00 0.0000000e+00 
0.0000000e+00 0.0000000e+00 0.0000000e+00 
0.0000000e+00 0.0000000e+00 0.0000000e+00 
0.0000000e+00 0.0000000e+00 0.0000000e+00 
0.0000000e+00 0.0000000e+00 0.0000000e+00 
0.0000000e+00 0.0000000e+00 0.0000000e+00 
0.0000000e+00 0.0000000e+00 0.0000000e+00 
0.0000000e+00 0.0000000e+00 0.0000000e+00 
0.0000000e+00 0.0000000e+00 0.0000000e+00 
0.0000000e+00 0.0000000e+00 0.0000000e+00 
0.0000000e+00 0.0000000e+00 0.0000000e+00 
0.0000000e+00 0.0000000e+00 0.0000000e+00 
0.0000000e+00 0.0000000e+00 0.0000000e+00 
0.0000000e+00 0.0000000e+00 0.0000000e+00 
0.0000000e+00 0.0000000e+00 0.0000000e+00 
0.0000000e+00 0.0000000e+00 0.0000000e+00 
0.0000000e+00 0.0000000e+00 0.0000000e+00 
0.0000000e+00 0.0000000e+00 0.0000000e+00 
0.0000000e+00 0.0000000e+00 0.0000000e+00 
0.0000000e+00 0.0000000e+00 0.0000000e+00 
0.0000000e+00 0.0000000e+00 0.0000000e+00 
0.0000000e+00 0.0000000e+00 0.0000000e+00 
0.0000000e+00 0.0000000e+00 0.0000000e+00 
0.0000000e+00 0.0000000e+00 0.0000000e+00 
0.0000000e+00 0.0000000e+00 0.0000000e+00 
0.0000000e+00 0.0000000e+00 0.0000000e+00 
0.0000000e+00 0.0000000e+00 0.0000000e+00 
0.0000000e+00 0.0000000e+00 0.0000000e+00 
0.0000000e+00 0.0000000e+00 0.0000000e+00 
0.0000000e+00 0.0000000e+00 0.0000000e+00 
0.0000000e+00 0.0000000e+00 0.0000000e+00 
0.0000000e+00 0.0000000e+00 0.0000000e+00 
0.0000000e+00 0.0000000e+00 0.0000000e+00 
0.0000000e+00 0.0000000e+00 0.0000000e+00 
0.0000000e+00 0.0000000e+00 0.0000000e+00 
0.0000000e+00 0.0000000e+00 0.0000000e+00 
0.0000000e+00 0.0000000e+00 0.0000000e+00 
0.0000000e+00 0.0000000e+00 0.0000000e+00 
0.0000000e+00 0.0000000e+00 0.0000000e+00 
0.0000000e+00 0.0000000e+00 0.0000000e+00 
0.0000000e+00 0.0000000e+00 0.0000000e+00 
0.0000000e+00 0.0000000e+00 0.0000000e+00 
0.0000000e+00 0.0000000e+00 0.0000000e+00 
0.0000000e+00 0.0000000e+00 0.0000000e+00 
0.0000000e+00 0.0000000e+00 0.0000000e+00 
0.0000000e+00 0.0000000e+00 0.0000000e+00 
0.0000000e+00 0.0000000e+00 0.0000000e+00 
0.0000000e+00 0.0000000e+00 0.0000000e+00 
0.0000000e+00 0.0000000e+00 0.0000000e+00 
0.0000000e+00 0.0000000e+00 0.0000000e+00 
0.0000000e+00 0.0000000e+00 0.0000000e+00 
0.0000000e+00 0.0000000e+00 0.0000000e+00 
0.0000000e+00 0.0000000e+00 0.0000000e+00 
0.0000000e+00 0.0000000e+00 0.0000000e+00 
0.0000000e+00 0.0000000e+00 0.0000000e+00 
0.0000000e+00 0.0000000e+00 0.0000000e+00 
0.0000000e+00 0.0000000e+00 0.0000000e+00 
0.0000000e+00 0.0000000e+00 0.0000000e+00 
0.0000000e+00 0.0000000e+00 0.0000000e+00 
0.0000000e+00 0.0000000e+00 0.0000000e+00 
0.0000000e+00 0.0000000e+00 0.0000000e+00 
0.0000000e+00 0.0000000e+00 0.0000000e+00 
0.0000000e+00 0.0000000e+00 0.0000000e+00 
0.0000000e+00 0.0000000e+00 0.0000000e+00 
0.0000000e+00 0.0000000e+00 0.0000000e+00 
0.0000000e+00 0.0000000e+00 0.0000000e+00 
0.0000000e+00 0.0000000e+00 0.0000000e+00 
0.0000000e+00 0.0000000e+00 0.0000000e+00 
0.0000000e+00 0.0000000e+00 0.0000000e+00 
0.0000000e+00 0.0000000e+00 0.0000000e+00 
0.0000000e+00 0.0000000e+00 0.0000000e+00 
0.0000000e+00 0.0000000e+00 0.0000000e+00 
0.0000000e+00 0.0000000e+00 0.0000000e+00 
0.0000000e+00 0.0000000e+00 0.0000000e+00 
0.0000000e+00 0.0000000e+00 0.0000000e+00 
0.0000000e+00 0.0000000e+00 0.0000000e+00 
0.0000000e+00 0.0000000e+00 0.0000000e+00 
0.0000000e+00 0.0000000e+00 0.0000000e+00 
0.0000000e+00 0.0000000e+00 0.0000000e+00 
0.0000000e+00 0.0000000e+00 0.0000000e+00 
0.0000000e+00 0.0000000e+00 0.0000000e+00 
0.0000000e+00 0.0000000e+00 0.0000000e+00 
0.0000000e+00 0.0000000e+00 0.0000000e+00 
0.0000000e+00 0.0000000e+00 0.0000000e+00 
0.0000000e+00 0.0000000e+00 0.0000000e+00 
0.0000000e+00 0.0000000e+00 0.0000000e+00 
0.0000000e+00 0.0000000e+00 0.0000000e+00 
0.0000000e+00 0.0000000e+00 0.0000000e+00 
0.0000000e+00 0.0000000e+00 0.0000000e+00 
0.0000000e+00 0.0000000e+00 0.0000000e+00 
0.0000000e+00 0.0000000e+00 0.0000000e+00 
0.0000000e+00 0.0000000e+00 0.0000000e+00 
0.0000000e+00 0.0000000e+00 0.0000000e+00 
0.0000000e+00 0.0000000e+00 0.0000000e+00 
0.0000000e+00 0.0000000e+00 0.0000000e+00 
0.0000000e+00 0.0000000e+00 0.0000000e+00 
0.0000000e+00 0.0000000e+00 0.0000000e+00 
0.0000000e+00 0.0000000e+00 0.0000000e+00 
0.0000000e+00 0.0000000e+00 0.0000000e+00 
0.0000000e+00 4.8697921e-11 0.0000000e+00 
0.0000000e+00 3.5345066e-10 0.0000000e+00 
0.0000000e+00 -1.3274386e-09 0.0000000e+00 
0.0000000e+00 2.5738509e-10 0.0000000e+00 
0.0000000e+00 2.2609756e-09 0.0000000e+00 
0.0000000e+00 -5.0791824e-09 0.0000000e+00 
0.0000000e+00 -5.9946856e-09 0.0000000e+00 
0.0000000e+00 -1.4275429e-09 0.0000000e+00 
0.0000000e+00 -5.0032267e-09 0.0000000e+00 
0.0000000e+00 -4.8400226e-09 0.0000000e+00 
0.0000000e+00 -2.4083211e-09 0.0000000e+00 
0.0000000e+00 1.3517902e-09 0.0000000e+00 
0.0000000e+00 -1.0474963e-10 0.0000000e+00 
0.0000000e+00 -3.4896905e-11 0.0000000e+00 
0.0000000e+00 1.6619756e-11 0.0000000e+00 
0.0000000e+00 -2.8134780e-12 0.0000000e+00 
0.0000000e+00 2.0702156e-13 0.0000000e+00 
0.0000000e+00 -1.1137579e-13 0.0000000e+00 
0.0000000e+00 1.4345774e-11 0.0000000e+00 
0.0000000e+00 -4.8452242e-11 0.0000000e+00 
0.0000000e+00 1.3813845e-10 0.0000000e+00 
0.0000000e+00 9.0167984e-11 0.0000000e+00 
0.0000000e+00 -5.3509958e-10 0.0000000e+00 
0.0000000e+00 5.2596794e-10 0.0000000e+00 
0.0000000e+00 3.0011504e-09 0.0000000e+00 
0.0000000e+00 -5.2084572e-09 0.0000000e+00 
0.0000000e+00 -4.4113606e-09 0.0000000e+00 
0.0000000e+00 -2.2559070e-09 0.0000000e+00 
0.0000000e+00 -6.9753767e-09 0.0000000e+00 
0.0000000e+00 -5.0748685e-09 0.0000000e+00 
0.0000000e+00 -1.0380690e-09 0.0000000e+00 
0.0000000e+00 7.6238171e-10 0.0000000e+00 
0.0000000e+00 -1.3948978e-10 0.0000000e+00 
0.0000000e+00 1.1196790e-11 0.0000000e+00 
0.0000000e+00 4.9229449e-12 0.0000000e+00 
0.0000000e+00 -1.9882858e-12 0.0000000e+00 
0.0000000e+00 1.1876021e-13 0.0000000e+00 
0.0000000e+00 -2.3010317e-14 0.0000000e+00 
0.0000000e+00 1.2900291e-14 0.0000000e+00 
0.0000000e+00 -4.8266970e-15 0.0000000e+00 
0.0000000e+00 4.1626153e-16 0.0000000e+00 
0.0000000e+00 -6.4972165e-17 0.0000000e+00 
0.0000000e+00 8.1942753e-18 0.0000000e+00 
0.0000000e+00 3.4408448e-20 0.0000000e+00 
0.0000000e+00 -1.5795621e-19 0.0000000e+00 
0.0000000e+00 5.4621715e-20 0.0000000e+00 
0.0000000e+00 -5.2382174e-21 0.0000000e+00 
0.0000000e+00 5.6919412e-22 0.0000000e+00 
0.0000000e+00 -2.3619750e-23 0.0000000e+00 
0.0000000e+00 3.8718548e-09 0.0000000e+00 
0.0000000e+00 -2.3673463e-08 0.0000000e+00 
0.0000000e+00 5.6851480e-08 0.0000000e+00 
0.0000000e+00 -3.4660368e-07 0.0000000e+00 
0.0000000e+00 -1.6876916e-06 0.0000000e+00 
0.0000000e+00 -4.8807060e-06 0.0000000e+00 
0.0000000e+00 6.6823986e-07 0.0000000e+00 
0.0000000e+00 -3.8182698e-06 0.0000000e+00 
0.0000000e+00 -4.4037124e-06 0.0000000e+00 
0.0000000e+00 1.1919245e-06 0.0000000e+00 
0.0000000e+00 -8.3517172e-08 0.0000000e+00 
0.0000000e+00 -3.3793839e-08 0.0000000e+00 
0.0000000e+00 7.1149211e-09 0.0000000e+00 
0.0000000e+00 -1.1645471e-09 0.0000000e+00 
0.0000000e+00 1.0874201e-10 0.0000000e+00 
0.0000000e+00 1.7632324e-12 0.0000000e+00 
0.0000000e+00 4.2385908e-13 0.0000000e+00 
0.0000000e+00 -1.3296547e-11 0.0000000e+00 
0.0000000e+00 7.4810325e-11 0.0000000e+00 
0.0000000e+00 -3.6378522e-10 0.0000000e+00 
0.0000000e+00 2.8513834e-09 0.0000000e+00 
0.0000000e+00 4.9562487e-09 0.0000000e+00 
0.0000000e+00 2.3302674e-07 0.0000000e+00 
0.0000000e+00 -5.8748566e-07 0.0000000e+00 
0.0000000e+00 -1.2689485e-06 0.0000000e+00 
0.0000000e+00 -4.8810853e-06 0.0000000e+00 
0.0000000e+00 -9.0475914e-06 0.0000000e+00 
0.0000000e+00 1.3596659e-06 0.0000000e+00 
0.0000000e+00 -3.3584332e-08 0.0000000e+00 
0.0000000e+00 -2.1684607e-06 0.0000000e+00 
0.0000000e+00 -4.5477314e-08 0.0000000e+00 
0.0000000e+00 3.2721889e-08 0.0000000e+00 
0.0000000e+00 -6.4464758e-09 0.0000000e+00 
0.0000000e+00 4.9136234e-10 0.0000000e+00 
0.0000000e+00 8.1988808e-12 0.0000000e+00 
0.0000000e+00 -2.8129688e-12 0.0000000e+00 
0.0000000e+00 1.1954073e-12 0.0000000e+00 
0.0000000e+00 -1.3123533e-13 0.0000000e+00 
0.0000000e+00 3.2980886e-15 0.0000000e+00 
0.0000000e+00 4.9305899e-16 0.0000000e+00 
0.0000000e+00 -1.9947106e-16 0.0000000e+00 
0.0000000e+00 6.0477219e-17 0.0000000e+00 
0.0000000e+00 -1.6025304e-18 0.0000000e+00 
0.0000000e+00 -7.9945838e-19 0.0000000e+00 
0.0000000e+00 1.7610624e-19 0.0000000e+00 
0.0000000e+00 -2.0119365e-20 0.0000000e+00 
0.0000000e+00 1.2859801e-21 0.0000000e+00 
0.0000000e+00 -3.1624976e-23 0.0000000e+00 
0.0000000e+00 -1.0578245e-23 0.0000000e+00 
0.0000000e+00 1.5146129e-10 0.0000000e+00 
0.0000000e+00 2.7397762e-10 0.0000000e+00 
0.0000000e+00 -2.5556027e-10 0.0000000e+00 
0.0000000e+00 1.3000133e-10 0.0000000e+00 
0.0000000e+00 4.8154357e-24 0.0000000e+00 
0.0000000e+00 -2.8725957e-23 0.0000000e+00 
0.0000000e+00 3.0214332e-23 0.0000000e+00 
0.0000000e+00 5.4048584e-24 0.0000000e+00 
0.0000000e+00 9.7757557e-12 0.0000000e+00 
0.0000000e+00 -1.1452510e-10 0.0000000e+00 
0.0000000e+00 -2.7792149e-10 0.0000000e+00 
0.0000000e+00 -3.0663998e-09 0.0000000e+00 
0.0000000e+00 -4.5403223e-10 0.0000000e+00 
0.0000000e+00 6.5922094e-09 0.0000000e+00 
0.0000000e+00 5.4606297e-09 0.0000000e+00 
0.0000000e+00 7.9361708e-09 0.0000000e+00 
0.0000000e+00 1.0652211e-08 0.0000000e+00 
0.0000000e+00 6.5084631e-09 0.0000000e+00 
0.0000000e+00 -3.5689132e-10 0.0000000e+00 
0.0000000e+00 -3.6155701e-10 0.0000000e+00 
0.0000000e+00 1.0339780e-10 0.0000000e+00 
0.0000000e+00 4.4650338e-12 0.0000000e+00 
0.0000000e+00 -1.9496892e-11 0.0000000e+00 
0.0000000e+00 5.2458931e-12 0.0000000e+00 
0.0000000e+00 -3.4833028e-12 0.0000000e+00 
0.0000000e+00 1.0640401e-11 0.0000000e+00 
0.0000000e+00 -3.4839243e-11 0.0000000e+00 
0.0000000e+00 5.7846169e-11 0.0000000e+00 
0.0000000e+00 -4.1017894e-11 0.0000000e+00 
0.0000000e+00 -1.8574130e-10 0.0000000e+00 
0.0000000e+00 4.8044657e-10 0.0000000e+00 
0.0000000e+00 -4.2146540e-09 0.0000000e+00 
0.0000000e+00 -2.3981315e-09 0.0000000e+00 
0.0000000e+00 7.0719728e-09 0.0000000e+00 
0.0000000e+00 8.0612779e-09 0.0000000e+00 
0.0000000e+00 9.4131662e-09 0.0000000e+00 
0.0000000e+00 1.0034973e-08 0.0000000e+00 
0.0000000e+00 6.7798780e-09 0.0000000e+00 
0.0000000e+00 -2.6379088e-10 0.0000000e+00 
0.0000000e+00 -7.7959689e-10 0.0000000e+00 
0.0000000e+00 1.1547632e-10 0.0000000e+00 
0.0000000e+00 -7.1379070e-12 0.0000000e+00 
0.0000000e+00 -5.2986734e-12 0.0000000e+00 
0.0000000e+00 4.1293700e-12 0.0000000e+00 
0.0000000e+00 -1.2655929e-12 0.0000000e+00 
0.0000000e+00 3.0094154e-13 0.0000000e+00 
0.0000000e+00 -5.7553083e-14 0.0000000e+00 
0.0000000e+00 6.7482276e-15 0.0000000e+00 
0.0000000e+00 -7.8038432e-16 0.0000000e+00 
0.0000000e+00 7.3699046e-17 0.0000000e+00 
0.0000000e+00 5.2381471e-19 0.0000000e+00 
0.0000000e+00 -1.2975787e-18 0.0000000e+00 
0.0000000e+00 3.7645158e-19 0.0000000e+00 
0.0000000e+00 -3.8315400e-20 0.0000000e+00 
0.0000000e+00 8.5939461e-21 0.0000000e+00 
0.0000000e+00 -1.1787735e-21 0.0000000e+00 
0.0000000e+00 6.7000765e-23 0.0000000e+00 
0.0000000e+00 6.8967165e-11 0.0000000e+00 
7.9046207e-11 8.6870383e-10 -5.7752969e-11 
-2.5906405e-10 -5.8059850e-09 -3.0843753e-10 
-6.2592735e-09 7.0612884e-09 3.3154939e-09 
1.9326377e-08 4.4126672e-08 -1.2661776e-08 
1.2319873e-07 3.1362356e-07 -1.5772915e-08 
1.6931533e-07 7.3499541e-07 1.2759622e-08 
1.1744512e-07 6.3636742e-07 -1.5482531e-08 
1.7109204e-07 5.7813935e-07 7.5448021e-09 
1.1567235e-07 6.2435811e-07 -1.3087970e-10 
1.3978670e-08 2.0931360e-07 1.4436281e-08 
-8.4663840e-09 -4.1343583e-08 -2.6289775e-09 
7.4042644e-10 -1.3820182e-09 9.4744768e-10 
3.3427354e-12 2.1611235e-09 -2.7564920e-10 
-3.2931369e-11 -6.1179245e-10 5.8445207e-11 
1.0105407e-11 1.2654612e-10 -1.0043731e-11 
-2.2173611e-12 -1.9094984e-11 2.9525013e-12 
1.0775742e-14 1.2422589e-12 -7.0444020e-13 
8.7236479e-14 -5.4356866e-12 2.6746372e-12 
2.8238768e-12 6.3268009e-11 -1.3955679e-11 
-2.8052225e-11 -4.8662535e-10 4.0762622e-11 
2.4466781e-10 2.7676452e-09 1.3374316e-10 
-1.0177033e-09 -7.6454763e-09 -2.3610118e-09 
-8.7238021e-09 1.1406895e-08 5.2547215e-09 
5.1682722e-08 7.6057198e-08 -1.4538576e-08 
1.4026925e-07 3.2220231e-07 -3.0347369e-09 
2.0624131e-07 9.3054376e-07 1.5416795e-08 
9.8916281e-08 5.0934347e-07 -1.2696206e-08 
2.0333428e-07 7.0139890e-07 2.4969153e-09 
1.1183171e-07 6.8929546e-07 3.1905334e-10 
7.0852124e-09 1.2230214e-07 -1.5512956e-09 
-3.8380192e-09 -4.1009937e-08 -2.8433245e-09 
-7.8391155e-11 7.9643370e-10 4.4909945e-10 
1.0591216e-10 1.5587672e-09 -1.8167148e-11 
-2.7857059e-11 -5.6351079e-10 -1.0515520e-11 
4.2825539e-12 1.2146080e-10 1.7122372e-12 
-5.2719634e-13 -2.3214057e-11 1.8000575e-13 
3.5847126e-14 3.7468080e-12 -1.1602996e-13 
-2.0309724e-15 -7.1517109e-13 2.6516588e-14 
-1.2709776e-15 5.3460400e-14 -2.8828669e-15 
3.6265800e-16 -1.3980601e-15 1.9297520e-16 
-1.3084940e-16 -1.3929913e-15 -3.7992905e-17 
2.6935484e-17 4.0852807e-16 6.9659824e-18 
-3.5431711e-18 -6.0991163e-17 -1.6031390e-18 
2.0957483e-19 4.5379455e-18 1.8396103e-19 
1.2924065e-20 8.9028299e-20 3.2167014e-21 
-8.3048223e-21 -7.9538670e-20 -5.2667926e-21 
1.6218666e-21 1.4430285e-20 1.3065678e-21 
-3.9057046e-22 -2.9404688e-21 -3.3943746e-22 
3.3941201e-23 2.1013692e-22 3.3715350e-23 
0.0000000e+00 3.2733121e-23 0.0000000e+00 
0.0000000e+00 -1.5567432e-10 0.0000000e+00 
0.0000000e+00 -6.3553557e-10 0.0000000e+00 
0.0000000e+00 4.1534842e-09 0.0000000e+00 
0.0000000e+00 -7.4504769e-08 0.0000000e+00 
0.0000000e+00 7.0505456e-07 0.0000000e+00 
0.0000000e+00 -3.3721567e-06 0.0000000e+00 
0.0000000e+00 2.0457643e-05 0.0000000e+00 
0.0000000e+00 4.5516343e-05 0.0000000e+00 
0.0000000e+00 5.7073607e-06 0.0000000e+00 
0.0000000e+00 3.5789981e-05 0.0000000e+00 
0.0000000e+00 3.4312663e-05 0.0000000e+00 
0.0000000e+00 -3.6691322e-06 0.0000000e+00 
0.0000000e+00 -9.8360920e-07 0.0000000e+00 
0.0000000e+00 6.0582643e-08 0.0000000e+00 
0.0000000e+00 -6.2209242e-09 0.0000000e+00 
0.0000000e+00 4.4926871e-10 0.0000000e+00 
0.0000000e+00 1.9593543e-13 0.0000000e+00 
0.0000000e+00 5.1196113e-12 0.0000000e+00 
0.0000000e+00 -2.4924758e-14 0.0000000e+00 
0.0000000e+00 -1.0018237e-11 0.0000000e+00 
0.0000000e+00 8.7731447e-11 0.0000000e+00 
0.0000000e+00 -8.1335638e-10 0.0000000e+00 
0.0000000e+00 7.8013072e-09 0.0000000e+00 
0.0000000e+00 -4.1462830e-08 0.0000000e+00 
0.0000000e+00 6.4441679e-07 0.0000000e+00 
0.0000000e+00 -3.2345740e-06 0.0000000e+00 
0.0000000e+00 2.4709270e-05 0.0000000e+00 
0.0000000e+00 4.2602442e-05 0.0000000e+00 
0.0000000e+00 1.0020994e-05 0.0000000e+00 
0.0000000e+00 3.3438428e-05 0.0000000e+00 
0.0000000e+00 2.2359580e-05 0.0000000e+00 
0.0000000e+00 -3.5619275e-06 0.0000000e+00 
0.0000000e+00 -4.0207061e-07 0.0000000e+00 
0.0000000e+00 4.8735217e-08 0.0000000e+00 
0.0000000e+00 -3.8381320e-09 0.0000000e+00 
0.0000000e+00 7.0836004e-10 0.0000000e+00 
0.0000000e+00 -6.0042832e-11 0.0000000e+00 
0.0000000e+00 6.4600499e-12 0.0000000e+00 
0.0000000e+00 1.4063020e-13 0.0000000e+00 
0.0000000e+00 1.7690612e-14 0.0000000e+00 
0.0000000e+00 -6.8545231e-15 0.0000000e+00 
0.0000000e+00 1.3810974e-16 0.0000000e+00 
0.0000000e+00 -1.3125304e-16 0.0000000e+00 
0.0000000e+00 4.1374443e-17 0.0000000e+00 
0.0000000e+00 -1.6871463e-18 0.0000000e+00 
0.0000000e+00 -7.4648444e-19 0.0000000e+00 
0.0000000e+00 1.0261631e-20 0.0000000e+00 
0.0000000e+00 1.9027964e-22 0.0000000e+00 
0.0000000e+00 1.2252990e-21 0.0000000e+00 
0.0000000e+00 -1.1630521e-22 0.0000000e+00 
0.0000000e+00 1.1148275e-23 0.0000000e+00 
0.0000000e+00 8.2354057e-24 0.0000000e+00 
0.0000000e+00 -6.6189011e-24 0.0000000e+00 
1.1160760e-09 6.5198522e-09 -1.2969308e-09 
-4.0189927e-09 -6.3120140e-08 4.7481494e-09 
-1.2245953e-07 3.1976327e-07 2.2964755e-08 
1.0618813e-06 -2.0016479e-07 -4.2333068e-07 
-8.2420474e-06 1.3964449e-05 -9.7244902e-07 
-7.3305341e-06 2.8195858e-05 2.4566199e-07 
-4.3034248e-07 1.3869835e-05 -4.2492083e-08 
-1.1842830e-05 2.6057720e-05 -3.0468055e-07 
-2.1596213e-06 2.1908378e-05 8.9409485e-07 
4.9838297e-07 3.3663123e-06 6.0224960e-07 
4.2952582e-08 -4.3839097e-07 2.6141041e-08 
3.3358769e-09 -1.8166384e-08 -4.4422355e-10 
-9.3001155e-11 4.4079305e-09 -8.7137290e-11 
-1.2320057e-11 -3.4708864e-10 2.8033537e-11 
3.7237258e-12 4.1403971e-11 -4.9946991e-12 
-2.6923648e-13 5.1243580e-12 7.1326181e-13 
-1.0903446e-12 -2.8371396e-12 -9.2228243e-13 
5.8251359e-12 4.3381522e-12 6.8457401e-12 
-1.6727621e-11 7.2757703e-11 -4.7007568e-11 
-5.0885015e-11 -1.2049574e-09 2.9685288e-10 
1.4773767e-09 1.1627857e-08 -1.3596553e-09 
-5.6443503e-09 -9.2434611e-08 6.9456370e-09 
-1.3821931e-07 4.4708761e-07 3.7542438e-08 
1.2806530e-06 -4.3656536e-07 -5.5862364e-07 
-9.9774434e-06 1.6498485e-05 -9.2762497e-07 
-5.8835540e-06 2.7372314e-05 2.5647276e-07 
-1.3007040e-06 1.3713593e-05 -5.6931366e-08 
-1.1522434e-05 2.6907312e-05 -2.5280997e-07 
-1.6258756e-06 1.9867688e-05 9.4751653e-07 
5.1343119e-07 2.1445801e-06 5.2718673e-07 
2.3524588e-08 -3.6692836e-07 1.0798558e-08 
3.6636143e-09 -1.4532483e-08 -1.4219322e-09 
-2.9681996e-10 4.8428217e-09 2.1023915e-10 
2.7795693e-11 -6.7209865e-10 -2.1068144e-11 
-3.4134809e-12 4.8805935e-11 2.1642193e-12 
7.8465809e-13 -8.0223859e-13 -2.6066847e-13 
-1.3605719e-13 -6.1425116e-13 7.7569488e-14 
2.0137736e-14 6.2391126e-14 -1.0905919e-14 
-2.3259874e-15 -2.7487559e-14 2.8263090e-15 
3.3666590e-16 3.3734792e-15 -3.0654398e-16 
-3.6503206e-17 -6.8503350e-16 2.2094684e-17 
2.1282822e-18 6.0103718e-17 3.7598763e-19 
1.0632991e-18 -1.5846691e-18 -3.4517006e-19 
-3.1029455e-19 -1.2923823e-18 8.7750912e-20 
4.8641335e-20 1.3303312e-19 -1.0922117e-20 
-5.4223075e-21 -2.8790390e-20 7.1555202e-22 
2.7715489e-23 -1.6873203e-21 -3.5607621e-22 
4.1951856e-23 1.7085249e-22 2.5951449e-23 
-3.4071411e-24 6.0947387e-23 -9.6195434e-25 
0.0000000e+00 -1.7342322e-10 0.0000000e+00 
4.5600120e-24 4.1998017e-23 2.7823402e-24 
0.0000000e+00 -3.8482213e-09 0.0000000e+00 
0.0000000e+00 9.5422070e-09 0.0000000e+00 
0.0000000e+00 -1.7848757e-07 0.0000000e+00 
0.0000000e+00 1.1996307e-05 0.0000000e+00 
0.0000000e+00 -2.6280247e-04 0.0000000e+00 
0.0000000e+00 -3.9930065e-04 0.0000000e+00 
0.0000000e+00 -1.8487792e-04 0.0000000e+00 
0.0000000e+00 -4.3948184e-04 0.0000000e+00 
0.0000000e+00 -2.8241263e-04 0.0000000e+00 
0.0000000e+00 -3.6799873e-05 0.0000000e+00 
0.0000000e+00 5.2382700e-07 0.0000000e+00 
0.0000000e+00 -4.5762704e-08 0.0000000e+00 
0.0000000e+00 1.4431043e-09 0.0000000e+00 
0.0000000e+00 1.5377680e-11 0.0000000e+00 
0.0000000e+00 7.9164531e-12 0.0000000e+00 
0.0000000e+00 8.8305074e-13 0.0000000e+00 
0.0000000e+00 -1.5608774e-12 0.0000000e+00 
0.0000000e+00 8.0643556e-12 0.0000000e+00 
0.0000000e+00 -4.2072262e-11 0.0000000e+00 
0.0000000e+00 1.5474091e-10 0.0000000e+00 
0.0000000e+00 -1.3964234e-09 0.0000000e+00 