# vtk DataFile Version 4.0
vtk output
ASCII
DATASET UNSTRUCTURED_GRID
POINTS 1664 float
0.0000000e+00 0.0000000e+00 0.0000000e+00 
0.0000000e+00 0.0000000e+00 5.0000000e+01 
5.0000000e+00 0.0000000e+00 0.0000000e+00 
5.0000000e+00 0.0000000e+00 5.0000000e+01 
5.0000000e+00 1.0000000e+00 0.0000000e+00 
5.0000000e+00 1.0000000e+00 5.0000000e+01 
0.0000000e+00 1.0000000e+00 0.0000000e+00 
0.0000000e+00 1.0000000e+00 5.0000000e+01 
5.0000000e+00 2.0000000e+00 0.0000000e+00 
5.0000000e+00 2.0000000e+00 5.0000000e+01 
3.0000000e+00 2.0000000e+00 0.0000000e+00 
3.0000000e+00 2.0000000e+00 5.0000000e+01 
0.0000000e+00 2.0000000e+00 0.0000000e+00 
0.0000000e+00 2.0000000e+00 5.0000000e+01 
1.5000000e+00 3.0000000e+00 0.0000000e+00 
1.5000000e+00 3.0000000e+00 5.0000000e+01 
7.5000000e-01 3.0000000e+00 0.0000000e+00 
7.5000000e-01 3.0000000e+00 5.0000000e+01 
0.0000000e+00 3.0000000e+00 0.0000000e+00 
0.0000000e+00 3.0000000e+00 5.0000000e+01 
0.0000000e+00 0.0000000e+00 1.0000000e+00 
0.0000000e+00 0.0000000e+00 2.0000000e+00 
0.0000000e+00 0.0000000e+00 3.0000000e+00 
0.0000000e+00 0.0000000e+00 4.0000000e+00 
0.0000000e+00 0.0000000e+00 5.0000000e+00 
0.0000000e+00 0.0000000e+00 6.0000000e+00 
0.0000000e+00 0.0000000e+00 7.0000000e+00 
0.0000000e+00 0.0000000e+00 8.0000000e+00 
0.0000000e+00 0.0000000e+00 9.0000000e+00 
0.0000000e+00 0.0000000e+00 1.0000000e+01 
0.0000000e+00 0.0000000e+00 1.1000000e+01 
0.0000000e+00 0.0000000e+00 1.2000000e+01 
0.0000000e+00 0.0000000e+00 1.3000000e+01 
0.0000000e+00 0.0000000e+00 1.4000000e+01 
0.0000000e+00 0.0000000e+00 1.5000000e+01 
0.0000000e+00 0.0000000e+00 1.6000000e+01 
0.0000000e+00 0.0000000e+00 1.7000000e+01 
0.0000000e+00 0.0000000e+00 1.8000000e+01 
0.0000000e+00 0.0000000e+00 1.9000000e+01 
0.0000000e+00 0.0000000e+00 2.0000000e+01 
0.0000000e+00 0.0000000e+00 2.1000000e+01 
0.0000000e+00 0.0000000e+00 2.2000000e+01 
0.0000000e+00 0.0000000e+00 2.3000000e+01 
0.0000000e+00 0.0000000e+00 2.4000000e+01 
0.0000000e+00 0.0000000e+00 2.5000000e+01 
0.0000000e+00 0.0000000e+00 2.6000000e+01 
0.0000000e+00 0.0000000e+00 2.7000000e+01 
0.0000000e+00 0.0000000e+00 2.8000000e+01 
0.0000000e+00 0.0000000e+00 2.9000000e+01 
0.0000000e+00 0.0000000e+00 3.0000000e+01 
0.0000000e+00 0.0000000e+00 3.1000000e+01 
0.0000000e+00 0.0000000e+00 3.2000000e+01 
0.0000000e+00 0.0000000e+00 3.3000000e+01 
0.0000000e+00 0.0000000e+00 3.4000000e+01 
0.0000000e+00 0.0000000e+00 3.5000000e+01 
0.0000000e+00 0.0000000e+00 3.6000000e+01 
0.0000000e+00 0.0000000e+00 3.7000000e+01 
0.0000000e+00 0.0000000e+00 3.8000000e+01 
0.0000000e+00 0.0000000e+00 3.9000000e+01 
0.0000000e+00 0.0000000e+00 4.0000000e+01 
0.0000000e+00 0.0000000e+00 4.1000000e+01 
0.0000000e+00 0.0000000e+00 4.2000000e+01 
0.0000000e+00 0.0000000e+00 4.3000000e+01 
0.0000000e+00 0.0000000e+00 4.4000000e+01 
0.0000000e+00 0.0000000e+00 4.5000000e+01 
0.0000000e+00 0.0000000e+00 4.6000000e+01 
0.0000000e+00 0.0000000e+00 4.7000000e+01 
0.0000000e+00 0.0000000e+00 4.8000000e+01 
0.0000000e+00 0.0000000e+00 4.9000000e+01 
5.0000000e+00 0.0000000e+00 1.0000000e+00 
5.0000000e+00 0.0000000e+00 2.0000000e+00 
5.0000000e+00 0.0000000e+00 3.0000000e+00 
5.0000000e+00 0.0000000e+00 4.0000000e+00 
5.0000000e+00 0.0000000e+00 5.0000000e+00 
5.0000000e+00 0.0000000e+00 6.0000000e+00 
5.0000000e+00 0.0000000e+00 7.0000000e+00 
5.0000000e+00 0.0000000e+00 8.0000000e+00 
5.0000000e+00 0.0000000e+00 9.0000000e+00 
5.0000000e+00 0.0000000e+00 1.0000000e+01 
5.0000000e+00 0.0000000e+00 1.1000000e+01 
5.0000000e+00 0.0000000e+00 1.2000000e+01 
5.0000000e+00 0.0000000e+00 1.3000000e+01 
5.0000000e+00 0.0000000e+00 1.4000000e+01 
5.0000000e+00 0.0000000e+00 1.5000000e+01 
5.0000000e+00 0.0000000e+00 1.6000000e+01 
5.0000000e+00 0.0000000e+00 1.7000000e+01 
5.0000000e+00 0.0000000e+00 1.8000000e+01 
5.0000000e+00 0.0000000e+00 1.9000000e+01 
5.0000000e+00 0.0000000e+00 2.0000000e+01 
5.0000000e+00 0.0000000e+00 2.1000000e+01 
5.0000000e+00 0.0000000e+00 2.2000000e+01 
5.0000000e+00 0.0000000e+00 2.3000000e+01 
5.0000000e+00 0.0000000e+00 2.4000000e+01 
5.0000000e+00 0.0000000e+00 2.5000000e+01 
5.0000000e+00 0.0000000e+00 2.6000000e+01 
5.0000000e+00 0.0000000e+00 2.7000000e+01 
5.0000000e+00 0.0000000e+00 2.8000000e+01 
5.0000000e+00 0.0000000e+00 2.9000000e+01 
5.0000000e+00 0.0000000e+00 3.0000000e+01 
5.0000000e+00 0.0000000e+00 3.1000000e+01 
5.0000000e+00 0.0000000e+00 3.2000000e+01 
5.0000000e+00 0.0000000e+00 3.3000000e+01 
5.0000000e+00 0.0000000e+00 3.4000000e+01 
5.0000000e+00 0.0000000e+00 3.5000000e+01 
5.0000000e+00 0.0000000e+00 3.6000000e+01 
5.0000000e+00 0.0000000e+00 3.7000000e+01 
5.0000000e+00 0.0000000e+00 3.8000000e+01 
5.0000000e+00 0.0000000e+00 3.9000000e+01 
5.0000000e+00 0.0000000e+00 4.0000000e+01 
5.0000000e+00 0.0000000e+00 4.1000000e+01 
5.0000000e+00 0.0000000e+00 4.2000000e+01 
5.0000000e+00 0.0000000e+00 4.3000000e+01 
5.0000000e+00 0.0000000e+00 4.4000000e+01 
5.0000000e+00 0.0000000e+00 4.5000000e+01 
5.0000000e+00 0.0000000e+00 4.6000000e+01 
5.0000000e+00 0.0000000e+00 4.7000000e+01 
5.0000000e+00 0.0000000e+00 4.8000000e+01 
5.0000000e+00 0.0000000e+00 4.9000000e+01 
1.0000000e+00 0.0000000e+00 0.0000000e+00 
2.0000000e+00 0.0000000e+00 0.0000000e+00 
3.0000000e+00 0.0000000e+00 0.0000000e+00 
4.0000000e+00 0.0000000e+00 0.0000000e+00 
1.0000000e+00 0.0000000e+00 5.0000000e+01 
2.0000000e+00 0.0000000e+00 5.0000000e+01 
3.0000000e+00 0.0000000e+00 5.0000000e+01 
4.0000000e+00 0.0000000e+00 5.0000000e+01 
5.0000000e+00 1.0000000e+00 1.0000000e+00 
5.0000000e+00 1.0000000e+00 2.0000000e+00 
5.0000000e+00 1.0000000e+00 3.0000000e+00 
5.0000000e+00 1.0000000e+00 4.0000000e+00 
5.0000000e+00 1.0000000e+00 5.0000000e+00 
5.0000000e+00 1.0000000e+00 6.0000000e+00 
5.0000000e+00 1.0000000e+00 7.0000000e+00 
5.0000000e+00 1.0000000e+00 8.0000000e+00 
5.0000000e+00 1.0000000e+00 9.0000000e+00 
5.0000000e+00 1.0000000e+00 1.0000000e+01 
5.0000000e+00 1.0000000e+00 1.1000000e+01 
5.0000000e+00 1.0000000e+00 1.2000000e+01 
5.0000000e+00 1.0000000e+00 1.3000000e+01 
5.0000000e+00 1.0000000e+00 1.4000000e+01 
5.0000000e+00 1.0000000e+00 1.5000000e+01 
5.0000000e+00 1.0000000e+00 1.6000000e+01 
5.0000000e+00 1.0000000e+00 1.7000000e+01 
5.0000000e+00 1.0000000e+00 1.8000000e+01 
5.0000000e+00 1.0000000e+00 1.9000000e+01 
5.0000000e+00 1.0000000e+00 2.0000000e+01 
5.0000000e+00 1.0000000e+00 2.1000000e+01 
5.0000000e+00 1.0000000e+00 2.2000000e+01 
5.0000000e+00 1.0000000e+00 2.3000000e+01 
5.0000000e+00 1.0000000e+00 2.4000000e+01 
5.0000000e+00 1.0000000e+00 2.5000000e+01 
5.0000000e+00 1.0000000e+00 2.6000000e+01 
5.0000000e+00 1.0000000e+00 2.7000000e+01 
5.0000000e+00 1.0000000e+00 2.8000000e+01 
5.0000000e+00 1.0000000e+00 2.9000000e+01 
5.0000000e+00 1.0000000e+00 3.0000000e+01 
5.0000000e+00 1.0000000e+00 3.1000000e+01 
5.0000000e+00 1.0000000e+00 3.2000000e+01 
5.0000000e+00 1.0000000e+00 3.3000000e+01 
5.0000000e+00 1.0000000e+00 3.4000000e+01 
5.0000000e+00 1.0000000e+00 3.5000000e+01 
5.0000000e+00 1.0000000e+00 3.6000000e+01 
5.0000000e+00 1.0000000e+00 3.7000000e+01 
5.0000000e+00 1.0000000e+00 3.8000000e+01 
5.0000000e+00 1.0000000e+00 3.9000000e+01 
5.0000000e+00 1.0000000e+00 4.0000000e+01 
5.0000000e+00 1.0000000e+00 4.1000000e+01 
5.0000000e+00 1.0000000e+00 4.2000000e+01 
5.0000000e+00 1.0000000e+00 4.3000000e+01 
5.0000000e+00 1.0000000e+00 4.4000000e+01 
5.0000000e+00 1.0000000e+00 4.5000000e+01 
5.0000000e+00 1.0000000e+00 4.6000000e+01 
5.0000000e+00 1.0000000e+00 4.7000000e+01 
5.0000000e+00 1.0000000e+00 4.8000000e+01 
5.0000000e+00 1.0000000e+00 4.9000000e+01 
0.0000000e+00 1.0000000e+00 1.0000000e+00 
0.0000000e+00 1.0000000e+00 2.0000000e+00 
0.0000000e+00 1.0000000e+00 3.0000000e+00 
0.0000000e+00 1.0000000e+00 4.0000000e+00 
0.0000000e+00 1.0000000e+00 5.0000000e+00 
0.0000000e+00 1.0000000e+00 6.0000000e+00 
0.0000000e+00 1.0000000e+00 7.0000000e+00 
0.0000000e+00 1.0000000e+00 8.0000000e+00 
0.0000000e+00 1.0000000e+00 9.0000000e+00 
0.0000000e+00 1.0000000e+00 1.0000000e+01 
0.0000000e+00 1.0000000e+00 1.1000000e+01 
0.0000000e+00 1.0000000e+00 1.2000000e+01 
0.0000000e+00 1.0000000e+00 1.3000000e+01 
0.0000000e+00 1.0000000e+00 1.4000000e+01 
0.0000000e+00 1.0000000e+00 1.5000000e+01 
0.0000000e+00 1.0000000e+00 1.6000000e+01 
0.0000000e+00 1.0000000e+00 1.7000000e+01 
0.0000000e+00 1.0000000e+00 1.8000000e+01 
0.0000000e+00 1.0000000e+00 1.9000000e+01 
0.0000000e+00 1.0000000e+00 2.0000000e+01 
0.0000000e+00 1.0000000e+00 2.1000000e+01 
0.0000000e+00 1.0000000e+00 2.2000000e+01 
0.0000000e+00 1.0000000e+00 2.3000000e+01 
0.0000000e+00 1.0000000e+00 2.4000000e+01 
0.0000000e+00 1.0000000e+00 2.5000000e+01 
0.0000000e+00 1.0000000e+00 2.6000000e+01 
0.0000000e+00 1.0000000e+00 2.7000000e+01 
0.0000000e+00 1.0000000e+00 2.8000000e+01 
0.0000000e+00 1.0000000e+00 2.9000000e+01 
0.0000000e+00 1.0000000e+00 3.0000000e+01 
0.0000000e+00 1.0000000e+00 3.1000000e+01 
0.0000000e+00 1.0000000e+00 3.2000000e+01 
0.0000000e+00 1.0000000e+00 3.3000000e+01 
0.0000000e+00 1.0000000e+00 3.4000000e+01 
0.0000000e+00 1.0000000e+00 3.5000000e+01 
0.0000000e+00 1.0000000e+00 3.6000000e+01 
0.0000000e+00 1.0000000e+00 3.7000000e+01 
0.0000000e+00 1.0000000e+00 3.8000000e+01 
0.0000000e+00 1.0000000e+00 3.9000000e+01 
0.0000000e+00 1.0000000e+00 4.0000000e+01 
0.0000000e+00 1.0000000e+00 4.1000000e+01 
0.0000000e+00 1.0000000e+00 4.2000000e+01 
0.0000000e+00 1.0000000e+00 4.3000000e+01 
0.0000000e+00 1.0000000e+00 4.4000000e+01 
0.0000000e+00 1.0000000e+00 4.5000000e+01 
0.0000000e+00 1.0000000e+00 4.6000000e+01 
0.0000000e+00 1.0000000e+00 4.7000000e+01 
0.0000000e+00 1.0000000e+00 4.8000000e+01 
0.0000000e+00 1.0000000e+00 4.9000000e+01 
4.0000000e+00 1.0000000e+00 0.0000000e+00 
3.0000000e+00 1.0000000e+00 0.0000000e+00 
2.0000000e+00 1.0000000e+00 0.0000000e+00 
1.0000000e+00 1.0000000e+00 0.0000000e+00 
4.0000000e+00 1.0000000e+00 5.0000000e+01 
3.0000000e+00 1.0000000e+00 5.0000000e+01 
[...]
POINT_DATA 1664
FIELD FieldData 2
DISPLACEMENT 3 1664  float
0.0000000e+00 0.0000000e+00 0.0000000e+00 
0.0000000e+00 0.0000000e+00 0.0000000e+00 
0.0000000e+00 0.0000000e+00 0.0000000e+00 
0.0000000e+00 0.0000000e+00 0.0000000e+00 
0.0000000e+00 -5.2736222e-11 0.0000000e+00 
0.0000000e+00 1.1757895e-14 0.0000000e+00 
0.0000000e+00 2.3468378e-12 0.0000000e+00 
0.0000000e+00 5.9072831e-13 0.0000000e+00 
0.0000000e+00 2.3598799e-08 0.0000000e+00 
0.0000000e+00 4.0227674e-13 0.0000000e+00 
0.0000000e+00 8.6795851e-08 0.0000000e+00 
0.0000000e+00 1.1968270e-12 0.0000000e+00 
0.0000000e+00 3.1761913e-09 0.0000000e+00 
0.0000000e+00 -1.9852022e-12 0.0000000e+00 
0.0000000e+00 -9.7141054e-08 0.0000000e+00 
-3.3862815e-11 1.4029464e-11 2.0495827e-11 
0.0000000e+00 -5.5995454e-08 0.0000000e+00 
0.0000000e+00 1.1498677e-11 0.0000000e+00 
0.0000000e+00 7.6784374e-09 0.0000000e+00 
0.0000000e+00 5.8057656e-12 0.0000000e+00 
0.0000000e+00 0.0000000e+00 0.0000000e+00 
0.0000000e+00 0.0000000e+00 0.0000000e+00 
0.0000000e+00 0.0000000e+00 0.0000000e+00 
0.0000000e+00 0.0000000e+00 0.0000000e+00 
0.0000000e+00 0.0000000e+00 0.0000000e+00 
0.0000000e+00 0.0000000e+00 0.0000000e+00 
0.0000000e+00 0.0000000e+00 0.0000000e+00 
0.0000000e+00 0.0000000e+00 0.0000000e+00 
0.0000000e+00 0.0000000e+00 0.0000000e+00 
0.0000000e+00 0.0000000e+00 0.0000000e+00 
0.0000000e+00 0.0000000e+00 0.0000000e+00 
0.0000000e+00 0.0000000e+00 0.0000000e+00 
0.0000000e+00 0.0000000e+00 0.0000000e+00 
0.0000000e+00 0.0000000e+00 0.0000000e+00 
0.0000000e+00 0.0000000e+00 0.0000000e+00 
0.0000000e+00 0.0000000e+00 0.0000000e+00 
0.0000000e+00 0.0000000e+00 0.0000000e+00 
0.0000000e+00 0.0000000e+00 0.0000000e+00 
0.0000000e+00 0.0000000e+00 0.0000000e+00 
0.0000000e+00 0.0000000e+00 0.0000000e+00 
0.0000000e+00 0.0000000e+00 0.0000000e+00 
0.0000000e+00 0.0000000e+00 0.0000000e+00 
0.0000000e+00 0.0000000e+00 0.0000000e+00 
0.0000000e+00 0.0000000e+00 0.0000000e+00 
0.0000000e+00 0.0000000e+00 0.0000000e+00 
0.0000000e+00 0.0000000e+00 0.0000000e+00 
0.0000000e+00 0.0000000e+00 0.0000000e+00 
0.0000000e+00 0.0000000e+00 0.0000000e+00 
0.0000000e+00 0.0000000e+00 0.0000000e+00 
0.0000000e+00 0.0000000e+00 0.0000000e+00 
0.0000000e+00 0.0000000e+00 0.0000000e+00 
0.0000000e+00 0.0000000e+00 0.0000000e+00 
0.0000000e+00 0.0000000e+00 0.0000000e+00 
0.0000000e+00 0.0000000e+00 0.0000000e+00 
0.0000000e+00 0.0000000e+00 0.0000000e+00 
0.0000000e+00 0.0000000e+00 0.0000000e+00 
0.0000000e+00 0.0000000e+00 0.0000000e+00 
0.0000000e+00 0.0000000e+00 0.0000000e+00 
0.0000000e+00 0.0000000e+00 0.0000000e+00 
0.0000000e+00 0.0000000e+00 0.0000000e+00 
0.0000000e+00 0.0000000e+00 0.0000000e+00 
0.0000000e+00 0.0000000e+00 0.0000000e+00 
0.0000000e+00 0.0000000e+00 0.0000000e+00 
0.0000000e+00 0.0000000e+00 0.0000000e+00 
0.0000000e+00 0.0000000e+00 0.0000000e+00 
0.0000000e+00 0.0000000e+00 0.0000000e+00 
0.0000000e+00 0.0000000e+00 0.0000000e+00 
0.0000000e+00 0.0000000e+00 0.0000000e+00 
0.0000000e+00 0.0000000e+00 0.0000000e+00 
0.0000000e+00 0.0000000e+00 0.0000000e+00 
0.0000000e+00 0.0000000e+00 0.0000000e+00 
0.0000000e+00 0.0000000e+00 0.0000000e+00 
0.0000000e+00 0.0000000e+00 0.0000000e+00 
0.0000000e+00 0.0000000e+00 0.0000000e+00 
0.0000000e+00 0.0000000e+00 0.0000000e+00 
0.0000000e+00 0.0000000e+00 0.0000000e+00 
0.0000000e+00 0.0000000e+00 0.0000000e+00 
0.0000000e+00 0.0000000e+00 0.0000000e+00 
0.0000000e+00 0.0000000e+00 0.0000000e+00 
0.0000000e+00 0.0000000e+00 0.0000000e+00 
0.0000000e+00 0.0000000e+00 0.0000000e+00 
0.0000000e+00 0.0000000e+00 0.0000000e+00 
0.0000000e+00 0.0000000e+00 0.0000000e+00 
0.0000000e+00 0.0000000e+00 0.0000000e+00 
0.0000000e+00 0.0000000e+00 0.0000000e+00 
0.0000000e+00 0.0000000e+00 0.0000000e+00 
0.0000000e+00 0.0000000e+00 0.0000000e+00 
0.0000000e+00 0.0000000e+00 0.0000000e+00 
0.0000000e+00 0.0000000e+00 0.0000000e+00 
0.0000000e+00 0.0000000e+00 0.0000000e+00 
0.0000000e+00 0.0000000e+00 0.0000000e+00 
0.0000000e+00 0.0000000e+00 0.0000000e+00 
0.0000000e+00 0.0000000e+00 0.0000000e+00 
0.0000000e+00 0.0000000e+00 0.0000000e+00 
0.0000000e+00 0.0000000e+00 0.0000000e+00 
0.0000000e+00 0.0000000e+00 0.0000000e+00 
0.0000000e+00 0.0000000e+00 0.0000000e+00 
0.0000000e+00 0.0000000e+00 0.0000000e+00 
0.0000000e+00 0.0000000e+00 0.0000000e+00 
0.0000000e+00 0.0000000e+00 0.0000000e+00 
0.0000000e+00 0.0000000e+00 0.0000000e+00 
0.0000000e+00 0.0000000e+00 0.0000000e+00 
0.0000000e+00 0.0000000e+00 0.0000000e+00 
0.0000000e+00 0.0000000e+00 0.0000000e+00 
0.0000000e+00 0.0000000e+00 0.0000000e+00 
0.0000000e+00 0.0000000e+00 0.0000000e+00 
0.0000000e+00 0.0000000e+00 0.0000000e+00 
0.0000000e+00 0.0000000e+00 0.0000000e+00 
0.0000000e+00 0.0000000e+00 0.0000000e+00 
0.0000000e+00 0.0000000e+00 0.0000000e+00 
0.0000000e+00 0.0000000e+00 0.0000000e+00 
0.0000000e+00 0.0000000e+00 0.0000000e+00 
0.0000000e+00 0.0000000e+00 0.0000000e+00 
0.0000000e+00 0.0000000e+00 0.0000000e+00 
0.0000000e+00 0.0000000e+00 0.0000000e+00 
0.0000000e+00 0.0000000e+00 0.0000000e+00 
0.0000000e+00 0.0000000e+00 0.0000000e+00 
0.0000000e+00 0.0000000e+00 0.0000000e+00 
0.0000000e+00 0.0000000e+00 0.0000000e+00 
0.0000000e+00 0.0000000e+00 0.0000000e+00 
0.0000000e+00 0.0000000e+00 0.0000000e+00 
0.0000000e+00 0.0000000e+00 0.0000000e+00 
0.0000000e+00 0.0000000e+00 0.0000000e+00 
0.0000000e+00 0.0000000e+00 0.0000000e+00 
0.0000000e+00 0.0000000e+00 0.0000000e+00 
0.0000000e+00 0.0000000e+00 0.0000000e+00 
0.0000000e+00 -8.3965350e-09 0.0000000e+00 
0.0000000e+00 -5.9198644e-08 0.0000000e+00 
0.0000000e+00 -2.6747944e-07 0.0000000e+00 
0.0000000e+00 -7.2356215e-07 0.0000000e+00 
0.0000000e+00 -2.0274790e-06 0.0000000e+00 
0.0000000e+00 -2.6757270e-06 0.0000000e+00 
0.0000000e+00 -3.2380703e-06 0.0000000e+00 
0.0000000e+00 -5.3670669e-06 0.0000000e+00 
0.0000000e+00 -4.7100802e-06 0.0000000e+00 
0.0000000e+00 -5.1097927e-06 0.0000000e+00 
0.0000000e+00 -3.1592426e-06 0.0000000e+00 
0.0000000e+00 -2.4144840e-06 0.0000000e+00 
0.0000000e+00 -1.9537333e-06 0.0000000e+00 
0.0000000e+00 -7.1680677e-07 0.0000000e+00 
0.0000000e+00 -6.9521809e-07 0.0000000e+00 
0.0000000e+00 -1.7982674e-07 0.0000000e+00 
0.0000000e+00 -1.1182900e-07 0.0000000e+00 
0.0000000e+00 -2.4158425e-08 0.0000000e+00 
0.0000000e+00 -1.0200400e-08 0.0000000e+00 
0.0000000e+00 5.7054548e-09 0.0000000e+00 
0.0000000e+00 1.1826073e-08 0.0000000e+00 
0.0000000e+00 -1.9831692e-08 0.0000000e+00 
0.0000000e+00 -5.5579159e-07 0.0000000e+00 
0.0000000e+00 -1.0219048e-06 0.0000000e+00 
0.0000000e+00 -1.7442096e-06 0.0000000e+00 
0.0000000e+00 -2.5914962e-06 0.0000000e+00 
0.0000000e+00 -3.6022611e-06 0.0000000e+00 
0.0000000e+00 -4.1632347e-06 0.0000000e+00 
0.0000000e+00 -4.5312731e-06 0.0000000e+00 
0.0000000e+00 -3.7204356e-06 0.0000000e+00 
0.0000000e+00 -3.3126303e-06 0.0000000e+00 
0.0000000e+00 -2.5678880e-06 0.0000000e+00 
0.0000000e+00 -1.3525221e-06 0.0000000e+00 
0.0000000e+00 -5.7836394e-07 0.0000000e+00 
0.0000000e+00 -5.3262505e-07 0.0000000e+00 
0.0000000e+00 -3.3694192e-07 0.0000000e+00 
0.0000000e+00 -1.2262875e-07 0.0000000e+00 
0.0000000e+00 -4.3025818e-08 0.0000000e+00 
0.0000000e+00 -2.9966312e-09 0.0000000e+00 
0.0000000e+00 -1.1727787e-08 0.0000000e+00 
0.0000000e+00 -2.9098677e-09 0.0000000e+00 
0.0000000e+00 -1.7281191e-09 0.0000000e+00 
0.0000000e+00 -2.7068495e-10 0.0000000e+00 
0.0000000e+00 -4.8041437e-10 0.0000000e+00 
0.0000000e+00 5.8951880e-12 0.0000000e+00 
0.0000000e+00 -1.5416245e-10 0.0000000e+00 
0.0000000e+00 4.4627097e-12 0.0000000e+00 
0.0000000e+00 -3.0745503e-11 0.0000000e+00 
0.0000000e+00 -9.5234454e-13 0.0000000e+00 
0.0000000e+00 -5.0896222e-08 0.0000000e+00 
0.0000000e+00 7.0691257e-08 0.0000000e+00 
0.0000000e+00 -3.1923301e-07 0.0000000e+00 
0.0000000e+00 1.5244318e-06 0.0000000e+00 
0.0000000e+00 1.0763227e-05 0.0000000e+00 
0.0000000e+00 2.8040873e-05 0.0000000e+00 
0.0000000e+00 -4.5859747e-06 0.0000000e+00 
0.0000000e+00 3.3062468e-05 0.0000000e+00 
0.0000000e+00 1.1175899e-05 0.0000000e+00 
0.0000000e+00 -3.3481599e-06 0.0000000e+00 
0.0000000e+00 -6.6251214e-06 0.0000000e+00 
0.0000000e+00 -9.0231033e-06 0.0000000e+00 
0.0000000e+00 -1.1642999e-05 0.0000000e+00 
0.0000000e+00 4.7980802e-07 0.0000000e+00 
0.0000000e+00 3.5750509e-07 0.0000000e+00 
0.0000000e+00 -3.7340607e-07 0.0000000e+00 
0.0000000e+00 -1.7358408e-07 0.0000000e+00 
0.0000000e+00 -4.2783665e-08 0.0000000e+00 
0.0000000e+00 -4.2727258e-08 0.0000000e+00 
0.0000000e+00 -1.4612867e-08 0.0000000e+00 
0.0000000e+00 -7.4197061e-08 0.0000000e+00 
0.0000000e+00 2.2194870e-07 0.0000000e+00 
0.0000000e+00 -1.4940127e-06 0.0000000e+00 
0.0000000e+00 4.8831944e-06 0.0000000e+00 
0.0000000e+00 1.1691816e-05 0.0000000e+00 
0.0000000e+00 2.0245310e-05 0.0000000e+00 
0.0000000e+00 5.9634825e-05 0.0000000e+00 
0.0000000e+00 -6.2713066e-06 0.0000000e+00 
0.0000000e+00 -1.9552859e-05 0.0000000e+00 
0.0000000e+00 1.6693821e-05 0.0000000e+00 
0.0000000e+00 -2.1205044e-05 0.0000000e+00 
0.0000000e+00 -1.6785496e-05 0.0000000e+00 
0.0000000e+00 -1.4157938e-06 0.0000000e+00 
0.0000000e+00 -5.1065440e-06 0.0000000e+00 
0.0000000e+00 -2.0356249e-06 0.0000000e+00 
0.0000000e+00 -1.2558802e-07 0.0000000e+00 
0.0000000e+00 -2.9084057e-07 0.0000000e+00 
0.0000000e+00 -1.5688062e-08 0.0000000e+00 
0.0000000e+00 -4.6306724e-08 0.0000000e+00 
0.0000000e+00 1.4156089e-11 0.0000000e+00 
0.0000000e+00 -9.9189297e-09 0.0000000e+00 
0.0000000e+00 -3.4901573e-09 0.0000000e+00 
0.0000000e+00 -1.4876667e-09 0.0000000e+00 
0.0000000e+00 -1.1710653e-10 0.0000000e+00 
0.0000000e+00 -1.3148385e-10 0.0000000e+00 
0.0000000e+00 -1.4942397e-10 0.0000000e+00 
0.0000000e+00 -3.7755247e-11 0.0000000e+00 
0.0000000e+00 -2.7153200e-11 0.0000000e+00 
0.0000000e+00 -5.0743038e-12 0.0000000e+00 
0.0000000e+00 -2.4752811e-09 0.0000000e+00 
0.0000000e+00 -1.8338454e-08 0.0000000e+00 
0.0000000e+00 -7.2931630e-09 0.0000000e+00 
0.0000000e+00 -1.2751234e-08 0.0000000e+00 
0.0000000e+00 -3.2720202e-12 0.0000000e+00 
0.0000000e+00 -8.9759901e-12 0.0000000e+00 
0.0000000e+00 -1.2024206e-11 0.0000000e+00 
0.0000000e+00 -5.7244777e-12 0.0000000e+00 
0.0000000e+00 8.1071398e-08 0.0000000e+00 
0.0000000e+00 2.4451708e-07 0.0000000e+00 
0.0000000e+00 3.1940203e-07 0.0000000e+00 
0.0000000e+00 4.4092977e-07 0.0000000e+00 
0.0000000e+00 -5.9143667e-07 0.0000000e+00 
0.0000000e+00 -8.5122053e-07 0.0000000e+00 
0.0000000e+00 -1.2579912e-06 0.0000000e+00 
0.0000000e+00 -1.7516319e-06 0.0000000e+00 
0.0000000e+00 -2.3359635e-06 0.0000000e+00 
0.0000000e+00 -2.0738712e-06 0.0000000e+00 
0.0000000e+00 -1.4985318e-06 0.0000000e+00 
0.0000000e+00 -8.4508935e-07 0.0000000e+00 
0.0000000e+00 -1.1262387e-06 0.0000000e+00 
0.0000000e+00 2.2052770e-08 0.0000000e+00 
0.0000000e+00 -4.4879047e-07 0.0000000e+00 
0.0000000e+00 9.2760573e-08 0.0000000e+00 
0.0000000e+00 8.2252072e-09 0.0000000e+00 
0.0000000e+00 1.0967271e-08 0.0000000e+00 
0.0000000e+00 2.2260570e-08 0.0000000e+00 
0.0000000e+00 3.8832042e-08 0.0000000e+00 
0.0000000e+00 1.6850537e-07 0.0000000e+00 
0.0000000e+00 2.2486175e-07 0.0000000e+00 
0.0000000e+00 1.7184885e-07 0.0000000e+00 
0.0000000e+00 1.5644451e-07 0.0000000e+00 
0.0000000e+00 4.1908446e-08 0.0000000e+00 
0.0000000e+00 -1.3892100e-06 0.0000000e+00 
0.0000000e+00 -1.1504130e-06 0.0000000e+00 
0.0000000e+00 -2.0591194e-06 0.0000000e+00 
0.0000000e+00 -1.9154893e-06 0.0000000e+00 
0.0000000e+00 -1.9114511e-06 0.0000000e+00 
0.0000000e+00 -1.2553702e-06 0.0000000e+00 
0.0000000e+00 -1.1813278e-06 0.0000000e+00 
0.0000000e+00 -4.7522479e-07 0.0000000e+00 
0.0000000e+00 -1.0117723e-07 0.0000000e+00 
0.0000000e+00 -1.8263252e-07 0.0000000e+00 
0.0000000e+00 -1.9312066e-07 0.0000000e+00 
0.0000000e+00 2.7320835e-08 0.0000000e+00 
0.0000000e+00 -3.9009443e-08 0.0000000e+00 
0.0000000e+00 4.0618500e-09 0.0000000e+00 
0.0000000e+00 -8.3083131e-09 0.0000000e+00 
0.0000000e+00 6.2261690e-10 0.0000000e+00 
0.0000000e+00 -1.7048947e-10 0.0000000e+00 
0.0000000e+00 -1.7845918e-10 0.0000000e+00 
0.0000000e+00 -3.4773343e-10 0.0000000e+00 
0.0000000e+00 -3.1857832e-11 0.0000000e+00 
0.0000000e+00 -1.0640423e-10 0.0000000e+00 
0.0000000e+00 1.0904845e-11 0.0000000e+00 
0.0000000e+00 -1.3524015e-11 0.0000000e+00 
0.0000000e+00 2.6510482e-12 0.0000000e+00 
0.0000000e+00 7.9816061e-08 0.0000000e+00 
3.2958431e-07 1.1175050e-07 -4.3208854e-07 
1.0389384e-06 1.3712539e-08 -1.1572696e-06 
3.3079637e-06 -6.9060815e-07 -2.4607207e-06 
7.4850018e-06 -2.6321823e-06 -3.6727245e-06 
1.2613107e-05 -7.9069932e-06 -5.2375021e-06 
2.0988251e-05 -1.6588052e-05 -5.9207805e-06 
3.0670064e-05 -2.6768417e-05 -3.4113643e-06 
3.6934856e-05 -3.8068552e-05 1.6971293e-07 
4.1483312e-05 -4.6993373e-05 5.2896899e-06 
4.2725998e-05 -5.2542786e-05 1.2893200e-05 
4.0100753e-05 -5.3534433e-05 1.6691825e-05 
2.9953449e-05 -4.7693764e-05 1.9741423e-05 
2.2171274e-05 -3.8571714e-05 1.8194296e-05 
1.2964172e-05 -2.7027827e-05 1.4909291e-05 
5.8070009e-06 -1.5612901e-05 9.9934950e-06 
1.5031377e-06 -7.8841576e-06 6.1851497e-06 
6.3260913e-08 -3.3417709e-06 3.2589032e-06 
-2.1268664e-07 -1.2095111e-06 1.4182998e-06 
-1.1588775e-07 -4.5026562e-07 5.5434390e-07 
5.2074412e-08 -1.0229411e-07 3.6524536e-08 
3.9913593e-07 7.0880823e-08 -4.6504442e-07 
1.1620901e-06 -2.5749692e-08 -1.2137676e-06 
3.3844074e-06 -7.5806423e-07 -2.4337633e-06 
7.9978608e-06 -2.7239919e-06 -3.7394655e-06 
1.3127771e-05 -8.7491635e-06 -5.7577067e-06 
2.2661738e-05 -1.8591196e-05 -4.8094794e-06 
3.1046413e-05 -2.8137296e-05 -2.9678836e-06 
3.8805389e-05 -4.0237737e-05 1.0694223e-06 
4.2476451e-05 -4.8334608e-05 6.2448962e-06 
4.1348139e-05 -5.2572523e-05 1.3723344e-05 
3.8168986e-05 -5.2431285e-05 1.7502658e-05 
2.9109993e-05 -4.6827241e-05 1.9536867e-05 
2.0442974e-05 -3.6851074e-05 1.7988825e-05 
1.1362515e-05 -2.5010819e-05 1.4358740e-05 
5.0652443e-06 -1.5027696e-05 1.0005278e-05 
1.2168391e-06 -7.0768260e-06 5.7029160e-06 
-5.1507804e-08 -2.7379995e-06 2.7957776e-06 
-2.3480111e-07 -1.1866874e-06 1.4026931e-06 
-1.8118382e-07 -4.7288688e-07 6.4877349e-07 
-1.0091235e-07 -1.9724845e-07 2.9777505e-07 
-5.2330165e-08 -8.2060659e-08 1.3298452e-07 
-2.5376817e-08 -3.5251954e-08 6.0250073e-08 
-1.1185384e-08 -1.6110633e-08 2.7111653e-08 
-5.4156652e-09 -6.7329520e-09 1.2114839e-08 
-2.4503231e-09 -2.9766976e-09 5.4251417e-09 
-1.1781460e-09 -1.2214258e-09 2.4144835e-09 
-5.3391197e-10 -5.2201077e-10 1.0565674e-09 
-2.3437483e-10 -2.4651489e-10 4.7910215e-10 
-7.2899957e-11 -8.5230122e-11 1.5962076e-10 
0.0000000e+00 -1.8411793e-12 0.0000000e+00 
0.0000000e+00 -5.3900092e-08 0.0000000e+00 
0.0000000e+00 -2.4295458e-08 0.0000000e+00 
0.0000000e+00 -3.5996063e-08 0.0000000e+00 
0.0000000e+00 6.2644659e-08 0.0000000e+00 
0.0000000e+00 -2.5983957e-06 0.0000000e+00 
0.0000000e+00 1.0562195e-05 0.0000000e+00 
0.0000000e+00 -2.5602407e-05 0.0000000e+00 
0.0000000e+00 -4.6278077e-05 0.0000000e+00 
0.0000000e+00 4.5211145e-05 0.0000000e+00 
0.0000000e+00 -3.1283354e-05 0.0000000e+00 
0.0000000e+00 1.0003088e-05 0.0000000e+00 
0.0000000e+00 6.1873034e-05 0.0000000e+00 
0.0000000e+00 6.0504171e-05 0.0000000e+00 
0.0000000e+00 3.2016094e-05 0.0000000e+00 
0.0000000e+00 3.4072433e-05 0.0000000e+00 
0.0000000e+00 1.7490956e-05 0.0000000e+00 
0.0000000e+00 -2.7401600e-06 0.0000000e+00 
0.0000000e+00 -9.0351620e-07 0.0000000e+00 
0.0000000e+00 4.3759762e-08 0.0000000e+00 
0.0000000e+00 1.7167262e-09 0.0000000e+00 
0.0000000e+00 1.6535892e-09 0.0000000e+00 
0.0000000e+00 2.7292806e-09 0.0000000e+00 
0.0000000e+00 -9.8304334e-08 0.0000000e+00 
0.0000000e+00 3.4391948e-07 0.0000000e+00 
0.0000000e+00 -2.6976827e-06 0.0000000e+00 
0.0000000e+00 1.6508850e-05 0.0000000e+00 
0.0000000e+00 -3.3105232e-05 0.0000000e+00 
0.0000000e+00 -5.2674546e-05 0.0000000e+00 
0.0000000e+00 1.1079176e-05 0.0000000e+00 
0.0000000e+00 -3.3468168e-06 0.0000000e+00 
0.0000000e+00 4.3762800e-05 0.0000000e+00 
0.0000000e+00 5.8217331e-05 0.0000000e+00 
0.0000000e+00 5.5016819e-05 0.0000000e+00 
0.0000000e+00 4.7316815e-05 0.0000000e+00 
0.0000000e+00 2.2605691e-05 0.0000000e+00 
0.0000000e+00 2.8098275e-05 0.0000000e+00 
0.0000000e+00 -5.9190638e-06 0.0000000e+00 
0.0000000e+00 -1.1197498e-07 0.0000000e+00 
0.0000000e+00 1.0344389e-08 0.0000000e+00 
0.0000000e+00 7.9458831e-09 0.0000000e+00 
0.0000000e+00 -1.8366728e-09 0.0000000e+00 
0.0000000e+00 -1.4456744e-09 0.0000000e+00 
0.0000000e+00 4.5835538e-10 0.0000000e+00 
0.0000000e+00 1.0546149e-10 0.0000000e+00 
0.0000000e+00 -1.5097401e-10 0.0000000e+00 
0.0000000e+00 3.0763117e-10 0.0000000e+00 
0.0000000e+00 -2.7761047e-11 0.0000000e+00 
0.0000000e+00 1.5765391e-11 0.0000000e+00 
0.0000000e+00 3.7349919e-12 0.0000000e+00 
0.0000000e+00 5.9299154e-12 0.0000000e+00 
0.0000000e+00 2.7946961e-12 0.0000000e+00 
0.0000000e+00 -1.1942681e-11 0.0000000e+00 
0.0000000e+00 -9.0426019e-14 0.0000000e+00 
7.9385586e-08 -1.7095980e-08 1.4147719e-07 
1.1706440e-07 -6.6811936e-07 5.4584734e-07 
1.1656425e-06 -2.5846928e-06 3.7030256e-06 
6.0860248e-06 -1.3472768e-05 1.7477671e-05 
-7.4845912e-06 -6.4341082e-05 2.7998087e-05 
-1.6452250e-05 -1.2295891e-04 4.5696594e-05 
8.1152057e-06 -1.6434712e-04 9.3364237e-05 
6.5421864e-06 -2.3322192e-04 1.2962434e-04 
3.3604720e-05 -2.5930279e-04 1.6894260e-04 
6.2040985e-05 -2.5403654e-04 1.9771841e-04 
7.7507102e-05 -2.2214933e-04 1.9540607e-04 
7.0335773e-05 -1.7614200e-04 1.5529743e-04 
5.3455427e-05 -1.2128851e-04 1.0886743e-04 
3.4065655e-05 -6.8453366e-05 6.0938764e-05 
1.4154916e-05 -2.9856936e-05 1.8778723e-05 
2.8655243e-06 -7.5684925e-06 4.0893274e-06 
3.9262534e-07 -1.9298245e-06 1.5051737e-06 
-1.5609588e-08 -6.3298518e-07 6.7214239e-07 
-7.6158216e-08 -2.1088267e-07 2.9790550e-07 
-4.5481151e-08 -6.2829670e-08 1.1302507e-07 
6.1798957e-08 2.4140059e-09 1.6207059e-07 
1.2446633e-07 -7.4594277e-07 5.0699123e-07 
1.3399631e-06 -2.5189559e-06 4.2238521e-06 
6.5884701e-06 -1.6230169e-05 1.9791434e-05 
-1.1931116e-05 -7.3238851e-05 2.7330454e-05 
-1.4077449e-05 -1.2462361e-04 4.9742801e-05 
1.1611971e-05 -1.6859456e-04 9.9860685e-05 
6.5355248e-06 -2.3955104e-04 1.3464010e-04 
3.6054877e-05 -2.6421685e-04 1.7220579e-04 
6.4092405e-05 -2.4978563e-04 2.0122385e-04 
7.6764758e-05 -2.1753371e-04 1.9479118e-04 
6.8625843e-05 -1.7181049e-04 1.5141667e-04 
5.1677642e-05 -1.1490293e-04 1.0364175e-04 
3.1787855e-05 -6.4337961e-05 5.6677396e-05 
1.2429520e-05 -2.6568123e-05 1.5829268e-05 
2.1027804e-06 -6.1774840e-06 3.5224336e-06 
3.4245295e-07 -1.7692898e-06 1.4278146e-06 
-2.6572502e-08 -6.0179445e-07 6.4469276e-07 
-7.7015230e-08 -2.2379479e-07 3.0661036e-07 
-4.5536872e-08 -9.0661118e-08 1.3990577e-07 
-2.4436552e-08 -3.9253202e-08 6.5145557e-08 
-1.1876187e-08 -1.7204513e-08 2.9743369e-08 
-5.7510663e-09 -7.1727633e-09 1.3311266e-08 
-2.6746350e-09 -3.2501215e-09 6.0439165e-09 
-1.3674959e-09 -1.2592318e-09 2.7142961e-09 
-6.2453709e-10 -6.0274807e-10 1.2635014e-09 
-2.9912686e-10 -2.6230423e-10 5.7810545e-10 
-1.4407954e-10 -1.1063634e-10 2.6106120e-10 
-3.4622378e-11 -1.4791453e-11 5.3659917e-11 
0.0000000e+00 -1.8370431e-08 0.0000000e+00 
-4.1294714e-11 -2.9523012e-12 5.2535930e-11 
0.0000000e+00 -2.3207166e-07 0.0000000e+00 
0.0000000e+00 -4.2571128e-07 0.0000000e+00 
0.0000000e+00 -4.6701994e-06 0.0000000e+00 
0.0000000e+00 -2.4218642e-05 0.0000000e+00 
0.0000000e+00 -1.4869306e-04 0.0000000e+00 
0.0000000e+00 -3.7907786e-04 0.0000000e+00 
0.0000000e+00 -5.4889481e-04 0.0000000e+00 
0.0000000e+00 -8.4690994e-04 0.0000000e+00 
0.0000000e+00 -1.0484555e-03 0.0000000e+00 
0.0000000e+00 -1.1123612e-03 0.0000000e+00 
0.0000000e+00 -1.0216702e-03 0.0000000e+00 
0.0000000e+00 -7.6130370e-04 0.0000000e+00 
0.0000000e+00 -5.1201094e-04 0.0000000e+00 
0.0000000e+00 -2.9944882e-04 0.0000000e+00 
0.0000000e+00 -4.1604904e-05 0.0000000e+00 
0.0000000e+00 -5.8809349e-08 0.0000000e+00 
0.0000000e+00 -1.6885529e-07 0.0000000e+00 
0.0000000e+00 -3.8355417e-08 0.0000000e+00 
0.0000000e+00 -2.0520948e-08 0.0000000e+00 
0.0000000e+00 -3.9423401e-08 0.0000000e+00 