# vtk DataFile Version 4.0
vtk output
ASCII
DATASET UNSTRUCTURED_GRID
POINTS 1664 float
0.0000000e+00 0.0000000e+00 0.0000000e+00 
0.0000000e+00 0.0000000e+00 5.0000000e+01 
5.0000000e+00 0.0000000e+00 0.0000000e+00 
5.0000000e+00 0.0000000e+00 5.0000000e+01 
5.0000000e+00 1.0000000e+00 0.0000000e+00 
5.0000000e+00 1.0000000e+00 5.0000000e+01 
0.0000000e+00 1.0000000e+00 0.0000000e+00 
0.0000000e+00 1.0000000e+00 5.0000000e+01 
5.0000000e+00 2.0000000e+00 0.0000000e+00 
5.0000000e+00 2.0000000e+00 5.0000000e+01 
3.0000000e+00 2.0000000e+00 0.0000000e+00 
3.0000000e+00 2.0000000e+00 5.0000000e+01 
0.0000000e+00 2.0000000e+00 0.0000000e+00 
0.0000000e+00 2.0000000e+00 5.0000000e+01 
1.5000000e+00 3.0000000e+00 0.0000000e+00 
1.5000000e+00 3.0000000e+00 5.0000000e+01 
7.5000000e-01 3.0000000e+00 0.0000000e+00 
7.5000000e-01 3.0000000e+00 5.0000000e+01 
0.0000000e+00 3.0000000e+00 0.0000000e+00 
0.0000000e+00 3.0000000e+00 5.0000000e+01 
0.0000000e+00 0.0000000e+00 1.0000000e+00 
0.0000000e+00 0.0000000e+00 2.0000000e+00 
0.0000000e+00 0.0000000e+00 3.0000000e+00 
0.0000000e+00 0.0000000e+00 4.0000000e+00 
0.0000000e+00 0.0000000e+00 5.0000000e+00 
0.0000000e+00 0.0000000e+00 6.0000000e+00 
0.0000000e+00 0.0000000e+00 7.0000000e+00 
0.0000000e+00 0.0000000e+00 8.0000000e+00 
0.0000000e+00 0.0000000e+00 9.0000000e+00 
0.0000000e+00 0.0000000e+00 1.0000000e+01 
0.0000000e+00 0.0000000e+00 1.1000000e+01 
0.0000000e+00 0.0000000e+00 1.2000000e+01 
0.0000000e+00 0.0000000e+00 1.3000000e+01 
0.0000000e+00 0.0000000e+00 1.4000000e+01 
0.0000000e+00 0.0000000e+00 1.5000000e+01 
0.0000000e+00 0.0000000e+00 1.6000000e+01 
0.0000000e+00 0.0000000e+00 1.7000000e+01 
0.0000000e+00 0.0000000e+00 1.8000000e+01 
0.0000000e+00 0.0000000e+00 1.9000000e+01 
0.0000000e+00 0.0000000e+00 2.0000000e+01 
0.0000000e+00 0.0000000e+00 2.1000000e+01 
0.0000000e+00 0.0000000e+00 2.2000000e+01 
0.0000000e+00 0.0000000e+00 2.3000000e+01 
0.0000000e+00 0.0000000e+00 2.4000000e+01 
0.0000000e+00 0.0000000e+00 2.5000000e+01 
0.0000000e+00 0.0000000e+00 2.6000000e+01 
0.0000000e+00 0.0000000e+00 2.7000000e+01 
0.0000000e+00 0.0000000e+00 2.8000000e+01 
0.0000000e+00 0.0000000e+00 2.9000000e+01 
0.0000000e+00 0.0000000e+00 3.0000000e+01 
0.0000000e+00 0.0000000e+00 3.1000000e+01 
0.0000000e+00 0.0000000e+00 3.2000000e+01 
0.0000000e+00 0.0000000e+00 3.3000000e+01 
0.0000000e+00 0.0000000e+00 3.4000000e+01 
0.0000000e+00 0.0000000e+00 3.5000000e+01 
0.0000000e+00 0.0000000e+00 3.6000000e+01 
0.0000000e+00 0.0000000e+00 3.7000000e+01 
0.0000000e+00 0.0000000e+00 3.8000000e+01 
0.0000000e+00 0.0000000e+00 3.9000000e+01 
0.0000000e+00 0.0000000e+00 4.0000000e+01 
0.0000000e+00 0.0000000e+00 4.1000000e+01 
0.0000000e+00 0.0000000e+00 4.2000000e+01 
0.0000000e+00 0.0000000e+00 4.3000000e+01 
0.0000000e+00 0.0000000e+00 4.4000000e+01 
0.0000000e+00 0.0000000e+00 4.5000000e+01 
0.0000000e+00 0.0000000e+00 4.6000000e+01 
0.0000000e+00 0.0000000e+00 4.7000000e+01 
0.0000000e+00 0.0000000e+00 4.8000000e+01 
0.0000000e+00 0.0000000e+00 4.9000000e+01 
5.0000000e+00 0.0000000e+00 1.0000000e+00 
5.0000000e+00 0.0000000e+00 2.0000000e+00 
5.0000000e+00 0.0000000e+00 3.0000000e+00 
5.0000000e+00 0.0000000e+00 4.0000000e+00 
5.0000000e+00 0.0000000e+00 5.0000000e+00 
5.0000000e+00 0.0000000e+00 6.0000000e+00 
5.0000000e+00 0.0000000e+00 7.0000000e+00 
5.0000000e+00 0.0000000e+00 8.0000000e+00 
5.0000000e+00 0.0000000e+00 9.0000000e+00 
5.0000000e+00 0.0000000e+00 1.0000000e+01 
5.0000000e+00 0.0000000e+00 1.1000000e+01 
5.0000000e+00 0.0000000e+00 1.2000000e+01 
5.0000000e+00 0.0000000e+00 1.3000000e+01 
5.0000000e+00 0.0000000e+00 1.4000000e+01 
5.0000000e+00 0.0000000e+00 1.5000000e+01 
5.0000000e+00 0.0000000e+00 1.6000000e+01 
5.0000000e+00 0.0000000e+00 1.7000000e+01 
5.0000000e+00 0.0000000e+00 1.8000000e+01 
5.0000000e+00 0.0000000e+00 1.9000000e+01 
5.0000000e+00 0.0000000e+00 2.0000000e+01 
5.0000000e+00 0.0000000e+00 2.1000000e+01 
5.0000000e+00 0.0000000e+00 2.2000000e+01 
5.0000000e+00 0.0000000e+00 2.3000000e+01 
5.0000000e+00 0.0000000e+00 2.4000000e+01 
5.0000000e+00 0.0000000e+00 2.5000000e+01 
5.0000000e+00 0.0000000e+00 2.6000000e+01 
5.0000000e+00 0.0000000e+00 2.7000000e+01 
5.0000000e+00 0.0000000e+00 2.8000000e+01 
5.0000000e+00 0.0000000e+00 2.9000000e+01 
5.0000000e+00 0.0000000e+00 3.0000000e+01 
5.0000000e+00 0.0000000e+00 3.1000000e+01 
5.0000000e+00 0.0000000e+00 3.2000000e+01 
5.0000000e+00 0.0000000e+00 3.3000000e+01 
5.0000000e+00 0.0000000e+00 3.4000000e+01 
5.0000000e+00 0.0000000e+00 3.5000000e+01 
5.0000000e+00 0.0000000e+00 3.6000000e+01 
5.0000000e+00 0.0000000e+00 3.7000000e+01 
5.0000000e+00 0.0000000e+00 3.8000000e+01 
5.0000000e+00 0.0000000e+00 3.9000000e+01 
5.0000000e+00 0.0000000e+00 4.0000000e+01 
5.0000000e+00 0.0000000e+00 4.1000000e+01 
5.0000000e+00 0.0000000e+00 4.2000000e+01 
5.0000000e+00 0.0000000e+00 4.3000000e+01 
5.0000000e+00 0.0000000e+00 4.4000000e+01 
5.0000000e+00 0.0000000e+00 4.5000000e+01 
5.0000000e+00 0.0000000e+00 4.6000000e+01 
5.0000000e+00 0.0000000e+00 4.7000000e+01 
5.0000000e+00 0.0000000e+00 4.8000000e+01 
5.0000000e+00 0.0000000e+00 4.9000000e+01 
1.0000000e+00 0.0000000e+00 0.0000000e+00 
2.0000000e+00 0.0000000e+00 0.0000000e+00 
3.0000000e+00 0.0000000e+00 0.0000000e+00 
4.0000000e+00 0.0000000e+00 0.0000000e+00 
1.0000000e+00 0.0000000e+00 5.0000000e+01 
2.0000000e+00 0.0000000e+00 5.0000000e+01 
3.0000000e+00 0.0000000e+00 5.0000000e+01 
4.0000000e+00 0.0000000e+00 5.0000000e+01 
5.0000000e+00 1.0000000e+00 1.0000000e+00 
5.0000000e+00 1.0000000e+00 2.0000000e+00 
5.0000000e+00 1.0000000e+00 3.0000000e+00 
5.0000000e+00 1.0000000e+00 4.0000000e+00 
5.0000000e+00 1.0000000e+00 5.0000000e+00 
5.0000000e+00 1.0000000e+00 6.0000000e+00 
5.0000000e+00 1.0000000e+00 7.0000000e+00 
5.0000000e+00 1.0000000e+00 8.0000000e+00 
5.0000000e+00 1.0000000e+00 9.0000000e+00 
5.0000000e+00 1.0000000e+00 1.0000000e+01 
5.0000000e+00 1.0000000e+00 1.1000000e+01 
5.0000000e+00 1.0000000e+00 1.2000000e+01 
5.0000000e+00 1.0000000e+00 1.3000000e+01 
5.0000000e+00 1.0000000e+00 1.4000000e+01 
5.0000000e+00 1.0000000e+00 1.5000000e+01 
5.0000000e+00 1.0000000e+00 1.6000000e+01 
5.0000000e+00 1.0000000e+00 1.7000000e+01 
5.0000000e+00 1.0000000e+00 1.8000000e+01 
5.0000000e+00 1.0000000e+00 1.9000000e+01 
5.0000000e+00 1.0000000e+00 2.0000000e+01 
5.0000000e+00 1.0000000e+00 2.1000000e+01 
5.0000000e+00 1.0000000e+00 2.2000000e+01 
5.0000000e+00 1.0000000e+00 2.3000000e+01 
5.0000000e+00 1.0000000e+00 2.4000000e+01 
5.0000000e+00 1.0000000e+00 2.5000000e+01 
5.0000000e+00 1.0000000e+00 2.6000000e+01 
5.0000000e+00 1.0000000e+00 2.7000000e+01 
5.0000000e+00 1.0000000e+00 2.8000000e+01 
5.0000000e+00 1.0000000e+00 2.9000000e+01 
5.0000000e+00 1.0000000e+00 3.0000000e+01 
5.0000000e+00 1.0000000e+00 3.1000000e+01 
5.0000000e+00 1.0000000e+00 3.2000000e+01 
5.0000000e+00 1.0000000e+00 3.3000000e+01 
5.0000000e+00 1.0000000e+00 3.4000000e+01 
5.0000000e+00 1.0000000e+00 3.5000000e+01 
5.0000000e+00 1.0000000e+00 3.6000000e+01 
5.0000000e+00 1.0000000e+00 3.7000000e+01 
5.0000000e+00 1.0000000e+00 3.8000000e+01 
5.0000000e+00 1.0000000e+00 3.9000000e+01 
5.0000000e+00 1.0000000e+00 4.0000000e+01 
5.0000000e+00 1.0000000e+00 4.1000000e+01 
5.0000000e+00 1.0000000e+00 4.2000000e+01 
5.0000000e+00 1.0000000e+00 4.3000000e+01 
5.0000000e+00 1.0000000e+00 4.4000000e+01 
5.0000000e+00 1.0000000e+00 4.5000000e+01 
5.0000000e+00 1.0000000e+00 4.6000000e+01 
5.0000000e+00 1.0000000e+00 4.7000000e+01 
5.0000000e+00 1.0000000e+00 4.8000000e+01 
5.0000000e+00 1.0000000e+00 4.9000000e+01 
0.0000000e+00 1.0000000e+00 1.0000000e+00 
0.0000000e+00 1.0000000e+00 2.0000000e+00 
0.0000000e+00 1.0000000e+00 3.0000000e+00 
0.0000000e+00 1.0000000e+00 4.0000000e+00 
0.0000000e+00 1.0000000e+00 5.0000000e+00 
0.0000000e+00 1.0000000e+00 6.0000000e+00 
0.0000000e+00 1.0000000e+00 7.0000000e+00 
0.0000000e+00 1.0000000e+00 8.0000000e+00 
0.0000000e+00 1.0000000e+00 9.0000000e+00 
0.0000000e+00 1.0000000e+00 1.0000000e+01 
0.0000000e+00 1.0000000e+00 1.1000000e+01 
0.0000000e+00 1.0000000e+00 1.2000000e+01 
0.0000000e+00 1.0000000e+00 1.3000000e+01 
0.0000000e+00 1.0000000e+00 1.4000000e+01 
0.0000000e+00 1.0000000e+00 1.5000000e+01 
0.0000000e+00 1.0000000e+00 1.6000000e+01 
0.0000000e+00 1.0000000e+00 1.7000000e+01 
0.0000000e+00 1.0000000e+00 1.8000000e+01 
0.0000000e+00 1.0000000e+00 1.9000000e+01 
0.0000000e+00 1.0000000e+00 2.0000000e+01 
0.0000000e+00 1.0000000e+00 2.1000000e+01 
0.0000000e+00 1.0000000e+00 2.2000000e+01 
0.0000000e+00 1.0000000e+00 2.3000000e+01 
0.0000000e+00 1.0000000e+00 2.4000000e+01 
0.0000000e+00 1.0000000e+00 2.5000000e+01 
0.0000000e+00 1.0000000e+00 2.6000000e+01 
0.0000000e+00 1.0000000e+00 2.7000000e+01 
0.0000000e+00 1.0000000e+00 2.8000000e+01 
0.0000000e+00 1.0000000e+00 2.9000000e+01 
0.0000000e+00 1.0000000e+00 3.0000000e+01 
0.0000000e+00 1.0000000e+00 3.1000000e+01 
0.0000000e+00 1.0000000e+00 3.2000000e+01 
0.0000000e+00 1.0000000e+00 3.3000000e+01 
0.0000000e+00 1.0000000e+00 3.4000000e+01 
0.0000000e+00 1.0000000e+00 3.5000000e+01 
0.0000000e+00 1.0000000e+00 3.6000000e+01 
0.0000000e+00 1.0000000e+00 3.7000000e+01 
0.0000000e+00 1.0000000e+00 3.8000000e+01 
0.0000000e+00 1.0000000e+00 3.9000000e+01 
0.0000000e+00 1.0000000e+00 4.0000000e+01 
0.0000000e+00 1.0000000e+00 4.1000000e+01 
0.0000000e+00 1.0000000e+00 4.2000000e+01 
0.0000000e+00 1.0000000e+00 4.3000000e+01 
0.0000000e+00 1.0000000e+00 4.4000000e+01 
0.0000000e+00 1.0000000e+00 4.5000000e+01 
0.0000000e+00 1.0000000e+00 4.6000000e+01 
0.0000000e+00 1.0000000e+00 4.7000000e+01 
0.0000000e+00 1.0000000e+00 4.8000000e+01 
0.0000000e+00 1.0000000e+00 4.9000000e+01 
4.0000000e+00 1.0000000e+00 0.0000000e+00 
3.0000000e+00 1.0000000e+00 0.0000000e+00 
2.0000000e+00 1.0000000e+00 0.0000000e+00 
1.0000000e+00 1.0000000e+00 0.0000000e+00 
4.0000000e+00 1.0000000e+00 5.0000000e+01 
3.0000000e+00 1.0000000e+00 5.0000000e+01 
[...]
POINT_DATA 1664
FIELD FieldData 2
DISPLACEMENT 3 1664  float
0.0000000e+00 0.0000000e+00 0.0000000e+00 
0.0000000e+00 0.0000000e+00 0.0000000e+00 
0.0000000e+00 0.0000000e+00 0.0000000e+00 
0.0000000e+00 0.0000000e+00 0.0000000e+00 
0.0000000e+00 8.1209683e-10 0.0000000e+00 
0.0000000e+00 6.0842474e-19 0.0000000e+00 
0.0000000e+00 1.2025876e-08 0.0000000e+00 
0.0000000e+00 -2.0575148e-19 0.0000000e+00 
0.0000000e+00 1.0306823e-09 0.0000000e+00 
0.0000000e+00 -2.6510566e-18 0.0000000e+00 
0.0000000e+00 3.2154734e-09 0.0000000e+00 
0.0000000e+00 -2.7544941e-18 0.0000000e+00 
0.0000000e+00 1.0892003e-08 0.0000000e+00 
0.0000000e+00 4.4486861e-18 0.0000000e+00 
0.0000000e+00 -6.3434086e-10 0.0000000e+00 
1.2369549e-19 -2.6665112e-18 2.3517807e-19 
0.0000000e+00 1.5254608e-08 0.0000000e+00 
0.0000000e+00 3.4877376e-18 0.0000000e+00 
0.0000000e+00 1.6191514e-09 0.0000000e+00 
0.0000000e+00 1.3915840e-17 0.0000000e+00 
0.0000000e+00 0.0000000e+00 0.0000000e+00 
0.0000000e+00 0.0000000e+00 0.0000000e+00 
0.0000000e+00 0.0000000e+00 0.0000000e+00 
0.0000000e+00 0.0000000e+00 0.0000000e+00 
0.0000000e+00 0.0000000e+00 0.0000000e+00 
0.0000000e+00 0.0000000e+00 0.0000000e+00 
0.0000000e+00 0.0000000e+00 0.0000000e+00 
0.0000000e+00 0.0000000e+00 0.0000000e+00 
0.0000000e+00 0.0000000e+00 0.0000000e+00 
0.0000000e+00 0.0000000e+00 0.0000000e+00 
0.0000000e+00 0.0000000e+00 0.0000000e+00 
0.0000000e+00 0.0000000e+00 0.0000000e+00 
0.0000000e+00 0.0000000e+00 0.0000000e+00 
0.0000000e+00 0.0000000e+00 0.0000000e+00 
0.0000000e+00 0.0000000e+00 0.0000000e+00 
0.0000000e+00 0.0000000e+00 0.0000000e+00 
0.0000000e+00 0.0000000e+00 0.0000000e+00 
0.0000000e+00 0.0000000e+00 0.0000000e+00 
0.0000000e+00 0.0000000e+00 0.0000000e+00 
0.0000000e+00 0.0000000e+00 0.0000000e+00 
0.0000000e+00 0.0000000e+00 0.0000000e+00 
0.0000000e+00 0.0000000e+00 0.0000000e+00 
0.0000000e+00 0.0000000e+00 0.0000000e+00 
0.0000000e+00 0.0000000e+00 0.0000000e+00 
0.0000000e+00 0.0000000e+00 0.0000000e+00 
0.0000000e+00 0.0000000e+00 0.0000000e+00 
0.0000000e+00 0.0000000e+00 0.0000000e+00 
0.0000000e+00 0.0000000e+00 0.0000000e+00 
0.0000000e+00 0.0000000e+00 0.0000000e+00 
0.0000000e+00 0.0000000e+00 0.0000000e+00 
0.0000000e+00 0.0000000e+00 0.0000000e+00 
0.0000000e+00 0.0000000e+00 0.0000000e+00 
0.0000000e+00 0.0000000e+00 0.0000000e+00 
0.0000000e+00 0.0000000e+00 0.0000000e+00 
0.0000000e+00 0.0000000e+00 0.0000000e+00 
0.0000000e+00 0.0000000e+00 0.0000000e+00 
0.0000000e+00 0.0000000e+00 0.0000000e+00 
0.0000000e+00 0.0000000e+00 0.0000000e+00 
0.0000000e+00 0.0000000e+00 0.0000000e+00 
0.0000000e+00 0.0000000e+00 0.0000000e+00 
0.0000000e+00 0.0000000e+00 0.0000000e+00 
0.0000000e+00 0.0000000e+00 0.0000000e+00 
0.0000000e+00 0.0000000e+00 0.0000000e+00 
0.0000000e+00 0.0000000e+00 0.0000000e+00 
0.0000000e+00 0.0000000e+00 0.0000000e+00 
0.0000000e+00 0.0000000e+00 0.0000000e+00 
0.0000000e+00 0.0000000e+00 0.0000000e+00 
0.0000000e+00 0.0000000e+00 0.0000000e+00 
0.0000000e+00 0.0000000e+00 0.0000000e+00 
0.0000000e+00 0.0000000e+00 0.0000000e+00 
0.0000000e+00 0.0000000e+00 0.0000000e+00 
0.0000000e+00 0.0000000e+00 0.0000000e+00 
0.0000000e+00 0.0000000e+00 0.0000000e+00 
0.0000000e+00 0.0000000e+00 0.0000000e+00 
0.0000000e+00 0.0000000e+00 0.0000000e+00 
0.0000000e+00 0.0000000e+00 0.0000000e+00 
0.0000000e+00 0.0000000e+00 0.0000000e+00 
0.0000000e+00 0.0000000e+00 0.0000000e+00 
0.0000000e+00 0.0000000e+00 0.0000000e+00 
0.0000000e+00 0.0000000e+00 0.0000000e+00 
0.0000000e+00 0.0000000e+00 0.0000000e+00 
0.0000000e+00 0.0000000e+00 0.0000000e+00 
0.0000000e+00 0.0000000e+00 0.0000000e+00 
0.0000000e+00 0.0000000e+00 0.0000000e+00 
0.0000000e+00 0.0000000e+00 0.0000000e+00 
0.0000000e+00 0.0000000e+00 0.0000000e+00 
0.0000000e+00 0.0000000e+00 0.0000000e+00 
0.0000000e+00 0.0000000e+00 0.0000000e+00 
0.0000000e+00 0.0000000e+00 0.0000000e+00 
0.0000000e+00 0.0000000e+00 0.0000000e+00 
0.0000000e+00 0.0000000e+00 0.0000000e+00 
0.0000000e+00 0.0000000e+00 0.0000000e+00 
0.0000000e+00 0.0000000e+00 0.0000000e+00 
0.0000000e+00 0.0000000e+00 0.0000000e+00 
0.0000000e+00 0.0000000e+00 0.0000000e+00 
0.0000000e+00 0.0000000e+00 0.0000000e+00 
0.0000000e+00 0.0000000e+00 0.0000000e+00 
0.0000000e+00 0.0000000e+00 0.0000000e+00 
0.0000000e+00 0.0000000e+00 0.0000000e+00 
0.0000000e+00 0.0000000e+00 0.0000000e+00 
0.0000000e+00 0.0000000e+00 0.0000000e+00 
0.0000000e+00 0.0000000e+00 0.0000000e+00 
0.0000000e+00 0.0000000e+00 0.0000000e+00 
0.0000000e+00 0.0000000e+00 0.0000000e+00 
0.0000000e+00 0.0000000e+00 0.0000000e+00 
0.0000000e+00 0.0000000e+00 0.0000000e+00 
0.0000000e+00 0.0000000e+00 0.0000000e+00 
0.0000000e+00 0.0000000e+00 0.0000000e+00 
0.0000000e+00 0.0000000e+00 0.0000000e+00 
0.0000000e+00 0.0000000e+00 0.0000000e+00 
0.0000000e+00 0.0000000e+00 0.0000000e+00 
0.0000000e+00 0.0000000e+00 0.0000000e+00 
0.0000000e+00 0.0000000e+00 0.0000000e+00 
0.0000000e+00 0.0000000e+00 0.0000000e+00 
0.0000000e+00 0.0000000e+00 0.0000000e+00 
0.0000000e+00 0.0000000e+00 0.0000000e+00 
0.0000000e+00 0.0000000e+00 0.0000000e+00 
0.0000000e+00 0.0000000e+00 0.0000000e+00 
0.0000000e+00 0.0000000e+00 0.0000000e+00 
0.0000000e+00 0.0000000e+00 0.0000000e+00 
0.0000000e+00 0.0000000e+00 0.0000000e+00 
0.0000000e+00 0.0000000e+00 0.0000000e+00 
0.0000000e+00 0.0000000e+00 0.0000000e+00 
0.0000000e+00 0.0000000e+00 0.0000000e+00 
0.0000000e+00 0.0000000e+00 0.0000000e+00 
0.0000000e+00 0.0000000e+00 0.0000000e+00 
0.0000000e+00 -1.3975922e-09 0.0000000e+00 
0.0000000e+00 -4.2877440e-10 0.0000000e+00 
0.0000000e+00 1.2200296e-08 0.0000000e+00 
0.0000000e+00 -6.1227290e-09 0.0000000e+00 
0.0000000e+00 -6.6340775e-08 0.0000000e+00 
0.0000000e+00 -6.0286652e-08 0.0000000e+00 
0.0000000e+00 -2.0391703e-08 0.0000000e+00 
0.0000000e+00 -3.3367623e-08 0.0000000e+00 
0.0000000e+00 5.6271139e-09 0.0000000e+00 
0.0000000e+00 4.3446857e-08 0.0000000e+00 
0.0000000e+00 4.3908379e-08 0.0000000e+00 
0.0000000e+00 4.5683979e-08 0.0000000e+00 
0.0000000e+00 9.3501393e-09 0.0000000e+00 
0.0000000e+00 -5.6832508e-09 0.0000000e+00 
0.0000000e+00 -1.0245428e-08 0.0000000e+00 
0.0000000e+00 -4.2745382e-10 0.0000000e+00 
0.0000000e+00 6.5289879e-10 0.0000000e+00 
0.0000000e+00 -2.2082818e-10 0.0000000e+00 
0.0000000e+00 6.2590773e-11 0.0000000e+00 
0.0000000e+00 2.1996256e-10 0.0000000e+00 
0.0000000e+00 -2.9337908e-09 0.0000000e+00 
0.0000000e+00 3.0571157e-09 0.0000000e+00 
0.0000000e+00 1.9344248e-09 0.0000000e+00 
0.0000000e+00 -1.4373184e-08 0.0000000e+00 
0.0000000e+00 -5.3733572e-08 0.0000000e+00 
0.0000000e+00 -6.1944284e-08 0.0000000e+00 
0.0000000e+00 -5.1643511e-08 0.0000000e+00 
0.0000000e+00 -5.5418450e-08 0.0000000e+00 
0.0000000e+00 4.1972559e-08 0.0000000e+00 
0.0000000e+00 6.3704981e-08 0.0000000e+00 
0.0000000e+00 5.1756594e-08 0.0000000e+00 
0.0000000e+00 2.8560798e-08 0.0000000e+00 
0.0000000e+00 5.5440013e-09 0.0000000e+00 
0.0000000e+00 -1.0120088e-08 0.0000000e+00 
0.0000000e+00 -7.3466837e-09 0.0000000e+00 
0.0000000e+00 -7.8459661e-10 0.0000000e+00 
0.0000000e+00 6.6454259e-10 0.0000000e+00 
0.0000000e+00 -1.3487603e-10 0.0000000e+00 
0.0000000e+00 4.6078460e-11 0.0000000e+00 
0.0000000e+00 -1.5446771e-11 0.0000000e+00 
0.0000000e+00 1.2383420e-13 0.0000000e+00 
0.0000000e+00 -2.6978487e-13 0.0000000e+00 
0.0000000e+00 2.6491010e-14 0.0000000e+00 
0.0000000e+00 -7.1509723e-15 0.0000000e+00 
0.0000000e+00 2.3870176e-15 0.0000000e+00 
0.0000000e+00 -3.6259771e-16 0.0000000e+00 
0.0000000e+00 7.5561665e-17 0.0000000e+00 
0.0000000e+00 1.4127117e-17 0.0000000e+00 
0.0000000e+00 -4.3221490e-18 0.0000000e+00 
0.0000000e+00 -7.0539784e-08 0.0000000e+00 
0.0000000e+00 2.8341768e-07 0.0000000e+00 
0.0000000e+00 -2.6630042e-07 0.0000000e+00 
0.0000000e+00 2.3320183e-06 0.0000000e+00 
0.0000000e+00 2.0458407e-05 0.0000000e+00 
0.0000000e+00 4.0459061e-05 0.0000000e+00 
0.0000000e+00 2.1276699e-05 0.0000000e+00 
0.0000000e+00 5.5149056e-05 0.0000000e+00 
0.0000000e+00 3.8671889e-05 0.0000000e+00 
0.0000000e+00 9.3443095e-06 0.0000000e+00 
0.0000000e+00 1.6651402e-06 0.0000000e+00 
0.0000000e+00 -4.1676726e-06 0.0000000e+00 
0.0000000e+00 -1.0916521e-05 0.0000000e+00 
0.0000000e+00 1.1004195e-06 0.0000000e+00 
0.0000000e+00 9.9427541e-07 0.0000000e+00 
0.0000000e+00 3.6210231e-08 0.0000000e+00 
0.0000000e+00 -5.2098361e-08 0.0000000e+00 
0.0000000e+00 5.7380682e-09 0.0000000e+00 
0.0000000e+00 -1.8875623e-09 0.0000000e+00 
0.0000000e+00 4.6443822e-09 0.0000000e+00 
0.0000000e+00 -4.2521521e-08 0.0000000e+00 
0.0000000e+00 -5.3248609e-08 0.0000000e+00 
0.0000000e+00 -1.3852947e-06 0.0000000e+00 
0.0000000e+00 3.9828815e-06 0.0000000e+00 
0.0000000e+00 2.6195163e-05 0.0000000e+00 
0.0000000e+00 3.9057835e-05 0.0000000e+00 
0.0000000e+00 7.7316625e-05 0.0000000e+00 
0.0000000e+00 2.6476600e-05 0.0000000e+00 
0.0000000e+00 1.0267187e-05 0.0000000e+00 
0.0000000e+00 3.7294401e-05 0.0000000e+00 
0.0000000e+00 -6.0102707e-07 0.0000000e+00 
0.0000000e+00 -1.1961154e-05 0.0000000e+00 
0.0000000e+00 -1.3560731e-06 0.0000000e+00 
0.0000000e+00 -3.1970076e-06 0.0000000e+00 
0.0000000e+00 -8.2602133e-07 0.0000000e+00 
0.0000000e+00 4.7360302e-07 0.0000000e+00 
0.0000000e+00 -8.5637360e-08 0.0000000e+00 
0.0000000e+00 4.1943586e-09 0.0000000e+00 
0.0000000e+00 6.4371002e-11 0.0000000e+00 
0.0000000e+00 -1.5679021e-11 0.0000000e+00 
0.0000000e+00 1.8120328e-12 0.0000000e+00 
0.0000000e+00 -3.5820994e-13 0.0000000e+00 
0.0000000e+00 -6.0262578e-15 0.0000000e+00 
0.0000000e+00 3.8106894e-15 0.0000000e+00 
0.0000000e+00 -1.4182072e-15 0.0000000e+00 
0.0000000e+00 2.7971715e-16 0.0000000e+00 
0.0000000e+00 5.7933468e-18 0.0000000e+00 
0.0000000e+00 -3.4019430e-18 0.0000000e+00 
0.0000000e+00 7.7094449e-18 0.0000000e+00 
0.0000000e+00 -2.4150202e-09 0.0000000e+00 
0.0000000e+00 1.1053755e-09 0.0000000e+00 
0.0000000e+00 5.6398819e-09 0.0000000e+00 
0.0000000e+00 3.8033625e-09 0.0000000e+00 
0.0000000e+00 -4.2588754e-20 0.0000000e+00 
0.0000000e+00 -3.2856069e-18 0.0000000e+00 
0.0000000e+00 -2.0427597e-18 0.0000000e+00 
0.0000000e+00 -8.7440862e-20 0.0000000e+00 
0.0000000e+00 -2.1857915e-09 0.0000000e+00 
0.0000000e+00 5.2229328e-09 0.0000000e+00 
0.0000000e+00 -1.3914764e-09 0.0000000e+00 
0.0000000e+00 -4.3601198e-09 0.0000000e+00 
0.0000000e+00 -4.3612378e-08 0.0000000e+00 
0.0000000e+00 -6.6592733e-08 0.0000000e+00 
0.0000000e+00 -8.1087457e-08 0.0000000e+00 
0.0000000e+00 -1.0485190e-07 0.0000000e+00 
0.0000000e+00 -9.0065498e-08 0.0000000e+00 
0.0000000e+00 -7.7204085e-08 0.0000000e+00 
0.0000000e+00 -3.6130107e-08 0.0000000e+00 
0.0000000e+00 -3.1695844e-09 0.0000000e+00 
0.0000000e+00 -7.8634690e-09 0.0000000e+00 
0.0000000e+00 1.7219646e-09 0.0000000e+00 
0.0000000e+00 7.5147577e-09 0.0000000e+00 
0.0000000e+00 -2.3033997e-09 0.0000000e+00 
0.0000000e+00 7.7591844e-10 0.0000000e+00 
0.0000000e+00 -1.9499845e-10 0.0000000e+00 
0.0000000e+00 1.5394469e-10 0.0000000e+00 
0.0000000e+00 -2.3917379e-10 0.0000000e+00 
0.0000000e+00 -2.7953935e-09 0.0000000e+00 
0.0000000e+00 9.7748458e-09 0.0000000e+00 
0.0000000e+00 -1.5030205e-08 0.0000000e+00 
0.0000000e+00 -8.4154035e-09 0.0000000e+00 
0.0000000e+00 1.1187250e-08 0.0000000e+00 
0.0000000e+00 -8.7217700e-08 0.0000000e+00 
0.0000000e+00 -8.6695721e-08 0.0000000e+00 
0.0000000e+00 -1.1184369e-07 0.0000000e+00 
0.0000000e+00 -1.1980016e-07 0.0000000e+00 
0.0000000e+00 -8.1267821e-08 0.0000000e+00 
0.0000000e+00 -3.2792055e-08 0.0000000e+00 
0.0000000e+00 -2.1895227e-08 0.0000000e+00 
0.0000000e+00 -7.7163991e-09 0.0000000e+00 
0.0000000e+00 1.3728593e-08 0.0000000e+00 
0.0000000e+00 1.3331852e-09 0.0000000e+00 
0.0000000e+00 -9.9994812e-10 0.0000000e+00 
0.0000000e+00 2.8394231e-10 0.0000000e+00 
0.0000000e+00 4.5891682e-10 0.0000000e+00 
0.0000000e+00 -1.3469910e-10 0.0000000e+00 
0.0000000e+00 2.6455270e-11 0.0000000e+00 
0.0000000e+00 -6.7915083e-12 0.0000000e+00 
0.0000000e+00 1.1274404e-12 0.0000000e+00 
0.0000000e+00 -1.6475429e-13 0.0000000e+00 
0.0000000e+00 1.5618498e-14 0.0000000e+00 
0.0000000e+00 8.0159688e-16 0.0000000e+00 
0.0000000e+00 -3.2848657e-18 0.0000000e+00 
0.0000000e+00 5.8293664e-18 0.0000000e+00 
0.0000000e+00 -5.2080437e-18 0.0000000e+00 
0.0000000e+00 -3.8471839e-18 0.0000000e+00 
0.0000000e+00 -2.2448594e-09 0.0000000e+00 
-1.8033868e-09 -7.9879250e-09 2.5180349e-09 
1.9298204e-08 3.7084707e-08 -1.3538514e-08 
3.6959175e-08 8.4764139e-08 -7.6186808e-09 
-5.1976247e-07 -1.0737649e-06 2.3753432e-07 
-2.0349239e-06 -3.2925468e-06 3.9371585e-07 
-3.2726659e-06 -5.7905090e-06 3.4852604e-08 
-3.7568705e-06 -7.9108013e-06 2.9747230e-08 
-4.2815391e-06 -8.7386943e-06 6.2802159e-09 
-2.8101440e-06 -6.7438859e-06 -5.9530695e-08 
-1.7454345e-06 -4.7870622e-06 -3.5533262e-07 
-4.1385661e-07 -2.2533688e-06 -2.0310327e-07 
2.6951736e-07 2.2799971e-07 -2.0721698e-08 
2.9127966e-07 6.8028288e-07 -2.5618837e-08 
1.3068171e-07 8.1313362e-07 3.3859667e-08 
2.4008018e-09 2.4992522e-07 7.9091809e-09 
-2.0027682e-09 -7.7628485e-08 -5.1093014e-09 
5.8586924e-10 7.1866433e-09 1.2584845e-09 
-2.0757086e-10 -3.6035100e-10 -7.6622195e-11 
-1.8316960e-10 -3.8661557e-10 2.8122943e-10 
1.6690662e-09 4.0045016e-09 -1.8470030e-09 
-9.6593649e-09 -2.4866482e-08 3.9136747e-09 
2.7471522e-08 6.0182430e-08 1.0763325e-08 
5.0995972e-08 5.1152099e-08 -1.2537778e-08 
-9.9921851e-07 -1.4685764e-06 3.9196829e-07 
-2.1167161e-06 -2.9867158e-06 1.1011216e-07 
-4.4112981e-06 -7.5756061e-06 6.4487452e-08 
-3.1614413e-06 -6.9587622e-06 1.3737599e-07 
-4.8801644e-06 -9.7740030e-06 -3.3442838e-08 
-3.1601869e-06 -7.6479046e-06 -1.1930437e-07 
-1.3545646e-06 -3.8200137e-06 -1.8221674e-07 
-2.7241060e-07 -1.7994391e-06 -1.3805558e-07 
2.3872889e-07 2.0350815e-07 -5.4072611e-08 
2.8985312e-07 7.4621761e-07 -6.5719079e-09 
1.2131258e-07 6.9743618e-07 1.6794033e-08 
9.2864862e-09 1.6943235e-07 7.0794450e-09 
-6.8185324e-09 -9.6441788e-08 -3.7934256e-09 
2.0848827e-09 2.2902876e-08 1.0437025e-09 
-3.5660006e-10 -4.4524366e-09 -5.2760174e-10 
2.6169887e-11 5.2818666e-10 8.9906964e-11 
-3.9997272e-12 -4.8550396e-11 -1.0581797e-11 
1.6848701e-13 5.9542267e-12 1.8861436e-12 
6.8772794e-14 -5.3144033e-15 -8.2757531e-14 
-1.6546245e-14 -1.2426671e-13 -2.3299027e-14 
1.7913449e-15 2.1103031e-14 3.1463054e-15 
-6.5367147e-17 -1.6397691e-15 -9.8619940e-17 
-4.0449972e-17 3.1710134e-17 -1.5957014e-17 
1.1425299e-17 -1.4742708e-17 -2.2126645e-18 
-2.8430611e-18 1.5919930e-18 -2.9721920e-19 
8.5515748e-20 2.3907952e-18 1.2575464e-19 
0.0000000e+00 -3.4698270e-18 0.0000000e+00 
0.0000000e+00 8.2159053e-09 0.0000000e+00 
0.0000000e+00 6.3220797e-09 0.0000000e+00 
0.0000000e+00 -4.2056289e-08 0.0000000e+00 
0.0000000e+00 3.7408924e-07 0.0000000e+00 
0.0000000e+00 -2.4423621e-06 0.0000000e+00 
0.0000000e+00 1.4774788e-05 0.0000000e+00 
0.0000000e+00 -1.6688291e-05 0.0000000e+00 
0.0000000e+00 -1.5096537e-05 0.0000000e+00 
0.0000000e+00 7.4443713e-05 0.0000000e+00 
0.0000000e+00 3.0638930e-05 0.0000000e+00 
0.0000000e+00 8.1148261e-05 0.0000000e+00 
0.0000000e+00 1.1916942e-04 0.0000000e+00 
0.0000000e+00 1.1858728e-04 0.0000000e+00 
0.0000000e+00 6.5395703e-05 0.0000000e+00 
0.0000000e+00 4.6897065e-05 0.0000000e+00 
0.0000000e+00 2.4200452e-05 0.0000000e+00 
0.0000000e+00 -1.8900018e-06 0.0000000e+00 
0.0000000e+00 -7.1980850e-07 0.0000000e+00 
0.0000000e+00 4.5415462e-08 0.0000000e+00 
0.0000000e+00 -6.4338233e-09 0.0000000e+00 
0.0000000e+00 -3.7599807e-10 0.0000000e+00 
0.0000000e+00 1.0884468e-08 0.0000000e+00 
0.0000000e+00 -8.3640757e-08 0.0000000e+00 
0.0000000e+00 2.3668090e-08 0.0000000e+00 
0.0000000e+00 -9.9668659e-07 0.0000000e+00 
0.0000000e+00 1.6860084e-05 0.0000000e+00 
0.0000000e+00 -3.3066583e-05 0.0000000e+00 
0.0000000e+00 -2.8255338e-06 0.0000000e+00 
0.0000000e+00 6.4344880e-05 0.0000000e+00 
0.0000000e+00 4.3564272e-05 0.0000000e+00 
0.0000000e+00 1.0638696e-04 0.0000000e+00 
0.0000000e+00 1.2447339e-04 0.0000000e+00 
0.0000000e+00 1.1113725e-04 0.0000000e+00 
0.0000000e+00 7.5250500e-05 0.0000000e+00 
0.0000000e+00 3.8317114e-05 0.0000000e+00 
0.0000000e+00 2.9268456e-05 0.0000000e+00 
0.0000000e+00 -3.4522334e-06 0.0000000e+00 
0.0000000e+00 -1.6103770e-07 0.0000000e+00 
0.0000000e+00 1.1298635e-08 0.0000000e+00 
0.0000000e+00 -2.3342530e-09 0.0000000e+00 
0.0000000e+00 3.1053232e-10 0.0000000e+00 
0.0000000e+00 -6.4280612e-12 0.0000000e+00 
0.0000000e+00 -1.2211998e-12 0.0000000e+00 
0.0000000e+00 2.7309589e-13 0.0000000e+00 
0.0000000e+00 -5.8141981e-14 0.0000000e+00 
0.0000000e+00 8.4119088e-15 0.0000000e+00 
0.0000000e+00 -1.5806973e-15 0.0000000e+00 
0.0000000e+00 3.3682798e-17 0.0000000e+00 
0.0000000e+00 -5.8062137e-17 0.0000000e+00 
0.0000000e+00 8.0973901e-18 0.0000000e+00 
0.0000000e+00 3.9157638e-18 0.0000000e+00 
0.0000000e+00 -2.1844765e-18 0.0000000e+00 
0.0000000e+00 7.0381159e-18 0.0000000e+00 
7.5173920e-09 3.6475296e-08 1.1246258e-08 
-1.7162563e-07 -3.8901416e-07 3.3726277e-08 
9.9344595e-07 2.3604982e-06 -7.7847943e-07 
-3.8950734e-06 -8.3382884e-06 1.2172150e-05 
-3.7381953e-05 -8.9225810e-05 2.1617392e-05 
-7.1890136e-05 -1.3968704e-04 3.1480026e-06 
-8.5808322e-05 -1.3321222e-04 1.0201201e-05 
-1.1957566e-04 -1.9764865e-04 4.9502250e-06 
-1.1410445e-04 -1.4275173e-04 -1.9220608e-05 
-8.4529696e-05 -6.2616666e-05 -1.6384032e-05 
-5.3994299e-05 -7.5941334e-06 -1.0243901e-05 
-2.9186414e-05 1.7842627e-05 -5.5263354e-06 
-1.2423146e-05 2.5102681e-05 -1.2744493e-06 
-2.2621441e-06 2.2006941e-05 8.4474402e-07 
4.8079096e-07 3.1606785e-06 5.9169946e-07 
5.5624213e-08 -3.2033441e-07 5.3997876e-08 
4.0246273e-09 -4.5600373e-08 -3.8170613e-09 
-4.3266254e-10 8.3924654e-09 1.5043849e-10 
-1.3004577e-09 -3.2465077e-09 9.4967589e-10 
4.9858770e-09 1.0649198e-08 -3.8658969e-09 
1.2355490e-08 1.6514878e-09 7.2567197e-10 
-2.5311499e-07 -3.6089992e-07 8.1228009e-08 
1.4569492e-06 2.7294013e-06 -1.0089041e-06 
-5.8617456e-06 -1.0738994e-05 1.4537897e-05 
-4.3057862e-05 -9.6625852e-05 2.2266198e-05 
-7.4034338e-05 -1.4303133e-04 2.4821084e-06 
-8.7812194e-05 -1.4370862e-04 9.1776174e-06 
-1.2064226e-04 -1.9310798e-04 2.8768159e-06 
-1.1112424e-04 -1.3110269e-04 -1.9995130e-05 
-8.2725550e-05 -5.8473259e-05 -1.5252263e-05 
-5.1621435e-05 -3.0351184e-06 -1.0048408e-05 
-2.6833864e-05 1.8687071e-05 -4.8967449e-06 
-1.1141483e-05 2.5789930e-05 -1.0048168e-06 
-1.6375039e-06 2.0662656e-05 8.9770776e-07 
5.2020113e-07 1.9294976e-06 5.4303689e-07 
2.9279208e-08 -3.0116146e-07 3.2274556e-08 
1.9274182e-09 -1.7331399e-08 -4.0496508e-09 
-3.8069142e-10 2.7917424e-09 3.8615661e-10 
8.1957066e-11 -2.8996799e-10 -2.3637668e-11 
-9.0663510e-12 7.6569487e-11 1.1452598e-12 
8.3879122e-13 -8.4391175e-12 1.2331575e-12 
-2.1026858e-14 1.2089162e-12 -2.0333595e-13 
-1.1615141e-14 -1.4675378e-13 1.8032654e-14 
2.0257869e-15 1.9584645e-14 1.4704621e-17 
-1.7099254e-16 -4.6103066e-16 -3.9543786e-17 
-1.4979182e-17 1.1613335e-16 4.3082988e-17 
-6.3592669e-18 8.1680519e-17 -5.5446814e-18 
3.0393423e-19 -2.1947661e-17 1.2098914e-18 
4.4239170e-19 -6.4456631e-18 -3.6462806e-19 
0.0000000e+00 1.8503655e-09 0.0000000e+00 
1.4290799e-19 -3.6805190e-18 -1.8525437e-19 
0.0000000e+00 -6.6745336e-08 0.0000000e+00 
0.0000000e+00 4.8284409e-07 0.0000000e+00 
0.0000000e+00 -1.0143548e-06 0.0000000e+00 
0.0000000e+00 -1.1636053e-05 0.0000000e+00 
0.0000000e+00 -1.2495759e-04 0.0000000e+00 
0.0000000e+00 -3.0096329e-04 0.0000000e+00 
0.0000000e+00 -4.2853947e-04 0.0000000e+00 
0.0000000e+00 -7.0873764e-04 0.0000000e+00 
0.0000000e+00 -8.6553115e-04 0.0000000e+00 
0.0000000e+00 -9.3563227e-04 0.0000000e+00 
0.0000000e+00 -8.8389067e-04 0.0000000e+00 
0.0000000e+00 -6.6674920e-04 0.0000000e+00 
0.0000000e+00 -4.6045100e-04 0.0000000e+00 
0.0000000e+00 -2.7998295e-04 0.0000000e+00 
0.0000000e+00 -3.7032165e-05 0.0000000e+00 
0.0000000e+00 5.2901470e-07 0.0000000e+00 
0.0000000e+00 -3.5151160e-08 0.0000000e+00 
0.0000000e+00 6.7436323e-10 0.0000000e+00 
0.0000000e+00 -6.7715733e-10 0.0000000e+00 
0.0000000e+00 1.0372352e-08 0.0000000e+00 