# vtk DataFile Version 4.0
vtk output
ASCII
DATASET UNSTRUCTURED_GRID
POINTS 20 float
0.0000000e+00 0.0000000e+00 0.0000000e+00 
1.0000000e+00 0.0000000e+00 0.0000000e+00 
1.0000000e+00 5.0000000e+00 0.0000000e+00 
0.0000000e+00 5.0000000e+00 0.0000000e+00 
1.0000000e+00 1.0000000e+01 0.0000000e+00 
0.0000000e+00 1.0000000e+01 0.0000000e+00 
1.0000000e+00 1.6666666e+00 0.0000000e+00 
1.0000000e+00 3.3333333e+00 0.0000000e+00 
0.0000000e+00 3.3333333e+00 0.0000000e+00 
0.0000000e+00 1.6666666e+00 0.0000000e+00 
1.0000000e+00 6.6666665e+00 0.0000000e+00 
1.0000000e+00 8.3333330e+00 0.0000000e+00 
0.0000000e+00 8.3333330e+00 0.0000000e+00 
0.0000000e+00 6.6666665e+00 0.0000000e+00 
5.0000000e-01 8.3333331e-01 0.0000000e+00 
5.0000000e-01 4.1666665e+00 0.0000000e+00 
5.0000000e-01 2.5000000e+00 0.0000000e+00 
5.0000000e-01 9.1666670e+00 0.0000000e+00 
5.0000000e-01 5.8333335e+00 0.0000000e+00 
5.0000000e-01 7.5000000e+00 0.0000000e+00 

CELLS 24 96
3 7 15 8
3 8 16 7
3 1 14 0
3 3 15 2
3 9 14 6
3 6 16 9
3 0 14 9
3 6 14 1
3 2 15 7
3 8 15 3
3 7 16 6
3 9 16 8
3 11 17 12
3 12 19 11
3 2 18 3
3 13 18 10
3 10 19 13
3 5 17 4
3 10 18 2
3 3 18 13
3 4 17 11
3 12 17 5
3 11 19 10
3 13 19 12

CELL_TYPES 24
5
5
5
5
5
5
5
5
5
5
5
5
5
5
5
5
5
5
5
5
5
5
5
5
POINT_DATA 20
FIELD FieldData 2
DISPLACEMENT 3 20  float
0.0000000e+00 -5.4519896e-06 0.0000000e+00 
0.0000000e+00 -5.4519896e-06 0.0000000e+00 
0.0000000e+00 -5.9039130e-06 0.0000000e+00 
0.0000000e+00 -5.9039130e-06 0.0000000e+00 
0.0000000e+00 -6.3545158e-06 0.0000000e+00 
0.0000000e+00 -6.3545158e-06 0.0000000e+00 
0.0000000e+00 -5.6027884e-06 0.0000000e+00 
0.0000000e+00 -5.7533998e-06 0.0000000e+00 
0.0000000e+00 -5.7533998e-06 0.0000000e+00 
0.0000000e+00 -5.6027884e-06 0.0000000e+00 
0.0000000e+00 -6.0542543e-06 0.0000000e+00 
0.0000000e+00 -6.2044901e-06 0.0000000e+00 
0.0000000e+00 -6.2044901e-06 0.0000000e+00 
0.0000000e+00 -6.0542543e-06 0.0000000e+00 
3.5353092e-23 -5.5274045e-06 0.0000000e+00 
-1.3666804e-24 -5.8286741e-06 0.0000000e+00 
-7.3040568e-24 -5.6781023e-06 0.0000000e+00 
1.9102723e-23 -6.2795125e-06 0.0000000e+00 
-9.5610809e-25 -5.9790873e-06 0.0000000e+00 
2.5144968e-23 -6.1293845e-06 0.0000000e+00 
VELOCITY 3 20  float
0.0000000e+00 -2.0822215e-05 0.0000000e+00 
0.0000000e+00 -2.0822215e-05 0.0000000e+00 
0.0000000e+00 -2.0812451e-05 0.0000000e+00 
0.0000000e+00 -2.0812451e-05 0.0000000e+00 
0.0000000e+00 -2.0827141e-05 0.0000000e+00 
0.0000000e+00 -2.0827141e-05 0.0000000e+00 
0.0000000e+00 -2.0814914e-05 0.0000000e+00 
0.0000000e+00 -2.0817581e-05 0.0000000e+00 
0.0000000e+00 -2.0817581e-05 0.0000000e+00 
0.0000000e+00 -2.0814914e-05 0.0000000e+00 
0.0000000e+00 -2.0821544e-05 0.0000000e+00 
0.0000000e+00 -2.0808508e-05 0.0000000e+00 
0.0000000e+00 -2.0808508e-05 0.0000000e+00 
0.0000000e+00 -2.0821544e-05 0.0000000e+00 
2.6307208e-20 -2.0820738e-05 0.0000000e+00 
-4.3648483e-21 -2.0814305e-05 0.0000000e+00 
4.8725090e-21 -2.0813572e-05 0.0000000e+00 
1.5085829e-20 -2.0814248e-05 0.0000000e+00 
-1.3213475e-21 -2.0824413e-05 0.0000000e+00 
-1.0521468e-20 -2.0811816e-05 0.0000000e+00 
CELL_DATA 24
FIELD FieldData 0
