# vtk DataFile Version 4.0
vtk output
ASCII
DATASET UNSTRUCTURED_GRID
POINTS 20 float
0.0000000e+00 0.0000000e+00 0.0000000e+00 
1.0000000e+00 0.0000000e+00 0.0000000e+00 
1.0000000e+00 5.0000000e+00 0.0000000e+00 
0.0000000e+00 5.0000000e+00 0.0000000e+00 
1.0000000e+00 1.0000000e+01 0.0000000e+00 
0.0000000e+00 1.0000000e+01 0.0000000e+00 
1.0000000e+00 1.6666666e+00 0.0000000e+00 
1.0000000e+00 3.3333333e+00 0.0000000e+00 
0.0000000e+00 3.3333333e+00 0.0000000e+00 
0.0000000e+00 1.6666666e+00 0.0000000e+00 
1.0000000e+00 6.6666665e+00 0.0000000e+00 
1.0000000e+00 8.3333330e+00 0.0000000e+00 
0.0000000e+00 8.3333330e+00 0.0000000e+00 
0.0000000e+00 6.6666665e+00 0.0000000e+00 
5.0000000e-01 8.3333331e-01 0.0000000e+00 
5.0000000e-01 4.1666665e+00 0.0000000e+00 
5.0000000e-01 2.5000000e+00 0.0000000e+00 
5.0000000e-01 9.1666670e+00 0.0000000e+00 
5.0000000e-01 5.8333335e+00 0.0000000e+00 
5.0000000e-01 7.5000000e+00 0.0000000e+00 

CELLS 24 96
3 7 15 8
3 8 16 7
3 1 14 0
3 3 15 2
3 9 14 6
3 6 16 9
3 0 14 9
3 6 14 1
3 2 15 7
3 8 15 3
3 7 16 6
3 9 16 8
3 11 17 12
3 12 19 11
3 2 18 3
3 13 18 10
3 10 19 13
3 5 17 4
3 10 18 2
3 3 18 13
3 4 17 11
3 12 17 5
3 11 19 10
3 13 19 12

CELL_TYPES 24
5
5
5
5
5
5
5
5
5
5
5
5
5
5
5
5
5
5
5
5
5
5
5
5
POINT_DATA 20
FIELD FieldData 2
DISPLACEMENT 3 20  float
0.0000000e+00 -1.1726365e-06 0.0000000e+00 
0.0000000e+00 -1.1726365e-06 0.0000000e+00 
0.0000000e+00 -1.6298286e-06 0.0000000e+00 
0.0000000e+00 -1.6298286e-06 0.0000000e+00 
0.0000000e+00 -2.0853167e-06 0.0000000e+00 
0.0000000e+00 -2.0853167e-06 0.0000000e+00 
0.0000000e+00 -1.3276616e-06 0.0000000e+00 
0.0000000e+00 -1.4803267e-06 0.0000000e+00 
0.0000000e+00 -1.4803267e-06 0.0000000e+00 
0.0000000e+00 -1.3276616e-06 0.0000000e+00 
0.0000000e+00 -1.7841930e-06 0.0000000e+00 
0.0000000e+00 -1.9338295e-06 0.0000000e+00 
0.0000000e+00 -1.9338295e-06 0.0000000e+00 
0.0000000e+00 -1.7841930e-06 0.0000000e+00 
7.1963502e-23 -1.2497339e-06 0.0000000e+00 
4.3535911e-23 -1.5546979e-06 0.0000000e+00 
1.1050182e-23 -1.4046127e-06 0.0000000e+00 
1.0836065e-22 -2.0100106e-06 0.0000000e+00 
-4.7070838e-23 -1.7072012e-06 0.0000000e+00 
-9.8641225e-23 -1.8588607e-06 0.0000000e+00 
VELOCITY 3 20  float
0.0000000e+00 -2.1911785e-05 0.0000000e+00 
0.0000000e+00 -2.1911785e-05 0.0000000e+00 
0.0000000e+00 -2.2008060e-05 0.0000000e+00 
0.0000000e+00 -2.2008060e-05 0.0000000e+00 
0.0000000e+00 -2.2493896e-05 0.0000000e+00 
0.0000000e+00 -2.2493896e-05 0.0000000e+00 
0.0000000e+00 -2.2592376e-05 0.0000000e+00 
0.0000000e+00 -2.1105841e-05 0.0000000e+00 
0.0000000e+00 -2.1105841e-05 0.0000000e+00 
0.0000000e+00 -2.2592376e-05 0.0000000e+00 
0.0000000e+00 -2.1859898e-05 0.0000000e+00 
0.0000000e+00 -2.2102795e-05 0.0000000e+00 
0.0000000e+00 -2.2102795e-05 0.0000000e+00 
0.0000000e+00 -2.1859898e-05 0.0000000e+00 
2.1589048e-21 -2.2510605e-05 0.0000000e+00 
1.0211195e-22 -2.1403706e-05 0.0000000e+00 
7.5795553e-22 -2.1809536e-05 0.0000000e+00 
-4.9630897e-22 -2.1817761e-05 0.0000000e+00 
5.6343627e-22 -2.2111117e-05 0.0000000e+00 
-7.8581234e-22 -2.1911659e-05 0.0000000e+00 
CELL_DATA 24
FIELD FieldData 0
