# vtk DataFile Version 4.0
vtk output
ASCII
DATASET UNSTRUCTURED_GRID
POINTS 20 float
0.0000000e+00 0.0000000e+00 0.0000000e+00 
1.0000000e+00 0.0000000e+00 0.0000000e+00 
1.0000000e+00 5.0000000e+00 0.0000000e+00 
0.0000000e+00 5.0000000e+00 0.0000000e+00 
1.0000000e+00 1.0000000e+01 0.0000000e+00 
0.0000000e+00 1.0000000e+01 0.0000000e+00 
1.0000000e+00 1.6666666e+00 0.0000000e+00 
1.0000000e+00 3.3333333e+00 0.0000000e+00 
0.0000000e+00 3.3333333e+00 0.0000000e+00 
0.0000000e+00 1.6666666e+00 0.0000000e+00 
1.0000000e+00 6.6666665e+00 0.0000000e+00 
1.0000000e+00 8.3333330e+00 0.0000000e+00 
0.0000000e+00 8.3333330e+00 0.0000000e+00 
0.0000000e+00 6.6666665e+00 0.0000000e+00 
5.0000000e-01 8.3333331e-01 0.0000000e+00 
5.0000000e-01 4.1666665e+00 0.0000000e+00 
5.0000000e-01 2.5000000e+00 0.0000000e+00 
5.0000000e-01 9.1666670e+00 0.0000000e+00 
5.0000000e-01 5.8333335e+00 0.0000000e+00 
5.0000000e-01 7.5000000e+00 0.0000000e+00 

CELLS 24 96
3 7 15 8
3 8 16 7
3 1 14 0
3 3 15 2
3 9 14 6
3 6 16 9
3 0 14 9
3 6 14 1
3 2 15 7
3 8 15 3
3 7 16 6
3 9 16 8
3 11 17 12
3 12 19 11
3 2 18 3
3 13 18 10
3 10 19 13
3 5 17 4
3 10 18 2
3 3 18 13
3 4 17 11
3 12 17 5
3 11 19 10
3 13 19 12

CELL_TYPES 24
5
5
5
5
5
5
5
5
5
5
5
5
5
5
5
5
5
5
5
5
5
5
5
5
POINT_DATA 20
FIELD FieldData 2
DISPLACEMENT 3 20  float
0.0000000e+00 -4.3307632e-06 0.0000000e+00 
0.0000000e+00 -4.3307632e-06 0.0000000e+00 
0.0000000e+00 -4.7858102e-06 0.0000000e+00 
0.0000000e+00 -4.7858102e-06 0.0000000e+00 
0.0000000e+00 -5.2374512e-06 0.0000000e+00 
0.0000000e+00 -5.2374512e-06 0.0000000e+00 
0.0000000e+00 -4.4827434e-06 0.0000000e+00 
0.0000000e+00 -4.6343971e-06 0.0000000e+00 
0.0000000e+00 -4.6343971e-06 0.0000000e+00 
0.0000000e+00 -4.4827434e-06 0.0000000e+00 
0.0000000e+00 -4.9366681e-06 0.0000000e+00 
0.0000000e+00 -5.0872436e-06 0.0000000e+00 
0.0000000e+00 -5.0872436e-06 0.0000000e+00 
0.0000000e+00 -4.9366681e-06 0.0000000e+00 
1.9931892e-22 -4.4067947e-06 0.0000000e+00 
1.2377090e-22 -4.7101421e-06 0.0000000e+00 
3.5036938e-23 -4.5585862e-06 0.0000000e+00 
2.3905515e-22 -5.1623952e-06 0.0000000e+00 
-1.2068866e-22 -4.8612619e-06 0.0000000e+00 
-2.5497815e-22 -5.0119934e-06 0.0000000e+00 
VELOCITY 3 20  float
0.0000000e+00 -2.0232244e-05 0.0000000e+00 
0.0000000e+00 -2.0232244e-05 0.0000000e+00 
0.0000000e+00 -2.0215217e-05 0.0000000e+00 
0.0000000e+00 -2.0215217e-05 0.0000000e+00 
0.0000000e+00 -2.0257237e-05 0.0000000e+00 
0.0000000e+00 -2.0257237e-05 0.0000000e+00 
0.0000000e+00 -2.0216812e-05 0.0000000e+00 
0.0000000e+00 -2.0256773e-05 0.0000000e+00 
0.0000000e+00 -2.0256773e-05 0.0000000e+00 
0.0000000e+00 -2.0216812e-05 0.0000000e+00 
0.0000000e+00 -2.0255107e-05 0.0000000e+00 
0.0000000e+00 -2.0213572e-05 0.0000000e+00 
0.0000000e+00 -2.0213572e-05 0.0000000e+00 
0.0000000e+00 -2.0255107e-05 0.0000000e+00 
8.7753069e-22 -2.0217811e-05 0.0000000e+00 
1.0585499e-21 -2.0245394e-05 0.0000000e+00 
-9.6671645e-22 -2.0235610e-05 0.0000000e+00 
-4.9631064e-22 -2.0229329e-05 0.0000000e+00 
-3.9817362e-22 -2.0231482e-05 0.0000000e+00 
-7.0309766e-22 -2.0215730e-05 0.0000000e+00 
CELL_DATA 24
FIELD FieldData 0
