# vtk DataFile Version 4.0
vtk output
ASCII
DATASET UNSTRUCTURED_GRID
POINTS 20 float
0.0000000e+00 0.0000000e+00 0.0000000e+00 
1.0000000e+00 0.0000000e+00 0.0000000e+00 
1.0000000e+00 5.0000000e+00 0.0000000e+00 
0.0000000e+00 5.0000000e+00 0.0000000e+00 
1.0000000e+00 1.0000000e+01 0.0000000e+00 
0.0000000e+00 1.0000000e+01 0.0000000e+00 
1.0000000e+00 1.6666666e+00 0.0000000e+00 
1.0000000e+00 3.3333333e+00 0.0000000e+00 
0.0000000e+00 3.3333333e+00 0.0000000e+00 
0.0000000e+00 1.6666666e+00 0.0000000e+00 
1.0000000e+00 6.6666665e+00 0.0000000e+00 
1.0000000e+00 8.3333330e+00 0.0000000e+00 
0.0000000e+00 8.3333330e+00 0.0000000e+00 
0.0000000e+00 6.6666665e+00 0.0000000e+00 
5.0000000e-01 8.3333331e-01 0.0000000e+00 
5.0000000e-01 4.1666665e+00 0.0000000e+00 
5.0000000e-01 2.5000000e+00 0.0000000e+00 
5.0000000e-01 9.1666670e+00 0.0000000e+00 
5.0000000e-01 5.8333335e+00 0.0000000e+00 
5.0000000e-01 7.5000000e+00 0.0000000e+00 

CELLS 24 96
3 7 15 8
3 8 16 7
3 1 14 0
3 3 15 2
3 9 14 6
3 6 16 9
3 0 14 9
3 6 14 1
3 2 15 7
3 8 15 3
3 7 16 6
3 9 16 8
3 11 17 12
3 12 19 11
3 2 18 3
3 13 18 10
3 10 19 13
3 5 17 4
3 10 18 2
3 3 18 13
3 4 17 11
3 12 17 5
3 11 19 10
3 13 19 12

CELL_TYPES 24
5
5
5
5
5
5
5
5
5
5
5
5
5
5
5
5
5
5
5
5
5
5
5
5
POINT_DATA 20
FIELD FieldData 2
DISPLACEMENT 3 20  float
0.0000000e+00 -1.1615914e-07 0.0000000e+00 
0.0000000e+00 -1.1615914e-07 0.0000000e+00 
0.0000000e+00 -5.3074842e-07 0.0000000e+00 
0.0000000e+00 -5.3074842e-07 0.0000000e+00 
0.0000000e+00 -9.8144903e-07 0.0000000e+00 
0.0000000e+00 -9.8144903e-07 0.0000000e+00 
0.0000000e+00 -2.1482889e-07 0.0000000e+00 
0.0000000e+00 -3.6036599e-07 0.0000000e+00 
0.0000000e+00 -3.6036599e-07 0.0000000e+00 
0.0000000e+00 -2.1482889e-07 0.0000000e+00 
0.0000000e+00 -6.8482620e-07 0.0000000e+00 
0.0000000e+00 -8.2558842e-07 0.0000000e+00 
0.0000000e+00 -8.2558842e-07 0.0000000e+00 
0.0000000e+00 -6.8482620e-07 0.0000000e+00 
7.6077012e-24 -1.6158266e-07 0.0000000e+00 
1.5419047e-23 -4.4527792e-07 0.0000000e+00 
5.9776767e-24 -2.8418941e-07 0.0000000e+00 
4.5494934e-23 -9.0440693e-07 0.0000000e+00 
-1.2330107e-23 -6.1015800e-07 0.0000000e+00 
-2.4195025e-23 -7.5408769e-07 0.0000000e+00 
VELOCITY 3 20  float
0.0000000e+00 -1.1964881e-05 0.0000000e+00 
0.0000000e+00 -1.1964881e-05 0.0000000e+00 
0.0000000e+00 -2.4661829e-05 0.0000000e+00 
0.0000000e+00 -2.4661829e-05 0.0000000e+00 
0.0000000e+00 -2.1403852e-05 0.0000000e+00 
0.0000000e+00 -2.1403852e-05 0.0000000e+00 
0.0000000e+00 -1.8962974e-05 0.0000000e+00 
0.0000000e+00 -2.4782945e-05 0.0000000e+00 
0.0000000e+00 -2.4782945e-05 0.0000000e+00 
0.0000000e+00 -1.8962974e-05 0.0000000e+00 
0.0000000e+00 -2.0107507e-05 0.0000000e+00 
0.0000000e+00 -2.2641509e-05 0.0000000e+00 
0.0000000e+00 -2.2641509e-05 0.0000000e+00 
0.0000000e+00 -2.0107507e-05 0.0000000e+00 
8.4699604e-22 -1.5399704e-05 0.0000000e+00 
8.9178592e-22 -2.5342732e-05 0.0000000e+00 
2.1324781e-22 -2.2167205e-05 0.0000000e+00 
1.1580527e-21 -2.2689992e-05 0.0000000e+00 
4.2910418e-22 -2.2245622e-05 0.0000000e+00 
-2.0679435e-22 -2.0794161e-05 0.0000000e+00 
CELL_DATA 24
FIELD FieldData 0
