# vtk DataFile Version 4.0
vtk output
ASCII
DATASET UNSTRUCTURED_GRID
POINTS 621 float
0.0000000e+00 0.0000000e+00 0.0000000e+00 
0.0000000e+00 0.0000000e+00 4.0000000e+01 
5.0000000e+00 0.0000000e+00 0.0000000e+00 
5.0000000e+00 0.0000000e+00 4.0000000e+01 
5.0000000e+00 1.0000000e+00 0.0000000e+00 
5.0000000e+00 1.0000000e+00 4.0000000e+01 
0.0000000e+00 1.0000000e+00 0.0000000e+00 
0.0000000e+00 1.0000000e+00 4.0000000e+01 
5.0000000e+00 2.0000000e+00 0.0000000e+00 
5.0000000e+00 2.0000000e+00 4.0000000e+01 
3.0000000e+00 2.0000000e+00 0.0000000e+00 
3.0000000e+00 2.0000000e+00 4.0000000e+01 
0.0000000e+00 2.0000000e+00 0.0000000e+00 
0.0000000e+00 2.0000000e+00 4.0000000e+01 
1.5000000e+00 3.0000000e+00 0.0000000e+00 
1.5000000e+00 3.0000000e+00 4.0000000e+01 
7.5000000e-01 3.0000000e+00 0.0000000e+00 
7.5000000e-01 3.0000000e+00 4.0000000e+01 
0.0000000e+00 3.0000000e+00 0.0000000e+00 
0.0000000e+00 3.0000000e+00 4.0000000e+01 
7.5000000e-01 3.0000000e+00 5.0000000e-01 
7.5000000e-01 3.0000000e+00 1.0000000e+00 
7.5000000e-01 3.0000000e+00 1.5000000e+00 
7.5000000e-01 3.0000000e+00 2.0000000e+00 
7.5000000e-01 3.0000000e+00 2.5000000e+00 
7.5000000e-01 3.0000000e+00 3.0000000e+00 
7.5000000e-01 3.0000000e+00 3.5000000e+00 
7.5000000e-01 3.0000000e+00 4.0000000e+00 
7.5000000e-01 3.0000000e+00 4.5000000e+00 
7.5000000e-01 3.0000000e+00 5.0000000e+00 
7.5000000e-01 3.0000000e+00 5.5000000e+00 
7.5000000e-01 3.0000000e+00 6.0000000e+00 
7.5000000e-01 3.0000000e+00 6.5000000e+00 
7.5000000e-01 3.0000000e+00 7.0000000e+00 
7.5000000e-01 3.0000000e+00 7.5000000e+00 
7.5000000e-01 3.0000000e+00 8.0000000e+00 
7.5000000e-01 3.0000000e+00 8.5000000e+00 
7.5000000e-01 3.0000000e+00 9.0000000e+00 
7.5000000e-01 3.0000000e+00 9.5000000e+00 
7.5000000e-01 3.0000000e+00 1.0000000e+01 
7.5000000e-01 3.0000000e+00 1.0500000e+01 
7.5000000e-01 3.0000000e+00 1.1000000e+01 
7.5000000e-01 3.0000000e+00 1.1500000e+01 
7.5000000e-01 3.0000000e+00 1.2000000e+01 
7.5000000e-01 3.0000000e+00 1.2500000e+01 
7.5000000e-01 3.0000000e+00 1.3000000e+01 
7.5000000e-01 3.0000000e+00 1.3500000e+01 
7.5000000e-01 3.0000000e+00 1.4000000e+01 
7.5000000e-01 3.0000000e+00 1.4500000e+01 
7.5000000e-01 3.0000000e+00 1.5000000e+01 
7.5000000e-01 3.0000000e+00 1.5500000e+01 
7.5000000e-01 3.0000000e+00 1.6000000e+01 
7.5000000e-01 3.0000000e+00 1.6500000e+01 
7.5000000e-01 3.0000000e+00 1.7000000e+01 
7.5000000e-01 3.0000000e+00 1.7500000e+01 
7.5000000e-01 3.0000000e+00 1.8000000e+01 
7.5000000e-01 3.0000000e+00 1.8500000e+01 
7.5000000e-01 3.0000000e+00 1.9000000e+01 
7.5000000e-01 3.0000000e+00 1.9500000e+01 
7.5000000e-01 3.0000000e+00 2.0000000e+01 
7.5000000e-01 3.0000000e+00 2.0500000e+01 
7.5000000e-01 3.0000000e+00 2.1000000e+01 
7.5000000e-01 3.0000000e+00 2.1500000e+01 
7.5000000e-01 3.0000000e+00 2.2000000e+01 
7.5000000e-01 3.0000000e+00 2.2500000e+01 
7.5000000e-01 3.0000000e+00 2.3000000e+01 
7.5000000e-01 3.0000000e+00 2.3500000e+01 
7.5000000e-01 3.0000000e+00 2.4000000e+01 
7.5000000e-01 3.0000000e+00 2.4500000e+01 
7.5000000e-01 3.0000000e+00 2.5000000e+01 
7.5000000e-01 3.0000000e+00 2.5500000e+01 
7.5000000e-01 3.0000000e+00 2.6000000e+01 
7.5000000e-01 3.0000000e+00 2.6500000e+01 
7.5000000e-01 3.0000000e+00 2.7000000e+01 
7.5000000e-01 3.0000000e+00 2.7500000e+01 
7.5000000e-01 3.0000000e+00 2.8000000e+01 
7.5000000e-01 3.0000000e+00 2.8500000e+01 
7.5000000e-01 3.0000000e+00 2.9000000e+01 
7.5000000e-01 3.0000000e+00 2.9500000e+01 
7.5000000e-01 3.0000000e+00 3.0000000e+01 
7.5000000e-01 3.0000000e+00 3.0500000e+01 
7.5000000e-01 3.0000000e+00 3.1000000e+01 
7.5000000e-01 3.0000000e+00 3.1500000e+01 
7.5000000e-01 3.0000000e+00 3.2000000e+01 
7.5000000e-01 3.0000000e+00 3.2500000e+01 
7.5000000e-01 3.0000000e+00 3.3000000e+01 
7.5000000e-01 3.0000000e+00 3.3500000e+01 
7.5000000e-01 3.0000000e+00 3.4000000e+01 
7.5000000e-01 3.0000000e+00 3.4500000e+01 
7.5000000e-01 3.0000000e+00 3.5000000e+01 
7.5000000e-01 3.0000000e+00 3.5500000e+01 
7.5000000e-01 3.0000000e+00 3.6000000e+01 
7.5000000e-01 3.0000000e+00 3.6500000e+01 
7.5000000e-01 3.0000000e+00 3.7000000e+01 
7.5000000e-01 3.0000000e+00 3.7500000e+01 
7.5000000e-01 3.0000000e+00 3.8000000e+01 
7.5000000e-01 3.0000000e+00 3.8500000e+01 
7.5000000e-01 3.0000000e+00 3.9000000e+01 
7.5000000e-01 3.0000000e+00 3.9500000e+01 
7.5000000e-01 3.0250001e+00 0.0000000e+00 
7.5000000e-01 3.0250001e+00 5.0000000e-01 
7.5000000e-01 3.0250001e+00 1.0000000e+00 
7.5000000e-01 3.0250001e+00 1.5000000e+00 
7.5000000e-01 3.0250001e+00 2.0000000e+00 
7.5000000e-01 3.0250001e+00 2.5000000e+00 
7.5000000e-01 3.0250001e+00 3.0000000e+00 
7.5000000e-01 3.0250001e+00 3.5000000e+00 
7.5000000e-01 3.0250001e+00 4.0000000e+00 
7.5000000e-01 3.0250001e+00 4.5000000e+00 
7.5000000e-01 3.0250001e+00 5.0000000e+00 
7.5000000e-01 3.0250001e+00 5.5000000e+00 
7.5000000e-01 3.0250001e+00 6.0000000e+00 
7.5000000e-01 3.0250001e+00 6.5000000e+00 
7.5000000e-01 3.0250001e+00 7.0000000e+00 
7.5000000e-01 3.0250001e+00 7.5000000e+00 
7.5000000e-01 3.0250001e+00 8.0000000e+00 
7.5000000e-01 3.0250001e+00 8.5000000e+00 
7.5000000e-01 3.0250001e+00 9.0000000e+00 
7.5000000e-01 3.0250001e+00 9.5000000e+00 
7.5000000e-01 3.0250001e+00 1.0000000e+01 
7.5000000e-01 3.0250001e+00 1.0500000e+01 
7.5000000e-01 3.0250001e+00 1.1000000e+01 
7.5000000e-01 3.0250001e+00 1.1500000e+01 
7.5000000e-01 3.0250001e+00 1.2000000e+01 
7.5000000e-01 3.0250001e+00 1.2500000e+01 
7.5000000e-01 3.0250001e+00 1.3000000e+01 
7.5000000e-01 3.0250001e+00 1.3500000e+01 
7.5000000e-01 3.0250001e+00 1.4000000e+01 
7.5000000e-01 3.0250001e+00 1.4500000e+01 
7.5000000e-01 3.0250001e+00 1.5000000e+01 
7.5000000e-01 3.0250001e+00 1.5500000e+01 
7.5000000e-01 3.0250001e+00 1.6000000e+01 
7.5000000e-01 3.0250001e+00 1.6500000e+01 
7.5000000e-01 3.0250001e+00 1.7000000e+01 
7.5000000e-01 3.0250001e+00 1.7500000e+01 
7.5000000e-01 3.0250001e+00 1.8000000e+01 
7.5000000e-01 3.0250001e+00 1.8500000e+01 
7.5000000e-01 3.0250001e+00 1.9000000e+01 
7.5000000e-01 3.0250001e+00 1.9500000e+01 
7.5000000e-01 3.0250001e+00 2.0000000e+01 
7.5000000e-01 3.0250001e+00 2.0500000e+01 
7.5000000e-01 3.0250001e+00 2.1000000e+01 
7.5000000e-01 3.0250001e+00 2.1500000e+01 
7.5000000e-01 3.0250001e+00 2.2000000e+01 
7.5000000e-01 3.0250001e+00 2.2500000e+01 
7.5000000e-01 3.0250001e+00 2.3000000e+01 
7.5000000e-01 3.0250001e+00 2.3500000e+01 
7.5000000e-01 3.0250001e+00 2.4000000e+01 
7.5000000e-01 3.0250001e+00 2.4500000e+01 
7.5000000e-01 3.0250001e+00 2.5000000e+01 
7.5000000e-01 3.0250001e+00 2.5500000e+01 
7.5000000e-01 3.0250001e+00 2.6000000e+01 
7.5000000e-01 3.0250001e+00 2.6500000e+01 
7.5000000e-01 3.0250001e+00 2.7000000e+01 
7.5000000e-01 3.0250001e+00 2.7500000e+01 
7.5000000e-01 3.0250001e+00 2.8000000e+01 
7.5000000e-01 3.0250001e+00 2.8500000e+01 
7.5000000e-01 3.0250001e+00 2.9000000e+01 
7.5000000e-01 3.0250001e+00 2.9500000e+01 
7.5000000e-01 3.0250001e+00 3.0000000e+01 
7.5000000e-01 3.0250001e+00 3.0500000e+01 
7.5000000e-01 3.0250001e+00 3.1000000e+01 
7.5000000e-01 3.0250001e+00 3.1500000e+01 
7.5000000e-01 3.0250001e+00 3.2000000e+01 
7.5000000e-01 3.0250001e+00 3.2500000e+01 
7.5000000e-01 3.0250001e+00 3.3000000e+01 
7.5000000e-01 3.0250001e+00 3.3500000e+01 
7.5000000e-01 3.0250001e+00 3.4000000e+01 
7.5000000e-01 3.0250001e+00 3.4500000e+01 
7.5000000e-01 3.0250001e+00 3.5000000e+01 
7.5000000e-01 3.0250001e+00 3.5500000e+01 
7.5000000e-01 3.0250001e+00 3.6000000e+01 
7.5000000e-01 3.0250001e+00 3.6500000e+01 
7.5000000e-01 3.0250001e+00 3.7000000e+01 
7.5000000e-01 3.0250001e+00 3.7500000e+01 
7.5000000e-01 3.0250001e+00 3.8000000e+01 
7.5000000e-01 3.0250001e+00 3.8500000e+01 
7.5000000e-01 3.0250001e+00 3.9000000e+01 
7.5000000e-01 3.0250001e+00 3.9500000e+01 
7.5000000e-01 3.0250001e+00 4.0000000e+01 
3.0000000e+00 2.0000000e+00 3.6000000e+01 
8.0487806e-01 3.0000000e+00 3.6000000e+01 
0.0000000e+00 0.0000000e+00 2.0000000e+00 
0.0000000e+00 0.0000000e+00 4.0000000e+00 
0.0000000e+00 0.0000000e+00 6.0000000e+00 
0.0000000e+00 0.0000000e+00 8.0000000e+00 
0.0000000e+00 0.0000000e+00 1.0000000e+01 
0.0000000e+00 0.0000000e+00 1.2000000e+01 
0.0000000e+00 0.0000000e+00 1.4000000e+01 
0.0000000e+00 0.0000000e+00 1.6000000e+01 
0.0000000e+00 0.0000000e+00 1.8000000e+01 
0.0000000e+00 0.0000000e+00 2.0000000e+01 
0.0000000e+00 0.0000000e+00 2.2000000e+01 
0.0000000e+00 0.0000000e+00 2.4000000e+01 
0.0000000e+00 0.0000000e+00 2.6000000e+01 
0.0000000e+00 0.0000000e+00 2.8000000e+01 
0.0000000e+00 0.0000000e+00 3.0000000e+01 
0.0000000e+00 0.0000000e+00 3.2000000e+01 
0.0000000e+00 0.0000000e+00 3.4000000e+01 
0.0000000e+00 0.0000000e+00 3.6000000e+01 
0.0000000e+00 0.0000000e+00 3.8000000e+01 
5.0000000e+00 0.0000000e+00 2.0000000e+00 
5.0000000e+00 0.0000000e+00 4.0000000e+00 
5.0000000e+00 0.0000000e+00 6.0000000e+00 
5.0000000e+00 0.0000000e+00 8.0000000e+00 
5.0000000e+00 0.0000000e+00 1.0000000e+01 
5.0000000e+00 0.0000000e+00 1.2000000e+01 
5.0000000e+00 0.0000000e+00 1.4000000e+01 
5.0000000e+00 0.0000000e+00 1.6000000e+01 
5.0000000e+00 0.0000000e+00 1.8000000e+01 
5.0000000e+00 0.0000000e+00 2.0000000e+01 
5.0000000e+00 0.0000000e+00 2.2000000e+01 
5.0000000e+00 0.0000000e+00 2.4000000e+01 
5.0000000e+00 0.0000000e+00 2.6000000e+01 
5.0000000e+00 0.0000000e+00 2.8000000e+01 
5.0000000e+00 0.0000000e+00 3.0000000e+01 
5.0000000e+00 0.0000000e+00 3.2000000e+01 
5.0000000e+00 0.0000000e+00 3.4000000e+01 
5.0000000e+00 0.0000000e+00 3.6000000e+01 
5.0000000e+00 0.0000000e+00 3.8000000e+01 
1.6666666e+00 0.0000000e+00 0.0000000e+00 
3.3333333e+00 0.0000000e+00 0.0000000e+00 
1.6666666e+00 0.0000000e+00 4.0000000e+01 
3.3333333e+00 0.0000000e+00 4.0000000e+01 
5.0000000e+00 1.0000000e+00 2.0000000e+00 
5.0000000e+00 1.0000000e+00 4.0000000e+00 
5.0000000e+00 1.0000000e+00 6.0000000e+00 
5.0000000e+00 1.0000000e+00 8.0000000e+00 
5.0000000e+00 1.0000000e+00 1.0000000e+01 
5.0000000e+00 1.0000000e+00 1.2000000e+01 
[...]
POINT_DATA 621
FIELD FieldData 3
DISPLACEMENT 3 621  float
0.0000000e+00 0.0000000e+00 0.0000000e+00 
0.0000000e+00 0.0000000e+00 0.0000000e+00 
0.0000000e+00 0.0000000e+00 0.0000000e+00 
0.0000000e+00 0.0000000e+00 0.0000000e+00 
5.8971580e-07 -1.3016164e-06 1.5659429e-06 
-5.4936706e-08 -3.0259962e-06 -2.3428670e-06 
0.0000000e+00 1.3818294e-05 0.0000000e+00 
0.0000000e+00 2.6522490e-05 0.0000000e+00 
2.6975224e-06 -3.0371841e-06 -9.0423221e-08 
1.1737729e-06 -7.6241217e-06 5.8172986e-06 
-3.7614240e-07 5.1250886e-06 3.8381281e-06 
-2.2519646e-06 -2.7691334e-07 3.9180632e-06 
0.0000000e+00 2.6475902e-05 0.0000000e+00 
0.0000000e+00 5.6195775e-05 0.0000000e+00 
6.6356292e-06 3.2416207e-05 2.7203570e-05 
2.9867168e-05 5.3812862e-05 7.2873140e-06 
3.0016536e-05 5.4276807e-05 3.5236466e-05 
2.2553428e-05 1.4320287e-04 6.7882779e-06 
0.0000000e+00 3.6807134e-05 0.0000000e+00 
0.0000000e+00 8.7184955e-05 0.0000000e+00 
-6.5977511e-06 5.2308318e-05 5.7289189e-06 
-1.5178243e-05 4.7945257e-05 -6.4582932e-06 
-1.6938604e-05 4.2636744e-05 -1.4777961e-05 
-1.4958473e-05 3.7619611e-05 -2.4380422e-05 
-8.9887035e-06 3.4836510e-05 -3.1311985e-05 
-5.2706973e-06 3.5740428e-05 -3.5261110e-05 
5.3268222e-06 4.1672956e-05 -4.9467610e-05 
1.7501445e-05 5.4152322e-05 -6.0153714e-05 
2.4564812e-05 7.4121133e-05 -5.5769131e-05 
3.0392413e-05 9.9661716e-05 -4.4428325e-05 
3.5449117e-05 1.2894231e-04 -3.5998513e-05 
4.5678618e-05 1.6049051e-04 -2.3696994e-05 
5.8541198e-05 1.9172976e-04 -1.0615852e-05 
6.3143023e-05 2.1552209e-04 7.6575652e-06 
4.9477796e-05 2.1905125e-04 3.6665890e-05 
2.7241507e-05 1.7372925e-04 6.8013331e-05 
-1.6094695e-05 3.7810125e-05 1.0925205e-04 
-2.7557835e-05 -2.2990485e-04 1.4901829e-04 
-5.5189230e-05 -6.9299317e-04 2.0747488e-04 
-1.1417662e-04 -1.3951757e-03 1.6280802e-04 
-2.6840306e-04 -2.3565388e-03 2.4670502e-04 
-2.8211102e-04 -3.3969269e-03 2.2504829e-04 
-1.8080983e-04 -4.2081806e-03 1.6409979e-04 
-1.5653760e-04 -4.2327177e-03 1.6826870e-04 
-2.9137687e-04 -4.0368880e-03 8.4164581e-05 
-3.5933801e-04 -3.9910041e-03 4.9720929e-05 
-2.4766292e-04 -4.2074341e-03 5.2498408e-06 
-9.5701871e-05 -4.2034844e-03 -4.2893862e-05 
-1.2173501e-04 -3.5076579e-03 -1.4376637e-04 
-2.1280187e-04 -2.4869035e-03 -1.7715245e-04 
-2.0354871e-04 -1.5881767e-03 -1.8181052e-04 
-7.9572885e-05 -8.9282799e-04 -1.3253429e-04 
-4.1295058e-05 -4.3643534e-04 -1.7176825e-04 
-2.6765365e-05 -1.6075819e-04 -1.4320499e-04 
-1.7442670e-05 -1.0578126e-05 -1.2375449e-04 
5.5759006e-06 6.0335482e-05 -9.8750606e-05 
1.9538727e-05 8.0676196e-05 -6.5381828e-05 
2.5976451e-05 7.5000120e-05 -3.6369420e-05 
1.8402063e-05 5.9760696e-05 -2.9518933e-05 
1.0442609e-05 4.2543179e-05 -3.3414482e-05 
2.2150080e-06 2.7463546e-05 -3.9001774e-05 
4.7959105e-07 1.2446473e-05 -3.9220184e-05 
-6.7921492e-06 -5.2111182e-06 -2.7269078e-05 
-1.8053455e-05 -2.4377136e-05 -8.1576982e-06 
-1.7849816e-05 -4.2404317e-05 1.0702507e-05 
-1.8175608e-05 -5.4074724e-05 2.0336507e-05 
-1.5540269e-05 -5.3805965e-05 2.1701315e-05 
-1.0182649e-05 -3.8296446e-05 1.6678934e-05 
2.8075574e-06 -4.6265382e-06 -7.1864611e-06 
7.8933990e-06 4.2262825e-05 -3.0840936e-05 
2.5790852e-05 9.6981727e-05 -5.7268560e-05 
4.7489422e-05 1.5143874e-04 -7.3927833e-05 
5.7681023e-05 1.9835020e-04 -6.4751730e-05 
6.6378954e-05 2.2862281e-04 -3.8576414e-05 
5.2929805e-05 2.2908504e-04 -5.1940124e-06 
3.1671720e-05 1.7323236e-04 3.4625366e-05 
-1.1633917e-05 1.7740378e-05 9.2311166e-05 
-2.2492663e-05 -2.7915477e-04 1.4433707e-04 
-4.7156558e-05 -7.8157766e-04 2.0344515e-04 
-1.0864845e-04 -1.5242918e-03 1.5036316e-04 
-2.6086564e-04 -2.5105686e-03 2.3150798e-04 
-2.7525096e-04 -3.5224510e-03 1.9880333e-04 
-1.7401847e-04 -4.1940534e-03 1.3041325e-04 
-1.3330717e-04 -4.1224542e-03 1.3699793e-04 
-2.7111286e-04 -3.9670495e-03 6.2046871e-05 
-3.2932643e-04 -4.0076133e-03 3.8458664e-05 
-2.1497296e-04 -4.2723776e-03 -1.8071635e-06 
-7.7400538e-05 -4.1686702e-03 -2.2748058e-05 
-1.1768335e-04 -3.3521459e-03 -1.4660804e-04 
-2.1784556e-04 -2.2990711e-03 -1.8673709e-04 
-2.1869437e-04 -1.4049947e-03 -1.9838147e-04 
-1.3137479e-04 -7.2909106e-04 -1.7167869e-04 
-5.6665063e-05 -2.9337310e-04 -1.6863881e-04 
-3.5029909e-05 -3.8755290e-05 -1.4016512e-04 
-2.6906306e-05 9.5488562e-05 -1.2552865e-04 
-9.9383863e-07 1.5416709e-04 -1.0565391e-04 
1.3765460e-05 1.6805351e-04 -7.2304872e-05 
2.4993500e-05 1.6031144e-04 -4.0559298e-05 
2.0058586e-05 1.4835846e-04 -1.6296986e-05 
0.0000000e+00 5.4212418e-05 0.0000000e+00 
0.0000000e+00 5.2351741e-05 0.0000000e+00 
0.0000000e+00 4.7967911e-05 0.0000000e+00 
0.0000000e+00 4.2593118e-05 0.0000000e+00 
0.0000000e+00 3.7628593e-05 0.0000000e+00 
0.0000000e+00 3.4837609e-05 0.0000000e+00 
0.0000000e+00 3.5731646e-05 0.0000000e+00 
0.0000000e+00 4.1712643e-05 0.0000000e+00 
0.0000000e+00 5.4305223e-05 0.0000000e+00 
0.0000000e+00 7.4127027e-05 0.0000000e+00 
0.0000000e+00 9.9651712e-05 0.0000000e+00 
0.0000000e+00 1.2900672e-04 0.0000000e+00 
0.0000000e+00 1.6072043e-04 0.0000000e+00 
0.0000000e+00 1.9206518e-04 0.0000000e+00 
0.0000000e+00 2.1644484e-04 0.0000000e+00 
0.0000000e+00 2.1978901e-04 0.0000000e+00 
0.0000000e+00 1.7382010e-04 0.0000000e+00 
0.0000000e+00 3.9018672e-05 0.0000000e+00 
0.0000000e+00 -2.3056898e-04 0.0000000e+00 
0.0000000e+00 -6.9447159e-04 0.0000000e+00 
0.0000000e+00 -1.4047695e-03 0.0000000e+00 
0.0000000e+00 -2.3642899e-03 0.0000000e+00 
0.0000000e+00 -3.4294873e-03 0.0000000e+00 
0.0000000e+00 -4.2325971e-03 0.0000000e+00 
0.0000000e+00 -4.2634667e-03 0.0000000e+00 
0.0000000e+00 -4.0507927e-03 0.0000000e+00 
0.0000000e+00 -4.0209554e-03 0.0000000e+00 
0.0000000e+00 -4.2267162e-03 0.0000000e+00 
0.0000000e+00 -4.2368453e-03 0.0000000e+00 
0.0000000e+00 -3.5252287e-03 0.0000000e+00 
0.0000000e+00 -2.5046363e-03 0.0000000e+00 
0.0000000e+00 -1.5903326e-03 0.0000000e+00 
0.0000000e+00 -8.9685718e-04 0.0000000e+00 
0.0000000e+00 -4.3627596e-04 0.0000000e+00 
0.0000000e+00 -1.5997815e-04 0.0000000e+00 
0.0000000e+00 -9.6151734e-06 0.0000000e+00 
0.0000000e+00 6.0558999e-05 0.0000000e+00 
0.0000000e+00 8.1094811e-05 0.0000000e+00 
0.0000000e+00 7.5494761e-05 0.0000000e+00 
0.0000000e+00 5.9951217e-05 0.0000000e+00 
0.0000000e+00 4.2821081e-05 0.0000000e+00 
0.0000000e+00 2.7476412e-05 0.0000000e+00 
0.0000000e+00 1.2240193e-05 0.0000000e+00 
0.0000000e+00 -5.2755831e-06 0.0000000e+00 
0.0000000e+00 -2.4480001e-05 0.0000000e+00 
0.0000000e+00 -4.2426273e-05 0.0000000e+00 
0.0000000e+00 -5.3973075e-05 0.0000000e+00 
0.0000000e+00 -5.3790660e-05 0.0000000e+00 
0.0000000e+00 -3.7923448e-05 0.0000000e+00 
0.0000000e+00 -4.5994911e-06 0.0000000e+00 
0.0000000e+00 4.2390217e-05 0.0000000e+00 
0.0000000e+00 9.6956937e-05 0.0000000e+00 
0.0000000e+00 1.5151760e-04 0.0000000e+00 
0.0000000e+00 1.9858369e-04 0.0000000e+00 
0.0000000e+00 2.2938869e-04 0.0000000e+00 
0.0000000e+00 2.3000815e-04 0.0000000e+00 
0.0000000e+00 1.7336116e-04 0.0000000e+00 
0.0000000e+00 1.8979428e-05 0.0000000e+00 
0.0000000e+00 -2.8030123e-04 0.0000000e+00 
0.0000000e+00 -7.8353233e-04 0.0000000e+00 
0.0000000e+00 -1.5349848e-03 0.0000000e+00 
0.0000000e+00 -2.5196809e-03 0.0000000e+00 
0.0000000e+00 -3.5575568e-03 0.0000000e+00 
0.0000000e+00 -4.2181630e-03 0.0000000e+00 
0.0000000e+00 -4.1520782e-03 0.0000000e+00 
0.0000000e+00 -3.9805858e-03 0.0000000e+00 
0.0000000e+00 -4.0392829e-03 0.0000000e+00 
0.0000000e+00 -4.2937608e-03 0.0000000e+00 
0.0000000e+00 -4.2025386e-03 0.0000000e+00 
0.0000000e+00 -3.3683970e-03 0.0000000e+00 
0.0000000e+00 -2.3152444e-03 0.0000000e+00 
0.0000000e+00 -1.4067023e-03 0.0000000e+00 
0.0000000e+00 -7.3251181e-04 0.0000000e+00 
0.0000000e+00 -2.9339831e-04 0.0000000e+00 
0.0000000e+00 -3.7670088e-05 0.0000000e+00 
0.0000000e+00 9.6277778e-05 0.0000000e+00 
0.0000000e+00 1.5455685e-04 0.0000000e+00 
0.0000000e+00 1.6837315e-04 0.0000000e+00 
0.0000000e+00 1.6068573e-04 0.0000000e+00 
0.0000000e+00 1.4872913e-04 0.0000000e+00 
0.0000000e+00 1.4343404e-04 0.0000000e+00 
2.4384646e-05 -4.3085663e-05 -7.0443939e-08 
-1.0757591e-04 -6.5598870e-04 -1.4807167e-04 
0.0000000e+00 0.0000000e+00 0.0000000e+00 
0.0000000e+00 0.0000000e+00 0.0000000e+00 
0.0000000e+00 0.0000000e+00 0.0000000e+00 
0.0000000e+00 0.0000000e+00 0.0000000e+00 
0.0000000e+00 0.0000000e+00 0.0000000e+00 
0.0000000e+00 0.0000000e+00 0.0000000e+00 
0.0000000e+00 0.0000000e+00 0.0000000e+00 
0.0000000e+00 0.0000000e+00 0.0000000e+00 
0.0000000e+00 0.0000000e+00 0.0000000e+00 
0.0000000e+00 0.0000000e+00 0.0000000e+00 
0.0000000e+00 0.0000000e+00 0.0000000e+00 
0.0000000e+00 0.0000000e+00 0.0000000e+00 
0.0000000e+00 0.0000000e+00 0.0000000e+00 
0.0000000e+00 0.0000000e+00 0.0000000e+00 
0.0000000e+00 0.0000000e+00 0.0000000e+00 
0.0000000e+00 0.0000000e+00 0.0000000e+00 
0.0000000e+00 0.0000000e+00 0.0000000e+00 
0.0000000e+00 0.0000000e+00 0.0000000e+00 
0.0000000e+00 0.0000000e+00 0.0000000e+00 
0.0000000e+00 0.0000000e+00 0.0000000e+00 
0.0000000e+00 0.0000000e+00 0.0000000e+00 
0.0000000e+00 0.0000000e+00 0.0000000e+00 
0.0000000e+00 0.0000000e+00 0.0000000e+00 
0.0000000e+00 0.0000000e+00 0.0000000e+00 
0.0000000e+00 0.0000000e+00 0.0000000e+00 
0.0000000e+00 0.0000000e+00 0.0000000e+00 
0.0000000e+00 0.0000000e+00 0.0000000e+00 
0.0000000e+00 0.0000000e+00 0.0000000e+00 
0.0000000e+00 0.0000000e+00 0.0000000e+00 
0.0000000e+00 0.0000000e+00 0.0000000e+00 
0.0000000e+00 0.0000000e+00 0.0000000e+00 
0.0000000e+00 0.0000000e+00 0.0000000e+00 
0.0000000e+00 0.0000000e+00 0.0000000e+00 
0.0000000e+00 0.0000000e+00 0.0000000e+00 
0.0000000e+00 0.0000000e+00 0.0000000e+00 
0.0000000e+00 0.0000000e+00 0.0000000e+00 
0.0000000e+00 0.0000000e+00 0.0000000e+00 
0.0000000e+00 0.0000000e+00 0.0000000e+00 
0.0000000e+00 0.0000000e+00 0.0000000e+00 
0.0000000e+00 0.0000000e+00 0.0000000e+00 
0.0000000e+00 0.0000000e+00 0.0000000e+00 
0.0000000e+00 0.0000000e+00 0.0000000e+00 
-3.1759575e-06 3.1158942e-07 3.8259856e-07 
-7.2189523e-06 3.3062423e-07 -3.9948318e-06 
-2.4702774e-06 3.4862259e-07 -9.8298297e-06 
8.2166634e-06 -1.2005023e-06 -9.1617849e-06 
3.0944266e-05 -5.2473920e-06 -1.1103024e-05 
5.1985968e-05 -6.3529028e-06 -1.1529542e-08 
4.5773311e-05 -5.4287043e-06 1.2174150e-05 
2.2398248e-05 -4.4931180e-06 7.9204146e-06 
8.0156397e-06 -1.0875523e-06 3.0197687e-06 
2.0042748e-06 2.1656341e-07 2.1392707e-06 
-2.8881632e-06 -3.7632099e-06 4.1802496e-06 
-6.4062365e-06 -1.9648980e-06 9.6238045e-07 
-6.4214664e-06 4.3320588e-06 -1.1214574e-06 
5.5316050e-06 -5.3920985e-07 -8.2263077e-06 
3.2626373e-05 -9.6082349e-06 -1.1020431e-05 
5.4816144e-05 -1.0152124e-05 8.0788806e-07 
5.6409062e-05 -1.1390470e-05 1.3737787e-05 
2.2203127e-05 -6.7651154e-06 1.2842184e-05 
-5.3866079e-06 6.0167199e-06 -4.2727970e-07 
0.0000000e+00 1.4545071e-05 0.0000000e+00 
0.0000000e+00 2.0758389e-05 0.0000000e+00 
0.0000000e+00 5.6097560e-05 0.0000000e+00 
0.0000000e+00 3.6273803e-05 0.0000000e+00 
0.0000000e+00 -2.0149669e-04 0.0000000e+00 
0.0000000e+00 -5.7590159e-04 0.0000000e+00 
0.0000000e+00 -5.4198538e-04 0.0000000e+00 
0.0000000e+00 -1.8393504e-04 0.0000000e+00 
0.0000000e+00 4.5396428e-06 0.0000000e+00 
0.0000000e+00 7.6579681e-06 0.0000000e+00 
0.0000000e+00 -6.9641974e-06 0.0000000e+00 
0.0000000e+00 -1.7127804e-05 0.0000000e+00 
0.0000000e+00 5.4912856e-05 0.0000000e+00 
0.0000000e+00 3.9060771e-05 0.0000000e+00 
0.0000000e+00 -2.1069359e-04 0.0000000e+00 
0.0000000e+00 -5.6150602e-04 0.0000000e+00 
0.0000000e+00 -5.3353561e-04 0.0000000e+00 
0.0000000e+00 -1.6288456e-04 0.0000000e+00 
0.0000000e+00 3.4666471e-05 0.0000000e+00 
-2.1660769e-06 1.7792306e-06 -1.3323425e-07 
-1.6908238e-06 8.7860381e-06 2.5069428e-06 
-2.5783286e-06 -1.9619754e-06 2.5560521e-06 
-7.4033369e-06 1.6127266e-05 -9.2249638e-06 
-2.1021478e-06 -4.7722716e-07 5.9862026e-07 
-6.1736705e-06 7.6008274e-07 -5.2990858e-06 
1.4841447e-06 3.8513218e-07 -1.4242169e-05 
2.2384993e-05 -3.6391350e-06 -1.5053338e-05 
3.2719872e-05 -3.9931460e-06 -7.6543563e-07 
3.1659965e-05 -3.8814778e-06 6.5368499e-06 
1.7668783e-05 -8.2967239e-07 1.3348515e-05 
6.3724033e-06 3.9186386e-08 2.9519376e-07 
8.2356537e-06 -4.1921365e-07 -9.4800669e-07 
2.4482144e-06 -1.3081360e-06 4.0458367e-06 
-3.6833715e-06 -7.1629720e-06 6.4216538e-06 
-7.3872798e-06 -2.5589341e-06 -3.3242518e-06 
-2.3041157e-06 5.4372413e-06 -7.2948151e-06 
2.2491633e-05 -1.7704714e-06 -8.1003209e-06 
3.5345369e-05 -9.1426582e-06 -4.5926316e-07 
3.9554183e-05 -8.6289037e-06 7.0191791e-06 
3.1876501e-05 -8.5705587e-06 1.6140695e-05 
1.0320477e-05 -7.4012195e-07 -1.6364820e-07 
-5.0170374e-06 5.5918599e-06 -2.0540008e-06 
-1.3864189e-06 1.7426924e-05 6.4929109e-06 
0.0000000e+00 2.7848882e-05 0.0000000e+00 
0.0000000e+00 3.4260109e-05 0.0000000e+00 
0.0000000e+00 9.5796488e-05 0.0000000e+00 
0.0000000e+00 8.1507853e-05 0.0000000e+00 
0.0000000e+00 -4.2822005e-04 0.0000000e+00 
0.0000000e+00 -1.2655850e-03 0.0000000e+00 
0.0000000e+00 -1.1899818e-03 0.0000000e+00 
0.0000000e+00 -3.4577085e-04 0.0000000e+00 
0.0000000e+00 2.2687907e-05 0.0000000e+00 
0.0000000e+00 1.2276682e-05 0.0000000e+00 
0.0000000e+00 -1.0081797e-05 0.0000000e+00 
0.0000000e+00 -3.4328277e-05 0.0000000e+00 
0.0000000e+00 1.0498471e-04 0.0000000e+00 
0.0000000e+00 8.3226521e-05 0.0000000e+00 
0.0000000e+00 -4.6014486e-04 0.0000000e+00 
0.0000000e+00 -1.2380469e-03 0.0000000e+00 
0.0000000e+00 -1.1545480e-03 0.0000000e+00 
0.0000000e+00 -2.9652083e-04 0.0000000e+00 
0.0000000e+00 7.7678829e-05 0.0000000e+00 
-2.5989123e-06 3.3752920e-05 -1.6365972e-05 
-1.2462551e-05 2.2901440e-05 -1.0823511e-05 
1.7864388e-05 2.8141376e-05 -8.4327308e-05 
7.0553870e-05 9.2156442e-05 -3.1297306e-05 
5.4062384e-05 1.4605983e-04 1.1107158e-04 
-2.7029426e-04 -4.0553542e-04 3.7585926e-04 
-7.1715203e-04 -1.4125813e-03 1.8349708e-04 
-6.3404883e-04 -1.4763912e-03 -1.1423229e-04 
-1.6178584e-04 -2.9959402e-04 -2.6093374e-04 
1.6138174e-05 3.3755008e-05 -1.2108932e-04 
1.4877022e-05 2.2483051e-05 -2.7081865e-05 
-2.4030289e-05 -2.4759674e-05 1.3495841e-05 
-1.5068649e-05 -3.3591477e-05 -6.3208961e-07 
7.4353120e-05 7.2445488e-05 -1.0115577e-04 
5.7239937e-05 1.6021695e-04 8.4765619e-05 
-2.8445301e-04 -4.4497399e-04 3.6613527e-04 
-6.7457906e-04 -1.3430249e-03 1.3264451e-04 
-6.2015012e-04 -1.4340179e-03 -9.7478907e-05 
-1.4093034e-04 -2.9942911e-04 -2.3970049e-04 
6.3344773e-06 8.9086250e-05 -1.3907740e-04 
0.0000000e+00 4.3731216e-05 0.0000000e+00 
0.0000000e+00 4.0863986e-05 0.0000000e+00 
0.0000000e+00 1.3582151e-04 0.0000000e+00 
0.0000000e+00 1.6634361e-04 0.0000000e+00 
0.0000000e+00 -8.1390911e-04 0.0000000e+00 
0.0000000e+00 -2.4343957e-03 0.0000000e+00 
0.0000000e+00 -2.2312938e-03 0.0000000e+00 
0.0000000e+00 -5.7403272e-04 0.0000000e+00 
0.0000000e+00 6.4434040e-05 0.0000000e+00 
0.0000000e+00 2.0706031e-05 0.0000000e+00 
0.0000000e+00 -1.3138052e-05 0.0000000e+00 
0.0000000e+00 -5.6841636e-05 0.0000000e+00 
0.0000000e+00 1.5334949e-04 0.0000000e+00 
0.0000000e+00 1.6007922e-04 0.0000000e+00 
0.0000000e+00 -8.9810154e-04 0.0000000e+00 
0.0000000e+00 -2.4021619e-03 0.0000000e+00 
0.0000000e+00 -2.1800310e-03 0.0000000e+00 
0.0000000e+00 -4.5843635e-04 0.0000000e+00 
0.0000000e+00 1.4402281e-04 0.0000000e+00 
-7.3431679e-06 1.8183327e-06 -3.0551716e-06 
-4.1106491e-06 6.9985708e-06 -1.6817499e-05 
1.1092337e-05 2.3479308e-05 -6.0401935e-06 
2.5529198e-05 5.1682655e-05 2.1422533e-05 
5.4885772e-05 -4.0345240e-05 1.6946784e-05 
5.1543575e-05 -1.1160193e-04 5.9736171e-06 
3.9724615e-05 -1.2005318e-04 1.0850837e-05 
3.1396554e-05 -6.7226159e-05 -3.9248207e-06 
5.1003722e-06 7.5281664e-06 -2.5582704e-05 
-2.7241873e-07 2.6414677e-06 -1.5503350e-05 
-1.6856709e-05 -6.5678842e-06 -1.0453259e-06 
-1.0006121e-05 -7.4916520e-06 -5.9367821e-06 
9.5787254e-06 1.9721514e-05 -8.6480341e-06 
1.7628936e-05 5.2691841e-05 1.2504618e-05 
5.9821461e-05 -4.3193253e-05 1.3949032e-05 
6.5468987e-05 -1.0120392e-04 8.3534642e-06 
4.9093160e-05 -1.1152688e-04 2.2825208e-05 
-6.7577789e-06 1.4696338e-05 -2.2662571e-05 
-3.0543873e-05 -2.3585197e-04 -1.1254730e-04 
0.0000000e+00 0.0000000e+00 0.0000000e+00 
0.0000000e+00 0.0000000e+00 0.0000000e+00 
0.0000000e+00 0.0000000e+00 0.0000000e+00 
0.0000000e+00 0.0000000e+00 0.0000000e+00 
0.0000000e+00 0.0000000e+00 0.0000000e+00 
0.0000000e+00 0.0000000e+00 0.0000000e+00 
0.0000000e+00 0.0000000e+00 0.0000000e+00 
0.0000000e+00 0.0000000e+00 0.0000000e+00 
0.0000000e+00 0.0000000e+00 0.0000000e+00 
0.0000000e+00 0.0000000e+00 0.0000000e+00 
0.0000000e+00 0.0000000e+00 0.0000000e+00 
0.0000000e+00 0.0000000e+00 0.0000000e+00 
0.0000000e+00 0.0000000e+00 0.0000000e+00 
0.0000000e+00 0.0000000e+00 0.0000000e+00 
0.0000000e+00 0.0000000e+00 0.0000000e+00 
0.0000000e+00 0.0000000e+00 0.0000000e+00 
0.0000000e+00 0.0000000e+00 0.0000000e+00 
0.0000000e+00 0.0000000e+00 0.0000000e+00 
0.0000000e+00 0.0000000e+00 0.0000000e+00 
0.0000000e+00 0.0000000e+00 0.0000000e+00 
0.0000000e+00 0.0000000e+00 0.0000000e+00 
0.0000000e+00 0.0000000e+00 0.0000000e+00 
0.0000000e+00 0.0000000e+00 0.0000000e+00 
0.0000000e+00 0.0000000e+00 0.0000000e+00 
0.0000000e+00 0.0000000e+00 0.0000000e+00 
0.0000000e+00 0.0000000e+00 0.0000000e+00 
0.0000000e+00 0.0000000e+00 0.0000000e+00 
0.0000000e+00 0.0000000e+00 0.0000000e+00 
0.0000000e+00 0.0000000e+00 0.0000000e+00 
0.0000000e+00 0.0000000e+00 0.0000000e+00 
0.0000000e+00 0.0000000e+00 0.0000000e+00 
0.0000000e+00 0.0000000e+00 0.0000000e+00 
0.0000000e+00 0.0000000e+00 0.0000000e+00 
0.0000000e+00 0.0000000e+00 0.0000000e+00 
0.0000000e+00 0.0000000e+00 0.0000000e+00 
0.0000000e+00 0.0000000e+00 0.0000000e+00 
0.0000000e+00 0.0000000e+00 0.0000000e+00 
0.0000000e+00 0.0000000e+00 0.0000000e+00 
0.0000000e+00 0.0000000e+00 0.0000000e+00 
0.0000000e+00 0.0000000e+00 0.0000000e+00 
0.0000000e+00 0.0000000e+00 0.0000000e+00 
0.0000000e+00 0.0000000e+00 0.0000000e+00 
-9.1562140e-07 1.7047777e-08 6.7838147e-07 
2.5546200e-05 -8.0337604e-06 4.1919461e-06 
2.1204066e-06 -2.5438982e-07 -5.0666637e-07 
-2.8318407e-06 -1.3001749e-06 1.1352448e-06 
-3.9835713e-06 9.7174416e-07 6.0171737e-07 
-2.5095267e-06 2.2680599e-06 -1.2260348e-06 
7.3577257e-06 -6.9800271e-06 -6.7089281e-06 
2.7106911e-05 -1.0735837e-05 -2.4513133e-06 
2.8918135e-05 -1.2002082e-05 3.6854663e-06 
2.6653157e-05 -1.0341736e-05 7.5299372e-06 
4.7474846e-06 -1.7571434e-06 5.4705120e-06 
-3.1267145e-06 1.8338641e-06 -2.2662034e-06 
-2.8302370e-06 6.7060535e-07 -2.1643618e-07 
-3.8103781e-06 1.7406471e-07 -3.4278571e-06 
-1.0108892e-06 1.8547830e-06 -3.1084064e-06 
7.0072656e-06 -5.9629560e-06 -6.9823900e-06 
2.5759486e-05 -9.0093663e-06 -2.7795620e-06 
2.2387319e-05 -9.8833434e-06 5.3196845e-06 
7.5780267e-06 -3.2516568e-06 2.9945413e-06 
7.8792897e-07 -7.4027275e-07 2.6994362e-06 
-6.7939918e-06 3.7788047e-06 -1.9743909e-06 
-5.5620067e-06 1.6931048e-05 -1.4345488e-06 
-3.3882361e-06 7.5667840e-06 -3.4475670e-06 
3.1426687e-05 1.8732901e-05 -1.1659999e-05 
8.9901594e-05 -3.1290903e-05 3.2669261e-06 
2.1466820e-05 -4.9847445e-06 1.1084583e-05 
-5.0521248e-06 -5.2791950e-07 -4.4539315e-06 
-3.8402300e-06 1.4675337e-06 1.4589963e-06 
2.9170187e-05 1.8052773e-05 -1.4455894e-05 
9.7121439e-05 -2.6289637e-05 7.0581409e-06 
9.7240709e-06 4.1706211e-05 5.4801552e-07 
1.1468954e-04 -2.3426465e-04 -3.3626438e-05 
9.3572831e-05 -2.2110276e-04 4.5507375e-05 
5.1567640e-06 5.0424301e-06 -8.4994563e-06 
-7.8481198e-06 -9.9961344e-06 2.2026620e-06 
6.7737424e-06 4.1177973e-05 -5.5446872e-06 
1.2335418e-04 -2.3534439e-04 -3.6216152e-05 
1.1879375e-04 -2.3349207e-04 6.0969243e-05 
1.0900406e-05 -2.2550184e-05 3.0543466e-05 
-8.4406975e-06 3.6065404e-07 -4.8948837e-06 
4.5164425e-06 6.0955455e-07 1.4451160e-06 
-8.5952161e-06 7.6721599e-06 -6.6818916e-06 
4.0775258e-06 1.6238506e-05 -7.1610924e-07 
5.2116982e-05 -1.8265971e-05 -5.5460127e-06 
4.2663632e-05 -2.8415996e-05 1.0391468e-05 
4.0815876e-06 1.7309641e-06 -4.9375612e-06 
-8.4466574e-06 -3.4236905e-06 -1.2650332e-08 
1.8616893e-06 1.4687886e-05 1.3951193e-06 