# vtk DataFile Version 4.0
vtk output
ASCII
DATASET UNSTRUCTURED_GRID
POINTS 661 float
0.0000000e+00 0.0000000e+00 0.0000000e+00 
0.0000000e+00 0.0000000e+00 4.0000000e+01 
5.0000000e+00 0.0000000e+00 0.0000000e+00 
5.0000000e+00 0.0000000e+00 4.0000000e+01 
5.0000000e+00 1.0000000e+00 0.0000000e+00 
5.0000000e+00 1.0000000e+00 4.0000000e+01 
0.0000000e+00 1.0000000e+00 0.0000000e+00 
0.0000000e+00 1.0000000e+00 4.0000000e+01 
5.0000000e+00 2.0000000e+00 0.0000000e+00 
5.0000000e+00 2.0000000e+00 4.0000000e+01 
3.0000000e+00 2.0000000e+00 0.0000000e+00 
3.0000000e+00 2.0000000e+00 4.0000000e+01 
0.0000000e+00 2.0000000e+00 0.0000000e+00 
0.0000000e+00 2.0000000e+00 4.0000000e+01 
1.5000000e+00 3.0000000e+00 0.0000000e+00 
1.5000000e+00 3.0000000e+00 4.0000000e+01 
7.5000000e-01 3.0000000e+00 0.0000000e+00 
7.5000000e-01 3.0000000e+00 4.0000000e+01 
0.0000000e+00 3.0000000e+00 0.0000000e+00 
0.0000000e+00 3.0000000e+00 4.0000000e+01 
7.5000000e-01 3.0000000e+00 5.0000000e-01 
7.5000000e-01 3.0000000e+00 1.0000000e+00 
7.5000000e-01 3.0000000e+00 1.5000000e+00 
7.5000000e-01 3.0000000e+00 2.0000000e+00 
7.5000000e-01 3.0000000e+00 2.5000000e+00 
7.5000000e-01 3.0000000e+00 3.0000000e+00 
7.5000000e-01 3.0000000e+00 3.5000000e+00 
7.5000000e-01 3.0000000e+00 4.0000000e+00 
7.5000000e-01 3.0000000e+00 4.5000000e+00 
7.5000000e-01 3.0000000e+00 5.0000000e+00 
7.5000000e-01 3.0000000e+00 5.5000000e+00 
7.5000000e-01 3.0000000e+00 6.0000000e+00 
7.5000000e-01 3.0000000e+00 6.5000000e+00 
7.5000000e-01 3.0000000e+00 7.0000000e+00 
7.5000000e-01 3.0000000e+00 7.5000000e+00 
7.5000000e-01 3.0000000e+00 8.0000000e+00 
7.5000000e-01 3.0000000e+00 8.5000000e+00 
7.5000000e-01 3.0000000e+00 9.0000000e+00 
7.5000000e-01 3.0000000e+00 9.5000000e+00 
7.5000000e-01 3.0000000e+00 1.0000000e+01 
7.5000000e-01 3.0000000e+00 1.0500000e+01 
7.5000000e-01 3.0000000e+00 1.1000000e+01 
7.5000000e-01 3.0000000e+00 1.1500000e+01 
7.5000000e-01 3.0000000e+00 1.2000000e+01 
7.5000000e-01 3.0000000e+00 1.2500000e+01 
7.5000000e-01 3.0000000e+00 1.3000000e+01 
7.5000000e-01 3.0000000e+00 1.3500000e+01 
7.5000000e-01 3.0000000e+00 1.4000000e+01 
7.5000000e-01 3.0000000e+00 1.4500000e+01 
7.5000000e-01 3.0000000e+00 1.5000000e+01 
7.5000000e-01 3.0000000e+00 1.5500000e+01 
7.5000000e-01 3.0000000e+00 1.6000000e+01 
7.5000000e-01 3.0000000e+00 1.6500000e+01 
7.5000000e-01 3.0000000e+00 1.7000000e+01 
7.5000000e-01 3.0000000e+00 1.7500000e+01 
7.5000000e-01 3.0000000e+00 1.8000000e+01 
7.5000000e-01 3.0000000e+00 1.8500000e+01 
7.5000000e-01 3.0000000e+00 1.9000000e+01 
7.5000000e-01 3.0000000e+00 1.9500000e+01 
7.5000000e-01 3.0000000e+00 2.0000000e+01 
7.5000000e-01 3.0000000e+00 2.0500000e+01 
7.5000000e-01 3.0000000e+00 2.1000000e+01 
7.5000000e-01 3.0000000e+00 2.1500000e+01 
7.5000000e-01 3.0000000e+00 2.2000000e+01 
7.5000000e-01 3.0000000e+00 2.2500000e+01 
7.5000000e-01 3.0000000e+00 2.3000000e+01 
7.5000000e-01 3.0000000e+00 2.3500000e+01 
7.5000000e-01 3.0000000e+00 2.4000000e+01 
7.5000000e-01 3.0000000e+00 2.4500000e+01 
7.5000000e-01 3.0000000e+00 2.5000000e+01 
7.5000000e-01 3.0000000e+00 2.5500000e+01 
7.5000000e-01 3.0000000e+00 2.6000000e+01 
7.5000000e-01 3.0000000e+00 2.6500000e+01 
7.5000000e-01 3.0000000e+00 2.7000000e+01 
7.5000000e-01 3.0000000e+00 2.7500000e+01 
7.5000000e-01 3.0000000e+00 2.8000000e+01 
7.5000000e-01 3.0000000e+00 2.8500000e+01 
7.5000000e-01 3.0000000e+00 2.9000000e+01 
7.5000000e-01 3.0000000e+00 2.9500000e+01 
7.5000000e-01 3.0000000e+00 3.0000000e+01 
7.5000000e-01 3.0000000e+00 3.0500000e+01 
7.5000000e-01 3.0000000e+00 3.1000000e+01 
7.5000000e-01 3.0000000e+00 3.1500000e+01 
7.5000000e-01 3.0000000e+00 3.2000000e+01 
7.5000000e-01 3.0000000e+00 3.2500000e+01 
7.5000000e-01 3.0000000e+00 3.3000000e+01 
7.5000000e-01 3.0000000e+00 3.3500000e+01 
7.5000000e-01 3.0000000e+00 3.4000000e+01 
7.5000000e-01 3.0000000e+00 3.4500000e+01 
7.5000000e-01 3.0000000e+00 3.5000000e+01 
7.5000000e-01 3.0000000e+00 3.5500000e+01 
7.5000000e-01 3.0000000e+00 3.6000000e+01 
7.5000000e-01 3.0000000e+00 3.6500000e+01 
7.5000000e-01 3.0000000e+00 3.7000000e+01 
7.5000000e-01 3.0000000e+00 3.7500000e+01 
7.5000000e-01 3.0000000e+00 3.8000000e+01 
7.5000000e-01 3.0000000e+00 3.8500000e+01 
7.5000000e-01 3.0000000e+00 3.9000000e+01 
7.5000000e-01 3.0000000e+00 3.9500000e+01 
7.5000000e-01 3.0000000e+00 4.0500000e+01 
7.5000000e-01 3.0000000e+00 4.1000000e+01 
7.5000000e-01 3.0000000e+00 4.1500000e+01 
7.5000000e-01 3.0000000e+00 4.2000000e+01 
7.5000000e-01 3.0000000e+00 4.2500000e+01 
7.5000000e-01 3.0000000e+00 4.3000000e+01 
7.5000000e-01 3.0000000e+00 4.3500000e+01 
7.5000000e-01 3.0000000e+00 4.4000000e+01 
7.5000000e-01 3.0000000e+00 4.4500000e+01 
7.5000000e-01 3.0000000e+00 4.5000000e+01 
7.5000000e-01 3.0000000e+00 4.5500000e+01 
7.5000000e-01 3.0000000e+00 4.6000000e+01 
7.5000000e-01 3.0000000e+00 4.6500000e+01 
7.5000000e-01 3.0000000e+00 4.7000000e+01 
7.5000000e-01 3.0000000e+00 4.7500000e+01 
7.5000000e-01 3.0000000e+00 4.8000000e+01 
7.5000000e-01 3.0000000e+00 4.8500000e+01 
7.5000000e-01 3.0000000e+00 4.9000000e+01 
7.5000000e-01 3.0000000e+00 4.9500000e+01 
7.5000000e-01 3.0000000e+00 5.0000000e+01 
7.5000000e-01 3.0250001e+00 0.0000000e+00 
7.5000000e-01 3.0250001e+00 5.0000000e-01 
7.5000000e-01 3.0250001e+00 1.0000000e+00 
7.5000000e-01 3.0250001e+00 1.5000000e+00 
7.5000000e-01 3.0250001e+00 2.0000000e+00 
7.5000000e-01 3.0250001e+00 2.5000000e+00 
7.5000000e-01 3.0250001e+00 3.0000000e+00 
7.5000000e-01 3.0250001e+00 3.5000000e+00 
7.5000000e-01 3.0250001e+00 4.0000000e+00 
7.5000000e-01 3.0250001e+00 4.5000000e+00 
7.5000000e-01 3.0250001e+00 5.0000000e+00 
7.5000000e-01 3.0250001e+00 5.5000000e+00 
7.5000000e-01 3.0250001e+00 6.0000000e+00 
7.5000000e-01 3.0250001e+00 6.5000000e+00 
7.5000000e-01 3.0250001e+00 7.0000000e+00 
7.5000000e-01 3.0250001e+00 7.5000000e+00 
7.5000000e-01 3.0250001e+00 8.0000000e+00 
7.5000000e-01 3.0250001e+00 8.5000000e+00 
7.5000000e-01 3.0250001e+00 9.0000000e+00 
7.5000000e-01 3.0250001e+00 9.5000000e+00 
7.5000000e-01 3.0250001e+00 1.0000000e+01 
7.5000000e-01 3.0250001e+00 1.0500000e+01 
7.5000000e-01 3.0250001e+00 1.1000000e+01 
7.5000000e-01 3.0250001e+00 1.1500000e+01 
7.5000000e-01 3.0250001e+00 1.2000000e+01 
7.5000000e-01 3.0250001e+00 1.2500000e+01 
7.5000000e-01 3.0250001e+00 1.3000000e+01 
7.5000000e-01 3.0250001e+00 1.3500000e+01 
7.5000000e-01 3.0250001e+00 1.4000000e+01 
7.5000000e-01 3.0250001e+00 1.4500000e+01 
7.5000000e-01 3.0250001e+00 1.5000000e+01 
7.5000000e-01 3.0250001e+00 1.5500000e+01 
7.5000000e-01 3.0250001e+00 1.6000000e+01 
7.5000000e-01 3.0250001e+00 1.6500000e+01 
7.5000000e-01 3.0250001e+00 1.7000000e+01 
7.5000000e-01 3.0250001e+00 1.7500000e+01 
7.5000000e-01 3.0250001e+00 1.8000000e+01 
7.5000000e-01 3.0250001e+00 1.8500000e+01 
7.5000000e-01 3.0250001e+00 1.9000000e+01 
7.5000000e-01 3.0250001e+00 1.9500000e+01 
7.5000000e-01 3.0250001e+00 2.0000000e+01 
7.5000000e-01 3.0250001e+00 2.0500000e+01 
7.5000000e-01 3.0250001e+00 2.1000000e+01 
7.5000000e-01 3.0250001e+00 2.1500000e+01 
7.5000000e-01 3.0250001e+00 2.2000000e+01 
7.5000000e-01 3.0250001e+00 2.2500000e+01 
7.5000000e-01 3.0250001e+00 2.3000000e+01 
7.5000000e-01 3.0250001e+00 2.3500000e+01 
7.5000000e-01 3.0250001e+00 2.4000000e+01 
7.5000000e-01 3.0250001e+00 2.4500000e+01 
7.5000000e-01 3.0250001e+00 2.5000000e+01 
7.5000000e-01 3.0250001e+00 2.5500000e+01 
7.5000000e-01 3.0250001e+00 2.6000000e+01 
7.5000000e-01 3.0250001e+00 2.6500000e+01 
7.5000000e-01 3.0250001e+00 2.7000000e+01 
7.5000000e-01 3.0250001e+00 2.7500000e+01 
7.5000000e-01 3.0250001e+00 2.8000000e+01 
7.5000000e-01 3.0250001e+00 2.8500000e+01 
7.5000000e-01 3.0250001e+00 2.9000000e+01 
7.5000000e-01 3.0250001e+00 2.9500000e+01 
7.5000000e-01 3.0250001e+00 3.0000000e+01 
7.5000000e-01 3.0250001e+00 3.0500000e+01 
7.5000000e-01 3.0250001e+00 3.1000000e+01 
7.5000000e-01 3.0250001e+00 3.1500000e+01 
7.5000000e-01 3.0250001e+00 3.2000000e+01 
7.5000000e-01 3.0250001e+00 3.2500000e+01 
7.5000000e-01 3.0250001e+00 3.3000000e+01 
7.5000000e-01 3.0250001e+00 3.3500000e+01 
7.5000000e-01 3.0250001e+00 3.4000000e+01 
7.5000000e-01 3.0250001e+00 3.4500000e+01 
7.5000000e-01 3.0250001e+00 3.5000000e+01 
7.5000000e-01 3.0250001e+00 3.5500000e+01 
7.5000000e-01 3.0250001e+00 3.6000000e+01 
7.5000000e-01 3.0250001e+00 3.6500000e+01 
7.5000000e-01 3.0250001e+00 3.7000000e+01 
7.5000000e-01 3.0250001e+00 3.7500000e+01 
7.5000000e-01 3.0250001e+00 3.8000000e+01 
7.5000000e-01 3.0250001e+00 3.8500000e+01 
7.5000000e-01 3.0250001e+00 3.9000000e+01 
7.5000000e-01 3.0250001e+00 3.9500000e+01 
7.5000000e-01 3.0250001e+00 4.0000000e+01 
7.5000000e-01 3.0250001e+00 4.0500000e+01 
7.5000000e-01 3.0250001e+00 4.1000000e+01 
7.5000000e-01 3.0250001e+00 4.1500000e+01 
7.5000000e-01 3.0250001e+00 4.2000000e+01 
7.5000000e-01 3.0250001e+00 4.2500000e+01 
7.5000000e-01 3.0250001e+00 4.3000000e+01 
7.5000000e-01 3.0250001e+00 4.3500000e+01 
7.5000000e-01 3.0250001e+00 4.4000000e+01 
7.5000000e-01 3.0250001e+00 4.4500000e+01 
7.5000000e-01 3.0250001e+00 4.5000000e+01 
7.5000000e-01 3.0250001e+00 4.5500000e+01 
7.5000000e-01 3.0250001e+00 4.6000000e+01 
7.5000000e-01 3.0250001e+00 4.6500000e+01 
7.5000000e-01 3.0250001e+00 4.7000000e+01 
7.5000000e-01 3.0250001e+00 4.7500000e+01 
7.5000000e-01 3.0250001e+00 4.8000000e+01 
7.5000000e-01 3.0250001e+00 4.8500000e+01 
7.5000000e-01 3.0250001e+00 4.9000000e+01 
7.5000000e-01 3.0250001e+00 4.9500000e+01 
7.5000000e-01 3.0250001e+00 5.0000000e+01 
3.0000000e+00 2.0000000e+00 3.6000000e+01 
8.0487806e-01 3.0000000e+00 3.6000000e+01 
0.0000000e+00 0.0000000e+00 2.0000000e+00 
0.0000000e+00 0.0000000e+00 4.0000000e+00 
0.0000000e+00 0.0000000e+00 6.0000000e+00 
0.0000000e+00 0.0000000e+00 8.0000000e+00 
0.0000000e+00 0.0000000e+00 1.0000000e+01 
0.0000000e+00 0.0000000e+00 1.2000000e+01 
0.0000000e+00 0.0000000e+00 1.4000000e+01 
0.0000000e+00 0.0000000e+00 1.6000000e+01 
[...]
POINT_DATA 661
FIELD FieldData 3
DISPLACEMENT 3 661  float
0.0000000e+00 0.0000000e+00 0.0000000e+00 
0.0000000e+00 0.0000000e+00 0.0000000e+00 
0.0000000e+00 0.0000000e+00 0.0000000e+00 
0.0000000e+00 0.0000000e+00 0.0000000e+00 
2.1815476e-06 -6.1791764e-07 -5.2129526e-06 
9.1246147e-06 5.9042409e-06 1.4081478e-05 
0.0000000e+00 9.4745650e-07 0.0000000e+00 
0.0000000e+00 -1.4569232e-04 0.0000000e+00 
7.3025598e-07 -1.4349450e-07 -4.7947192e-06 
2.8998264e-05 4.6427085e-06 1.4449787e-06 
4.7806889e-06 -3.4418285e-06 -7.8147177e-06 
3.3215962e-05 6.9986520e-05 -1.8437137e-06 
0.0000000e+00 -1.0595836e-05 0.0000000e+00 
0.0000000e+00 -2.7841137e-04 0.0000000e+00 
1.1577167e-06 -1.7158971e-05 -1.3823228e-05 
-6.9681453e-05 -5.7269772e-05 -1.9461989e-04 
-2.1000740e-07 -3.4050234e-05 -1.0320611e-05 
-5.6960405e-05 -5.6207110e-04 -2.3442399e-04 
0.0000000e+00 -1.2756112e-05 0.0000000e+00 
0.0000000e+00 -1.3262297e-04 0.0000000e+00 
3.6807085e-06 -2.4212384e-05 -1.1636849e-05 
1.0400796e-05 -3.6317713e-06 -9.3253093e-06 
1.2082056e-05 1.4081988e-05 -1.7965820e-05 
1.5349096e-05 1.9147095e-05 -2.7250799e-06 
1.7785778e-05 1.8012552e-05 2.1866003e-06 
1.4467815e-05 2.6242931e-05 2.5777290e-06 
1.7365253e-05 5.3701551e-05 4.6880264e-06 
9.0307249e-06 8.8782828e-05 4.4658759e-06 
1.6023621e-05 1.1293228e-04 -1.6961170e-05 
1.1417449e-05 1.1697633e-04 -2.4368615e-06 
-3.4527443e-06 1.1020295e-04 3.8787275e-06 
7.5877897e-06 1.0123827e-04 -1.1502073e-06 
-1.0025854e-05 9.9796212e-05 3.5931094e-05 
1.2135483e-05 1.0515399e-04 2.3027364e-05 
-1.0804744e-06 1.0142605e-04 9.3648632e-06 
1.1336641e-05 9.6811695e-05 3.2731081e-05 
3.4509718e-05 8.9289861e-05 1.4662663e-05 
-1.6915095e-06 7.3004725e-05 1.9938201e-05 
5.4995031e-05 4.9251310e-05 3.9521343e-05 
1.1606337e-05 4.1215717e-05 4.0285329e-05 
3.7032034e-05 6.4707638e-05 2.9031009e-05 
3.9536797e-05 1.0257390e-04 4.6053225e-05 
2.3128710e-05 1.3417394e-04 7.4338670e-05 
2.2790919e-05 7.2358016e-05 7.3519856e-05 
-5.5220975e-05 -1.2224316e-04 1.3498793e-04 
-1.4937495e-05 -4.2522771e-04 1.4719696e-04 
-1.0124761e-04 -8.5716782e-04 1.7519096e-04 
-1.0999314e-04 -1.4765355e-03 1.4763146e-04 
-2.6184670e-04 -2.3697577e-03 1.9070304e-04 
-3.1853456e-04 -3.4173913e-03 1.8746790e-04 
-2.0032150e-04 -4.3124664e-03 1.1728690e-04 
-2.0278756e-04 -4.4091339e-03 9.6149481e-05 
-3.1931751e-04 -4.2215344e-03 3.0093990e-05 
-4.1011153e-04 -4.1680839e-03 -1.5891861e-05 
-2.7343753e-04 -4.4208164e-03 -7.9834157e-05 
-1.1378422e-04 -4.4496814e-03 -1.4111897e-04 
-1.1441833e-04 -3.6970333e-03 -2.3384362e-04 
-1.9191041e-04 -2.5560225e-03 -2.5836442e-04 
-1.7565540e-04 -1.5392321e-03 -2.4590193e-04 
-3.0907078e-05 -7.6646608e-04 -1.6565650e-04 
9.3092494e-06 -2.7818096e-04 -1.7268817e-04 
3.6487992e-05 9.7335069e-06 -1.1770289e-04 
2.9811490e-05 1.6007901e-04 -6.5631226e-05 
3.3087090e-05 2.0764205e-04 -1.5537857e-05 
3.0802610e-05 1.7357712e-04 1.8085151e-06 
1.1023851e-05 1.0115597e-04 3.3091452e-05 
-1.7742218e-06 3.1373092e-05 4.1208292e-05 
-1.8253899e-05 -2.0532631e-05 2.6051375e-05 
-4.1489107e-05 -5.0398383e-05 2.3340561e-05 
-2.0553380e-05 -6.5237931e-05 -2.8291563e-06 
-4.3965123e-05 -7.3849849e-05 -3.5576501e-05 
-1.3126630e-05 -7.6067459e-05 -3.8057620e-05 
-1.7435899e-05 -6.9952475e-05 -2.7361682e-05 
-1.6136983e-05 -4.9638864e-05 -5.3699070e-05 
1.2810195e-05 -2.0638698e-05 -4.3695149e-05 
-2.1946707e-06 1.9368088e-05 -2.8356300e-05 
5.7980043e-05 5.8159450e-05 -6.1019498e-05 
1.8300971e-05 8.4868290e-05 -1.0141236e-05 
6.9129943e-05 1.0995680e-04 2.5564841e-05 
3.3603610e-05 1.1641099e-04 -9.0503354e-06 
1.9600262e-05 1.1860022e-04 2.2607277e-05 
6.8924353e-05 1.4178078e-04 1.9010347e-05 
1.8246334e-06 1.8710741e-04 7.3934493e-06 
2.8282317e-05 1.6555194e-04 5.3529820e-05 
-4.0724790e-05 -1.8488852e-05 9.2045804e-05 
-5.7379188e-05 -3.8545000e-04 1.2492930e-04 
-9.1785529e-05 -9.5001928e-04 1.7054862e-04 
-1.4834979e-04 -1.6623996e-03 1.2505097e-04 
-2.4581942e-04 -2.5295508e-03 1.8402244e-04 
-3.1385527e-04 -3.4390457e-03 1.5960545e-04 
-1.7161117e-04 -4.1374546e-03 5.4065746e-05 
-3.9795137e-04 -4.1519348e-03 8.6233551e-05 
-2.6635372e-04 -3.9723087e-03 7.7170080e-05 
-2.7960612e-04 -3.9562555e-03 -1.7763881e-05 
-9.8364901e-05 -4.1762395e-03 -1.3862825e-04 
-1.6978211e-04 -4.1736481e-03 -2.1448691e-04 
-1.6194840e-04 -3.3940973e-03 -3.3541583e-04 
-1.9192658e-04 -2.3048804e-03 -3.3449844e-04 
-1.4171790e-04 -1.3557888e-03 -1.0947925e-04 
0.0000000e+00 6.5024018e-05 0.0000000e+00 
0.0000000e+00 5.3921755e-04 0.0000000e+00 
0.0000000e+00 8.5748016e-04 0.0000000e+00 
0.0000000e+00 1.0208591e-03 0.0000000e+00 
0.0000000e+00 1.0537169e-03 0.0000000e+00 
0.0000000e+00 9.9885103e-04 0.0000000e+00 
0.0000000e+00 8.9471968e-04 0.0000000e+00 
0.0000000e+00 7.6112564e-04 0.0000000e+00 
0.0000000e+00 6.0573360e-04 0.0000000e+00 
0.0000000e+00 4.3846303e-04 0.0000000e+00 
0.0000000e+00 2.7574628e-04 0.0000000e+00 
0.0000000e+00 1.3304099e-04 0.0000000e+00 
0.0000000e+00 1.7548382e-05 0.0000000e+00 
0.0000000e+00 -7.1019327e-05 0.0000000e+00 
0.0000000e+00 -1.3552692e-04 0.0000000e+00 
0.0000000e+00 -1.7926549e-04 0.0000000e+00 
0.0000000e+00 -2.0682179e-04 0.0000000e+00 
0.0000000e+00 -2.2365773e-04 0.0000000e+00 
0.0000000e+00 -2.3346837e-04 0.0000000e+00 
0.0000000e+00 -2.3689379e-04 0.0000000e+00 
0.0000000e+00 -3.3801105e-05 0.0000000e+00 
0.0000000e+00 -2.4144236e-05 0.0000000e+00 
0.0000000e+00 -3.5494118e-06 0.0000000e+00 
0.0000000e+00 1.3555486e-05 0.0000000e+00 
0.0000000e+00 1.8708031e-05 0.0000000e+00 
0.0000000e+00 1.8070377e-05 0.0000000e+00 
0.0000000e+00 2.7134485e-05 0.0000000e+00 
0.0000000e+00 5.4035158e-05 0.0000000e+00 
0.0000000e+00 8.8533438e-05 0.0000000e+00 
0.0000000e+00 1.1224236e-04 0.0000000e+00 
0.0000000e+00 1.1688707e-04 0.0000000e+00 
0.0000000e+00 1.1015351e-04 0.0000000e+00 
0.0000000e+00 1.0180662e-04 0.0000000e+00 
0.0000000e+00 1.0046486e-04 0.0000000e+00 
0.0000000e+00 1.0383571e-04 0.0000000e+00 
0.0000000e+00 1.0198837e-04 0.0000000e+00 
0.0000000e+00 9.7279568e-05 0.0000000e+00 
0.0000000e+00 8.9070934e-05 0.0000000e+00 
0.0000000e+00 7.2247320e-05 0.0000000e+00 
0.0000000e+00 4.9031849e-05 0.0000000e+00 
0.0000000e+00 4.1957795e-05 0.0000000e+00 
0.0000000e+00 6.5260014e-05 0.0000000e+00 
0.0000000e+00 1.0703873e-04 0.0000000e+00 
0.0000000e+00 1.3251977e-04 0.0000000e+00 
0.0000000e+00 6.8727975e-05 0.0000000e+00 
0.0000000e+00 -1.2094004e-04 0.0000000e+00 
0.0000000e+00 -4.2405201e-04 0.0000000e+00 
0.0000000e+00 -8.5535471e-04 0.0000000e+00 
0.0000000e+00 -1.4845144e-03 0.0000000e+00 
0.0000000e+00 -2.3797727e-03 0.0000000e+00 
0.0000000e+00 -3.4555853e-03 0.0000000e+00 
0.0000000e+00 -4.3347292e-03 0.0000000e+00 
0.0000000e+00 -4.4339583e-03 0.0000000e+00 
0.0000000e+00 -4.2349203e-03 0.0000000e+00 
0.0000000e+00 -4.2025908e-03 0.0000000e+00 
0.0000000e+00 -4.4437991e-03 0.0000000e+00 
0.0000000e+00 -4.4829743e-03 0.0000000e+00 
0.0000000e+00 -3.7140027e-03 0.0000000e+00 
0.0000000e+00 -2.5761654e-03 0.0000000e+00 
0.0000000e+00 -1.5431776e-03 0.0000000e+00 
0.0000000e+00 -7.7150634e-04 0.0000000e+00 
0.0000000e+00 -2.7709242e-04 0.0000000e+00 
0.0000000e+00 1.1098606e-05 0.0000000e+00 
0.0000000e+00 1.6087486e-04 0.0000000e+00 
0.0000000e+00 2.0716120e-04 0.0000000e+00 
0.0000000e+00 1.7390448e-04 0.0000000e+00 
0.0000000e+00 1.0205073e-04 0.0000000e+00 
0.0000000e+00 3.1624873e-05 0.0000000e+00 
0.0000000e+00 -1.9791618e-05 0.0000000e+00 
0.0000000e+00 -5.0035615e-05 0.0000000e+00 
0.0000000e+00 -6.5790795e-05 0.0000000e+00 
0.0000000e+00 -7.3992465e-05 0.0000000e+00 
0.0000000e+00 -7.6255252e-05 0.0000000e+00 
0.0000000e+00 -6.9517104e-05 0.0000000e+00 
0.0000000e+00 -5.0009057e-05 0.0000000e+00 
0.0000000e+00 -2.0093386e-05 0.0000000e+00 
0.0000000e+00 1.9113630e-05 0.0000000e+00 
0.0000000e+00 5.7425437e-05 0.0000000e+00 
0.0000000e+00 8.6864267e-05 0.0000000e+00 
0.0000000e+00 1.0821462e-04 0.0000000e+00 
0.0000000e+00 1.1498515e-04 0.0000000e+00 
0.0000000e+00 1.1967626e-04 0.0000000e+00 
0.0000000e+00 1.4646447e-04 0.0000000e+00 
0.0000000e+00 1.8846130e-04 0.0000000e+00 
0.0000000e+00 1.6287409e-04 0.0000000e+00 
0.0000000e+00 -1.9366100e-05 0.0000000e+00 
0.0000000e+00 -3.8998917e-04 0.0000000e+00 
0.0000000e+00 -9.4808650e-04 0.0000000e+00 
0.0000000e+00 -1.6670385e-03 0.0000000e+00 
0.0000000e+00 -2.5388079e-03 0.0000000e+00 
0.0000000e+00 -3.4758034e-03 0.0000000e+00 
0.0000000e+00 -4.1647367e-03 0.0000000e+00 
0.0000000e+00 -4.1771941e-03 0.0000000e+00 
0.0000000e+00 -3.9870180e-03 0.0000000e+00 
0.0000000e+00 -3.9851568e-03 0.0000000e+00 
0.0000000e+00 -4.2065713e-03 0.0000000e+00 
0.0000000e+00 -4.1951383e-03 0.0000000e+00 
0.0000000e+00 -3.4140334e-03 0.0000000e+00 
0.0000000e+00 -2.3267178e-03 0.0000000e+00 
0.0000000e+00 -1.3548562e-03 0.0000000e+00 
0.0000000e+00 -5.6189287e-04 0.0000000e+00 
0.0000000e+00 6.5445500e-05 0.0000000e+00 
0.0000000e+00 5.3856708e-04 0.0000000e+00 
0.0000000e+00 8.5634249e-04 0.0000000e+00 
0.0000000e+00 1.0204327e-03 0.0000000e+00 
0.0000000e+00 1.0543076e-03 0.0000000e+00 
0.0000000e+00 9.9964056e-04 0.0000000e+00 
0.0000000e+00 8.9489936e-04 0.0000000e+00 
0.0000000e+00 7.6080853e-04 0.0000000e+00 
0.0000000e+00 6.0558919e-04 0.0000000e+00 
0.0000000e+00 4.3877223e-04 0.0000000e+00 
0.0000000e+00 2.7615522e-04 0.0000000e+00 
0.0000000e+00 1.3317064e-04 0.0000000e+00 
0.0000000e+00 1.7499433e-05 0.0000000e+00 
0.0000000e+00 -7.0918890e-05 0.0000000e+00 
0.0000000e+00 -1.3526749e-04 0.0000000e+00 
0.0000000e+00 -1.7918080e-04 0.0000000e+00 
0.0000000e+00 -2.0708065e-04 0.0000000e+00 
0.0000000e+00 -2.2397844e-04 0.0000000e+00 
0.0000000e+00 -2.3348688e-04 0.0000000e+00 
0.0000000e+00 -2.3669181e-04 0.0000000e+00 
9.2122020e-05 -1.5070189e-04 4.9480036e-06 
-1.7472275e-04 -3.5978141e-03 9.6067175e-05 
0.0000000e+00 0.0000000e+00 0.0000000e+00 
0.0000000e+00 0.0000000e+00 0.0000000e+00 
0.0000000e+00 0.0000000e+00 0.0000000e+00 
0.0000000e+00 0.0000000e+00 0.0000000e+00 
0.0000000e+00 0.0000000e+00 0.0000000e+00 
0.0000000e+00 0.0000000e+00 0.0000000e+00 
0.0000000e+00 0.0000000e+00 0.0000000e+00 
0.0000000e+00 0.0000000e+00 0.0000000e+00 
0.0000000e+00 0.0000000e+00 0.0000000e+00 
0.0000000e+00 0.0000000e+00 0.0000000e+00 
0.0000000e+00 0.0000000e+00 0.0000000e+00 
0.0000000e+00 0.0000000e+00 0.0000000e+00 
0.0000000e+00 0.0000000e+00 0.0000000e+00 
0.0000000e+00 0.0000000e+00 0.0000000e+00 
0.0000000e+00 0.0000000e+00 0.0000000e+00 
0.0000000e+00 0.0000000e+00 0.0000000e+00 
0.0000000e+00 0.0000000e+00 0.0000000e+00 
0.0000000e+00 0.0000000e+00 0.0000000e+00 
0.0000000e+00 0.0000000e+00 0.0000000e+00 
0.0000000e+00 0.0000000e+00 0.0000000e+00 
0.0000000e+00 0.0000000e+00 0.0000000e+00 
0.0000000e+00 0.0000000e+00 0.0000000e+00 
0.0000000e+00 0.0000000e+00 0.0000000e+00 
0.0000000e+00 0.0000000e+00 0.0000000e+00 
0.0000000e+00 0.0000000e+00 0.0000000e+00 
0.0000000e+00 0.0000000e+00 0.0000000e+00 
0.0000000e+00 0.0000000e+00 0.0000000e+00 
0.0000000e+00 0.0000000e+00 0.0000000e+00 
0.0000000e+00 0.0000000e+00 0.0000000e+00 
0.0000000e+00 0.0000000e+00 0.0000000e+00 
0.0000000e+00 0.0000000e+00 0.0000000e+00 
0.0000000e+00 0.0000000e+00 0.0000000e+00 
0.0000000e+00 0.0000000e+00 0.0000000e+00 
0.0000000e+00 0.0000000e+00 0.0000000e+00 
0.0000000e+00 0.0000000e+00 0.0000000e+00 
0.0000000e+00 0.0000000e+00 0.0000000e+00 
0.0000000e+00 0.0000000e+00 0.0000000e+00 
0.0000000e+00 0.0000000e+00 0.0000000e+00 
0.0000000e+00 0.0000000e+00 0.0000000e+00 
0.0000000e+00 0.0000000e+00 0.0000000e+00 
0.0000000e+00 0.0000000e+00 0.0000000e+00 
0.0000000e+00 0.0000000e+00 0.0000000e+00 
2.2806196e-06 -1.4569979e-06 -3.2726746e-06 
-1.4609262e-07 -4.4269430e-07 1.6480254e-06 
-6.7464471e-06 1.3395394e-06 2.5747318e-06 
-1.1642282e-05 2.5189124e-06 9.4221167e-07 
-4.2930378e-06 5.6986278e-07 -3.4260891e-06 
1.4286103e-05 -2.4347514e-06 -5.6944714e-06 
3.8205664e-05 -1.0229568e-05 -1.3112186e-05 
5.6746569e-05 -1.0851226e-05 -5.0944864e-06 
4.8252929e-05 -4.4494986e-06 8.4378107e-06 
1.7412700e-05 1.1804630e-06 6.4384280e-06 
2.6814741e-06 -1.9514830e-06 2.6808393e-06 
3.6817214e-06 -3.8313560e-06 2.1684536e-07 
-1.3002161e-06 -2.1427813e-06 3.4834393e-06 
-8.1899861e-06 8.6993299e-07 7.8869778e-07 
-4.5175807e-06 2.2477570e-06 -2.9424475e-06 
4.1969647e-06 1.3303527e-06 -8.4804778e-06 
3.3862834e-05 -8.1933767e-06 -1.7615297e-05 
5.3909873e-05 -2.0849784e-05 -1.2958101e-06 
4.0871888e-05 -1.5583770e-05 1.8171082e-05 
0.0000000e+00 1.2139311e-08 0.0000000e+00 
0.0000000e+00 2.5239424e-05 0.0000000e+00 
0.0000000e+00 2.5093563e-05 0.0000000e+00 
0.0000000e+00 4.2264313e-05 0.0000000e+00 
0.0000000e+00 1.7581300e-05 0.0000000e+00 
0.0000000e+00 -3.7182192e-05 0.0000000e+00 
0.0000000e+00 -2.2718251e-04 0.0000000e+00 
0.0000000e+00 -5.9854222e-04 0.0000000e+00 
0.0000000e+00 -5.7676609e-04 0.0000000e+00 
0.0000000e+00 -1.2403242e-04 0.0000000e+00 
0.0000000e+00 4.1018720e-05 0.0000000e+00 
0.0000000e+00 -8.4272469e-06 0.0000000e+00 
0.0000000e+00 -2.4661847e-05 0.0000000e+00 
0.0000000e+00 2.1586598e-05 0.0000000e+00 
0.0000000e+00 1.2201898e-05 0.0000000e+00 
0.0000000e+00 9.8232440e-06 0.0000000e+00 
0.0000000e+00 -2.0953394e-04 0.0000000e+00 
0.0000000e+00 -5.8803288e-04 0.0000000e+00 
0.0000000e+00 -4.7060585e-04 0.0000000e+00 
2.4684887e-06 -2.3145499e-06 -5.6138138e-06 
2.0019497e-06 -2.2107658e-06 -4.3040818e-06 
4.0773739e-05 2.7315846e-05 1.9107090e-05 
6.6309323e-05 -7.7433266e-05 1.0289578e-04 
4.9281207e-06 -1.9011496e-06 -5.9003646e-06 
3.3495378e-06 -4.9134610e-06 -3.3212476e-07 
-1.7329922e-06 -2.8546447e-06 3.5481080e-06 
-7.0333099e-06 4.7090598e-06 2.0568078e-07 
-4.3460755e-06 3.5817277e-06 6.1298988e-07 
1.5901516e-05 -1.0015999e-06 -9.3370891e-06 
3.3591914e-05 -7.2485473e-06 -2.0230939e-06 
3.5381461e-05 -1.1351165e-05 -5.9425656e-06 
2.2667449e-05 -1.3094541e-06 3.3538324e-06 
1.0974415e-05 5.0655144e-06 -2.3975024e-06 
1.0344550e-05 -1.5770914e-06 2.4577971e-06 
-4.2090514e-07 -5.1474576e-06 6.3301795e-06 
-6.0725315e-06 -5.9110271e-06 2.7480016e-06 
-4.7895519e-06 -1.7903667e-06 -3.0202007e-06 
1.7835565e-06 -1.4606975e-07 -9.5693940e-06 
1.6566821e-05 4.9010787e-06 -1.0110060e-05 
3.2440068e-05 -1.8072840e-06 -4.2220672e-06 
4.4703480e-05 -1.8163926e-05 3.4273307e-06 
3.2019663e-05 -3.3988551e-06 1.2130193e-05 
3.5524235e-06 -5.3228205e-06 -4.5799584e-06 
0.0000000e+00 3.8874086e-06 0.0000000e+00 
0.0000000e+00 5.3871594e-05 0.0000000e+00 
0.0000000e+00 8.1798753e-05 0.0000000e+00 
0.0000000e+00 1.6658836e-05 0.0000000e+00 
0.0000000e+00 5.2506839e-05 0.0000000e+00 
0.0000000e+00 4.6284891e-05 0.0000000e+00 
0.0000000e+00 -5.3872424e-04 0.0000000e+00 
0.0000000e+00 -1.3372034e-03 0.0000000e+00 
0.0000000e+00 -1.2615586e-03 0.0000000e+00 
0.0000000e+00 -2.2451727e-04 0.0000000e+00 
0.0000000e+00 8.7500870e-05 0.0000000e+00 
0.0000000e+00 -1.3762560e-05 0.0000000e+00 
0.0000000e+00 -7.7456622e-05 0.0000000e+00 
0.0000000e+00 -2.7290962e-06 0.0000000e+00 
0.0000000e+00 1.3241771e-04 0.0000000e+00 
0.0000000e+00 4.7065962e-05 0.0000000e+00 
0.0000000e+00 -5.3482520e-04 0.0000000e+00 
0.0000000e+00 -1.3022678e-03 0.0000000e+00 
0.0000000e+00 -1.0543516e-03 0.0000000e+00 
5.8232214e-05 -2.1457783e-04 6.4392334e-05 
2.0336945e-05 7.5686185e-06 -9.4806855e-06 
1.5231763e-05 4.8265876e-05 -3.6604817e-07 
1.0367881e-05 8.0550526e-05 1.1542883e-05 
8.3978839e-06 6.4280626e-05 2.2049877e-05 
5.2170777e-05 3.8496713e-05 5.4642929e-05 
2.8153441e-05 5.2610470e-05 1.2616992e-04 
-2.9108912e-04 -4.9078866e-04 3.4700125e-04 
-7.5055257e-04 -1.4721787e-03 1.1880001e-04 
-6.8497722e-04 -1.5537996e-03 -2.5547468e-04 
-1.0132173e-04 -1.8621261e-04 -3.1061243e-04 
5.9511709e-05 1.0160307e-04 -6.2129338e-06 
-2.0622268e-05 -1.5531170e-05 4.5349410e-05 
-3.3881657e-05 -6.1687439e-05 -3.9473991e-05 
4.8427096e-06 1.1319924e-05 -6.0018170e-05 
6.9816582e-05 7.0822112e-05 1.0436460e-05 
2.4854709e-05 1.1463433e-04 8.9031841e-05 
-3.3092601e-04 -4.8283496e-04 3.5633336e-04 
-5.0192041e-04 -1.7245774e-03 9.5898846e-05 
-5.8165193e-04 -1.1777378e-03 -2.2465798e-04 
0.0000000e+00 3.2101389e-06 0.0000000e+00 
0.0000000e+00 1.0551592e-04 0.0000000e+00 
0.0000000e+00 5.9013342e-05 0.0000000e+00 
0.0000000e+00 3.9637316e-06 0.0000000e+00 
0.0000000e+00 9.2708353e-05 0.0000000e+00 
0.0000000e+00 9.9896926e-05 0.0000000e+00 
0.0000000e+00 -9.7455265e-04 0.0000000e+00 
0.0000000e+00 -2.5702224e-03 0.0000000e+00 
0.0000000e+00 -2.4136393e-03 0.0000000e+00 
0.0000000e+00 -3.9946812e-04 0.0000000e+00 
0.0000000e+00 1.7933488e-04 0.0000000e+00 
0.0000000e+00 -3.3967517e-05 0.0000000e+00 
0.0000000e+00 -1.1485622e-04 0.0000000e+00 
0.0000000e+00 7.0849470e-05 0.0000000e+00 
0.0000000e+00 1.6286553e-04 0.0000000e+00 
0.0000000e+00 7.2106654e-05 0.0000000e+00 
0.0000000e+00 -1.0692710e-03 0.0000000e+00 
0.0000000e+00 -2.4710787e-03 0.0000000e+00 
0.0000000e+00 -2.1067327e-03 0.0000000e+00 
4.9324412e-06 1.3654593e-06 -1.1427884e-06 
-4.7797238e-07 1.4108015e-05 3.6661374e-06 
-1.1002773e-05 5.9866734e-06 6.8293925e-06 
-1.1529356e-05 2.0063049e-05 6.9853622e-06 
6.7301180e-06 2.0199412e-05 1.6357717e-05 
2.5659599e-05 2.7093309e-05 2.7223772e-05 
5.6460045e-05 -6.6286048e-05 1.1413931e-05 
4.8393900e-05 -1.3187539e-04 -1.5525744e-05 
3.7278351e-05 -1.1380456e-04 -1.5424203e-05 
3.9999501e-05 -3.9501490e-05 -1.0675631e-05 
7.0215860e-06 2.4445999e-05 -5.9475192e-06 
-6.0206844e-06 -7.6065053e-06 -6.0326350e-08 
-1.2956221e-05 -1.8049668e-05 -5.0137273e-06 
-6.5914164e-06 4.8944371e-06 -1.1335592e-05 
6.5274526e-06 1.4175251e-05 2.4837050e-06 
1.1376124e-05 3.6928155e-05 1.1285434e-05 
4.0901490e-05 -2.7437818e-05 9.5806517e-06 
5.2806023e-05 -9.6145552e-05 1.3102333e-05 
-6.9418878e-05 -1.1198339e-03 4.6937239e-05 
0.0000000e+00 0.0000000e+00 0.0000000e+00 
0.0000000e+00 0.0000000e+00 0.0000000e+00 
0.0000000e+00 0.0000000e+00 0.0000000e+00 
0.0000000e+00 0.0000000e+00 0.0000000e+00 
0.0000000e+00 0.0000000e+00 0.0000000e+00 
0.0000000e+00 0.0000000e+00 0.0000000e+00 
0.0000000e+00 0.0000000e+00 0.0000000e+00 
0.0000000e+00 0.0000000e+00 0.0000000e+00 
0.0000000e+00 0.0000000e+00 0.0000000e+00 
0.0000000e+00 0.0000000e+00 0.0000000e+00 
0.0000000e+00 0.0000000e+00 0.0000000e+00 
0.0000000e+00 0.0000000e+00 0.0000000e+00 
0.0000000e+00 0.0000000e+00 0.0000000e+00 
0.0000000e+00 0.0000000e+00 0.0000000e+00 
0.0000000e+00 0.0000000e+00 0.0000000e+00 
0.0000000e+00 0.0000000e+00 0.0000000e+00 
0.0000000e+00 0.0000000e+00 0.0000000e+00 
0.0000000e+00 0.0000000e+00 0.0000000e+00 
0.0000000e+00 0.0000000e+00 0.0000000e+00 
0.0000000e+00 0.0000000e+00 0.0000000e+00 
0.0000000e+00 0.0000000e+00 0.0000000e+00 
0.0000000e+00 0.0000000e+00 0.0000000e+00 
0.0000000e+00 0.0000000e+00 0.0000000e+00 
0.0000000e+00 0.0000000e+00 0.0000000e+00 
0.0000000e+00 0.0000000e+00 0.0000000e+00 
0.0000000e+00 0.0000000e+00 0.0000000e+00 
0.0000000e+00 0.0000000e+00 0.0000000e+00 
0.0000000e+00 0.0000000e+00 0.0000000e+00 
0.0000000e+00 0.0000000e+00 0.0000000e+00 
0.0000000e+00 0.0000000e+00 0.0000000e+00 
0.0000000e+00 0.0000000e+00 0.0000000e+00 
0.0000000e+00 0.0000000e+00 0.0000000e+00 
0.0000000e+00 0.0000000e+00 0.0000000e+00 
0.0000000e+00 0.0000000e+00 0.0000000e+00 
0.0000000e+00 0.0000000e+00 0.0000000e+00 
0.0000000e+00 0.0000000e+00 0.0000000e+00 
0.0000000e+00 0.0000000e+00 0.0000000e+00 
0.0000000e+00 0.0000000e+00 0.0000000e+00 
0.0000000e+00 0.0000000e+00 0.0000000e+00 
0.0000000e+00 0.0000000e+00 0.0000000e+00 
0.0000000e+00 0.0000000e+00 0.0000000e+00 
0.0000000e+00 0.0000000e+00 0.0000000e+00 
-3.3634556e-06 2.8491215e-06 1.4351037e-06 
1.1226938e-05 -8.1185808e-06 -7.1042741e-06 
2.8253065e-05 -9.2442251e-06 2.6281573e-06 
-4.6653511e-07 -9.1418974e-07 2.4621229e-07 
1.9882491e-06 -1.1332518e-06 1.7295160e-06 
-2.5749262e-06 -5.6836046e-07 5.2676444e-07 
-4.0554310e-06 2.3373500e-06 -2.5771755e-08 
-4.0477772e-07 1.6656148e-06 -7.2483527e-07 
8.5309757e-06 -6.6897119e-06 -1.0136479e-05 
3.1128930e-05 -1.2156844e-05 -8.6862410e-06 