# vtk DataFile Version 4.0
vtk output
ASCII
DATASET UNSTRUCTURED_GRID
POINTS 661 float
0.0000000e+00 0.0000000e+00 0.0000000e+00 
0.0000000e+00 0.0000000e+00 4.0000000e+01 
5.0000000e+00 0.0000000e+00 0.0000000e+00 
5.0000000e+00 0.0000000e+00 4.0000000e+01 
5.0000000e+00 1.0000000e+00 0.0000000e+00 
5.0000000e+00 1.0000000e+00 4.0000000e+01 
0.0000000e+00 1.0000000e+00 0.0000000e+00 
0.0000000e+00 1.0000000e+00 4.0000000e+01 
5.0000000e+00 2.0000000e+00 0.0000000e+00 
5.0000000e+00 2.0000000e+00 4.0000000e+01 
3.0000000e+00 2.0000000e+00 0.0000000e+00 
3.0000000e+00 2.0000000e+00 4.0000000e+01 
0.0000000e+00 2.0000000e+00 0.0000000e+00 
0.0000000e+00 2.0000000e+00 4.0000000e+01 
1.5000000e+00 3.0000000e+00 0.0000000e+00 
1.5000000e+00 3.0000000e+00 4.0000000e+01 
7.5000000e-01 3.0000000e+00 0.0000000e+00 
7.5000000e-01 3.0000000e+00 4.0000000e+01 
0.0000000e+00 3.0000000e+00 0.0000000e+00 
0.0000000e+00 3.0000000e+00 4.0000000e+01 
7.5000000e-01 3.0000000e+00 5.0000000e-01 
7.5000000e-01 3.0000000e+00 1.0000000e+00 
7.5000000e-01 3.0000000e+00 1.5000000e+00 
7.5000000e-01 3.0000000e+00 2.0000000e+00 
7.5000000e-01 3.0000000e+00 2.5000000e+00 
7.5000000e-01 3.0000000e+00 3.0000000e+00 
7.5000000e-01 3.0000000e+00 3.5000000e+00 
7.5000000e-01 3.0000000e+00 4.0000000e+00 
7.5000000e-01 3.0000000e+00 4.5000000e+00 
7.5000000e-01 3.0000000e+00 5.0000000e+00 
7.5000000e-01 3.0000000e+00 5.5000000e+00 
7.5000000e-01 3.0000000e+00 6.0000000e+00 
7.5000000e-01 3.0000000e+00 6.5000000e+00 
7.5000000e-01 3.0000000e+00 7.0000000e+00 
7.5000000e-01 3.0000000e+00 7.5000000e+00 
7.5000000e-01 3.0000000e+00 8.0000000e+00 
7.5000000e-01 3.0000000e+00 8.5000000e+00 
7.5000000e-01 3.0000000e+00 9.0000000e+00 
7.5000000e-01 3.0000000e+00 9.5000000e+00 
7.5000000e-01 3.0000000e+00 1.0000000e+01 
7.5000000e-01 3.0000000e+00 1.0500000e+01 
7.5000000e-01 3.0000000e+00 1.1000000e+01 
7.5000000e-01 3.0000000e+00 1.1500000e+01 
7.5000000e-01 3.0000000e+00 1.2000000e+01 
7.5000000e-01 3.0000000e+00 1.2500000e+01 
7.5000000e-01 3.0000000e+00 1.3000000e+01 
7.5000000e-01 3.0000000e+00 1.3500000e+01 
7.5000000e-01 3.0000000e+00 1.4000000e+01 
7.5000000e-01 3.0000000e+00 1.4500000e+01 
7.5000000e-01 3.0000000e+00 1.5000000e+01 
7.5000000e-01 3.0000000e+00 1.5500000e+01 
7.5000000e-01 3.0000000e+00 1.6000000e+01 
7.5000000e-01 3.0000000e+00 1.6500000e+01 
7.5000000e-01 3.0000000e+00 1.7000000e+01 
7.5000000e-01 3.0000000e+00 1.7500000e+01 
7.5000000e-01 3.0000000e+00 1.8000000e+01 
7.5000000e-01 3.0000000e+00 1.8500000e+01 
7.5000000e-01 3.0000000e+00 1.9000000e+01 
7.5000000e-01 3.0000000e+00 1.9500000e+01 
7.5000000e-01 3.0000000e+00 2.0000000e+01 
7.5000000e-01 3.0000000e+00 2.0500000e+01 
7.5000000e-01 3.0000000e+00 2.1000000e+01 
7.5000000e-01 3.0000000e+00 2.1500000e+01 
7.5000000e-01 3.0000000e+00 2.2000000e+01 
7.5000000e-01 3.0000000e+00 2.2500000e+01 
7.5000000e-01 3.0000000e+00 2.3000000e+01 
7.5000000e-01 3.0000000e+00 2.3500000e+01 
7.5000000e-01 3.0000000e+00 2.4000000e+01 
7.5000000e-01 3.0000000e+00 2.4500000e+01 
7.5000000e-01 3.0000000e+00 2.5000000e+01 
7.5000000e-01 3.0000000e+00 2.5500000e+01 
7.5000000e-01 3.0000000e+00 2.6000000e+01 
7.5000000e-01 3.0000000e+00 2.6500000e+01 
7.5000000e-01 3.0000000e+00 2.7000000e+01 
7.5000000e-01 3.0000000e+00 2.7500000e+01 
7.5000000e-01 3.0000000e+00 2.8000000e+01 
7.5000000e-01 3.0000000e+00 2.8500000e+01 
7.5000000e-01 3.0000000e+00 2.9000000e+01 
7.5000000e-01 3.0000000e+00 2.9500000e+01 
7.5000000e-01 3.0000000e+00 3.0000000e+01 
7.5000000e-01 3.0000000e+00 3.0500000e+01 
7.5000000e-01 3.0000000e+00 3.1000000e+01 
7.5000000e-01 3.0000000e+00 3.1500000e+01 
7.5000000e-01 3.0000000e+00 3.2000000e+01 
7.5000000e-01 3.0000000e+00 3.2500000e+01 
7.5000000e-01 3.0000000e+00 3.3000000e+01 
7.5000000e-01 3.0000000e+00 3.3500000e+01 
7.5000000e-01 3.0000000e+00 3.4000000e+01 
7.5000000e-01 3.0000000e+00 3.4500000e+01 
7.5000000e-01 3.0000000e+00 3.5000000e+01 
7.5000000e-01 3.0000000e+00 3.5500000e+01 
7.5000000e-01 3.0000000e+00 3.6000000e+01 
7.5000000e-01 3.0000000e+00 3.6500000e+01 
7.5000000e-01 3.0000000e+00 3.7000000e+01 
7.5000000e-01 3.0000000e+00 3.7500000e+01 
7.5000000e-01 3.0000000e+00 3.8000000e+01 
7.5000000e-01 3.0000000e+00 3.8500000e+01 
7.5000000e-01 3.0000000e+00 3.9000000e+01 
7.5000000e-01 3.0000000e+00 3.9500000e+01 
7.5000000e-01 3.0000000e+00 4.0500000e+01 
7.5000000e-01 3.0000000e+00 4.1000000e+01 
7.5000000e-01 3.0000000e+00 4.1500000e+01 
7.5000000e-01 3.0000000e+00 4.2000000e+01 
7.5000000e-01 3.0000000e+00 4.2500000e+01 
7.5000000e-01 3.0000000e+00 4.3000000e+01 
7.5000000e-01 3.0000000e+00 4.3500000e+01 
7.5000000e-01 3.0000000e+00 4.4000000e+01 
7.5000000e-01 3.0000000e+00 4.4500000e+01 
7.5000000e-01 3.0000000e+00 4.5000000e+01 
7.5000000e-01 3.0000000e+00 4.5500000e+01 
7.5000000e-01 3.0000000e+00 4.6000000e+01 
7.5000000e-01 3.0000000e+00 4.6500000e+01 
7.5000000e-01 3.0000000e+00 4.7000000e+01 
7.5000000e-01 3.0000000e+00 4.7500000e+01 
7.5000000e-01 3.0000000e+00 4.8000000e+01 
7.5000000e-01 3.0000000e+00 4.8500000e+01 
7.5000000e-01 3.0000000e+00 4.9000000e+01 
7.5000000e-01 3.0000000e+00 4.9500000e+01 
7.5000000e-01 3.0000000e+00 5.0000000e+01 
7.5000000e-01 3.0250001e+00 0.0000000e+00 
7.5000000e-01 3.0250001e+00 5.0000000e-01 
7.5000000e-01 3.0250001e+00 1.0000000e+00 
7.5000000e-01 3.0250001e+00 1.5000000e+00 
7.5000000e-01 3.0250001e+00 2.0000000e+00 
7.5000000e-01 3.0250001e+00 2.5000000e+00 
7.5000000e-01 3.0250001e+00 3.0000000e+00 
7.5000000e-01 3.0250001e+00 3.5000000e+00 
7.5000000e-01 3.0250001e+00 4.0000000e+00 
7.5000000e-01 3.0250001e+00 4.5000000e+00 
7.5000000e-01 3.0250001e+00 5.0000000e+00 
7.5000000e-01 3.0250001e+00 5.5000000e+00 
7.5000000e-01 3.0250001e+00 6.0000000e+00 
7.5000000e-01 3.0250001e+00 6.5000000e+00 
7.5000000e-01 3.0250001e+00 7.0000000e+00 
7.5000000e-01 3.0250001e+00 7.5000000e+00 
7.5000000e-01 3.0250001e+00 8.0000000e+00 
7.5000000e-01 3.0250001e+00 8.5000000e+00 
7.5000000e-01 3.0250001e+00 9.0000000e+00 
7.5000000e-01 3.0250001e+00 9.5000000e+00 
7.5000000e-01 3.0250001e+00 1.0000000e+01 
7.5000000e-01 3.0250001e+00 1.0500000e+01 
7.5000000e-01 3.0250001e+00 1.1000000e+01 
7.5000000e-01 3.0250001e+00 1.1500000e+01 
7.5000000e-01 3.0250001e+00 1.2000000e+01 
7.5000000e-01 3.0250001e+00 1.2500000e+01 
7.5000000e-01 3.0250001e+00 1.3000000e+01 
7.5000000e-01 3.0250001e+00 1.3500000e+01 
7.5000000e-01 3.0250001e+00 1.4000000e+01 
7.5000000e-01 3.0250001e+00 1.4500000e+01 
7.5000000e-01 3.0250001e+00 1.5000000e+01 
7.5000000e-01 3.0250001e+00 1.5500000e+01 
7.5000000e-01 3.0250001e+00 1.6000000e+01 
7.5000000e-01 3.0250001e+00 1.6500000e+01 
7.5000000e-01 3.0250001e+00 1.7000000e+01 
7.5000000e-01 3.0250001e+00 1.7500000e+01 
7.5000000e-01 3.0250001e+00 1.8000000e+01 
7.5000000e-01 3.0250001e+00 1.8500000e+01 
7.5000000e-01 3.0250001e+00 1.9000000e+01 
7.5000000e-01 3.0250001e+00 1.9500000e+01 
7.5000000e-01 3.0250001e+00 2.0000000e+01 
7.5000000e-01 3.0250001e+00 2.0500000e+01 
7.5000000e-01 3.0250001e+00 2.1000000e+01 
7.5000000e-01 3.0250001e+00 2.1500000e+01 
7.5000000e-01 3.0250001e+00 2.2000000e+01 
7.5000000e-01 3.0250001e+00 2.2500000e+01 
7.5000000e-01 3.0250001e+00 2.3000000e+01 
7.5000000e-01 3.0250001e+00 2.3500000e+01 
7.5000000e-01 3.0250001e+00 2.4000000e+01 
7.5000000e-01 3.0250001e+00 2.4500000e+01 
7.5000000e-01 3.0250001e+00 2.5000000e+01 
7.5000000e-01 3.0250001e+00 2.5500000e+01 
7.5000000e-01 3.0250001e+00 2.6000000e+01 
7.5000000e-01 3.0250001e+00 2.6500000e+01 
7.5000000e-01 3.0250001e+00 2.7000000e+01 
7.5000000e-01 3.0250001e+00 2.7500000e+01 
7.5000000e-01 3.0250001e+00 2.8000000e+01 
7.5000000e-01 3.0250001e+00 2.8500000e+01 
7.5000000e-01 3.0250001e+00 2.9000000e+01 
7.5000000e-01 3.0250001e+00 2.9500000e+01 
7.5000000e-01 3.0250001e+00 3.0000000e+01 
7.5000000e-01 3.0250001e+00 3.0500000e+01 
7.5000000e-01 3.0250001e+00 3.1000000e+01 
7.5000000e-01 3.0250001e+00 3.1500000e+01 
7.5000000e-01 3.0250001e+00 3.2000000e+01 
7.5000000e-01 3.0250001e+00 3.2500000e+01 
7.5000000e-01 3.0250001e+00 3.3000000e+01 
7.5000000e-01 3.0250001e+00 3.3500000e+01 
7.5000000e-01 3.0250001e+00 3.4000000e+01 
7.5000000e-01 3.0250001e+00 3.4500000e+01 
7.5000000e-01 3.0250001e+00 3.5000000e+01 
7.5000000e-01 3.0250001e+00 3.5500000e+01 
7.5000000e-01 3.0250001e+00 3.6000000e+01 
7.5000000e-01 3.0250001e+00 3.6500000e+01 
7.5000000e-01 3.0250001e+00 3.7000000e+01 
7.5000000e-01 3.0250001e+00 3.7500000e+01 
7.5000000e-01 3.0250001e+00 3.8000000e+01 
7.5000000e-01 3.0250001e+00 3.8500000e+01 
7.5000000e-01 3.0250001e+00 3.9000000e+01 
7.5000000e-01 3.0250001e+00 3.9500000e+01 
7.5000000e-01 3.0250001e+00 4.0000000e+01 
7.5000000e-01 3.0250001e+00 4.0500000e+01 
7.5000000e-01 3.0250001e+00 4.1000000e+01 
7.5000000e-01 3.0250001e+00 4.1500000e+01 
7.5000000e-01 3.0250001e+00 4.2000000e+01 
7.5000000e-01 3.0250001e+00 4.2500000e+01 
7.5000000e-01 3.0250001e+00 4.3000000e+01 
7.5000000e-01 3.0250001e+00 4.3500000e+01 
7.5000000e-01 3.0250001e+00 4.4000000e+01 
7.5000000e-01 3.0250001e+00 4.4500000e+01 
7.5000000e-01 3.0250001e+00 4.5000000e+01 
7.5000000e-01 3.0250001e+00 4.5500000e+01 
7.5000000e-01 3.0250001e+00 4.6000000e+01 
7.5000000e-01 3.0250001e+00 4.6500000e+01 
7.5000000e-01 3.0250001e+00 4.7000000e+01 
7.5000000e-01 3.0250001e+00 4.7500000e+01 
7.5000000e-01 3.0250001e+00 4.8000000e+01 
7.5000000e-01 3.0250001e+00 4.8500000e+01 
7.5000000e-01 3.0250001e+00 4.9000000e+01 
7.5000000e-01 3.0250001e+00 4.9500000e+01 
7.5000000e-01 3.0250001e+00 5.0000000e+01 
3.0000000e+00 2.0000000e+00 3.6000000e+01 
8.0487806e-01 3.0000000e+00 3.6000000e+01 
0.0000000e+00 0.0000000e+00 2.0000000e+00 
0.0000000e+00 0.0000000e+00 4.0000000e+00 
0.0000000e+00 0.0000000e+00 6.0000000e+00 
0.0000000e+00 0.0000000e+00 8.0000000e+00 
0.0000000e+00 0.0000000e+00 1.0000000e+01 
0.0000000e+00 0.0000000e+00 1.2000000e+01 
0.0000000e+00 0.0000000e+00 1.4000000e+01 
0.0000000e+00 0.0000000e+00 1.6000000e+01 
[...]
POINT_DATA 661
FIELD FieldData 3
DISPLACEMENT 3 661  float
0.0000000e+00 0.0000000e+00 0.0000000e+00 
0.0000000e+00 0.0000000e+00 0.0000000e+00 
0.0000000e+00 0.0000000e+00 0.0000000e+00 
0.0000000e+00 0.0000000e+00 0.0000000e+00 
-8.3831884e-07 -4.8718684e-06 3.4393922e-06 
-9.3472028e-07 -4.7969729e-06 -6.4425608e-06 
0.0000000e+00 -9.0876938e-06 0.0000000e+00 
0.0000000e+00 3.7500620e-05 0.0000000e+00 
7.2052394e-06 -1.3253674e-05 -4.7515632e-06 
5.5843589e-07 -1.2012754e-05 3.4266489e-07 
-1.2629525e-06 1.2018227e-05 6.8074547e-07 
-5.9547147e-06 2.2707852e-06 -6.6445809e-06 
0.0000000e+00 1.6292355e-06 0.0000000e+00 
0.0000000e+00 7.0160946e-05 0.0000000e+00 
2.8866794e-05 5.5605124e-05 -3.0956387e-05 
3.5882767e-05 5.1296145e-05 -2.7255590e-05 
-1.1451130e-05 9.8080433e-05 -6.4618775e-06 
4.2965978e-05 9.2199392e-05 -2.0897178e-05 
0.0000000e+00 3.0772149e-05 0.0000000e+00 
0.0000000e+00 1.0068815e-04 0.0000000e+00 
8.1182898e-06 9.5978670e-05 3.8914709e-06 
2.2946944e-05 9.0398818e-05 1.0525601e-05 
1.2033477e-05 8.4556181e-05 2.9452198e-05 
-9.9963790e-06 7.8561541e-05 1.8445151e-05 
-9.3055887e-06 7.4631047e-05 1.7175902e-05 
-2.3853549e-05 7.6983248e-05 2.3158111e-05 
-5.8956730e-06 7.1947572e-05 -2.5228368e-05 
3.1178301e-05 7.8823832e-05 2.1570575e-06 
4.4306034e-05 9.5321047e-05 -1.4099913e-06 
7.1628347e-06 1.0779919e-04 -1.3643629e-05 
5.2873067e-05 1.1182237e-04 -1.0131611e-06 
1.9363328e-05 1.2687653e-04 -2.6672285e-05 
8.0041777e-05 1.7716795e-04 -3.7401460e-05 
9.9981800e-05 2.5232040e-04 -1.1773634e-05 
7.2431700e-05 3.3011439e-04 1.0309437e-05 
5.7096626e-05 3.1312744e-04 1.4507275e-05 
-3.5699584e-05 1.4818298e-04 7.5517019e-05 
2.0542851e-05 -1.4220610e-04 9.6308308e-05 
-5.6766596e-05 -5.7074189e-04 1.3468761e-04 
-4.2106425e-05 -1.1881600e-03 1.2118611e-04 
-1.7966653e-04 -2.0744118e-03 1.9055769e-04 
-2.4013132e-04 -3.1120947e-03 2.1644199e-04 
-1.3276306e-04 -4.0057376e-03 1.8940731e-04 
-1.5723135e-04 -4.1207736e-03 2.0161911e-04 
-2.8512295e-04 -3.9699953e-03 1.4679179e-04 
-3.7254120e-04 -3.9620120e-03 9.7977798e-05 
-2.3955600e-04 -4.2653740e-03 3.8653521e-05 
-8.1684266e-05 -4.3548336e-03 -1.5710653e-05 
-1.0779124e-04 -3.6805610e-03 -1.0536753e-04 
-2.1027235e-04 -2.6155040e-03 -1.4811188e-04 
-2.0274030e-04 -1.6461818e-03 -1.6414605e-04 
-6.2359424e-05 -8.8936742e-04 -1.3371019e-04 
-1.5521111e-05 -3.8441765e-04 -2.0093242e-04 
4.7182752e-06 -6.1540115e-05 -1.9436152e-04 
1.2476065e-05 1.3193823e-04 -1.7479906e-04 
2.8397988e-05 2.1716485e-04 -1.4079698e-04 
7.7603807e-05 2.0847864e-04 -9.3435883e-05 
8.9573732e-05 1.5162161e-04 -2.9123623e-05 
6.4613028e-05 9.5084535e-05 4.0371269e-06 
1.2243783e-05 5.2641983e-05 1.9178720e-05 
-2.8845325e-05 2.6102332e-05 1.6035543e-05 
-1.7348921e-05 4.6118807e-06 -1.1492795e-05 
-4.6077297e-05 -2.1294099e-05 -3.5603796e-05 
-1.7660954e-05 -4.9881775e-05 -2.8880197e-05 
3.8347039e-06 -7.4350086e-05 3.9213937e-06 
1.2103461e-05 -8.1831124e-05 -9.5545192e-06 
3.0893185e-05 -6.4183951e-05 -3.4950435e-07 
-8.9634814e-06 -1.1440890e-05 1.4374867e-05 
6.2504594e-05 7.0936847e-05 -4.2649448e-05 
2.9476019e-05 1.5570964e-04 -2.5228946e-05 
9.1496491e-05 2.3789427e-04 -3.1211683e-05 
6.6066161e-05 2.8429867e-04 -1.0271015e-04 
5.3585452e-05 3.0321596e-04 -7.2759634e-05 
1.1476616e-04 3.2473967e-04 -5.5331147e-05 
4.4238877e-05 3.5826821e-04 -4.5141300e-05 
6.6762281e-05 3.2116607e-04 3.0359108e-05 
5.9211070e-06 1.2392009e-04 8.4917869e-05 
-8.1110447e-06 -2.5501644e-04 1.4471597e-04 
-4.6879621e-05 -8.3876197e-04 2.2089019e-04 
-1.1182301e-04 -1.5834573e-03 2.0677380e-04 
-2.3263905e-04 -2.5003168e-03 2.7069810e-04 
-3.0382944e-04 -3.4697505e-03 2.4268767e-04 
-1.5350066e-04 -4.2375252e-03 1.7784395e-04 
-1.4065763e-04 -4.2982446e-03 1.5223489e-04 
-2.8592258e-04 -4.1649202e-03 9.8309851e-05 
-3.2776277e-04 -4.1502295e-03 3.9082406e-05 
-2.1889659e-04 -4.3346020e-03 2.1704675e-06 
-6.7264322e-05 -4.2156894e-03 1.0107866e-07 
-1.0158565e-04 -3.4033994e-03 -1.1599954e-04 
-2.0062190e-04 -2.3114835e-03 -1.5867758e-04 
-2.1521572e-04 -1.3915416e-03 -1.6508305e-04 
-1.5051715e-04 -7.0443068e-04 -1.3602010e-04 
-7.3511379e-05 -2.6145636e-04 -1.4478239e-04 
-5.1327785e-05 -9.3381095e-07 -1.3064816e-04 
-3.8633927e-05 1.2947015e-04 -1.3637873e-04 
-9.0430649e-06 1.7308288e-04 -1.3431821e-04 
1.2467718e-05 1.7192187e-04 -1.1350671e-04 
3.1743817e-05 1.5603128e-04 -8.6925051e-05 
3.4431439e-05 1.3280647e-04 -7.4720898e-05 
0.0000000e+00 3.8536728e-05 0.0000000e+00 
0.0000000e+00 -1.7161432e-05 0.0000000e+00 
0.0000000e+00 -6.4464402e-05 0.0000000e+00 
0.0000000e+00 -9.9403471e-05 0.0000000e+00 
0.0000000e+00 -1.2099554e-04 0.0000000e+00 
0.0000000e+00 -1.2586960e-04 0.0000000e+00 
0.0000000e+00 -1.0935973e-04 0.0000000e+00 
0.0000000e+00 -7.2031267e-05 0.0000000e+00 
0.0000000e+00 -2.3119133e-05 0.0000000e+00 
0.0000000e+00 2.4023557e-05 0.0000000e+00 
0.0000000e+00 5.9843675e-05 0.0000000e+00 
0.0000000e+00 8.1707934e-05 0.0000000e+00 
0.0000000e+00 9.0254878e-05 0.0000000e+00 
0.0000000e+00 8.4803498e-05 0.0000000e+00 
0.0000000e+00 6.3738109e-05 0.0000000e+00 
0.0000000e+00 2.8878047e-05 0.0000000e+00 
0.0000000e+00 -1.2158769e-05 0.0000000e+00 
0.0000000e+00 -4.8915012e-05 0.0000000e+00 
0.0000000e+00 -7.3276060e-05 0.0000000e+00 
0.0000000e+00 -8.1644306e-05 0.0000000e+00 
0.0000000e+00 9.8378085e-05 0.0000000e+00 
0.0000000e+00 9.6035001e-05 0.0000000e+00 
0.0000000e+00 9.0313173e-05 0.0000000e+00 
0.0000000e+00 8.4260289e-05 0.0000000e+00 
0.0000000e+00 7.8620884e-05 0.0000000e+00 
0.0000000e+00 7.5699048e-05 0.0000000e+00 
0.0000000e+00 7.5319920e-05 0.0000000e+00 
0.0000000e+00 7.3095922e-05 0.0000000e+00 
0.0000000e+00 7.9593767e-05 0.0000000e+00 
0.0000000e+00 9.4889387e-05 0.0000000e+00 
0.0000000e+00 1.0690530e-04 0.0000000e+00 
0.0000000e+00 1.1115641e-04 0.0000000e+00 
0.0000000e+00 1.2793530e-04 0.0000000e+00 
0.0000000e+00 1.7823906e-04 0.0000000e+00 
0.0000000e+00 2.5714116e-04 0.0000000e+00 
0.0000000e+00 3.2853050e-04 0.0000000e+00 
0.0000000e+00 3.0890532e-04 0.0000000e+00 
0.0000000e+00 1.4915163e-04 0.0000000e+00 
0.0000000e+00 -1.4086135e-04 0.0000000e+00 
0.0000000e+00 -5.6873978e-04 0.0000000e+00 
0.0000000e+00 -1.1957017e-03 0.0000000e+00 
0.0000000e+00 -2.0839800e-03 0.0000000e+00 
0.0000000e+00 -3.1500971e-03 0.0000000e+00 
0.0000000e+00 -4.0278970e-03 0.0000000e+00 
0.0000000e+00 -4.1457764e-03 0.0000000e+00 
0.0000000e+00 -3.9830361e-03 0.0000000e+00 
0.0000000e+00 -3.9961049e-03 0.0000000e+00 
0.0000000e+00 -4.2876536e-03 0.0000000e+00 
0.0000000e+00 -4.3874476e-03 0.0000000e+00 
0.0000000e+00 -3.6972528e-03 0.0000000e+00 
0.0000000e+00 -2.6344594e-03 0.0000000e+00 
0.0000000e+00 -1.6499574e-03 0.0000000e+00 
0.0000000e+00 -8.9371664e-04 0.0000000e+00 
0.0000000e+00 -3.8354695e-04 0.0000000e+00 
0.0000000e+00 -5.9997488e-05 0.0000000e+00 
0.0000000e+00 1.3245510e-04 0.0000000e+00 
0.0000000e+00 2.1626732e-04 0.0000000e+00 
0.0000000e+00 2.0869018e-04 0.0000000e+00 
0.0000000e+00 1.5311339e-04 0.0000000e+00 
0.0000000e+00 9.5459545e-05 0.0000000e+00 
0.0000000e+00 5.3419779e-05 0.0000000e+00 
0.0000000e+00 2.6339772e-05 0.0000000e+00 
0.0000000e+00 4.0188938e-06 0.0000000e+00 
0.0000000e+00 -2.1536433e-05 0.0000000e+00 
0.0000000e+00 -5.0117917e-05 0.0000000e+00 
0.0000000e+00 -7.4106836e-05 0.0000000e+00 
0.0000000e+00 -8.1786755e-05 0.0000000e+00 
0.0000000e+00 -6.3588261e-05 0.0000000e+00 
0.0000000e+00 -1.0609610e-05 0.0000000e+00 
0.0000000e+00 7.0299851e-05 0.0000000e+00 
0.0000000e+00 1.5790715e-04 0.0000000e+00 
0.0000000e+00 2.3567592e-04 0.0000000e+00 
0.0000000e+00 2.8221024e-04 0.0000000e+00 
0.0000000e+00 3.0422080e-04 0.0000000e+00 
0.0000000e+00 3.2973086e-04 0.0000000e+00 
0.0000000e+00 3.5971936e-04 0.0000000e+00 
0.0000000e+00 3.1879978e-04 0.0000000e+00 
0.0000000e+00 1.2348377e-04 0.0000000e+00 
0.0000000e+00 -2.5947826e-04 0.0000000e+00 
0.0000000e+00 -8.3697721e-04 0.0000000e+00 
0.0000000e+00 -1.5888703e-03 0.0000000e+00 
0.0000000e+00 -2.5094417e-03 0.0000000e+00 
0.0000000e+00 -3.5078672e-03 0.0000000e+00 
0.0000000e+00 -4.2629559e-03 0.0000000e+00 
0.0000000e+00 -4.3274038e-03 0.0000000e+00 
0.0000000e+00 -4.1776504e-03 0.0000000e+00 
0.0000000e+00 -4.1802609e-03 0.0000000e+00 
0.0000000e+00 -4.3558567e-03 0.0000000e+00 
0.0000000e+00 -4.2517525e-03 0.0000000e+00 
0.0000000e+00 -3.4218833e-03 0.0000000e+00 
0.0000000e+00 -2.3301037e-03 0.0000000e+00 
0.0000000e+00 -1.3933362e-03 0.0000000e+00 
0.0000000e+00 -7.0734340e-04 0.0000000e+00 
0.0000000e+00 -2.6130775e-04 0.0000000e+00 
0.0000000e+00 -4.1766123e-07 0.0000000e+00 
0.0000000e+00 1.2988564e-04 0.0000000e+00 
0.0000000e+00 1.7395268e-04 0.0000000e+00 
0.0000000e+00 1.7304698e-04 0.0000000e+00 
0.0000000e+00 1.5670179e-04 0.0000000e+00 
0.0000000e+00 1.3207630e-04 0.0000000e+00 
0.0000000e+00 9.2012131e-05 0.0000000e+00 
0.0000000e+00 3.8679747e-05 0.0000000e+00 
0.0000000e+00 -1.6933542e-05 0.0000000e+00 
0.0000000e+00 -6.4455606e-05 0.0000000e+00 
0.0000000e+00 -9.9540244e-05 0.0000000e+00 
0.0000000e+00 -1.2096622e-04 0.0000000e+00 
0.0000000e+00 -1.2555513e-04 0.0000000e+00 
0.0000000e+00 -1.0899622e-04 0.0000000e+00 
0.0000000e+00 -7.1932489e-05 0.0000000e+00 
0.0000000e+00 -2.3325802e-05 0.0000000e+00 
0.0000000e+00 2.3756609e-05 0.0000000e+00 
0.0000000e+00 5.9746697e-05 0.0000000e+00 
0.0000000e+00 8.1758415e-05 0.0000000e+00 
0.0000000e+00 9.0256814e-05 0.0000000e+00 
0.0000000e+00 8.4646672e-05 0.0000000e+00 
0.0000000e+00 6.3521307e-05 0.0000000e+00 
0.0000000e+00 2.8780554e-05 0.0000000e+00 
0.0000000e+00 -1.2077337e-05 0.0000000e+00 
0.0000000e+00 -4.8755548e-05 0.0000000e+00 
0.0000000e+00 -7.3160103e-05 0.0000000e+00 
0.0000000e+00 -8.1573191e-05 0.0000000e+00 
2.8187840e-05 -4.0786486e-05 4.7443064e-06 
-1.0902161e-04 -6.2175706e-04 -1.0630415e-04 
0.0000000e+00 0.0000000e+00 0.0000000e+00 
0.0000000e+00 0.0000000e+00 0.0000000e+00 
0.0000000e+00 0.0000000e+00 0.0000000e+00 
0.0000000e+00 0.0000000e+00 0.0000000e+00 
0.0000000e+00 0.0000000e+00 0.0000000e+00 
0.0000000e+00 0.0000000e+00 0.0000000e+00 
0.0000000e+00 0.0000000e+00 0.0000000e+00 
0.0000000e+00 0.0000000e+00 0.0000000e+00 
0.0000000e+00 0.0000000e+00 0.0000000e+00 
0.0000000e+00 0.0000000e+00 0.0000000e+00 
0.0000000e+00 0.0000000e+00 0.0000000e+00 
0.0000000e+00 0.0000000e+00 0.0000000e+00 
0.0000000e+00 0.0000000e+00 0.0000000e+00 
0.0000000e+00 0.0000000e+00 0.0000000e+00 
0.0000000e+00 0.0000000e+00 0.0000000e+00 
0.0000000e+00 0.0000000e+00 0.0000000e+00 
0.0000000e+00 0.0000000e+00 0.0000000e+00 
0.0000000e+00 0.0000000e+00 0.0000000e+00 
0.0000000e+00 0.0000000e+00 0.0000000e+00 
0.0000000e+00 0.0000000e+00 0.0000000e+00 
0.0000000e+00 0.0000000e+00 0.0000000e+00 
0.0000000e+00 0.0000000e+00 0.0000000e+00 
0.0000000e+00 0.0000000e+00 0.0000000e+00 
0.0000000e+00 0.0000000e+00 0.0000000e+00 
0.0000000e+00 0.0000000e+00 0.0000000e+00 
0.0000000e+00 0.0000000e+00 0.0000000e+00 
0.0000000e+00 0.0000000e+00 0.0000000e+00 
0.0000000e+00 0.0000000e+00 0.0000000e+00 
0.0000000e+00 0.0000000e+00 0.0000000e+00 
0.0000000e+00 0.0000000e+00 0.0000000e+00 
0.0000000e+00 0.0000000e+00 0.0000000e+00 
0.0000000e+00 0.0000000e+00 0.0000000e+00 
0.0000000e+00 0.0000000e+00 0.0000000e+00 
0.0000000e+00 0.0000000e+00 0.0000000e+00 
0.0000000e+00 0.0000000e+00 0.0000000e+00 
0.0000000e+00 0.0000000e+00 0.0000000e+00 
0.0000000e+00 0.0000000e+00 0.0000000e+00 
0.0000000e+00 0.0000000e+00 0.0000000e+00 
0.0000000e+00 0.0000000e+00 0.0000000e+00 
0.0000000e+00 0.0000000e+00 0.0000000e+00 
0.0000000e+00 0.0000000e+00 0.0000000e+00 
0.0000000e+00 0.0000000e+00 0.0000000e+00 
-7.7731838e-06 -1.1809086e-07 3.2960327e-06 
-1.4105627e-05 -5.2619930e-06 4.1925869e-06 
-2.5905283e-06 1.8215847e-07 2.1760814e-06 
1.3134632e-05 -5.0172616e-06 -2.4735443e-06 
3.2393145e-05 -8.3413579e-06 -1.0711116e-05 
4.9812206e-05 -1.4848626e-05 -7.4981372e-06 
4.7349069e-05 -1.2927358e-05 1.4374095e-06 
1.1709421e-05 -1.1056835e-05 -6.3434072e-06 
-1.0650361e-05 -8.7254939e-06 -2.0979655e-06 
-1.6135300e-05 -8.0177224e-06 7.3277374e-06 
-1.5577463e-05 -1.1786058e-05 -1.1236775e-06 
-1.7064485e-05 -1.2075016e-05 6.1302926e-06 
-2.0437117e-05 -5.2142451e-07 9.0376925e-06 
-6.2554633e-08 -7.9797364e-06 -4.2475167e-06 
3.2105767e-05 -1.4879063e-05 -9.1850097e-06 
5.9299222e-05 -1.2379312e-05 6.0327284e-06 
6.4907515e-05 -1.0968014e-05 1.2625444e-05 
2.1530737e-05 -4.1748303e-06 7.5292078e-06 
-8.9897658e-06 7.5320336e-06 -3.4810685e-06 
0.0000000e+00 -4.3253884e-05 0.0000000e+00 
0.0000000e+00 4.2450720e-06 0.0000000e+00 
0.0000000e+00 -9.2292994e-06 0.0000000e+00 
0.0000000e+00 8.1784292e-06 0.0000000e+00 
0.0000000e+00 -1.2876419e-04 0.0000000e+00 
0.0000000e+00 -4.7387762e-04 0.0000000e+00 
0.0000000e+00 -5.5448263e-04 0.0000000e+00 
0.0000000e+00 -2.4812264e-04 0.0000000e+00 
0.0000000e+00 -4.1057181e-05 0.0000000e+00 
0.0000000e+00 -3.3987544e-05 0.0000000e+00 
0.0000000e+00 -5.4190416e-05 0.0000000e+00 
0.0000000e+00 -7.9368663e-05 0.0000000e+00 
0.0000000e+00 8.8350398e-06 0.0000000e+00 
0.0000000e+00 3.7460508e-05 0.0000000e+00 
0.0000000e+00 -1.8313459e-04 0.0000000e+00 
0.0000000e+00 -5.7397923e-04 0.0000000e+00 
0.0000000e+00 -5.3766463e-04 0.0000000e+00 
0.0000000e+00 -1.5164151e-04 0.0000000e+00 
0.0000000e+00 2.0437008e-05 0.0000000e+00 
-4.3112177e-06 5.3124691e-06 -3.3692152e-07 
-6.0796668e-07 1.0745359e-05 3.2040898e-06 
-6.3331040e-06 -1.2381096e-06 -2.7267913e-06 
-9.8771507e-06 2.2981534e-05 -1.5526311e-05 
-5.4490883e-06 2.5183188e-06 6.7796850e-06 
-1.4908726e-05 -4.5514948e-06 5.5973519e-06 
-2.5298318e-06 1.8270848e-07 5.2746491e-06 
1.9175068e-05 -8.6685232e-06 -1.5076946e-06 
3.7527567e-05 -6.7016495e-06 -1.9033606e-06 
3.7353533e-05 -1.7961416e-05 2.3965331e-06 
1.2431925e-05 -7.0751189e-06 -3.3453597e-07 
2.7638225e-07 -6.5012709e-06 -2.3053601e-05 
-1.3774306e-06 -1.1957970e-05 -9.3387162e-06 
2.9835257e-06 -1.5219075e-05 6.8933123e-06 
4.4426048e-07 -2.1198026e-05 1.0161721e-05 
-9.2978489e-06 -1.8096674e-05 -4.7989550e-07 
-3.6596194e-07 -5.8989599e-06 3.6125159e-06 
1.7003178e-05 -6.2589102e-06 4.4071935e-06 
2.9854320e-05 -1.3919766e-05 4.2723693e-07 
4.0229377e-05 -1.4811974e-05 9.9372764e-06 
3.6682377e-05 -5.1628217e-06 1.0829674e-05 
1.1156962e-05 4.2549109e-06 -3.9104334e-06 
-9.5506994e-06 6.7700689e-06 -5.0795848e-06 
-3.4252746e-06 2.3353083e-05 1.2268210e-05 
0.0000000e+00 -3.7949725e-05 0.0000000e+00 
0.0000000e+00 -4.1600466e-05 0.0000000e+00 
0.0000000e+00 1.7539243e-05 0.0000000e+00 
0.0000000e+00 1.3567081e-04 0.0000000e+00 
0.0000000e+00 -3.6072696e-04 0.0000000e+00 
0.0000000e+00 -1.1256852e-03 0.0000000e+00 
0.0000000e+00 -1.2119696e-03 0.0000000e+00 
0.0000000e+00 -4.3302568e-04 0.0000000e+00 
0.0000000e+00 -2.0622623e-05 0.0000000e+00 
0.0000000e+00 -4.0681760e-05 0.0000000e+00 
0.0000000e+00 -1.1093719e-04 0.0000000e+00 
0.0000000e+00 -1.5520002e-04 0.0000000e+00 
0.0000000e+00 1.6140736e-04 0.0000000e+00 
0.0000000e+00 1.0704254e-04 0.0000000e+00 
0.0000000e+00 -4.9909775e-04 0.0000000e+00 
0.0000000e+00 -1.2574743e-03 0.0000000e+00 
0.0000000e+00 -1.1576155e-03 0.0000000e+00 
0.0000000e+00 -2.6800792e-04 0.0000000e+00 
0.0000000e+00 5.9948605e-05 0.0000000e+00 
-4.3831624e-06 4.2954191e-05 -3.2807486e-05 
1.5110973e-05 3.7566013e-05 4.7726389e-05 
2.1446705e-05 6.6727167e-05 -2.0299285e-05 
4.4530407e-05 1.0878327e-04 -1.4619071e-05 
7.2642593e-05 2.2243238e-04 9.3351489e-05 
-2.1143384e-04 -2.7912404e-04 3.6689983e-04 
-6.9170538e-04 -1.2898069e-03 2.4039387e-04 
-6.3911884e-04 -1.5270117e-03 -1.9121815e-04 
-1.8214314e-04 -2.2086961e-04 -3.3542025e-04 
1.8707691e-05 1.3025674e-04 -1.8775045e-04 
1.5896961e-05 9.5499390e-06 6.0173268e-05 
-5.1218049e-05 -6.3187916e-05 -1.7496883e-05 
-1.1629958e-05 -4.7991820e-05 4.1888679e-06 
7.7910816e-05 2.3623671e-04 -7.5523130e-05 
5.3529551e-05 2.1578874e-04 1.6189601e-04 
-2.8159065e-04 -4.1127994e-04 4.7305730e-04 
-6.7405630e-04 -1.4053717e-03 1.6840997e-04 
-6.1130762e-04 -1.4612442e-03 -1.0486363e-04 
-1.4875022e-04 -2.5361869e-04 -2.0495219e-04 
2.4494423e-07 9.6327894e-05 -1.6155854e-04 
0.0000000e+00 -6.1630861e-05 0.0000000e+00 
0.0000000e+00 -4.7980859e-05 0.0000000e+00 
0.0000000e+00 9.7993216e-05 0.0000000e+00 
0.0000000e+00 2.7320438e-04 0.0000000e+00 
0.0000000e+00 -7.1733096e-04 0.0000000e+00 
0.0000000e+00 -2.2890465e-03 0.0000000e+00 
0.0000000e+00 -2.3485601e-03 0.0000000e+00 
0.0000000e+00 -6.3580269e-04 0.0000000e+00 
0.0000000e+00 1.0407606e-04 0.0000000e+00 
0.0000000e+00 -5.0777031e-05 0.0000000e+00 
0.0000000e+00 -1.2942102e-04 0.0000000e+00 
0.0000000e+00 -8.1501305e-05 0.0000000e+00 
0.0000000e+00 2.8062475e-04 0.0000000e+00 
0.0000000e+00 1.4517695e-04 0.0000000e+00 
0.0000000e+00 -9.8657305e-04 0.0000000e+00 
0.0000000e+00 -2.4946665e-03 0.0000000e+00 
0.0000000e+00 -2.2279776e-03 0.0000000e+00 
0.0000000e+00 -4.0498428e-04 0.0000000e+00 
0.0000000e+00 1.3169492e-04 0.0000000e+00 
-1.3750504e-05 -4.1342455e-06 7.3759147e-06 
-3.1260304e-06 2.2796483e-05 4.4632920e-06 
6.7673022e-06 3.7259648e-05 9.4153229e-06 
4.1926087e-05 4.4702807e-05 1.5050598e-05 
5.3210319e-05 -3.2338674e-05 1.8670607e-05 
4.1499032e-05 -1.0243266e-04 1.8767973e-06 
3.7342808e-05 -1.3973301e-04 1.8887139e-06 
3.9613213e-05 -4.8142490e-05 -1.9552310e-05 
-5.9329784e-07 2.2045962e-05 -4.2159256e-05 
6.3469161e-06 3.0183370e-05 -1.6090615e-05 
-9.3077906e-06 8.3299328e-06 1.0461475e-05 
-1.3958328e-05 -1.1364451e-05 -8.7528333e-06 
2.1405149e-05 5.6773788e-05 -2.6395878e-06 
4.8064926e-06 5.2704519e-05 2.9282683e-05 
5.2984538e-05 -4.8342779e-05 2.9395558e-05 
6.4891763e-05 -1.1539854e-04 2.5529887e-05 
5.6650373e-05 -1.2026638e-04 4.7163641e-05 
-9.9826839e-06 1.5882715e-05 -3.0533705e-05 
-3.4087159e-05 -2.0211368e-04 -9.2808245e-05 
0.0000000e+00 0.0000000e+00 0.0000000e+00 
0.0000000e+00 0.0000000e+00 0.0000000e+00 
0.0000000e+00 0.0000000e+00 0.0000000e+00 
0.0000000e+00 0.0000000e+00 0.0000000e+00 
0.0000000e+00 0.0000000e+00 0.0000000e+00 
0.0000000e+00 0.0000000e+00 0.0000000e+00 
0.0000000e+00 0.0000000e+00 0.0000000e+00 
0.0000000e+00 0.0000000e+00 0.0000000e+00 
0.0000000e+00 0.0000000e+00 0.0000000e+00 
0.0000000e+00 0.0000000e+00 0.0000000e+00 
0.0000000e+00 0.0000000e+00 0.0000000e+00 
0.0000000e+00 0.0000000e+00 0.0000000e+00 
0.0000000e+00 0.0000000e+00 0.0000000e+00 
0.0000000e+00 0.0000000e+00 0.0000000e+00 
0.0000000e+00 0.0000000e+00 0.0000000e+00 
0.0000000e+00 0.0000000e+00 0.0000000e+00 
0.0000000e+00 0.0000000e+00 0.0000000e+00 
0.0000000e+00 0.0000000e+00 0.0000000e+00 
0.0000000e+00 0.0000000e+00 0.0000000e+00 
0.0000000e+00 0.0000000e+00 0.0000000e+00 
0.0000000e+00 0.0000000e+00 0.0000000e+00 
0.0000000e+00 0.0000000e+00 0.0000000e+00 
0.0000000e+00 0.0000000e+00 0.0000000e+00 
0.0000000e+00 0.0000000e+00 0.0000000e+00 
0.0000000e+00 0.0000000e+00 0.0000000e+00 
0.0000000e+00 0.0000000e+00 0.0000000e+00 
0.0000000e+00 0.0000000e+00 0.0000000e+00 
0.0000000e+00 0.0000000e+00 0.0000000e+00 
0.0000000e+00 0.0000000e+00 0.0000000e+00 
0.0000000e+00 0.0000000e+00 0.0000000e+00 
0.0000000e+00 0.0000000e+00 0.0000000e+00 
0.0000000e+00 0.0000000e+00 0.0000000e+00 
0.0000000e+00 0.0000000e+00 0.0000000e+00 
0.0000000e+00 0.0000000e+00 0.0000000e+00 
0.0000000e+00 0.0000000e+00 0.0000000e+00 
0.0000000e+00 0.0000000e+00 0.0000000e+00 
0.0000000e+00 0.0000000e+00 0.0000000e+00 
0.0000000e+00 0.0000000e+00 0.0000000e+00 
0.0000000e+00 0.0000000e+00 0.0000000e+00 
0.0000000e+00 0.0000000e+00 0.0000000e+00 
0.0000000e+00 0.0000000e+00 0.0000000e+00 
0.0000000e+00 0.0000000e+00 0.0000000e+00 
-1.0292817e-05 -1.4032831e-06 4.8540660e-06 
2.9501101e-05 -1.1643021e-05 -4.0648072e-07 
-4.4122107e-06 -8.4442618e-06 -1.8621030e-06 
-8.7272192e-06 -4.9351629e-06 -1.5579896e-07 
-1.4491994e-05 -2.7846011e-06 6.3222519e-06 
-7.2242306e-06 -1.6049215e-07 1.2414994e-06 
8.5132406e-06 -1.0793072e-05 -6.3106727e-06 
2.8514807e-05 -1.1135982e-05 1.0191867e-06 
3.4431228e-05 -1.2322952e-05 2.6262237e-06 