# vtk DataFile Version 4.0
vtk output
ASCII
DATASET UNSTRUCTURED_GRID
POINTS 661 float
0.0000000e+00 0.0000000e+00 0.0000000e+00 
0.0000000e+00 0.0000000e+00 4.0000000e+01 
5.0000000e+00 0.0000000e+00 0.0000000e+00 
5.0000000e+00 0.0000000e+00 4.0000000e+01 
5.0000000e+00 1.0000000e+00 0.0000000e+00 
5.0000000e+00 1.0000000e+00 4.0000000e+01 
0.0000000e+00 1.0000000e+00 0.0000000e+00 
0.0000000e+00 1.0000000e+00 4.0000000e+01 
5.0000000e+00 2.0000000e+00 0.0000000e+00 
5.0000000e+00 2.0000000e+00 4.0000000e+01 
3.0000000e+00 2.0000000e+00 0.0000000e+00 
3.0000000e+00 2.0000000e+00 4.0000000e+01 
0.0000000e+00 2.0000000e+00 0.0000000e+00 
0.0000000e+00 2.0000000e+00 4.0000000e+01 
1.5000000e+00 3.0000000e+00 0.0000000e+00 
1.5000000e+00 3.0000000e+00 4.0000000e+01 
7.5000000e-01 3.0000000e+00 0.0000000e+00 
7.5000000e-01 3.0000000e+00 4.0000000e+01 
0.0000000e+00 3.0000000e+00 0.0000000e+00 
0.0000000e+00 3.0000000e+00 4.0000000e+01 
7.5000000e-01 3.0000000e+00 5.0000000e-01 
7.5000000e-01 3.0000000e+00 1.0000000e+00 
7.5000000e-01 3.0000000e+00 1.5000000e+00 
7.5000000e-01 3.0000000e+00 2.0000000e+00 
7.5000000e-01 3.0000000e+00 2.5000000e+00 
7.5000000e-01 3.0000000e+00 3.0000000e+00 
7.5000000e-01 3.0000000e+00 3.5000000e+00 
7.5000000e-01 3.0000000e+00 4.0000000e+00 
7.5000000e-01 3.0000000e+00 4.5000000e+00 
7.5000000e-01 3.0000000e+00 5.0000000e+00 
7.5000000e-01 3.0000000e+00 5.5000000e+00 
7.5000000e-01 3.0000000e+00 6.0000000e+00 
7.5000000e-01 3.0000000e+00 6.5000000e+00 
7.5000000e-01 3.0000000e+00 7.0000000e+00 
7.5000000e-01 3.0000000e+00 7.5000000e+00 
7.5000000e-01 3.0000000e+00 8.0000000e+00 
7.5000000e-01 3.0000000e+00 8.5000000e+00 
7.5000000e-01 3.0000000e+00 9.0000000e+00 
7.5000000e-01 3.0000000e+00 9.5000000e+00 
7.5000000e-01 3.0000000e+00 1.0000000e+01 
7.5000000e-01 3.0000000e+00 1.0500000e+01 
7.5000000e-01 3.0000000e+00 1.1000000e+01 
7.5000000e-01 3.0000000e+00 1.1500000e+01 
7.5000000e-01 3.0000000e+00 1.2000000e+01 
7.5000000e-01 3.0000000e+00 1.2500000e+01 
7.5000000e-01 3.0000000e+00 1.3000000e+01 
7.5000000e-01 3.0000000e+00 1.3500000e+01 
7.5000000e-01 3.0000000e+00 1.4000000e+01 
7.5000000e-01 3.0000000e+00 1.4500000e+01 
7.5000000e-01 3.0000000e+00 1.5000000e+01 
7.5000000e-01 3.0000000e+00 1.5500000e+01 
7.5000000e-01 3.0000000e+00 1.6000000e+01 
7.5000000e-01 3.0000000e+00 1.6500000e+01 
7.5000000e-01 3.0000000e+00 1.7000000e+01 
7.5000000e-01 3.0000000e+00 1.7500000e+01 
7.5000000e-01 3.0000000e+00 1.8000000e+01 
7.5000000e-01 3.0000000e+00 1.8500000e+01 
7.5000000e-01 3.0000000e+00 1.9000000e+01 
7.5000000e-01 3.0000000e+00 1.9500000e+01 
7.5000000e-01 3.0000000e+00 2.0000000e+01 
7.5000000e-01 3.0000000e+00 2.0500000e+01 
7.5000000e-01 3.0000000e+00 2.1000000e+01 
7.5000000e-01 3.0000000e+00 2.1500000e+01 
7.5000000e-01 3.0000000e+00 2.2000000e+01 
7.5000000e-01 3.0000000e+00 2.2500000e+01 
7.5000000e-01 3.0000000e+00 2.3000000e+01 
7.5000000e-01 3.0000000e+00 2.3500000e+01 
7.5000000e-01 3.0000000e+00 2.4000000e+01 
7.5000000e-01 3.0000000e+00 2.4500000e+01 
7.5000000e-01 3.0000000e+00 2.5000000e+01 
7.5000000e-01 3.0000000e+00 2.5500000e+01 
7.5000000e-01 3.0000000e+00 2.6000000e+01 
7.5000000e-01 3.0000000e+00 2.6500000e+01 
7.5000000e-01 3.0000000e+00 2.7000000e+01 
7.5000000e-01 3.0000000e+00 2.7500000e+01 
7.5000000e-01 3.0000000e+00 2.8000000e+01 
7.5000000e-01 3.0000000e+00 2.8500000e+01 
7.5000000e-01 3.0000000e+00 2.9000000e+01 
7.5000000e-01 3.0000000e+00 2.9500000e+01 
7.5000000e-01 3.0000000e+00 3.0000000e+01 
7.5000000e-01 3.0000000e+00 3.0500000e+01 
7.5000000e-01 3.0000000e+00 3.1000000e+01 
7.5000000e-01 3.0000000e+00 3.1500000e+01 
7.5000000e-01 3.0000000e+00 3.2000000e+01 
7.5000000e-01 3.0000000e+00 3.2500000e+01 
7.5000000e-01 3.0000000e+00 3.3000000e+01 
7.5000000e-01 3.0000000e+00 3.3500000e+01 
7.5000000e-01 3.0000000e+00 3.4000000e+01 
7.5000000e-01 3.0000000e+00 3.4500000e+01 
7.5000000e-01 3.0000000e+00 3.5000000e+01 
7.5000000e-01 3.0000000e+00 3.5500000e+01 
7.5000000e-01 3.0000000e+00 3.6000000e+01 
7.5000000e-01 3.0000000e+00 3.6500000e+01 
7.5000000e-01 3.0000000e+00 3.7000000e+01 
7.5000000e-01 3.0000000e+00 3.7500000e+01 
7.5000000e-01 3.0000000e+00 3.8000000e+01 
7.5000000e-01 3.0000000e+00 3.8500000e+01 
7.5000000e-01 3.0000000e+00 3.9000000e+01 
7.5000000e-01 3.0000000e+00 3.9500000e+01 
7.5000000e-01 3.0000000e+00 4.0500000e+01 
7.5000000e-01 3.0000000e+00 4.1000000e+01 
7.5000000e-01 3.0000000e+00 4.1500000e+01 
7.5000000e-01 3.0000000e+00 4.2000000e+01 
7.5000000e-01 3.0000000e+00 4.2500000e+01 
7.5000000e-01 3.0000000e+00 4.3000000e+01 
7.5000000e-01 3.0000000e+00 4.3500000e+01 
7.5000000e-01 3.0000000e+00 4.4000000e+01 
7.5000000e-01 3.0000000e+00 4.4500000e+01 
7.5000000e-01 3.0000000e+00 4.5000000e+01 
7.5000000e-01 3.0000000e+00 4.5500000e+01 
7.5000000e-01 3.0000000e+00 4.6000000e+01 
7.5000000e-01 3.0000000e+00 4.6500000e+01 
7.5000000e-01 3.0000000e+00 4.7000000e+01 
7.5000000e-01 3.0000000e+00 4.7500000e+01 
7.5000000e-01 3.0000000e+00 4.8000000e+01 
7.5000000e-01 3.0000000e+00 4.8500000e+01 
7.5000000e-01 3.0000000e+00 4.9000000e+01 
7.5000000e-01 3.0000000e+00 4.9500000e+01 
7.5000000e-01 3.0000000e+00 5.0000000e+01 
7.5000000e-01 3.0250001e+00 0.0000000e+00 
7.5000000e-01 3.0250001e+00 5.0000000e-01 
7.5000000e-01 3.0250001e+00 1.0000000e+00 
7.5000000e-01 3.0250001e+00 1.5000000e+00 
7.5000000e-01 3.0250001e+00 2.0000000e+00 
7.5000000e-01 3.0250001e+00 2.5000000e+00 
7.5000000e-01 3.0250001e+00 3.0000000e+00 
7.5000000e-01 3.0250001e+00 3.5000000e+00 
7.5000000e-01 3.0250001e+00 4.0000000e+00 
7.5000000e-01 3.0250001e+00 4.5000000e+00 
7.5000000e-01 3.0250001e+00 5.0000000e+00 
7.5000000e-01 3.0250001e+00 5.5000000e+00 
7.5000000e-01 3.0250001e+00 6.0000000e+00 
7.5000000e-01 3.0250001e+00 6.5000000e+00 
7.5000000e-01 3.0250001e+00 7.0000000e+00 
7.5000000e-01 3.0250001e+00 7.5000000e+00 
7.5000000e-01 3.0250001e+00 8.0000000e+00 
7.5000000e-01 3.0250001e+00 8.5000000e+00 
7.5000000e-01 3.0250001e+00 9.0000000e+00 
7.5000000e-01 3.0250001e+00 9.5000000e+00 
7.5000000e-01 3.0250001e+00 1.0000000e+01 
7.5000000e-01 3.0250001e+00 1.0500000e+01 
7.5000000e-01 3.0250001e+00 1.1000000e+01 
7.5000000e-01 3.0250001e+00 1.1500000e+01 
7.5000000e-01 3.0250001e+00 1.2000000e+01 
7.5000000e-01 3.0250001e+00 1.2500000e+01 
7.5000000e-01 3.0250001e+00 1.3000000e+01 
7.5000000e-01 3.0250001e+00 1.3500000e+01 
7.5000000e-01 3.0250001e+00 1.4000000e+01 
7.5000000e-01 3.0250001e+00 1.4500000e+01 
7.5000000e-01 3.0250001e+00 1.5000000e+01 
7.5000000e-01 3.0250001e+00 1.5500000e+01 
7.5000000e-01 3.0250001e+00 1.6000000e+01 
7.5000000e-01 3.0250001e+00 1.6500000e+01 
7.5000000e-01 3.0250001e+00 1.7000000e+01 
7.5000000e-01 3.0250001e+00 1.7500000e+01 
7.5000000e-01 3.0250001e+00 1.8000000e+01 
7.5000000e-01 3.0250001e+00 1.8500000e+01 
7.5000000e-01 3.0250001e+00 1.9000000e+01 
7.5000000e-01 3.0250001e+00 1.9500000e+01 
7.5000000e-01 3.0250001e+00 2.0000000e+01 
7.5000000e-01 3.0250001e+00 2.0500000e+01 
7.5000000e-01 3.0250001e+00 2.1000000e+01 
7.5000000e-01 3.0250001e+00 2.1500000e+01 
7.5000000e-01 3.0250001e+00 2.2000000e+01 
7.5000000e-01 3.0250001e+00 2.2500000e+01 
7.5000000e-01 3.0250001e+00 2.3000000e+01 
7.5000000e-01 3.0250001e+00 2.3500000e+01 
7.5000000e-01 3.0250001e+00 2.4000000e+01 
7.5000000e-01 3.0250001e+00 2.4500000e+01 
7.5000000e-01 3.0250001e+00 2.5000000e+01 
7.5000000e-01 3.0250001e+00 2.5500000e+01 
7.5000000e-01 3.0250001e+00 2.6000000e+01 
7.5000000e-01 3.0250001e+00 2.6500000e+01 
7.5000000e-01 3.0250001e+00 2.7000000e+01 
7.5000000e-01 3.0250001e+00 2.7500000e+01 
7.5000000e-01 3.0250001e+00 2.8000000e+01 
7.5000000e-01 3.0250001e+00 2.8500000e+01 
7.5000000e-01 3.0250001e+00 2.9000000e+01 
7.5000000e-01 3.0250001e+00 2.9500000e+01 
7.5000000e-01 3.0250001e+00 3.0000000e+01 
7.5000000e-01 3.0250001e+00 3.0500000e+01 
7.5000000e-01 3.0250001e+00 3.1000000e+01 
7.5000000e-01 3.0250001e+00 3.1500000e+01 
7.5000000e-01 3.0250001e+00 3.2000000e+01 
7.5000000e-01 3.0250001e+00 3.2500000e+01 
7.5000000e-01 3.0250001e+00 3.3000000e+01 
7.5000000e-01 3.0250001e+00 3.3500000e+01 
7.5000000e-01 3.0250001e+00 3.4000000e+01 
7.5000000e-01 3.0250001e+00 3.4500000e+01 
7.5000000e-01 3.0250001e+00 3.5000000e+01 
7.5000000e-01 3.0250001e+00 3.5500000e+01 
7.5000000e-01 3.0250001e+00 3.6000000e+01 
7.5000000e-01 3.0250001e+00 3.6500000e+01 
7.5000000e-01 3.0250001e+00 3.7000000e+01 
7.5000000e-01 3.0250001e+00 3.7500000e+01 
7.5000000e-01 3.0250001e+00 3.8000000e+01 
7.5000000e-01 3.0250001e+00 3.8500000e+01 
7.5000000e-01 3.0250001e+00 3.9000000e+01 
7.5000000e-01 3.0250001e+00 3.9500000e+01 
7.5000000e-01 3.0250001e+00 4.0000000e+01 
7.5000000e-01 3.0250001e+00 4.0500000e+01 
7.5000000e-01 3.0250001e+00 4.1000000e+01 
7.5000000e-01 3.0250001e+00 4.1500000e+01 
7.5000000e-01 3.0250001e+00 4.2000000e+01 
7.5000000e-01 3.0250001e+00 4.2500000e+01 
7.5000000e-01 3.0250001e+00 4.3000000e+01 
7.5000000e-01 3.0250001e+00 4.3500000e+01 
7.5000000e-01 3.0250001e+00 4.4000000e+01 
7.5000000e-01 3.0250001e+00 4.4500000e+01 
7.5000000e-01 3.0250001e+00 4.5000000e+01 
7.5000000e-01 3.0250001e+00 4.5500000e+01 
7.5000000e-01 3.0250001e+00 4.6000000e+01 
7.5000000e-01 3.0250001e+00 4.6500000e+01 
7.5000000e-01 3.0250001e+00 4.7000000e+01 
7.5000000e-01 3.0250001e+00 4.7500000e+01 
7.5000000e-01 3.0250001e+00 4.8000000e+01 
7.5000000e-01 3.0250001e+00 4.8500000e+01 
7.5000000e-01 3.0250001e+00 4.9000000e+01 
7.5000000e-01 3.0250001e+00 4.9500000e+01 
7.5000000e-01 3.0250001e+00 5.0000000e+01 
3.0000000e+00 2.0000000e+00 3.6000000e+01 
8.0487806e-01 3.0000000e+00 3.6000000e+01 
0.0000000e+00 0.0000000e+00 2.0000000e+00 
0.0000000e+00 0.0000000e+00 4.0000000e+00 
0.0000000e+00 0.0000000e+00 6.0000000e+00 
0.0000000e+00 0.0000000e+00 8.0000000e+00 
0.0000000e+00 0.0000000e+00 1.0000000e+01 
0.0000000e+00 0.0000000e+00 1.2000000e+01 
0.0000000e+00 0.0000000e+00 1.4000000e+01 
0.0000000e+00 0.0000000e+00 1.6000000e+01 
[...]
POINT_DATA 661
FIELD FieldData 3
DISPLACEMENT 3 661  float
0.0000000e+00 0.0000000e+00 0.0000000e+00 
0.0000000e+00 0.0000000e+00 0.0000000e+00 
0.0000000e+00 0.0000000e+00 0.0000000e+00 
0.0000000e+00 0.0000000e+00 0.0000000e+00 
8.0352465e-06 -4.4837525e-06 -6.8959412e-06 
9.4798434e-06 6.5350891e-06 1.4464228e-05 
0.0000000e+00 -2.3740020e-05 0.0000000e+00 
0.0000000e+00 -1.7239839e-04 0.0000000e+00 
7.4662998e-06 -3.2505088e-06 -1.0530021e-05 
2.4704583e-05 9.0559242e-06 -1.4210708e-06 
6.8652080e-06 -1.7432321e-05 -2.2396564e-05 
3.5175126e-05 6.7670218e-05 -1.0203888e-05 
0.0000000e+00 -4.3900069e-05 0.0000000e+00 
0.0000000e+00 -3.4700293e-04 0.0000000e+00 
-6.7389724e-06 -5.5194356e-05 -5.6380759e-05 
-8.8311972e-05 -1.1457952e-04 -2.3994916e-04 
-1.3910617e-05 -4.9401206e-05 -4.5999979e-05 
-6.0798084e-05 -6.2611571e-04 -2.9004196e-04 
0.0000000e+00 -6.7055298e-05 0.0000000e+00 
0.0000000e+00 -2.3346879e-04 0.0000000e+00 
-2.4249860e-06 -4.5288005e-05 -4.0844250e-05 
7.7242566e-06 -3.4724308e-05 -3.3308475e-05 
1.1958433e-05 -1.9702858e-05 -2.6922715e-05 
1.6913951e-05 -8.3588532e-07 -1.5996475e-05 
2.0119034e-05 2.1139474e-05 -3.7838670e-06 
1.8267096e-05 4.4928234e-05 7.1517530e-07 
1.3545426e-05 6.8386122e-05 2.8605475e-06 
1.1822435e-05 8.8925415e-05 2.1751048e-06 
9.5947753e-06 1.0448508e-04 -2.7293622e-06 
9.4525085e-06 1.1410531e-04 -9.4639705e-07 
5.8019759e-06 1.1748462e-04 9.7808515e-06 
3.3403931e-06 1.1532749e-04 2.3596256e-05 
6.6919019e-06 1.0707763e-04 3.5427540e-05 
8.8534907e-06 9.3728151e-05 4.1382056e-05 
9.6830736e-06 7.5519929e-05 4.4769189e-05 
1.1585443e-05 5.3732016e-05 4.1807107e-05 
1.2228790e-05 3.0198000e-05 3.8518443e-05 
1.4971371e-05 7.7979166e-06 3.5364352e-05 
1.8892024e-05 -9.8755763e-06 3.7169655e-05 
1.8372777e-05 -2.0462554e-05 3.9704970e-05 
1.5444230e-05 -2.2808665e-05 3.3845135e-05 
1.1182196e-05 -2.3863457e-05 3.0033401e-05 
4.9087112e-06 -3.6273508e-05 4.0613693e-05 
-8.6969812e-06 -8.9951762e-05 5.2453448e-05 
-5.3169228e-05 -2.2681615e-04 8.1694547e-05 
-6.9561596e-05 -4.8942189e-04 1.0871379e-04 
-9.3094335e-05 -9.4115286e-04 1.4575268e-04 
-1.4848341e-04 -1.6246716e-03 8.0477490e-05 
-2.9632924e-04 -2.5574458e-03 1.5468280e-04 
-3.0327201e-04 -3.5576806e-03 1.2973773e-04 
-1.9057233e-04 -4.3126079e-03 5.8561127e-05 
-1.5175324e-04 -4.2560301e-03 7.0092414e-05 
-2.7303118e-04 -3.9766948e-03 -8.7049631e-07 
-3.3307742e-04 -3.8600394e-03 -1.1318585e-05 
-2.1907502e-04 -4.0271087e-03 -4.1237134e-05 
-5.6981182e-05 -3.9915843e-03 -7.5104821e-05 
-7.5858363e-05 -3.2796699e-03 -1.5847887e-04 
-1.6131984e-04 -2.2591120e-03 -1.7152057e-04 
-1.6028754e-04 -1.3808055e-03 -1.5277854e-04 
-4.6385438e-05 -7.2276854e-04 -8.5271407e-05 
-1.7617509e-05 -3.1580048e-04 -1.1828569e-04 
-8.0291793e-06 -9.3151582e-05 -9.1149654e-05 
-5.8799396e-06 8.6115215e-06 -7.0981332e-05 
2.7309334e-06 4.1327454e-05 -4.9987117e-05 
4.2568367e-06 3.8644230e-05 -2.8556397e-05 
2.1849223e-06 2.2758468e-05 -1.4430703e-05 
-4.3704463e-06 6.5666450e-06 -1.0701407e-05 
-1.0528737e-05 -6.8515192e-06 -1.4246179e-05 
-1.2681835e-05 -1.6024595e-05 -1.8926505e-05 
-1.1701007e-05 -2.2947914e-05 -2.2410139e-05 
-1.2784522e-05 -2.9230063e-05 -2.4339270e-05 
-1.4680136e-05 -3.4187218e-05 -2.3817374e-05 
-1.2610367e-05 -3.6442605e-05 -2.2637214e-05 
-1.2302806e-05 -3.5263853e-05 -2.3198199e-05 
-7.1501868e-06 -2.9253028e-05 -2.7175663e-05 
-8.3144812e-07 -1.7721686e-05 -2.8933904e-05 
1.4406003e-05 6.1630340e-07 -2.4545165e-05 
2.4823474e-05 2.6278818e-05 -1.8007990e-05 
3.3121225e-05 6.0072136e-05 -1.6031176e-05 
4.3685050e-05 1.0049584e-04 -1.0595963e-05 
4.8217997e-05 1.4456743e-04 -1.2747704e-05 
4.8562146e-05 1.8147255e-04 -7.3553715e-06 
3.9920356e-05 1.9421073e-04 7.6388969e-06 
2.2081771e-05 1.4948270e-04 2.8104156e-05 
-2.7865510e-05 -1.0347916e-06 7.3338109e-05 
-4.1655807e-05 -3.0071067e-04 1.1786410e-04 
-6.9407222e-05 -8.1303430e-04 1.7633305e-04 
-1.2911367e-04 -1.5663846e-03 1.2374982e-04 
-2.7130940e-04 -2.5567291e-03 2.0634347e-04 
-2.7815014e-04 -3.5619223e-03 1.7265069e-04 
-1.8119137e-04 -4.2124316e-03 7.3376432e-05 
-3.7020372e-04 -4.1253041e-03 1.2745021e-04 
-2.6198977e-04 -3.9464664e-03 1.0693523e-04 
-2.9506351e-04 -4.0118466e-03 2.1501348e-05 
-1.0493455e-04 -4.3403781e-03 -1.1712825e-04 
-1.8617659e-04 -4.3638865e-03 -1.8394057e-04 
-1.8317379e-04 -3.5545030e-03 -3.3011270e-04 
-2.1787435e-04 -2.4550864e-03 -3.4830341e-04 
-1.6375832e-04 -1.4746253e-03 -1.3128156e-04 
0.0000000e+00 5.2193405e-05 0.0000000e+00 
0.0000000e+00 5.6105986e-04 0.0000000e+00 
0.0000000e+00 9.0663735e-04 0.0000000e+00 
0.0000000e+00 1.1024593e-03 0.0000000e+00 
0.0000000e+00 1.1675569e-03 0.0000000e+00 
0.0000000e+00 1.1250845e-03 0.0000000e+00 
0.0000000e+00 1.0009977e-03 0.0000000e+00 
0.0000000e+00 8.2245842e-04 0.0000000e+00 
0.0000000e+00 6.1590638e-04 0.0000000e+00 
0.0000000e+00 4.0520047e-04 0.0000000e+00 
0.0000000e+00 2.1022231e-04 0.0000000e+00 
0.0000000e+00 4.5935092e-05 0.0000000e+00 
0.0000000e+00 -7.8340869e-05 0.0000000e+00 
0.0000000e+00 -1.5944154e-04 0.0000000e+00 
0.0000000e+00 -2.0030938e-04 0.0000000e+00 
0.0000000e+00 -2.0902377e-04 0.0000000e+00 
0.0000000e+00 -1.9694456e-04 0.0000000e+00 
0.0000000e+00 -1.7640684e-04 0.0000000e+00 
0.0000000e+00 -1.5851094e-04 0.0000000e+00 
0.0000000e+00 -1.5139134e-04 0.0000000e+00 
0.0000000e+00 -4.9284612e-05 0.0000000e+00 
0.0000000e+00 -4.5294590e-05 0.0000000e+00 
0.0000000e+00 -3.4803532e-05 0.0000000e+00 
0.0000000e+00 -1.9702940e-05 0.0000000e+00 
0.0000000e+00 -8.0760674e-07 0.0000000e+00 
0.0000000e+00 2.1184944e-05 0.0000000e+00 
0.0000000e+00 4.4962511e-05 0.0000000e+00 
0.0000000e+00 6.8377187e-05 0.0000000e+00 
0.0000000e+00 8.8897585e-05 0.0000000e+00 
0.0000000e+00 1.0447404e-04 0.0000000e+00 
0.0000000e+00 1.1407655e-04 0.0000000e+00 
0.0000000e+00 1.1756665e-04 0.0000000e+00 
0.0000000e+00 1.1527715e-04 0.0000000e+00 
0.0000000e+00 1.0713680e-04 0.0000000e+00 
0.0000000e+00 9.3707487e-05 0.0000000e+00 
0.0000000e+00 7.5507334e-05 0.0000000e+00 
0.0000000e+00 5.3681371e-05 0.0000000e+00 
0.0000000e+00 3.0172972e-05 0.0000000e+00 
0.0000000e+00 7.8585708e-06 0.0000000e+00 
0.0000000e+00 -9.8216533e-06 0.0000000e+00 
0.0000000e+00 -2.0096759e-05 0.0000000e+00 
0.0000000e+00 -2.2509726e-05 0.0000000e+00 
0.0000000e+00 -2.2933631e-05 0.0000000e+00 
0.0000000e+00 -3.5641307e-05 0.0000000e+00 
0.0000000e+00 -8.9834139e-05 0.0000000e+00 
0.0000000e+00 -2.2571922e-04 0.0000000e+00 
0.0000000e+00 -4.9018790e-04 0.0000000e+00 
0.0000000e+00 -9.4276236e-04 0.0000000e+00 
0.0000000e+00 -1.6342551e-03 0.0000000e+00 
0.0000000e+00 -2.5654000e-03 0.0000000e+00 
0.0000000e+00 -3.5909726e-03 0.0000000e+00 
0.0000000e+00 -4.3376111e-03 0.0000000e+00 
0.0000000e+00 -4.2876960e-03 0.0000000e+00 
0.0000000e+00 -3.9909282e-03 0.0000000e+00 
0.0000000e+00 -3.8905486e-03 0.0000000e+00 
0.0000000e+00 -4.0464546e-03 0.0000000e+00 
0.0000000e+00 -4.0253219e-03 0.0000000e+00 
0.0000000e+00 -3.2972388e-03 0.0000000e+00 
0.0000000e+00 -2.2771624e-03 0.0000000e+00 
0.0000000e+00 -1.3829872e-03 0.0000000e+00 
0.0000000e+00 -7.2690658e-04 0.0000000e+00 
0.0000000e+00 -3.1559457e-04 0.0000000e+00 
0.0000000e+00 -9.2241513e-05 0.0000000e+00 
0.0000000e+00 9.6186668e-06 0.0000000e+00 
0.0000000e+00 4.1924439e-05 0.0000000e+00 
0.0000000e+00 3.9116196e-05 0.0000000e+00 
0.0000000e+00 2.3251112e-05 0.0000000e+00 
0.0000000e+00 6.6422785e-06 0.0000000e+00 
0.0000000e+00 -6.7114920e-06 0.0000000e+00 
0.0000000e+00 -1.6057364e-05 0.0000000e+00 
0.0000000e+00 -2.3081910e-05 0.0000000e+00 
0.0000000e+00 -2.9259167e-05 0.0000000e+00 
0.0000000e+00 -3.4134315e-05 0.0000000e+00 
0.0000000e+00 -3.6470428e-05 0.0000000e+00 
0.0000000e+00 -3.5230096e-05 0.0000000e+00 
0.0000000e+00 -2.9286879e-05 0.0000000e+00 
0.0000000e+00 -1.7707196e-05 0.0000000e+00 
0.0000000e+00 6.0237812e-07 0.0000000e+00 
0.0000000e+00 2.6390078e-05 0.0000000e+00 
0.0000000e+00 6.0157556e-05 0.0000000e+00 
0.0000000e+00 1.0088283e-04 0.0000000e+00 
0.0000000e+00 1.4491926e-04 0.0000000e+00 
0.0000000e+00 1.8238601e-04 0.0000000e+00 
0.0000000e+00 1.9501310e-04 0.0000000e+00 
0.0000000e+00 1.4939318e-04 0.0000000e+00 
0.0000000e+00 7.4161285e-08 0.0000000e+00 
0.0000000e+00 -3.0214601e-04 0.0000000e+00 
0.0000000e+00 -8.1504055e-04 0.0000000e+00 
0.0000000e+00 -1.5769362e-03 0.0000000e+00 
0.0000000e+00 -2.5656798e-03 0.0000000e+00 
0.0000000e+00 -3.5966344e-03 0.0000000e+00 
0.0000000e+00 -4.2393659e-03 0.0000000e+00 
0.0000000e+00 -4.1517983e-03 0.0000000e+00 
0.0000000e+00 -3.9626388e-03 0.0000000e+00 
0.0000000e+00 -4.0430888e-03 0.0000000e+00 
0.0000000e+00 -4.3720361e-03 0.0000000e+00 
0.0000000e+00 -4.3849642e-03 0.0000000e+00 
0.0000000e+00 -3.5729071e-03 0.0000000e+00 
0.0000000e+00 -2.4751402e-03 0.0000000e+00 
0.0000000e+00 -1.4728942e-03 0.0000000e+00 
0.0000000e+00 -6.2693091e-04 0.0000000e+00 
0.0000000e+00 5.1867948e-05 0.0000000e+00 
0.0000000e+00 5.6077953e-04 0.0000000e+00 
0.0000000e+00 9.0641761e-04 0.0000000e+00 
0.0000000e+00 1.1022947e-03 0.0000000e+00 
0.0000000e+00 1.1674485e-03 0.0000000e+00 
0.0000000e+00 1.1250465e-03 0.0000000e+00 
0.0000000e+00 1.0010392e-03 0.0000000e+00 
0.0000000e+00 8.2256889e-04 0.0000000e+00 
0.0000000e+00 6.1606767e-04 0.0000000e+00 
0.0000000e+00 4.0540440e-04 0.0000000e+00 
0.0000000e+00 2.1046973e-04 0.0000000e+00 
0.0000000e+00 4.6215682e-05 0.0000000e+00 
0.0000000e+00 -7.8062505e-05 0.0000000e+00 
0.0000000e+00 -1.5921556e-04 0.0000000e+00 
0.0000000e+00 -2.0017572e-04 0.0000000e+00 
0.0000000e+00 -2.0899544e-04 0.0000000e+00 
0.0000000e+00 -1.9700942e-04 0.0000000e+00 
0.0000000e+00 -1.7653986e-04 0.0000000e+00 
0.0000000e+00 -1.5868426e-04 0.0000000e+00 
0.0000000e+00 -1.5157789e-04 0.0000000e+00 
1.0199592e-04 -1.4304661e-04 1.1906933e-05 
-1.6752438e-04 -3.5822815e-03 1.4637403e-04 
0.0000000e+00 0.0000000e+00 0.0000000e+00 
0.0000000e+00 0.0000000e+00 0.0000000e+00 
0.0000000e+00 0.0000000e+00 0.0000000e+00 
0.0000000e+00 0.0000000e+00 0.0000000e+00 
0.0000000e+00 0.0000000e+00 0.0000000e+00 
0.0000000e+00 0.0000000e+00 0.0000000e+00 
0.0000000e+00 0.0000000e+00 0.0000000e+00 
0.0000000e+00 0.0000000e+00 0.0000000e+00 
0.0000000e+00 0.0000000e+00 0.0000000e+00 
0.0000000e+00 0.0000000e+00 0.0000000e+00 
0.0000000e+00 0.0000000e+00 0.0000000e+00 
0.0000000e+00 0.0000000e+00 0.0000000e+00 
0.0000000e+00 0.0000000e+00 0.0000000e+00 
0.0000000e+00 0.0000000e+00 0.0000000e+00 
0.0000000e+00 0.0000000e+00 0.0000000e+00 
0.0000000e+00 0.0000000e+00 0.0000000e+00 
0.0000000e+00 0.0000000e+00 0.0000000e+00 
0.0000000e+00 0.0000000e+00 0.0000000e+00 
0.0000000e+00 0.0000000e+00 0.0000000e+00 
0.0000000e+00 0.0000000e+00 0.0000000e+00 
0.0000000e+00 0.0000000e+00 0.0000000e+00 
0.0000000e+00 0.0000000e+00 0.0000000e+00 
0.0000000e+00 0.0000000e+00 0.0000000e+00 
0.0000000e+00 0.0000000e+00 0.0000000e+00 
0.0000000e+00 0.0000000e+00 0.0000000e+00 
0.0000000e+00 0.0000000e+00 0.0000000e+00 
0.0000000e+00 0.0000000e+00 0.0000000e+00 
0.0000000e+00 0.0000000e+00 0.0000000e+00 
0.0000000e+00 0.0000000e+00 0.0000000e+00 
0.0000000e+00 0.0000000e+00 0.0000000e+00 
0.0000000e+00 0.0000000e+00 0.0000000e+00 
0.0000000e+00 0.0000000e+00 0.0000000e+00 
0.0000000e+00 0.0000000e+00 0.0000000e+00 
0.0000000e+00 0.0000000e+00 0.0000000e+00 
0.0000000e+00 0.0000000e+00 0.0000000e+00 
0.0000000e+00 0.0000000e+00 0.0000000e+00 
0.0000000e+00 0.0000000e+00 0.0000000e+00 
0.0000000e+00 0.0000000e+00 0.0000000e+00 
0.0000000e+00 0.0000000e+00 0.0000000e+00 
0.0000000e+00 0.0000000e+00 0.0000000e+00 
0.0000000e+00 0.0000000e+00 0.0000000e+00 
0.0000000e+00 0.0000000e+00 0.0000000e+00 
4.2917668e-06 -1.8770999e-06 -4.7180579e-06 
6.2395156e-07 -9.7976942e-07 9.4638546e-07 
-6.2899258e-06 1.8836587e-07 3.0872679e-06 
-9.7650191e-06 2.8881213e-06 -3.3993891e-07 
-2.9153741e-06 -6.5465952e-07 -3.9241090e-06 
1.3920200e-05 -4.3335926e-06 -7.6328643e-06 
3.8405877e-05 -7.2150324e-06 -1.0498125e-05 
5.3079038e-05 -6.7654764e-06 -1.0268795e-06 
4.4343647e-05 -3.9873585e-06 9.0575568e-06 
2.1335463e-05 -2.2246077e-06 4.0212494e-06 
6.6074667e-06 -3.4302946e-06 4.7347245e-07 
3.1498912e-06 -1.2647017e-06 -1.9552822e-07 
-2.5358743e-06 -2.3087498e-06 3.1897582e-06 
-7.8229241e-06 -1.2513518e-06 1.2182667e-06 
-4.9624105e-06 4.9685195e-07 -1.9505105e-06 
2.2879394e-06 9.9995862e-07 -7.7415325e-06 
3.2191190e-05 -6.1430164e-06 -1.6288985e-05 
5.5690110e-05 -2.1559810e-05 -1.2184998e-06 
4.3420590e-05 -1.6813727e-05 1.9029907e-05 
0.0000000e+00 3.5226000e-07 0.0000000e+00 
0.0000000e+00 2.9129718e-05 0.0000000e+00 
0.0000000e+00 3.5113193e-05 0.0000000e+00 
0.0000000e+00 1.3157523e-05 0.0000000e+00 
0.0000000e+00 -1.1179392e-05 0.0000000e+00 
0.0000000e+00 -4.5104152e-05 0.0000000e+00 
0.0000000e+00 -2.6798437e-04 0.0000000e+00 
0.0000000e+00 -5.5687979e-04 0.0000000e+00 
0.0000000e+00 -4.6766765e-04 0.0000000e+00 
0.0000000e+00 -1.2577597e-04 0.0000000e+00 
0.0000000e+00 -9.1274042e-06 0.0000000e+00 
0.0000000e+00 -4.2727229e-06 0.0000000e+00 
0.0000000e+00 -1.6947155e-05 0.0000000e+00 
0.0000000e+00 -7.2623716e-06 0.0000000e+00 
0.0000000e+00 3.2685519e-05 0.0000000e+00 
0.0000000e+00 3.4582157e-05 0.0000000e+00 
0.0000000e+00 -2.2184328e-04 0.0000000e+00 
0.0000000e+00 -5.7259778e-04 0.0000000e+00 
0.0000000e+00 -5.0598499e-04 0.0000000e+00 
7.4077961e-06 -8.1598737e-06 -1.1478220e-05 
4.9500409e-06 -2.0651465e-05 -1.4422909e-05 
4.1422594e-05 2.9505927e-05 1.6246087e-05 
7.6550416e-05 -9.5870964e-05 1.0758809e-04 
5.8141236e-06 -3.0127358e-06 -7.8157045e-06 
4.2380011e-06 -3.8802509e-06 -8.5988171e-07 
-4.1558787e-06 -1.6789228e-06 3.3656647e-06 
-1.1698377e-05 2.3386299e-06 9.7984309e-07 
-6.7081601e-06 1.1218884e-06 -3.4549307e-06 
1.8165856e-05 -3.6987765e-06 -9.5093928e-06 
3.2955108e-05 -5.0166982e-06 -6.0676675e-06 
3.7555590e-05 -5.1127513e-06 -1.4408678e-06 
3.0193600e-05 -1.4896326e-06 7.7201930e-06 
1.4398106e-05 1.0684619e-06 7.8630954e-08 
8.5084412e-06 -3.7666832e-06 -8.7795252e-07 
2.7514570e-06 -3.3074268e-06 -4.7834025e-08 
-4.6403397e-06 -4.6893692e-06 3.4227785e-06 
-9.5286387e-06 -1.7567932e-06 -7.5041203e-07 
-1.1897392e-06 6.3007900e-07 -7.3384285e-06 
1.5676083e-05 8.7673760e-07 -1.0640615e-05 
3.6202979e-05 -5.6347280e-06 -7.1954178e-06 
5.1757299e-05 -1.5333893e-05 8.9883624e-06 
3.5973877e-05 -6.9796915e-06 1.1837574e-05 
5.5984269e-06 -3.2914879e-05 -2.4579160e-05 
0.0000000e+00 -1.6099244e-07 0.0000000e+00 
0.0000000e+00 5.5707605e-05 0.0000000e+00 
0.0000000e+00 6.5888504e-05 0.0000000e+00 
0.0000000e+00 2.6497461e-05 0.0000000e+00 
0.0000000e+00 -2.2398914e-05 0.0000000e+00 
0.0000000e+00 -7.0326554e-05 0.0000000e+00 
0.0000000e+00 -5.5580097e-04 0.0000000e+00 
0.0000000e+00 -1.2374276e-03 0.0000000e+00 
0.0000000e+00 -1.0506316e-03 0.0000000e+00 
0.0000000e+00 -2.3636159e-04 0.0000000e+00 
0.0000000e+00 -3.9989955e-06 0.0000000e+00 
0.0000000e+00 -8.0123818e-06 0.0000000e+00 
0.0000000e+00 -2.7267497e-05 0.0000000e+00 
0.0000000e+00 -1.4004127e-05 0.0000000e+00 
0.0000000e+00 5.9565838e-05 0.0000000e+00 
0.0000000e+00 7.4508091e-05 0.0000000e+00 
0.0000000e+00 -4.6916629e-04 0.0000000e+00 
0.0000000e+00 -1.3019296e-03 0.0000000e+00 
0.0000000e+00 -1.1248010e-03 0.0000000e+00 
5.8415713e-05 -2.5154522e-04 6.3217485e-05 
2.0646554e-05 -2.4069166e-06 -2.1498288e-05 
1.7138444e-05 5.6657947e-05 5.8387695e-07 
8.1736525e-06 7.4786221e-05 3.0688319e-05 
7.5121075e-06 4.3517197e-05 4.6434063e-05 
2.9828048e-05 -2.9782072e-05 6.2148989e-05 
1.1088296e-06 -2.2297652e-05 9.1769551e-05 
-3.2722013e-04 -5.3929968e-04 2.7787447e-04 
-7.1964128e-04 -1.3965669e-03 4.3780976e-05 
-5.8247865e-04 -1.3221062e-03 -1.7010715e-04 
-1.1010563e-04 -1.9393909e-04 -1.8439638e-04 
1.6493326e-05 6.4348114e-06 -4.6501733e-05 
-1.2103503e-05 -1.2882379e-05 -2.0374011e-05 
-2.1519068e-05 -2.7284508e-05 -1.5821292e-05 
-1.0979878e-05 -8.6740083e-06 -4.2440101e-05 
6.5580134e-05 4.2120009e-05 -1.4151147e-05 
4.8967337e-05 1.5070762e-04 6.6466564e-05 
-3.2776906e-04 -4.5606817e-04 3.6754413e-04 
-5.1379693e-04 -1.7271308e-03 1.4344888e-04 
-5.9926091e-04 -1.2402931e-03 -1.9349641e-04 
0.0000000e+00 -7.2301123e-06 0.0000000e+00 
0.0000000e+00 8.5205458e-05 0.0000000e+00 
0.0000000e+00 1.0141610e-04 0.0000000e+00 
0.0000000e+00 3.8357914e-05 0.0000000e+00 
0.0000000e+00 -3.6228703e-05 0.0000000e+00 
0.0000000e+00 -5.7291021e-05 0.0000000e+00 
0.0000000e+00 -1.0165892e-03 0.0000000e+00 
0.0000000e+00 -2.4063066e-03 0.0000000e+00 
0.0000000e+00 -2.0297356e-03 0.0000000e+00 
0.0000000e+00 -4.0989436e-04 0.0000000e+00 
0.0000000e+00 2.2486998e-05 0.0000000e+00 
0.0000000e+00 -6.0669354e-06 0.0000000e+00 
0.0000000e+00 -3.3853787e-05 0.0000000e+00 
0.0000000e+00 -2.7135888e-05 0.0000000e+00 
0.0000000e+00 7.7149271e-05 0.0000000e+00 
0.0000000e+00 1.6116224e-04 0.0000000e+00 
0.0000000e+00 -9.3037187e-04 0.0000000e+00 
0.0000000e+00 -2.4391992e-03 0.0000000e+00 
0.0000000e+00 -2.2164318e-03 0.0000000e+00 
6.2392537e-06 -2.0132309e-06 -6.3771199e-06 
3.1940462e-07 1.1157079e-05 2.0012371e-06 
-1.1919211e-05 1.4472727e-05 1.0386167e-05 
-7.8884195e-06 1.0934635e-05 1.1918240e-05 
9.1400298e-06 -4.8682182e-06 1.3834446e-05 
2.1307034e-05 1.1406340e-05 1.6088366e-05 
5.4910717e-05 -6.3628737e-05 -3.8944731e-07 
5.5540382e-05 -1.0543953e-04 -1.4392125e-05 
4.2763091e-05 -8.0691658e-05 1.9050388e-09 
3.8247817e-05 -4.0645507e-05 2.2285315e-06 
2.8851423e-06 2.4982962e-06 -1.0876247e-05 
-5.8243786e-06 -4.9198661e-06 -1.1782260e-05 
-1.3844699e-05 -8.8665265e-06 -5.5150103e-06 
-9.4998750e-06 -3.9037459e-06 -9.2478085e-06 
6.7066994e-06 1.2918917e-05 -1.0512060e-06 
1.3617162e-05 4.3526172e-05 1.0551086e-05 
4.6617268e-05 -2.3222758e-05 1.0068688e-05 
5.2106876e-05 -1.0667642e-04 1.6993738e-05 
-7.0079914e-05 -1.1261409e-03 7.5597738e-05 
0.0000000e+00 0.0000000e+00 0.0000000e+00 
0.0000000e+00 0.0000000e+00 0.0000000e+00 
0.0000000e+00 0.0000000e+00 0.0000000e+00 
0.0000000e+00 0.0000000e+00 0.0000000e+00 
0.0000000e+00 0.0000000e+00 0.0000000e+00 
0.0000000e+00 0.0000000e+00 0.0000000e+00 
0.0000000e+00 0.0000000e+00 0.0000000e+00 
0.0000000e+00 0.0000000e+00 0.0000000e+00 
0.0000000e+00 0.0000000e+00 0.0000000e+00 
0.0000000e+00 0.0000000e+00 0.0000000e+00 
0.0000000e+00 0.0000000e+00 0.0000000e+00 
0.0000000e+00 0.0000000e+00 0.0000000e+00 
0.0000000e+00 0.0000000e+00 0.0000000e+00 
0.0000000e+00 0.0000000e+00 0.0000000e+00 
0.0000000e+00 0.0000000e+00 0.0000000e+00 
0.0000000e+00 0.0000000e+00 0.0000000e+00 
0.0000000e+00 0.0000000e+00 0.0000000e+00 
0.0000000e+00 0.0000000e+00 0.0000000e+00 
0.0000000e+00 0.0000000e+00 0.0000000e+00 
0.0000000e+00 0.0000000e+00 0.0000000e+00 
0.0000000e+00 0.0000000e+00 0.0000000e+00 
0.0000000e+00 0.0000000e+00 0.0000000e+00 
0.0000000e+00 0.0000000e+00 0.0000000e+00 
0.0000000e+00 0.0000000e+00 0.0000000e+00 
0.0000000e+00 0.0000000e+00 0.0000000e+00 
0.0000000e+00 0.0000000e+00 0.0000000e+00 
0.0000000e+00 0.0000000e+00 0.0000000e+00 
0.0000000e+00 0.0000000e+00 0.0000000e+00 
0.0000000e+00 0.0000000e+00 0.0000000e+00 
0.0000000e+00 0.0000000e+00 0.0000000e+00 
0.0000000e+00 0.0000000e+00 0.0000000e+00 
0.0000000e+00 0.0000000e+00 0.0000000e+00 
0.0000000e+00 0.0000000e+00 0.0000000e+00 
0.0000000e+00 0.0000000e+00 0.0000000e+00 
0.0000000e+00 0.0000000e+00 0.0000000e+00 
0.0000000e+00 0.0000000e+00 0.0000000e+00 
0.0000000e+00 0.0000000e+00 0.0000000e+00 
0.0000000e+00 0.0000000e+00 0.0000000e+00 
0.0000000e+00 0.0000000e+00 0.0000000e+00 
0.0000000e+00 0.0000000e+00 0.0000000e+00 
0.0000000e+00 0.0000000e+00 0.0000000e+00 
0.0000000e+00 0.0000000e+00 0.0000000e+00 
-2.4734234e-06 7.1051602e-07 1.5927012e-06 
1.1859942e-05 -7.3353772e-06 -5.9018057e-06 
2.4537178e-05 -8.4403882e-06 3.0481058e-06 
1.7449754e-06 -1.2646761e-06 -7.0406094e-07 
1.2760208e-06 -5.1468191e-07 1.8422170e-06 
-3.0086985e-06 -6.9062577e-07 8.9293377e-07 
-3.4336267e-06 -8.8340705e-08 -1.9411905e-07 
-2.0411301e-06 1.4482491e-06 -4.5038885e-07 