# vtk DataFile Version 4.0
vtk output
ASCII
DATASET UNSTRUCTURED_GRID
POINTS 621 float
0.0000000e+00 0.0000000e+00 0.0000000e+00 
0.0000000e+00 0.0000000e+00 4.0000000e+01 
5.0000000e+00 0.0000000e+00 0.0000000e+00 
5.0000000e+00 0.0000000e+00 4.0000000e+01 
5.0000000e+00 1.0000000e+00 0.0000000e+00 
5.0000000e+00 1.0000000e+00 4.0000000e+01 
0.0000000e+00 1.0000000e+00 0.0000000e+00 
0.0000000e+00 1.0000000e+00 4.0000000e+01 
5.0000000e+00 2.0000000e+00 0.0000000e+00 
5.0000000e+00 2.0000000e+00 4.0000000e+01 
3.0000000e+00 2.0000000e+00 0.0000000e+00 
3.0000000e+00 2.0000000e+00 4.0000000e+01 
0.0000000e+00 2.0000000e+00 0.0000000e+00 
0.0000000e+00 2.0000000e+00 4.0000000e+01 
1.5000000e+00 3.0000000e+00 0.0000000e+00 
1.5000000e+00 3.0000000e+00 4.0000000e+01 
7.5000000e-01 3.0000000e+00 0.0000000e+00 
7.5000000e-01 3.0000000e+00 4.0000000e+01 
0.0000000e+00 3.0000000e+00 0.0000000e+00 
0.0000000e+00 3.0000000e+00 4.0000000e+01 
7.5000000e-01 3.0000000e+00 5.0000000e-01 
7.5000000e-01 3.0000000e+00 1.0000000e+00 
7.5000000e-01 3.0000000e+00 1.5000000e+00 
7.5000000e-01 3.0000000e+00 2.0000000e+00 
7.5000000e-01 3.0000000e+00 2.5000000e+00 
7.5000000e-01 3.0000000e+00 3.0000000e+00 
7.5000000e-01 3.0000000e+00 3.5000000e+00 
7.5000000e-01 3.0000000e+00 4.0000000e+00 
7.5000000e-01 3.0000000e+00 4.5000000e+00 
7.5000000e-01 3.0000000e+00 5.0000000e+00 
7.5000000e-01 3.0000000e+00 5.5000000e+00 
7.5000000e-01 3.0000000e+00 6.0000000e+00 
7.5000000e-01 3.0000000e+00 6.5000000e+00 
7.5000000e-01 3.0000000e+00 7.0000000e+00 
7.5000000e-01 3.0000000e+00 7.5000000e+00 
7.5000000e-01 3.0000000e+00 8.0000000e+00 
7.5000000e-01 3.0000000e+00 8.5000000e+00 
7.5000000e-01 3.0000000e+00 9.0000000e+00 
7.5000000e-01 3.0000000e+00 9.5000000e+00 
7.5000000e-01 3.0000000e+00 1.0000000e+01 
7.5000000e-01 3.0000000e+00 1.0500000e+01 
7.5000000e-01 3.0000000e+00 1.1000000e+01 
7.5000000e-01 3.0000000e+00 1.1500000e+01 
7.5000000e-01 3.0000000e+00 1.2000000e+01 
7.5000000e-01 3.0000000e+00 1.2500000e+01 
7.5000000e-01 3.0000000e+00 1.3000000e+01 
7.5000000e-01 3.0000000e+00 1.3500000e+01 
7.5000000e-01 3.0000000e+00 1.4000000e+01 
7.5000000e-01 3.0000000e+00 1.4500000e+01 
7.5000000e-01 3.0000000e+00 1.5000000e+01 
7.5000000e-01 3.0000000e+00 1.5500000e+01 
7.5000000e-01 3.0000000e+00 1.6000000e+01 
7.5000000e-01 3.0000000e+00 1.6500000e+01 
7.5000000e-01 3.0000000e+00 1.7000000e+01 
7.5000000e-01 3.0000000e+00 1.7500000e+01 
7.5000000e-01 3.0000000e+00 1.8000000e+01 
7.5000000e-01 3.0000000e+00 1.8500000e+01 
7.5000000e-01 3.0000000e+00 1.9000000e+01 
7.5000000e-01 3.0000000e+00 1.9500000e+01 
7.5000000e-01 3.0000000e+00 2.0000000e+01 
7.5000000e-01 3.0000000e+00 2.0500000e+01 
7.5000000e-01 3.0000000e+00 2.1000000e+01 
7.5000000e-01 3.0000000e+00 2.1500000e+01 
7.5000000e-01 3.0000000e+00 2.2000000e+01 
7.5000000e-01 3.0000000e+00 2.2500000e+01 
7.5000000e-01 3.0000000e+00 2.3000000e+01 
7.5000000e-01 3.0000000e+00 2.3500000e+01 
7.5000000e-01 3.0000000e+00 2.4000000e+01 
7.5000000e-01 3.0000000e+00 2.4500000e+01 
7.5000000e-01 3.0000000e+00 2.5000000e+01 
7.5000000e-01 3.0000000e+00 2.5500000e+01 
7.5000000e-01 3.0000000e+00 2.6000000e+01 
7.5000000e-01 3.0000000e+00 2.6500000e+01 
7.5000000e-01 3.0000000e+00 2.7000000e+01 
7.5000000e-01 3.0000000e+00 2.7500000e+01 
7.5000000e-01 3.0000000e+00 2.8000000e+01 
7.5000000e-01 3.0000000e+00 2.8500000e+01 
7.5000000e-01 3.0000000e+00 2.9000000e+01 
7.5000000e-01 3.0000000e+00 2.9500000e+01 
7.5000000e-01 3.0000000e+00 3.0000000e+01 
7.5000000e-01 3.0000000e+00 3.0500000e+01 
7.5000000e-01 3.0000000e+00 3.1000000e+01 
7.5000000e-01 3.0000000e+00 3.1500000e+01 
7.5000000e-01 3.0000000e+00 3.2000000e+01 
7.5000000e-01 3.0000000e+00 3.2500000e+01 
7.5000000e-01 3.0000000e+00 3.3000000e+01 
7.5000000e-01 3.0000000e+00 3.3500000e+01 
7.5000000e-01 3.0000000e+00 3.4000000e+01 
7.5000000e-01 3.0000000e+00 3.4500000e+01 
7.5000000e-01 3.0000000e+00 3.5000000e+01 
7.5000000e-01 3.0000000e+00 3.5500000e+01 
7.5000000e-01 3.0000000e+00 3.6000000e+01 
7.5000000e-01 3.0000000e+00 3.6500000e+01 
7.5000000e-01 3.0000000e+00 3.7000000e+01 
7.5000000e-01 3.0000000e+00 3.7500000e+01 
7.5000000e-01 3.0000000e+00 3.8000000e+01 
7.5000000e-01 3.0000000e+00 3.8500000e+01 
7.5000000e-01 3.0000000e+00 3.9000000e+01 
7.5000000e-01 3.0000000e+00 3.9500000e+01 
7.5000000e-01 3.0250001e+00 0.0000000e+00 
7.5000000e-01 3.0250001e+00 5.0000000e-01 
7.5000000e-01 3.0250001e+00 1.0000000e+00 
7.5000000e-01 3.0250001e+00 1.5000000e+00 
7.5000000e-01 3.0250001e+00 2.0000000e+00 
7.5000000e-01 3.0250001e+00 2.5000000e+00 
7.5000000e-01 3.0250001e+00 3.0000000e+00 
7.5000000e-01 3.0250001e+00 3.5000000e+00 
7.5000000e-01 3.0250001e+00 4.0000000e+00 
7.5000000e-01 3.0250001e+00 4.5000000e+00 
7.5000000e-01 3.0250001e+00 5.0000000e+00 
7.5000000e-01 3.0250001e+00 5.5000000e+00 
7.5000000e-01 3.0250001e+00 6.0000000e+00 
7.5000000e-01 3.0250001e+00 6.5000000e+00 
7.5000000e-01 3.0250001e+00 7.0000000e+00 
7.5000000e-01 3.0250001e+00 7.5000000e+00 
7.5000000e-01 3.0250001e+00 8.0000000e+00 
7.5000000e-01 3.0250001e+00 8.5000000e+00 
7.5000000e-01 3.0250001e+00 9.0000000e+00 
7.5000000e-01 3.0250001e+00 9.5000000e+00 
7.5000000e-01 3.0250001e+00 1.0000000e+01 
7.5000000e-01 3.0250001e+00 1.0500000e+01 
7.5000000e-01 3.0250001e+00 1.1000000e+01 
7.5000000e-01 3.0250001e+00 1.1500000e+01 
7.5000000e-01 3.0250001e+00 1.2000000e+01 
7.5000000e-01 3.0250001e+00 1.2500000e+01 
7.5000000e-01 3.0250001e+00 1.3000000e+01 
7.5000000e-01 3.0250001e+00 1.3500000e+01 
7.5000000e-01 3.0250001e+00 1.4000000e+01 
7.5000000e-01 3.0250001e+00 1.4500000e+01 
7.5000000e-01 3.0250001e+00 1.5000000e+01 
7.5000000e-01 3.0250001e+00 1.5500000e+01 
7.5000000e-01 3.0250001e+00 1.6000000e+01 
7.5000000e-01 3.0250001e+00 1.6500000e+01 
7.5000000e-01 3.0250001e+00 1.7000000e+01 
7.5000000e-01 3.0250001e+00 1.7500000e+01 
7.5000000e-01 3.0250001e+00 1.8000000e+01 
7.5000000e-01 3.0250001e+00 1.8500000e+01 
7.5000000e-01 3.0250001e+00 1.9000000e+01 
7.5000000e-01 3.0250001e+00 1.9500000e+01 
7.5000000e-01 3.0250001e+00 2.0000000e+01 
7.5000000e-01 3.0250001e+00 2.0500000e+01 
7.5000000e-01 3.0250001e+00 2.1000000e+01 
7.5000000e-01 3.0250001e+00 2.1500000e+01 
7.5000000e-01 3.0250001e+00 2.2000000e+01 
7.5000000e-01 3.0250001e+00 2.2500000e+01 
7.5000000e-01 3.0250001e+00 2.3000000e+01 
7.5000000e-01 3.0250001e+00 2.3500000e+01 
7.5000000e-01 3.0250001e+00 2.4000000e+01 
7.5000000e-01 3.0250001e+00 2.4500000e+01 
7.5000000e-01 3.0250001e+00 2.5000000e+01 
7.5000000e-01 3.0250001e+00 2.5500000e+01 
7.5000000e-01 3.0250001e+00 2.6000000e+01 
7.5000000e-01 3.0250001e+00 2.6500000e+01 
7.5000000e-01 3.0250001e+00 2.7000000e+01 
7.5000000e-01 3.0250001e+00 2.7500000e+01 
7.5000000e-01 3.0250001e+00 2.8000000e+01 
7.5000000e-01 3.0250001e+00 2.8500000e+01 
7.5000000e-01 3.0250001e+00 2.9000000e+01 
7.5000000e-01 3.0250001e+00 2.9500000e+01 
7.5000000e-01 3.0250001e+00 3.0000000e+01 
7.5000000e-01 3.0250001e+00 3.0500000e+01 
7.5000000e-01 3.0250001e+00 3.1000000e+01 
7.5000000e-01 3.0250001e+00 3.1500000e+01 
7.5000000e-01 3.0250001e+00 3.2000000e+01 
7.5000000e-01 3.0250001e+00 3.2500000e+01 
7.5000000e-01 3.0250001e+00 3.3000000e+01 
7.5000000e-01 3.0250001e+00 3.3500000e+01 
7.5000000e-01 3.0250001e+00 3.4000000e+01 
7.5000000e-01 3.0250001e+00 3.4500000e+01 
7.5000000e-01 3.0250001e+00 3.5000000e+01 
7.5000000e-01 3.0250001e+00 3.5500000e+01 
7.5000000e-01 3.0250001e+00 3.6000000e+01 
7.5000000e-01 3.0250001e+00 3.6500000e+01 
7.5000000e-01 3.0250001e+00 3.7000000e+01 
7.5000000e-01 3.0250001e+00 3.7500000e+01 
7.5000000e-01 3.0250001e+00 3.8000000e+01 
7.5000000e-01 3.0250001e+00 3.8500000e+01 
7.5000000e-01 3.0250001e+00 3.9000000e+01 
7.5000000e-01 3.0250001e+00 3.9500000e+01 
7.5000000e-01 3.0250001e+00 4.0000000e+01 
3.0000000e+00 2.0000000e+00 3.6000000e+01 
8.0487806e-01 3.0000000e+00 3.6000000e+01 
0.0000000e+00 0.0000000e+00 2.0000000e+00 
0.0000000e+00 0.0000000e+00 4.0000000e+00 
0.0000000e+00 0.0000000e+00 6.0000000e+00 
0.0000000e+00 0.0000000e+00 8.0000000e+00 
0.0000000e+00 0.0000000e+00 1.0000000e+01 
0.0000000e+00 0.0000000e+00 1.2000000e+01 
0.0000000e+00 0.0000000e+00 1.4000000e+01 
0.0000000e+00 0.0000000e+00 1.6000000e+01 
0.0000000e+00 0.0000000e+00 1.8000000e+01 
0.0000000e+00 0.0000000e+00 2.0000000e+01 
0.0000000e+00 0.0000000e+00 2.2000000e+01 
0.0000000e+00 0.0000000e+00 2.4000000e+01 
0.0000000e+00 0.0000000e+00 2.6000000e+01 
0.0000000e+00 0.0000000e+00 2.8000000e+01 
0.0000000e+00 0.0000000e+00 3.0000000e+01 
0.0000000e+00 0.0000000e+00 3.2000000e+01 
0.0000000e+00 0.0000000e+00 3.4000000e+01 
0.0000000e+00 0.0000000e+00 3.6000000e+01 
0.0000000e+00 0.0000000e+00 3.8000000e+01 
5.0000000e+00 0.0000000e+00 2.0000000e+00 
5.0000000e+00 0.0000000e+00 4.0000000e+00 
5.0000000e+00 0.0000000e+00 6.0000000e+00 
5.0000000e+00 0.0000000e+00 8.0000000e+00 
5.0000000e+00 0.0000000e+00 1.0000000e+01 
5.0000000e+00 0.0000000e+00 1.2000000e+01 
5.0000000e+00 0.0000000e+00 1.4000000e+01 
5.0000000e+00 0.0000000e+00 1.6000000e+01 
5.0000000e+00 0.0000000e+00 1.8000000e+01 
5.0000000e+00 0.0000000e+00 2.0000000e+01 
5.0000000e+00 0.0000000e+00 2.2000000e+01 
5.0000000e+00 0.0000000e+00 2.4000000e+01 
5.0000000e+00 0.0000000e+00 2.6000000e+01 
5.0000000e+00 0.0000000e+00 2.8000000e+01 
5.0000000e+00 0.0000000e+00 3.0000000e+01 
5.0000000e+00 0.0000000e+00 3.2000000e+01 
5.0000000e+00 0.0000000e+00 3.4000000e+01 
5.0000000e+00 0.0000000e+00 3.6000000e+01 
5.0000000e+00 0.0000000e+00 3.8000000e+01 
1.6666666e+00 0.0000000e+00 0.0000000e+00 
3.3333333e+00 0.0000000e+00 0.0000000e+00 
1.6666666e+00 0.0000000e+00 4.0000000e+01 
3.3333333e+00 0.0000000e+00 4.0000000e+01 
5.0000000e+00 1.0000000e+00 2.0000000e+00 
5.0000000e+00 1.0000000e+00 4.0000000e+00 
5.0000000e+00 1.0000000e+00 6.0000000e+00 
5.0000000e+00 1.0000000e+00 8.0000000e+00 
5.0000000e+00 1.0000000e+00 1.0000000e+01 
5.0000000e+00 1.0000000e+00 1.2000000e+01 
[...]
POINT_DATA 621
FIELD FieldData 3
DISPLACEMENT 3 621  float
0.0000000e+00 0.0000000e+00 0.0000000e+00 
0.0000000e+00 0.0000000e+00 0.0000000e+00 
0.0000000e+00 0.0000000e+00 0.0000000e+00 
0.0000000e+00 0.0000000e+00 0.0000000e+00 
7.9907913e-06 -4.4399994e-06 -6.7032906e-06 
7.5463181e-06 5.9041254e-06 1.3305590e-05 
0.0000000e+00 -2.3332557e-05 0.0000000e+00 
0.0000000e+00 -1.7065887e-04 0.0000000e+00 
7.3321512e-06 -3.1797422e-06 -1.0344286e-05 
2.6832589e-05 6.2757877e-06 -3.4935001e-06 
6.9743996e-06 -1.7593666e-05 -2.2350036e-05 
4.1060321e-05 8.2848397e-05 -1.6649017e-05 
0.0000000e+00 -4.2920485e-05 0.0000000e+00 
0.0000000e+00 -3.7865792e-04 0.0000000e+00 
-5.8464607e-06 -5.3932232e-05 -5.7508376e-05 
-1.6385995e-04 -2.5173943e-04 -2.2489757e-04 
-1.4047814e-05 -4.5852939e-05 -4.5678906e-05 
-3.7787460e-05 -1.2683558e-03 -1.0894184e-04 
0.0000000e+00 -6.5380089e-05 0.0000000e+00 
0.0000000e+00 -2.6297176e-04 0.0000000e+00 
-1.8360397e-06 -4.1792304e-05 -4.0787902e-05 
8.3577361e-06 -3.1548294e-05 -3.3515520e-05 
1.2460671e-05 -1.7462151e-05 -2.6809679e-05 
1.7144257e-05 -4.2045525e-07 -1.5435315e-05 
1.9792291e-05 1.8878814e-05 -3.1827342e-06 
1.7336262e-05 3.9391416e-05 1.3433367e-06 
1.2281716e-05 5.9442951e-05 3.3223280e-06 
9.8277005e-06 7.6906217e-05 1.9722122e-06 
7.0751066e-06 9.0111731e-05 -3.9868378e-06 
6.2896784e-06 9.8217737e-05 -3.4016955e-06 
2.6706609e-06 1.0118755e-04 5.6538556e-06 
2.0538461e-07 9.9769532e-05 1.7914304e-05 
3.4992875e-06 9.3626142e-05 2.9197341e-05 
5.8582336e-06 8.3506820e-05 3.4498113e-05 
6.9649827e-06 6.9365349e-05 3.6652465e-05 
9.7055572e-06 5.2300125e-05 3.3378463e-05 
1.2140921e-05 3.4071847e-05 2.9804072e-05 
1.5503152e-05 1.7577566e-05 2.7292806e-05 
2.1208694e-05 6.6293132e-06 2.8185494e-05 
2.2469121e-05 3.9457268e-06 3.0336085e-05 
2.2163566e-05 1.1136211e-05 2.4515797e-05 
1.9445592e-05 2.1464346e-05 2.1617101e-05 
1.4542982e-05 2.2914355e-05 3.1490828e-05 
4.0639893e-06 -1.3869319e-05 4.4419216e-05 
-3.4781551e-05 -1.2940244e-04 7.4005926e-05 
-4.7762685e-05 -3.6499568e-04 1.0304915e-04 
-7.2009134e-05 -7.8285934e-04 1.4449139e-04 
-1.2537456e-04 -1.4277326e-03 9.0865688e-05 
-2.6874692e-04 -2.3227995e-03 1.6925583e-04 
-2.7660394e-04 -3.3011024e-03 1.5523279e-04 
-1.7819367e-04 -4.0734545e-03 1.0211173e-04 
-1.5565772e-04 -4.1079833e-03 1.1314094e-04 
-2.9161788e-04 -3.9609149e-03 5.1907678e-05 
-3.5418037e-04 -3.9829100e-03 3.2954747e-05 
-2.3534783e-04 -4.2691124e-03 -1.0841981e-05 
-7.8266901e-05 -4.3034013e-03 -6.5289067e-05 
-1.0175795e-04 -3.5845875e-03 -1.6641551e-04 
-1.9472538e-04 -2.5098540e-03 -1.9678762e-04 
-1.8692057e-04 -1.5622675e-03 -1.9162543e-04 
-5.7998786e-05 -8.3364837e-04 -1.2754081e-04 
-1.8749270e-05 -3.6503281e-04 -1.6116803e-04 
-2.8048248e-06 -9.2705915e-05 -1.2491971e-04 
1.1964427e-06 4.5387045e-05 -9.7592376e-05 
1.4810515e-05 1.0195821e-04 -6.7434907e-05 
1.7670875e-05 1.1005616e-04 -3.7925292e-05 
1.6757596e-05 9.4319723e-05 -1.4923545e-05 
7.2912808e-06 6.9782654e-05 -4.1340422e-06 
-2.4269357e-06 4.2734817e-05 -3.1540008e-06 
-8.3312534e-06 1.7109487e-05 -5.1463267e-06 
-9.4151519e-06 -6.8109034e-06 -8.8138222e-06 
-1.3431700e-05 -2.8672875e-05 -1.0365555e-05 
-1.9115067e-05 -4.5834200e-05 -1.1143495e-05 
-1.8608165e-05 -5.4690681e-05 -1.4178060e-05 
-1.9529796e-05 -5.4406537e-05 -2.1085047e-05 
-1.1715035e-05 -4.3660661e-05 -3.1455795e-05 
-2.4740170e-06 -2.2983673e-05 -3.8385646e-05 
1.6461472e-05 7.7276591e-06 -3.7668298e-05 
2.8512146e-05 4.6528476e-05 -3.1203304e-05 
3.9269111e-05 9.2231312e-05 -2.9188081e-05 
5.2359548e-05 1.4169764e-04 -2.2150167e-05 
5.8047550e-05 1.9048298e-04 -1.7926681e-05 
6.0461782e-05 2.2799581e-04 -5.2069836e-06 
4.8503993e-05 2.3734837e-04 1.7960754e-05 
2.8419023e-05 1.8670755e-04 4.5628884e-05 
-2.2534217e-05 2.9527124e-05 9.2918694e-05 
-3.7487680e-05 -2.7439915e-04 1.3706155e-04 
-6.6224726e-05 -7.8496308e-04 1.9608575e-04 
-1.2718582e-04 -1.5277092e-03 1.4463087e-04 
-2.6670969e-04 -2.4973531e-03 2.1973425e-04 
-2.7536758e-04 -3.4793373e-03 1.8122054e-04 
-1.8014447e-04 -4.1156048e-03 7.9740450e-05 
-3.6073389e-04 -4.0324354e-03 1.2544752e-04 
-2.5311089e-04 -3.8469627e-03 9.9383105e-05 
-2.8436162e-04 -3.8796123e-03 1.2527341e-05 
-9.9376710e-05 -4.1472293e-03 -1.1932669e-04 
-1.6376874e-04 -4.1092150e-03 -1.8712528e-04 
-1.5266228e-04 -3.2845121e-03 -3.1271097e-04 
-1.6790471e-04 -2.2653965e-03 -3.0574799e-04 
-9.4535106e-05 -1.5357418e-03 -1.2724778e-04 
0.0000000e+00 -4.5727240e-05 0.0000000e+00 
0.0000000e+00 -4.1789532e-05 0.0000000e+00 
0.0000000e+00 -3.1626834e-05 0.0000000e+00 
0.0000000e+00 -1.7474469e-05 0.0000000e+00 
0.0000000e+00 -4.0304946e-07 0.0000000e+00 
0.0000000e+00 1.8909552e-05 0.0000000e+00 
0.0000000e+00 3.9421600e-05 0.0000000e+00 
0.0000000e+00 5.9435053e-05 0.0000000e+00 
0.0000000e+00 7.6890174e-05 0.0000000e+00 
0.0000000e+00 9.0093381e-05 0.0000000e+00 
0.0000000e+00 9.8195720e-05 0.0000000e+00 
0.0000000e+00 1.0125832e-04 0.0000000e+00 
0.0000000e+00 9.9738500e-05 0.0000000e+00 
0.0000000e+00 9.3684554e-05 0.0000000e+00 
0.0000000e+00 8.3477986e-05 0.0000000e+00 
0.0000000e+00 6.9348003e-05 0.0000000e+00 
0.0000000e+00 5.2246192e-05 0.0000000e+00 
0.0000000e+00 3.4037559e-05 0.0000000e+00 
0.0000000e+00 1.7635903e-05 0.0000000e+00 
0.0000000e+00 6.6780831e-06 0.0000000e+00 
0.0000000e+00 4.3191385e-06 0.0000000e+00 
0.0000000e+00 1.1422107e-05 0.0000000e+00 
0.0000000e+00 2.2410792e-05 0.0000000e+00 
0.0000000e+00 2.3521392e-05 0.0000000e+00 
0.0000000e+00 -1.3743541e-05 0.0000000e+00 
0.0000000e+00 -1.2829730e-04 0.0000000e+00 
0.0000000e+00 -3.6559452e-04 0.0000000e+00 
0.0000000e+00 -7.8424573e-04 0.0000000e+00 
0.0000000e+00 -1.4368454e-03 0.0000000e+00 
0.0000000e+00 -2.3302184e-03 0.0000000e+00 
0.0000000e+00 -3.3326566e-03 0.0000000e+00 
0.0000000e+00 -4.0971292e-03 0.0000000e+00 
0.0000000e+00 -4.1384860e-03 0.0000000e+00 
0.0000000e+00 -3.9746962e-03 0.0000000e+00 
0.0000000e+00 -4.0137116e-03 0.0000000e+00 
0.0000000e+00 -4.2894329e-03 0.0000000e+00 
0.0000000e+00 -4.3384572e-03 0.0000000e+00 
0.0000000e+00 -3.6031965e-03 0.0000000e+00 
0.0000000e+00 -2.5288439e-03 0.0000000e+00 
0.0000000e+00 -1.5646575e-03 0.0000000e+00 
0.0000000e+00 -8.3815784e-04 0.0000000e+00 
0.0000000e+00 -3.6491518e-04 0.0000000e+00 
0.0000000e+00 -9.1854716e-05 0.0000000e+00 
0.0000000e+00 4.6486919e-05 0.0000000e+00 
0.0000000e+00 1.0241097e-04 0.0000000e+00 
0.0000000e+00 1.1055013e-04 0.0000000e+00 
0.0000000e+00 9.4795898e-05 0.0000000e+00 
0.0000000e+00 6.9912319e-05 0.0000000e+00 
0.0000000e+00 4.2892800e-05 0.0000000e+00 
0.0000000e+00 1.7095323e-05 0.0000000e+00 
0.0000000e+00 -6.9415391e-06 0.0000000e+00 
0.0000000e+00 -2.8709801e-05 0.0000000e+00 
0.0000000e+00 -4.5681496e-05 0.0000000e+00 
0.0000000e+00 -5.4718628e-05 0.0000000e+00 
0.0000000e+00 -5.4332078e-05 0.0000000e+00 
0.0000000e+00 -4.3695502e-05 0.0000000e+00 
0.0000000e+00 -2.2903741e-05 0.0000000e+00 
0.0000000e+00 7.6942188e-06 0.0000000e+00 
0.0000000e+00 4.6623973e-05 0.0000000e+00 
0.0000000e+00 9.2307993e-05 0.0000000e+00 
0.0000000e+00 1.4200597e-04 0.0000000e+00 
0.0000000e+00 1.9084819e-04 0.0000000e+00 
0.0000000e+00 2.2885721e-04 0.0000000e+00 
0.0000000e+00 2.3814531e-04 0.0000000e+00 
0.0000000e+00 1.8655775e-04 0.0000000e+00 
0.0000000e+00 3.0613315e-05 0.0000000e+00 
0.0000000e+00 -2.7581211e-04 0.0000000e+00 
0.0000000e+00 -7.8688911e-04 0.0000000e+00 
0.0000000e+00 -1.5378337e-03 0.0000000e+00 
0.0000000e+00 -2.5060417e-03 0.0000000e+00 
0.0000000e+00 -3.5129716e-03 0.0000000e+00 
0.0000000e+00 -4.1417307e-03 0.0000000e+00 
0.0000000e+00 -4.0579289e-03 0.0000000e+00 
0.0000000e+00 -3.8624932e-03 0.0000000e+00 
0.0000000e+00 -3.9093262e-03 0.0000000e+00 
0.0000000e+00 -4.1772956e-03 0.0000000e+00 
0.0000000e+00 -4.1289590e-03 0.0000000e+00 
0.0000000e+00 -3.3009266e-03 0.0000000e+00 
0.0000000e+00 -2.2810458e-03 0.0000000e+00 
0.0000000e+00 -1.5397492e-03 0.0000000e+00 
0.0000000e+00 -1.2719521e-03 0.0000000e+00 
9.7693483e-05 -1.4899993e-04 1.2143488e-05 
-1.6521457e-04 -3.5082616e-03 1.4383061e-04 
0.0000000e+00 0.0000000e+00 0.0000000e+00 
0.0000000e+00 0.0000000e+00 0.0000000e+00 
0.0000000e+00 0.0000000e+00 0.0000000e+00 
0.0000000e+00 0.0000000e+00 0.0000000e+00 
0.0000000e+00 0.0000000e+00 0.0000000e+00 
0.0000000e+00 0.0000000e+00 0.0000000e+00 
0.0000000e+00 0.0000000e+00 0.0000000e+00 
0.0000000e+00 0.0000000e+00 0.0000000e+00 
0.0000000e+00 0.0000000e+00 0.0000000e+00 
0.0000000e+00 0.0000000e+00 0.0000000e+00 
0.0000000e+00 0.0000000e+00 0.0000000e+00 
0.0000000e+00 0.0000000e+00 0.0000000e+00 
0.0000000e+00 0.0000000e+00 0.0000000e+00 
0.0000000e+00 0.0000000e+00 0.0000000e+00 
0.0000000e+00 0.0000000e+00 0.0000000e+00 
0.0000000e+00 0.0000000e+00 0.0000000e+00 
0.0000000e+00 0.0000000e+00 0.0000000e+00 
0.0000000e+00 0.0000000e+00 0.0000000e+00 
0.0000000e+00 0.0000000e+00 0.0000000e+00 
0.0000000e+00 0.0000000e+00 0.0000000e+00 
0.0000000e+00 0.0000000e+00 0.0000000e+00 
0.0000000e+00 0.0000000e+00 0.0000000e+00 
0.0000000e+00 0.0000000e+00 0.0000000e+00 
0.0000000e+00 0.0000000e+00 0.0000000e+00 
0.0000000e+00 0.0000000e+00 0.0000000e+00 
0.0000000e+00 0.0000000e+00 0.0000000e+00 
0.0000000e+00 0.0000000e+00 0.0000000e+00 
0.0000000e+00 0.0000000e+00 0.0000000e+00 
0.0000000e+00 0.0000000e+00 0.0000000e+00 
0.0000000e+00 0.0000000e+00 0.0000000e+00 
0.0000000e+00 0.0000000e+00 0.0000000e+00 
0.0000000e+00 0.0000000e+00 0.0000000e+00 
0.0000000e+00 0.0000000e+00 0.0000000e+00 
0.0000000e+00 0.0000000e+00 0.0000000e+00 
0.0000000e+00 0.0000000e+00 0.0000000e+00 
0.0000000e+00 0.0000000e+00 0.0000000e+00 
0.0000000e+00 0.0000000e+00 0.0000000e+00 
0.0000000e+00 0.0000000e+00 0.0000000e+00 
0.0000000e+00 0.0000000e+00 0.0000000e+00 
0.0000000e+00 0.0000000e+00 0.0000000e+00 
0.0000000e+00 0.0000000e+00 0.0000000e+00 
0.0000000e+00 0.0000000e+00 0.0000000e+00 
4.4240028e-06 -1.8397213e-06 -4.7114568e-06 
1.1443431e-06 -1.1654179e-06 6.2974920e-07 
-6.0159778e-06 -2.0593660e-07 3.0346951e-06 
-1.0589612e-05 3.0604069e-06 -5.2018692e-08 
-4.4364501e-06 1.2666470e-07 -3.1632819e-06 
1.1683916e-05 -3.6307158e-06 -6.2372555e-06 
3.6418911e-05 -7.1172203e-06 -1.0582451e-05 
5.4378186e-05 -7.9140300e-06 -2.7349704e-06 
4.7535206e-05 -5.9230342e-06 8.0836408e-06 
2.1895346e-05 -2.2358638e-06 4.2813244e-06 
5.4287111e-06 -1.8435125e-06 1.1740791e-06 
2.4293597e-06 -7.9062733e-07 2.0559958e-07 
-2.4552621e-06 -2.9285482e-06 3.4562463e-06 
-7.6214296e-06 -1.7031276e-06 1.7568140e-06 
-5.4006314e-06 1.3045849e-06 -1.7732322e-06 
1.7827778e-06 1.6560393e-06 -7.8297790e-06 
3.1725212e-05 -6.6933135e-06 -1.6566943e-05 
5.3999702e-05 -2.2417207e-05 -1.7289913e-06 
4.0276500e-05 -1.6879581e-05 1.8206774e-05 
0.0000000e+00 7.8671559e-07 0.0000000e+00 
0.0000000e+00 2.5447100e-05 0.0000000e+00 
0.0000000e+00 2.9456683e-05 0.0000000e+00 
0.0000000e+00 1.2857407e-05 0.0000000e+00 
0.0000000e+00 -2.8121394e-06 0.0000000e+00 
0.0000000e+00 -2.0951378e-05 0.0000000e+00 
0.0000000e+00 -2.2071092e-04 0.0000000e+00 
0.0000000e+00 -5.4263906e-04 0.0000000e+00 
0.0000000e+00 -5.3111650e-04 0.0000000e+00 
0.0000000e+00 -1.5311179e-04 0.0000000e+00 
0.0000000e+00 1.1178599e-05 0.0000000e+00 
0.0000000e+00 1.1944856e-05 0.0000000e+00 
0.0000000e+00 -2.1390133e-05 0.0000000e+00 
0.0000000e+00 -9.5224514e-06 0.0000000e+00 
0.0000000e+00 4.7050453e-05 0.0000000e+00 
0.0000000e+00 4.7424353e-05 0.0000000e+00 
0.0000000e+00 -2.1914471e-04 0.0000000e+00 
0.0000000e+00 -5.7214871e-04 0.0000000e+00 
0.0000000e+00 -4.8453704e-04 0.0000000e+00 
7.4015761e-06 -8.2696579e-06 -1.1295878e-05 
4.8603542e-06 -2.0538790e-05 -1.4186726e-05 
4.0546423e-05 3.5807243e-05 1.3626811e-05 
8.1626356e-05 -7.5915064e-05 1.0607709e-04 
6.0132465e-06 -2.9373691e-06 -7.7238537e-06 
4.5542088e-06 -4.0270625e-06 -9.2477154e-07 
-4.2019374e-06 -2.1669036e-06 3.1387115e-06 
-1.2514457e-05 2.5581298e-06 7.3833036e-07 
-6.9457769e-06 1.8930681e-06 -3.4638715e-06 
1.9333676e-05 -3.0556475e-06 -8.4417725e-06 
3.5576108e-05 -5.4577517e-06 -4.5363736e-06 
3.8899168e-05 -6.7814676e-06 -2.3580598e-07 
2.7069984e-05 -2.7759759e-06 6.6667594e-06 
1.1721529e-05 1.6226890e-06 -2.9893042e-06 
9.8423998e-06 -2.4714782e-06 -1.4205541e-06 
4.2316337e-06 -3.1033940e-06 1.9288766e-06 
-4.9252467e-06 -5.2244691e-06 4.6585878e-06 
-9.2436949e-06 -2.0335142e-06 -1.1471659e-06 
3.7746591e-07 1.2696188e-06 -7.8347102e-06 
1.6462474e-05 1.2905306e-06 -9.4507513e-06 
3.4421053e-05 -6.1029646e-06 -5.9913832e-06 
4.7608177e-05 -1.6105740e-05 8.5020629e-06 
3.2244672e-05 -7.6400747e-06 9.5626210e-06 
5.7304956e-06 -3.2390300e-05 -2.4551733e-05 
0.0000000e+00 8.3273630e-07 0.0000000e+00 
0.0000000e+00 4.8443864e-05 0.0000000e+00 
0.0000000e+00 5.6235389e-05 0.0000000e+00 
0.0000000e+00 2.5298241e-05 0.0000000e+00 
0.0000000e+00 -7.6486467e-06 0.0000000e+00 
0.0000000e+00 -2.5553982e-05 0.0000000e+00 
0.0000000e+00 -4.6175750e-04 0.0000000e+00 
0.0000000e+00 -1.1998656e-03 0.0000000e+00 
0.0000000e+00 -1.1824957e-03 0.0000000e+00 
0.0000000e+00 -2.8850284e-04 0.0000000e+00 
0.0000000e+00 3.5973077e-05 0.0000000e+00 
0.0000000e+00 2.2172584e-05 0.0000000e+00 
0.0000000e+00 -3.6917543e-05 0.0000000e+00 
0.0000000e+00 -1.9069888e-05 0.0000000e+00 
0.0000000e+00 8.7399676e-05 0.0000000e+00 
0.0000000e+00 9.8397904e-05 0.0000000e+00 
0.0000000e+00 -4.6266717e-04 0.0000000e+00 
0.0000000e+00 -1.2929342e-03 0.0000000e+00 
0.0000000e+00 -1.0610240e-03 0.0000000e+00 
7.0140821e-05 -2.1368552e-04 6.0177928e-05 
2.0831321e-05 -1.1323924e-06 -2.0241801e-05 
1.4022754e-05 4.8736834e-05 1.1600054e-06 
3.5872358e-06 6.4336804e-05 2.3935952e-05 
4.6583236e-06 4.3093023e-05 3.5333618e-05 
3.6249214e-05 -1.4239282e-05 4.9033057e-05 
2.0397383e-05 2.1117294e-05 7.7166151e-05 
-2.8199540e-04 -4.4297479e-04 2.7937681e-04 
-7.0242945e-04 -1.3438534e-03 1.2327038e-04 
-6.4240268e-04 -1.4792974e-03 -1.4995599e-04 
-1.3251464e-04 -2.4870707e-04 -2.5288583e-04 
3.4459743e-05 4.9901832e-05 -7.1744180e-05 
5.6984857e-07 2.0233914e-05 -1.3411120e-06 
-2.7167072e-05 -3.7810714e-05 2.7362614e-06 
-1.2909437e-05 -1.3984108e-05 -5.8015685e-05 
7.8592704e-05 7.1662449e-05 -3.0097308e-05 
5.7048434e-05 1.7499991e-04 8.9112233e-05 
-3.2055480e-04 -4.5229611e-04 3.8809801e-04 
-5.0278846e-04 -1.7074365e-03 1.3893050e-04 
-5.5793748e-04 -1.1859799e-03 -2.1109887e-04 
0.0000000e+00 -5.6766767e-06 0.0000000e+00 
0.0000000e+00 7.4613541e-05 0.0000000e+00 
0.0000000e+00 8.6877852e-05 0.0000000e+00 
0.0000000e+00 3.6549438e-05 0.0000000e+00 
0.0000000e+00 -1.5587773e-05 0.0000000e+00 
0.0000000e+00 4.0486188e-06 0.0000000e+00 
0.0000000e+00 -8.5945422e-04 0.0000000e+00 
0.0000000e+00 -2.3241816e-03 0.0000000e+00 
0.0000000e+00 -2.2559394e-03 0.0000000e+00 
0.0000000e+00 -4.9310160e-04 0.0000000e+00 
0.0000000e+00 8.4647945e-05 0.0000000e+00 
0.0000000e+00 3.7861064e-05 0.0000000e+00 
0.0000000e+00 -4.8820752e-05 0.0000000e+00 
0.0000000e+00 -3.3667533e-05 0.0000000e+00 
0.0000000e+00 1.1703969e-04 0.0000000e+00 
0.0000000e+00 1.9361803e-04 0.0000000e+00 
0.0000000e+00 -9.1176754e-04 0.0000000e+00 
0.0000000e+00 -2.4097855e-03 0.0000000e+00 
0.0000000e+00 -2.0800794e-03 0.0000000e+00 
6.3954717e-06 -1.6821047e-06 -6.5260951e-06 
3.3239135e-07 9.4208508e-06 1.2565570e-06 
-1.2568804e-05 1.2047133e-05 8.7204780e-06 
-8.9783061e-06 1.0431700e-05 9.9554036e-06 
8.7141580e-06 -5.1069435e-07 1.3020373e-05 
2.3282291e-05 2.0361051e-05 1.6959257e-05 
5.5317407e-05 -4.7398713e-05 3.6404977e-06 
5.3302199e-05 -1.0126556e-04 -9.0262702e-06 
4.1837837e-05 -1.0406876e-04 -4.8952325e-07 
3.8820061e-05 -5.3500356e-05 -4.7052117e-06 
3.8202147e-06 1.3071417e-05 -1.4747708e-05 
-4.9053920e-06 3.3225265e-06 -9.7142020e-06 
-1.3995346e-05 -1.1636197e-05 -3.0879535e-06 
-8.9420282e-06 -5.7503294e-06 -1.0603225e-05 
7.8772810e-06 1.9725037e-05 -2.3676159e-06 
1.3382562e-05 4.9139933e-05 1.4111650e-05 
4.5154869e-05 -2.6127063e-05 1.4487838e-05 
4.7360652e-05 -1.0777791e-04 1.1370801e-05 
-7.1743954e-05 -1.1163881e-03 7.3635674e-05 
0.0000000e+00 0.0000000e+00 0.0000000e+00 
0.0000000e+00 0.0000000e+00 0.0000000e+00 
0.0000000e+00 0.0000000e+00 0.0000000e+00 
0.0000000e+00 0.0000000e+00 0.0000000e+00 
0.0000000e+00 0.0000000e+00 0.0000000e+00 
0.0000000e+00 0.0000000e+00 0.0000000e+00 
0.0000000e+00 0.0000000e+00 0.0000000e+00 
0.0000000e+00 0.0000000e+00 0.0000000e+00 
0.0000000e+00 0.0000000e+00 0.0000000e+00 
0.0000000e+00 0.0000000e+00 0.0000000e+00 
0.0000000e+00 0.0000000e+00 0.0000000e+00 
0.0000000e+00 0.0000000e+00 0.0000000e+00 
0.0000000e+00 0.0000000e+00 0.0000000e+00 
0.0000000e+00 0.0000000e+00 0.0000000e+00 
0.0000000e+00 0.0000000e+00 0.0000000e+00 
0.0000000e+00 0.0000000e+00 0.0000000e+00 
0.0000000e+00 0.0000000e+00 0.0000000e+00 
0.0000000e+00 0.0000000e+00 0.0000000e+00 
0.0000000e+00 0.0000000e+00 0.0000000e+00 
0.0000000e+00 0.0000000e+00 0.0000000e+00 
0.0000000e+00 0.0000000e+00 0.0000000e+00 
0.0000000e+00 0.0000000e+00 0.0000000e+00 
0.0000000e+00 0.0000000e+00 0.0000000e+00 
0.0000000e+00 0.0000000e+00 0.0000000e+00 
0.0000000e+00 0.0000000e+00 0.0000000e+00 
0.0000000e+00 0.0000000e+00 0.0000000e+00 
0.0000000e+00 0.0000000e+00 0.0000000e+00 
0.0000000e+00 0.0000000e+00 0.0000000e+00 
0.0000000e+00 0.0000000e+00 0.0000000e+00 
0.0000000e+00 0.0000000e+00 0.0000000e+00 
0.0000000e+00 0.0000000e+00 0.0000000e+00 
0.0000000e+00 0.0000000e+00 0.0000000e+00 
0.0000000e+00 0.0000000e+00 0.0000000e+00 
0.0000000e+00 0.0000000e+00 0.0000000e+00 
0.0000000e+00 0.0000000e+00 0.0000000e+00 
0.0000000e+00 0.0000000e+00 0.0000000e+00 
0.0000000e+00 0.0000000e+00 0.0000000e+00 
0.0000000e+00 0.0000000e+00 0.0000000e+00 
0.0000000e+00 0.0000000e+00 0.0000000e+00 
0.0000000e+00 0.0000000e+00 0.0000000e+00 
0.0000000e+00 0.0000000e+00 0.0000000e+00 
0.0000000e+00 0.0000000e+00 0.0000000e+00 
3.3676786e-06 -1.8100559e-06 -2.7424551e-06 
1.0422634e-05 -7.2175776e-06 -5.9571780e-06 
2.1601027e-05 -8.4994635e-06 3.3674594e-06 
6.8714962e-07 -2.2558140e-07 -6.2806129e-07 
1.1184860e-06 -6.0450827e-07 2.0584396e-06 
-2.7400013e-06 -1.0861430e-06 1.1543974e-06 
-3.6084268e-06 -9.2924135e-10 4.1002473e-08 
-2.6496386e-06 2.1956128e-06 -4.4438855e-07 
6.7320998e-06 -5.1983807e-06 -9.3103663e-06 
2.9956715e-05 -1.3483859e-05 -1.0557290e-05 
2.8864488e-05 -1.5321999e-05 3.2696448e-06 
1.6682396e-05 -9.5216947e-06 1.1725981e-05 
1.4910214e-06 -5.9889527e-07 -1.5819026e-06 
-2.0491680e-06 5.3580624e-07 1.4278241e-06 
-5.8527976e-06 1.8915322e-06 1.7470462e-06 
-4.6200503e-06 1.0668913e-06 -2.1394774e-06 
2.0990080e-06 -1.2750213e-06 -2.4530999e-07 
2.7552029e-05 -9.9485305e-06 -3.8909384e-06 
2.6460604e-05 -9.2855389e-06 2.6363525e-06 
6.0659322e-06 -2.8919419e-06 8.5068797e-07 
6.0057855e-06 -2.7416922e-06 -3.8015601e-06 
1.1195238e-04 -1.1826342e-04 6.2456398e-05 
-1.0328085e-05 5.2828705e-06 4.5113952e-06 
-2.6127432e-06 9.1829099e-07 3.3617478e-06 
3.6890800e-05 9.5202549e-06 -1.0125300e-05 
8.8249501e-05 -2.3945744e-05 -1.3542931e-06 
1.9678326e-05 4.7995422e-07 1.1410590e-05 
-4.5475572e-06 -2.4724284e-06 -5.4932661e-06 
-5.0281224e-06 2.1566232e-06 1.4495764e-06 
1.9022058e-05 2.1960741e-05 -8.3224168e-06 
-9.0500607e-06 1.7374645e-05 5.6745248e-06 
1.6238488e-05 -2.3791517e-06 1.4415923e-06 
1.1388762e-04 -2.2886919e-04 -4.1856230e-05 
9.3433206e-05 -2.0514175e-04 3.8989387e-05 
-2.2156838e-07 8.8687084e-06 -5.4674688e-06 
-5.5511068e-06 -1.2699998e-05 -2.5375900e-06 
4.1407070e-06 3.9620096e-05 5.7777203e-07 
1.0122926e-04 -2.3277757e-04 -5.8617989e-05 
1.4142299e-04 -3.5295641e-04 8.0198324e-06 
4.4121356e-07 1.4056865e-06 6.2532320e-07 
5.9599435e-05 -3.6117945e-05 1.4612016e-05 
1.9561130e-06 1.0107746e-05 2.3956009e-06 
-1.1036134e-05 4.0016857e-06 3.9211623e-06 
8.4659405e-06 3.0030403e-06 4.8607158e-06 
5.4264096e-05 -1.7544682e-05 -8.2406214e-06 
4.2448526e-05 -2.1336169e-05 5.9241684e-06 
9.0923857e-07 2.8504369e-06 -2.8455213e-06 
-7.4921359e-06 -4.5559873e-06 -2.8574729e-07 