# vtk DataFile Version 4.0
vtk output
ASCII
DATASET UNSTRUCTURED_GRID
POINTS 621 float
0.0000000e+00 0.0000000e+00 0.0000000e+00 
0.0000000e+00 0.0000000e+00 4.0000000e+01 
5.0000000e+00 0.0000000e+00 0.0000000e+00 
5.0000000e+00 0.0000000e+00 4.0000000e+01 
5.0000000e+00 1.0000000e+00 0.0000000e+00 
5.0000000e+00 1.0000000e+00 4.0000000e+01 
0.0000000e+00 1.0000000e+00 0.0000000e+00 
0.0000000e+00 1.0000000e+00 4.0000000e+01 
5.0000000e+00 2.0000000e+00 0.0000000e+00 
5.0000000e+00 2.0000000e+00 4.0000000e+01 
3.0000000e+00 2.0000000e+00 0.0000000e+00 
3.0000000e+00 2.0000000e+00 4.0000000e+01 
0.0000000e+00 2.0000000e+00 0.0000000e+00 
0.0000000e+00 2.0000000e+00 4.0000000e+01 
1.5000000e+00 3.0000000e+00 0.0000000e+00 
1.5000000e+00 3.0000000e+00 4.0000000e+01 
7.5000000e-01 3.0000000e+00 0.0000000e+00 
7.5000000e-01 3.0000000e+00 4.0000000e+01 
0.0000000e+00 3.0000000e+00 0.0000000e+00 
0.0000000e+00 3.0000000e+00 4.0000000e+01 
7.5000000e-01 3.0000000e+00 5.0000000e-01 
7.5000000e-01 3.0000000e+00 1.0000000e+00 
7.5000000e-01 3.0000000e+00 1.5000000e+00 
7.5000000e-01 3.0000000e+00 2.0000000e+00 
7.5000000e-01 3.0000000e+00 2.5000000e+00 
7.5000000e-01 3.0000000e+00 3.0000000e+00 
7.5000000e-01 3.0000000e+00 3.5000000e+00 
7.5000000e-01 3.0000000e+00 4.0000000e+00 
7.5000000e-01 3.0000000e+00 4.5000000e+00 
7.5000000e-01 3.0000000e+00 5.0000000e+00 
7.5000000e-01 3.0000000e+00 5.5000000e+00 
7.5000000e-01 3.0000000e+00 6.0000000e+00 
7.5000000e-01 3.0000000e+00 6.5000000e+00 
7.5000000e-01 3.0000000e+00 7.0000000e+00 
7.5000000e-01 3.0000000e+00 7.5000000e+00 
7.5000000e-01 3.0000000e+00 8.0000000e+00 
7.5000000e-01 3.0000000e+00 8.5000000e+00 
7.5000000e-01 3.0000000e+00 9.0000000e+00 
7.5000000e-01 3.0000000e+00 9.5000000e+00 
7.5000000e-01 3.0000000e+00 1.0000000e+01 
7.5000000e-01 3.0000000e+00 1.0500000e+01 
7.5000000e-01 3.0000000e+00 1.1000000e+01 
7.5000000e-01 3.0000000e+00 1.1500000e+01 
7.5000000e-01 3.0000000e+00 1.2000000e+01 
7.5000000e-01 3.0000000e+00 1.2500000e+01 
7.5000000e-01 3.0000000e+00 1.3000000e+01 
7.5000000e-01 3.0000000e+00 1.3500000e+01 
7.5000000e-01 3.0000000e+00 1.4000000e+01 
7.5000000e-01 3.0000000e+00 1.4500000e+01 
7.5000000e-01 3.0000000e+00 1.5000000e+01 
7.5000000e-01 3.0000000e+00 1.5500000e+01 
7.5000000e-01 3.0000000e+00 1.6000000e+01 
7.5000000e-01 3.0000000e+00 1.6500000e+01 
7.5000000e-01 3.0000000e+00 1.7000000e+01 
7.5000000e-01 3.0000000e+00 1.7500000e+01 
7.5000000e-01 3.0000000e+00 1.8000000e+01 
7.5000000e-01 3.0000000e+00 1.8500000e+01 
7.5000000e-01 3.0000000e+00 1.9000000e+01 
7.5000000e-01 3.0000000e+00 1.9500000e+01 
7.5000000e-01 3.0000000e+00 2.0000000e+01 
7.5000000e-01 3.0000000e+00 2.0500000e+01 
7.5000000e-01 3.0000000e+00 2.1000000e+01 
7.5000000e-01 3.0000000e+00 2.1500000e+01 
7.5000000e-01 3.0000000e+00 2.2000000e+01 
7.5000000e-01 3.0000000e+00 2.2500000e+01 
7.5000000e-01 3.0000000e+00 2.3000000e+01 
7.5000000e-01 3.0000000e+00 2.3500000e+01 
7.5000000e-01 3.0000000e+00 2.4000000e+01 
7.5000000e-01 3.0000000e+00 2.4500000e+01 
7.5000000e-01 3.0000000e+00 2.5000000e+01 
7.5000000e-01 3.0000000e+00 2.5500000e+01 
7.5000000e-01 3.0000000e+00 2.6000000e+01 
7.5000000e-01 3.0000000e+00 2.6500000e+01 
7.5000000e-01 3.0000000e+00 2.7000000e+01 
7.5000000e-01 3.0000000e+00 2.7500000e+01 
7.5000000e-01 3.0000000e+00 2.8000000e+01 
7.5000000e-01 3.0000000e+00 2.8500000e+01 
7.5000000e-01 3.0000000e+00 2.9000000e+01 
7.5000000e-01 3.0000000e+00 2.9500000e+01 
7.5000000e-01 3.0000000e+00 3.0000000e+01 
7.5000000e-01 3.0000000e+00 3.0500000e+01 
7.5000000e-01 3.0000000e+00 3.1000000e+01 
7.5000000e-01 3.0000000e+00 3.1500000e+01 
7.5000000e-01 3.0000000e+00 3.2000000e+01 
7.5000000e-01 3.0000000e+00 3.2500000e+01 
7.5000000e-01 3.0000000e+00 3.3000000e+01 
7.5000000e-01 3.0000000e+00 3.3500000e+01 
7.5000000e-01 3.0000000e+00 3.4000000e+01 
7.5000000e-01 3.0000000e+00 3.4500000e+01 
7.5000000e-01 3.0000000e+00 3.5000000e+01 
7.5000000e-01 3.0000000e+00 3.5500000e+01 
7.5000000e-01 3.0000000e+00 3.6000000e+01 
7.5000000e-01 3.0000000e+00 3.6500000e+01 
7.5000000e-01 3.0000000e+00 3.7000000e+01 
7.5000000e-01 3.0000000e+00 3.7500000e+01 
7.5000000e-01 3.0000000e+00 3.8000000e+01 
7.5000000e-01 3.0000000e+00 3.8500000e+01 
7.5000000e-01 3.0000000e+00 3.9000000e+01 
7.5000000e-01 3.0000000e+00 3.9500000e+01 
7.5000000e-01 3.0250001e+00 0.0000000e+00 
7.5000000e-01 3.0250001e+00 5.0000000e-01 
7.5000000e-01 3.0250001e+00 1.0000000e+00 
7.5000000e-01 3.0250001e+00 1.5000000e+00 
7.5000000e-01 3.0250001e+00 2.0000000e+00 
7.5000000e-01 3.0250001e+00 2.5000000e+00 
7.5000000e-01 3.0250001e+00 3.0000000e+00 
7.5000000e-01 3.0250001e+00 3.5000000e+00 
7.5000000e-01 3.0250001e+00 4.0000000e+00 
7.5000000e-01 3.0250001e+00 4.5000000e+00 
7.5000000e-01 3.0250001e+00 5.0000000e+00 
7.5000000e-01 3.0250001e+00 5.5000000e+00 
7.5000000e-01 3.0250001e+00 6.0000000e+00 
7.5000000e-01 3.0250001e+00 6.5000000e+00 
7.5000000e-01 3.0250001e+00 7.0000000e+00 
7.5000000e-01 3.0250001e+00 7.5000000e+00 
7.5000000e-01 3.0250001e+00 8.0000000e+00 
7.5000000e-01 3.0250001e+00 8.5000000e+00 
7.5000000e-01 3.0250001e+00 9.0000000e+00 
7.5000000e-01 3.0250001e+00 9.5000000e+00 
7.5000000e-01 3.0250001e+00 1.0000000e+01 
7.5000000e-01 3.0250001e+00 1.0500000e+01 
7.5000000e-01 3.0250001e+00 1.1000000e+01 
7.5000000e-01 3.0250001e+00 1.1500000e+01 
7.5000000e-01 3.0250001e+00 1.2000000e+01 
7.5000000e-01 3.0250001e+00 1.2500000e+01 
7.5000000e-01 3.0250001e+00 1.3000000e+01 
7.5000000e-01 3.0250001e+00 1.3500000e+01 
7.5000000e-01 3.0250001e+00 1.4000000e+01 
7.5000000e-01 3.0250001e+00 1.4500000e+01 
7.5000000e-01 3.0250001e+00 1.5000000e+01 
7.5000000e-01 3.0250001e+00 1.5500000e+01 
7.5000000e-01 3.0250001e+00 1.6000000e+01 
7.5000000e-01 3.0250001e+00 1.6500000e+01 
7.5000000e-01 3.0250001e+00 1.7000000e+01 
7.5000000e-01 3.0250001e+00 1.7500000e+01 
7.5000000e-01 3.0250001e+00 1.8000000e+01 
7.5000000e-01 3.0250001e+00 1.8500000e+01 
7.5000000e-01 3.0250001e+00 1.9000000e+01 
7.5000000e-01 3.0250001e+00 1.9500000e+01 
7.5000000e-01 3.0250001e+00 2.0000000e+01 
7.5000000e-01 3.0250001e+00 2.0500000e+01 
7.5000000e-01 3.0250001e+00 2.1000000e+01 
7.5000000e-01 3.0250001e+00 2.1500000e+01 
7.5000000e-01 3.0250001e+00 2.2000000e+01 
7.5000000e-01 3.0250001e+00 2.2500000e+01 
7.5000000e-01 3.0250001e+00 2.3000000e+01 
7.5000000e-01 3.0250001e+00 2.3500000e+01 
7.5000000e-01 3.0250001e+00 2.4000000e+01 
7.5000000e-01 3.0250001e+00 2.4500000e+01 
7.5000000e-01 3.0250001e+00 2.5000000e+01 
7.5000000e-01 3.0250001e+00 2.5500000e+01 
7.5000000e-01 3.0250001e+00 2.6000000e+01 
7.5000000e-01 3.0250001e+00 2.6500000e+01 
7.5000000e-01 3.0250001e+00 2.7000000e+01 
7.5000000e-01 3.0250001e+00 2.7500000e+01 
7.5000000e-01 3.0250001e+00 2.8000000e+01 
7.5000000e-01 3.0250001e+00 2.8500000e+01 
7.5000000e-01 3.0250001e+00 2.9000000e+01 
7.5000000e-01 3.0250001e+00 2.9500000e+01 
7.5000000e-01 3.0250001e+00 3.0000000e+01 
7.5000000e-01 3.0250001e+00 3.0500000e+01 
7.5000000e-01 3.0250001e+00 3.1000000e+01 
7.5000000e-01 3.0250001e+00 3.1500000e+01 
7.5000000e-01 3.0250001e+00 3.2000000e+01 
7.5000000e-01 3.0250001e+00 3.2500000e+01 
7.5000000e-01 3.0250001e+00 3.3000000e+01 
7.5000000e-01 3.0250001e+00 3.3500000e+01 
7.5000000e-01 3.0250001e+00 3.4000000e+01 
7.5000000e-01 3.0250001e+00 3.4500000e+01 
7.5000000e-01 3.0250001e+00 3.5000000e+01 
7.5000000e-01 3.0250001e+00 3.5500000e+01 
7.5000000e-01 3.0250001e+00 3.6000000e+01 
7.5000000e-01 3.0250001e+00 3.6500000e+01 
7.5000000e-01 3.0250001e+00 3.7000000e+01 
7.5000000e-01 3.0250001e+00 3.7500000e+01 
7.5000000e-01 3.0250001e+00 3.8000000e+01 
7.5000000e-01 3.0250001e+00 3.8500000e+01 
7.5000000e-01 3.0250001e+00 3.9000000e+01 
7.5000000e-01 3.0250001e+00 3.9500000e+01 
7.5000000e-01 3.0250001e+00 4.0000000e+01 
3.0000000e+00 2.0000000e+00 3.6000000e+01 
8.0487806e-01 3.0000000e+00 3.6000000e+01 
0.0000000e+00 0.0000000e+00 2.0000000e+00 
0.0000000e+00 0.0000000e+00 4.0000000e+00 
0.0000000e+00 0.0000000e+00 6.0000000e+00 
0.0000000e+00 0.0000000e+00 8.0000000e+00 
0.0000000e+00 0.0000000e+00 1.0000000e+01 
0.0000000e+00 0.0000000e+00 1.2000000e+01 
0.0000000e+00 0.0000000e+00 1.4000000e+01 
0.0000000e+00 0.0000000e+00 1.6000000e+01 
0.0000000e+00 0.0000000e+00 1.8000000e+01 
0.0000000e+00 0.0000000e+00 2.0000000e+01 
0.0000000e+00 0.0000000e+00 2.2000000e+01 
0.0000000e+00 0.0000000e+00 2.4000000e+01 
0.0000000e+00 0.0000000e+00 2.6000000e+01 
0.0000000e+00 0.0000000e+00 2.8000000e+01 
0.0000000e+00 0.0000000e+00 3.0000000e+01 
0.0000000e+00 0.0000000e+00 3.2000000e+01 
0.0000000e+00 0.0000000e+00 3.4000000e+01 
0.0000000e+00 0.0000000e+00 3.6000000e+01 
0.0000000e+00 0.0000000e+00 3.8000000e+01 
5.0000000e+00 0.0000000e+00 2.0000000e+00 
5.0000000e+00 0.0000000e+00 4.0000000e+00 
5.0000000e+00 0.0000000e+00 6.0000000e+00 
5.0000000e+00 0.0000000e+00 8.0000000e+00 
5.0000000e+00 0.0000000e+00 1.0000000e+01 
5.0000000e+00 0.0000000e+00 1.2000000e+01 
5.0000000e+00 0.0000000e+00 1.4000000e+01 
5.0000000e+00 0.0000000e+00 1.6000000e+01 
5.0000000e+00 0.0000000e+00 1.8000000e+01 
5.0000000e+00 0.0000000e+00 2.0000000e+01 
5.0000000e+00 0.0000000e+00 2.2000000e+01 
5.0000000e+00 0.0000000e+00 2.4000000e+01 
5.0000000e+00 0.0000000e+00 2.6000000e+01 
5.0000000e+00 0.0000000e+00 2.8000000e+01 
5.0000000e+00 0.0000000e+00 3.0000000e+01 
5.0000000e+00 0.0000000e+00 3.2000000e+01 
5.0000000e+00 0.0000000e+00 3.4000000e+01 
5.0000000e+00 0.0000000e+00 3.6000000e+01 
5.0000000e+00 0.0000000e+00 3.8000000e+01 
1.6666666e+00 0.0000000e+00 0.0000000e+00 
3.3333333e+00 0.0000000e+00 0.0000000e+00 
1.6666666e+00 0.0000000e+00 4.0000000e+01 
3.3333333e+00 0.0000000e+00 4.0000000e+01 
5.0000000e+00 1.0000000e+00 2.0000000e+00 
5.0000000e+00 1.0000000e+00 4.0000000e+00 
5.0000000e+00 1.0000000e+00 6.0000000e+00 
5.0000000e+00 1.0000000e+00 8.0000000e+00 
5.0000000e+00 1.0000000e+00 1.0000000e+01 
5.0000000e+00 1.0000000e+00 1.2000000e+01 
[...]
POINT_DATA 621
FIELD FieldData 3
DISPLACEMENT 3 621  float
0.0000000e+00 0.0000000e+00 0.0000000e+00 
0.0000000e+00 0.0000000e+00 0.0000000e+00 
0.0000000e+00 0.0000000e+00 0.0000000e+00 
0.0000000e+00 0.0000000e+00 0.0000000e+00 
1.3769242e-05 -2.0255222e-05 -2.9753093e-05 
-1.6717161e-07 -7.1167335e-07 -2.3771998e-08 
0.0000000e+00 -7.2798422e-05 0.0000000e+00 
0.0000000e+00 -1.4233685e-06 0.0000000e+00 
1.9099241e-05 -2.7896769e-05 -5.1422208e-05 
-3.5055737e-07 -8.8803631e-07 9.0814433e-07 
4.5562419e-06 -1.5558466e-05 -2.4992243e-05 
-5.6448181e-07 -1.9358208e-06 3.3282259e-07 
0.0000000e+00 -8.0736623e-05 0.0000000e+00 
0.0000000e+00 -4.0438717e-06 0.0000000e+00 
4.7244273e-05 4.4135380e-05 1.1385285e-04 
-6.8275381e-07 -9.2058863e-06 -2.3576310e-06 
3.2463555e-05 7.2346164e-05 2.5693033e-04 
5.1665126e-07 -1.2481269e-05 1.1119642e-07 
0.0000000e+00 1.9620743e-06 0.0000000e+00 
0.0000000e+00 -6.2375921e-06 0.0000000e+00 
-3.6133264e-05 -1.2022889e-05 2.0999713e-04 
-6.4184132e-05 -2.6176655e-04 1.4191637e-04 
-8.7829299e-05 -7.0010469e-04 2.2613654e-04 
-1.0652439e-04 -1.3644742e-03 2.4709417e-04 
-1.8749466e-04 -2.2443112e-03 1.3064084e-04 
-2.2084291e-04 -3.2422356e-03 1.3694417e-04 
-1.1854641e-04 -4.0381192e-03 9.9789220e-05 
-8.5287706e-05 -4.0698680e-03 1.1662199e-04 
-2.2976578e-04 -3.9039210e-03 5.1328265e-05 
-3.0313505e-04 -3.9044491e-03 4.0322026e-05 
-2.0736860e-04 -4.1739754e-03 9.4651205e-06 
-6.3690757e-05 -4.2069592e-03 -4.9606464e-05 
-9.8857796e-05 -3.5118433e-03 -1.5843110e-04 
-2.0115302e-04 -2.4802675e-03 -1.9509735e-04 
-1.9376597e-04 -1.5879656e-03 -1.8522478e-04 
-7.2788469e-05 -9.1847166e-04 -1.1383836e-04 
-4.6882989e-05 -5.0398370e-04 -1.5218549e-04 
-4.1435687e-05 -2.7158696e-04 -1.3714729e-04 
-3.1803567e-05 -1.4923011e-04 -1.3485219e-04 
-3.7382113e-06 -7.6725344e-05 -1.2273205e-04 
1.8460696e-05 -1.6239142e-05 -8.9300585e-05 
3.2029624e-05 4.3349108e-05 -5.0118539e-05 
2.1830299e-05 9.9393561e-05 -1.6078469e-05 
4.8899469e-06 1.4056600e-04 1.5831858e-05 
8.5628443e-07 1.5564758e-04 1.7549715e-05 
-3.4121203e-06 1.4770030e-04 1.3756354e-05 
-3.4673521e-06 1.2398807e-04 -7.7188110e-07 
2.5280926e-06 9.3608738e-05 -2.5833966e-05 
5.0469430e-07 6.5223940e-05 -4.0615239e-05 
5.8829301e-06 3.9861949e-05 -4.2541520e-05 
6.9286002e-06 1.6356440e-05 -3.2428739e-05 
6.3160173e-06 -5.8525288e-06 -1.4456821e-05 
5.1712777e-06 -2.7873844e-05 1.3410698e-05 
9.0884896e-06 -4.9543094e-05 3.1897660e-05 
7.7104942e-06 -7.1066956e-05 4.6701156e-05 
-6.9232956e-06 -8.7205197e-05 6.0719198e-05 
-2.4666444e-05 -9.2558301e-05 4.9805327e-05 
-2.8558228e-05 -8.8506065e-05 3.8972037e-05 
-1.9913894e-05 -8.1785409e-05 2.9105304e-05 
-1.9001661e-06 -1.0341946e-04 1.3682046e-05 
-3.6441339e-05 -1.9917163e-04 3.1290107e-05 
-5.7656227e-05 -4.2217894e-04 5.6264587e-05 
-7.8315308e-05 -8.4396830e-04 9.2517505e-05 
-1.1858824e-04 -1.5038216e-03 4.3076663e-05 
-2.2834270e-04 -2.4100379e-03 1.5931345e-04 
-2.1821652e-04 -3.3502935e-03 1.6351054e-04 
-1.2661025e-04 -3.9682966e-03 1.3641955e-04 
-1.0918317e-04 -3.8674942e-03 1.8328417e-04 
-2.6109235e-04 -3.7148064e-03 1.1272846e-04 
-3.2207719e-04 -3.7853026e-03 9.4101262e-05 
-2.1286517e-04 -4.1015577e-03 4.3151489e-05 
-7.8050703e-05 -4.0641450e-03 -1.3661511e-05 
-1.0568685e-04 -3.3205363e-03 -1.4672309e-04 
-2.0119970e-04 -2.3374630e-03 -1.9930564e-04 
-1.8839350e-04 -1.5008285e-03 -2.1309046e-04 
-8.2598635e-05 -8.6810638e-04 -1.5646029e-04 
-4.7015947e-05 -4.6032656e-04 -1.7982254e-04 
-2.7488972e-05 -2.1572530e-04 -1.4349348e-04 
-1.7983701e-05 -7.7756667e-05 -1.2092467e-04 
9.5260411e-06 -2.0165965e-07 -9.4731608e-05 
2.4538669e-05 4.4563538e-05 -6.1707840e-05 
3.5896282e-05 7.2814124e-05 -2.4430246e-05 
2.3385293e-05 9.0203153e-05 8.3347950e-06 
6.4361639e-06 9.5701602e-05 3.2978263e-05 
-1.3831354e-06 8.5477681e-05 3.8601393e-05 
-7.9997717e-06 6.2974425e-05 3.2929969e-05 
-8.4876983e-06 3.4287637e-05 2.0156942e-05 
-5.1783186e-06 6.0132006e-06 3.5638466e-06 
-4.2075171e-06 -1.5185330e-05 -5.6770232e-06 
-2.3465075e-06 -2.7735008e-05 -1.2569822e-05 
2.3671762e-06 -2.9983710e-05 -1.5729573e-05 
1.3549337e-06 -2.2701208e-05 -1.0434259e-05 
1.7382256e-06 -8.3543719e-06 -4.0448954e-06 
1.7554593e-06 7.1574063e-06 2.4329445e-06 
-7.5499332e-07 1.6376289e-05 6.5332288e-06 
-6.1274693e-07 1.7064069e-05 5.3600097e-06 
-4.8087759e-07 1.0227389e-05 2.3283919e-06 
-2.4615761e-07 -3.3337292e-07 -1.2214815e-06 
1.7125572e-07 -8.9550149e-06 -3.1105967e-06 
0.0000000e+00 7.2207258e-05 0.0000000e+00 
0.0000000e+00 -1.0475801e-05 0.0000000e+00 
0.0000000e+00 -2.6099067e-04 0.0000000e+00 
0.0000000e+00 -7.0237176e-04 0.0000000e+00 
0.0000000e+00 -1.3682506e-03 0.0000000e+00 
0.0000000e+00 -2.2568477e-03 0.0000000e+00 
0.0000000e+00 -3.2749469e-03 0.0000000e+00 
0.0000000e+00 -4.0625241e-03 0.0000000e+00 
0.0000000e+00 -4.1010631e-03 0.0000000e+00 
0.0000000e+00 -3.9180061e-03 0.0000000e+00 
0.0000000e+00 -3.9349739e-03 0.0000000e+00 
0.0000000e+00 -4.1941311e-03 0.0000000e+00 
0.0000000e+00 -4.2422409e-03 0.0000000e+00 
0.0000000e+00 -3.5303971e-03 0.0000000e+00 
0.0000000e+00 -2.4992912e-03 0.0000000e+00 
0.0000000e+00 -1.5903896e-03 0.0000000e+00 
0.0000000e+00 -9.2299562e-04 0.0000000e+00 
0.0000000e+00 -5.0392328e-04 0.0000000e+00 
0.0000000e+00 -2.7069094e-04 0.0000000e+00 
0.0000000e+00 -1.4804000e-04 0.0000000e+00 
0.0000000e+00 -7.5402480e-05 0.0000000e+00 
0.0000000e+00 -1.5579451e-05 0.0000000e+00 
0.0000000e+00 4.3771324e-05 0.0000000e+00 
0.0000000e+00 9.9369288e-05 0.0000000e+00 
0.0000000e+00 1.3981617e-04 0.0000000e+00 
0.0000000e+00 1.5545798e-04 0.0000000e+00 
0.0000000e+00 1.4768925e-04 0.0000000e+00 
0.0000000e+00 1.2408035e-04 0.0000000e+00 
0.0000000e+00 9.4059724e-05 0.0000000e+00 
0.0000000e+00 6.5388376e-05 0.0000000e+00 
0.0000000e+00 3.9877799e-05 0.0000000e+00 
0.0000000e+00 1.6358825e-05 0.0000000e+00 
0.0000000e+00 -6.0058092e-06 0.0000000e+00 
0.0000000e+00 -2.7962853e-05 0.0000000e+00 
0.0000000e+00 -4.9889728e-05 0.0000000e+00 
0.0000000e+00 -7.1051487e-05 0.0000000e+00 
0.0000000e+00 -8.6801861e-05 0.0000000e+00 
0.0000000e+00 -9.2226990e-05 0.0000000e+00 
0.0000000e+00 -8.7284141e-05 0.0000000e+00 
0.0000000e+00 -8.1060221e-05 0.0000000e+00 
0.0000000e+00 -1.0297915e-04 0.0000000e+00 
0.0000000e+00 -1.9820248e-04 0.0000000e+00 
0.0000000e+00 -4.2350750e-04 0.0000000e+00 
0.0000000e+00 -8.4587687e-04 0.0000000e+00 
0.0000000e+00 -1.5144623e-03 0.0000000e+00 
0.0000000e+00 -2.4189241e-03 0.0000000e+00 
0.0000000e+00 -3.3854777e-03 0.0000000e+00 
0.0000000e+00 -3.9923461e-03 0.0000000e+00 
0.0000000e+00 -3.8977377e-03 0.0000000e+00 
0.0000000e+00 -3.7283960e-03 0.0000000e+00 
0.0000000e+00 -3.8169397e-03 0.0000000e+00 
0.0000000e+00 -4.1228705e-03 0.0000000e+00 
0.0000000e+00 -4.0978915e-03 0.0000000e+00 
0.0000000e+00 -3.3367218e-03 0.0000000e+00 
0.0000000e+00 -2.3532286e-03 0.0000000e+00 
0.0000000e+00 -1.5025473e-03 0.0000000e+00 
0.0000000e+00 -8.7164511e-04 0.0000000e+00 
0.0000000e+00 -4.6006747e-04 0.0000000e+00 
0.0000000e+00 -2.1495920e-04 0.0000000e+00 
0.0000000e+00 -7.6762633e-05 0.0000000e+00 
0.0000000e+00 4.1491600e-07 0.0000000e+00 
0.0000000e+00 4.5092769e-05 0.0000000e+00 
0.0000000e+00 7.3130337e-05 0.0000000e+00 
0.0000000e+00 9.0311652e-05 0.0000000e+00 
0.0000000e+00 9.5329466e-05 0.0000000e+00 
0.0000000e+00 8.5382839e-05 0.0000000e+00 
0.0000000e+00 6.3012711e-05 0.0000000e+00 
0.0000000e+00 3.4308192e-05 0.0000000e+00 
0.0000000e+00 6.2474019e-06 0.0000000e+00 
0.0000000e+00 -1.5194669e-05 0.0000000e+00 
0.0000000e+00 -2.7596141e-05 0.0000000e+00 
0.0000000e+00 -2.9882665e-05 0.0000000e+00 
0.0000000e+00 -2.2536948e-05 0.0000000e+00 
0.0000000e+00 -8.3216864e-06 0.0000000e+00 
0.0000000e+00 6.8219342e-06 0.0000000e+00 
0.0000000e+00 1.6201693e-05 0.0000000e+00 
0.0000000e+00 1.6983766e-05 0.0000000e+00 
0.0000000e+00 1.0220005e-05 0.0000000e+00 
0.0000000e+00 -1.6692259e-07 0.0000000e+00 
0.0000000e+00 -8.9441464e-06 0.0000000e+00 
0.0000000e+00 -1.2432763e-05 0.0000000e+00 
-1.2455204e-06 -4.0687964e-06 -7.7915547e-07 
6.8171056e-07 -2.4931032e-05 -1.1132347e-05 
0.0000000e+00 0.0000000e+00 0.0000000e+00 
0.0000000e+00 0.0000000e+00 0.0000000e+00 
0.0000000e+00 0.0000000e+00 0.0000000e+00 
0.0000000e+00 0.0000000e+00 0.0000000e+00 
0.0000000e+00 0.0000000e+00 0.0000000e+00 
0.0000000e+00 0.0000000e+00 0.0000000e+00 
0.0000000e+00 0.0000000e+00 0.0000000e+00 
0.0000000e+00 0.0000000e+00 0.0000000e+00 
0.0000000e+00 0.0000000e+00 0.0000000e+00 
0.0000000e+00 0.0000000e+00 0.0000000e+00 
0.0000000e+00 0.0000000e+00 0.0000000e+00 
0.0000000e+00 0.0000000e+00 0.0000000e+00 
0.0000000e+00 0.0000000e+00 0.0000000e+00 
0.0000000e+00 0.0000000e+00 0.0000000e+00 
0.0000000e+00 0.0000000e+00 0.0000000e+00 
0.0000000e+00 0.0000000e+00 0.0000000e+00 
0.0000000e+00 0.0000000e+00 0.0000000e+00 
0.0000000e+00 0.0000000e+00 0.0000000e+00 
0.0000000e+00 0.0000000e+00 0.0000000e+00 
0.0000000e+00 0.0000000e+00 0.0000000e+00 
0.0000000e+00 0.0000000e+00 0.0000000e+00 
0.0000000e+00 0.0000000e+00 0.0000000e+00 
0.0000000e+00 0.0000000e+00 0.0000000e+00 
0.0000000e+00 0.0000000e+00 0.0000000e+00 
0.0000000e+00 0.0000000e+00 0.0000000e+00 
0.0000000e+00 0.0000000e+00 0.0000000e+00 
0.0000000e+00 0.0000000e+00 0.0000000e+00 
0.0000000e+00 0.0000000e+00 0.0000000e+00 
0.0000000e+00 0.0000000e+00 0.0000000e+00 
0.0000000e+00 0.0000000e+00 0.0000000e+00 
0.0000000e+00 0.0000000e+00 0.0000000e+00 
0.0000000e+00 0.0000000e+00 0.0000000e+00 
0.0000000e+00 0.0000000e+00 0.0000000e+00 
0.0000000e+00 0.0000000e+00 0.0000000e+00 
0.0000000e+00 0.0000000e+00 0.0000000e+00 
0.0000000e+00 0.0000000e+00 0.0000000e+00 
0.0000000e+00 0.0000000e+00 0.0000000e+00 
0.0000000e+00 0.0000000e+00 0.0000000e+00 
0.0000000e+00 0.0000000e+00 0.0000000e+00 
0.0000000e+00 0.0000000e+00 0.0000000e+00 
0.0000000e+00 0.0000000e+00 0.0000000e+00 
0.0000000e+00 0.0000000e+00 0.0000000e+00 
2.9835224e-05 -7.3417118e-07 -2.3091603e-05 
5.8178121e-05 -4.8087950e-06 -1.3833627e-05 
3.9477953e-05 -8.0024320e-06 1.7869893e-07 
1.1019880e-05 -9.5759924e-06 1.0998219e-06 
4.1743751e-06 -8.3963250e-06 1.1505630e-05 
-7.4146158e-07 4.4064200e-06 8.6211758e-06 
7.8951571e-06 6.4514020e-06 -6.3219600e-06 
2.9359323e-06 -2.8032041e-06 -1.2554849e-05 
5.4914841e-07 -5.7527850e-06 -3.2760897e-06 
1.1117998e-05 -9.5493078e-06 -4.3483528e-06 
3.2950749e-05 -1.7386300e-06 -3.9943188e-06 
4.7437643e-05 -8.2034148e-07 2.7575294e-07 
3.6364032e-05 -6.8606237e-06 1.5735359e-06 
1.1647877e-05 -1.4279318e-05 2.7389162e-06 
6.7159622e-06 -9.5130167e-07 8.2255892e-06 
2.2381264e-06 3.4467519e-06 9.2354603e-06 
1.6245436e-07 -1.1300967e-06 1.6648526e-06 
-6.2679430e-07 -1.7237410e-06 -1.3273541e-06 
3.5927170e-07 1.0477150e-06 2.9598462e-07 
0.0000000e+00 -2.1420018e-04 0.0000000e+00 
0.0000000e+00 -4.8891088e-04 0.0000000e+00 
0.0000000e+00 -5.1087776e-04 0.0000000e+00 
0.0000000e+00 -1.8370290e-04 0.0000000e+00 
0.0000000e+00 -2.7852833e-05 0.0000000e+00 
0.0000000e+00 3.8597842e-05 0.0000000e+00 
0.0000000e+00 1.6142707e-05 0.0000000e+00 
0.0000000e+00 3.0426494e-05 0.0000000e+00 
0.0000000e+00 -2.4336985e-05 0.0000000e+00 
0.0000000e+00 -3.7270220e-05 0.0000000e+00 
0.0000000e+00 -1.9945310e-04 0.0000000e+00 
0.0000000e+00 -4.7103807e-04 0.0000000e+00 
0.0000000e+00 -5.2522094e-04 0.0000000e+00 
0.0000000e+00 -1.8889636e-04 0.0000000e+00 
0.0000000e+00 -3.1170648e-06 0.0000000e+00 
0.0000000e+00 3.0595922e-05 0.0000000e+00 
0.0000000e+00 -4.2985989e-06 0.0000000e+00 
0.0000000e+00 -3.0182914e-06 0.0000000e+00 
0.0000000e+00 1.5563121e-06 0.0000000e+00 
2.1071324e-05 -1.3235060e-05 -2.2215158e-05 
2.1565553e-05 -3.9653449e-05 -3.6604361e-05 
-2.0246974e-07 -8.2238620e-07 -2.4342989e-07 
-2.1950483e-07 -1.3624673e-06 -4.7631841e-07 
2.8894161e-05 5.3282301e-06 -3.2002557e-05 
5.2150037e-05 7.0303777e-06 -1.1928066e-05 
3.3399589e-05 -1.4723166e-06 3.0820709e-07 
4.7021585e-06 -6.2229719e-06 -1.4237791e-07 
4.6356132e-07 -1.3597158e-05 6.9542334e-06 
3.6194886e-06 7.4782242e-06 2.7038059e-06 
1.3481547e-05 1.1092727e-05 -1.9973679e-06 
-1.7905672e-06 -4.9641608e-06 -6.9955363e-06 
-7.4118607e-06 -8.1382386e-06 -6.2940148e-06 
1.6011094e-05 -1.1086189e-05 -9.4041898e-06 
3.4195917e-05 1.1178830e-06 -4.1790627e-06 
4.6241970e-05 2.4071342e-06 2.6398613e-06 
2.5876225e-05 -2.9309408e-06 1.0960176e-05 
-7.9404771e-07 -1.7496555e-05 -9.4719802e-08 
1.9006517e-06 -3.0337142e-06 1.8474262e-07 
4.2727434e-06 4.1044937e-06 1.0049740e-05 
2.2486265e-06 -3.2845168e-07 4.1420985e-06 
-7.7771847e-07 -1.9503095e-06 -4.2992437e-07 
6.8877547e-08 1.0203020e-06 -4.9675799e-07 
6.8359113e-06 -5.9729737e-05 -2.5468575e-05 
0.0000000e+00 -4.6506553e-04 0.0000000e+00 
0.0000000e+00 -1.1105607e-03 0.0000000e+00 
0.0000000e+00 -1.1498968e-03 0.0000000e+00 
0.0000000e+00 -3.4799954e-04 0.0000000e+00 
0.0000000e+00 -5.1907260e-05 0.0000000e+00 
0.0000000e+00 8.0714912e-05 0.0000000e+00 
0.0000000e+00 3.3883280e-05 0.0000000e+00 
0.0000000e+00 4.3383785e-05 0.0000000e+00 
0.0000000e+00 -5.2467258e-05 0.0000000e+00 
0.0000000e+00 -6.3669562e-05 0.0000000e+00 
0.0000000e+00 -4.4737142e-04 0.0000000e+00 
0.0000000e+00 -1.0568860e-03 0.0000000e+00 
0.0000000e+00 -1.1444618e-03 0.0000000e+00 
0.0000000e+00 -3.5180192e-04 0.0000000e+00 
0.0000000e+00 -1.0983897e-06 0.0000000e+00 
0.0000000e+00 5.8652502e-05 0.0000000e+00 
0.0000000e+00 -9.1783777e-06 0.0000000e+00 
0.0000000e+00 -9.4505212e-06 0.0000000e+00 
0.0000000e+00 6.8597519e-06 0.0000000e+00 
-3.2193464e-07 -2.6248431e-06 -4.7238217e-07 
-3.2764632e-04 -4.3463422e-04 2.8156495e-04 
-6.2962918e-04 -1.3448196e-03 1.1405310e-04 
-6.0560717e-04 -1.3876943e-03 -1.0932083e-04 
-1.7523288e-04 -2.9708052e-04 -2.1880816e-04 
2.6099872e-06 -7.1834009e-05 -1.4369457e-04 
2.0459935e-05 8.9513000e-05 2.1385079e-06 
3.7310861e-06 7.3575604e-05 -7.8785642e-06 
5.6456902e-06 -2.6871461e-05 9.9769513e-06 
8.7018489e-06 -1.0015850e-04 6.1192412e-05 
-1.5998874e-06 -3.9621533e-05 3.5251098e-05 
-2.7639599e-04 -4.3883960e-04 2.1160107e-04 
-6.5309362e-04 -1.1479518e-03 1.5553730e-04 
-6.0591340e-04 -1.3328240e-03 -4.9704719e-05 
-1.6567453e-04 -3.2615758e-04 -2.7354827e-04 
1.4605134e-05 -9.5366777e-06 -1.3049587e-04 
1.7537084e-05 5.5160905e-05 4.5131783e-05 
-9.1728216e-06 8.4643434e-06 2.1945019e-05 
1.3951424e-09 -2.0364667e-05 -1.3859217e-05 
1.5271311e-06 1.4215582e-05 7.0897167e-06 
0.0000000e+00 -8.1387133e-04 0.0000000e+00 
0.0000000e+00 -2.2395200e-03 0.0000000e+00 
0.0000000e+00 -2.1838129e-03 0.0000000e+00 
0.0000000e+00 -5.8769848e-04 0.0000000e+00 
0.0000000e+00 -6.5747699e-05 0.0000000e+00 
0.0000000e+00 1.3241252e-04 0.0000000e+00 
0.0000000e+00 6.7026929e-05 0.0000000e+00 
0.0000000e+00 4.1162293e-05 0.0000000e+00 
0.0000000e+00 -1.0012837e-04 0.0000000e+00 
0.0000000e+00 -6.9657792e-05 0.0000000e+00 
0.0000000e+00 -8.7638816e-04 0.0000000e+00 
0.0000000e+00 -2.1311818e-03 0.0000000e+00 
0.0000000e+00 -2.1390223e-03 0.0000000e+00 
0.0000000e+00 -5.7412469e-04 0.0000000e+00 
0.0000000e+00 1.4214860e-05 0.0000000e+00 
0.0000000e+00 8.9583038e-05 0.0000000e+00 
0.0000000e+00 -7.6207220e-07 0.0000000e+00 
0.0000000e+00 -2.0464966e-05 0.0000000e+00 
0.0000000e+00 1.3727710e-05 0.0000000e+00 
3.1093710e-05 -1.8335722e-05 -9.0346675e-06 
7.1148723e-05 -1.1587399e-04 1.5516236e-05 
6.8316353e-05 -9.1366412e-05 1.1400040e-05 
2.5447944e-05 -5.7375950e-05 -1.0241697e-05 
-1.3523841e-05 -1.1607012e-05 -1.5094209e-05 
1.1816918e-05 2.1200911e-05 -4.2596766e-06 
8.9914183e-06 1.6792746e-05 -7.5385574e-06 
-4.6618425e-06 -2.0726855e-05 5.4579368e-07 
-7.7766736e-06 -3.8354538e-05 1.1583723e-05 
1.4959747e-05 -3.7799459e-06 6.5106665e-06 
5.9195212e-05 -3.1138057e-05 -1.2831600e-06 
7.6136792e-05 -4.0173163e-05 5.8241894e-06 
4.1170191e-05 -7.1296257e-05 1.7001783e-05 
2.1385775e-05 -6.6339773e-05 -1.6284132e-05 
-1.1035214e-05 -6.4850274e-06 -1.5761620e-05 
5.2828168e-06 1.3390568e-05 7.6840215e-06 
9.5591486e-07 2.9289804e-06 9.7171769e-06 
9.3418555e-07 2.9702203e-06 -9.1982338e-07 
2.1367398e-06 -1.5110310e-05 -7.7841978e-06 
0.0000000e+00 0.0000000e+00 0.0000000e+00 
0.0000000e+00 0.0000000e+00 0.0000000e+00 
0.0000000e+00 0.0000000e+00 0.0000000e+00 
0.0000000e+00 0.0000000e+00 0.0000000e+00 
0.0000000e+00 0.0000000e+00 0.0000000e+00 
0.0000000e+00 0.0000000e+00 0.0000000e+00 
0.0000000e+00 0.0000000e+00 0.0000000e+00 
0.0000000e+00 0.0000000e+00 0.0000000e+00 
0.0000000e+00 0.0000000e+00 0.0000000e+00 
0.0000000e+00 0.0000000e+00 0.0000000e+00 
0.0000000e+00 0.0000000e+00 0.0000000e+00 
0.0000000e+00 0.0000000e+00 0.0000000e+00 
0.0000000e+00 0.0000000e+00 0.0000000e+00 
0.0000000e+00 0.0000000e+00 0.0000000e+00 
0.0000000e+00 0.0000000e+00 0.0000000e+00 
0.0000000e+00 0.0000000e+00 0.0000000e+00 
0.0000000e+00 0.0000000e+00 0.0000000e+00 
0.0000000e+00 0.0000000e+00 0.0000000e+00 
0.0000000e+00 0.0000000e+00 0.0000000e+00 
0.0000000e+00 0.0000000e+00 0.0000000e+00 
0.0000000e+00 0.0000000e+00 0.0000000e+00 
0.0000000e+00 0.0000000e+00 0.0000000e+00 
0.0000000e+00 0.0000000e+00 0.0000000e+00 
0.0000000e+00 0.0000000e+00 0.0000000e+00 
0.0000000e+00 0.0000000e+00 0.0000000e+00 
0.0000000e+00 0.0000000e+00 0.0000000e+00 
0.0000000e+00 0.0000000e+00 0.0000000e+00 
0.0000000e+00 0.0000000e+00 0.0000000e+00 
0.0000000e+00 0.0000000e+00 0.0000000e+00 
0.0000000e+00 0.0000000e+00 0.0000000e+00 
0.0000000e+00 0.0000000e+00 0.0000000e+00 
0.0000000e+00 0.0000000e+00 0.0000000e+00 
0.0000000e+00 0.0000000e+00 0.0000000e+00 
0.0000000e+00 0.0000000e+00 0.0000000e+00 
0.0000000e+00 0.0000000e+00 0.0000000e+00 
0.0000000e+00 0.0000000e+00 0.0000000e+00 
0.0000000e+00 0.0000000e+00 0.0000000e+00 
0.0000000e+00 0.0000000e+00 0.0000000e+00 
0.0000000e+00 0.0000000e+00 0.0000000e+00 
0.0000000e+00 0.0000000e+00 0.0000000e+00 
0.0000000e+00 0.0000000e+00 0.0000000e+00 
0.0000000e+00 0.0000000e+00 0.0000000e+00 
1.2264934e-05 -8.0249029e-06 -1.1652387e-05 
1.2395897e-06 1.2297820e-06 1.0452541e-06 
3.3080648e-06 -5.1243933e-06 -6.4421596e-07 
2.2806884e-05 -4.7487147e-06 -1.5958885e-07 
1.8948122e-05 -1.0501683e-05 5.6695831e-07 
1.5583231e-05 -1.0360508e-05 -5.0831795e-07 
5.1469751e-06 -4.4926214e-06 4.0023388e-06 
2.6136950e-06 9.9092006e-07 4.4059379e-06 
5.8123004e-07 -4.0762080e-07 2.8620211e-06 
2.0714020e-07 -1.0750387e-06 -3.9124811e-07 
-1.5963943e-07 -6.5146992e-08 -8.8810857e-08 
-1.1275392e-07 1.9418584e-07 -1.0253707e-07 
2.5423635e-05 -8.3176164e-06 -1.3800745e-05 
3.3141841e-05 -1.0033684e-05 -7.2114399e-06 
1.5556396e-05 -8.7936141e-06 -5.6810887e-07 
3.9503971e-06 -5.4301331e-06 3.8498524e-06 
3.9185062e-07 -9.7373163e-07 6.0699385e-06 
2.9614778e-06 2.0476176e-07 -7.0138731e-06 
2.6137868e-06 3.8163935e-07 -5.0810099e-06 
9.5238411e-06 -6.7438132e-06 -2.9200860e-06 
3.6544126e-05 -3.0566491e-05 -1.5834190e-05 
1.3999677e-07 1.7229926e-06 -2.8283475e-07 
8.3882856e-05 -4.3064621e-05 7.7678005e-06 
1.3502032e-05 -8.1066519e-06 7.1922332e-06 
5.3540466e-06 1.2829852e-05 -2.7689553e-06 
-1.0389236e-05 -1.9048613e-05 -2.7560397e-06 
3.2776614e-05 6.7661249e-06 -3.9848587e-06 
9.4131508e-05 3.4264224e-06 -9.3477792e-07 
1.1700435e-05 -1.0875643e-05 6.7399519e-06 
6.3499454e-07 5.5011519e-06 5.5070664e-06 
7.7796591e-05 -1.9263597e-04 4.4466993e-05 
1.1577300e-06 8.9949566e-07 9.1613329e-06 
-3.3487547e-06 6.2871009e-06 -1.2817557e-05 
1.4893047e-05 -3.0945805e-05 2.8380564e-06 
1.1329322e-04 -1.8933979e-04 -2.5987905e-05 
8.6576365e-05 -2.0298533e-04 2.7303440e-05 
2.3828559e-06 9.1430238e-06 1.0403483e-05 
2.0439577e-06 -8.4084804e-06 -4.0252398e-06 
-6.4580632e-07 1.3580392e-06 1.8831527e-06 
8.4624684e-05 -5.8366177e-06 -6.8332183e-06 
-2.1495880e-07 -3.3779759e-07 5.4705168e-07 
8.6449021e-05 -2.6787395e-04 -5.0046005e-05 
3.3507225e-05 -1.6662632e-05 1.4611078e-06 
8.5915715e-08 1.3958244e-07 4.9883733e-06 
3.0113047e-06 -7.5320401e-07 -1.0918381e-05 
6.8113718e-06 -1.0473243e-05 2.9878086e-06 
5.0845756e-05 2.1231622e-07 -1.3242861e-06 