# vtk DataFile Version 4.0
vtk output
ASCII
DATASET UNSTRUCTURED_GRID
POINTS 621 float
0.0000000e+00 0.0000000e+00 0.0000000e+00 
0.0000000e+00 0.0000000e+00 4.0000000e+01 
5.0000000e+00 0.0000000e+00 0.0000000e+00 
5.0000000e+00 0.0000000e+00 4.0000000e+01 
5.0000000e+00 1.0000000e+00 0.0000000e+00 
5.0000000e+00 1.0000000e+00 4.0000000e+01 
0.0000000e+00 1.0000000e+00 0.0000000e+00 
0.0000000e+00 1.0000000e+00 4.0000000e+01 
5.0000000e+00 2.0000000e+00 0.0000000e+00 
5.0000000e+00 2.0000000e+00 4.0000000e+01 
3.0000000e+00 2.0000000e+00 0.0000000e+00 
3.0000000e+00 2.0000000e+00 4.0000000e+01 
0.0000000e+00 2.0000000e+00 0.0000000e+00 
0.0000000e+00 2.0000000e+00 4.0000000e+01 
1.5000000e+00 3.0000000e+00 0.0000000e+00 
1.5000000e+00 3.0000000e+00 4.0000000e+01 
7.5000000e-01 3.0000000e+00 0.0000000e+00 
7.5000000e-01 3.0000000e+00 4.0000000e+01 
0.0000000e+00 3.0000000e+00 0.0000000e+00 
0.0000000e+00 3.0000000e+00 4.0000000e+01 
7.5000000e-01 3.0000000e+00 5.0000000e-01 
7.5000000e-01 3.0000000e+00 1.0000000e+00 
7.5000000e-01 3.0000000e+00 1.5000000e+00 
7.5000000e-01 3.0000000e+00 2.0000000e+00 
7.5000000e-01 3.0000000e+00 2.5000000e+00 
7.5000000e-01 3.0000000e+00 3.0000000e+00 
7.5000000e-01 3.0000000e+00 3.5000000e+00 
7.5000000e-01 3.0000000e+00 4.0000000e+00 
7.5000000e-01 3.0000000e+00 4.5000000e+00 
7.5000000e-01 3.0000000e+00 5.0000000e+00 
7.5000000e-01 3.0000000e+00 5.5000000e+00 
7.5000000e-01 3.0000000e+00 6.0000000e+00 
7.5000000e-01 3.0000000e+00 6.5000000e+00 
7.5000000e-01 3.0000000e+00 7.0000000e+00 
7.5000000e-01 3.0000000e+00 7.5000000e+00 
7.5000000e-01 3.0000000e+00 8.0000000e+00 
7.5000000e-01 3.0000000e+00 8.5000000e+00 
7.5000000e-01 3.0000000e+00 9.0000000e+00 
7.5000000e-01 3.0000000e+00 9.5000000e+00 
7.5000000e-01 3.0000000e+00 1.0000000e+01 
7.5000000e-01 3.0000000e+00 1.0500000e+01 
7.5000000e-01 3.0000000e+00 1.1000000e+01 
7.5000000e-01 3.0000000e+00 1.1500000e+01 
7.5000000e-01 3.0000000e+00 1.2000000e+01 
7.5000000e-01 3.0000000e+00 1.2500000e+01 
7.5000000e-01 3.0000000e+00 1.3000000e+01 
7.5000000e-01 3.0000000e+00 1.3500000e+01 
7.5000000e-01 3.0000000e+00 1.4000000e+01 
7.5000000e-01 3.0000000e+00 1.4500000e+01 
7.5000000e-01 3.0000000e+00 1.5000000e+01 
7.5000000e-01 3.0000000e+00 1.5500000e+01 
7.5000000e-01 3.0000000e+00 1.6000000e+01 
7.5000000e-01 3.0000000e+00 1.6500000e+01 
7.5000000e-01 3.0000000e+00 1.7000000e+01 
7.5000000e-01 3.0000000e+00 1.7500000e+01 
7.5000000e-01 3.0000000e+00 1.8000000e+01 
7.5000000e-01 3.0000000e+00 1.8500000e+01 
7.5000000e-01 3.0000000e+00 1.9000000e+01 
7.5000000e-01 3.0000000e+00 1.9500000e+01 
7.5000000e-01 3.0000000e+00 2.0000000e+01 
7.5000000e-01 3.0000000e+00 2.0500000e+01 
7.5000000e-01 3.0000000e+00 2.1000000e+01 
7.5000000e-01 3.0000000e+00 2.1500000e+01 
7.5000000e-01 3.0000000e+00 2.2000000e+01 
7.5000000e-01 3.0000000e+00 2.2500000e+01 
7.5000000e-01 3.0000000e+00 2.3000000e+01 
7.5000000e-01 3.0000000e+00 2.3500000e+01 
7.5000000e-01 3.0000000e+00 2.4000000e+01 
7.5000000e-01 3.0000000e+00 2.4500000e+01 
7.5000000e-01 3.0000000e+00 2.5000000e+01 
7.5000000e-01 3.0000000e+00 2.5500000e+01 
7.5000000e-01 3.0000000e+00 2.6000000e+01 
7.5000000e-01 3.0000000e+00 2.6500000e+01 
7.5000000e-01 3.0000000e+00 2.7000000e+01 
7.5000000e-01 3.0000000e+00 2.7500000e+01 
7.5000000e-01 3.0000000e+00 2.8000000e+01 
7.5000000e-01 3.0000000e+00 2.8500000e+01 
7.5000000e-01 3.0000000e+00 2.9000000e+01 
7.5000000e-01 3.0000000e+00 2.9500000e+01 
7.5000000e-01 3.0000000e+00 3.0000000e+01 
7.5000000e-01 3.0000000e+00 3.0500000e+01 
7.5000000e-01 3.0000000e+00 3.1000000e+01 
7.5000000e-01 3.0000000e+00 3.1500000e+01 
7.5000000e-01 3.0000000e+00 3.2000000e+01 
7.5000000e-01 3.0000000e+00 3.2500000e+01 
7.5000000e-01 3.0000000e+00 3.3000000e+01 
7.5000000e-01 3.0000000e+00 3.3500000e+01 
7.5000000e-01 3.0000000e+00 3.4000000e+01 
7.5000000e-01 3.0000000e+00 3.4500000e+01 
7.5000000e-01 3.0000000e+00 3.5000000e+01 
7.5000000e-01 3.0000000e+00 3.5500000e+01 
7.5000000e-01 3.0000000e+00 3.6000000e+01 
7.5000000e-01 3.0000000e+00 3.6500000e+01 
7.5000000e-01 3.0000000e+00 3.7000000e+01 
7.5000000e-01 3.0000000e+00 3.7500000e+01 
7.5000000e-01 3.0000000e+00 3.8000000e+01 
7.5000000e-01 3.0000000e+00 3.8500000e+01 
7.5000000e-01 3.0000000e+00 3.9000000e+01 
7.5000000e-01 3.0000000e+00 3.9500000e+01 
7.5000000e-01 3.0250001e+00 0.0000000e+00 
7.5000000e-01 3.0250001e+00 5.0000000e-01 
7.5000000e-01 3.0250001e+00 1.0000000e+00 
7.5000000e-01 3.0250001e+00 1.5000000e+00 
7.5000000e-01 3.0250001e+00 2.0000000e+00 
7.5000000e-01 3.0250001e+00 2.5000000e+00 
7.5000000e-01 3.0250001e+00 3.0000000e+00 
7.5000000e-01 3.0250001e+00 3.5000000e+00 
7.5000000e-01 3.0250001e+00 4.0000000e+00 
7.5000000e-01 3.0250001e+00 4.5000000e+00 
7.5000000e-01 3.0250001e+00 5.0000000e+00 
7.5000000e-01 3.0250001e+00 5.5000000e+00 
7.5000000e-01 3.0250001e+00 6.0000000e+00 
7.5000000e-01 3.0250001e+00 6.5000000e+00 
7.5000000e-01 3.0250001e+00 7.0000000e+00 
7.5000000e-01 3.0250001e+00 7.5000000e+00 
7.5000000e-01 3.0250001e+00 8.0000000e+00 
7.5000000e-01 3.0250001e+00 8.5000000e+00 
7.5000000e-01 3.0250001e+00 9.0000000e+00 
7.5000000e-01 3.0250001e+00 9.5000000e+00 
7.5000000e-01 3.0250001e+00 1.0000000e+01 
7.5000000e-01 3.0250001e+00 1.0500000e+01 
7.5000000e-01 3.0250001e+00 1.1000000e+01 
7.5000000e-01 3.0250001e+00 1.1500000e+01 
7.5000000e-01 3.0250001e+00 1.2000000e+01 
7.5000000e-01 3.0250001e+00 1.2500000e+01 
7.5000000e-01 3.0250001e+00 1.3000000e+01 
7.5000000e-01 3.0250001e+00 1.3500000e+01 
7.5000000e-01 3.0250001e+00 1.4000000e+01 
7.5000000e-01 3.0250001e+00 1.4500000e+01 
7.5000000e-01 3.0250001e+00 1.5000000e+01 
7.5000000e-01 3.0250001e+00 1.5500000e+01 
7.5000000e-01 3.0250001e+00 1.6000000e+01 
7.5000000e-01 3.0250001e+00 1.6500000e+01 
7.5000000e-01 3.0250001e+00 1.7000000e+01 
7.5000000e-01 3.0250001e+00 1.7500000e+01 
7.5000000e-01 3.0250001e+00 1.8000000e+01 
7.5000000e-01 3.0250001e+00 1.8500000e+01 
7.5000000e-01 3.0250001e+00 1.9000000e+01 
7.5000000e-01 3.0250001e+00 1.9500000e+01 
7.5000000e-01 3.0250001e+00 2.0000000e+01 
7.5000000e-01 3.0250001e+00 2.0500000e+01 
7.5000000e-01 3.0250001e+00 2.1000000e+01 
7.5000000e-01 3.0250001e+00 2.1500000e+01 
7.5000000e-01 3.0250001e+00 2.2000000e+01 
7.5000000e-01 3.0250001e+00 2.2500000e+01 
7.5000000e-01 3.0250001e+00 2.3000000e+01 
7.5000000e-01 3.0250001e+00 2.3500000e+01 
7.5000000e-01 3.0250001e+00 2.4000000e+01 
7.5000000e-01 3.0250001e+00 2.4500000e+01 
7.5000000e-01 3.0250001e+00 2.5000000e+01 
7.5000000e-01 3.0250001e+00 2.5500000e+01 
7.5000000e-01 3.0250001e+00 2.6000000e+01 
7.5000000e-01 3.0250001e+00 2.6500000e+01 
7.5000000e-01 3.0250001e+00 2.7000000e+01 
7.5000000e-01 3.0250001e+00 2.7500000e+01 
7.5000000e-01 3.0250001e+00 2.8000000e+01 
7.5000000e-01 3.0250001e+00 2.8500000e+01 
7.5000000e-01 3.0250001e+00 2.9000000e+01 
7.5000000e-01 3.0250001e+00 2.9500000e+01 
7.5000000e-01 3.0250001e+00 3.0000000e+01 
7.5000000e-01 3.0250001e+00 3.0500000e+01 
7.5000000e-01 3.0250001e+00 3.1000000e+01 
7.5000000e-01 3.0250001e+00 3.1500000e+01 
7.5000000e-01 3.0250001e+00 3.2000000e+01 
7.5000000e-01 3.0250001e+00 3.2500000e+01 
7.5000000e-01 3.0250001e+00 3.3000000e+01 
7.5000000e-01 3.0250001e+00 3.3500000e+01 
7.5000000e-01 3.0250001e+00 3.4000000e+01 
7.5000000e-01 3.0250001e+00 3.4500000e+01 
7.5000000e-01 3.0250001e+00 3.5000000e+01 
7.5000000e-01 3.0250001e+00 3.5500000e+01 
7.5000000e-01 3.0250001e+00 3.6000000e+01 
7.5000000e-01 3.0250001e+00 3.6500000e+01 
7.5000000e-01 3.0250001e+00 3.7000000e+01 
7.5000000e-01 3.0250001e+00 3.7500000e+01 
7.5000000e-01 3.0250001e+00 3.8000000e+01 
7.5000000e-01 3.0250001e+00 3.8500000e+01 
7.5000000e-01 3.0250001e+00 3.9000000e+01 
7.5000000e-01 3.0250001e+00 3.9500000e+01 
7.5000000e-01 3.0250001e+00 4.0000000e+01 
3.0000000e+00 2.0000000e+00 3.6000000e+01 
8.0487806e-01 3.0000000e+00 3.6000000e+01 
0.0000000e+00 0.0000000e+00 2.0000000e+00 
0.0000000e+00 0.0000000e+00 4.0000000e+00 
0.0000000e+00 0.0000000e+00 6.0000000e+00 
0.0000000e+00 0.0000000e+00 8.0000000e+00 
0.0000000e+00 0.0000000e+00 1.0000000e+01 
0.0000000e+00 0.0000000e+00 1.2000000e+01 
0.0000000e+00 0.0000000e+00 1.4000000e+01 
0.0000000e+00 0.0000000e+00 1.6000000e+01 
0.0000000e+00 0.0000000e+00 1.8000000e+01 
0.0000000e+00 0.0000000e+00 2.0000000e+01 
0.0000000e+00 0.0000000e+00 2.2000000e+01 
0.0000000e+00 0.0000000e+00 2.4000000e+01 
0.0000000e+00 0.0000000e+00 2.6000000e+01 
0.0000000e+00 0.0000000e+00 2.8000000e+01 
0.0000000e+00 0.0000000e+00 3.0000000e+01 
0.0000000e+00 0.0000000e+00 3.2000000e+01 
0.0000000e+00 0.0000000e+00 3.4000000e+01 
0.0000000e+00 0.0000000e+00 3.6000000e+01 
0.0000000e+00 0.0000000e+00 3.8000000e+01 
5.0000000e+00 0.0000000e+00 2.0000000e+00 
5.0000000e+00 0.0000000e+00 4.0000000e+00 
5.0000000e+00 0.0000000e+00 6.0000000e+00 
5.0000000e+00 0.0000000e+00 8.0000000e+00 
5.0000000e+00 0.0000000e+00 1.0000000e+01 
5.0000000e+00 0.0000000e+00 1.2000000e+01 
5.0000000e+00 0.0000000e+00 1.4000000e+01 
5.0000000e+00 0.0000000e+00 1.6000000e+01 
5.0000000e+00 0.0000000e+00 1.8000000e+01 
5.0000000e+00 0.0000000e+00 2.0000000e+01 
5.0000000e+00 0.0000000e+00 2.2000000e+01 
5.0000000e+00 0.0000000e+00 2.4000000e+01 
5.0000000e+00 0.0000000e+00 2.6000000e+01 
5.0000000e+00 0.0000000e+00 2.8000000e+01 
5.0000000e+00 0.0000000e+00 3.0000000e+01 
5.0000000e+00 0.0000000e+00 3.2000000e+01 
5.0000000e+00 0.0000000e+00 3.4000000e+01 
5.0000000e+00 0.0000000e+00 3.6000000e+01 
5.0000000e+00 0.0000000e+00 3.8000000e+01 
1.6666666e+00 0.0000000e+00 0.0000000e+00 
3.3333333e+00 0.0000000e+00 0.0000000e+00 
1.6666666e+00 0.0000000e+00 4.0000000e+01 
3.3333333e+00 0.0000000e+00 4.0000000e+01 
5.0000000e+00 1.0000000e+00 2.0000000e+00 
5.0000000e+00 1.0000000e+00 4.0000000e+00 
5.0000000e+00 1.0000000e+00 6.0000000e+00 
5.0000000e+00 1.0000000e+00 8.0000000e+00 
5.0000000e+00 1.0000000e+00 1.0000000e+01 
5.0000000e+00 1.0000000e+00 1.2000000e+01 
[...]
POINT_DATA 621
FIELD FieldData 3
DISPLACEMENT 3 621  float
0.0000000e+00 0.0000000e+00 0.0000000e+00 
0.0000000e+00 0.0000000e+00 0.0000000e+00 
0.0000000e+00 0.0000000e+00 0.0000000e+00 
0.0000000e+00 0.0000000e+00 0.0000000e+00 
2.0137566e-05 -2.4102395e-05 -3.1878491e-05 
-1.6637884e-07 -7.1005962e-07 -2.1874415e-08 
0.0000000e+00 -9.3718118e-05 0.0000000e+00 
0.0000000e+00 -1.4204298e-06 0.0000000e+00 
2.5227659e-05 -3.2071544e-05 -5.6426165e-05 
-3.5166107e-07 -8.8607834e-07 9.0693396e-07 
6.0862703e-06 -2.8777891e-05 -3.9303159e-05 
-5.6373784e-07 -1.9329038e-06 3.3200521e-07 
0.0000000e+00 -1.1707453e-04 0.0000000e+00 
0.0000000e+00 -4.0391656e-06 0.0000000e+00 
3.4792462e-05 2.2083864e-06 7.5644370e-05 
-6.8239558e-07 -9.1906977e-06 -2.3593768e-06 
1.8557990e-05 3.5577232e-05 2.2665037e-04 
5.1603803e-07 -1.2485645e-05 1.1212965e-07 
0.0000000e+00 -5.2159998e-05 0.0000000e+00 
0.0000000e+00 -6.2221147e-06 0.0000000e+00 
-4.2390198e-05 -4.5523117e-05 1.8713348e-04 
-6.7165340e-05 -2.8784655e-04 1.2512290e-04 
-8.9851899e-05 -7.1797415e-04 2.1334611e-04 
-1.0715453e-04 -1.3750872e-03 2.3867072e-04 
-1.8693577e-04 -2.2496667e-03 1.2618124e-04 
-2.2004235e-04 -3.2445923e-03 1.3497590e-04 
-1.1840482e-04 -4.0388759e-03 9.9932840e-05 
-8.5280677e-05 -4.0690023e-03 1.1846507e-04 
-2.2955827e-04 -3.9015012e-03 5.2819305e-05 
-3.0288388e-04 -3.9006551e-03 4.1445128e-05 
-2.0741766e-04 -4.1690390e-03 1.0219213e-05 
-6.4407286e-05 -4.2016567e-03 -4.9286940e-05 
-9.9727098e-05 -3.5075305e-03 -1.5901357e-04 
-2.0202906e-04 -2.4776845e-03 -1.9668834e-04 
-1.9410661e-04 -1.5870398e-03 -1.8799827e-04 
-7.2705254e-05 -9.1877655e-04 -1.1748391e-04 
-4.6274163e-05 -5.0481927e-04 -1.5470046e-04 
-4.0509462e-05 -2.7236503e-04 -1.3846555e-04 
-3.1246836e-05 -1.4957783e-04 -1.3515123e-04 
-3.5894498e-06 -7.6553566e-05 -1.2209649e-04 
1.8331191e-05 -1.5756188e-05 -8.8679859e-05 
3.1871237e-05 4.3835640e-05 -4.9595146e-05 
2.1661970e-05 9.9552402e-05 -1.5770889e-05 
4.7811291e-06 1.4028701e-04 1.5782647e-05 
8.5439808e-07 1.5508528e-04 1.7426091e-05 
-3.4419172e-06 1.4713488e-04 1.3559079e-05 
-3.4424490e-06 1.2375477e-04 -9.5466748e-07 
2.5605846e-06 9.3830240e-05 -2.5894375e-05 
4.4513149e-07 6.5792730e-05 -4.0721763e-05 
5.7924317e-06 4.0549105e-05 -4.2633856e-05 
6.7719125e-06 1.6889284e-05 -3.2538257e-05 
6.1205478e-06 -5.6164558e-06 -1.4607727e-05 
5.0267199e-06 -2.7946717e-05 1.3359821e-05 
9.0186468e-06 -4.9865510e-05 3.1925978e-05 
7.6281922e-06 -7.1561364e-05 4.6794310e-05 
-7.1076661e-06 -8.7803412e-05 6.0837207e-05 
-2.5007135e-05 -9.3178191e-05 4.9810409e-05 
-2.8968570e-05 -8.9049179e-05 3.8866994e-05 
-2.0332234e-05 -8.2129118e-05 2.8918754e-05 
-2.2844774e-06 -1.0346010e-04 1.3449533e-05 
-3.6722195e-05 -1.9883960e-04 3.1010983e-05 
-5.7901456e-05 -4.2144489e-04 5.5960089e-05 
-7.8503261e-05 -8.4284099e-04 9.2119248e-05 
-1.1865657e-04 -1.5022936e-03 4.2675485e-05 
-2.2827204e-04 -2.4080819e-03 1.5907262e-04 
-2.1803181e-04 -3.3478145e-03 1.6347253e-04 
-1.2638532e-04 -3.9650719e-03 1.3656483e-04 
-1.0878693e-04 -3.8632203e-03 1.8373353e-04 
-2.6060879e-04 -3.7094832e-03 1.1313483e-04 
-3.2161310e-04 -3.7791557e-03 9.4632800e-05 
-2.1272377e-04 -4.0950272e-03 4.3934280e-05 
-7.8258905e-05 -4.0582367e-03 -1.2852312e-05 
-1.0605255e-04 -3.3164606e-03 -1.4594581e-04 
-2.0152472e-04 -2.3355854e-03 -1.9883749e-04 
-1.8854206e-04 -1.5007729e-03 -2.1300215e-04 
-8.2700215e-05 -8.6930022e-04 -1.5683145e-04 
-4.7011730e-05 -4.6207910e-04 -1.8021534e-04 
-2.7506272e-05 -2.1748405e-04 -1.4395757e-04 
-1.8001705e-05 -7.9110301e-05 -1.2138408e-04 
9.4842680e-06 -9.3581161e-07 -9.4995507e-05 
2.4524430e-05 4.4453795e-05 -6.1851446e-05 
3.5953788e-05 7.3183044e-05 -2.4382023e-05 
2.3414159e-05 9.0788926e-05 8.5175616e-06 
6.5034105e-06 9.6265867e-05 3.3165805e-05 
-1.3616229e-06 8.5837914e-05 3.8736252e-05 
-8.0343698e-06 6.3072621e-05 3.2963995e-05 
-8.5126785e-06 3.4187840e-05 2.0102931e-05 
-5.2213068e-06 5.8214086e-06 3.4713319e-06 
-4.2197394e-06 -1.5356489e-05 -5.7473562e-06 
-2.3342764e-06 -2.7830376e-05 -1.2603175e-05 
2.3783489e-06 -3.0004276e-05 -1.5730760e-05 
1.3515945e-06 -2.2673434e-05 -1.0399571e-05 
1.7415283e-06 -8.3108334e-06 -4.0135174e-06 
1.7509972e-06 7.1958652e-06 2.4470423e-06 
-7.5988174e-07 1.6397176e-05 6.5334907e-06 
-6.1489078e-07 1.7066728e-05 5.3556869e-06 
-4.8058558e-07 1.0217340e-05 2.3231557e-06 
-2.4554191e-07 -3.4623949e-07 -1.2247144e-06 
1.7232395e-07 -8.9622999e-06 -3.1101747e-06 
0.0000000e+00 3.5597470e-05 0.0000000e+00 
0.0000000e+00 -4.3947537e-05 0.0000000e+00 
0.0000000e+00 -2.8716505e-04 0.0000000e+00 
0.0000000e+00 -7.2028278e-04 0.0000000e+00 
0.0000000e+00 -1.3789013e-03 0.0000000e+00 
0.0000000e+00 -2.2622629e-03 0.0000000e+00 
0.0000000e+00 -3.2773563e-03 0.0000000e+00 
0.0000000e+00 -4.0632971e-03 0.0000000e+00 
0.0000000e+00 -4.1002198e-03 0.0000000e+00 
0.0000000e+00 -3.9155879e-03 0.0000000e+00 
0.0000000e+00 -3.9311512e-03 0.0000000e+00 
0.0000000e+00 -4.1891676e-03 0.0000000e+00 
0.0000000e+00 -4.2369030e-03 0.0000000e+00 
0.0000000e+00 -3.5260669e-03 0.0000000e+00 
0.0000000e+00 -2.4966858e-03 0.0000000e+00 
0.0000000e+00 -1.5894595e-03 0.0000000e+00 
0.0000000e+00 -9.2328247e-04 0.0000000e+00 
0.0000000e+00 -5.0475332e-04 0.0000000e+00 
0.0000000e+00 -2.7146575e-04 0.0000000e+00 
0.0000000e+00 -1.4838789e-04 0.0000000e+00 
0.0000000e+00 -7.5241711e-05 0.0000000e+00 
0.0000000e+00 -1.5101662e-05 0.0000000e+00 
0.0000000e+00 4.4245069e-05 0.0000000e+00 
0.0000000e+00 9.9526791e-05 0.0000000e+00 
0.0000000e+00 1.3954581e-04 0.0000000e+00 
0.0000000e+00 1.5490035e-04 0.0000000e+00 
0.0000000e+00 1.4713719e-04 0.0000000e+00 
0.0000000e+00 1.2384719e-04 0.0000000e+00 
0.0000000e+00 9.4274234e-05 0.0000000e+00 
0.0000000e+00 6.5952765e-05 0.0000000e+00 
0.0000000e+00 4.0557210e-05 0.0000000e+00 
0.0000000e+00 1.6892642e-05 0.0000000e+00 
0.0000000e+00 -5.7656548e-06 0.0000000e+00 
0.0000000e+00 -2.8033053e-05 0.0000000e+00 
0.0000000e+00 -5.0211773e-05 0.0000000e+00 
0.0000000e+00 -7.1547744e-05 0.0000000e+00 
0.0000000e+00 -8.7400600e-05 0.0000000e+00 
0.0000000e+00 -9.2847185e-05 0.0000000e+00 
0.0000000e+00 -8.7824978e-05 0.0000000e+00 
0.0000000e+00 -8.1403137e-05 0.0000000e+00 
0.0000000e+00 -1.0301948e-04 0.0000000e+00 
0.0000000e+00 -1.9787102e-04 0.0000000e+00 
0.0000000e+00 -4.2277665e-04 0.0000000e+00 
0.0000000e+00 -8.4474956e-04 0.0000000e+00 
0.0000000e+00 -1.5129355e-03 0.0000000e+00 
0.0000000e+00 -2.4169700e-03 0.0000000e+00 
0.0000000e+00 -3.3830057e-03 0.0000000e+00 
0.0000000e+00 -3.9891265e-03 0.0000000e+00 
0.0000000e+00 -3.8934702e-03 0.0000000e+00 
0.0000000e+00 -3.7230712e-03 0.0000000e+00 
0.0000000e+00 -3.8107722e-03 0.0000000e+00 
0.0000000e+00 -4.1163196e-03 0.0000000e+00 
0.0000000e+00 -4.0919511e-03 0.0000000e+00 
0.0000000e+00 -3.3326265e-03 0.0000000e+00 
0.0000000e+00 -2.3513250e-03 0.0000000e+00 
0.0000000e+00 -1.5024885e-03 0.0000000e+00 
0.0000000e+00 -8.7282772e-04 0.0000000e+00 
0.0000000e+00 -4.6182028e-04 0.0000000e+00 
0.0000000e+00 -2.1671627e-04 0.0000000e+00 
0.0000000e+00 -7.8116616e-05 0.0000000e+00 
0.0000000e+00 -3.2314105e-07 0.0000000e+00 
0.0000000e+00 4.4980919e-05 0.0000000e+00 
0.0000000e+00 7.3492731e-05 0.0000000e+00 
0.0000000e+00 9.0896254e-05 0.0000000e+00 
0.0000000e+00 9.5891090e-05 0.0000000e+00 
0.0000000e+00 8.5743741e-05 0.0000000e+00 
0.0000000e+00 6.3115294e-05 0.0000000e+00 
0.0000000e+00 3.4210025e-05 0.0000000e+00 
0.0000000e+00 6.0580328e-06 0.0000000e+00 
0.0000000e+00 -1.5366268e-05 0.0000000e+00 
0.0000000e+00 -2.7693017e-05 0.0000000e+00 
0.0000000e+00 -2.9903995e-05 0.0000000e+00 
0.0000000e+00 -2.2509936e-05 0.0000000e+00 
0.0000000e+00 -8.2780398e-06 0.0000000e+00 
0.0000000e+00 6.8601612e-06 0.0000000e+00 
0.0000000e+00 1.6222826e-05 0.0000000e+00 
0.0000000e+00 1.6986583e-05 0.0000000e+00 
0.0000000e+00 1.0210351e-05 0.0000000e+00 
0.0000000e+00 -1.7929050e-07 0.0000000e+00 
0.0000000e+00 -8.9518153e-06 0.0000000e+00 
0.0000000e+00 -1.2437420e-05 0.0000000e+00 
-1.2394248e-06 -4.0613218e-06 -7.8376138e-07 
6.8673808e-07 -2.4883597e-05 -1.1103142e-05 
0.0000000e+00 0.0000000e+00 0.0000000e+00 
0.0000000e+00 0.0000000e+00 0.0000000e+00 
0.0000000e+00 0.0000000e+00 0.0000000e+00 
0.0000000e+00 0.0000000e+00 0.0000000e+00 
0.0000000e+00 0.0000000e+00 0.0000000e+00 
0.0000000e+00 0.0000000e+00 0.0000000e+00 
0.0000000e+00 0.0000000e+00 0.0000000e+00 
0.0000000e+00 0.0000000e+00 0.0000000e+00 
0.0000000e+00 0.0000000e+00 0.0000000e+00 
0.0000000e+00 0.0000000e+00 0.0000000e+00 
0.0000000e+00 0.0000000e+00 0.0000000e+00 
0.0000000e+00 0.0000000e+00 0.0000000e+00 
0.0000000e+00 0.0000000e+00 0.0000000e+00 
0.0000000e+00 0.0000000e+00 0.0000000e+00 
0.0000000e+00 0.0000000e+00 0.0000000e+00 
0.0000000e+00 0.0000000e+00 0.0000000e+00 
0.0000000e+00 0.0000000e+00 0.0000000e+00 
0.0000000e+00 0.0000000e+00 0.0000000e+00 
0.0000000e+00 0.0000000e+00 0.0000000e+00 
0.0000000e+00 0.0000000e+00 0.0000000e+00 
0.0000000e+00 0.0000000e+00 0.0000000e+00 
0.0000000e+00 0.0000000e+00 0.0000000e+00 
0.0000000e+00 0.0000000e+00 0.0000000e+00 
0.0000000e+00 0.0000000e+00 0.0000000e+00 
0.0000000e+00 0.0000000e+00 0.0000000e+00 
0.0000000e+00 0.0000000e+00 0.0000000e+00 
0.0000000e+00 0.0000000e+00 0.0000000e+00 
0.0000000e+00 0.0000000e+00 0.0000000e+00 
0.0000000e+00 0.0000000e+00 0.0000000e+00 
0.0000000e+00 0.0000000e+00 0.0000000e+00 
0.0000000e+00 0.0000000e+00 0.0000000e+00 
0.0000000e+00 0.0000000e+00 0.0000000e+00 
0.0000000e+00 0.0000000e+00 0.0000000e+00 
0.0000000e+00 0.0000000e+00 0.0000000e+00 
0.0000000e+00 0.0000000e+00 0.0000000e+00 
0.0000000e+00 0.0000000e+00 0.0000000e+00 
0.0000000e+00 0.0000000e+00 0.0000000e+00 
0.0000000e+00 0.0000000e+00 0.0000000e+00 
0.0000000e+00 0.0000000e+00 0.0000000e+00 
0.0000000e+00 0.0000000e+00 0.0000000e+00 
0.0000000e+00 0.0000000e+00 0.0000000e+00 
0.0000000e+00 0.0000000e+00 0.0000000e+00 
3.1891799e-05 -9.7035308e-07 -2.4287696e-05 
5.9231785e-05 -4.8322026e-06 -1.4606784e-05 
3.9710794e-05 -8.0087875e-06 -1.7323995e-07 
1.0901383e-05 -9.6282902e-06 6.8748318e-07 
4.1322501e-06 -8.3199375e-06 1.1337655e-05 
-7.2065166e-07 4.4168037e-06 8.6538976e-06 
8.0144764e-06 6.3504745e-06 -6.4586543e-06 
3.4076015e-06 -2.8649742e-06 -1.2788999e-05 
1.4576966e-06 -6.0832267e-06 -3.5050839e-06 
1.2464621e-05 -1.0018960e-05 -4.3711384e-06 
3.4315402e-05 -2.1465046e-06 -3.8893400e-06 
4.8334525e-05 -1.0660256e-06 5.2284651e-07 
3.6767502e-05 -7.0654146e-06 1.6926670e-06 
1.1802829e-05 -1.4450826e-05 2.7673693e-06 
6.7950186e-06 -9.3310996e-07 8.3431860e-06 
2.2632714e-06 3.4715270e-06 9.3041990e-06 
1.6100370e-07 -1.1635719e-06 1.6570295e-06 
-6.2125997e-07 -1.7074183e-06 -1.3192063e-06 
3.5610799e-07 1.0435871e-06 2.9702522e-07 
0.0000000e+00 -2.1467321e-04 0.0000000e+00 
0.0000000e+00 -4.8754484e-04 0.0000000e+00 
0.0000000e+00 -5.1076879e-04 0.0000000e+00 
0.0000000e+00 -1.8422943e-04 0.0000000e+00 
0.0000000e+00 -2.7407707e-05 0.0000000e+00 
0.0000000e+00 3.8326700e-05 0.0000000e+00 
0.0000000e+00 1.6298824e-05 0.0000000e+00 
0.0000000e+00 3.0341087e-05 0.0000000e+00 
0.0000000e+00 -2.4353609e-05 0.0000000e+00 
0.0000000e+00 -3.7120873e-05 0.0000000e+00 
0.0000000e+00 -1.9875162e-04 0.0000000e+00 
0.0000000e+00 -4.6996502e-04 0.0000000e+00 
0.0000000e+00 -5.2469037e-04 0.0000000e+00 
0.0000000e+00 -1.8926428e-04 0.0000000e+00 
0.0000000e+00 -3.2350920e-06 0.0000000e+00 
0.0000000e+00 3.0733863e-05 0.0000000e+00 
0.0000000e+00 -4.3550453e-06 0.0000000e+00 
0.0000000e+00 -2.9977166e-06 0.0000000e+00 
0.0000000e+00 1.5466684e-06 0.0000000e+00 
2.5402929e-05 -1.9339266e-05 -2.7595437e-05 
2.4367426e-05 -5.7594327e-05 -4.6223915e-05 
-2.0268885e-07 -8.2171789e-07 -2.4283423e-07 
-2.1850698e-07 -1.3596014e-06 -4.7296842e-07 
3.1188203e-05 4.7453750e-06 -3.5112385e-05 
5.3657070e-05 6.8402051e-06 -1.3200141e-05 
3.3717894e-05 -1.4670867e-06 -2.0695951e-07 
4.5672477e-06 -6.3092180e-06 -7.1946556e-07 
3.8650575e-07 -1.3556935e-05 6.6847133e-06 
3.6506506e-06 7.5003322e-06 2.7449084e-06 
1.3699368e-05 1.0972925e-05 -2.1703484e-06 
-1.1589990e-06 -5.0868639e-06 -7.2514772e-06 
-6.2209429e-06 -8.6125792e-06 -6.5128752e-06 
1.7885697e-05 -1.1806787e-05 -9.5130226e-06 
3.6172856e-05 4.7441415e-07 -4.0852733e-06 
4.7683541e-05 1.9828592e-06 2.9186790e-06 
2.6633852e-05 -3.2385997e-06 1.1213005e-05 
-6.0371264e-07 -1.7733957e-05 -2.2045988e-08 
1.8978454e-06 -3.0096894e-06 2.1854987e-07 
4.3427644e-06 4.1310191e-06 1.0142676e-05 
2.2429303e-06 -3.5622551e-07 4.1612348e-06 
-7.8569087e-07 -1.9351201e-06 -4.4430786e-07 
7.1185859e-08 1.0170861e-06 -4.8910471e-07 
7.8647336e-06 -8.7201966e-05 -4.2622516e-05 
0.0000000e+00 -4.6633530e-04 0.0000000e+00 
0.0000000e+00 -1.1083366e-03 0.0000000e+00 
0.0000000e+00 -1.1488973e-03 0.0000000e+00 
0.0000000e+00 -3.4902061e-04 0.0000000e+00 
0.0000000e+00 -5.1081592e-05 0.0000000e+00 
0.0000000e+00 8.0197366e-05 0.0000000e+00 
0.0000000e+00 3.4188430e-05 0.0000000e+00 
0.0000000e+00 4.3239248e-05 0.0000000e+00 
0.0000000e+00 -5.2555268e-05 0.0000000e+00 
0.0000000e+00 -6.3538020e-05 0.0000000e+00 
0.0000000e+00 -4.4619833e-04 0.0000000e+00 
0.0000000e+00 -1.0547161e-03 0.0000000e+00 
0.0000000e+00 -1.1430223e-03 0.0000000e+00 
0.0000000e+00 -3.5262387e-04 0.0000000e+00 
0.0000000e+00 -1.3695533e-06 0.0000000e+00 
0.0000000e+00 5.8969716e-05 0.0000000e+00 
0.0000000e+00 -9.3106555e-06 0.0000000e+00 
0.0000000e+00 -9.4081370e-06 0.0000000e+00 
0.0000000e+00 6.8418999e-06 0.0000000e+00 
-3.2242718e-07 -2.6195569e-06 -4.6959295e-07 
-3.2881557e-04 -4.3631627e-04 2.7140093e-04 
-6.2980264e-04 -1.3436904e-03 1.1572198e-04 
-6.0572062e-04 -1.3850826e-03 -1.0882902e-04 
-1.7497093e-04 -2.9846566e-04 -2.2290050e-04 
2.8462464e-06 -7.1260212e-05 -1.4336815e-04 
2.0359974e-05 8.9102781e-05 2.2874808e-06 
3.6899021e-06 7.3976931e-05 -8.1340067e-06 
5.6273598e-06 -2.6766724e-05 1.0060978e-05 
8.3381346e-06 -1.0060793e-04 6.1599902e-05 
-1.8819350e-06 -3.9614897e-05 3.4879035e-05 
-2.7643895e-04 -4.3754413e-04 2.1090197e-04 
-6.5250247e-04 -1.1451099e-03 1.5565820e-04 
-6.0514390e-04 -1.3303581e-03 -4.8361304e-05 
-1.6605474e-04 -3.2745904e-04 -2.7392097e-04 
1.4731440e-05 -1.0015654e-05 -1.3119658e-04 
1.7515500e-05 5.5726385e-05 4.5488217e-05 
-9.1465945e-06 8.2195475e-06 2.1836677e-05 
8.7815089e-09 -2.0274840e-05 -1.3851887e-05 
1.5280963e-06 1.4179935e-05 7.0939200e-06 
0.0000000e+00 -8.1578310e-04 0.0000000e+00 
0.0000000e+00 -2.2364417e-03 0.0000000e+00 
0.0000000e+00 -2.1808406e-03 0.0000000e+00 
0.0000000e+00 -5.8904907e-04 0.0000000e+00 
0.0000000e+00 -6.4852400e-05 0.0000000e+00 
0.0000000e+00 1.3166833e-04 0.0000000e+00 
0.0000000e+00 6.7615852e-05 0.0000000e+00 
0.0000000e+00 4.1003204e-05 0.0000000e+00 
0.0000000e+00 -1.0021190e-04 0.0000000e+00 
0.0000000e+00 -6.9739835e-05 0.0000000e+00 
0.0000000e+00 -8.7447988e-04 0.0000000e+00 
0.0000000e+00 -2.1277091e-03 0.0000000e+00 
0.0000000e+00 -2.1356707e-03 0.0000000e+00 
0.0000000e+00 -5.7551410e-04 0.0000000e+00 
0.0000000e+00 1.3625804e-05 0.0000000e+00 
0.0000000e+00 9.0181085e-05 0.0000000e+00 
0.0000000e+00 -1.0230355e-06 0.0000000e+00 
0.0000000e+00 -2.0404681e-05 0.0000000e+00 
0.0000000e+00 1.3702263e-05 0.0000000e+00 
3.1559357e-05 -1.8088869e-05 -1.4067178e-05 
7.1928873e-05 -1.1508740e-04 1.4307434e-05 
6.8635076e-05 -9.1393005e-05 1.0623111e-05 
2.5121401e-05 -5.7466958e-05 -1.1136079e-05 
-1.3481405e-05 -1.1675043e-05 -1.5451342e-05 
1.1878821e-05 2.1231070e-05 -4.3254836e-06 
9.0563908e-06 1.6857803e-05 -7.5654025e-06 
-4.3938362e-06 -2.0710613e-05 6.0321929e-07 
-7.4140512e-06 -3.8540104e-05 1.1685915e-05 
1.5543599e-05 -3.7649720e-06 6.5562772e-06 
5.9799386e-05 -3.0781222e-05 -1.3275425e-06 
7.6562901e-05 -3.9567240e-05 5.8630430e-06 
4.1421947e-05 -7.0992108e-05 1.7017455e-05 
2.1337750e-05 -6.6572255e-05 -1.6429440e-05 
-1.1023835e-05 -6.7095825e-06 -1.5911855e-05 
5.3418867e-06 1.3525529e-05 7.7480490e-06 
9.4278613e-07 2.8864570e-06 9.7365837e-06 
9.3255426e-07 2.9664093e-06 -9.1475545e-07 
2.1482958e-06 -1.5052200e-05 -7.7759114e-06 
0.0000000e+00 0.0000000e+00 0.0000000e+00 
0.0000000e+00 0.0000000e+00 0.0000000e+00 
0.0000000e+00 0.0000000e+00 0.0000000e+00 
0.0000000e+00 0.0000000e+00 0.0000000e+00 
0.0000000e+00 0.0000000e+00 0.0000000e+00 
0.0000000e+00 0.0000000e+00 0.0000000e+00 
0.0000000e+00 0.0000000e+00 0.0000000e+00 
0.0000000e+00 0.0000000e+00 0.0000000e+00 
0.0000000e+00 0.0000000e+00 0.0000000e+00 
0.0000000e+00 0.0000000e+00 0.0000000e+00 
0.0000000e+00 0.0000000e+00 0.0000000e+00 
0.0000000e+00 0.0000000e+00 0.0000000e+00 
0.0000000e+00 0.0000000e+00 0.0000000e+00 
0.0000000e+00 0.0000000e+00 0.0000000e+00 
0.0000000e+00 0.0000000e+00 0.0000000e+00 
0.0000000e+00 0.0000000e+00 0.0000000e+00 
0.0000000e+00 0.0000000e+00 0.0000000e+00 
0.0000000e+00 0.0000000e+00 0.0000000e+00 
0.0000000e+00 0.0000000e+00 0.0000000e+00 
0.0000000e+00 0.0000000e+00 0.0000000e+00 
0.0000000e+00 0.0000000e+00 0.0000000e+00 
0.0000000e+00 0.0000000e+00 0.0000000e+00 
0.0000000e+00 0.0000000e+00 0.0000000e+00 
0.0000000e+00 0.0000000e+00 0.0000000e+00 
0.0000000e+00 0.0000000e+00 0.0000000e+00 
0.0000000e+00 0.0000000e+00 0.0000000e+00 
0.0000000e+00 0.0000000e+00 0.0000000e+00 
0.0000000e+00 0.0000000e+00 0.0000000e+00 
0.0000000e+00 0.0000000e+00 0.0000000e+00 
0.0000000e+00 0.0000000e+00 0.0000000e+00 
0.0000000e+00 0.0000000e+00 0.0000000e+00 
0.0000000e+00 0.0000000e+00 0.0000000e+00 
0.0000000e+00 0.0000000e+00 0.0000000e+00 
0.0000000e+00 0.0000000e+00 0.0000000e+00 
0.0000000e+00 0.0000000e+00 0.0000000e+00 
0.0000000e+00 0.0000000e+00 0.0000000e+00 
0.0000000e+00 0.0000000e+00 0.0000000e+00 
0.0000000e+00 0.0000000e+00 0.0000000e+00 
0.0000000e+00 0.0000000e+00 0.0000000e+00 
0.0000000e+00 0.0000000e+00 0.0000000e+00 
0.0000000e+00 0.0000000e+00 0.0000000e+00 
0.0000000e+00 0.0000000e+00 0.0000000e+00 
1.4548921e-05 -9.1199536e-06 -1.2003627e-05 
1.2870577e-06 1.1837395e-06 1.0020432e-06 
3.8765188e-06 -5.3338458e-06 -6.9129305e-07 
2.3347620e-05 -4.8970423e-06 -6.7692817e-08 
1.9345292e-05 -1.0695803e-05 7.3149448e-07 
1.5682195e-05 -1.0451523e-05 -5.0335120e-07 
5.2339237e-06 -4.5258671e-06 4.0872064e-06 
2.6379073e-06 9.9746785e-07 4.4556359e-06 
5.8553366e-07 -4.1984094e-07 2.8756226e-06 
2.1313686e-07 -1.0791488e-06 -3.8528390e-07 
-1.5986765e-07 -6.1326247e-08 -8.7596476e-08 
-1.1217379e-07 1.9244149e-07 -1.0100524e-07 
2.6423570e-05 -8.4430521e-06 -1.4228328e-05 
3.3651831e-05 -1.0070135e-05 -7.5021253e-06 
1.5522484e-05 -8.8018705e-06 -8.0380693e-07 
3.8901203e-06 -5.3997360e-06 3.7360826e-06 
4.1304057e-07 -9.4477832e-07 6.0456441e-06 
3.0862470e-06 1.5407718e-07 -7.0787960e-06 
3.0512333e-06 2.3393156e-07 -5.2936857e-06 
1.0420436e-05 -7.0775659e-06 -2.9009211e-06 
3.8458624e-05 -3.1507694e-05 -1.8248844e-05 
1.3871349e-07 1.7136416e-06 -2.8384491e-07 
8.4298117e-05 -4.3001906e-05 7.1790787e-06 
1.3411836e-05 -8.1214685e-06 6.7339570e-06 
5.3922786e-06 1.2849232e-05 -2.7689648e-06 
-1.0097256e-05 -1.9089577e-05 -2.7261306e-06 
3.3227523e-05 6.8701274e-06 -3.9076349e-06 
9.4336414e-05 3.6897482e-06 -1.0029120e-06 
1.1730191e-05 -1.1041543e-05 6.6476514e-06 
6.4041291e-07 5.5397268e-06 5.5087676e-06 
7.7696255e-05 -1.9278417e-04 4.3531592e-05 
1.1559168e-06 1.0260892e-06 9.1114816e-06 
-3.2945554e-06 6.4157662e-06 -1.2819140e-05 
1.5003531e-05 -3.0980911e-05 2.9313467e-06 
1.1333363e-04 -1.8872917e-04 -2.5922323e-05 
8.6517415e-05 -2.0294538e-04 2.7121054e-05 
2.3888711e-06 9.1880938e-06 1.0461351e-05 
2.0396988e-06 -8.4600260e-06 -4.0336572e-06 
-6.4466514e-07 1.3866772e-06 1.8830910e-06 
8.5106883e-05 -5.2220985e-06 -8.1890266e-06 
-2.1528595e-07 -3.2821896e-07 5.4549048e-07 
8.7024426e-05 -2.6715233e-04 -5.0749637e-05 
3.3436940e-05 -1.6668404e-05 9.9554143e-07 
9.4584273e-08 1.4094100e-07 4.8918537e-06 
3.1820402e-06 -7.4607425e-07 -1.0970060e-05 
7.3707074e-06 -1.0538308e-05 3.0365886e-06 
5.1388070e-05 4.0231433e-07 -1.2650921e-06 