# vtk DataFile Version 4.0
vtk output
ASCII
DATASET UNSTRUCTURED_GRID
POINTS 661 float
0.0000000e+00 0.0000000e+00 0.0000000e+00 
0.0000000e+00 0.0000000e+00 4.0000000e+01 
5.0000000e+00 0.0000000e+00 0.0000000e+00 
5.0000000e+00 0.0000000e+00 4.0000000e+01 
5.0000000e+00 1.0000000e+00 0.0000000e+00 
5.0000000e+00 1.0000000e+00 4.0000000e+01 
0.0000000e+00 1.0000000e+00 0.0000000e+00 
0.0000000e+00 1.0000000e+00 4.0000000e+01 
5.0000000e+00 2.0000000e+00 0.0000000e+00 
5.0000000e+00 2.0000000e+00 4.0000000e+01 
3.0000000e+00 2.0000000e+00 0.0000000e+00 
3.0000000e+00 2.0000000e+00 4.0000000e+01 
0.0000000e+00 2.0000000e+00 0.0000000e+00 
0.0000000e+00 2.0000000e+00 4.0000000e+01 
1.5000000e+00 3.0000000e+00 0.0000000e+00 
1.5000000e+00 3.0000000e+00 4.0000000e+01 
7.5000000e-01 3.0000000e+00 0.0000000e+00 
7.5000000e-01 3.0000000e+00 4.0000000e+01 
0.0000000e+00 3.0000000e+00 0.0000000e+00 
0.0000000e+00 3.0000000e+00 4.0000000e+01 
7.5000000e-01 3.0000000e+00 5.0000000e-01 
7.5000000e-01 3.0000000e+00 1.0000000e+00 
7.5000000e-01 3.0000000e+00 1.5000000e+00 
7.5000000e-01 3.0000000e+00 2.0000000e+00 
7.5000000e-01 3.0000000e+00 2.5000000e+00 
7.5000000e-01 3.0000000e+00 3.0000000e+00 
7.5000000e-01 3.0000000e+00 3.5000000e+00 
7.5000000e-01 3.0000000e+00 4.0000000e+00 
7.5000000e-01 3.0000000e+00 4.5000000e+00 
7.5000000e-01 3.0000000e+00 5.0000000e+00 
7.5000000e-01 3.0000000e+00 5.5000000e+00 
7.5000000e-01 3.0000000e+00 6.0000000e+00 
7.5000000e-01 3.0000000e+00 6.5000000e+00 
7.5000000e-01 3.0000000e+00 7.0000000e+00 
7.5000000e-01 3.0000000e+00 7.5000000e+00 
7.5000000e-01 3.0000000e+00 8.0000000e+00 
7.5000000e-01 3.0000000e+00 8.5000000e+00 
7.5000000e-01 3.0000000e+00 9.0000000e+00 
7.5000000e-01 3.0000000e+00 9.5000000e+00 
7.5000000e-01 3.0000000e+00 1.0000000e+01 
7.5000000e-01 3.0000000e+00 1.0500000e+01 
7.5000000e-01 3.0000000e+00 1.1000000e+01 
7.5000000e-01 3.0000000e+00 1.1500000e+01 
7.5000000e-01 3.0000000e+00 1.2000000e+01 
7.5000000e-01 3.0000000e+00 1.2500000e+01 
7.5000000e-01 3.0000000e+00 1.3000000e+01 
7.5000000e-01 3.0000000e+00 1.3500000e+01 
7.5000000e-01 3.0000000e+00 1.4000000e+01 
7.5000000e-01 3.0000000e+00 1.4500000e+01 
7.5000000e-01 3.0000000e+00 1.5000000e+01 
7.5000000e-01 3.0000000e+00 1.5500000e+01 
7.5000000e-01 3.0000000e+00 1.6000000e+01 
7.5000000e-01 3.0000000e+00 1.6500000e+01 
7.5000000e-01 3.0000000e+00 1.7000000e+01 
7.5000000e-01 3.0000000e+00 1.7500000e+01 
7.5000000e-01 3.0000000e+00 1.8000000e+01 
7.5000000e-01 3.0000000e+00 1.8500000e+01 
7.5000000e-01 3.0000000e+00 1.9000000e+01 
7.5000000e-01 3.0000000e+00 1.9500000e+01 
7.5000000e-01 3.0000000e+00 2.0000000e+01 
7.5000000e-01 3.0000000e+00 2.0500000e+01 
7.5000000e-01 3.0000000e+00 2.1000000e+01 
7.5000000e-01 3.0000000e+00 2.1500000e+01 
7.5000000e-01 3.0000000e+00 2.2000000e+01 
7.5000000e-01 3.0000000e+00 2.2500000e+01 
7.5000000e-01 3.0000000e+00 2.3000000e+01 
7.5000000e-01 3.0000000e+00 2.3500000e+01 
7.5000000e-01 3.0000000e+00 2.4000000e+01 
7.5000000e-01 3.0000000e+00 2.4500000e+01 
7.5000000e-01 3.0000000e+00 2.5000000e+01 
7.5000000e-01 3.0000000e+00 2.5500000e+01 
7.5000000e-01 3.0000000e+00 2.6000000e+01 
7.5000000e-01 3.0000000e+00 2.6500000e+01 
7.5000000e-01 3.0000000e+00 2.7000000e+01 
7.5000000e-01 3.0000000e+00 2.7500000e+01 
7.5000000e-01 3.0000000e+00 2.8000000e+01 
7.5000000e-01 3.0000000e+00 2.8500000e+01 
7.5000000e-01 3.0000000e+00 2.9000000e+01 
7.5000000e-01 3.0000000e+00 2.9500000e+01 
7.5000000e-01 3.0000000e+00 3.0000000e+01 
7.5000000e-01 3.0000000e+00 3.0500000e+01 
7.5000000e-01 3.0000000e+00 3.1000000e+01 
7.5000000e-01 3.0000000e+00 3.1500000e+01 
7.5000000e-01 3.0000000e+00 3.2000000e+01 
7.5000000e-01 3.0000000e+00 3.2500000e+01 
7.5000000e-01 3.0000000e+00 3.3000000e+01 
7.5000000e-01 3.0000000e+00 3.3500000e+01 
7.5000000e-01 3.0000000e+00 3.4000000e+01 
7.5000000e-01 3.0000000e+00 3.4500000e+01 
7.5000000e-01 3.0000000e+00 3.5000000e+01 
7.5000000e-01 3.0000000e+00 3.5500000e+01 
7.5000000e-01 3.0000000e+00 3.6000000e+01 
7.5000000e-01 3.0000000e+00 3.6500000e+01 
7.5000000e-01 3.0000000e+00 3.7000000e+01 
7.5000000e-01 3.0000000e+00 3.7500000e+01 
7.5000000e-01 3.0000000e+00 3.8000000e+01 
7.5000000e-01 3.0000000e+00 3.8500000e+01 
7.5000000e-01 3.0000000e+00 3.9000000e+01 
7.5000000e-01 3.0000000e+00 3.9500000e+01 
7.5000000e-01 3.0000000e+00 4.0500000e+01 
7.5000000e-01 3.0000000e+00 4.1000000e+01 
7.5000000e-01 3.0000000e+00 4.1500000e+01 
7.5000000e-01 3.0000000e+00 4.2000000e+01 
7.5000000e-01 3.0000000e+00 4.2500000e+01 
7.5000000e-01 3.0000000e+00 4.3000000e+01 
7.5000000e-01 3.0000000e+00 4.3500000e+01 
7.5000000e-01 3.0000000e+00 4.4000000e+01 
7.5000000e-01 3.0000000e+00 4.4500000e+01 
7.5000000e-01 3.0000000e+00 4.5000000e+01 
7.5000000e-01 3.0000000e+00 4.5500000e+01 
7.5000000e-01 3.0000000e+00 4.6000000e+01 
7.5000000e-01 3.0000000e+00 4.6500000e+01 
7.5000000e-01 3.0000000e+00 4.7000000e+01 
7.5000000e-01 3.0000000e+00 4.7500000e+01 
7.5000000e-01 3.0000000e+00 4.8000000e+01 
7.5000000e-01 3.0000000e+00 4.8500000e+01 
7.5000000e-01 3.0000000e+00 4.9000000e+01 
7.5000000e-01 3.0000000e+00 4.9500000e+01 
7.5000000e-01 3.0000000e+00 5.0000000e+01 
7.5000000e-01 3.0250001e+00 0.0000000e+00 
7.5000000e-01 3.0250001e+00 5.0000000e-01 
7.5000000e-01 3.0250001e+00 1.0000000e+00 
7.5000000e-01 3.0250001e+00 1.5000000e+00 
7.5000000e-01 3.0250001e+00 2.0000000e+00 
7.5000000e-01 3.0250001e+00 2.5000000e+00 
7.5000000e-01 3.0250001e+00 3.0000000e+00 
7.5000000e-01 3.0250001e+00 3.5000000e+00 
7.5000000e-01 3.0250001e+00 4.0000000e+00 
7.5000000e-01 3.0250001e+00 4.5000000e+00 
7.5000000e-01 3.0250001e+00 5.0000000e+00 
7.5000000e-01 3.0250001e+00 5.5000000e+00 
7.5000000e-01 3.0250001e+00 6.0000000e+00 
7.5000000e-01 3.0250001e+00 6.5000000e+00 
7.5000000e-01 3.0250001e+00 7.0000000e+00 
7.5000000e-01 3.0250001e+00 7.5000000e+00 
7.5000000e-01 3.0250001e+00 8.0000000e+00 
7.5000000e-01 3.0250001e+00 8.5000000e+00 
7.5000000e-01 3.0250001e+00 9.0000000e+00 
7.5000000e-01 3.0250001e+00 9.5000000e+00 
7.5000000e-01 3.0250001e+00 1.0000000e+01 
7.5000000e-01 3.0250001e+00 1.0500000e+01 
7.5000000e-01 3.0250001e+00 1.1000000e+01 
7.5000000e-01 3.0250001e+00 1.1500000e+01 
7.5000000e-01 3.0250001e+00 1.2000000e+01 
7.5000000e-01 3.0250001e+00 1.2500000e+01 
7.5000000e-01 3.0250001e+00 1.3000000e+01 
7.5000000e-01 3.0250001e+00 1.3500000e+01 
7.5000000e-01 3.0250001e+00 1.4000000e+01 
7.5000000e-01 3.0250001e+00 1.4500000e+01 
7.5000000e-01 3.0250001e+00 1.5000000e+01 
7.5000000e-01 3.0250001e+00 1.5500000e+01 
7.5000000e-01 3.0250001e+00 1.6000000e+01 
7.5000000e-01 3.0250001e+00 1.6500000e+01 
7.5000000e-01 3.0250001e+00 1.7000000e+01 
7.5000000e-01 3.0250001e+00 1.7500000e+01 
7.5000000e-01 3.0250001e+00 1.8000000e+01 
7.5000000e-01 3.0250001e+00 1.8500000e+01 
7.5000000e-01 3.0250001e+00 1.9000000e+01 
7.5000000e-01 3.0250001e+00 1.9500000e+01 
7.5000000e-01 3.0250001e+00 2.0000000e+01 
7.5000000e-01 3.0250001e+00 2.0500000e+01 
7.5000000e-01 3.0250001e+00 2.1000000e+01 
7.5000000e-01 3.0250001e+00 2.1500000e+01 
7.5000000e-01 3.0250001e+00 2.2000000e+01 
7.5000000e-01 3.0250001e+00 2.2500000e+01 
7.5000000e-01 3.0250001e+00 2.3000000e+01 
7.5000000e-01 3.0250001e+00 2.3500000e+01 
7.5000000e-01 3.0250001e+00 2.4000000e+01 
7.5000000e-01 3.0250001e+00 2.4500000e+01 
7.5000000e-01 3.0250001e+00 2.5000000e+01 
7.5000000e-01 3.0250001e+00 2.5500000e+01 
7.5000000e-01 3.0250001e+00 2.6000000e+01 
7.5000000e-01 3.0250001e+00 2.6500000e+01 
7.5000000e-01 3.0250001e+00 2.7000000e+01 
7.5000000e-01 3.0250001e+00 2.7500000e+01 
7.5000000e-01 3.0250001e+00 2.8000000e+01 
7.5000000e-01 3.0250001e+00 2.8500000e+01 
7.5000000e-01 3.0250001e+00 2.9000000e+01 
7.5000000e-01 3.0250001e+00 2.9500000e+01 
7.5000000e-01 3.0250001e+00 3.0000000e+01 
7.5000000e-01 3.0250001e+00 3.0500000e+01 
7.5000000e-01 3.0250001e+00 3.1000000e+01 
7.5000000e-01 3.0250001e+00 3.1500000e+01 
7.5000000e-01 3.0250001e+00 3.2000000e+01 
7.5000000e-01 3.0250001e+00 3.2500000e+01 
7.5000000e-01 3.0250001e+00 3.3000000e+01 
7.5000000e-01 3.0250001e+00 3.3500000e+01 
7.5000000e-01 3.0250001e+00 3.4000000e+01 
7.5000000e-01 3.0250001e+00 3.4500000e+01 
7.5000000e-01 3.0250001e+00 3.5000000e+01 
7.5000000e-01 3.0250001e+00 3.5500000e+01 
7.5000000e-01 3.0250001e+00 3.6000000e+01 
7.5000000e-01 3.0250001e+00 3.6500000e+01 
7.5000000e-01 3.0250001e+00 3.7000000e+01 
7.5000000e-01 3.0250001e+00 3.7500000e+01 
7.5000000e-01 3.0250001e+00 3.8000000e+01 
7.5000000e-01 3.0250001e+00 3.8500000e+01 
7.5000000e-01 3.0250001e+00 3.9000000e+01 
7.5000000e-01 3.0250001e+00 3.9500000e+01 
7.5000000e-01 3.0250001e+00 4.0000000e+01 
7.5000000e-01 3.0250001e+00 4.0500000e+01 
7.5000000e-01 3.0250001e+00 4.1000000e+01 
7.5000000e-01 3.0250001e+00 4.1500000e+01 
7.5000000e-01 3.0250001e+00 4.2000000e+01 
7.5000000e-01 3.0250001e+00 4.2500000e+01 
7.5000000e-01 3.0250001e+00 4.3000000e+01 
7.5000000e-01 3.0250001e+00 4.3500000e+01 
7.5000000e-01 3.0250001e+00 4.4000000e+01 
7.5000000e-01 3.0250001e+00 4.4500000e+01 
7.5000000e-01 3.0250001e+00 4.5000000e+01 
7.5000000e-01 3.0250001e+00 4.5500000e+01 
7.5000000e-01 3.0250001e+00 4.6000000e+01 
7.5000000e-01 3.0250001e+00 4.6500000e+01 
7.5000000e-01 3.0250001e+00 4.7000000e+01 
7.5000000e-01 3.0250001e+00 4.7500000e+01 
7.5000000e-01 3.0250001e+00 4.8000000e+01 
7.5000000e-01 3.0250001e+00 4.8500000e+01 
7.5000000e-01 3.0250001e+00 4.9000000e+01 
7.5000000e-01 3.0250001e+00 4.9500000e+01 
7.5000000e-01 3.0250001e+00 5.0000000e+01 
3.0000000e+00 2.0000000e+00 3.6000000e+01 
8.0487806e-01 3.0000000e+00 3.6000000e+01 
0.0000000e+00 0.0000000e+00 2.0000000e+00 
0.0000000e+00 0.0000000e+00 4.0000000e+00 
0.0000000e+00 0.0000000e+00 6.0000000e+00 
0.0000000e+00 0.0000000e+00 8.0000000e+00 
0.0000000e+00 0.0000000e+00 1.0000000e+01 
0.0000000e+00 0.0000000e+00 1.2000000e+01 
0.0000000e+00 0.0000000e+00 1.4000000e+01 
0.0000000e+00 0.0000000e+00 1.6000000e+01 
[...]
POINT_DATA 661
FIELD FieldData 3
DISPLACEMENT 3 661  float
0.0000000e+00 0.0000000e+00 0.0000000e+00 
0.0000000e+00 0.0000000e+00 0.0000000e+00 
0.0000000e+00 0.0000000e+00 0.0000000e+00 
0.0000000e+00 0.0000000e+00 0.0000000e+00 
1.2741457e-05 -2.0680847e-05 -2.9909201e-05 
-1.5241332e-07 -6.7940476e-07 -2.7174041e-08 
0.0000000e+00 -6.0608523e-05 0.0000000e+00 
0.0000000e+00 -1.6077685e-06 0.0000000e+00 
1.8601506e-05 -2.8699365e-05 -5.2089235e-05 
-3.8392614e-07 -8.4928456e-07 9.1807482e-07 
4.4917924e-06 -1.3572013e-05 -2.4310119e-05 
-5.6660497e-07 -2.0398818e-06 3.2614818e-07 
0.0000000e+00 -6.0955826e-05 0.0000000e+00 
0.0000000e+00 -3.5812329e-06 0.0000000e+00 
5.2882151e-05 5.8604852e-05 1.1101107e-04 
-4.3113252e-07 -8.3439072e-06 -2.2699185e-06 
3.8390554e-05 9.8926292e-05 2.5497912e-04 
4.1557013e-07 -7.6619790e-06 -7.9782188e-07 
0.0000000e+00 2.6387435e-05 0.0000000e+00 
0.0000000e+00 -6.7350957e-06 0.0000000e+00 
-3.1483127e-05 1.8901161e-05 2.0701643e-04 
-5.7418158e-05 -2.1878285e-04 1.3903488e-04 
-8.1175669e-05 -6.3819950e-04 2.2077534e-04 
-9.8843244e-05 -1.2771460e-03 2.4368906e-04 
-1.7761350e-04 -2.1270150e-03 1.3300459e-04 
-2.1000164e-04 -3.0961088e-03 1.4104237e-04 
-1.1447754e-04 -3.8794591e-03 1.0857339e-04 
-8.5702079e-05 -3.9383769e-03 1.2520514e-04 
-2.3055982e-04 -3.8203455e-03 6.3777828e-05 
-3.0130384e-04 -3.8718439e-03 5.1168161e-05 
-2.0492835e-04 -4.1839951e-03 1.6597420e-05 
-6.6170003e-05 -4.2455653e-03 -4.8916056e-05 
-1.0206526e-04 -3.5600630e-03 -1.5887436e-04 
-2.0529605e-04 -2.5245103e-03 -1.9786066e-04 
-1.9614294e-04 -1.6217609e-03 -1.8877511e-04 
-7.2460993e-05 -9.4007695e-04 -1.1597545e-04 
-4.6171896e-05 -5.1477033e-04 -1.5444795e-04 
-4.0963918e-05 -2.7399190e-04 -1.3863108e-04 
-3.2175732e-05 -1.4670980e-04 -1.3551649e-04 
-3.8850590e-06 -7.2237053e-05 -1.2260415e-04 
1.8137463e-05 -1.1965340e-05 -8.9171597e-05 
3.2190172e-05 4.6483830e-05 -4.9612918e-05 
2.2170689e-05 1.0117798e-04 -1.5473279e-05 
5.0591343e-06 1.4094285e-04 1.6244767e-05 
1.1533537e-06 1.5485098e-04 1.7948805e-05 
-3.6643607e-06 1.4640887e-04 1.3832532e-05 
-3.5388969e-06 1.2318978e-04 -9.1085514e-07 
2.3334840e-06 9.3721406e-05 -2.6056938e-05 
3.2810777e-07 6.5940818e-05 -4.0948176e-05 
5.9613117e-06 4.0655490e-05 -4.2777621e-05 
6.8601103e-06 1.6920927e-05 -3.2530417e-05 
6.5126892e-06 -5.6555527e-06 -1.4686624e-05 
5.1225302e-06 -2.7961300e-05 1.3567561e-05 
9.3250865e-06 -4.9692113e-05 3.2058626e-05 
7.6639544e-06 -7.1179398e-05 4.6716712e-05 
-6.8825561e-06 -8.7111919e-05 6.1107581e-05 
-2.4472114e-05 -9.2260212e-05 4.9741189e-05 
-2.9040124e-05 -8.8197412e-05 3.8952574e-05 
-1.9733638e-05 -8.1599937e-05 2.9320861e-05 
-2.0596490e-06 -1.0311502e-04 1.3776135e-05 
-3.6638139e-05 -1.9843102e-04 3.1616444e-05 
-5.7566951e-05 -4.2133013e-04 5.6625217e-05 
-7.8713332e-05 -8.4415945e-04 9.3039322e-05 
-1.1902692e-04 -1.5069721e-03 4.3234384e-05 
-2.2945413e-04 -2.4179320e-03 1.5996740e-04 
-2.1903441e-04 -3.3632938e-03 1.6414934e-04 
-1.2735579e-04 -3.9856797e-03 1.3681632e-04 
-1.0995522e-04 -3.8882405e-03 1.8329159e-04 
-2.6293742e-04 -3.7400653e-03 1.1270411e-04 
-3.2407485e-04 -3.8167951e-03 9.4146068e-05 
-2.1307298e-04 -4.1398411e-03 4.2625114e-05 
-7.7100180e-05 -4.1025067e-03 -1.4327619e-05 
-1.0527411e-04 -3.3485959e-03 -1.4816188e-04 
-2.0185526e-04 -2.3525998e-03 -2.0068914e-04 
-1.8926604e-04 -1.5066629e-03 -2.1380007e-04 
-8.2257451e-05 -8.6834567e-04 -1.5619514e-04 
-4.6585719e-05 -4.5792930e-04 -1.7974866e-04 
-2.7173577e-05 -2.1277540e-04 -1.4330295e-04 
-1.7835251e-05 -7.5729542e-05 -1.2085879e-04 
9.3539693e-06 5.2640576e-07 -9.4693321e-05 
2.4336194e-05 4.4677676e-05 -6.1683226e-05 
3.5764522e-05 7.2848095e-05 -2.4364590e-05 
2.3317180e-05 9.0165217e-05 8.4475651e-06 
6.4604828e-06 9.5538730e-05 3.3024786e-05 
-1.3524351e-06 8.5309781e-05 3.8629023e-05 
-8.0053196e-06 6.2832762e-05 3.2871820e-05 
-8.4327339e-06 3.4072676e-05 2.0072663e-05 
-5.1706684e-06 5.8116298e-06 3.4622974e-06 
-4.2075981e-06 -1.5079851e-05 -5.6992699e-06 
-2.2783274e-06 -2.7347061e-05 -1.2562448e-05 
2.2991687e-06 -2.9708635e-05 -1.5687108e-05 
1.2147486e-06 -2.2876829e-05 -1.0376320e-05 
1.6798035e-06 -8.8830930e-06 -3.9520764e-06 
1.7531771e-06 6.6691500e-06 2.5402235e-06 
-7.2626642e-07 1.5911352e-05 6.4584083e-06 
-6.3718602e-07 1.6008798e-05 5.0970943e-06 
-7.0523907e-07 8.7018188e-06 2.1079807e-06 
-5.5673075e-07 -8.8359974e-07 -1.3129334e-06 
-6.7656899e-08 -6.7834881e-06 -3.0078334e-06 
0.0000000e+00 -4.7367789e-06 0.0000000e+00 
0.0000000e+00 -5.8124692e-07 0.0000000e+00 
0.0000000e+00 2.3250050e-06 0.0000000e+00 
0.0000000e+00 3.0736944e-06 0.0000000e+00 
0.0000000e+00 2.3648247e-06 0.0000000e+00 
0.0000000e+00 1.4204377e-06 0.0000000e+00 
0.0000000e+00 8.5328440e-07 0.0000000e+00 
0.0000000e+00 4.3868968e-07 0.0000000e+00 
0.0000000e+00 -2.4039630e-07 0.0000000e+00 
0.0000000e+00 -1.1081128e-06 0.0000000e+00 
0.0000000e+00 -1.5946425e-06 0.0000000e+00 
0.0000000e+00 -1.2425428e-06 0.0000000e+00 
0.0000000e+00 -2.2363893e-07 0.0000000e+00 
0.0000000e+00 7.7225042e-07 0.0000000e+00 
0.0000000e+00 1.1316414e-06 0.0000000e+00 
0.0000000e+00 7.9018815e-07 0.0000000e+00 
0.0000000e+00 1.7030032e-07 0.0000000e+00 
0.0000000e+00 -2.7043831e-07 0.0000000e+00 
0.0000000e+00 -4.0299850e-07 0.0000000e+00 
0.0000000e+00 -3.9839759e-07 0.0000000e+00 
0.0000000e+00 9.8849509e-05 0.0000000e+00 
0.0000000e+00 2.0433474e-05 0.0000000e+00 
0.0000000e+00 -2.1802993e-04 0.0000000e+00 
0.0000000e+00 -6.4039731e-04 0.0000000e+00 
0.0000000e+00 -1.2807513e-03 0.0000000e+00 
0.0000000e+00 -2.1390028e-03 0.0000000e+00 
0.0000000e+00 -3.1276112e-03 0.0000000e+00 
0.0000000e+00 -3.9030048e-03 0.0000000e+00 
0.0000000e+00 -3.9687078e-03 0.0000000e+00 
0.0000000e+00 -3.8341060e-03 0.0000000e+00 
0.0000000e+00 -3.9021389e-03 0.0000000e+00 
0.0000000e+00 -4.2042276e-03 0.0000000e+00 
0.0000000e+00 -4.2806892e-03 0.0000000e+00 
0.0000000e+00 -3.5786671e-03 0.0000000e+00 
0.0000000e+00 -2.5437183e-03 0.0000000e+00 
0.0000000e+00 -1.6242813e-03 0.0000000e+00 
0.0000000e+00 -9.4468490e-04 0.0000000e+00 
0.0000000e+00 -5.1471579e-04 0.0000000e+00 
0.0000000e+00 -2.7318488e-04 0.0000000e+00 
0.0000000e+00 -1.4553420e-04 0.0000000e+00 
0.0000000e+00 -7.0916678e-05 0.0000000e+00 
0.0000000e+00 -1.1273627e-05 0.0000000e+00 
0.0000000e+00 4.6923866e-05 0.0000000e+00 
0.0000000e+00 1.0114475e-04 0.0000000e+00 
0.0000000e+00 1.4019583e-04 0.0000000e+00 
0.0000000e+00 1.5467424e-04 0.0000000e+00 
0.0000000e+00 1.4643493e-04 0.0000000e+00 
0.0000000e+00 1.2328141e-04 0.0000000e+00 
0.0000000e+00 9.4146017e-05 0.0000000e+00 
0.0000000e+00 6.6089822e-05 0.0000000e+00 
0.0000000e+00 4.0678591e-05 0.0000000e+00 
0.0000000e+00 1.6919501e-05 0.0000000e+00 
0.0000000e+00 -5.8073774e-06 0.0000000e+00 
0.0000000e+00 -2.8038550e-05 0.0000000e+00 
0.0000000e+00 -5.0050836e-05 0.0000000e+00 
0.0000000e+00 -7.1151575e-05 0.0000000e+00 
0.0000000e+00 -8.6703018e-05 0.0000000e+00 
0.0000000e+00 -9.1937582e-05 0.0000000e+00 
0.0000000e+00 -8.6987537e-05 0.0000000e+00 
0.0000000e+00 -8.0871054e-05 0.0000000e+00 
0.0000000e+00 -1.0265136e-04 0.0000000e+00 
0.0000000e+00 -1.9744488e-04 0.0000000e+00 
0.0000000e+00 -4.2264204e-04 0.0000000e+00 
0.0000000e+00 -8.4610865e-04 0.0000000e+00 
0.0000000e+00 -1.5176904e-03 0.0000000e+00 
0.0000000e+00 -2.4268206e-03 0.0000000e+00 
0.0000000e+00 -3.3984992e-03 0.0000000e+00 
0.0000000e+00 -4.0097339e-03 0.0000000e+00 
0.0000000e+00 -3.9185914e-03 0.0000000e+00 
0.0000000e+00 -3.7537524e-03 0.0000000e+00 
0.0000000e+00 -3.8487320e-03 0.0000000e+00 
0.0000000e+00 -4.1614021e-03 0.0000000e+00 
0.0000000e+00 -4.1366643e-03 0.0000000e+00 
0.0000000e+00 -3.3650228e-03 0.0000000e+00 
0.0000000e+00 -2.3686371e-03 0.0000000e+00 
0.0000000e+00 -1.5083988e-03 0.0000000e+00 
0.0000000e+00 -8.7188749e-04 0.0000000e+00 
0.0000000e+00 -4.5766946e-04 0.0000000e+00 
0.0000000e+00 -2.1202851e-04 0.0000000e+00 
0.0000000e+00 -7.4720425e-05 0.0000000e+00 
0.0000000e+00 1.2086294e-06 0.0000000e+00 
0.0000000e+00 4.5216719e-05 0.0000000e+00 
0.0000000e+00 7.3129471e-05 0.0000000e+00 
0.0000000e+00 9.0264621e-05 0.0000000e+00 
0.0000000e+00 9.5191208e-05 0.0000000e+00 
0.0000000e+00 8.5218890e-05 0.0000000e+00 
0.0000000e+00 6.2846382e-05 0.0000000e+00 
0.0000000e+00 3.4086530e-05 0.0000000e+00 
0.0000000e+00 6.0754405e-06 0.0000000e+00 
0.0000000e+00 -1.5078466e-05 0.0000000e+00 
0.0000000e+00 -2.7226519e-05 0.0000000e+00 
0.0000000e+00 -2.9634231e-05 0.0000000e+00 
0.0000000e+00 -2.2716280e-05 0.0000000e+00 
0.0000000e+00 -8.8132801e-06 0.0000000e+00 
0.0000000e+00 6.3563762e-06 0.0000000e+00 
0.0000000e+00 1.5676962e-05 0.0000000e+00 
0.0000000e+00 1.5882366e-05 0.0000000e+00 
0.0000000e+00 8.7206363e-06 0.0000000e+00 
0.0000000e+00 -6.2055710e-07 0.0000000e+00 
0.0000000e+00 -6.6735092e-06 0.0000000e+00 
0.0000000e+00 -7.6383631e-06 0.0000000e+00 
0.0000000e+00 -4.7667372e-06 0.0000000e+00 
0.0000000e+00 -6.5764215e-07 0.0000000e+00 
0.0000000e+00 2.2661202e-06 0.0000000e+00 
0.0000000e+00 3.0690896e-06 0.0000000e+00 
0.0000000e+00 2.3988637e-06 0.0000000e+00 
0.0000000e+00 1.4492077e-06 0.0000000e+00 
0.0000000e+00 8.5009970e-07 0.0000000e+00 
0.0000000e+00 4.1547997e-07 0.0000000e+00 
0.0000000e+00 -2.5272851e-07 0.0000000e+00 
0.0000000e+00 -1.0947488e-06 0.0000000e+00 
0.0000000e+00 -1.5697445e-06 0.0000000e+00 
0.0000000e+00 -1.2304569e-06 0.0000000e+00 
0.0000000e+00 -2.3304902e-07 0.0000000e+00 
0.0000000e+00 7.5349590e-07 0.0000000e+00 
0.0000000e+00 1.1202247e-06 0.0000000e+00 
0.0000000e+00 7.9122736e-07 0.0000000e+00 
0.0000000e+00 1.7724867e-07 0.0000000e+00 
0.0000000e+00 -2.6538845e-07 0.0000000e+00 
0.0000000e+00 -4.0210858e-07 0.0000000e+00 
0.0000000e+00 -3.9935199e-07 0.0000000e+00 
-1.2280976e-06 -4.0611621e-06 -7.7882385e-07 
8.8012933e-07 -2.4655918e-05 -1.1258712e-05 
0.0000000e+00 0.0000000e+00 0.0000000e+00 
0.0000000e+00 0.0000000e+00 0.0000000e+00 
0.0000000e+00 0.0000000e+00 0.0000000e+00 
0.0000000e+00 0.0000000e+00 0.0000000e+00 
0.0000000e+00 0.0000000e+00 0.0000000e+00 
0.0000000e+00 0.0000000e+00 0.0000000e+00 
0.0000000e+00 0.0000000e+00 0.0000000e+00 
0.0000000e+00 0.0000000e+00 0.0000000e+00 
0.0000000e+00 0.0000000e+00 0.0000000e+00 
0.0000000e+00 0.0000000e+00 0.0000000e+00 
0.0000000e+00 0.0000000e+00 0.0000000e+00 
0.0000000e+00 0.0000000e+00 0.0000000e+00 
0.0000000e+00 0.0000000e+00 0.0000000e+00 
0.0000000e+00 0.0000000e+00 0.0000000e+00 
0.0000000e+00 0.0000000e+00 0.0000000e+00 
0.0000000e+00 0.0000000e+00 0.0000000e+00 
0.0000000e+00 0.0000000e+00 0.0000000e+00 
0.0000000e+00 0.0000000e+00 0.0000000e+00 
0.0000000e+00 0.0000000e+00 0.0000000e+00 
0.0000000e+00 0.0000000e+00 0.0000000e+00 
0.0000000e+00 0.0000000e+00 0.0000000e+00 
0.0000000e+00 0.0000000e+00 0.0000000e+00 
0.0000000e+00 0.0000000e+00 0.0000000e+00 
0.0000000e+00 0.0000000e+00 0.0000000e+00 
0.0000000e+00 0.0000000e+00 0.0000000e+00 
0.0000000e+00 0.0000000e+00 0.0000000e+00 
0.0000000e+00 0.0000000e+00 0.0000000e+00 
0.0000000e+00 0.0000000e+00 0.0000000e+00 
0.0000000e+00 0.0000000e+00 0.0000000e+00 
0.0000000e+00 0.0000000e+00 0.0000000e+00 
0.0000000e+00 0.0000000e+00 0.0000000e+00 
0.0000000e+00 0.0000000e+00 0.0000000e+00 
0.0000000e+00 0.0000000e+00 0.0000000e+00 
0.0000000e+00 0.0000000e+00 0.0000000e+00 
0.0000000e+00 0.0000000e+00 0.0000000e+00 
0.0000000e+00 0.0000000e+00 0.0000000e+00 
0.0000000e+00 0.0000000e+00 0.0000000e+00 
0.0000000e+00 0.0000000e+00 0.0000000e+00 
0.0000000e+00 0.0000000e+00 0.0000000e+00 
0.0000000e+00 0.0000000e+00 0.0000000e+00 
0.0000000e+00 0.0000000e+00 0.0000000e+00 
0.0000000e+00 0.0000000e+00 0.0000000e+00 
2.8678684e-05 -4.8672928e-07 -2.3111208e-05 
5.7454119e-05 -4.4216440e-06 -1.4641100e-05 
3.9466850e-05 -7.5824460e-06 -5.9001701e-07 
1.1000322e-05 -9.7835473e-06 8.0467981e-07 
4.1492763e-06 -8.5302509e-06 1.1634466e-05 
-7.2732536e-07 4.4744843e-06 8.7797353e-06 
7.8567700e-06 6.3675420e-06 -6.3808052e-06 
3.0059398e-06 -2.6713221e-06 -1.2603138e-05 
5.6497629e-07 -5.7922935e-06 -3.2778573e-06 
1.1175600e-05 -9.5968053e-06 -4.3216096e-06 
3.3069824e-05 -1.7000214e-06 -3.9950223e-06 
4.7554931e-05 -7.0945720e-07 3.5511871e-07 
3.6260968e-05 -6.8390464e-06 1.5805350e-06 
1.1542008e-05 -1.4419832e-05 2.5869867e-06 
6.7442420e-06 -9.5045476e-07 8.2525667e-06 
2.2666429e-06 3.5015528e-06 9.2973223e-06 
1.4496548e-07 -1.1755565e-06 1.6308070e-06 
-6.1670295e-07 -1.7052428e-06 -1.3189718e-06 
3.5631402e-07 1.0664918e-06 3.0099275e-07 
0.0000000e+00 -1.9495562e-04 0.0000000e+00 
0.0000000e+00 -4.7214399e-04 0.0000000e+00 
0.0000000e+00 -5.2236213e-04 0.0000000e+00 
0.0000000e+00 -1.8699684e-04 0.0000000e+00 
0.0000000e+00 -2.5828356e-05 0.0000000e+00 
0.0000000e+00 3.8077655e-05 0.0000000e+00 
0.0000000e+00 1.6299442e-05 0.0000000e+00 
0.0000000e+00 3.0183228e-05 0.0000000e+00 
0.0000000e+00 -2.4085060e-05 0.0000000e+00 
0.0000000e+00 -3.6878988e-05 0.0000000e+00 
0.0000000e+00 -2.0034585e-04 0.0000000e+00 
0.0000000e+00 -4.7451668e-04 0.0000000e+00 
0.0000000e+00 -5.2821834e-04 0.0000000e+00 
0.0000000e+00 -1.8754581e-04 0.0000000e+00 
0.0000000e+00 -3.2268583e-06 0.0000000e+00 
0.0000000e+00 3.0585397e-05 0.0000000e+00 
0.0000000e+00 -4.3589730e-06 0.0000000e+00 
0.0000000e+00 -2.9242499e-06 0.0000000e+00 
0.0000000e+00 1.4217813e-06 0.0000000e+00 
1.9070527e-05 -1.2202171e-05 -2.1209105e-05 
1.8891176e-05 -3.3039192e-05 -3.2898955e-05 
-2.1160395e-07 -8.5165556e-07 -2.3710525e-07 
-2.7326595e-07 -1.4427353e-06 -5.0340003e-07 
2.8790681e-05 5.1045972e-06 -3.2516000e-05 
5.1617386e-05 7.1036243e-06 -1.2511352e-05 
3.3315751e-05 -6.2383822e-07 -2.5312610e-07 
5.1159627e-06 -6.4446735e-06 -5.4709045e-07 
5.2291870e-07 -1.3812965e-05 7.1079871e-06 
3.6034439e-06 7.6008737e-06 2.7508283e-06 
1.3571711e-05 1.1024387e-05 -1.9940001e-06 
-1.7917760e-06 -4.8018933e-06 -7.0524356e-06 
-7.4908785e-06 -8.1544467e-06 -6.2251561e-06 
1.6038699e-05 -1.1177402e-05 -9.4140978e-06 
3.4222736e-05 1.1996146e-06 -4.1849703e-06 
4.6288100e-05 2.6185439e-06 2.6432187e-06 
2.6086918e-05 -2.9191062e-06 1.1000715e-05 
-6.7181026e-07 -1.7726721e-05 -1.3318366e-07 
1.7724542e-06 -2.9962230e-06 1.5324179e-07 
4.3288705e-06 4.1657981e-06 1.0094996e-05 
2.2568488e-06 -3.8075439e-07 4.1576031e-06 
-7.7936477e-07 -1.9272477e-06 -4.7635081e-07 
8.1545835e-08 1.0389108e-06 -4.8146029e-07 
7.0173646e-06 -4.6741774e-05 -2.2181044e-05 
0.0000000e+00 -4.2408225e-04 0.0000000e+00 
0.0000000e+00 -1.0705182e-03 0.0000000e+00 
0.0000000e+00 -1.1737613e-03 0.0000000e+00 
0.0000000e+00 -3.5537162e-04 0.0000000e+00 
0.0000000e+00 -4.8191938e-05 0.0000000e+00 
0.0000000e+00 7.9608544e-05 0.0000000e+00 
0.0000000e+00 3.4197932e-05 0.0000000e+00 
0.0000000e+00 4.3635086e-05 0.0000000e+00 
0.0000000e+00 -5.2960520e-05 0.0000000e+00 
0.0000000e+00 -6.3138781e-05 0.0000000e+00 
0.0000000e+00 -4.4813045e-04 0.0000000e+00 
0.0000000e+00 -1.0646776e-03 0.0000000e+00 
0.0000000e+00 -1.1518325e-03 0.0000000e+00 
0.0000000e+00 -3.4894599e-04 0.0000000e+00 
0.0000000e+00 -1.3566139e-06 0.0000000e+00 
0.0000000e+00 5.8524438e-05 0.0000000e+00 
0.0000000e+00 -9.2324817e-06 0.0000000e+00 
0.0000000e+00 -9.0975736e-06 0.0000000e+00 
0.0000000e+00 6.5552331e-06 0.0000000e+00 
-2.9450027e-07 -2.3801028e-06 -5.1459278e-07 
-3.0801655e-04 -3.9501907e-04 2.7650970e-04 
-6.1144296e-04 -1.2971886e-03 1.3116178e-04 
-6.1156123e-04 -1.4144171e-03 -1.0384159e-04 
-1.7869269e-04 -3.0474801e-04 -2.2468898e-04 
3.9841184e-06 -6.7386267e-05 -1.4361137e-04 
2.0091540e-05 8.8153378e-05 2.9329099e-06 
3.8802955e-06 7.4116717e-05 -8.4071926e-06 
5.7226048e-06 -2.6468066e-05 1.0011910e-05 
8.7032413e-06 -1.0101819e-04 6.1812410e-05 
-1.3010915e-06 -3.9028135e-05 3.5207155e-05 
-2.7740849e-04 -4.3980338e-04 2.1259869e-04 
-6.5647106e-04 -1.1544771e-03 1.5613642e-04 
-6.1041687e-04 -1.3422730e-03 -5.1478561e-05 
-1.6557399e-04 -3.2305834e-04 -2.7384388e-04 
1.4909317e-05 -1.0032766e-05 -1.3043931e-04 
1.7443921e-05 5.5370343e-05 4.5258945e-05 
-9.1468992e-06 8.1609460e-06 2.1843654e-05 
2.3224315e-08 -1.9979132e-05 -1.3876582e-05 
1.3588531e-06 1.3774898e-05 7.1445575e-06 
0.0000000e+00 -7.4719364e-04 0.0000000e+00 
0.0000000e+00 -2.1569990e-03 0.0000000e+00 
0.0000000e+00 -2.2232272e-03 0.0000000e+00 
0.0000000e+00 -6.0136418e-04 0.0000000e+00 
0.0000000e+00 -6.0234448e-05 0.0000000e+00 
0.0000000e+00 1.3122796e-04 0.0000000e+00 
0.0000000e+00 6.7733046e-05 0.0000000e+00 
0.0000000e+00 4.0668860e-05 0.0000000e+00 
0.0000000e+00 -1.0033766e-04 0.0000000e+00 
0.0000000e+00 -6.8508692e-05 0.0000000e+00 
0.0000000e+00 -8.7679923e-04 0.0000000e+00 
0.0000000e+00 -2.1455039e-03 0.0000000e+00 
0.0000000e+00 -2.1560355e-03 0.0000000e+00 
0.0000000e+00 -5.7031639e-04 0.0000000e+00 
0.0000000e+00 1.3760268e-05 0.0000000e+00 
0.0000000e+00 8.9550806e-05 0.0000000e+00 
0.0000000e+00 -8.2981865e-07 0.0000000e+00 
0.0000000e+00 -2.0091569e-05 0.0000000e+00 
0.0000000e+00 1.3154344e-05 0.0000000e+00 
3.0925705e-05 -1.3030198e-05 -7.4134668e-06 
7.0174472e-05 -1.1243871e-04 1.4978688e-05 
6.9053916e-05 -9.4543284e-05 1.0895601e-05 
2.5877345e-05 -5.7598660e-05 -1.0283713e-05 
-1.3349162e-05 -1.1127977e-05 -1.5177073e-05 
1.1661198e-05 2.1007178e-05 -4.1484172e-06 
9.0242856e-06 1.7038114e-05 -7.6019410e-06 
-4.5952497e-06 -2.0718464e-05 5.6166817e-07 
-7.7893701e-06 -3.8511065e-05 1.1612095e-05 
1.5006490e-05 -3.6337260e-06 6.5776312e-06 
5.9379861e-05 -3.1343814e-05 -1.4516869e-06 
7.6588789e-05 -4.0578645e-05 5.5528576e-06 
4.1667878e-05 -7.0603841e-05 1.7180875e-05 
2.1441521e-05 -6.5800021e-05 -1.6067974e-05 
-1.1078941e-05 -6.9005623e-06 -1.5901649e-05 
5.3299336e-06 1.3467271e-05 7.7139748e-06 
9.3127397e-07 2.9096273e-06 9.7148622e-06 
9.2382675e-07 2.9843727e-06 -9.0116993e-07 
2.1141782e-06 -1.4741718e-05 -7.7528575e-06 
0.0000000e+00 0.0000000e+00 0.0000000e+00 
0.0000000e+00 0.0000000e+00 0.0000000e+00 
0.0000000e+00 0.0000000e+00 0.0000000e+00 
0.0000000e+00 0.0000000e+00 0.0000000e+00 
0.0000000e+00 0.0000000e+00 0.0000000e+00 
0.0000000e+00 0.0000000e+00 0.0000000e+00 
0.0000000e+00 0.0000000e+00 0.0000000e+00 
0.0000000e+00 0.0000000e+00 0.0000000e+00 
0.0000000e+00 0.0000000e+00 0.0000000e+00 
0.0000000e+00 0.0000000e+00 0.0000000e+00 
0.0000000e+00 0.0000000e+00 0.0000000e+00 
0.0000000e+00 0.0000000e+00 0.0000000e+00 
0.0000000e+00 0.0000000e+00 0.0000000e+00 
0.0000000e+00 0.0000000e+00 0.0000000e+00 
0.0000000e+00 0.0000000e+00 0.0000000e+00 
0.0000000e+00 0.0000000e+00 0.0000000e+00 
0.0000000e+00 0.0000000e+00 0.0000000e+00 
0.0000000e+00 0.0000000e+00 0.0000000e+00 
0.0000000e+00 0.0000000e+00 0.0000000e+00 
0.0000000e+00 0.0000000e+00 0.0000000e+00 
0.0000000e+00 0.0000000e+00 0.0000000e+00 
0.0000000e+00 0.0000000e+00 0.0000000e+00 
0.0000000e+00 0.0000000e+00 0.0000000e+00 
0.0000000e+00 0.0000000e+00 0.0000000e+00 
0.0000000e+00 0.0000000e+00 0.0000000e+00 
0.0000000e+00 0.0000000e+00 0.0000000e+00 
0.0000000e+00 0.0000000e+00 0.0000000e+00 
0.0000000e+00 0.0000000e+00 0.0000000e+00 
0.0000000e+00 0.0000000e+00 0.0000000e+00 
0.0000000e+00 0.0000000e+00 0.0000000e+00 
0.0000000e+00 0.0000000e+00 0.0000000e+00 
0.0000000e+00 0.0000000e+00 0.0000000e+00 
0.0000000e+00 0.0000000e+00 0.0000000e+00 
0.0000000e+00 0.0000000e+00 0.0000000e+00 
0.0000000e+00 0.0000000e+00 0.0000000e+00 
0.0000000e+00 0.0000000e+00 0.0000000e+00 
0.0000000e+00 0.0000000e+00 0.0000000e+00 
0.0000000e+00 0.0000000e+00 0.0000000e+00 
0.0000000e+00 0.0000000e+00 0.0000000e+00 
0.0000000e+00 0.0000000e+00 0.0000000e+00 
0.0000000e+00 0.0000000e+00 0.0000000e+00 
0.0000000e+00 0.0000000e+00 0.0000000e+00 
3.3160090e-05 -9.8550263e-06 -7.6591868e-06 
1.2240893e-06 1.2066183e-06 1.0541726e-06 
2.6397536e-06 4.0789325e-07 -5.1125817e-06 
2.2933487e-05 -4.7644435e-06 -1.4214663e-07 
1.8858611e-05 -1.0535598e-05 5.6474431e-07 
1.5443276e-05 -1.0348091e-05 -5.6286694e-07 
5.1438296e-06 -4.5000857e-06 3.9890310e-06 
2.6482851e-06 9.9721626e-07 4.4453577e-06 