# vtk DataFile Version 4.0
vtk output
ASCII
DATASET UNSTRUCTURED_GRID
POINTS 661 float
0.0000000e+00 0.0000000e+00 0.0000000e+00 
0.0000000e+00 0.0000000e+00 4.0000000e+01 
5.0000000e+00 0.0000000e+00 0.0000000e+00 
5.0000000e+00 0.0000000e+00 4.0000000e+01 
5.0000000e+00 1.0000000e+00 0.0000000e+00 
5.0000000e+00 1.0000000e+00 4.0000000e+01 
0.0000000e+00 1.0000000e+00 0.0000000e+00 
0.0000000e+00 1.0000000e+00 4.0000000e+01 
5.0000000e+00 2.0000000e+00 0.0000000e+00 
5.0000000e+00 2.0000000e+00 4.0000000e+01 
3.0000000e+00 2.0000000e+00 0.0000000e+00 
3.0000000e+00 2.0000000e+00 4.0000000e+01 
0.0000000e+00 2.0000000e+00 0.0000000e+00 
0.0000000e+00 2.0000000e+00 4.0000000e+01 
1.5000000e+00 3.0000000e+00 0.0000000e+00 
1.5000000e+00 3.0000000e+00 4.0000000e+01 
7.5000000e-01 3.0000000e+00 0.0000000e+00 
7.5000000e-01 3.0000000e+00 4.0000000e+01 
0.0000000e+00 3.0000000e+00 0.0000000e+00 
0.0000000e+00 3.0000000e+00 4.0000000e+01 
7.5000000e-01 3.0000000e+00 5.0000000e-01 
7.5000000e-01 3.0000000e+00 1.0000000e+00 
7.5000000e-01 3.0000000e+00 1.5000000e+00 
7.5000000e-01 3.0000000e+00 2.0000000e+00 
7.5000000e-01 3.0000000e+00 2.5000000e+00 
7.5000000e-01 3.0000000e+00 3.0000000e+00 
7.5000000e-01 3.0000000e+00 3.5000000e+00 
7.5000000e-01 3.0000000e+00 4.0000000e+00 
7.5000000e-01 3.0000000e+00 4.5000000e+00 
7.5000000e-01 3.0000000e+00 5.0000000e+00 
7.5000000e-01 3.0000000e+00 5.5000000e+00 
7.5000000e-01 3.0000000e+00 6.0000000e+00 
7.5000000e-01 3.0000000e+00 6.5000000e+00 
7.5000000e-01 3.0000000e+00 7.0000000e+00 
7.5000000e-01 3.0000000e+00 7.5000000e+00 
7.5000000e-01 3.0000000e+00 8.0000000e+00 
7.5000000e-01 3.0000000e+00 8.5000000e+00 
7.5000000e-01 3.0000000e+00 9.0000000e+00 
7.5000000e-01 3.0000000e+00 9.5000000e+00 
7.5000000e-01 3.0000000e+00 1.0000000e+01 
7.5000000e-01 3.0000000e+00 1.0500000e+01 
7.5000000e-01 3.0000000e+00 1.1000000e+01 
7.5000000e-01 3.0000000e+00 1.1500000e+01 
7.5000000e-01 3.0000000e+00 1.2000000e+01 
7.5000000e-01 3.0000000e+00 1.2500000e+01 
7.5000000e-01 3.0000000e+00 1.3000000e+01 
7.5000000e-01 3.0000000e+00 1.3500000e+01 
7.5000000e-01 3.0000000e+00 1.4000000e+01 
7.5000000e-01 3.0000000e+00 1.4500000e+01 
7.5000000e-01 3.0000000e+00 1.5000000e+01 
7.5000000e-01 3.0000000e+00 1.5500000e+01 
7.5000000e-01 3.0000000e+00 1.6000000e+01 
7.5000000e-01 3.0000000e+00 1.6500000e+01 
7.5000000e-01 3.0000000e+00 1.7000000e+01 
7.5000000e-01 3.0000000e+00 1.7500000e+01 
7.5000000e-01 3.0000000e+00 1.8000000e+01 
7.5000000e-01 3.0000000e+00 1.8500000e+01 
7.5000000e-01 3.0000000e+00 1.9000000e+01 
7.5000000e-01 3.0000000e+00 1.9500000e+01 
7.5000000e-01 3.0000000e+00 2.0000000e+01 
7.5000000e-01 3.0000000e+00 2.0500000e+01 
7.5000000e-01 3.0000000e+00 2.1000000e+01 
7.5000000e-01 3.0000000e+00 2.1500000e+01 
7.5000000e-01 3.0000000e+00 2.2000000e+01 
7.5000000e-01 3.0000000e+00 2.2500000e+01 
7.5000000e-01 3.0000000e+00 2.3000000e+01 
7.5000000e-01 3.0000000e+00 2.3500000e+01 
7.5000000e-01 3.0000000e+00 2.4000000e+01 
7.5000000e-01 3.0000000e+00 2.4500000e+01 
7.5000000e-01 3.0000000e+00 2.5000000e+01 
7.5000000e-01 3.0000000e+00 2.5500000e+01 
7.5000000e-01 3.0000000e+00 2.6000000e+01 
7.5000000e-01 3.0000000e+00 2.6500000e+01 
7.5000000e-01 3.0000000e+00 2.7000000e+01 
7.5000000e-01 3.0000000e+00 2.7500000e+01 
7.5000000e-01 3.0000000e+00 2.8000000e+01 
7.5000000e-01 3.0000000e+00 2.8500000e+01 
7.5000000e-01 3.0000000e+00 2.9000000e+01 
7.5000000e-01 3.0000000e+00 2.9500000e+01 
7.5000000e-01 3.0000000e+00 3.0000000e+01 
7.5000000e-01 3.0000000e+00 3.0500000e+01 
7.5000000e-01 3.0000000e+00 3.1000000e+01 
7.5000000e-01 3.0000000e+00 3.1500000e+01 
7.5000000e-01 3.0000000e+00 3.2000000e+01 
7.5000000e-01 3.0000000e+00 3.2500000e+01 
7.5000000e-01 3.0000000e+00 3.3000000e+01 
7.5000000e-01 3.0000000e+00 3.3500000e+01 
7.5000000e-01 3.0000000e+00 3.4000000e+01 
7.5000000e-01 3.0000000e+00 3.4500000e+01 
7.5000000e-01 3.0000000e+00 3.5000000e+01 
7.5000000e-01 3.0000000e+00 3.5500000e+01 
7.5000000e-01 3.0000000e+00 3.6000000e+01 
7.5000000e-01 3.0000000e+00 3.6500000e+01 
7.5000000e-01 3.0000000e+00 3.7000000e+01 
7.5000000e-01 3.0000000e+00 3.7500000e+01 
7.5000000e-01 3.0000000e+00 3.8000000e+01 
7.5000000e-01 3.0000000e+00 3.8500000e+01 
7.5000000e-01 3.0000000e+00 3.9000000e+01 
7.5000000e-01 3.0000000e+00 3.9500000e+01 
7.5000000e-01 3.0000000e+00 4.0500000e+01 
7.5000000e-01 3.0000000e+00 4.1000000e+01 
7.5000000e-01 3.0000000e+00 4.1500000e+01 
7.5000000e-01 3.0000000e+00 4.2000000e+01 
7.5000000e-01 3.0000000e+00 4.2500000e+01 
7.5000000e-01 3.0000000e+00 4.3000000e+01 
7.5000000e-01 3.0000000e+00 4.3500000e+01 
7.5000000e-01 3.0000000e+00 4.4000000e+01 
7.5000000e-01 3.0000000e+00 4.4500000e+01 
7.5000000e-01 3.0000000e+00 4.5000000e+01 
7.5000000e-01 3.0000000e+00 4.5500000e+01 
7.5000000e-01 3.0000000e+00 4.6000000e+01 
7.5000000e-01 3.0000000e+00 4.6500000e+01 
7.5000000e-01 3.0000000e+00 4.7000000e+01 
7.5000000e-01 3.0000000e+00 4.7500000e+01 
7.5000000e-01 3.0000000e+00 4.8000000e+01 
7.5000000e-01 3.0000000e+00 4.8500000e+01 
7.5000000e-01 3.0000000e+00 4.9000000e+01 
7.5000000e-01 3.0000000e+00 4.9500000e+01 
7.5000000e-01 3.0000000e+00 5.0000000e+01 
7.5000000e-01 3.0250001e+00 0.0000000e+00 
7.5000000e-01 3.0250001e+00 5.0000000e-01 
7.5000000e-01 3.0250001e+00 1.0000000e+00 
7.5000000e-01 3.0250001e+00 1.5000000e+00 
7.5000000e-01 3.0250001e+00 2.0000000e+00 
7.5000000e-01 3.0250001e+00 2.5000000e+00 
7.5000000e-01 3.0250001e+00 3.0000000e+00 
7.5000000e-01 3.0250001e+00 3.5000000e+00 
7.5000000e-01 3.0250001e+00 4.0000000e+00 
7.5000000e-01 3.0250001e+00 4.5000000e+00 
7.5000000e-01 3.0250001e+00 5.0000000e+00 
7.5000000e-01 3.0250001e+00 5.5000000e+00 
7.5000000e-01 3.0250001e+00 6.0000000e+00 
7.5000000e-01 3.0250001e+00 6.5000000e+00 
7.5000000e-01 3.0250001e+00 7.0000000e+00 
7.5000000e-01 3.0250001e+00 7.5000000e+00 
7.5000000e-01 3.0250001e+00 8.0000000e+00 
7.5000000e-01 3.0250001e+00 8.5000000e+00 
7.5000000e-01 3.0250001e+00 9.0000000e+00 
7.5000000e-01 3.0250001e+00 9.5000000e+00 
7.5000000e-01 3.0250001e+00 1.0000000e+01 
7.5000000e-01 3.0250001e+00 1.0500000e+01 
7.5000000e-01 3.0250001e+00 1.1000000e+01 
7.5000000e-01 3.0250001e+00 1.1500000e+01 
7.5000000e-01 3.0250001e+00 1.2000000e+01 
7.5000000e-01 3.0250001e+00 1.2500000e+01 
7.5000000e-01 3.0250001e+00 1.3000000e+01 
7.5000000e-01 3.0250001e+00 1.3500000e+01 
7.5000000e-01 3.0250001e+00 1.4000000e+01 
7.5000000e-01 3.0250001e+00 1.4500000e+01 
7.5000000e-01 3.0250001e+00 1.5000000e+01 
7.5000000e-01 3.0250001e+00 1.5500000e+01 
7.5000000e-01 3.0250001e+00 1.6000000e+01 
7.5000000e-01 3.0250001e+00 1.6500000e+01 
7.5000000e-01 3.0250001e+00 1.7000000e+01 
7.5000000e-01 3.0250001e+00 1.7500000e+01 
7.5000000e-01 3.0250001e+00 1.8000000e+01 
7.5000000e-01 3.0250001e+00 1.8500000e+01 
7.5000000e-01 3.0250001e+00 1.9000000e+01 
7.5000000e-01 3.0250001e+00 1.9500000e+01 
7.5000000e-01 3.0250001e+00 2.0000000e+01 
7.5000000e-01 3.0250001e+00 2.0500000e+01 
7.5000000e-01 3.0250001e+00 2.1000000e+01 
7.5000000e-01 3.0250001e+00 2.1500000e+01 
7.5000000e-01 3.0250001e+00 2.2000000e+01 
7.5000000e-01 3.0250001e+00 2.2500000e+01 
7.5000000e-01 3.0250001e+00 2.3000000e+01 
7.5000000e-01 3.0250001e+00 2.3500000e+01 
7.5000000e-01 3.0250001e+00 2.4000000e+01 
7.5000000e-01 3.0250001e+00 2.4500000e+01 
7.5000000e-01 3.0250001e+00 2.5000000e+01 
7.5000000e-01 3.0250001e+00 2.5500000e+01 
7.5000000e-01 3.0250001e+00 2.6000000e+01 
7.5000000e-01 3.0250001e+00 2.6500000e+01 
7.5000000e-01 3.0250001e+00 2.7000000e+01 
7.5000000e-01 3.0250001e+00 2.7500000e+01 
7.5000000e-01 3.0250001e+00 2.8000000e+01 
7.5000000e-01 3.0250001e+00 2.8500000e+01 
7.5000000e-01 3.0250001e+00 2.9000000e+01 
7.5000000e-01 3.0250001e+00 2.9500000e+01 
7.5000000e-01 3.0250001e+00 3.0000000e+01 
7.5000000e-01 3.0250001e+00 3.0500000e+01 
7.5000000e-01 3.0250001e+00 3.1000000e+01 
7.5000000e-01 3.0250001e+00 3.1500000e+01 
7.5000000e-01 3.0250001e+00 3.2000000e+01 
7.5000000e-01 3.0250001e+00 3.2500000e+01 
7.5000000e-01 3.0250001e+00 3.3000000e+01 
7.5000000e-01 3.0250001e+00 3.3500000e+01 
7.5000000e-01 3.0250001e+00 3.4000000e+01 
7.5000000e-01 3.0250001e+00 3.4500000e+01 
7.5000000e-01 3.0250001e+00 3.5000000e+01 
7.5000000e-01 3.0250001e+00 3.5500000e+01 
7.5000000e-01 3.0250001e+00 3.6000000e+01 
7.5000000e-01 3.0250001e+00 3.6500000e+01 
7.5000000e-01 3.0250001e+00 3.7000000e+01 
7.5000000e-01 3.0250001e+00 3.7500000e+01 
7.5000000e-01 3.0250001e+00 3.8000000e+01 
7.5000000e-01 3.0250001e+00 3.8500000e+01 
7.5000000e-01 3.0250001e+00 3.9000000e+01 
7.5000000e-01 3.0250001e+00 3.9500000e+01 
7.5000000e-01 3.0250001e+00 4.0000000e+01 
7.5000000e-01 3.0250001e+00 4.0500000e+01 
7.5000000e-01 3.0250001e+00 4.1000000e+01 
7.5000000e-01 3.0250001e+00 4.1500000e+01 
7.5000000e-01 3.0250001e+00 4.2000000e+01 
7.5000000e-01 3.0250001e+00 4.2500000e+01 
7.5000000e-01 3.0250001e+00 4.3000000e+01 
7.5000000e-01 3.0250001e+00 4.3500000e+01 
7.5000000e-01 3.0250001e+00 4.4000000e+01 
7.5000000e-01 3.0250001e+00 4.4500000e+01 
7.5000000e-01 3.0250001e+00 4.5000000e+01 
7.5000000e-01 3.0250001e+00 4.5500000e+01 
7.5000000e-01 3.0250001e+00 4.6000000e+01 
7.5000000e-01 3.0250001e+00 4.6500000e+01 
7.5000000e-01 3.0250001e+00 4.7000000e+01 
7.5000000e-01 3.0250001e+00 4.7500000e+01 
7.5000000e-01 3.0250001e+00 4.8000000e+01 
7.5000000e-01 3.0250001e+00 4.8500000e+01 
7.5000000e-01 3.0250001e+00 4.9000000e+01 
7.5000000e-01 3.0250001e+00 4.9500000e+01 
7.5000000e-01 3.0250001e+00 5.0000000e+01 
3.0000000e+00 2.0000000e+00 3.6000000e+01 
8.0487806e-01 3.0000000e+00 3.6000000e+01 
0.0000000e+00 0.0000000e+00 2.0000000e+00 
0.0000000e+00 0.0000000e+00 4.0000000e+00 
0.0000000e+00 0.0000000e+00 6.0000000e+00 
0.0000000e+00 0.0000000e+00 8.0000000e+00 
0.0000000e+00 0.0000000e+00 1.0000000e+01 
0.0000000e+00 0.0000000e+00 1.2000000e+01 
0.0000000e+00 0.0000000e+00 1.4000000e+01 
0.0000000e+00 0.0000000e+00 1.6000000e+01 
[...]
POINT_DATA 661
FIELD FieldData 3
DISPLACEMENT 3 661  float
0.0000000e+00 0.0000000e+00 0.0000000e+00 
0.0000000e+00 0.0000000e+00 0.0000000e+00 
0.0000000e+00 0.0000000e+00 0.0000000e+00 
0.0000000e+00 0.0000000e+00 0.0000000e+00 
-1.7276649e-06 -4.2914817e-06 -1.1036526e-07 
4.8704567e-07 9.9086674e-07 1.5180781e-06 
0.0000000e+00 2.9381563e-05 0.0000000e+00 
0.0000000e+00 -1.0885216e-05 0.0000000e+00 
-4.2025240e-06 -3.5658159e-09 -4.3003351e-06 
-2.5168285e-06 2.4238063e-06 -8.8305313e-07 
-4.7775484e-06 -1.2227697e-05 -7.7338327e-06 
-1.0461470e-06 -3.5247790e-06 -5.2411588e-06 
0.0000000e+00 9.8926785e-06 0.0000000e+00 
0.0000000e+00 -1.9021662e-05 0.0000000e+00 
1.4604042e-05 2.3653365e-05 -4.5191555e-05 
-1.0064401e-05 -1.4012860e-05 -3.4333818e-05 
1.4028331e-05 9.6197422e-05 -1.5767810e-05 
4.3152786e-06 -2.8469745e-05 -4.3308872e-05 
0.0000000e+00 -3.7984260e-06 0.0000000e+00 
0.0000000e+00 -2.3852002e-05 0.0000000e+00 
3.5307858e-05 9.4422299e-05 -5.3605956e-05 
3.2912740e-05 9.3550036e-05 -4.0327457e-05 
4.7566315e-05 9.5383242e-05 -3.9562114e-05 
5.4149361e-05 1.1777628e-04 -2.4733174e-05 
3.5332490e-05 1.6462959e-04 4.3720570e-06 
7.9358717e-05 2.1632899e-04 -5.4219836e-06 
2.9320319e-05 2.6696705e-04 7.1726761e-05 
3.0902313e-05 2.2032313e-04 4.2911382e-05 
-1.2385543e-05 3.7595139e-05 9.7744298e-05 
4.7219901e-06 -2.5313188e-04 1.4331480e-04 
-7.1541566e-05 -6.6796993e-04 1.6712942e-04 
-8.8169632e-05 -1.2702389e-03 1.4328395e-04 
-2.2475145e-04 -2.1493691e-03 2.0709715e-04 
-2.7066609e-04 -3.1851681e-03 2.1402996e-04 
-1.4288808e-04 -4.0698568e-03 1.4008956e-04 
-1.3432233e-04 -4.1650957e-03 1.1938193e-04 
-2.5722527e-04 -3.9862213e-03 4.9240185e-05 
-3.5379903e-04 -3.9523169e-03 3.7524671e-06 
-2.2520206e-04 -4.2370367e-03 -5.4948065e-05 
-7.3791300e-05 -4.3132948e-03 -1.1599543e-04 
-9.5634125e-05 -3.6233219e-03 -1.9019104e-04 
-1.9127720e-04 -2.5461006e-03 -2.1023024e-04 
-1.9089480e-04 -1.5824767e-03 -1.8862414e-04 
-6.4475986e-05 -8.4853399e-04 -1.1382308e-04 
-3.0089563e-05 -3.8421238e-04 -1.3374077e-04 
-6.9197399e-06 -1.0857041e-04 -8.8162982e-05 
-1.5312700e-05 4.1217318e-05 -4.8520982e-05 
-1.1998933e-05 9.5338997e-05 -1.5289790e-05 
-2.8013196e-07 7.2494760e-05 -1.3193591e-05 
-6.5832778e-06 1.2982228e-05 9.6933081e-06 
-3.5479400e-06 -4.2879681e-05 4.6230189e-06 
-1.2672483e-05 -8.1640886e-05 -8.6165801e-06 
-3.0672458e-05 -1.0203150e-04 2.0593558e-05 
-1.1145835e-05 -1.1216733e-04 2.6216856e-05 
-5.2642852e-05 -1.2262420e-04 4.1801719e-05 
-4.2527692e-05 -1.3018683e-04 7.8694917e-05 
-5.7642494e-05 -1.3301507e-04 7.0517453e-05 
-6.0228376e-05 -1.2608743e-04 1.7972588e-05 
-2.5657018e-05 -1.1270888e-04 -1.0386376e-05 
-2.8089238e-05 -8.2926854e-05 -4.5913235e-05 
3.4047080e-05 -3.9462411e-05 -1.0290856e-04 
-1.8006066e-06 2.6757020e-06 -7.1251881e-05 
6.0300532e-05 4.8862326e-05 -5.0669390e-05 
2.9532501e-05 7.6454751e-05 -8.4413252e-05 
2.4403138e-05 9.6413052e-05 -2.8922996e-05 
8.1684149e-05 1.3566496e-04 -9.6891008e-06 
8.5666879e-06 1.9830152e-04 -9.3177541e-06 
4.3149452e-05 1.9923502e-04 4.9185237e-05 
-1.8079110e-05 4.6581383e-05 7.3809832e-05 
-2.6207941e-05 -2.8334549e-04 1.0112456e-04 
-4.7464371e-05 -8.1205775e-04 1.2930282e-04 
-8.5585714e-05 -1.4932613e-03 7.8547462e-05 
-1.9214083e-04 -2.3375063e-03 1.5734964e-04 
-2.5113983e-04 -3.2362828e-03 1.7074963e-04 
-1.1091897e-04 -3.9482946e-03 1.4433902e-04 
-1.1226356e-04 -3.9845090e-03 1.6063756e-04 
-2.5604444e-04 -3.8516272e-03 1.3581123e-04 
-3.0382854e-04 -3.8562375e-03 9.0512338e-05 
-2.1006013e-04 -4.0767286e-03 5.2305495e-05 
-7.3000592e-05 -4.0155752e-03 3.1732987e-05 
-1.1894435e-04 -3.2831465e-03 -1.0154309e-04 
-2.1728450e-04 -2.2774017e-03 -1.6292262e-04 
-2.1358150e-04 -1.4308043e-03 -1.8423861e-04 
-9.7950964e-05 -7.9355849e-04 -1.5815521e-04 
-5.4448235e-05 -3.6747858e-04 -2.0114992e-04 
-2.9027884e-05 -1.0427921e-04 -1.7014463e-04 
-1.7996259e-05 3.0819494e-05 -1.5586671e-04 
2.7348394e-06 8.3926025e-05 -1.3359364e-04 
2.4147979e-05 9.9304270e-05 -8.8542307e-05 
3.8527607e-05 1.0187156e-04 -4.2175776e-05 
3.3986013e-05 9.4383933e-05 -8.7248018e-06 
2.5424619e-05 7.5457698e-05 2.5667190e-05 
1.9613672e-05 5.0889645e-05 4.7101636e-05 
1.3183911e-05 2.8558117e-05 5.8381040e-05 
3.0896833e-06 9.7649736e-06 6.9593414e-05 
-7.6342849e-06 -7.4078885e-06 6.5384025e-05 
-1.1915994e-05 -2.1893293e-05 4.7124500e-05 
-1.5828764e-05 -3.0354622e-05 2.2359898e-05 
-1.1779917e-05 -3.1632244e-05 -2.5193847e-06 
0.0000000e+00 -2.3973518e-05 0.0000000e+00 
0.0000000e+00 -1.6997212e-05 0.0000000e+00 
0.0000000e+00 -5.8306091e-06 0.0000000e+00 
0.0000000e+00 8.8792449e-06 0.0000000e+00 
0.0000000e+00 2.3128778e-05 0.0000000e+00 
0.0000000e+00 3.2196942e-05 0.0000000e+00 
0.0000000e+00 3.3796390e-05 0.0000000e+00 
0.0000000e+00 2.8566787e-05 0.0000000e+00 
0.0000000e+00 1.8259068e-05 0.0000000e+00 
0.0000000e+00 4.3852897e-06 0.0000000e+00 
0.0000000e+00 -1.1286407e-05 0.0000000e+00 
0.0000000e+00 -2.5809944e-05 0.0000000e+00 
0.0000000e+00 -3.5553810e-05 0.0000000e+00 
0.0000000e+00 -3.7843438e-05 0.0000000e+00 
0.0000000e+00 -3.2004911e-05 0.0000000e+00 
0.0000000e+00 -1.9086112e-05 0.0000000e+00 
0.0000000e+00 -1.3165309e-06 0.0000000e+00 
0.0000000e+00 1.7717724e-05 0.0000000e+00 
0.0000000e+00 3.2915712e-05 0.0000000e+00 
0.0000000e+00 3.8900977e-05 0.0000000e+00 
0.0000000e+00 9.6427713e-05 0.0000000e+00 
0.0000000e+00 9.4710347e-05 0.0000000e+00 
0.0000000e+00 9.2490794e-05 0.0000000e+00 
0.0000000e+00 9.5285795e-05 0.0000000e+00 
0.0000000e+00 1.1822236e-04 0.0000000e+00 
0.0000000e+00 1.6446966e-04 0.0000000e+00 
0.0000000e+00 2.2188885e-04 0.0000000e+00 
0.0000000e+00 2.6489462e-04 0.0000000e+00 
0.0000000e+00 2.1649498e-04 0.0000000e+00 
0.0000000e+00 3.8934730e-05 0.0000000e+00 
0.0000000e+00 -2.5142459e-04 0.0000000e+00 
0.0000000e+00 -6.6629716e-04 0.0000000e+00 
0.0000000e+00 -1.2784697e-03 0.0000000e+00 
0.0000000e+00 -2.1592886e-03 0.0000000e+00 
0.0000000e+00 -3.2226383e-03 0.0000000e+00 
0.0000000e+00 -4.0916954e-03 0.0000000e+00 
0.0000000e+00 -4.1897455e-03 0.0000000e+00 
0.0000000e+00 -3.9995615e-03 0.0000000e+00 
0.0000000e+00 -3.9867964e-03 0.0000000e+00 
0.0000000e+00 -4.2599374e-03 0.0000000e+00 
0.0000000e+00 -4.3463591e-03 0.0000000e+00 
0.0000000e+00 -3.6399141e-03 0.0000000e+00 
0.0000000e+00 -2.5658850e-03 0.0000000e+00 
0.0000000e+00 -1.5863312e-03 0.0000000e+00 
0.0000000e+00 -8.5344445e-04 0.0000000e+00 
0.0000000e+00 -3.8326401e-04 0.0000000e+00 
0.0000000e+00 -1.0695595e-04 0.0000000e+00 
0.0000000e+00 4.1925592e-05 0.0000000e+00 
0.0000000e+00 9.4799652e-05 0.0000000e+00 
0.0000000e+00 7.2640178e-05 0.0000000e+00 
0.0000000e+00 1.3884905e-05 0.0000000e+00 
0.0000000e+00 -4.2552823e-05 0.0000000e+00 
0.0000000e+00 -8.0900703e-05 0.0000000e+00 
0.0000000e+00 -1.0161105e-04 0.0000000e+00 
0.0000000e+00 -1.1299679e-04 0.0000000e+00 
0.0000000e+00 -1.2269584e-04 0.0000000e+00 
0.0000000e+00 -1.3036589e-04 0.0000000e+00 
0.0000000e+00 -1.3270826e-04 0.0000000e+00 
0.0000000e+00 -1.2670422e-04 0.0000000e+00 
0.0000000e+00 -1.1225471e-04 0.0000000e+00 
0.0000000e+00 -8.2505154e-05 0.0000000e+00 
0.0000000e+00 -4.0132167e-05 0.0000000e+00 
0.0000000e+00 4.6889249e-06 0.0000000e+00 
0.0000000e+00 4.6962159e-05 0.0000000e+00 
0.0000000e+00 7.4684336e-05 0.0000000e+00 
0.0000000e+00 9.7443808e-05 0.0000000e+00 
0.0000000e+00 1.4034892e-04 0.0000000e+00 
0.0000000e+00 1.9965450e-04 0.0000000e+00 
0.0000000e+00 1.9685671e-04 0.0000000e+00 
0.0000000e+00 4.5932429e-05 0.0000000e+00 
0.0000000e+00 -2.8790039e-04 0.0000000e+00 
0.0000000e+00 -8.1014383e-04 0.0000000e+00 
0.0000000e+00 -1.4980400e-03 0.0000000e+00 
0.0000000e+00 -2.3464151e-03 0.0000000e+00 
0.0000000e+00 -3.2735616e-03 0.0000000e+00 
0.0000000e+00 -3.9729332e-03 0.0000000e+00 
0.0000000e+00 -4.0130801e-03 0.0000000e+00 
0.0000000e+00 -3.8640071e-03 0.0000000e+00 
0.0000000e+00 -3.8858496e-03 0.0000000e+00 
0.0000000e+00 -4.0972605e-03 0.0000000e+00 
0.0000000e+00 -4.0495335e-03 0.0000000e+00 
0.0000000e+00 -3.3008689e-03 0.0000000e+00 
0.0000000e+00 -2.2955507e-03 0.0000000e+00 
0.0000000e+00 -1.4326518e-03 0.0000000e+00 
0.0000000e+00 -7.9549203e-04 0.0000000e+00 
0.0000000e+00 -3.6709075e-04 0.0000000e+00 
0.0000000e+00 -1.0464635e-04 0.0000000e+00 
0.0000000e+00 3.1250205e-05 0.0000000e+00 
0.0000000e+00 8.5142441e-05 0.0000000e+00 
0.0000000e+00 1.0029181e-04 0.0000000e+00 
0.0000000e+00 1.0187889e-04 0.0000000e+00 
0.0000000e+00 9.4064912e-05 0.0000000e+00 
0.0000000e+00 7.5509408e-05 0.0000000e+00 
0.0000000e+00 5.1248298e-05 0.0000000e+00 
0.0000000e+00 2.8599903e-05 0.0000000e+00 
0.0000000e+00 9.5720243e-06 0.0000000e+00 
0.0000000e+00 -7.4244535e-06 0.0000000e+00 
0.0000000e+00 -2.1708011e-05 0.0000000e+00 
0.0000000e+00 -3.0220939e-05 0.0000000e+00 
0.0000000e+00 -3.1708987e-05 0.0000000e+00 
0.0000000e+00 -2.8705304e-05 0.0000000e+00 
0.0000000e+00 -2.3954455e-05 0.0000000e+00 
0.0000000e+00 -1.6835846e-05 0.0000000e+00 
0.0000000e+00 -5.6851668e-06 0.0000000e+00 
0.0000000e+00 8.8671159e-06 0.0000000e+00 
0.0000000e+00 2.2993241e-05 0.0000000e+00 
0.0000000e+00 3.2082891e-05 0.0000000e+00 
0.0000000e+00 3.3778237e-05 0.0000000e+00 
0.0000000e+00 2.8584793e-05 0.0000000e+00 
0.0000000e+00 1.8230030e-05 0.0000000e+00 
0.0000000e+00 4.3212103e-06 0.0000000e+00 
0.0000000e+00 -1.1303885e-05 0.0000000e+00 
0.0000000e+00 -2.5746582e-05 0.0000000e+00 
0.0000000e+00 -3.5465226e-05 0.0000000e+00 
0.0000000e+00 -3.7792444e-05 0.0000000e+00 
0.0000000e+00 -3.1977066e-05 0.0000000e+00 
0.0000000e+00 -1.9023935e-05 0.0000000e+00 
0.0000000e+00 -1.2242466e-06 0.0000000e+00 
0.0000000e+00 1.7750031e-05 0.0000000e+00 
0.0000000e+00 3.2816835e-05 0.0000000e+00 
0.0000000e+00 3.8728238e-05 0.0000000e+00 
2.9494688e-06 2.4741457e-05 3.5161797e-06 
2.2679453e-05 7.1081158e-05 2.6312708e-05 
0.0000000e+00 0.0000000e+00 0.0000000e+00 
0.0000000e+00 0.0000000e+00 0.0000000e+00 
0.0000000e+00 0.0000000e+00 0.0000000e+00 
0.0000000e+00 0.0000000e+00 0.0000000e+00 
0.0000000e+00 0.0000000e+00 0.0000000e+00 
0.0000000e+00 0.0000000e+00 0.0000000e+00 
0.0000000e+00 0.0000000e+00 0.0000000e+00 
0.0000000e+00 0.0000000e+00 0.0000000e+00 
0.0000000e+00 0.0000000e+00 0.0000000e+00 
0.0000000e+00 0.0000000e+00 0.0000000e+00 
0.0000000e+00 0.0000000e+00 0.0000000e+00 
0.0000000e+00 0.0000000e+00 0.0000000e+00 
0.0000000e+00 0.0000000e+00 0.0000000e+00 
0.0000000e+00 0.0000000e+00 0.0000000e+00 
0.0000000e+00 0.0000000e+00 0.0000000e+00 
0.0000000e+00 0.0000000e+00 0.0000000e+00 
0.0000000e+00 0.0000000e+00 0.0000000e+00 
0.0000000e+00 0.0000000e+00 0.0000000e+00 
0.0000000e+00 0.0000000e+00 0.0000000e+00 
0.0000000e+00 0.0000000e+00 0.0000000e+00 
0.0000000e+00 0.0000000e+00 0.0000000e+00 
0.0000000e+00 0.0000000e+00 0.0000000e+00 
0.0000000e+00 0.0000000e+00 0.0000000e+00 
0.0000000e+00 0.0000000e+00 0.0000000e+00 
0.0000000e+00 0.0000000e+00 0.0000000e+00 
0.0000000e+00 0.0000000e+00 0.0000000e+00 
0.0000000e+00 0.0000000e+00 0.0000000e+00 
0.0000000e+00 0.0000000e+00 0.0000000e+00 
0.0000000e+00 0.0000000e+00 0.0000000e+00 
0.0000000e+00 0.0000000e+00 0.0000000e+00 
0.0000000e+00 0.0000000e+00 0.0000000e+00 
0.0000000e+00 0.0000000e+00 0.0000000e+00 
0.0000000e+00 0.0000000e+00 0.0000000e+00 
0.0000000e+00 0.0000000e+00 0.0000000e+00 
0.0000000e+00 0.0000000e+00 0.0000000e+00 
0.0000000e+00 0.0000000e+00 0.0000000e+00 
0.0000000e+00 0.0000000e+00 0.0000000e+00 
0.0000000e+00 0.0000000e+00 0.0000000e+00 
0.0000000e+00 0.0000000e+00 0.0000000e+00 
0.0000000e+00 0.0000000e+00 0.0000000e+00 
0.0000000e+00 0.0000000e+00 0.0000000e+00 
0.0000000e+00 0.0000000e+00 0.0000000e+00 
-4.2038605e-06 -3.2498515e-06 -3.3495130e-06 
4.7494254e-06 -6.5539081e-07 -1.2350734e-05 
2.9211573e-05 -2.4498522e-06 -1.3898047e-05 
4.6504061e-05 -1.5396741e-05 -9.3071649e-06 
4.6857054e-05 -9.7357815e-06 3.3450019e-06 
1.7761613e-05 2.6853044e-07 -1.1136804e-06 
4.4771009e-06 2.2977483e-06 3.9990882e-06 
5.3132394e-06 -6.3269238e-07 7.1977515e-06 
3.2019732e-06 -4.3204759e-06 5.6750259e-06 
-3.0244846e-06 -4.1523640e-06 1.8980841e-06 
-5.4489428e-06 5.6235626e-06 -1.1377542e-06 
5.8093010e-06 -7.2373513e-07 -5.9744270e-06 
2.7453518e-05 -6.3338330e-06 -7.4696736e-06 
4.7805595e-05 -9.8659957e-06 -3.0112569e-06 
4.6122841e-05 -1.2397993e-05 3.2889195e-06 
2.0156105e-05 -4.8271540e-06 4.1926492e-06 
1.3274985e-06 6.0814832e-06 9.0084659e-06 
-2.6628975e-06 2.2249997e-06 4.2059978e-06 
1.7686029e-06 -4.3145769e-06 2.2978495e-06 
0.0000000e+00 7.4319039e-05 0.0000000e+00 
0.0000000e+00 5.3105150e-06 0.0000000e+00 
0.0000000e+00 -1.5765276e-04 0.0000000e+00 
0.0000000e+00 -5.3318241e-04 0.0000000e+00 
0.0000000e+00 -5.2080117e-04 0.0000000e+00 
0.0000000e+00 -1.6123118e-04 0.0000000e+00 
0.0000000e+00 -7.4513587e-06 0.0000000e+00 
0.0000000e+00 -3.3762124e-05 0.0000000e+00 
0.0000000e+00 -3.8583814e-05 0.0000000e+00 
0.0000000e+00 -2.5638872e-05 0.0000000e+00 
0.0000000e+00 -1.4902334e-07 0.0000000e+00 
0.0000000e+00 2.6254791e-05 0.0000000e+00 
0.0000000e+00 -1.5836119e-04 0.0000000e+00 
0.0000000e+00 -4.9592933e-04 0.0000000e+00 
0.0000000e+00 -4.9718836e-04 0.0000000e+00 
0.0000000e+00 -1.7529358e-04 0.0000000e+00 
0.0000000e+00 9.0233143e-06 0.0000000e+00 
0.0000000e+00 3.4472334e-05 0.0000000e+00 
0.0000000e+00 -8.9973137e-06 0.0000000e+00 
-4.7927301e-06 -4.6503533e-06 1.0965506e-07 
-1.0027374e-05 6.1446008e-06 2.3073362e-06 
5.8259695e-07 -1.4570203e-06 -2.0467301e-06 
1.3573306e-06 -7.6839460e-06 1.7257206e-06 
7.6398180e-07 -4.7337376e-06 -2.7978356e-06 
2.0579209e-05 1.4558290e-06 -1.6617263e-05 
3.5900022e-05 4.0107548e-06 -6.6877324e-06 
4.6938454e-05 -1.4503439e-06 -6.2120721e-06 
3.1762524e-05 -9.9617255e-06 -1.8096841e-07 
1.0958914e-05 2.4973690e-06 -1.1169574e-05 
3.2546236e-06 4.4292033e-06 2.0051339e-06 
1.9590789e-06 -1.8881341e-06 1.5749787e-05 
-2.1105920e-06 -8.7773597e-06 1.0141680e-05 
-7.2871630e-06 -6.3280677e-06 -2.6850819e-06 
-1.3685737e-06 4.7560493e-06 -1.1430293e-05 
2.2051023e-05 2.2388581e-06 -6.4884116e-06 
2.7938911e-05 -2.0000957e-06 4.7290246e-06 
3.5812944e-05 -1.1839011e-05 6.1921486e-07 
2.4658986e-05 -9.9083536e-06 3.2473897e-06 
5.4439006e-06 -5.0559242e-07 -6.1759338e-06 
3.9349284e-06 6.3056918e-06 3.7814834e-06 
2.1303481e-06 1.9577629e-07 6.7990150e-06 
3.1688821e-06 -3.6420395e-06 4.2689412e-06 
5.0599629e-06 3.4206427e-05 -1.7631777e-05 
0.0000000e+00 1.1326584e-04 0.0000000e+00 
0.0000000e+00 1.4256185e-04 0.0000000e+00 
0.0000000e+00 -4.3327198e-04 0.0000000e+00 
0.0000000e+00 -1.1912177e-03 0.0000000e+00 
0.0000000e+00 -1.1701762e-03 0.0000000e+00 
0.0000000e+00 -2.9255886e-04 0.0000000e+00 
0.0000000e+00 4.6787791e-06 0.0000000e+00 
0.0000000e+00 -6.1948973e-05 0.0000000e+00 
0.0000000e+00 -1.0215733e-04 0.0000000e+00 
0.0000000e+00 -8.2978608e-05 0.0000000e+00 
0.0000000e+00 1.1455680e-04 0.0000000e+00 
0.0000000e+00 7.3000039e-05 0.0000000e+00 
0.0000000e+00 -4.4780568e-04 0.0000000e+00 
0.0000000e+00 -1.1032504e-03 0.0000000e+00 
0.0000000e+00 -1.0913552e-03 0.0000000e+00 
0.0000000e+00 -3.1501232e-04 0.0000000e+00 
0.0000000e+00 2.4825009e-05 0.0000000e+00 
0.0000000e+00 5.5533212e-05 0.0000000e+00 
0.0000000e+00 -1.4934461e-05 0.0000000e+00 
-2.9019116e-06 -1.2648664e-05 2.0783955e-06 
7.6112228e-05 1.0672770e-04 -2.3286688e-05 
5.4397216e-05 1.4184698e-04 7.5671829e-05 
-2.5042798e-04 -3.7695354e-04 3.5005365e-04 
-6.6129345e-04 -1.3327884e-03 1.4480892e-04 
-6.1173021e-04 -1.4861488e-03 -2.2481909e-04 
-1.6338684e-04 -2.2861765e-04 -2.6501878e-04 
1.6101041e-05 2.7429645e-05 -1.9295801e-05 
-2.6961528e-05 -5.0406619e-05 -7.3176388e-06 
-7.1105147e-05 -9.1690643e-05 9.1390088e-05 
-2.2325852e-05 -7.1499104e-05 -8.8646011e-05 
5.7646976e-05 4.9298716e-05 -9.2251488e-05 
4.3425767e-05 1.3963811e-04 7.5217860e-05 
-2.3286202e-04 -3.9281408e-04 2.7141394e-04 
-6.1474286e-04 -1.2349738e-03 1.6923247e-04 
-6.0223794e-04 -1.3847171e-03 -5.5227920e-05 
-1.7099032e-04 -2.5551603e-04 -2.9101956e-04 
2.3468057e-05 4.2816246e-05 -1.6290849e-04 
3.0507716e-05 5.6498891e-05 3.5706202e-05 
-3.7492518e-06 -9.3825684e-06 7.4304640e-05 
0.0000000e+00 2.3678217e-04 0.0000000e+00 
0.0000000e+00 2.6731964e-04 0.0000000e+00 
0.0000000e+00 -7.7687879e-04 0.0000000e+00 
0.0000000e+00 -2.3771829e-03 0.0000000e+00 
0.0000000e+00 -2.2768455e-03 0.0000000e+00 
0.0000000e+00 -5.0036440e-04 0.0000000e+00 
0.0000000e+00 8.3128682e-05 0.0000000e+00 
0.0000000e+00 -1.0264941e-04 0.0000000e+00 
0.0000000e+00 -1.3613455e-04 0.0000000e+00 
0.0000000e+00 -2.4539586e-05 0.0000000e+00 
0.0000000e+00 1.3542981e-04 0.0000000e+00 
0.0000000e+00 7.6682911e-05 0.0000000e+00 
0.0000000e+00 -9.1401435e-04 0.0000000e+00 
0.0000000e+00 -2.2565213e-03 0.0000000e+00 
0.0000000e+00 -2.0892934e-03 0.0000000e+00 
0.0000000e+00 -4.9475173e-04 0.0000000e+00 
0.0000000e+00 6.7174369e-05 0.0000000e+00 
0.0000000e+00 6.8380534e-05 0.0000000e+00 
0.0000000e+00 -1.5393576e-05 0.0000000e+00 
1.0994608e-05 2.0245647e-05 -9.4743182e-06 
3.2028744e-05 3.2636526e-05 2.6738664e-06 
5.0521070e-05 -2.9062996e-05 1.0340297e-05 
4.9880553e-05 -1.1912893e-04 -2.1106629e-05 
4.5613477e-05 -9.7258577e-05 -1.5561489e-05 
3.5375018e-05 -3.8652855e-05 -8.5460488e-06 
9.9124782e-06 2.7927408e-06 -5.8693131e-06 
-5.4530233e-06 -6.8110053e-06 6.8652043e-06 
-1.6240419e-05 -2.1093208e-05 1.2283420e-05 
-6.1757023e-06 -1.9293802e-05 -1.1477859e-05 
-2.4687267e-07 1.1998754e-05 -1.3341002e-05 
2.5685871e-05 4.2108557e-05 3.3413089e-06 
5.9717328e-05 -3.0566931e-05 5.9528415e-06 
5.9749462e-05 -8.1565675e-05 9.8533910e-06 
3.5051460e-05 -1.0770063e-04 1.7942504e-05 
2.4995659e-05 -6.6384498e-05 -1.4155128e-05 
1.2689817e-06 2.1605290e-05 -3.4445009e-05 
1.1878476e-06 -5.3683789e-06 1.3654828e-05 
2.0186257e-05 4.6089786e-05 2.1185417e-05 
0.0000000e+00 0.0000000e+00 0.0000000e+00 
0.0000000e+00 0.0000000e+00 0.0000000e+00 
0.0000000e+00 0.0000000e+00 0.0000000e+00 
0.0000000e+00 0.0000000e+00 0.0000000e+00 
0.0000000e+00 0.0000000e+00 0.0000000e+00 
0.0000000e+00 0.0000000e+00 0.0000000e+00 
0.0000000e+00 0.0000000e+00 0.0000000e+00 
0.0000000e+00 0.0000000e+00 0.0000000e+00 
0.0000000e+00 0.0000000e+00 0.0000000e+00 
0.0000000e+00 0.0000000e+00 0.0000000e+00 
0.0000000e+00 0.0000000e+00 0.0000000e+00 
0.0000000e+00 0.0000000e+00 0.0000000e+00 
0.0000000e+00 0.0000000e+00 0.0000000e+00 
0.0000000e+00 0.0000000e+00 0.0000000e+00 
0.0000000e+00 0.0000000e+00 0.0000000e+00 
0.0000000e+00 0.0000000e+00 0.0000000e+00 
0.0000000e+00 0.0000000e+00 0.0000000e+00 
0.0000000e+00 0.0000000e+00 0.0000000e+00 
0.0000000e+00 0.0000000e+00 0.0000000e+00 
0.0000000e+00 0.0000000e+00 0.0000000e+00 
0.0000000e+00 0.0000000e+00 0.0000000e+00 
0.0000000e+00 0.0000000e+00 0.0000000e+00 
0.0000000e+00 0.0000000e+00 0.0000000e+00 
0.0000000e+00 0.0000000e+00 0.0000000e+00 
0.0000000e+00 0.0000000e+00 0.0000000e+00 
0.0000000e+00 0.0000000e+00 0.0000000e+00 
0.0000000e+00 0.0000000e+00 0.0000000e+00 
0.0000000e+00 0.0000000e+00 0.0000000e+00 
0.0000000e+00 0.0000000e+00 0.0000000e+00 
0.0000000e+00 0.0000000e+00 0.0000000e+00 
0.0000000e+00 0.0000000e+00 0.0000000e+00 
0.0000000e+00 0.0000000e+00 0.0000000e+00 
0.0000000e+00 0.0000000e+00 0.0000000e+00 
0.0000000e+00 0.0000000e+00 0.0000000e+00 
0.0000000e+00 0.0000000e+00 0.0000000e+00 
0.0000000e+00 0.0000000e+00 0.0000000e+00 
0.0000000e+00 0.0000000e+00 0.0000000e+00 
0.0000000e+00 0.0000000e+00 0.0000000e+00 
0.0000000e+00 0.0000000e+00 0.0000000e+00 
0.0000000e+00 0.0000000e+00 0.0000000e+00 
0.0000000e+00 0.0000000e+00 0.0000000e+00 
0.0000000e+00 0.0000000e+00 0.0000000e+00 
1.1022941e-05 -5.4478237e-06 -7.6955412e-06 
2.6617092e-06 -1.0756460e-06 7.8504064e-07 
3.6041945e-06 -1.8584489e-06 3.2553105e-06 
-1.1001846e-07 1.5522986e-06 -1.4886323e-06 
5.9977096e-06 -6.5262461e-06 -4.7417575e-06 
2.2873370e-05 -7.5231987e-06 -3.2241214e-06 
2.5626252e-05 -1.1373758e-05 -6.4514177e-07 
2.1709911e-05 -1.1258660e-05 2.9122593e-06 
3.5364894e-06 -4.8075077e-07 5.2134001e-06 