# vtk DataFile Version 4.0
vtk output
ASCII
DATASET UNSTRUCTURED_GRID
POINTS 661 float
0.0000000e+00 0.0000000e+00 0.0000000e+00 
0.0000000e+00 0.0000000e+00 4.0000000e+01 
5.0000000e+00 0.0000000e+00 0.0000000e+00 
5.0000000e+00 0.0000000e+00 4.0000000e+01 
5.0000000e+00 1.0000000e+00 0.0000000e+00 
5.0000000e+00 1.0000000e+00 4.0000000e+01 
0.0000000e+00 1.0000000e+00 0.0000000e+00 
0.0000000e+00 1.0000000e+00 4.0000000e+01 
5.0000000e+00 2.0000000e+00 0.0000000e+00 
5.0000000e+00 2.0000000e+00 4.0000000e+01 
3.0000000e+00 2.0000000e+00 0.0000000e+00 
3.0000000e+00 2.0000000e+00 4.0000000e+01 
0.0000000e+00 2.0000000e+00 0.0000000e+00 
0.0000000e+00 2.0000000e+00 4.0000000e+01 
1.5000000e+00 3.0000000e+00 0.0000000e+00 
1.5000000e+00 3.0000000e+00 4.0000000e+01 
7.5000000e-01 3.0000000e+00 0.0000000e+00 
7.5000000e-01 3.0000000e+00 4.0000000e+01 
0.0000000e+00 3.0000000e+00 0.0000000e+00 
0.0000000e+00 3.0000000e+00 4.0000000e+01 
7.5000000e-01 3.0000000e+00 5.0000000e-01 
7.5000000e-01 3.0000000e+00 1.0000000e+00 
7.5000000e-01 3.0000000e+00 1.5000000e+00 
7.5000000e-01 3.0000000e+00 2.0000000e+00 
7.5000000e-01 3.0000000e+00 2.5000000e+00 
7.5000000e-01 3.0000000e+00 3.0000000e+00 
7.5000000e-01 3.0000000e+00 3.5000000e+00 
7.5000000e-01 3.0000000e+00 4.0000000e+00 
7.5000000e-01 3.0000000e+00 4.5000000e+00 
7.5000000e-01 3.0000000e+00 5.0000000e+00 
7.5000000e-01 3.0000000e+00 5.5000000e+00 
7.5000000e-01 3.0000000e+00 6.0000000e+00 
7.5000000e-01 3.0000000e+00 6.5000000e+00 
7.5000000e-01 3.0000000e+00 7.0000000e+00 
7.5000000e-01 3.0000000e+00 7.5000000e+00 
7.5000000e-01 3.0000000e+00 8.0000000e+00 
7.5000000e-01 3.0000000e+00 8.5000000e+00 
7.5000000e-01 3.0000000e+00 9.0000000e+00 
7.5000000e-01 3.0000000e+00 9.5000000e+00 
7.5000000e-01 3.0000000e+00 1.0000000e+01 
7.5000000e-01 3.0000000e+00 1.0500000e+01 
7.5000000e-01 3.0000000e+00 1.1000000e+01 
7.5000000e-01 3.0000000e+00 1.1500000e+01 
7.5000000e-01 3.0000000e+00 1.2000000e+01 
7.5000000e-01 3.0000000e+00 1.2500000e+01 
7.5000000e-01 3.0000000e+00 1.3000000e+01 
7.5000000e-01 3.0000000e+00 1.3500000e+01 
7.5000000e-01 3.0000000e+00 1.4000000e+01 
7.5000000e-01 3.0000000e+00 1.4500000e+01 
7.5000000e-01 3.0000000e+00 1.5000000e+01 
7.5000000e-01 3.0000000e+00 1.5500000e+01 
7.5000000e-01 3.0000000e+00 1.6000000e+01 
7.5000000e-01 3.0000000e+00 1.6500000e+01 
7.5000000e-01 3.0000000e+00 1.7000000e+01 
7.5000000e-01 3.0000000e+00 1.7500000e+01 
7.5000000e-01 3.0000000e+00 1.8000000e+01 
7.5000000e-01 3.0000000e+00 1.8500000e+01 
7.5000000e-01 3.0000000e+00 1.9000000e+01 
7.5000000e-01 3.0000000e+00 1.9500000e+01 
7.5000000e-01 3.0000000e+00 2.0000000e+01 
7.5000000e-01 3.0000000e+00 2.0500000e+01 
7.5000000e-01 3.0000000e+00 2.1000000e+01 
7.5000000e-01 3.0000000e+00 2.1500000e+01 
7.5000000e-01 3.0000000e+00 2.2000000e+01 
7.5000000e-01 3.0000000e+00 2.2500000e+01 
7.5000000e-01 3.0000000e+00 2.3000000e+01 
7.5000000e-01 3.0000000e+00 2.3500000e+01 
7.5000000e-01 3.0000000e+00 2.4000000e+01 
7.5000000e-01 3.0000000e+00 2.4500000e+01 
7.5000000e-01 3.0000000e+00 2.5000000e+01 
7.5000000e-01 3.0000000e+00 2.5500000e+01 
7.5000000e-01 3.0000000e+00 2.6000000e+01 
7.5000000e-01 3.0000000e+00 2.6500000e+01 
7.5000000e-01 3.0000000e+00 2.7000000e+01 
7.5000000e-01 3.0000000e+00 2.7500000e+01 
7.5000000e-01 3.0000000e+00 2.8000000e+01 
7.5000000e-01 3.0000000e+00 2.8500000e+01 
7.5000000e-01 3.0000000e+00 2.9000000e+01 
7.5000000e-01 3.0000000e+00 2.9500000e+01 
7.5000000e-01 3.0000000e+00 3.0000000e+01 
7.5000000e-01 3.0000000e+00 3.0500000e+01 
7.5000000e-01 3.0000000e+00 3.1000000e+01 
7.5000000e-01 3.0000000e+00 3.1500000e+01 
7.5000000e-01 3.0000000e+00 3.2000000e+01 
7.5000000e-01 3.0000000e+00 3.2500000e+01 
7.5000000e-01 3.0000000e+00 3.3000000e+01 
7.5000000e-01 3.0000000e+00 3.3500000e+01 
7.5000000e-01 3.0000000e+00 3.4000000e+01 
7.5000000e-01 3.0000000e+00 3.4500000e+01 
7.5000000e-01 3.0000000e+00 3.5000000e+01 
7.5000000e-01 3.0000000e+00 3.5500000e+01 
7.5000000e-01 3.0000000e+00 3.6000000e+01 
7.5000000e-01 3.0000000e+00 3.6500000e+01 
7.5000000e-01 3.0000000e+00 3.7000000e+01 
7.5000000e-01 3.0000000e+00 3.7500000e+01 
7.5000000e-01 3.0000000e+00 3.8000000e+01 
7.5000000e-01 3.0000000e+00 3.8500000e+01 
7.5000000e-01 3.0000000e+00 3.9000000e+01 
7.5000000e-01 3.0000000e+00 3.9500000e+01 
7.5000000e-01 3.0000000e+00 4.0500000e+01 
7.5000000e-01 3.0000000e+00 4.1000000e+01 
7.5000000e-01 3.0000000e+00 4.1500000e+01 
7.5000000e-01 3.0000000e+00 4.2000000e+01 
7.5000000e-01 3.0000000e+00 4.2500000e+01 
7.5000000e-01 3.0000000e+00 4.3000000e+01 
7.5000000e-01 3.0000000e+00 4.3500000e+01 
7.5000000e-01 3.0000000e+00 4.4000000e+01 
7.5000000e-01 3.0000000e+00 4.4500000e+01 
7.5000000e-01 3.0000000e+00 4.5000000e+01 
7.5000000e-01 3.0000000e+00 4.5500000e+01 
7.5000000e-01 3.0000000e+00 4.6000000e+01 
7.5000000e-01 3.0000000e+00 4.6500000e+01 
7.5000000e-01 3.0000000e+00 4.7000000e+01 
7.5000000e-01 3.0000000e+00 4.7500000e+01 
7.5000000e-01 3.0000000e+00 4.8000000e+01 
7.5000000e-01 3.0000000e+00 4.8500000e+01 
7.5000000e-01 3.0000000e+00 4.9000000e+01 
7.5000000e-01 3.0000000e+00 4.9500000e+01 
7.5000000e-01 3.0000000e+00 5.0000000e+01 
7.5000000e-01 3.0250001e+00 0.0000000e+00 
7.5000000e-01 3.0250001e+00 5.0000000e-01 
7.5000000e-01 3.0250001e+00 1.0000000e+00 
7.5000000e-01 3.0250001e+00 1.5000000e+00 
7.5000000e-01 3.0250001e+00 2.0000000e+00 
7.5000000e-01 3.0250001e+00 2.5000000e+00 
7.5000000e-01 3.0250001e+00 3.0000000e+00 
7.5000000e-01 3.0250001e+00 3.5000000e+00 
7.5000000e-01 3.0250001e+00 4.0000000e+00 
7.5000000e-01 3.0250001e+00 4.5000000e+00 
7.5000000e-01 3.0250001e+00 5.0000000e+00 
7.5000000e-01 3.0250001e+00 5.5000000e+00 
7.5000000e-01 3.0250001e+00 6.0000000e+00 
7.5000000e-01 3.0250001e+00 6.5000000e+00 
7.5000000e-01 3.0250001e+00 7.0000000e+00 
7.5000000e-01 3.0250001e+00 7.5000000e+00 
7.5000000e-01 3.0250001e+00 8.0000000e+00 
7.5000000e-01 3.0250001e+00 8.5000000e+00 
7.5000000e-01 3.0250001e+00 9.0000000e+00 
7.5000000e-01 3.0250001e+00 9.5000000e+00 
7.5000000e-01 3.0250001e+00 1.0000000e+01 
7.5000000e-01 3.0250001e+00 1.0500000e+01 
7.5000000e-01 3.0250001e+00 1.1000000e+01 
7.5000000e-01 3.0250001e+00 1.1500000e+01 
7.5000000e-01 3.0250001e+00 1.2000000e+01 
7.5000000e-01 3.0250001e+00 1.2500000e+01 
7.5000000e-01 3.0250001e+00 1.3000000e+01 
7.5000000e-01 3.0250001e+00 1.3500000e+01 
7.5000000e-01 3.0250001e+00 1.4000000e+01 
7.5000000e-01 3.0250001e+00 1.4500000e+01 
7.5000000e-01 3.0250001e+00 1.5000000e+01 
7.5000000e-01 3.0250001e+00 1.5500000e+01 
7.5000000e-01 3.0250001e+00 1.6000000e+01 
7.5000000e-01 3.0250001e+00 1.6500000e+01 
7.5000000e-01 3.0250001e+00 1.7000000e+01 
7.5000000e-01 3.0250001e+00 1.7500000e+01 
7.5000000e-01 3.0250001e+00 1.8000000e+01 
7.5000000e-01 3.0250001e+00 1.8500000e+01 
7.5000000e-01 3.0250001e+00 1.9000000e+01 
7.5000000e-01 3.0250001e+00 1.9500000e+01 
7.5000000e-01 3.0250001e+00 2.0000000e+01 
7.5000000e-01 3.0250001e+00 2.0500000e+01 
7.5000000e-01 3.0250001e+00 2.1000000e+01 
7.5000000e-01 3.0250001e+00 2.1500000e+01 
7.5000000e-01 3.0250001e+00 2.2000000e+01 
7.5000000e-01 3.0250001e+00 2.2500000e+01 
7.5000000e-01 3.0250001e+00 2.3000000e+01 
7.5000000e-01 3.0250001e+00 2.3500000e+01 
7.5000000e-01 3.0250001e+00 2.4000000e+01 
7.5000000e-01 3.0250001e+00 2.4500000e+01 
7.5000000e-01 3.0250001e+00 2.5000000e+01 
7.5000000e-01 3.0250001e+00 2.5500000e+01 
7.5000000e-01 3.0250001e+00 2.6000000e+01 
7.5000000e-01 3.0250001e+00 2.6500000e+01 
7.5000000e-01 3.0250001e+00 2.7000000e+01 
7.5000000e-01 3.0250001e+00 2.7500000e+01 
7.5000000e-01 3.0250001e+00 2.8000000e+01 
7.5000000e-01 3.0250001e+00 2.8500000e+01 
7.5000000e-01 3.0250001e+00 2.9000000e+01 
7.5000000e-01 3.0250001e+00 2.9500000e+01 
7.5000000e-01 3.0250001e+00 3.0000000e+01 
7.5000000e-01 3.0250001e+00 3.0500000e+01 
7.5000000e-01 3.0250001e+00 3.1000000e+01 
7.5000000e-01 3.0250001e+00 3.1500000e+01 
7.5000000e-01 3.0250001e+00 3.2000000e+01 
7.5000000e-01 3.0250001e+00 3.2500000e+01 
7.5000000e-01 3.0250001e+00 3.3000000e+01 
7.5000000e-01 3.0250001e+00 3.3500000e+01 
7.5000000e-01 3.0250001e+00 3.4000000e+01 
7.5000000e-01 3.0250001e+00 3.4500000e+01 
7.5000000e-01 3.0250001e+00 3.5000000e+01 
7.5000000e-01 3.0250001e+00 3.5500000e+01 
7.5000000e-01 3.0250001e+00 3.6000000e+01 
7.5000000e-01 3.0250001e+00 3.6500000e+01 
7.5000000e-01 3.0250001e+00 3.7000000e+01 
7.5000000e-01 3.0250001e+00 3.7500000e+01 
7.5000000e-01 3.0250001e+00 3.8000000e+01 
7.5000000e-01 3.0250001e+00 3.8500000e+01 
7.5000000e-01 3.0250001e+00 3.9000000e+01 
7.5000000e-01 3.0250001e+00 3.9500000e+01 
7.5000000e-01 3.0250001e+00 4.0000000e+01 
7.5000000e-01 3.0250001e+00 4.0500000e+01 
7.5000000e-01 3.0250001e+00 4.1000000e+01 
7.5000000e-01 3.0250001e+00 4.1500000e+01 
7.5000000e-01 3.0250001e+00 4.2000000e+01 
7.5000000e-01 3.0250001e+00 4.2500000e+01 
7.5000000e-01 3.0250001e+00 4.3000000e+01 
7.5000000e-01 3.0250001e+00 4.3500000e+01 
7.5000000e-01 3.0250001e+00 4.4000000e+01 
7.5000000e-01 3.0250001e+00 4.4500000e+01 
7.5000000e-01 3.0250001e+00 4.5000000e+01 
7.5000000e-01 3.0250001e+00 4.5500000e+01 
7.5000000e-01 3.0250001e+00 4.6000000e+01 
7.5000000e-01 3.0250001e+00 4.6500000e+01 
7.5000000e-01 3.0250001e+00 4.7000000e+01 
7.5000000e-01 3.0250001e+00 4.7500000e+01 
7.5000000e-01 3.0250001e+00 4.8000000e+01 
7.5000000e-01 3.0250001e+00 4.8500000e+01 
7.5000000e-01 3.0250001e+00 4.9000000e+01 
7.5000000e-01 3.0250001e+00 4.9500000e+01 
7.5000000e-01 3.0250001e+00 5.0000000e+01 
3.0000000e+00 2.0000000e+00 3.6000000e+01 
8.0487806e-01 3.0000000e+00 3.6000000e+01 
0.0000000e+00 0.0000000e+00 2.0000000e+00 
0.0000000e+00 0.0000000e+00 4.0000000e+00 
0.0000000e+00 0.0000000e+00 6.0000000e+00 
0.0000000e+00 0.0000000e+00 8.0000000e+00 
0.0000000e+00 0.0000000e+00 1.0000000e+01 
0.0000000e+00 0.0000000e+00 1.2000000e+01 
0.0000000e+00 0.0000000e+00 1.4000000e+01 
0.0000000e+00 0.0000000e+00 1.6000000e+01 
[...]
POINT_DATA 661
FIELD FieldData 3
DISPLACEMENT 3 661  float
0.0000000e+00 0.0000000e+00 0.0000000e+00 
0.0000000e+00 0.0000000e+00 0.0000000e+00 
0.0000000e+00 0.0000000e+00 0.0000000e+00 
0.0000000e+00 0.0000000e+00 0.0000000e+00 
4.5509023e-06 -5.7068996e-06 -1.6883004e-06 
3.4610431e-07 9.3333529e-07 1.3147720e-06 
0.0000000e+00 -2.5567572e-06 0.0000000e+00 
0.0000000e+00 -1.1069217e-05 0.0000000e+00 
-1.2289094e-07 -5.8965284e-06 -4.3909668e-06 
-2.7544017e-06 2.3662431e-06 -1.4486568e-06 
-4.2764108e-07 -2.3478673e-05 -2.6529453e-05 
-1.4374893e-06 -3.2945813e-06 -5.3912358e-06 
0.0000000e+00 -3.7472284e-06 0.0000000e+00 
0.0000000e+00 -1.9601654e-05 0.0000000e+00 
-2.1697163e-06 -2.0647733e-05 -9.7878779e-05 
-9.7299890e-06 -1.5596406e-05 -3.3918597e-05 
-9.7307575e-06 3.8602808e-05 -5.1090454e-05 
2.1618439e-06 -3.3091754e-05 -3.8844508e-05 
0.0000000e+00 -7.6986125e-06 0.0000000e+00 
0.0000000e+00 -2.6816890e-05 0.0000000e+00 
2.2718747e-05 4.5408175e-05 -7.1108843e-05 
3.5665333e-05 6.3217682e-05 -5.6058470e-05 
4.2035033e-05 8.6074717e-05 -4.7805574e-05 
4.5957007e-05 1.1239277e-04 -3.1871285e-05 
4.8608181e-05 1.4034550e-04 -6.6496327e-06 
4.4559172e-05 1.6468755e-04 9.3082226e-06 
3.0685173e-05 1.7415786e-04 3.1195137e-05 
2.0272095e-05 1.3875539e-04 5.1237665e-05 
-1.2134636e-05 1.6734244e-05 8.8603287e-05 
-2.3138628e-05 -2.3206521e-04 1.2496472e-04 
-5.7211037e-05 -6.6812919e-04 1.7196340e-04 
-1.1336736e-04 -1.3328550e-03 1.1461664e-04 
-2.5013660e-04 -2.2440490e-03 1.9195931e-04 
-2.5145843e-04 -3.2311149e-03 1.7442608e-04 
-1.3603238e-04 -3.9998898e-03 1.0475113e-04 
-1.0075777e-04 -4.0159402e-03 1.0335042e-04 
-2.4353010e-04 -3.8424064e-03 3.4337605e-05 
-3.1531381e-04 -3.8383701e-03 1.2447334e-05 
-2.0271880e-04 -4.1067642e-03 -2.9044077e-05 
-4.7675556e-05 -4.1418085e-03 -7.8825120e-05 
-8.1853599e-05 -3.4512973e-03 -1.5864815e-04 
-1.8124412e-04 -2.4193588e-03 -1.7196390e-04 
-1.9042744e-04 -1.5158855e-03 -1.5004275e-04 
-8.0244783e-05 -8.2730927e-04 -7.9446363e-05 
-4.3984874e-05 -3.9182225e-04 -1.1186989e-04 
-3.0144112e-05 -1.4642547e-04 -7.9417085e-05 
-3.0007659e-05 -2.9994369e-05 -5.9188475e-05 
-2.0667389e-05 8.0937398e-06 -4.2188160e-05 
-1.2142621e-05 1.3640954e-06 -2.6485402e-05 
-4.0425571e-06 -2.5235704e-05 -1.6033428e-05 
-2.8444351e-06 -5.4409651e-05 -1.5324145e-05 
-9.6472340e-06 -7.9046011e-05 -1.2982237e-05 
-1.2831485e-05 -9.5417810e-05 6.7565684e-06 
-1.5112464e-05 -1.0541625e-04 2.6252066e-05 
-3.3379696e-05 -1.1240079e-04 5.8429308e-05 
-5.1630381e-05 -1.1635036e-04 8.3037805e-05 
-5.1583131e-05 -1.1595146e-04 6.1648832e-05 
-5.4795113e-05 -1.1071940e-04 2.8168135e-05 
-3.9039089e-05 -9.9091500e-05 -1.6062002e-05 
-1.6180456e-05 -7.9593374e-05 -6.1878352e-05 
3.2636649e-06 -4.9009435e-05 -7.6199707e-05 
1.7288587e-05 -1.0046056e-05 -7.6299606e-05 
3.2293141e-05 3.5892201e-05 -7.8521247e-05 
4.1768319e-05 8.4637701e-05 -6.7231398e-05 
5.0558909e-05 1.3118901e-04 -4.4393906e-05 
5.4357570e-05 1.6852487e-04 -1.8095225e-05 
4.2108637e-05 1.8363079e-04 9.8710325e-06 
3.0235173e-05 1.4695259e-04 3.7228638e-05 
-1.2267205e-05 1.3382449e-05 6.8653928e-05 
-2.1171161e-05 -2.6126194e-04 9.9880133e-05 
-3.5822799e-05 -7.4200210e-04 1.3698569e-04 
-8.3128143e-05 -1.4641463e-03 6.8977060e-05 
-2.2797997e-04 -2.4318169e-03 1.6873094e-04 
-2.3227833e-04 -3.4279618e-03 1.6797931e-04 
-1.3366988e-04 -4.0889638e-03 1.3706298e-04 
-1.0244385e-04 -4.0137260e-03 1.8531518e-04 
-2.5263071e-04 -3.8699768e-03 1.3033705e-04 
-3.2093649e-04 -3.9358628e-03 1.1258238e-04 
-2.1284325e-04 -4.2382032e-03 7.3787283e-05 
-7.6966404e-05 -4.1734376e-03 4.1262210e-05 
-1.2362322e-04 -3.3879983e-03 -1.0080378e-04 
-2.2991801e-04 -2.3593502e-03 -1.6154585e-04 
-2.2244443e-04 -1.4825845e-03 -1.8961898e-04 
-1.0247342e-04 -8.1691652e-04 -1.6665975e-04 
-5.5595468e-05 -3.8450593e-04 -2.1063290e-04 
-3.1107611e-05 -1.2521219e-04 -1.8226482e-04 
-1.9063416e-05 1.7567816e-05 -1.6846621e-04 
3.0513411e-06 8.8256886e-05 -1.4454089e-04 
2.5169755e-05 1.1372996e-04 -9.5560885e-05 
4.2825959e-05 1.1510099e-04 -4.5555789e-05 
3.5553603e-05 1.0408684e-04 -7.4609766e-06 
2.5400665e-05 8.5491876e-05 2.9415332e-05 
1.9302639e-05 6.1284816e-05 5.0505594e-05 
1.3050802e-05 3.4712997e-05 6.0682971e-05 
2.5892682e-06 9.0614139e-06 7.0359340e-05 
-7.5862763e-06 -1.1805681e-05 6.4669584e-05 
-1.0796911e-05 -2.6096282e-05 4.6434037e-05 
-1.4450708e-05 -3.3913482e-05 2.1890883e-05 
-1.0596385e-05 -3.6061447e-05 -2.5385939e-06 
0.0000000e+00 -2.6079861e-05 0.0000000e+00 
0.0000000e+00 -1.4908535e-05 0.0000000e+00 
0.0000000e+00 -9.6395831e-07 0.0000000e+00 
0.0000000e+00 1.3454423e-05 0.0000000e+00 
0.0000000e+00 2.5596089e-05 0.0000000e+00 
0.0000000e+00 3.2956021e-05 0.0000000e+00 
0.0000000e+00 3.3925571e-05 0.0000000e+00 
0.0000000e+00 2.8232243e-05 0.0000000e+00 
0.0000000e+00 1.6992408e-05 0.0000000e+00 
0.0000000e+00 2.3547925e-06 0.0000000e+00 
0.0000000e+00 -1.3038913e-05 0.0000000e+00 
0.0000000e+00 -2.6473921e-05 0.0000000e+00 
0.0000000e+00 -3.5385307e-05 0.0000000e+00 
0.0000000e+00 -3.7608439e-05 0.0000000e+00 
0.0000000e+00 -3.1904488e-05 0.0000000e+00 
0.0000000e+00 -1.8679073e-05 0.0000000e+00 
0.0000000e+00 -4.4668539e-07 0.0000000e+00 
0.0000000e+00 1.8427983e-05 0.0000000e+00 
0.0000000e+00 3.2804481e-05 0.0000000e+00 
0.0000000e+00 3.8269456e-05 0.0000000e+00 
0.0000000e+00 3.8812261e-05 0.0000000e+00 
0.0000000e+00 4.5576511e-05 0.0000000e+00 
0.0000000e+00 6.3001913e-05 0.0000000e+00 
0.0000000e+00 8.6053893e-05 0.0000000e+00 
0.0000000e+00 1.1252947e-04 0.0000000e+00 
0.0000000e+00 1.4067376e-04 0.0000000e+00 
0.0000000e+00 1.6574118e-04 0.0000000e+00 
0.0000000e+00 1.7482052e-04 0.0000000e+00 
0.0000000e+00 1.3879550e-04 0.0000000e+00 
0.0000000e+00 1.7848541e-05 0.0000000e+00 
0.0000000e+00 -2.3271867e-04 0.0000000e+00 
0.0000000e+00 -6.6959567e-04 0.0000000e+00 
0.0000000e+00 -1.3418752e-03 0.0000000e+00 
0.0000000e+00 -2.2515166e-03 0.0000000e+00 
0.0000000e+00 -3.2626900e-03 0.0000000e+00 
0.0000000e+00 -4.0237000e-03 0.0000000e+00 
0.0000000e+00 -4.0465035e-03 0.0000000e+00 
0.0000000e+00 -3.8561926e-03 0.0000000e+00 
0.0000000e+00 -3.8690260e-03 0.0000000e+00 
0.0000000e+00 -4.1267737e-03 0.0000000e+00 
0.0000000e+00 -4.1764555e-03 0.0000000e+00 
0.0000000e+00 -3.4694939e-03 0.0000000e+00 
0.0000000e+00 -2.4379611e-03 0.0000000e+00 
0.0000000e+00 -1.5181528e-03 0.0000000e+00 
0.0000000e+00 -8.3164894e-04 0.0000000e+00 
0.0000000e+00 -3.9168046e-04 0.0000000e+00 
0.0000000e+00 -1.4551770e-04 0.0000000e+00 
0.0000000e+00 -2.9030845e-05 0.0000000e+00 
0.0000000e+00 8.5034353e-06 0.0000000e+00 
0.0000000e+00 1.7369420e-06 0.0000000e+00 
0.0000000e+00 -2.4719811e-05 0.0000000e+00 
0.0000000e+00 -5.4231852e-05 0.0000000e+00 
0.0000000e+00 -7.8783189e-05 0.0000000e+00 
0.0000000e+00 -9.5359545e-05 0.0000000e+00 
0.0000000e+00 -1.0561268e-04 0.0000000e+00 
0.0000000e+00 -1.1249776e-04 0.0000000e+00 
0.0000000e+00 -1.1634306e-04 0.0000000e+00 
0.0000000e+00 -1.1603635e-04 0.0000000e+00 
0.0000000e+00 -1.1072912e-04 0.0000000e+00 
0.0000000e+00 -9.9156670e-05 0.0000000e+00 
0.0000000e+00 -7.9274316e-05 0.0000000e+00 
0.0000000e+00 -4.9062055e-05 0.0000000e+00 
0.0000000e+00 -9.9244726e-06 0.0000000e+00 
0.0000000e+00 3.5926536e-05 0.0000000e+00 
0.0000000e+00 8.4682237e-05 0.0000000e+00 
0.0000000e+00 1.3150721e-04 0.0000000e+00 
0.0000000e+00 1.6945069e-04 0.0000000e+00 
0.0000000e+00 1.8448387e-04 0.0000000e+00 
0.0000000e+00 1.4710396e-04 0.0000000e+00 
0.0000000e+00 1.4539852e-05 0.0000000e+00 
0.0000000e+00 -2.6244210e-04 0.0000000e+00 
0.0000000e+00 -7.4393465e-04 0.0000000e+00 
0.0000000e+00 -1.4748275e-03 0.0000000e+00 
0.0000000e+00 -2.4408528e-03 0.0000000e+00 
0.0000000e+00 -3.4631849e-03 0.0000000e+00 
0.0000000e+00 -4.1130697e-03 0.0000000e+00 
0.0000000e+00 -4.0438706e-03 0.0000000e+00 
0.0000000e+00 -3.8835267e-03 0.0000000e+00 
0.0000000e+00 -3.9680018e-03 0.0000000e+00 
0.0000000e+00 -4.2598168e-03 0.0000000e+00 
0.0000000e+00 -4.2074854e-03 0.0000000e+00 
0.0000000e+00 -3.4044390e-03 0.0000000e+00 
0.0000000e+00 -2.3755021e-03 0.0000000e+00 
0.0000000e+00 -1.4842945e-03 0.0000000e+00 
0.0000000e+00 -8.2037138e-04 0.0000000e+00 
0.0000000e+00 -3.8428267e-04 0.0000000e+00 
0.0000000e+00 -1.2430594e-04 0.0000000e+00 
0.0000000e+00 1.8529654e-05 0.0000000e+00 
0.0000000e+00 8.8585970e-05 0.0000000e+00 
0.0000000e+00 1.1422932e-04 0.0000000e+00 
0.0000000e+00 1.1547431e-04 0.0000000e+00 
0.0000000e+00 1.0420953e-04 0.0000000e+00 
0.0000000e+00 8.5408581e-05 0.0000000e+00 
0.0000000e+00 6.1281331e-05 0.0000000e+00 
0.0000000e+00 3.4713830e-05 0.0000000e+00 
0.0000000e+00 9.1879201e-06 0.0000000e+00 
0.0000000e+00 -1.1709174e-05 0.0000000e+00 
0.0000000e+00 -2.6078564e-05 0.0000000e+00 
0.0000000e+00 -3.3937471e-05 0.0000000e+00 
0.0000000e+00 -3.6060032e-05 0.0000000e+00 
0.0000000e+00 -3.3178720e-05 0.0000000e+00 
0.0000000e+00 -2.6019341e-05 0.0000000e+00 
0.0000000e+00 -1.4857338e-05 0.0000000e+00 
0.0000000e+00 -9.3672901e-07 0.0000000e+00 
0.0000000e+00 1.3447284e-05 0.0000000e+00 
0.0000000e+00 2.5553094e-05 0.0000000e+00 
0.0000000e+00 3.2889751e-05 0.0000000e+00 
0.0000000e+00 3.3860346e-05 0.0000000e+00 
0.0000000e+00 2.8190469e-05 0.0000000e+00 
0.0000000e+00 1.6979688e-05 0.0000000e+00 
0.0000000e+00 2.3590992e-06 0.0000000e+00 
0.0000000e+00 -1.3031407e-05 0.0000000e+00 
0.0000000e+00 -2.6461899e-05 0.0000000e+00 
0.0000000e+00 -3.5352332e-05 0.0000000e+00 
0.0000000e+00 -3.7541198e-05 0.0000000e+00 
0.0000000e+00 -3.1811942e-05 0.0000000e+00 
0.0000000e+00 -1.8594115e-05 0.0000000e+00 
0.0000000e+00 -4.0835445e-07 0.0000000e+00 
0.0000000e+00 1.8397741e-05 0.0000000e+00 
0.0000000e+00 3.2713830e-05 0.0000000e+00 
0.0000000e+00 3.8154427e-05 0.0000000e+00 
3.4475704e-06 2.6911179e-05 3.1386521e-06 
2.6168806e-05 8.6596781e-05 2.9349887e-05 
0.0000000e+00 0.0000000e+00 0.0000000e+00 
0.0000000e+00 0.0000000e+00 0.0000000e+00 
0.0000000e+00 0.0000000e+00 0.0000000e+00 
0.0000000e+00 0.0000000e+00 0.0000000e+00 
0.0000000e+00 0.0000000e+00 0.0000000e+00 
0.0000000e+00 0.0000000e+00 0.0000000e+00 
0.0000000e+00 0.0000000e+00 0.0000000e+00 
0.0000000e+00 0.0000000e+00 0.0000000e+00 
0.0000000e+00 0.0000000e+00 0.0000000e+00 
0.0000000e+00 0.0000000e+00 0.0000000e+00 
0.0000000e+00 0.0000000e+00 0.0000000e+00 
0.0000000e+00 0.0000000e+00 0.0000000e+00 
0.0000000e+00 0.0000000e+00 0.0000000e+00 
0.0000000e+00 0.0000000e+00 0.0000000e+00 
0.0000000e+00 0.0000000e+00 0.0000000e+00 
0.0000000e+00 0.0000000e+00 0.0000000e+00 
0.0000000e+00 0.0000000e+00 0.0000000e+00 
0.0000000e+00 0.0000000e+00 0.0000000e+00 
0.0000000e+00 0.0000000e+00 0.0000000e+00 
0.0000000e+00 0.0000000e+00 0.0000000e+00 
0.0000000e+00 0.0000000e+00 0.0000000e+00 
0.0000000e+00 0.0000000e+00 0.0000000e+00 
0.0000000e+00 0.0000000e+00 0.0000000e+00 
0.0000000e+00 0.0000000e+00 0.0000000e+00 
0.0000000e+00 0.0000000e+00 0.0000000e+00 
0.0000000e+00 0.0000000e+00 0.0000000e+00 
0.0000000e+00 0.0000000e+00 0.0000000e+00 
0.0000000e+00 0.0000000e+00 0.0000000e+00 
0.0000000e+00 0.0000000e+00 0.0000000e+00 
0.0000000e+00 0.0000000e+00 0.0000000e+00 
0.0000000e+00 0.0000000e+00 0.0000000e+00 
0.0000000e+00 0.0000000e+00 0.0000000e+00 
0.0000000e+00 0.0000000e+00 0.0000000e+00 
0.0000000e+00 0.0000000e+00 0.0000000e+00 
0.0000000e+00 0.0000000e+00 0.0000000e+00 
0.0000000e+00 0.0000000e+00 0.0000000e+00 
0.0000000e+00 0.0000000e+00 0.0000000e+00 
0.0000000e+00 0.0000000e+00 0.0000000e+00 
0.0000000e+00 0.0000000e+00 0.0000000e+00 
0.0000000e+00 0.0000000e+00 0.0000000e+00 
0.0000000e+00 0.0000000e+00 0.0000000e+00 
0.0000000e+00 0.0000000e+00 0.0000000e+00 
-2.2232866e-06 -2.8518905e-06 -4.9885011e-06 
7.6816723e-06 9.4393300e-07 -1.1164747e-05 
3.0735398e-05 -3.3081189e-06 -1.3976308e-05 
4.5435463e-05 -1.3700011e-05 -7.6024303e-06 
4.5242199e-05 -8.8658244e-06 1.8057747e-06 
1.8915360e-05 -7.8614107e-07 -2.0819539e-06 
5.3434223e-06 2.3864786e-06 4.1239127e-06 
5.6141998e-06 1.1335970e-06 7.7992863e-06 
2.8866702e-06 -5.6786112e-06 4.8848347e-06 
-2.0794087e-06 -5.0700446e-06 2.2572733e-06 
-4.6025225e-06 3.4459290e-06 -1.3234032e-06 
7.4123104e-06 -2.3440984e-06 -6.6590046e-06 
2.8119106e-05 -5.7447210e-06 -6.9332982e-06 
4.8688624e-05 -8.8767047e-06 -2.9981752e-06 
4.7373738e-05 -1.2654901e-05 3.6582073e-06 
2.1205036e-05 -5.6068579e-06 4.1869680e-06 
1.1671716e-06 6.2175318e-06 8.8633369e-06 
-2.7350709e-06 2.8878453e-06 4.5409615e-06 
1.9747777e-06 -4.6011928e-06 2.5921515e-06 
0.0000000e+00 4.2741391e-05 0.0000000e+00 
0.0000000e+00 3.2541175e-05 0.0000000e+00 
0.0000000e+00 -1.8722301e-04 0.0000000e+00 
0.0000000e+00 -5.1344582e-04 0.0000000e+00 
0.0000000e+00 -4.7667001e-04 0.0000000e+00 
0.0000000e+00 -1.6111710e-04 0.0000000e+00 
0.0000000e+00 -2.9417091e-05 0.0000000e+00 
0.0000000e+00 -3.2801741e-05 0.0000000e+00 
0.0000000e+00 -4.1088777e-05 0.0000000e+00 
0.0000000e+00 -3.9515657e-05 0.0000000e+00 
0.0000000e+00 3.0321215e-05 0.0000000e+00 
0.0000000e+00 3.2975644e-05 0.0000000e+00 
0.0000000e+00 -1.8578570e-04 0.0000000e+00 
0.0000000e+00 -4.9656210e-04 0.0000000e+00 
0.0000000e+00 -5.1081978e-04 0.0000000e+00 
0.0000000e+00 -1.8689528e-04 0.0000000e+00 
0.0000000e+00 1.0973710e-05 0.0000000e+00 
0.0000000e+00 3.7351212e-05 0.0000000e+00 
0.0000000e+00 -1.0109640e-05 0.0000000e+00 
6.9922720e-07 -1.2584938e-05 -6.7387805e-06 
-3.9636529e-06 -1.5435726e-05 -8.1329563e-06 
4.3152627e-07 -1.3262024e-06 -2.1939177e-06 
1.2907248e-06 -8.0925074e-06 2.2850033e-06 
3.8341504e-06 -2.5980085e-06 -1.0770077e-05 
2.0269505e-05 9.8461157e-07 -1.7893028e-05 
3.8349313e-05 9.0307822e-07 -6.0503253e-06 
4.9059312e-05 -2.3005500e-06 -5.0555454e-06 
3.3775843e-05 -8.5786842e-06 -1.1318523e-06 
1.1472406e-05 1.5329601e-06 -1.0564578e-05 
1.7859002e-06 3.5593321e-06 4.0986101e-06 
5.2423534e-06 -7.0371811e-07 1.2131572e-05 
-1.1952545e-06 -7.9374686e-06 9.2396140e-06 
-9.0550393e-06 -5.3001208e-06 -1.8419987e-06 
-2.0500884e-06 4.3092141e-06 -8.6132386e-06 
2.3744209e-05 -3.1963093e-06 -8.1701828e-06 
3.0931038e-05 -3.3330107e-06 -1.6665842e-07 
3.9988034e-05 -8.4036183e-06 4.6003679e-06 
2.5867119e-05 -1.0258524e-05 4.9933860e-06 
4.5630504e-06 -1.5816908e-06 -7.5996345e-06 
3.5397247e-06 6.5941158e-06 2.7180452e-06 
2.2965987e-06 8.8150398e-07 7.0382484e-06 
3.5443375e-06 -3.9711681e-06 4.8843681e-06 
1.2332075e-06 -1.3339073e-05 -3.0777912e-05 
0.0000000e+00 8.0853308e-05 0.0000000e+00 
0.0000000e+00 6.8700916e-05 0.0000000e+00 
0.0000000e+00 -4.0243097e-04 0.0000000e+00 
0.0000000e+00 -1.1435950e-03 0.0000000e+00 
0.0000000e+00 -1.0814340e-03 0.0000000e+00 
0.0000000e+00 -3.0214142e-04 0.0000000e+00 
0.0000000e+00 -3.6251200e-05 0.0000000e+00 
0.0000000e+00 -5.9469054e-05 0.0000000e+00 
0.0000000e+00 -7.1275346e-05 0.0000000e+00 
0.0000000e+00 -6.8714267e-05 0.0000000e+00 
0.0000000e+00 5.7845806e-05 0.0000000e+00 
0.0000000e+00 6.9353460e-05 0.0000000e+00 
0.0000000e+00 -4.1678900e-04 0.0000000e+00 
0.0000000e+00 -1.1258228e-03 0.0000000e+00 
0.0000000e+00 -1.1350043e-03 0.0000000e+00 
0.0000000e+00 -3.4069645e-04 0.0000000e+00 
0.0000000e+00 2.7331853e-05 0.0000000e+00 
0.0000000e+00 6.2263025e-05 0.0000000e+00 
0.0000000e+00 -1.6022233e-05 0.0000000e+00 
-3.1861748e-06 -1.2819735e-05 2.4131507e-06 
6.5758111e-05 7.4308104e-05 -2.8413315e-05 
4.9962804e-05 1.1906560e-04 6.9825364e-05 
-2.6101584e-04 -3.9175418e-04 3.2110789e-04 
-6.4233289e-04 -1.2916240e-03 1.0511606e-04 
-5.8017945e-04 -1.3983885e-03 -1.8005792e-04 
-1.7401148e-04 -2.3055974e-04 -2.0987647e-04 
2.4483579e-06 -1.5951489e-05 -4.9269431e-05 
-2.1366990e-05 -5.5075587e-05 -1.8842238e-05 
-7.1713701e-05 -8.2270577e-05 9.7760276e-05 
-2.2962007e-05 -5.9293277e-05 -9.6139280e-05 
5.8379355e-05 3.5567798e-05 -9.1218630e-05 
5.7792007e-05 1.5063486e-04 7.1807895e-05 
-2.4855096e-04 -4.0207361e-04 2.7348191e-04 
-6.4138690e-04 -1.2495704e-03 1.8071992e-04 
-6.1931671e-04 -1.4379497e-03 -3.8622442e-05 
-1.8186694e-04 -2.8223745e-04 -3.0508620e-04 
2.6487758e-05 4.8993646e-05 -1.7740819e-04 
3.2088690e-05 6.2972664e-05 3.9675961e-05 
-3.7941809e-06 -1.1424576e-05 7.5360243e-05 
0.0000000e+00 1.0483831e-04 0.0000000e+00 
0.0000000e+00 1.3268161e-04 0.0000000e+00 
0.0000000e+00 -7.7305740e-04 0.0000000e+00 
0.0000000e+00 -2.2515417e-03 0.0000000e+00 
0.0000000e+00 -2.1100310e-03 0.0000000e+00 
0.0000000e+00 -5.1085599e-04 0.0000000e+00 
0.0000000e+00 -4.6366566e-08 0.0000000e+00 
0.0000000e+00 -8.7996115e-05 0.0000000e+00 
0.0000000e+00 -8.3567415e-05 0.0000000e+00 
0.0000000e+00 -8.1842139e-05 0.0000000e+00 
0.0000000e+00 6.9618087e-05 0.0000000e+00 
0.0000000e+00 1.3575864e-04 0.0000000e+00 
0.0000000e+00 -8.4632490e-04 0.0000000e+00 
0.0000000e+00 -2.2726397e-03 0.0000000e+00 
0.0000000e+00 -2.1572798e-03 0.0000000e+00 
0.0000000e+00 -5.2883284e-04 0.0000000e+00 
0.0000000e+00 6.9224974e-05 0.0000000e+00 
0.0000000e+00 7.7804812e-05 0.0000000e+00 
0.0000000e+00 -1.6843289e-05 0.0000000e+00 
1.0165711e-05 1.9299589e-05 -1.5699859e-05 
2.9678322e-05 3.6519126e-05 2.9521530e-06 
5.1447947e-05 -2.5055251e-05 5.4340699e-06 
5.3419848e-05 -1.0323803e-04 -2.1300282e-05 
4.7383906e-05 -8.3408348e-05 -8.2083006e-06 
3.3515818e-05 -4.0892322e-05 -3.4319714e-06 
7.6994711e-06 -6.4211713e-06 -9.4328943e-06 
-6.6171083e-06 -4.0706059e-06 3.4825882e-06 
-1.7059549e-05 -1.7644936e-05 1.3502843e-05 
-7.3786127e-06 -2.3079632e-05 -1.2124675e-05 
3.5514877e-06 1.5291909e-05 -1.5236480e-05 
2.8128861e-05 4.5375622e-05 4.6544278e-06 
6.5309592e-05 -3.3900171e-05 4.7544636e-06 
6.1880404e-05 -7.8295765e-05 9.7437523e-06 
3.5148281e-05 -1.1005220e-04 2.1276115e-05 
2.5061845e-05 -7.2654191e-05 -1.4823921e-05 
2.0512259e-07 2.2076931e-05 -3.7794478e-05 
1.3160349e-06 -5.4683619e-06 1.4764762e-05 
2.0599240e-05 5.1192314e-05 2.3483308e-05 
0.0000000e+00 0.0000000e+00 0.0000000e+00 
0.0000000e+00 0.0000000e+00 0.0000000e+00 
0.0000000e+00 0.0000000e+00 0.0000000e+00 
0.0000000e+00 0.0000000e+00 0.0000000e+00 
0.0000000e+00 0.0000000e+00 0.0000000e+00 
0.0000000e+00 0.0000000e+00 0.0000000e+00 
0.0000000e+00 0.0000000e+00 0.0000000e+00 
0.0000000e+00 0.0000000e+00 0.0000000e+00 
0.0000000e+00 0.0000000e+00 0.0000000e+00 
0.0000000e+00 0.0000000e+00 0.0000000e+00 
0.0000000e+00 0.0000000e+00 0.0000000e+00 
0.0000000e+00 0.0000000e+00 0.0000000e+00 
0.0000000e+00 0.0000000e+00 0.0000000e+00 
0.0000000e+00 0.0000000e+00 0.0000000e+00 
0.0000000e+00 0.0000000e+00 0.0000000e+00 
0.0000000e+00 0.0000000e+00 0.0000000e+00 
0.0000000e+00 0.0000000e+00 0.0000000e+00 
0.0000000e+00 0.0000000e+00 0.0000000e+00 
0.0000000e+00 0.0000000e+00 0.0000000e+00 
0.0000000e+00 0.0000000e+00 0.0000000e+00 
0.0000000e+00 0.0000000e+00 0.0000000e+00 
0.0000000e+00 0.0000000e+00 0.0000000e+00 
0.0000000e+00 0.0000000e+00 0.0000000e+00 
0.0000000e+00 0.0000000e+00 0.0000000e+00 
0.0000000e+00 0.0000000e+00 0.0000000e+00 
0.0000000e+00 0.0000000e+00 0.0000000e+00 
0.0000000e+00 0.0000000e+00 0.0000000e+00 
0.0000000e+00 0.0000000e+00 0.0000000e+00 
0.0000000e+00 0.0000000e+00 0.0000000e+00 
0.0000000e+00 0.0000000e+00 0.0000000e+00 
0.0000000e+00 0.0000000e+00 0.0000000e+00 
0.0000000e+00 0.0000000e+00 0.0000000e+00 
0.0000000e+00 0.0000000e+00 0.0000000e+00 
0.0000000e+00 0.0000000e+00 0.0000000e+00 
0.0000000e+00 0.0000000e+00 0.0000000e+00 
0.0000000e+00 0.0000000e+00 0.0000000e+00 
0.0000000e+00 0.0000000e+00 0.0000000e+00 
0.0000000e+00 0.0000000e+00 0.0000000e+00 
0.0000000e+00 0.0000000e+00 0.0000000e+00 
0.0000000e+00 0.0000000e+00 0.0000000e+00 
0.0000000e+00 0.0000000e+00 0.0000000e+00 
0.0000000e+00 0.0000000e+00 0.0000000e+00 
8.6867485e-06 -3.4369182e-06 -8.7524868e-06 
3.9698339e-06 -7.8547760e-07 8.2462611e-07 
3.8623120e-06 -1.7961106e-06 3.2247324e-06 
-8.0559039e-07 1.4518043e-06 -1.4428853e-06 
6.3884972e-06 -5.8793917e-06 -3.8331532e-06 
2.3681241e-05 -8.5457568e-06 -2.8029826e-06 
2.5809784e-05 -1.1709541e-05 -7.9389287e-07 
2.2342263e-05 -1.1564107e-05 2.8192403e-06 