# vtk DataFile Version 4.0
vtk output
ASCII
DATASET UNSTRUCTURED_GRID
POINTS 1827 float
0.0000000e+00 0.0000000e+00 0.0000000e+00 
0.0000000e+00 0.0000000e+00 2.0000000e+01 
3.4700000e+00 0.0000000e+00 0.0000000e+00 
3.4700000e+00 0.0000000e+00 2.0000000e+01 
3.4700000e+00 1.0000000e+00 0.0000000e+00 
3.4700000e+00 1.0000000e+00 2.0000000e+01 
0.0000000e+00 1.0000000e+00 0.0000000e+00 
0.0000000e+00 1.0000000e+00 2.0000000e+01 
1.2500000e+00 2.5000000e+00 0.0000000e+00 
1.2500000e+00 2.5000000e+00 1.1700000e-01 
7.5000000e-01 2.5000000e+00 1.1700000e-01 
7.5000000e-01 2.5000000e+00 0.0000000e+00 
0.0000000e+00 2.5000000e+00 0.0000000e+00 
0.0000000e+00 2.5000000e+00 1.1700000e-01 
1.2500000e+00 2.8000000e+00 1.1700000e-01 
1.2500000e+00 2.8000000e+00 0.0000000e+00 
0.0000000e+00 2.8000000e+00 0.0000000e+00 
0.0000000e+00 2.8000000e+00 1.1700000e-01 
7.5000000e-01 2.5000000e+00 3.8299999e-01 
1.2500000e+00 2.5000000e+00 3.8299999e-01 
1.2500000e+00 2.5000000e+00 6.1699998e-01 
7.5000000e-01 2.5000000e+00 6.1699998e-01 
7.5000000e-01 2.5000000e+00 5.0000000e-01 
0.0000000e+00 2.5000000e+00 3.8299999e-01 
0.0000000e+00 2.5000000e+00 6.1699998e-01 
1.2500000e+00 2.8000000e+00 6.1699998e-01 
1.2500000e+00 2.8000000e+00 3.8299999e-01 
0.0000000e+00 2.8000000e+00 3.8299999e-01 
0.0000000e+00 2.8000000e+00 6.1699998e-01 
7.5000000e-01 2.5000000e+00 8.8300002e-01 
1.2500000e+00 2.5000000e+00 8.8300002e-01 
1.2500000e+00 2.5000000e+00 1.1170000e+00 
7.5000000e-01 2.5000000e+00 1.1170000e+00 
7.5000000e-01 2.5000000e+00 1.0000000e+00 
0.0000000e+00 2.5000000e+00 8.8300002e-01 
0.0000000e+00 2.5000000e+00 1.1170000e+00 
1.2500000e+00 2.8000000e+00 1.1170000e+00 
1.2500000e+00 2.8000000e+00 8.8300002e-01 
0.0000000e+00 2.8000000e+00 8.8300002e-01 
0.0000000e+00 2.8000000e+00 1.1170000e+00 
7.5000000e-01 2.5000000e+00 1.3830000e+00 
1.2500000e+00 2.5000000e+00 1.3830000e+00 
1.2500000e+00 2.5000000e+00 1.6170000e+00 
7.5000000e-01 2.5000000e+00 1.6170000e+00 
7.5000000e-01 2.5000000e+00 1.5000000e+00 
0.0000000e+00 2.5000000e+00 1.3830000e+00 
0.0000000e+00 2.5000000e+00 1.6170000e+00 
1.2500000e+00 2.8000000e+00 1.6170000e+00 
1.2500000e+00 2.8000000e+00 1.3830000e+00 
0.0000000e+00 2.8000000e+00 1.3830000e+00 
0.0000000e+00 2.8000000e+00 1.6170000e+00 
7.5000000e-01 2.5000000e+00 1.8830000e+00 
1.2500000e+00 2.5000000e+00 1.8830000e+00 
1.2500000e+00 2.5000000e+00 2.1170001e+00 
7.5000000e-01 2.5000000e+00 2.1170001e+00 
7.5000000e-01 2.5000000e+00 2.0000000e+00 
0.0000000e+00 2.5000000e+00 1.8830000e+00 
0.0000000e+00 2.5000000e+00 2.1170001e+00 
1.2500000e+00 2.8000000e+00 2.1170001e+00 
1.2500000e+00 2.8000000e+00 1.8830000e+00 
0.0000000e+00 2.8000000e+00 1.8830000e+00 
0.0000000e+00 2.8000000e+00 2.1170001e+00 
7.5000000e-01 2.5000000e+00 2.3829999e+00 
1.2500000e+00 2.5000000e+00 2.3829999e+00 
1.2500000e+00 2.5000000e+00 2.6170001e+00 
7.5000000e-01 2.5000000e+00 2.6170001e+00 
7.5000000e-01 2.5000000e+00 2.5000000e+00 
0.0000000e+00 2.5000000e+00 2.3829999e+00 
0.0000000e+00 2.5000000e+00 2.6170001e+00 
1.2500000e+00 2.8000000e+00 2.6170001e+00 
1.2500000e+00 2.8000000e+00 2.3829999e+00 
0.0000000e+00 2.8000000e+00 2.3829999e+00 
0.0000000e+00 2.8000000e+00 2.6170001e+00 
7.5000000e-01 2.5000000e+00 2.8829999e+00 
1.2500000e+00 2.5000000e+00 2.8829999e+00 
1.2500000e+00 2.5000000e+00 3.1170001e+00 
7.5000000e-01 2.5000000e+00 3.1170001e+00 
7.5000000e-01 2.5000000e+00 3.0000000e+00 
0.0000000e+00 2.5000000e+00 2.8829999e+00 
0.0000000e+00 2.5000000e+00 3.1170001e+00 
1.2500000e+00 2.8000000e+00 3.1170001e+00 
1.2500000e+00 2.8000000e+00 2.8829999e+00 
0.0000000e+00 2.8000000e+00 2.8829999e+00 
0.0000000e+00 2.8000000e+00 3.1170001e+00 
7.5000000e-01 2.5000000e+00 3.3829999e+00 
1.2500000e+00 2.5000000e+00 3.3829999e+00 
1.2500000e+00 2.5000000e+00 3.6170001e+00 
7.5000000e-01 2.5000000e+00 3.6170001e+00 
7.5000000e-01 2.5000000e+00 3.5000000e+00 
0.0000000e+00 2.5000000e+00 3.3829999e+00 
0.0000000e+00 2.5000000e+00 3.6170001e+00 
1.2500000e+00 2.8000000e+00 3.6170001e+00 
1.2500000e+00 2.8000000e+00 3.3829999e+00 
0.0000000e+00 2.8000000e+00 3.3829999e+00 
0.0000000e+00 2.8000000e+00 3.6170001e+00 
7.5000000e-01 2.5000000e+00 3.8829999e+00 
1.2500000e+00 2.5000000e+00 3.8829999e+00 
1.2500000e+00 2.5000000e+00 4.1170001e+00 
7.5000000e-01 2.5000000e+00 4.1170001e+00 
7.5000000e-01 2.5000000e+00 4.0000000e+00 
0.0000000e+00 2.5000000e+00 3.8829999e+00 
0.0000000e+00 2.5000000e+00 4.1170001e+00 
1.2500000e+00 2.8000000e+00 4.1170001e+00 
1.2500000e+00 2.8000000e+00 3.8829999e+00 
0.0000000e+00 2.8000000e+00 3.8829999e+00 
0.0000000e+00 2.8000000e+00 4.1170001e+00 
7.5000000e-01 2.5000000e+00 4.3829999e+00 
1.2500000e+00 2.5000000e+00 4.3829999e+00 
1.2500000e+00 2.5000000e+00 4.6170001e+00 
7.5000000e-01 2.5000000e+00 4.6170001e+00 
7.5000000e-01 2.5000000e+00 4.5000000e+00 
0.0000000e+00 2.5000000e+00 4.3829999e+00 
0.0000000e+00 2.5000000e+00 4.6170001e+00 
1.2500000e+00 2.8000000e+00 4.6170001e+00 
1.2500000e+00 2.8000000e+00 4.3829999e+00 
0.0000000e+00 2.8000000e+00 4.3829999e+00 
0.0000000e+00 2.8000000e+00 4.6170001e+00 
7.5000000e-01 2.5000000e+00 4.8829999e+00 
1.2500000e+00 2.5000000e+00 4.8829999e+00 
1.2500000e+00 2.5000000e+00 5.1170001e+00 
7.5000000e-01 2.5000000e+00 5.1170001e+00 
7.5000000e-01 2.5000000e+00 5.0000000e+00 
0.0000000e+00 2.5000000e+00 4.8829999e+00 
0.0000000e+00 2.5000000e+00 5.1170001e+00 
1.2500000e+00 2.8000000e+00 5.1170001e+00 
1.2500000e+00 2.8000000e+00 4.8829999e+00 
0.0000000e+00 2.8000000e+00 4.8829999e+00 
0.0000000e+00 2.8000000e+00 5.1170001e+00 
7.5000000e-01 2.5000000e+00 5.3829999e+00 
1.2500000e+00 2.5000000e+00 5.3829999e+00 
1.2500000e+00 2.5000000e+00 5.6170001e+00 
7.5000000e-01 2.5000000e+00 5.6170001e+00 
7.5000000e-01 2.5000000e+00 5.5000000e+00 
0.0000000e+00 2.5000000e+00 5.3829999e+00 
0.0000000e+00 2.5000000e+00 5.6170001e+00 
1.2500000e+00 2.8000000e+00 5.6170001e+00 
1.2500000e+00 2.8000000e+00 5.3829999e+00 
0.0000000e+00 2.8000000e+00 5.3829999e+00 
0.0000000e+00 2.8000000e+00 5.6170001e+00 
7.5000000e-01 2.5000000e+00 5.8829999e+00 
1.2500000e+00 2.5000000e+00 5.8829999e+00 
1.2500000e+00 2.5000000e+00 6.1170001e+00 
7.5000000e-01 2.5000000e+00 6.1170001e+00 
7.5000000e-01 2.5000000e+00 6.0000000e+00 
0.0000000e+00 2.5000000e+00 5.8829999e+00 
0.0000000e+00 2.5000000e+00 6.1170001e+00 
1.2500000e+00 2.8000000e+00 6.1170001e+00 
1.2500000e+00 2.8000000e+00 5.8829999e+00 
0.0000000e+00 2.8000000e+00 5.8829999e+00 
0.0000000e+00 2.8000000e+00 6.1170001e+00 
7.5000000e-01 2.5000000e+00 6.3829999e+00 
1.2500000e+00 2.5000000e+00 6.3829999e+00 
1.2500000e+00 2.5000000e+00 6.6170001e+00 
7.5000000e-01 2.5000000e+00 6.6170001e+00 
7.5000000e-01 2.5000000e+00 6.5000000e+00 
0.0000000e+00 2.5000000e+00 6.3829999e+00 
0.0000000e+00 2.5000000e+00 6.6170001e+00 
1.2500000e+00 2.8000000e+00 6.6170001e+00 
1.2500000e+00 2.8000000e+00 6.3829999e+00 
0.0000000e+00 2.8000000e+00 6.3829999e+00 
0.0000000e+00 2.8000000e+00 6.6170001e+00 
7.5000000e-01 2.5000000e+00 6.8829999e+00 
1.2500000e+00 2.5000000e+00 6.8829999e+00 
1.2500000e+00 2.5000000e+00 7.1170001e+00 
7.5000000e-01 2.5000000e+00 7.1170001e+00 
7.5000000e-01 2.5000000e+00 7.0000000e+00 
0.0000000e+00 2.5000000e+00 6.8829999e+00 
0.0000000e+00 2.5000000e+00 7.1170001e+00 
1.2500000e+00 2.8000000e+00 7.1170001e+00 
1.2500000e+00 2.8000000e+00 6.8829999e+00 
0.0000000e+00 2.8000000e+00 6.8829999e+00 
0.0000000e+00 2.8000000e+00 7.1170001e+00 
7.5000000e-01 2.5000000e+00 7.3829999e+00 
1.2500000e+00 2.5000000e+00 7.3829999e+00 
1.2500000e+00 2.5000000e+00 7.6170001e+00 
7.5000000e-01 2.5000000e+00 7.6170001e+00 
7.5000000e-01 2.5000000e+00 7.5000000e+00 
0.0000000e+00 2.5000000e+00 7.3829999e+00 
0.0000000e+00 2.5000000e+00 7.6170001e+00 
1.2500000e+00 2.8000000e+00 7.6170001e+00 
1.2500000e+00 2.8000000e+00 7.3829999e+00 
0.0000000e+00 2.8000000e+00 7.3829999e+00 
0.0000000e+00 2.8000000e+00 7.6170001e+00 
7.5000000e-01 2.5000000e+00 7.8829999e+00 
1.2500000e+00 2.5000000e+00 7.8829999e+00 
1.2500000e+00 2.5000000e+00 8.1169996e+00 
7.5000000e-01 2.5000000e+00 8.1169996e+00 
7.5000000e-01 2.5000000e+00 8.0000000e+00 
0.0000000e+00 2.5000000e+00 7.8829999e+00 
0.0000000e+00 2.5000000e+00 8.1169996e+00 
1.2500000e+00 2.8000000e+00 8.1169996e+00 
1.2500000e+00 2.8000000e+00 7.8829999e+00 
0.0000000e+00 2.8000000e+00 7.8829999e+00 
0.0000000e+00 2.8000000e+00 8.1169996e+00 
7.5000000e-01 2.5000000e+00 8.3830004e+00 
1.2500000e+00 2.5000000e+00 8.3830004e+00 
1.2500000e+00 2.5000000e+00 8.6169996e+00 
7.5000000e-01 2.5000000e+00 8.6169996e+00 
7.5000000e-01 2.5000000e+00 8.5000000e+00 
0.0000000e+00 2.5000000e+00 8.3830004e+00 
0.0000000e+00 2.5000000e+00 8.6169996e+00 
1.2500000e+00 2.8000000e+00 8.6169996e+00 
1.2500000e+00 2.8000000e+00 8.3830004e+00 
0.0000000e+00 2.8000000e+00 8.3830004e+00 
0.0000000e+00 2.8000000e+00 8.6169996e+00 
7.5000000e-01 2.5000000e+00 8.8830004e+00 
1.2500000e+00 2.5000000e+00 8.8830004e+00 
1.2500000e+00 2.5000000e+00 9.1169996e+00 
7.5000000e-01 2.5000000e+00 9.1169996e+00 
7.5000000e-01 2.5000000e+00 9.0000000e+00 
0.0000000e+00 2.5000000e+00 8.8830004e+00 
0.0000000e+00 2.5000000e+00 9.1169996e+00 
1.2500000e+00 2.8000000e+00 9.1169996e+00 
1.2500000e+00 2.8000000e+00 8.8830004e+00 
0.0000000e+00 2.8000000e+00 8.8830004e+00 
0.0000000e+00 2.8000000e+00 9.1169996e+00 
7.5000000e-01 2.5000000e+00 9.3830004e+00 
1.2500000e+00 2.5000000e+00 9.3830004e+00 
1.2500000e+00 2.5000000e+00 9.6169996e+00 
7.5000000e-01 2.5000000e+00 9.6169996e+00 
7.5000000e-01 2.5000000e+00 9.5000000e+00 
0.0000000e+00 2.5000000e+00 9.3830004e+00 
0.0000000e+00 2.5000000e+00 9.6169996e+00 
1.2500000e+00 2.8000000e+00 9.6169996e+00 
1.2500000e+00 2.8000000e+00 9.3830004e+00 
0.0000000e+00 2.8000000e+00 9.3830004e+00 
0.0000000e+00 2.8000000e+00 9.6169996e+00 
7.5000000e-01 2.5000000e+00 9.8830004e+00 
1.2500000e+00 2.5000000e+00 9.8830004e+00 
1.2500000e+00 2.5000000e+00 1.0117000e+01 
[...]
POINT_DATA 1827
FIELD FieldData 2
DISPLACEMENT 3 1827  float
0.0000000e+00 0.0000000e+00 0.0000000e+00 
0.0000000e+00 0.0000000e+00 0.0000000e+00 
0.0000000e+00 0.0000000e+00 0.0000000e+00 
0.0000000e+00 0.0000000e+00 0.0000000e+00 
0.0000000e+00 -1.9228422e-05 0.0000000e+00 
0.0000000e+00 -7.1431094e-07 0.0000000e+00 
0.0000000e+00 -2.0014826e-05 0.0000000e+00 
0.0000000e+00 -2.8884228e-06 0.0000000e+00 
0.0000000e+00 -2.1212652e-06 0.0000000e+00 
-3.0267358e-08 -2.1415556e-06 -1.7119991e-08 
-2.3063675e-09 -1.8948274e-06 -7.5798479e-09 
0.0000000e+00 -1.8791608e-06 0.0000000e+00 
0.0000000e+00 -1.9433769e-06 0.0000000e+00 
0.0000000e+00 -1.9462975e-06 0.0000000e+00 
2.4437780e-08 -2.0904131e-06 4.3483488e-09 
0.0000000e+00 -2.0909915e-06 0.0000000e+00 
0.0000000e+00 -1.9432209e-06 0.0000000e+00 
0.0000000e+00 -1.9467172e-06 0.0000000e+00 
-1.3448845e-07 -5.1644556e-06 2.3122089e-07 
-2.1942688e-07 -5.6658605e-06 3.6616714e-07 
-2.7282948e-07 -5.5741293e-06 3.6435631e-07 
-1.9366604e-07 -5.0822523e-06 2.3266739e-07 
-1.5965638e-07 -5.1176489e-06 2.2940054e-07 
0.0000000e+00 -4.8986894e-06 0.0000000e+00 
0.0000000e+00 -4.8491088e-06 0.0000000e+00 
3.5600387e-08 -5.5471664e-06 2.5465366e-07 
9.9623428e-08 -5.6381136e-06 2.5424762e-07 
0.0000000e+00 -4.8961465e-06 0.0000000e+00 
0.0000000e+00 -4.8586890e-06 0.0000000e+00 
-1.0786698e-07 6.7205237e-06 2.0815857e-07 
-1.5305577e-07 6.2519571e-06 3.4347332e-07 
-2.0146052e-07 6.4671372e-06 3.4581166e-07 
-1.5662681e-07 6.8500299e-06 2.1149609e-07 
-1.2998584e-07 6.7867495e-06 2.0537469e-07 
0.0000000e+00 7.0783090e-06 0.0000000e+00 
0.0000000e+00 7.1276813e-06 0.0000000e+00 
5.7915365e-08 6.4573978e-06 1.2966291e-07 
1.1068951e-07 6.2943236e-06 1.3042319e-07 
0.0000000e+00 7.0768870e-06 0.0000000e+00 
0.0000000e+00 7.1206146e-06 0.0000000e+00 
-4.2481521e-08 1.8496723e-05 4.4150934e-07 
-2.4994359e-08 1.8166804e-05 9.1553511e-07 
-2.5227010e-07 1.8252200e-05 9.2736224e-07 
-2.0951705e-07 1.8561372e-05 4.4969434e-07 
-1.2383109e-07 1.8524293e-05 4.4093872e-07 
0.0000000e+00 1.8815104e-05 0.0000000e+00 
0.0000000e+00 1.8847024e-05 0.0000000e+00 
-5.8038719e-08 1.8254887e-05 8.0366175e-07 
1.5942892e-07 1.8175124e-05 8.0908961e-07 
0.0000000e+00 1.8810602e-05 0.0000000e+00 
0.0000000e+00 1.8848183e-05 0.0000000e+00 
-1.1340473e-07 2.0877791e-05 -1.5845665e-09 
-1.2603255e-07 2.0511869e-05 -1.5163272e-08 
-1.2105906e-07 2.0514723e-05 -2.4086761e-08 
-1.0944319e-07 2.0878006e-05 1.0272059e-09 
-1.0907809e-07 2.0878721e-05 -3.8351211e-10 
0.0000000e+00 2.1179234e-05 0.0000000e+00 
0.0000000e+00 2.1174474e-05 0.0000000e+00 
9.1728509e-08 2.0526586e-05 -1.9770287e-08 
8.3493866e-08 2.0526315e-05 -1.9470660e-08 
0.0000000e+00 2.1169166e-05 0.0000000e+00 
0.0000000e+00 2.1162828e-05 0.0000000e+00 
-1.6065059e-07 1.7967184e-05 -3.3814112e-07 
-2.3327519e-07 1.7750730e-05 -7.7976165e-07 
-2.8955478e-08 1.7663822e-05 -7.8448511e-07 
-1.6818747e-08 1.7900689e-05 -3.4262683e-07 
-8.4669743e-08 1.7937637e-05 -3.3658915e-07 
0.0000000e+00 1.8011369e-05 0.0000000e+00 
0.0000000e+00 1.7983795e-05 0.0000000e+00 
1.1253262e-07 1.7686358e-05 -6.6185589e-07 
-8.4342396e-08 1.7764043e-05 -6.6478162e-07 
0.0000000e+00 1.8006918e-05 0.0000000e+00 
0.0000000e+00 1.7981543e-05 0.0000000e+00 
-1.6391442e-07 1.7377306e-05 -1.9638513e-07 
-2.4510257e-07 1.7089578e-05 -4.2513128e-07 
-1.3317415e-07 1.7088707e-05 -4.1423149e-07 
-8.7186223e-08 1.7375494e-05 -1.9550363e-07 
-1.2225036e-07 1.7379924e-05 -1.9403470e-07 
0.0000000e+00 1.7521854e-05 0.0000000e+00 
0.0000000e+00 1.7522156e-05 0.0000000e+00 
5.7511169e-08 1.7101331e-05 -4.0410998e-07 
-4.6688747e-08 1.7107148e-05 -4.0462260e-07 
0.0000000e+00 1.7522994e-05 0.0000000e+00 
0.0000000e+00 1.7519627e-05 0.0000000e+00 
-7.5092736e-08 2.0891279e-05 1.9058439e-07 
-1.2383295e-07 2.0497811e-05 3.3812032e-07 
-1.3804282e-07 2.0640173e-05 3.4512496e-07 
-1.2627912e-07 2.0965264e-05 1.9192288e-07 
-9.8038541e-08 2.0928384e-05 1.8803051e-07 
0.0000000e+00 2.1194268e-05 0.0000000e+00 
0.0000000e+00 2.1220521e-05 0.0000000e+00 
5.3222085e-08 2.0635029e-05 2.0108338e-07 
1.2021755e-07 2.0529962e-05 2.0211370e-07 
0.0000000e+00 2.1178450e-05 0.0000000e+00 
0.0000000e+00 2.1202826e-05 0.0000000e+00 
6.9615815e-08 2.5325980e-05 6.8184519e-08 
1.1194760e-07 2.5405956e-05 1.5210097e-07 
7.7264993e-08 2.5442638e-05 1.3634175e-07 
4.6181714e-08 2.5354477e-05 6.4772522e-08 
5.7522225e-08 2.5341178e-05 6.5668921e-08 
0.0000000e+00 2.5247275e-05 0.0000000e+00 
0.0000000e+00 2.5263482e-05 0.0000000e+00 
5.2621489e-09 2.5441719e-05 9.7471116e-08 
3.9270653e-08 2.5408099e-05 9.7150519e-08 
0.0000000e+00 2.5253936e-05 0.0000000e+00 
0.0000000e+00 2.5263085e-05 0.0000000e+00 
-9.0174961e-09 2.9242929e-05 -3.6427514e-07 
-2.1641403e-08 2.9461944e-05 -7.5691634e-07 
1.5845153e-07 2.9423165e-05 -7.4845741e-07 
1.3014026e-07 2.9210250e-05 -3.6565152e-07 
5.9025115e-08 2.9225474e-05 -3.6150158e-07 
0.0000000e+00 2.9081182e-05 0.0000000e+00 
0.0000000e+00 2.9068780e-05 0.0000000e+00 
3.5432951e-08 2.9412889e-05 -6.8925948e-07 
-1.4325343e-07 2.9453560e-05 -6.8985895e-07 
0.0000000e+00 2.9088867e-05 0.0000000e+00 
0.0000000e+00 2.9069179e-05 0.0000000e+00 
-4.6707623e-08 3.1326734e-05 3.0821035e-08 
-8.0837857e-08 3.1295909e-05 9.2378457e-08 
-9.5857615e-08 3.1322368e-05 9.5003394e-08 
-6.1842293e-08 3.1343236e-05 3.3234297e-08 
-5.3580415e-08 3.1337557e-05 3.1644923e-08 
0.0000000e+00 3.1375981e-05 0.0000000e+00 
0.0000000e+00 3.1383697e-05 0.0000000e+00 
-6.1580977e-08 3.1319174e-05 6.4125103e-08 
-3.5258289e-08 3.1298281e-05 6.1709763e-08 
0.0000000e+00 3.1379637e-05 0.0000000e+00 
0.0000000e+00 3.1385371e-05 0.0000000e+00 
4.1959780e-08 3.0691372e-05 1.2193499e-07 
5.5876008e-08 3.0817318e-05 2.4724071e-07 
-1.8784296e-09 3.0809504e-05 2.5589529e-07 
-4.4497570e-09 3.0692190e-05 1.2394572e-07 
1.6698772e-08 3.0691568e-05 1.2204805e-07 
0.0000000e+00 3.0710886e-05 0.0000000e+00 
0.0000000e+00 3.0713210e-05 0.0000000e+00 
-6.5540981e-08 3.0800293e-05 2.4870434e-07 
-4.1429238e-09 3.0799762e-05 2.4901453e-07 
0.0000000e+00 3.0709616e-05 0.0000000e+00 
0.0000000e+00 3.0713527e-05 0.0000000e+00 
6.8998460e-08 2.6464362e-05 3.4542694e-07 
1.0564933e-07 2.6437649e-05 8.0381028e-07 
-9.5328119e-08 2.6423875e-05 8.0864515e-07 
-8.5241965e-08 2.6466007e-05 3.4260654e-07 
-9.4255102e-09 2.6469228e-05 3.4119401e-07 
0.0000000e+00 2.6569132e-05 0.0000000e+00 
0.0000000e+00 2.6568197e-05 0.0000000e+00 
-8.2436600e-08 2.6427837e-05 7.8412336e-07 
1.3154273e-07 2.6424519e-05 7.8530047e-07 
0.0000000e+00 2.6557991e-05 0.0000000e+00 
0.0000000e+00 2.6569489e-05 0.0000000e+00 
9.2138386e-08 2.1839935e-05 2.7152768e-07 
1.3859245e-07 2.1931251e-05 6.0385702e-07 
-1.2002726e-08 2.1968428e-05 6.0356115e-07 
-1.8095754e-08 2.1858570e-05 2.6958830e-07 
3.5456811e-08 2.1851258e-05 2.6780558e-07 
0.0000000e+00 2.1808744e-05 0.0000000e+00 
0.0000000e+00 2.1813625e-05 0.0000000e+00 
-8.0169379e-08 2.1959071e-05 5.4908412e-07 
7.1269255e-08 2.1928154e-05 5.4989107e-07 
0.0000000e+00 2.1806891e-05 0.0000000e+00 
0.0000000e+00 2.1819940e-05 0.0000000e+00 
5.5379413e-08 1.9224859e-05 1.9559560e-07 
7.3836425e-08 1.9258816e-05 4.9532218e-07 
-7.2306044e-08 1.9279350e-05 4.9447834e-07 
-3.5923492e-08 1.9241239e-05 1.9350345e-07 
1.0233547e-08 1.9235922e-05 1.9240173e-07 
0.0000000e+00 1.9165534e-05 0.0000000e+00 
0.0000000e+00 1.9173016e-05 0.0000000e+00 
-8.4124146e-08 1.9282408e-05 4.5327010e-07 
4.9368889e-08 1.9262392e-05 4.5292333e-07 
0.0000000e+00 1.9169773e-05 0.0000000e+00 
0.0000000e+00 1.9177320e-05 0.0000000e+00 
-3.6485027e-08 1.8946797e-05 -1.3392152e-07 
-4.5708816e-08 1.8780751e-05 -2.3607465e-07 
1.0086478e-08 1.8746687e-05 -2.4810836e-07 
6.0136389e-09 1.8918803e-05 -1.3618869e-07 
-1.3846868e-08 1.8935094e-05 -1.3348100e-07 
0.0000000e+00 1.8993085e-05 0.0000000e+00 
0.0000000e+00 1.8981886e-05 0.0000000e+00 
9.4112089e-08 1.8763652e-05 -1.9999726e-07 
4.4929390e-08 1.8795981e-05 -2.0045655e-07 
0.0000000e+00 1.8987184e-05 0.0000000e+00 
0.0000000e+00 1.8978302e-05 0.0000000e+00 
-1.2052703e-07 1.5670985e-05 -4.2514111e-07 
-1.3381712e-07 1.5382810e-05 -8.6545293e-07 
5.5441639e-08 1.5256666e-05 -8.7504554e-07 
3.0618367e-08 1.5595730e-05 -4.2578418e-07 
-4.3694797e-08 1.5632622e-05 -4.2068200e-07 
0.0000000e+00 1.5873726e-05 0.0000000e+00 
0.0000000e+00 1.5834434e-05 0.0000000e+00 
2.2779300e-07 1.5282441e-05 -7.1870119e-07 
2.6283034e-08 1.5387626e-05 -7.1830925e-07 
0.0000000e+00 1.5855419e-05 0.0000000e+00 
0.0000000e+00 1.5822960e-05 0.0000000e+00 
-1.2053665e-07 9.8436408e-07 2.0002458e-08 
-1.5618669e-07 5.5614055e-07 -1.6979721e-08 
-1.5918766e-07 3.4748876e-07 -2.2131445e-08 
-1.3230604e-07 8.6635288e-07 2.1763713e-08 
-1.2293303e-07 9.2982719e-07 2.1961370e-08 
0.0000000e+00 1.2943391e-06 0.0000000e+00 
0.0000000e+00 1.2463078e-06 0.0000000e+00 
1.2235877e-07 3.9689436e-07 1.8946425e-07 
1.2199811e-07 5.4794623e-07 1.8878353e-07 
0.0000000e+00 1.2769003e-06 0.0000000e+00 
0.0000000e+00 1.2384883e-06 0.0000000e+00 
5.0750039e-08 -2.9182440e-05 -1.1656621e-07 
6.3502057e-08 -2.8994695e-05 -2.0006495e-07 
9.3452719e-08 -2.9330698e-05 -1.9390568e-07 
6.3167121e-08 -2.9385708e-05 -1.1441777e-07 
5.5650283e-08 -2.9286692e-05 -1.1147852e-07 
0.0000000e+00 -2.9309931e-05 0.0000000e+00 
0.0000000e+00 -2.9397979e-05 0.0000000e+00 
6.6278303e-09 -2.9297882e-05 1.4022781e-07 
-8.9304084e-09 -2.9043176e-05 1.4020293e-07 
0.0000000e+00 -2.9328907e-05 0.0000000e+00 
0.0000000e+00 -2.9399176e-05 0.0000000e+00 
1.5242668e-07 -8.2654245e-05 1.3007981e-07 
1.9740808e-07 -8.2226688e-05 1.7213115e-07 
1.4604612e-07 -8.2698221e-05 1.7051786e-07 
8.8902453e-08 -8.2909362e-05 1.3020063e-07 
1.1660840e-07 -8.2787119e-05 1.3250984e-07 
0.0000000e+00 -8.2827835e-05 0.0000000e+00 
0.0000000e+00 -8.2941930e-05 0.0000000e+00 
-5.6693715e-08 -8.2653598e-05 6.2515727e-07 
3.4480168e-09 -8.2321822e-05 6.2298784e-07 
0.0000000e+00 -8.2858103e-05 0.0000000e+00 
0.0000000e+00 -8.2940489e-05 0.0000000e+00 
3.3567170e-07 -1.6389083e-04 -6.8214320e-07 
4.6859321e-07 -1.6204371e-04 -1.2100830e-06 
6.6997472e-07 -1.6279810e-04 -1.1991049e-06 
4.9397539e-07 -1.6444197e-04 -6.8446963e-07 
4.0258314e-07 -1.6417027e-04 -6.6406062e-07 
0.0000000e+00 -1.6496397e-04 0.0000000e+00 
0.0000000e+00 -1.6522444e-04 0.0000000e+00 
-3.4655523e-07 -1.6284701e-04 -3.6334211e-07 
-5.4991762e-07 -1.6220803e-04 -3.6921176e-07 
0.0000000e+00 -1.6495517e-04 0.0000000e+00 
0.0000000e+00 -1.6510104e-04 0.0000000e+00 
3.9183553e-07 -2.6809864e-04 8.3552357e-07 
5.1288919e-07 -2.6665672e-04 1.5873748e-06 
1.3354003e-07 -2.6706647e-04 1.6359899e-06 
6.2269422e-08 -2.6833429e-04 8.7614478e-07 
2.0524594e-07 -2.6825647e-04 8.5015955e-07 
0.0000000e+00 -2.6851744e-04 0.0000000e+00 
0.0000000e+00 -2.6866485e-04 0.0000000e+00 
-6.2505444e-07 -2.6712319e-04 1.9756080e-06 
-2.3012770e-07 -2.6684158e-04 1.9775352e-06 
0.0000000e+00 -2.6854078e-04 0.0000000e+00 
0.0000000e+00 -2.6859948e-04 0.0000000e+00 
5.5501829e-07 -3.4962819e-04 -1.0044033e-06 
7.5521990e-07 -3.4626568e-04 -1.9479678e-06 
1.1819986e-06 -3.4674327e-04 -1.8799327e-06 
8.8351084e-07 -3.4990130e-04 -9.2949807e-07 
6.8526134e-07 -3.4985229e-04 -9.5231758e-07 
0.0000000e+00 -3.5121659e-04 0.0000000e+00 
0.0000000e+00 -3.5136804e-04 0.0000000e+00 
-7.0643188e-07 -3.4692473e-04 -1.4080064e-06 
-1.1147941e-06 -3.4655773e-04 -1.4082725e-06 
0.0000000e+00 -3.5116353e-04 0.0000000e+00 
0.0000000e+00 -3.5130020e-04 0.0000000e+00 
1.4024295e-07 -3.1297648e-04 -1.0317374e-06 
2.0535290e-07 -3.1121969e-04 -2.2435077e-06 
8.0445875e-07 -3.1088444e-04 -2.2243178e-06 
5.9202631e-07 -3.1271132e-04 -9.9549857e-07 
3.4438239e-07 -3.1289237e-04 -1.0074469e-06 
0.0000000e+00 -3.1366420e-04 0.0000000e+00 
0.0000000e+00 -3.1356481e-04 0.0000000e+00 
-2.2983279e-07 -3.1104908e-04 -2.5411205e-06 
-8.1236459e-07 -3.1132277e-04 -2.5469494e-06 
0.0000000e+00 -3.1357742e-04 0.0000000e+00 
0.0000000e+00 -3.1354456e-04 0.0000000e+00 
9.8276644e-08 -1.9518696e-04 -4.9286683e-07 
1.5938127e-07 -1.9393436e-04 -1.3758693e-06 
5.9457869e-07 -1.9319585e-04 -1.3537572e-06 
4.1702214e-07 -1.9461740e-04 -4.6284845e-07 
2.4017336e-07 -1.9492241e-04 -4.8054386e-07 
0.0000000e+00 -1.9547417e-04 0.0000000e+00 
0.0000000e+00 -1.9516330e-04 0.0000000e+00 
-1.5549386e-07 -1.9336581e-04 -2.1225362e-06 
-5.9562154e-07 -1.9399024e-04 -2.1301271e-06 
0.0000000e+00 -1.9534504e-04 0.0000000e+00 
0.0000000e+00 -1.9519711e-04 0.0000000e+00 
2.7397158e-07 -8.7046654e-05 4.9430992e-07 
4.1316875e-07 -8.6262182e-05 1.0716479e-06 
1.9627731e-07 -8.5339649e-05 1.0881288e-06 
1.3902168e-07 -8.6481712e-05 5.0516888e-07 
1.9908386e-07 -8.6784872e-05 4.8744334e-07 
0.0000000e+00 -8.7413755e-05 0.0000000e+00 
0.0000000e+00 -8.7144646e-05 0.0000000e+00 
-3.6706999e-07 -8.5511783e-05 1.2083642e-07 
-1.6632167e-07 -8.6215448e-05 1.2051170e-07 
0.0000000e+00 -8.7306835e-05 0.0000000e+00 
0.0000000e+00 -8.7147011e-05 0.0000000e+00 
-1.1941690e-07 -1.7424749e-05 -2.7770130e-07 
-1.9219988e-07 -1.7759930e-05 -7.5257924e-07 
8.0474408e-08 -1.7275132e-05 -7.3412576e-07 
4.9610165e-08 -1.7117498e-05 -2.8153599e-07 
-3.6687631e-08 -1.7261300e-05 -2.8148588e-07 
0.0000000e+00 -1.7079870e-05 0.0000000e+00 
0.0000000e+00 -1.6967118e-05 0.0000000e+00 
2.2182967e-07 -1.7327333e-05 -1.2034697e-06 
-1.8406402e-08 -1.7693175e-05 -1.2052642e-06 
0.0000000e+00 -1.7072251e-05 0.0000000e+00 
0.0000000e+00 -1.6994323e-05 0.0000000e+00 
5.5161177e-08 1.9831452e-05 2.0098143e-07 
8.6897515e-08 1.9774423e-05 3.6152028e-07 
4.0026467e-08 2.0065117e-05 3.4104337e-07 
1.2371181e-08 1.9998499e-05 1.9991512e-07 
3.3670855e-08 1.9915222e-05 1.9461089e-07 
0.0000000e+00 1.9930259e-05 0.0000000e+00 
0.0000000e+00 2.0001735e-05 0.0000000e+00 
1.8588743e-08 2.0026493e-05 6.0962826e-08 
7.1271963e-08 1.9809577e-05 5.8470782e-08 
0.0000000e+00 1.9940928e-05 0.0000000e+00 
0.0000000e+00 1.9992369e-05 0.0000000e+00 
1.1435467e-07 2.8683595e-05 4.6181086e-07 
1.5793856e-07 2.8722972e-05 9.4880733e-07 
-6.1560925e-08 2.8824865e-05 9.6684471e-07 
-5.7835770e-08 2.8754159e-05 4.6557062e-07 
2.6171593e-08 2.8718177e-05 4.5859929e-07 
0.0000000e+00 2.8735461e-05 0.0000000e+00 
0.0000000e+00 2.8760709e-05 0.0000000e+00 
-1.0146063e-07 2.8810280e-05 8.2225102e-07 
1.2249588e-07 2.8719711e-05 8.2747539e-07 
0.0000000e+00 2.8734479e-05 0.0000000e+00 
0.0000000e+00 2.8764596e-05 0.0000000e+00 
6.1078765e-08 1.8950805e-05 4.5543595e-07 
8.8405571e-08 1.8849536e-05 9.5176443e-07 
-1.4829347e-07 1.8850871e-05 9.5163102e-07 
-1.1719051e-07 1.8955192e-05 4.5648375e-07 
-2.5928500e-08 1.8953951e-05 4.5162230e-07 
0.0000000e+00 1.9048019e-05 0.0000000e+00 
0.0000000e+00 1.9049461e-05 0.0000000e+00 
-8.7589136e-08 1.8859786e-05 9.2099395e-07 
1.4320545e-07 1.8848146e-05 9.2329202e-07 
0.0000000e+00 1.9037894e-05 0.0000000e+00 
0.0000000e+00 1.9050804e-05 0.0000000e+00 
-3.1180630e-08 3.9576548e-06 1.2063144e-07 
-2.3737357e-08 3.7074603e-06 3.9922210e-07 
-1.6918811e-07 3.5776884e-06 3.7887347e-07 
-1.1339254e-07 3.8869493e-06 1.1349643e-07 
-6.8367072e-08 3.9280094e-06 1.1710242e-07 
0.0000000e+00 4.0594750e-06 0.0000000e+00 
0.0000000e+00 4.0273426e-06 0.0000000e+00 
8.4251789e-10 3.6179024e-06 4.9279384e-07 
1.3006704e-07 3.7088314e-06 4.9023924e-07 
0.0000000e+00 4.0516593e-06 0.0000000e+00 
0.0000000e+00 4.0310315e-06 0.0000000e+00 
-6.5569779e-08 -4.7803928e-06 -1.6242070e-07 
-8.8995719e-08 -4.9323839e-06 -3.1816344e-07 
-2.0344270e-08 -5.0003550e-06 -3.3127407e-07 
-1.0443795e-08 -4.8203128e-06 -1.6596870e-07 
-3.6008419e-08 -4.7969465e-06 -1.6214939e-07 
0.0000000e+00 -4.7296289e-06 0.0000000e+00 
0.0000000e+00 -4.7482313e-06 0.0000000e+00 
7.7555960e-08 -4.9803161e-06 -2.4790060e-07 
6.1419003e-09 -4.9259666e-06 -2.5069835e-07 
0.0000000e+00 -4.7363983e-06 0.0000000e+00 
0.0000000e+00 -4.7528088e-06 0.0000000e+00 
-6.2297900e-08 -4.9513906e-06 -3.9392017e-07 
-7.6603882e-08 -4.9786472e-06 -7.8110384e-07 
1.0333625e-07 -4.9988544e-06 -7.8116710e-07 
8.1396230e-08 -4.9769715e-06 -3.9321947e-07 
1.0987917e-08 -4.9660980e-06 -3.9034566e-07 
0.0000000e+00 -4.9692794e-06 0.0000000e+00 
0.0000000e+00 -4.9777100e-06 0.0000000e+00 
1.1291034e-07 -5.0021035e-06 -7.3193519e-07 
-7.0281608e-08 -4.9697319e-06 -7.3185009e-07 
0.0000000e+00 -4.9681971e-06 0.0000000e+00 
0.0000000e+00 -4.9877044e-06 0.0000000e+00 
2.0561128e-08 -9.3542980e-07 -1.5779626e-07 
2.7901084e-08 -7.2403526e-07 -3.1625231e-07 
1.0373314e-07 -7.3207963e-07 -3.0811592e-07 
7.8732413e-08 -9.4190568e-07 -1.5371361e-07 
4.7616407e-08 -9.4217194e-07 -1.5418642e-07 
0.0000000e+00 -1.0316245e-06 0.0000000e+00 
0.0000000e+00 -1.0382712e-06 0.0000000e+00 
-1.9480760e-08 -7.4734766e-07 -2.9659478e-07 
-9.2239397e-08 -7.3749226e-07 -2.9507413e-07 
0.0000000e+00 -1.0276483e-06 0.0000000e+00 
0.0000000e+00 -1.0316680e-06 0.0000000e+00 
7.3150723e-08 1.4100539e-06 3.1753007e-07 
9.6489799e-08 1.5493254e-06 6.2707585e-07 
-5.5941587e-08 1.5906653e-06 6.4084412e-07 
-4.1490559e-08 1.4483472e-06 3.2207237e-07 
1.3376744e-08 1.4274161e-06 3.1682535e-07 
0.0000000e+00 1.3626012e-06 0.0000000e+00 
0.0000000e+00 1.3822183e-06 0.0000000e+00 
-1.2903465e-07 1.5823567e-06 5.6601613e-07 
1.7737223e-08 1.5357335e-06 5.6845391e-07 
0.0000000e+00 1.3686489e-06 0.0000000e+00 
0.0000000e+00 1.3885025e-06 0.0000000e+00 
1.9254449e-08 1.7237055e-06 2.3916462e-07 
2.4030051e-08 1.6378800e-06 4.6246220e-07 
-7.7925485e-08 1.6818535e-06 4.5910338e-07 
-6.3267365e-08 1.7616616e-06 2.3813620e-07 
-2.1569379e-08 1.7445649e-06 2.3621466e-07 
0.0000000e+00 1.7944183e-06 0.0000000e+00 
0.0000000e+00 1.8110775e-06 0.0000000e+00 
-3.0073611e-08 1.6866649e-06 3.9890412e-07 
7.2926547e-08 1.6419760e-06 3.9889750e-07 
0.0000000e+00 1.7937596e-06 0.0000000e+00 
0.0000000e+00 1.8105783e-06 0.0000000e+00 
3.1200567e-08 2.1948183e-06 1.3122806e-07 
4.6052584e-08 2.0778382e-06 2.7546477e-07 
-1.3657704e-08 2.1186361e-06 2.6023721e-07 
-1.3572262e-08 2.2149425e-06 1.2702425e-07 
9.2861931e-09 2.2081017e-06 1.2807848e-07 
0.0000000e+00 2.2552024e-06 0.0000000e+00 
0.0000000e+00 2.2653207e-06 0.0000000e+00 
3.5451517e-08 2.1237488e-06 2.2235518e-07 
9.6868483e-08 2.0926655e-06 2.2157472e-07 
0.0000000e+00 2.2502907e-06 0.0000000e+00 
0.0000000e+00 2.2618085e-06 0.0000000e+00 
-1.6016383e-08 3.1253642e-06 -2.7610179e-07 
-1.3624329e-08 3.1680888e-06 -5.7258393e-07 
1.2801451e-07 3.1615562e-06 -5.8665904e-07 
9.1423246e-08 3.1069603e-06 -2.7696214e-07 
3.6253500e-08 3.1163165e-06 -2.7439853e-07 
0.0000000e+00 3.0831668e-06 0.0000000e+00 
0.0000000e+00 3.0748211e-06 0.0000000e+00 
8.8478224e-08 3.1549614e-06 -5.4645602e-07 
-5.2716409e-08 3.1740185e-06 -5.4884521e-07 
0.0000000e+00 3.0836263e-06 0.0000000e+00 
0.0000000e+00 3.0724143e-06 0.0000000e+00 
-3.3731293e-08 1.7373554e-06 -1.8965568e-07 
-3.7135379e-08 1.7507027e-06 -3.6884148e-07 
3.9062162e-08 1.7030525e-06 -3.6658611e-07 
3.0737748e-08 1.7011366e-06 -1.8497465e-07 
-3.1765064e-09 1.7162837e-06 -1.8513087e-07 
0.0000000e+00 1.7733229e-06 0.0000000e+00 
0.0000000e+00 1.7575372e-06 0.0000000e+00 
4.0487382e-08 1.6992178e-06 -3.0626907e-07 
-4.2199780e-08 1.7432079e-06 -3.0601188e-07 
0.0000000e+00 1.7688392e-06 0.0000000e+00 
0.0000000e+00 1.7563161e-06 0.0000000e+00 
-9.0646735e-09 -3.3040556e-06 1.6837770e-07 
-1.9837165e-08 -3.3440242e-06 3.2679480e-07 
-1.0239456e-07 -3.3493573e-06 3.3196713e-07 
-7.1460988e-08 -3.3090357e-06 1.7152541e-07 
-3.9340890e-08 -3.3059398e-06 1.6827723e-07 
0.0000000e+00 -3.2502696e-06 0.0000000e+00 
0.0000000e+00 -3.2557782e-06 0.0000000e+00 
-6.0977079e-08 -3.3490930e-06 3.2914841e-07 
1.4323668e-08 -3.3467181e-06 3.2920775e-07 
0.0000000e+00 -3.2552753e-06 0.0000000e+00 
0.0000000e+00 -3.2528578e-06 0.0000000e+00 
0.0000000e+00 -1.9734338e-05 0.0000000e+00 
0.0000000e+00 3.3342078e-06 0.0000000e+00 
-4.3816889e-10 -6.4561336e-06 3.0003078e-09 
-4.7072284e-09 -6.4988553e-06 5.5334310e-09 
0.0000000e+00 -6.4967066e-06 0.0000000e+00 
0.0000000e+00 -6.4524238e-06 0.0000000e+00 