# vtk DataFile Version 4.0
vtk output
ASCII
DATASET UNSTRUCTURED_GRID
POINTS 1827 float
0.0000000e+00 0.0000000e+00 0.0000000e+00 
0.0000000e+00 0.0000000e+00 2.0000000e+01 
3.4700000e+00 0.0000000e+00 0.0000000e+00 
3.4700000e+00 0.0000000e+00 2.0000000e+01 
3.4700000e+00 1.0000000e+00 0.0000000e+00 
3.4700000e+00 1.0000000e+00 2.0000000e+01 
0.0000000e+00 1.0000000e+00 0.0000000e+00 
0.0000000e+00 1.0000000e+00 2.0000000e+01 
1.2500000e+00 2.5000000e+00 0.0000000e+00 
1.2500000e+00 2.5000000e+00 1.1700000e-01 
7.5000000e-01 2.5000000e+00 1.1700000e-01 
7.5000000e-01 2.5000000e+00 0.0000000e+00 
0.0000000e+00 2.5000000e+00 0.0000000e+00 
0.0000000e+00 2.5000000e+00 1.1700000e-01 
1.2500000e+00 2.8000000e+00 1.1700000e-01 
1.2500000e+00 2.8000000e+00 0.0000000e+00 
0.0000000e+00 2.8000000e+00 0.0000000e+00 
0.0000000e+00 2.8000000e+00 1.1700000e-01 
7.5000000e-01 2.5000000e+00 3.8299999e-01 
1.2500000e+00 2.5000000e+00 3.8299999e-01 
1.2500000e+00 2.5000000e+00 6.1699998e-01 
7.5000000e-01 2.5000000e+00 6.1699998e-01 
7.5000000e-01 2.5000000e+00 5.0000000e-01 
0.0000000e+00 2.5000000e+00 3.8299999e-01 
0.0000000e+00 2.5000000e+00 6.1699998e-01 
1.2500000e+00 2.8000000e+00 6.1699998e-01 
1.2500000e+00 2.8000000e+00 3.8299999e-01 
0.0000000e+00 2.8000000e+00 3.8299999e-01 
0.0000000e+00 2.8000000e+00 6.1699998e-01 
7.5000000e-01 2.5000000e+00 8.8300002e-01 
1.2500000e+00 2.5000000e+00 8.8300002e-01 
1.2500000e+00 2.5000000e+00 1.1170000e+00 
7.5000000e-01 2.5000000e+00 1.1170000e+00 
7.5000000e-01 2.5000000e+00 1.0000000e+00 
0.0000000e+00 2.5000000e+00 8.8300002e-01 
0.0000000e+00 2.5000000e+00 1.1170000e+00 
1.2500000e+00 2.8000000e+00 1.1170000e+00 
1.2500000e+00 2.8000000e+00 8.8300002e-01 
0.0000000e+00 2.8000000e+00 8.8300002e-01 
0.0000000e+00 2.8000000e+00 1.1170000e+00 
7.5000000e-01 2.5000000e+00 1.3830000e+00 
1.2500000e+00 2.5000000e+00 1.3830000e+00 
1.2500000e+00 2.5000000e+00 1.6170000e+00 
7.5000000e-01 2.5000000e+00 1.6170000e+00 
7.5000000e-01 2.5000000e+00 1.5000000e+00 
0.0000000e+00 2.5000000e+00 1.3830000e+00 
0.0000000e+00 2.5000000e+00 1.6170000e+00 
1.2500000e+00 2.8000000e+00 1.6170000e+00 
1.2500000e+00 2.8000000e+00 1.3830000e+00 
0.0000000e+00 2.8000000e+00 1.3830000e+00 
0.0000000e+00 2.8000000e+00 1.6170000e+00 
7.5000000e-01 2.5000000e+00 1.8830000e+00 
1.2500000e+00 2.5000000e+00 1.8830000e+00 
1.2500000e+00 2.5000000e+00 2.1170001e+00 
7.5000000e-01 2.5000000e+00 2.1170001e+00 
7.5000000e-01 2.5000000e+00 2.0000000e+00 
0.0000000e+00 2.5000000e+00 1.8830000e+00 
0.0000000e+00 2.5000000e+00 2.1170001e+00 
1.2500000e+00 2.8000000e+00 2.1170001e+00 
1.2500000e+00 2.8000000e+00 1.8830000e+00 
0.0000000e+00 2.8000000e+00 1.8830000e+00 
0.0000000e+00 2.8000000e+00 2.1170001e+00 
7.5000000e-01 2.5000000e+00 2.3829999e+00 
1.2500000e+00 2.5000000e+00 2.3829999e+00 
1.2500000e+00 2.5000000e+00 2.6170001e+00 
7.5000000e-01 2.5000000e+00 2.6170001e+00 
7.5000000e-01 2.5000000e+00 2.5000000e+00 
0.0000000e+00 2.5000000e+00 2.3829999e+00 
0.0000000e+00 2.5000000e+00 2.6170001e+00 
1.2500000e+00 2.8000000e+00 2.6170001e+00 
1.2500000e+00 2.8000000e+00 2.3829999e+00 
0.0000000e+00 2.8000000e+00 2.3829999e+00 
0.0000000e+00 2.8000000e+00 2.6170001e+00 
7.5000000e-01 2.5000000e+00 2.8829999e+00 
1.2500000e+00 2.5000000e+00 2.8829999e+00 
1.2500000e+00 2.5000000e+00 3.1170001e+00 
7.5000000e-01 2.5000000e+00 3.1170001e+00 
7.5000000e-01 2.5000000e+00 3.0000000e+00 
0.0000000e+00 2.5000000e+00 2.8829999e+00 
0.0000000e+00 2.5000000e+00 3.1170001e+00 
1.2500000e+00 2.8000000e+00 3.1170001e+00 
1.2500000e+00 2.8000000e+00 2.8829999e+00 
0.0000000e+00 2.8000000e+00 2.8829999e+00 
0.0000000e+00 2.8000000e+00 3.1170001e+00 
7.5000000e-01 2.5000000e+00 3.3829999e+00 
1.2500000e+00 2.5000000e+00 3.3829999e+00 
1.2500000e+00 2.5000000e+00 3.6170001e+00 
7.5000000e-01 2.5000000e+00 3.6170001e+00 
7.5000000e-01 2.5000000e+00 3.5000000e+00 
0.0000000e+00 2.5000000e+00 3.3829999e+00 
0.0000000e+00 2.5000000e+00 3.6170001e+00 
1.2500000e+00 2.8000000e+00 3.6170001e+00 
1.2500000e+00 2.8000000e+00 3.3829999e+00 
0.0000000e+00 2.8000000e+00 3.3829999e+00 
0.0000000e+00 2.8000000e+00 3.6170001e+00 
7.5000000e-01 2.5000000e+00 3.8829999e+00 
1.2500000e+00 2.5000000e+00 3.8829999e+00 
1.2500000e+00 2.5000000e+00 4.1170001e+00 
7.5000000e-01 2.5000000e+00 4.1170001e+00 
7.5000000e-01 2.5000000e+00 4.0000000e+00 
0.0000000e+00 2.5000000e+00 3.8829999e+00 
0.0000000e+00 2.5000000e+00 4.1170001e+00 
1.2500000e+00 2.8000000e+00 4.1170001e+00 
1.2500000e+00 2.8000000e+00 3.8829999e+00 
0.0000000e+00 2.8000000e+00 3.8829999e+00 
0.0000000e+00 2.8000000e+00 4.1170001e+00 
7.5000000e-01 2.5000000e+00 4.3829999e+00 
1.2500000e+00 2.5000000e+00 4.3829999e+00 
1.2500000e+00 2.5000000e+00 4.6170001e+00 
7.5000000e-01 2.5000000e+00 4.6170001e+00 
7.5000000e-01 2.5000000e+00 4.5000000e+00 
0.0000000e+00 2.5000000e+00 4.3829999e+00 
0.0000000e+00 2.5000000e+00 4.6170001e+00 
1.2500000e+00 2.8000000e+00 4.6170001e+00 
1.2500000e+00 2.8000000e+00 4.3829999e+00 
0.0000000e+00 2.8000000e+00 4.3829999e+00 
0.0000000e+00 2.8000000e+00 4.6170001e+00 
7.5000000e-01 2.5000000e+00 4.8829999e+00 
1.2500000e+00 2.5000000e+00 4.8829999e+00 
1.2500000e+00 2.5000000e+00 5.1170001e+00 
7.5000000e-01 2.5000000e+00 5.1170001e+00 
7.5000000e-01 2.5000000e+00 5.0000000e+00 
0.0000000e+00 2.5000000e+00 4.8829999e+00 
0.0000000e+00 2.5000000e+00 5.1170001e+00 
1.2500000e+00 2.8000000e+00 5.1170001e+00 
1.2500000e+00 2.8000000e+00 4.8829999e+00 
0.0000000e+00 2.8000000e+00 4.8829999e+00 
0.0000000e+00 2.8000000e+00 5.1170001e+00 
7.5000000e-01 2.5000000e+00 5.3829999e+00 
1.2500000e+00 2.5000000e+00 5.3829999e+00 
1.2500000e+00 2.5000000e+00 5.6170001e+00 
7.5000000e-01 2.5000000e+00 5.6170001e+00 
7.5000000e-01 2.5000000e+00 5.5000000e+00 
0.0000000e+00 2.5000000e+00 5.3829999e+00 
0.0000000e+00 2.5000000e+00 5.6170001e+00 
1.2500000e+00 2.8000000e+00 5.6170001e+00 
1.2500000e+00 2.8000000e+00 5.3829999e+00 
0.0000000e+00 2.8000000e+00 5.3829999e+00 
0.0000000e+00 2.8000000e+00 5.6170001e+00 
7.5000000e-01 2.5000000e+00 5.8829999e+00 
1.2500000e+00 2.5000000e+00 5.8829999e+00 
1.2500000e+00 2.5000000e+00 6.1170001e+00 
7.5000000e-01 2.5000000e+00 6.1170001e+00 
7.5000000e-01 2.5000000e+00 6.0000000e+00 
0.0000000e+00 2.5000000e+00 5.8829999e+00 
0.0000000e+00 2.5000000e+00 6.1170001e+00 
1.2500000e+00 2.8000000e+00 6.1170001e+00 
1.2500000e+00 2.8000000e+00 5.8829999e+00 
0.0000000e+00 2.8000000e+00 5.8829999e+00 
0.0000000e+00 2.8000000e+00 6.1170001e+00 
7.5000000e-01 2.5000000e+00 6.3829999e+00 
1.2500000e+00 2.5000000e+00 6.3829999e+00 
1.2500000e+00 2.5000000e+00 6.6170001e+00 
7.5000000e-01 2.5000000e+00 6.6170001e+00 
7.5000000e-01 2.5000000e+00 6.5000000e+00 
0.0000000e+00 2.5000000e+00 6.3829999e+00 
0.0000000e+00 2.5000000e+00 6.6170001e+00 
1.2500000e+00 2.8000000e+00 6.6170001e+00 
1.2500000e+00 2.8000000e+00 6.3829999e+00 
0.0000000e+00 2.8000000e+00 6.3829999e+00 
0.0000000e+00 2.8000000e+00 6.6170001e+00 
7.5000000e-01 2.5000000e+00 6.8829999e+00 
1.2500000e+00 2.5000000e+00 6.8829999e+00 
1.2500000e+00 2.5000000e+00 7.1170001e+00 
7.5000000e-01 2.5000000e+00 7.1170001e+00 
7.5000000e-01 2.5000000e+00 7.0000000e+00 
0.0000000e+00 2.5000000e+00 6.8829999e+00 
0.0000000e+00 2.5000000e+00 7.1170001e+00 
1.2500000e+00 2.8000000e+00 7.1170001e+00 
1.2500000e+00 2.8000000e+00 6.8829999e+00 
0.0000000e+00 2.8000000e+00 6.8829999e+00 
0.0000000e+00 2.8000000e+00 7.1170001e+00 
7.5000000e-01 2.5000000e+00 7.3829999e+00 
1.2500000e+00 2.5000000e+00 7.3829999e+00 
1.2500000e+00 2.5000000e+00 7.6170001e+00 
7.5000000e-01 2.5000000e+00 7.6170001e+00 
7.5000000e-01 2.5000000e+00 7.5000000e+00 
0.0000000e+00 2.5000000e+00 7.3829999e+00 
0.0000000e+00 2.5000000e+00 7.6170001e+00 
1.2500000e+00 2.8000000e+00 7.6170001e+00 
1.2500000e+00 2.8000000e+00 7.3829999e+00 
0.0000000e+00 2.8000000e+00 7.3829999e+00 
0.0000000e+00 2.8000000e+00 7.6170001e+00 
7.5000000e-01 2.5000000e+00 7.8829999e+00 
1.2500000e+00 2.5000000e+00 7.8829999e+00 
1.2500000e+00 2.5000000e+00 8.1169996e+00 
7.5000000e-01 2.5000000e+00 8.1169996e+00 
7.5000000e-01 2.5000000e+00 8.0000000e+00 
0.0000000e+00 2.5000000e+00 7.8829999e+00 
0.0000000e+00 2.5000000e+00 8.1169996e+00 
1.2500000e+00 2.8000000e+00 8.1169996e+00 
1.2500000e+00 2.8000000e+00 7.8829999e+00 
0.0000000e+00 2.8000000e+00 7.8829999e+00 
0.0000000e+00 2.8000000e+00 8.1169996e+00 
7.5000000e-01 2.5000000e+00 8.3830004e+00 
1.2500000e+00 2.5000000e+00 8.3830004e+00 
1.2500000e+00 2.5000000e+00 8.6169996e+00 
7.5000000e-01 2.5000000e+00 8.6169996e+00 
7.5000000e-01 2.5000000e+00 8.5000000e+00 
0.0000000e+00 2.5000000e+00 8.3830004e+00 
0.0000000e+00 2.5000000e+00 8.6169996e+00 
1.2500000e+00 2.8000000e+00 8.6169996e+00 
1.2500000e+00 2.8000000e+00 8.3830004e+00 
0.0000000e+00 2.8000000e+00 8.3830004e+00 
0.0000000e+00 2.8000000e+00 8.6169996e+00 
7.5000000e-01 2.5000000e+00 8.8830004e+00 
1.2500000e+00 2.5000000e+00 8.8830004e+00 
1.2500000e+00 2.5000000e+00 9.1169996e+00 
7.5000000e-01 2.5000000e+00 9.1169996e+00 
7.5000000e-01 2.5000000e+00 9.0000000e+00 
0.0000000e+00 2.5000000e+00 8.8830004e+00 
0.0000000e+00 2.5000000e+00 9.1169996e+00 
1.2500000e+00 2.8000000e+00 9.1169996e+00 
1.2500000e+00 2.8000000e+00 8.8830004e+00 
0.0000000e+00 2.8000000e+00 8.8830004e+00 
0.0000000e+00 2.8000000e+00 9.1169996e+00 
7.5000000e-01 2.5000000e+00 9.3830004e+00 
1.2500000e+00 2.5000000e+00 9.3830004e+00 
1.2500000e+00 2.5000000e+00 9.6169996e+00 
7.5000000e-01 2.5000000e+00 9.6169996e+00 
7.5000000e-01 2.5000000e+00 9.5000000e+00 
0.0000000e+00 2.5000000e+00 9.3830004e+00 
0.0000000e+00 2.5000000e+00 9.6169996e+00 
1.2500000e+00 2.8000000e+00 9.6169996e+00 
1.2500000e+00 2.8000000e+00 9.3830004e+00 
0.0000000e+00 2.8000000e+00 9.3830004e+00 
0.0000000e+00 2.8000000e+00 9.6169996e+00 
7.5000000e-01 2.5000000e+00 9.8830004e+00 
1.2500000e+00 2.5000000e+00 9.8830004e+00 
1.2500000e+00 2.5000000e+00 1.0117000e+01 
[...]
POINT_DATA 1827
FIELD FieldData 2
DISPLACEMENT 3 1827  float
0.0000000e+00 0.0000000e+00 0.0000000e+00 
0.0000000e+00 0.0000000e+00 0.0000000e+00 
0.0000000e+00 0.0000000e+00 0.0000000e+00 
0.0000000e+00 0.0000000e+00 0.0000000e+00 
0.0000000e+00 1.0629445e-05 0.0000000e+00 
0.0000000e+00 -1.7595104e-12 0.0000000e+00 
0.0000000e+00 3.2656033e-05 0.0000000e+00 
0.0000000e+00 1.5655692e-10 0.0000000e+00 
0.0000000e+00 -5.4780867e-05 0.0000000e+00 
9.4055046e-08 -5.4703163e-05 3.2162891e-08 
5.2247113e-09 -5.5470013e-05 1.4779657e-08 
0.0000000e+00 -5.5525303e-05 0.0000000e+00 
0.0000000e+00 -5.5380264e-05 0.0000000e+00 
0.0000000e+00 -5.5368375e-05 0.0000000e+00 
-7.5957828e-08 -5.4855704e-05 -1.6314287e-08 
0.0000000e+00 -5.4855685e-05 0.0000000e+00 
0.0000000e+00 -5.5370467e-05 0.0000000e+00 
0.0000000e+00 -5.5358349e-05 0.0000000e+00 
-1.4714792e-07 2.0235078e-05 -6.5624718e-08 
-1.8094873e-07 1.9750742e-05 -4.6836726e-07 
2.5919448e-08 2.0222496e-05 -4.7957082e-07 
-1.7220181e-08 2.0538986e-05 -7.7566163e-08 
-7.8922170e-08 2.0397974e-05 -7.5849854e-08 
0.0000000e+00 2.0577714e-05 0.0000000e+00 
0.0000000e+00 2.0726668e-05 0.0000000e+00 
2.4073520e-07 2.0197749e-05 -9.3182615e-07 
3.6092832e-08 1.9828092e-05 -9.2747877e-07 
0.0000000e+00 2.0606467e-05 0.0000000e+00 
0.0000000e+00 2.0708068e-05 0.0000000e+00 
2.3151716e-09 4.3487613e-05 2.8827421e-07 
3.3810519e-08 4.3384061e-05 5.7228215e-07 
-1.2270681e-07 4.3403703e-05 5.7778504e-07 
-1.0383450e-07 4.3523938e-05 2.8777097e-07 
-5.1840992e-08 4.3509979e-05 2.8550505e-07 
0.0000000e+00 4.3657372e-05 0.0000000e+00 
0.0000000e+00 4.3666081e-05 0.0000000e+00 
-4.5029463e-08 4.3412314e-05 5.2584011e-07 
8.7924533e-08 4.3378353e-05 5.2795190e-07 
0.0000000e+00 4.3652501e-05 0.0000000e+00 
0.0000000e+00 4.3670203e-05 0.0000000e+00 
3.3559772e-08 3.3967481e-05 3.9752319e-07 
3.4961054e-08 3.3875051e-05 8.0362497e-07 
-1.6441967e-07 3.3784170e-05 8.0355841e-07 
-1.2407644e-07 3.3906119e-05 3.8976080e-07 
-4.1282252e-08 3.3940658e-05 3.9076716e-07 
0.0000000e+00 3.3918044e-05 0.0000000e+00 
0.0000000e+00 3.3895325e-05 0.0000000e+00 
-1.0220575e-07 3.3814213e-05 8.7991225e-07 
9.8477322e-08 3.3879631e-05 8.7977293e-07 
0.0000000e+00 3.3914162e-05 0.0000000e+00 
0.0000000e+00 3.3904696e-05 0.0000000e+00 
1.1411986e-07 1.5203716e-05 1.6819889e-07 
1.3423194e-07 1.5456377e-05 3.6117919e-07 
4.2002814e-08 1.5330028e-05 3.4824254e-07 
3.4038592e-08 1.5114008e-05 1.6040168e-07 
7.5649417e-08 1.5167459e-05 1.6382947e-07 
0.0000000e+00 1.4885319e-05 0.0000000e+00 
0.0000000e+00 1.4849054e-05 0.0000000e+00 
-1.0497138e-07 1.5347307e-05 4.8737729e-07 
-8.2762694e-09 1.5448821e-05 4.8278997e-07 
0.0000000e+00 1.4888740e-05 0.0000000e+00 
0.0000000e+00 1.4876083e-05 0.0000000e+00 
-3.9608629e-08 1.8328820e-06 -6.0709868e-07 
-2.3532909e-08 1.8239743e-06 -1.2051163e-06 
2.5503698e-07 1.6273760e-06 -1.2124369e-06 
1.6984667e-07 1.6797007e-06 -6.0194219e-07 
6.5139538e-08 1.7519016e-06 -5.9712215e-07 
0.0000000e+00 1.8084344e-06 0.0000000e+00 
0.0000000e+00 1.7467478e-06 0.0000000e+00 
2.3385978e-07 1.6358518e-06 -9.6141866e-07 
-3.8302431e-08 1.8148195e-06 -9.5884036e-07 
0.0000000e+00 1.7867051e-06 0.0000000e+00 
0.0000000e+00 1.7334721e-06 0.0000000e+00 
7.1399633e-08 -7.0991205e-06 3.6424794e-07 
9.8343008e-08 -7.1260652e-06 8.9974304e-07 
-1.4899888e-07 -7.1180989e-06 9.0767014e-07 
-1.0532644e-07 -7.1087611e-06 3.7807573e-07 
-1.7958689e-08 -7.1090853e-06 3.6788771e-07 
0.0000000e+00 -7.0350334e-06 0.0000000e+00 
0.0000000e+00 -7.0382152e-06 0.0000000e+00 
-1.3093717e-07 -7.1292725e-06 8.7436638e-07 
1.1126085e-07 -7.1311629e-06 8.7684845e-07 
0.0000000e+00 -7.0454826e-06 0.0000000e+00 
0.0000000e+00 -7.0381129e-06 0.0000000e+00 
2.3772186e-07 -1.1029471e-05 7.4092753e-07 
2.6487808e-07 -1.0519497e-05 1.4928917e-06 
-7.5237637e-08 -1.0483846e-05 1.4837832e-06 
-4.0938527e-08 -1.0984233e-05 7.3745366e-07 
9.9665890e-08 -1.1008501e-05 7.3436075e-07 
0.0000000e+00 -1.1533821e-05 0.0000000e+00 
0.0000000e+00 -1.1513120e-05 0.0000000e+00 
-3.6502422e-07 -1.0486749e-05 1.4081984e-06 
-1.3857896e-08 -1.0542244e-05 1.4009332e-06 
0.0000000e+00 -1.1528069e-05 0.0000000e+00 
0.0000000e+00 -1.1483812e-05 0.0000000e+00 
2.4161844e-09 -5.3600006e-06 -1.3354195e-07 
1.0648428e-08 -5.2676132e-06 -2.9031733e-07 
9.3797787e-08 -5.2279961e-06 -3.0290838e-07 
6.1388832e-08 -5.3398849e-06 -1.3604163e-07 
3.2027476e-08 -5.3497251e-06 -1.3422240e-07 
0.0000000e+00 -5.4657571e-06 0.0000000e+00 
0.0000000e+00 -5.4544530e-06 0.0000000e+00 
1.9821741e-08 -5.2372156e-06 -3.2424163e-07 
-5.6916239e-08 -5.2625869e-06 -3.2620468e-07 
0.0000000e+00 -5.4541565e-06 0.0000000e+00 
0.0000000e+00 -5.4531765e-06 0.0000000e+00 
-7.4949483e-08 1.5538341e-06 -5.1996449e-07 
-8.7890548e-08 1.6316055e-06 -1.0303517e-06 
1.5660824e-07 1.5602128e-06 -1.0314081e-06 
1.1265719e-07 1.4938970e-06 -5.1944511e-07 
1.8555593e-08 1.5211084e-06 -5.1454828e-07 
0.0000000e+00 1.4910328e-06 0.0000000e+00 
0.0000000e+00 1.4714241e-06 0.0000000e+00 
1.0460239e-07 1.5574593e-06 -9.2420709e-07 
-1.3147606e-07 1.6301323e-06 -9.2475085e-07 
0.0000000e+00 1.4966387e-06 0.0000000e+00 
0.0000000e+00 1.4693770e-06 0.0000000e+00 
-9.4616460e-08 3.1361633e-06 -4.1694744e-07 
-9.4237286e-08 3.0323820e-06 -7.3321831e-07 
5.2574148e-08 2.9089331e-06 -7.2115245e-07 
3.3192961e-08 3.0472934e-06 -4.1054079e-07 
-3.1169776e-08 3.0898266e-06 -4.0848178e-07 
0.0000000e+00 3.2361406e-06 0.0000000e+00 
0.0000000e+00 3.1947382e-06 0.0000000e+00 
1.1660993e-07 2.9164762e-06 -5.8556810e-07 
-2.8791813e-08 3.0251313e-06 -5.8200101e-07 
0.0000000e+00 3.2243802e-06 0.0000000e+00 
0.0000000e+00 3.1938457e-06 0.0000000e+00 
1.0957080e-09 -5.1152301e-07 6.5817019e-08 
-5.2793605e-09 -5.6827650e-07 1.8720161e-07 
-6.2768798e-08 -5.5759966e-07 1.9006222e-07 
-3.3876596e-08 -5.0718086e-07 6.4467258e-08 
-1.4710714e-08 -5.0766664e-07 6.4325057e-08 
0.0000000e+00 -5.3353045e-07 0.0000000e+00 
0.0000000e+00 -5.3036496e-07 0.0000000e+00 
-2.5749822e-08 -5.5266588e-07 1.6956355e-07 
2.8518491e-08 -5.6106290e-07 1.6954121e-07 
0.0000000e+00 -5.3375561e-07 0.0000000e+00 
0.0000000e+00 -5.3090656e-07 0.0000000e+00 
9.7755217e-09 -1.8546158e-06 9.5007415e-08 
7.9695397e-09 -1.8525733e-06 1.8140541e-07 
-3.0410270e-08 -1.8097052e-06 1.7461618e-07 
-1.9464572e-08 -1.8306100e-06 9.3442345e-08 
-4.4977431e-09 -1.8410723e-06 9.3045436e-08 
0.0000000e+00 -1.8808058e-06 0.0000000e+00 
0.0000000e+00 -1.8709484e-06 0.0000000e+00 
-3.3540353e-08 -1.8133535e-06 1.3252601e-07 
3.4769878e-09 -1.8468781e-06 1.3092811e-07 
0.0000000e+00 -1.8785323e-06 0.0000000e+00 
0.0000000e+00 -1.8687775e-06 0.0000000e+00 
1.7001330e-08 -2.1209964e-07 -1.3536855e-07 
1.9585952e-08 -3.6116706e-08 -2.7670637e-07 
8.9023963e-08 -3.5944307e-08 -2.7655915e-07 
6.9103109e-08 -2.1672962e-07 -1.3437477e-07 
4.2050079e-08 -2.1634401e-07 -1.3373004e-07 
0.0000000e+00 -3.3614663e-07 0.0000000e+00 
0.0000000e+00 -3.3947444e-07 0.0000000e+00 
-1.6926233e-08 -4.5873033e-08 -2.6738124e-07 
-8.3351061e-08 -4.1023714e-08 -2.6802695e-07 
0.0000000e+00 -3.2783635e-07 0.0000000e+00 
0.0000000e+00 -3.3488115e-07 0.0000000e+00 
7.6749886e-09 8.7397581e-07 -8.9226688e-08 
1.3550015e-08 9.8817497e-07 -1.6835442e-07 
4.8545381e-08 9.6120255e-07 -1.6802964e-07 
3.7733589e-08 8.5729914e-07 -8.8169024e-08 
2.2006072e-08 8.6432220e-07 -8.7908028e-08 
0.0000000e+00 7.8736571e-07 0.0000000e+00 
0.0000000e+00 7.8120667e-07 0.0000000e+00 
-1.5997893e-08 9.6011649e-07 -1.3820976e-07 
-5.1959862e-08 9.8180180e-07 -1.3830015e-07 
0.0000000e+00 7.9302970e-07 0.0000000e+00 
0.0000000e+00 7.8553103e-07 0.0000000e+00 
-1.5533631e-08 3.7304784e-07 -3.3492913e-08 
-1.7661556e-08 3.2745032e-07 -7.7404749e-08 
7.4655121e-10 3.1511058e-07 -7.5592233e-08 
-1.5065227e-09 3.6628361e-07 -3.4150389e-08 
-8.1818872e-09 3.7015781e-07 -3.3371318e-08 
0.0000000e+00 4.0240403e-07 0.0000000e+00 
0.0000000e+00 4.0042960e-07 0.0000000e+00 
2.7497641e-08 3.1842023e-07 -6.2869482e-08 
8.9105141e-09 3.2756154e-07 -6.2323657e-08 
0.0000000e+00 3.9998690e-07 0.0000000e+00 
0.0000000e+00 3.9836584e-07 0.0000000e+00 
-1.7743437e-08 -3.6469990e-07 4.7662132e-09 
-1.8166883e-08 -4.6645155e-07 2.6773440e-08 
-3.1133570e-08 -4.7015149e-07 2.7903392e-08 
-2.3683750e-08 -3.6798068e-07 4.1516630e-09 
-2.0010852e-08 -3.6566436e-07 4.4309383e-09 
0.0000000e+00 -2.8325022e-07 0.0000000e+00 
0.0000000e+00 -2.8657126e-07 0.0000000e+00 
2.9582001e-08 -4.6746271e-07 3.0292277e-08 
3.9187395e-08 -4.6360097e-07 3.0787717e-08 
0.0000000e+00 -2.9056832e-07 0.0000000e+00 
0.0000000e+00 -2.9041732e-07 0.0000000e+00 
-7.2191186e-10 -4.2940042e-07 7.3870363e-09 
-1.1302765e-09 -4.4115095e-07 1.8831155e-08 
-6.4170411e-09 -4.3524219e-07 1.9302016e-08 
-4.0100923e-09 -4.2671172e-07 7.0611410e-09 
-2.3814246e-09 -4.2782318e-07 7.0947399e-09 
0.0000000e+00 -4.1859892e-07 0.0000000e+00 
0.0000000e+00 -4.1777591e-07 0.0000000e+00 
5.8922756e-10 -4.3626133e-07 1.3036854e-08 
5.3708371e-09 -4.4020942e-07 1.2990785e-08 
0.0000000e+00 -4.1952487e-07 0.0000000e+00 
0.0000000e+00 -4.1888489e-07 0.0000000e+00 
2.4804492e-09 -1.0175735e-08 2.4300023e-08 
1.8005886e-09 -2.1905265e-08 4.8123617e-08 
-7.9270031e-09 -1.2457388e-08 4.8036576e-08 
-6.0310428e-09 -3.7597960e-09 2.4474728e-08 
-1.9111184e-09 -6.9450916e-09 2.4071044e-08 
0.0000000e+00 6.1019660e-09 0.0000000e+00 
0.0000000e+00 8.8333136e-09 0.0000000e+00 
-1.7163565e-09 -1.2959446e-08 3.7068599e-08 
8.9543564e-09 -2.1061430e-08 3.7126576e-08 
0.0000000e+00 5.5417537e-09 0.0000000e+00 
0.0000000e+00 8.5021892e-09 0.0000000e+00 
5.0296062e-10 2.5720621e-07 9.5009911e-09 
1.7360865e-09 2.5211398e-07 2.0354795e-08 
-3.6255698e-09 2.5263182e-07 2.0156676e-08 
-3.3661927e-09 2.5762043e-07 9.8081525e-09 
-1.5541409e-09 2.5711816e-07 9.5489741e-09 
0.0000000e+00 2.6808627e-07 0.0000000e+00 
0.0000000e+00 2.6816861e-07 0.0000000e+00 
-5.3260435e-10 2.5251342e-07 1.9169670e-08 
4.3575383e-09 2.5191824e-07 1.9239570e-08 
0.0000000e+00 2.6762260e-07 0.0000000e+00 
0.0000000e+00 2.6817625e-07 0.0000000e+00 
1.0795094e-09 7.6040321e-09 -1.4249321e-09 
1.4718338e-09 1.3133484e-08 -2.8762104e-09 
2.1372932e-09 1.1428630e-08 -2.8687466e-09 
1.5126703e-09 6.4894596e-09 -1.5861910e-09 
1.3024313e-09 7.1111739e-09 -1.4844506e-09 
0.0000000e+00 9.4668251e-10 0.0000000e+00 
0.0000000e+00 1.9732738e-10 0.0000000e+00 
-1.2504531e-09 1.1631069e-08 -1.0054143e-09 
-1.7974050e-09 1.2983672e-08 -1.0183266e-09 
0.0000000e+00 1.0471554e-09 0.0000000e+00 
0.0000000e+00 7.9689744e-10 0.0000000e+00 
4.6317474e-09 -1.9978063e-07 1.5573737e-09 
5.3771840e-09 -1.8472645e-07 1.9366029e-09 
5.1818532e-09 -1.8363218e-07 2.0184461e-09 
4.4971129e-09 -1.9915086e-07 1.4101369e-09 
4.5353103e-09 -1.9945756e-07 1.4613555e-09 
0.0000000e+00 -2.1564594e-07 0.0000000e+00 
0.0000000e+00 -2.1533825e-07 0.0000000e+00 
-4.0893151e-09 -1.8408264e-07 7.3634443e-10 
-3.8036632e-09 -1.8500506e-07 7.2207273e-10 
0.0000000e+00 -2.1485855e-07 0.0000000e+00 
0.0000000e+00 -2.1482003e-07 0.0000000e+00 
6.6788965e-09 -1.1910520e-07 3.4540910e-09 
9.3260004e-09 -9.8410119e-08 9.1525152e-09 
6.1710783e-09 -9.6622315e-08 8.8347321e-09 
5.2469735e-09 -1.1773061e-07 3.2668521e-09 
5.8675664e-09 -1.1843655e-07 3.2928438e-09 
0.0000000e+00 -1.3701364e-07 0.0000000e+00 
0.0000000e+00 -1.3645125e-07 0.0000000e+00 
-6.2845413e-09 -9.7364868e-08 6.4702248e-09 
-3.8126089e-09 -9.9010585e-08 6.3956285e-09 
0.0000000e+00 -1.3609211e-07 0.0000000e+00 
0.0000000e+00 -1.3582023e-07 0.0000000e+00 
-1.8185891e-09 1.3183448e-07 -6.5816383e-09 
-1.7485290e-09 1.3118608e-07 -1.2370616e-08 
1.0126078e-09 1.3117725e-07 -1.2321744e-08 
5.2970062e-10 1.3185232e-07 -6.4443197e-09 
-6.7563871e-10 1.3172082e-07 -6.4575985e-09 
0.0000000e+00 1.3466870e-07 0.0000000e+00 
0.0000000e+00 1.3498381e-07 0.0000000e+00 
1.4285075e-09 1.3101678e-07 -1.2168327e-08 
-1.3511222e-09 1.3107754e-07 -1.2153186e-08 
0.0000000e+00 1.3481572e-07 0.0000000e+00 
0.0000000e+00 1.3481335e-07 0.0000000e+00 
-3.7072778e-09 1.7437655e-07 4.6439341e-09 
-4.2606341e-09 1.5902866e-07 9.7664756e-09 
-6.0895653e-09 1.5791204e-07 9.7225108e-09 
-5.6289364e-09 1.7344428e-07 4.8796673e-09 
-4.6368487e-09 1.7380790e-07 4.7357358e-09 
0.0000000e+00 1.9105212e-07 0.0000000e+00 
0.0000000e+00 1.9002182e-07 0.0000000e+00 
2.8122711e-09 1.5836076e-07 1.0820028e-08 
5.2095013e-09 1.5925838e-07 1.0907454e-08 
0.0000000e+00 1.8987973e-07 0.0000000e+00 
0.0000000e+00 1.8996674e-07 0.0000000e+00 
-9.9663167e-10 -4.7436231e-08 -3.3712024e-09 
-1.8539693e-09 -4.6484498e-08 -7.8895264e-09 
2.2221025e-10 -4.8793932e-08 -7.9694500e-09 
3.5899891e-10 -4.9079755e-08 -3.5070000e-09 
-2.6169020e-10 -4.8099693e-08 -3.3827685e-09 
0.0000000e+00 -5.1191169e-08 0.0000000e+00 
0.0000000e+00 -5.1985516e-08 0.0000000e+00 
-4.9221387e-11 -4.8393051e-08 -5.1937237e-09 
-1.9439190e-09 -4.6456837e-08 -5.2605706e-09 
0.0000000e+00 -5.1180322e-08 0.0000000e+00 
0.0000000e+00 -5.1804257e-08 0.0000000e+00 
1.0392547e-09 -1.3094719e-07 3.1079883e-10 
6.4837558e-10 -1.2737193e-07 1.1813385e-10 
7.8572904e-10 -1.2586004e-07 1.1961859e-10 
1.1620367e-09 -1.2983708e-07 1.4101091e-10 
1.1433748e-09 -1.3028664e-07 2.1056748e-10 
0.0000000e+00 -1.3733651e-07 0.0000000e+00 
0.0000000e+00 -1.3668671e-07 0.0000000e+00 
-1.3403677e-09 -1.2591202e-07 -1.5118479e-09 
-1.4568746e-09 -1.2716801e-07 -1.5750521e-09 
0.0000000e+00 -1.3688836e-07 0.0000000e+00 
0.0000000e+00 -1.3670785e-07 0.0000000e+00 
-4.8532539e-10 1.4922806e-08 1.0579762e-09 
-3.6599304e-10 1.2610755e-08 1.6579329e-09 
-5.2367688e-10 1.3249535e-08 1.5529052e-09 
-7.3153866e-10 1.5297484e-08 1.1636081e-09 
-6.3489353e-10 1.5044261e-08 1.1002061e-09 
0.0000000e+00 1.8791990e-08 0.0000000e+00 
0.0000000e+00 1.8861680e-08 0.0000000e+00 
6.8599409e-10 1.3111114e-08 9.8798192e-10 
8.9893792e-10 1.2609345e-08 9.9904396e-10 
0.0000000e+00 1.8609738e-08 0.0000000e+00 
0.0000000e+00 1.8804723e-08 0.0000000e+00 
-3.1371053e-10 8.6836266e-08 -4.7535037e-10 
-2.0567807e-10 8.6285432e-08 -6.4322137e-10 
-1.2582653e-10 8.5953786e-08 -6.0204219e-10 
-2.4183056e-10 8.6539934e-08 -3.9051276e-10 
-3.0436673e-10 8.6629854e-08 -4.2221204e-10 
0.0000000e+00 8.8513715e-08 0.0000000e+00 
0.0000000e+00 8.8342475e-08 0.0000000e+00 
2.0446969e-10 8.5953388e-08 -2.1618105e-10 
1.1333964e-10 8.6274923e-08 -1.8536016e-10 
0.0000000e+00 8.8491248e-08 0.0000000e+00 
0.0000000e+00 8.8450449e-08 0.0000000e+00 
9.5664610e-10 1.9803700e-08 2.6518339e-09 
1.0223281e-09 2.1156593e-08 5.3191496e-09 
-2.6132474e-10 2.0995378e-08 5.2904823e-09 
-6.2924839e-11 1.9752020e-08 2.6083011e-09 
4.5660367e-10 1.9807670e-08 2.6076046e-09 
0.0000000e+00 1.7869722e-08 0.0000000e+00 
0.0000000e+00 1.7915911e-08 0.0000000e+00 
-1.0301172e-09 2.1119112e-08 5.3226521e-09 
2.4803667e-10 2.1176101e-08 5.3207740e-09 
0.0000000e+00 1.7987885e-08 0.0000000e+00 
0.0000000e+00 1.8001906e-08 0.0000000e+00 
-5.8595867e-10 -4.1471008e-08 -7.3210255e-10 
-8.1388102e-10 -4.3696534e-08 -1.1277859e-09 
-6.5958145e-10 -4.3705356e-08 -1.1730120e-09 
-3.7048584e-10 -4.1514252e-08 -8.0057810e-10 
-4.3865195e-10 -4.1408878e-08 -7.5784112e-10 
0.0000000e+00 -4.1092601e-08 0.0000000e+00 
0.0000000e+00 -4.1087556e-08 0.0000000e+00 
6.6055073e-10 -4.3563109e-08 -1.1118594e-09 
4.5499873e-10 -4.3516827e-08 -1.1232308e-09 
0.0000000e+00 -4.1158042e-08 0.0000000e+00 
0.0000000e+00 -4.1182258e-08 0.0000000e+00 
-2.9582789e-10 -1.3194736e-08 -7.9730078e-10 
-3.5762504e-10 -1.3852311e-08 -1.6733052e-09 
9.6763410e-11 -1.3518715e-08 -1.6672196e-09 
3.3847300e-11 -1.3031173e-08 -7.8080087e-10 
-1.3537242e-10 -1.3128918e-08 -7.8465140e-10 
0.0000000e+00 -1.2416948e-08 0.0000000e+00 
0.0000000e+00 -1.2374594e-08 0.0000000e+00 
4.2577405e-10 -1.3591631e-08 -1.9286861e-09 
-1.6126220e-11 -1.3802579e-08 -1.9236104e-09 
0.0000000e+00 -1.2446680e-08 0.0000000e+00 
0.0000000e+00 -1.2404948e-08 0.0000000e+00 
2.1622057e-11 2.3610244e-08 5.2806987e-10 
1.0892206e-10 2.3369376e-08 1.0007434e-09 
-9.6407993e-11 2.3183603e-08 9.9469077e-10 
-1.9099350e-10 2.3515685e-08 5.6550548e-10 
-9.9880257e-11 2.3528623e-08 5.4388077e-10 
0.0000000e+00 2.4479771e-08 0.0000000e+00 
0.0000000e+00 2.4419938e-08 0.0000000e+00 
3.1578452e-11 2.3195346e-08 1.1626599e-09 
2.6304911e-10 2.3318430e-08 1.1734544e-09 
0.0000000e+00 2.4450395e-08 0.0000000e+00 
0.0000000e+00 2.4451662e-08 0.0000000e+00 
1.7725396e-11 1.1327021e-08 5.3643751e-10 
3.5668354e-11 1.0854968e-08 1.0698742e-09 
-2.2732292e-10 1.0819990e-08 1.0589006e-09 
-1.8770673e-10 1.1300664e-08 5.2755211e-10 
-8.1170300e-11 1.1325707e-08 5.2741422e-10 
0.0000000e+00 1.1551098e-08 0.0000000e+00 
0.0000000e+00 1.1545421e-08 0.0000000e+00 
4.0040440e-11 1.0862254e-08 1.0832213e-09 
2.9223102e-10 1.0884698e-08 1.0819753e-09 
0.0000000e+00 1.1538065e-08 0.0000000e+00 
0.0000000e+00 1.1538467e-08 0.0000000e+00 
-2.3373925e-10 -9.3182120e-09 -1.6325311e-10 
-3.2694547e-10 -1.0223778e-08 -2.5897942e-10 
-2.9016628e-10 -1.0179525e-08 -2.7220981e-10 
-1.8044628e-10 -9.3072368e-09 -1.8720309e-10 
-1.9297629e-10 -9.2896419e-09 -1.7397453e-10 
0.0000000e+00 -9.0423367e-09 0.0000000e+00 
0.0000000e+00 -9.0441201e-09 0.0000000e+00 
2.4454422e-10 -1.0133812e-08 -2.9460656e-10 
1.9224987e-10 -1.0151673e-08 -2.9949951e-10 
0.0000000e+00 -9.0801366e-09 0.0000000e+00 
0.0000000e+00 -9.0768300e-09 0.0000000e+00 
-3.9996877e-11 -4.9318136e-09 -1.6448376e-10 
-4.4133065e-11 -4.9311866e-09 -3.2879144e-10 
3.9044157e-11 -4.8785878e-09 -3.2249398e-10 
2.5416650e-11 -4.9012834e-09 -1.5926691e-10 
-8.7696326e-12 -4.9221418e-09 -1.6079177e-10 
0.0000000e+00 -4.8608024e-09 0.0000000e+00 
0.0000000e+00 -4.8485376e-09 0.0000000e+00 
3.4449908e-11 -4.8966320e-09 -3.7104686e-10 
-4.6663846e-11 -4.9333737e-09 -3.7036529e-10 
0.0000000e+00 -4.8586992e-09 0.0000000e+00 
0.0000000e+00 -4.8529794e-09 0.0000000e+00 
5.8499330e-11 3.8527355e-09 1.5378502e-11 
9.5921264e-11 4.1549852e-09 9.8778086e-12 
9.5529321e-11 4.1097867e-09 1.2589556e-11 
5.3663983e-11 3.8439074e-09 2.6310594e-11 
5.0246814e-11 3.8389638e-09 2.0869566e-11 
0.0000000e+00 3.8330907e-09 0.0000000e+00 
0.0000000e+00 3.8211168e-09 0.0000000e+00 
-7.2460447e-11 4.1002965e-09 4.4173564e-11 
-7.1374649e-11 4.1215644e-09 4.5755431e-11 
0.0000000e+00 3.8408388e-09 0.0000000e+00 
0.0000000e+00 3.8381964e-09 0.0000000e+00 
-4.7120602e-12 1.7299655e-09 -8.5390202e-12 
-1.4205043e-11 1.7226375e-09 -2.1261076e-11 
-1.0468079e-11 1.6942453e-09 -2.1462228e-11 
-2.7516104e-12 1.7131063e-09 -1.1284531e-11 
-2.7152694e-12 1.7242041e-09 -9.5920988e-12 
0.0000000e+00 1.6877747e-09 0.0000000e+00 
0.0000000e+00 1.6802382e-09 0.0000000e+00 
-1.4805343e-12 1.7026013e-09 6.9638306e-12 
-4.5861600e-12 1.7237051e-09 6.4375402e-12 
0.0000000e+00 1.6874919e-09 0.0000000e+00 
0.0000000e+00 1.6816150e-09 0.0000000e+00 
1.0778140e-11 -1.6667877e-09 1.9125729e-11 
4.2018997e-12 -1.6518834e-09 4.4849634e-11 
-9.2897261e-12 -1.6476877e-09 4.5208802e-11 
3.1818198e-12 -1.6610368e-09 1.4255688e-11 
8.4796675e-12 -1.6593686e-09 1.6499902e-11 
0.0000000e+00 -1.7409854e-09 0.0000000e+00 
0.0000000e+00 -1.7389299e-09 0.0000000e+00 
-1.4401103e-11 -1.6447113e-09 3.6766257e-11 
-1.8293247e-12 -1.6498453e-09 3.5515278e-11 
0.0000000e+00 -1.7412061e-09 0.0000000e+00 
0.0000000e+00 -1.7416409e-09 0.0000000e+00 
8.9091816e-12 -4.1976106e-10 3.8795890e-11 
1.1318462e-11 -4.0614689e-10 6.6312990e-11 
-1.1358771e-12 -3.8551692e-10 6.6867283e-11 
-1.8671711e-12 -4.0501855e-10 3.9870048e-11 
3.2635242e-12 -4.1334378e-10 3.8751512e-11 
0.0000000e+00 -4.1721945e-10 0.0000000e+00 
0.0000000e+00 -4.1033066e-10 0.0000000e+00 
-1.0516012e-11 -3.8872539e-10 4.3846898e-11 
1.6118004e-12 -4.0624870e-10 4.4017248e-11 
0.0000000e+00 -4.1534631e-10 0.0000000e+00 
0.0000000e+00 -4.1040121e-10 0.0000000e+00 
0.0000000e+00 -2.4194426e-06 0.0000000e+00 
0.0000000e+00 -8.7745549e-12 0.0000000e+00 
-6.1314961e-13 1.0884592e-09 -1.5337896e-12 
1.1944615e-12 1.1051189e-09 -1.7292980e-13 
0.0000000e+00 1.1041452e-09 0.0000000e+00 