# vtk DataFile Version 4.0
vtk output
ASCII
DATASET UNSTRUCTURED_GRID
POINTS 1827 float
0.0000000e+00 0.0000000e+00 0.0000000e+00 
0.0000000e+00 0.0000000e+00 2.0000000e+01 
3.4700000e+00 0.0000000e+00 0.0000000e+00 
3.4700000e+00 0.0000000e+00 2.0000000e+01 
3.4700000e+00 1.0000000e+00 0.0000000e+00 
3.4700000e+00 1.0000000e+00 2.0000000e+01 
0.0000000e+00 1.0000000e+00 0.0000000e+00 
0.0000000e+00 1.0000000e+00 2.0000000e+01 
1.2500000e+00 2.5000000e+00 0.0000000e+00 
1.2500000e+00 2.5000000e+00 1.1700000e-01 
7.5000000e-01 2.5000000e+00 1.1700000e-01 
7.5000000e-01 2.5000000e+00 0.0000000e+00 
0.0000000e+00 2.5000000e+00 0.0000000e+00 
0.0000000e+00 2.5000000e+00 1.1700000e-01 
1.2500000e+00 2.8000000e+00 1.1700000e-01 
1.2500000e+00 2.8000000e+00 0.0000000e+00 
0.0000000e+00 2.8000000e+00 0.0000000e+00 
0.0000000e+00 2.8000000e+00 1.1700000e-01 
7.5000000e-01 2.5000000e+00 3.8299999e-01 
1.2500000e+00 2.5000000e+00 3.8299999e-01 
1.2500000e+00 2.5000000e+00 6.1699998e-01 
7.5000000e-01 2.5000000e+00 6.1699998e-01 
7.5000000e-01 2.5000000e+00 5.0000000e-01 
0.0000000e+00 2.5000000e+00 3.8299999e-01 
0.0000000e+00 2.5000000e+00 6.1699998e-01 
1.2500000e+00 2.8000000e+00 6.1699998e-01 
1.2500000e+00 2.8000000e+00 3.8299999e-01 
0.0000000e+00 2.8000000e+00 3.8299999e-01 
0.0000000e+00 2.8000000e+00 6.1699998e-01 
7.5000000e-01 2.5000000e+00 8.8300002e-01 
1.2500000e+00 2.5000000e+00 8.8300002e-01 
1.2500000e+00 2.5000000e+00 1.1170000e+00 
7.5000000e-01 2.5000000e+00 1.1170000e+00 
7.5000000e-01 2.5000000e+00 1.0000000e+00 
0.0000000e+00 2.5000000e+00 8.8300002e-01 
0.0000000e+00 2.5000000e+00 1.1170000e+00 
1.2500000e+00 2.8000000e+00 1.1170000e+00 
1.2500000e+00 2.8000000e+00 8.8300002e-01 
0.0000000e+00 2.8000000e+00 8.8300002e-01 
0.0000000e+00 2.8000000e+00 1.1170000e+00 
7.5000000e-01 2.5000000e+00 1.3830000e+00 
1.2500000e+00 2.5000000e+00 1.3830000e+00 
1.2500000e+00 2.5000000e+00 1.6170000e+00 
7.5000000e-01 2.5000000e+00 1.6170000e+00 
7.5000000e-01 2.5000000e+00 1.5000000e+00 
0.0000000e+00 2.5000000e+00 1.3830000e+00 
0.0000000e+00 2.5000000e+00 1.6170000e+00 
1.2500000e+00 2.8000000e+00 1.6170000e+00 
1.2500000e+00 2.8000000e+00 1.3830000e+00 
0.0000000e+00 2.8000000e+00 1.3830000e+00 
0.0000000e+00 2.8000000e+00 1.6170000e+00 
7.5000000e-01 2.5000000e+00 1.8830000e+00 
1.2500000e+00 2.5000000e+00 1.8830000e+00 
1.2500000e+00 2.5000000e+00 2.1170001e+00 
7.5000000e-01 2.5000000e+00 2.1170001e+00 
7.5000000e-01 2.5000000e+00 2.0000000e+00 
0.0000000e+00 2.5000000e+00 1.8830000e+00 
0.0000000e+00 2.5000000e+00 2.1170001e+00 
1.2500000e+00 2.8000000e+00 2.1170001e+00 
1.2500000e+00 2.8000000e+00 1.8830000e+00 
0.0000000e+00 2.8000000e+00 1.8830000e+00 
0.0000000e+00 2.8000000e+00 2.1170001e+00 
7.5000000e-01 2.5000000e+00 2.3829999e+00 
1.2500000e+00 2.5000000e+00 2.3829999e+00 
1.2500000e+00 2.5000000e+00 2.6170001e+00 
7.5000000e-01 2.5000000e+00 2.6170001e+00 
7.5000000e-01 2.5000000e+00 2.5000000e+00 
0.0000000e+00 2.5000000e+00 2.3829999e+00 
0.0000000e+00 2.5000000e+00 2.6170001e+00 
1.2500000e+00 2.8000000e+00 2.6170001e+00 
1.2500000e+00 2.8000000e+00 2.3829999e+00 
0.0000000e+00 2.8000000e+00 2.3829999e+00 
0.0000000e+00 2.8000000e+00 2.6170001e+00 
7.5000000e-01 2.5000000e+00 2.8829999e+00 
1.2500000e+00 2.5000000e+00 2.8829999e+00 
1.2500000e+00 2.5000000e+00 3.1170001e+00 
7.5000000e-01 2.5000000e+00 3.1170001e+00 
7.5000000e-01 2.5000000e+00 3.0000000e+00 
0.0000000e+00 2.5000000e+00 2.8829999e+00 
0.0000000e+00 2.5000000e+00 3.1170001e+00 
1.2500000e+00 2.8000000e+00 3.1170001e+00 
1.2500000e+00 2.8000000e+00 2.8829999e+00 
0.0000000e+00 2.8000000e+00 2.8829999e+00 
0.0000000e+00 2.8000000e+00 3.1170001e+00 
7.5000000e-01 2.5000000e+00 3.3829999e+00 
1.2500000e+00 2.5000000e+00 3.3829999e+00 
1.2500000e+00 2.5000000e+00 3.6170001e+00 
7.5000000e-01 2.5000000e+00 3.6170001e+00 
7.5000000e-01 2.5000000e+00 3.5000000e+00 
0.0000000e+00 2.5000000e+00 3.3829999e+00 
0.0000000e+00 2.5000000e+00 3.6170001e+00 
1.2500000e+00 2.8000000e+00 3.6170001e+00 
1.2500000e+00 2.8000000e+00 3.3829999e+00 
0.0000000e+00 2.8000000e+00 3.3829999e+00 
0.0000000e+00 2.8000000e+00 3.6170001e+00 
7.5000000e-01 2.5000000e+00 3.8829999e+00 
1.2500000e+00 2.5000000e+00 3.8829999e+00 
1.2500000e+00 2.5000000e+00 4.1170001e+00 
7.5000000e-01 2.5000000e+00 4.1170001e+00 
7.5000000e-01 2.5000000e+00 4.0000000e+00 
0.0000000e+00 2.5000000e+00 3.8829999e+00 
0.0000000e+00 2.5000000e+00 4.1170001e+00 
1.2500000e+00 2.8000000e+00 4.1170001e+00 
1.2500000e+00 2.8000000e+00 3.8829999e+00 
0.0000000e+00 2.8000000e+00 3.8829999e+00 
0.0000000e+00 2.8000000e+00 4.1170001e+00 
7.5000000e-01 2.5000000e+00 4.3829999e+00 
1.2500000e+00 2.5000000e+00 4.3829999e+00 
1.2500000e+00 2.5000000e+00 4.6170001e+00 
7.5000000e-01 2.5000000e+00 4.6170001e+00 
7.5000000e-01 2.5000000e+00 4.5000000e+00 
0.0000000e+00 2.5000000e+00 4.3829999e+00 
0.0000000e+00 2.5000000e+00 4.6170001e+00 
1.2500000e+00 2.8000000e+00 4.6170001e+00 
1.2500000e+00 2.8000000e+00 4.3829999e+00 
0.0000000e+00 2.8000000e+00 4.3829999e+00 
0.0000000e+00 2.8000000e+00 4.6170001e+00 
7.5000000e-01 2.5000000e+00 4.8829999e+00 
1.2500000e+00 2.5000000e+00 4.8829999e+00 
1.2500000e+00 2.5000000e+00 5.1170001e+00 
7.5000000e-01 2.5000000e+00 5.1170001e+00 
7.5000000e-01 2.5000000e+00 5.0000000e+00 
0.0000000e+00 2.5000000e+00 4.8829999e+00 
0.0000000e+00 2.5000000e+00 5.1170001e+00 
1.2500000e+00 2.8000000e+00 5.1170001e+00 
1.2500000e+00 2.8000000e+00 4.8829999e+00 
0.0000000e+00 2.8000000e+00 4.8829999e+00 
0.0000000e+00 2.8000000e+00 5.1170001e+00 
7.5000000e-01 2.5000000e+00 5.3829999e+00 
1.2500000e+00 2.5000000e+00 5.3829999e+00 
1.2500000e+00 2.5000000e+00 5.6170001e+00 
7.5000000e-01 2.5000000e+00 5.6170001e+00 
7.5000000e-01 2.5000000e+00 5.5000000e+00 
0.0000000e+00 2.5000000e+00 5.3829999e+00 
0.0000000e+00 2.5000000e+00 5.6170001e+00 
1.2500000e+00 2.8000000e+00 5.6170001e+00 
1.2500000e+00 2.8000000e+00 5.3829999e+00 
0.0000000e+00 2.8000000e+00 5.3829999e+00 
0.0000000e+00 2.8000000e+00 5.6170001e+00 
7.5000000e-01 2.5000000e+00 5.8829999e+00 
1.2500000e+00 2.5000000e+00 5.8829999e+00 
1.2500000e+00 2.5000000e+00 6.1170001e+00 
7.5000000e-01 2.5000000e+00 6.1170001e+00 
7.5000000e-01 2.5000000e+00 6.0000000e+00 
0.0000000e+00 2.5000000e+00 5.8829999e+00 
0.0000000e+00 2.5000000e+00 6.1170001e+00 
1.2500000e+00 2.8000000e+00 6.1170001e+00 
1.2500000e+00 2.8000000e+00 5.8829999e+00 
0.0000000e+00 2.8000000e+00 5.8829999e+00 
0.0000000e+00 2.8000000e+00 6.1170001e+00 
7.5000000e-01 2.5000000e+00 6.3829999e+00 
1.2500000e+00 2.5000000e+00 6.3829999e+00 
1.2500000e+00 2.5000000e+00 6.6170001e+00 
7.5000000e-01 2.5000000e+00 6.6170001e+00 
7.5000000e-01 2.5000000e+00 6.5000000e+00 
0.0000000e+00 2.5000000e+00 6.3829999e+00 
0.0000000e+00 2.5000000e+00 6.6170001e+00 
1.2500000e+00 2.8000000e+00 6.6170001e+00 
1.2500000e+00 2.8000000e+00 6.3829999e+00 
0.0000000e+00 2.8000000e+00 6.3829999e+00 
0.0000000e+00 2.8000000e+00 6.6170001e+00 
7.5000000e-01 2.5000000e+00 6.8829999e+00 
1.2500000e+00 2.5000000e+00 6.8829999e+00 
1.2500000e+00 2.5000000e+00 7.1170001e+00 
7.5000000e-01 2.5000000e+00 7.1170001e+00 
7.5000000e-01 2.5000000e+00 7.0000000e+00 
0.0000000e+00 2.5000000e+00 6.8829999e+00 
0.0000000e+00 2.5000000e+00 7.1170001e+00 
1.2500000e+00 2.8000000e+00 7.1170001e+00 
1.2500000e+00 2.8000000e+00 6.8829999e+00 
0.0000000e+00 2.8000000e+00 6.8829999e+00 
0.0000000e+00 2.8000000e+00 7.1170001e+00 
7.5000000e-01 2.5000000e+00 7.3829999e+00 
1.2500000e+00 2.5000000e+00 7.3829999e+00 
1.2500000e+00 2.5000000e+00 7.6170001e+00 
7.5000000e-01 2.5000000e+00 7.6170001e+00 
7.5000000e-01 2.5000000e+00 7.5000000e+00 
0.0000000e+00 2.5000000e+00 7.3829999e+00 
0.0000000e+00 2.5000000e+00 7.6170001e+00 
1.2500000e+00 2.8000000e+00 7.6170001e+00 
1.2500000e+00 2.8000000e+00 7.3829999e+00 
0.0000000e+00 2.8000000e+00 7.3829999e+00 
0.0000000e+00 2.8000000e+00 7.6170001e+00 
7.5000000e-01 2.5000000e+00 7.8829999e+00 
1.2500000e+00 2.5000000e+00 7.8829999e+00 
1.2500000e+00 2.5000000e+00 8.1169996e+00 
7.5000000e-01 2.5000000e+00 8.1169996e+00 
7.5000000e-01 2.5000000e+00 8.0000000e+00 
0.0000000e+00 2.5000000e+00 7.8829999e+00 
0.0000000e+00 2.5000000e+00 8.1169996e+00 
1.2500000e+00 2.8000000e+00 8.1169996e+00 
1.2500000e+00 2.8000000e+00 7.8829999e+00 
0.0000000e+00 2.8000000e+00 7.8829999e+00 
0.0000000e+00 2.8000000e+00 8.1169996e+00 
7.5000000e-01 2.5000000e+00 8.3830004e+00 
1.2500000e+00 2.5000000e+00 8.3830004e+00 
1.2500000e+00 2.5000000e+00 8.6169996e+00 
7.5000000e-01 2.5000000e+00 8.6169996e+00 
7.5000000e-01 2.5000000e+00 8.5000000e+00 
0.0000000e+00 2.5000000e+00 8.3830004e+00 
0.0000000e+00 2.5000000e+00 8.6169996e+00 
1.2500000e+00 2.8000000e+00 8.6169996e+00 
1.2500000e+00 2.8000000e+00 8.3830004e+00 
0.0000000e+00 2.8000000e+00 8.3830004e+00 
0.0000000e+00 2.8000000e+00 8.6169996e+00 
7.5000000e-01 2.5000000e+00 8.8830004e+00 
1.2500000e+00 2.5000000e+00 8.8830004e+00 
1.2500000e+00 2.5000000e+00 9.1169996e+00 
7.5000000e-01 2.5000000e+00 9.1169996e+00 
7.5000000e-01 2.5000000e+00 9.0000000e+00 
0.0000000e+00 2.5000000e+00 8.8830004e+00 
0.0000000e+00 2.5000000e+00 9.1169996e+00 
1.2500000e+00 2.8000000e+00 9.1169996e+00 
1.2500000e+00 2.8000000e+00 8.8830004e+00 
0.0000000e+00 2.8000000e+00 8.8830004e+00 
0.0000000e+00 2.8000000e+00 9.1169996e+00 
7.5000000e-01 2.5000000e+00 9.3830004e+00 
1.2500000e+00 2.5000000e+00 9.3830004e+00 
1.2500000e+00 2.5000000e+00 9.6169996e+00 
7.5000000e-01 2.5000000e+00 9.6169996e+00 
7.5000000e-01 2.5000000e+00 9.5000000e+00 
0.0000000e+00 2.5000000e+00 9.3830004e+00 
0.0000000e+00 2.5000000e+00 9.6169996e+00 
1.2500000e+00 2.8000000e+00 9.6169996e+00 
1.2500000e+00 2.8000000e+00 9.3830004e+00 
0.0000000e+00 2.8000000e+00 9.3830004e+00 
0.0000000e+00 2.8000000e+00 9.6169996e+00 
7.5000000e-01 2.5000000e+00 9.8830004e+00 
1.2500000e+00 2.5000000e+00 9.8830004e+00 
1.2500000e+00 2.5000000e+00 1.0117000e+01 
[...]
POINT_DATA 1827
FIELD FieldData 2
DISPLACEMENT 3 1827  float
0.0000000e+00 0.0000000e+00 0.0000000e+00 
0.0000000e+00 0.0000000e+00 0.0000000e+00 
0.0000000e+00 0.0000000e+00 0.0000000e+00 
0.0000000e+00 0.0000000e+00 0.0000000e+00 
0.0000000e+00 -3.2889639e-05 0.0000000e+00 
0.0000000e+00 -2.1231097e-09 0.0000000e+00 
0.0000000e+00 -2.3908609e-05 0.0000000e+00 
0.0000000e+00 -4.7605681e-08 0.0000000e+00 
0.0000000e+00 -1.1697707e-04 0.0000000e+00 
-4.4266129e-09 -1.1698660e-04 1.3134289e-09 
3.6955472e-09 -1.1695913e-04 6.7920967e-11 
0.0000000e+00 -1.1694858e-04 0.0000000e+00 
0.0000000e+00 -1.1709515e-04 0.0000000e+00 
0.0000000e+00 -1.1709661e-04 0.0000000e+00 
4.3981800e-09 -1.1698243e-04 4.1008912e-09 
0.0000000e+00 -1.1698391e-04 0.0000000e+00 
0.0000000e+00 -1.1709537e-04 0.0000000e+00 
0.0000000e+00 -1.1709683e-04 0.0000000e+00 
2.0366359e-07 -1.4729134e-04 1.1648565e-07 
3.0133461e-07 -1.4642738e-04 3.4343077e-07 
1.7107087e-07 -1.4670371e-04 3.6935887e-07 
1.1379247e-07 -1.4747056e-04 1.3851353e-07 
1.5095198e-07 -1.4739762e-04 1.2872894e-07 
0.0000000e+00 -1.4769680e-04 0.0000000e+00 
0.0000000e+00 -1.4779018e-04 0.0000000e+00 
-2.9831034e-07 -1.4673008e-04 6.2343679e-07 
-1.7613087e-07 -1.4651699e-04 6.2503290e-07 
0.0000000e+00 -1.4769817e-04 0.0000000e+00 
0.0000000e+00 -1.4775689e-04 0.0000000e+00 
1.8852202e-07 -2.2045540e-04 4.1935871e-07 
2.9720425e-07 -2.1965383e-04 1.0823209e-06 
-1.1514705e-07 -2.2052250e-04 1.0793808e-06 
-8.3610566e-08 -2.2097492e-04 4.5098645e-07 
4.0039094e-08 -2.2073780e-04 4.4677273e-07 
0.0000000e+00 -2.2072130e-04 0.0000000e+00 
0.0000000e+00 -2.2094452e-04 0.0000000e+00 
-4.2596869e-07 -2.2046556e-04 1.9152735e-06 
-7.7843524e-08 -2.1982135e-04 1.9190859e-06 
0.0000000e+00 -2.2076470e-04 0.0000000e+00 
0.0000000e+00 -2.2088742e-04 0.0000000e+00 
5.0801600e-07 -3.2649847e-04 -3.7265806e-08 
6.5712732e-07 -3.2393911e-04 -1.9164874e-08 
6.1248852e-07 -3.2446213e-04 8.6065821e-09 
4.6990527e-07 -3.2692138e-04 -1.1620465e-08 
4.6673549e-07 -3.2675517e-04 -1.9290567e-08 
0.0000000e+00 -3.2799871e-04 0.0000000e+00 
0.0000000e+00 -3.2816979e-04 0.0000000e+00 
-8.1137318e-07 -3.2457773e-04 5.8477195e-07 
-7.7203947e-07 -3.2411810e-04 5.7533981e-07 
0.0000000e+00 -3.2794275e-04 0.0000000e+00 
0.0000000e+00 -3.2810061e-04 0.0000000e+00 
3.2536209e-07 -4.0151487e-04 -1.1015960e-06 
4.5458546e-07 -3.9913366e-04 -2.0760574e-06 
9.1949801e-07 -3.9918456e-04 -2.0505656e-06 
7.2034112e-07 -4.0152756e-04 -1.0671121e-06 
4.9177078e-07 -4.0158225e-04 -1.0731741e-06 
0.0000000e+00 -4.0259294e-04 0.0000000e+00 
0.0000000e+00 -4.0256444e-04 0.0000000e+00 
-4.3640276e-07 -3.9935138e-04 -1.9885615e-06 
-8.9883122e-07 -3.9930566e-04 -1.9873830e-06 
0.0000000e+00 -4.0250842e-04 0.0000000e+00 
0.0000000e+00 -4.0252254e-04 0.0000000e+00 
7.5091452e-07 -3.4046167e-04 -1.2288854e-06 
9.7544569e-07 -3.3624558e-04 -2.5842712e-06 
1.6754877e-06 -3.3538623e-04 -2.5309403e-06 
1.3015376e-06 -3.3986976e-04 -1.2092031e-06 
9.8919190e-07 -3.4021217e-04 -1.2159724e-06 
0.0000000e+00 -3.4290092e-04 0.0000000e+00 
0.0000000e+00 -3.4267560e-04 0.0000000e+00 
-8.5707160e-07 -3.3572305e-04 -3.3952372e-06 
-1.5335833e-06 -3.3639040e-04 -3.4080031e-06 
0.0000000e+00 -3.4267429e-04 0.0000000e+00 
0.0000000e+00 -3.4259481e-04 0.0000000e+00 
1.3103943e-07 -1.9353385e-04 -4.4570029e-07 
1.9136181e-07 -1.9234100e-04 -1.2299716e-06 
6.3708990e-07 -1.9105118e-04 -1.2461367e-06 
4.6145982e-07 -1.9278996e-04 -4.1509597e-07 
2.7273546e-07 -1.9318878e-04 -4.3791684e-07 
0.0000000e+00 -1.9382968e-04 0.0000000e+00 
0.0000000e+00 -1.9351025e-04 0.0000000e+00 
-1.9164656e-07 -1.9132452e-04 -2.4463961e-06 
-6.4893203e-07 -1.9226335e-04 -2.4473204e-06 
0.0000000e+00 -1.9370737e-04 0.0000000e+00 
0.0000000e+00 -1.9348499e-04 0.0000000e+00 
1.8199638e-07 -7.1054004e-05 9.2942264e-07 
2.8182905e-07 -7.1238013e-05 1.8572963e-06 
-7.9927354e-08 -7.0215501e-05 1.8335193e-06 
-7.9259323e-08 -7.0463226e-05 9.3576477e-07 
4.9852716e-08 -7.0771952e-05 9.1113537e-07 
0.0000000e+00 -7.0634131e-05 0.0000000e+00 
0.0000000e+00 -7.0377384e-05 0.0000000e+00 
-1.1144112e-07 -7.0351874e-05 7.9458010e-07 
2.4831826e-07 -7.1126182e-05 7.8697735e-07 
0.0000000e+00 -7.0654045e-05 0.0000000e+00 
0.0000000e+00 -7.0444235e-05 0.0000000e+00 
3.9245961e-08 -6.0746102e-06 5.9115166e-07 
6.3185993e-08 -6.4761675e-06 1.0362509e-06 
-1.2891616e-07 -6.1203323e-06 1.0239384e-06 
-1.2437434e-07 -5.8245059e-06 5.9421291e-07 
-4.3507963e-08 -5.9485988e-06 5.8361002e-07 
0.0000000e+00 -5.6216181e-06 0.0000000e+00 
0.0000000e+00 -5.5150995e-06 0.0000000e+00 
6.2007601e-08 -6.1382912e-06 6.3484089e-07 
2.5270552e-07 -6.4390174e-06 6.3620212e-07 
0.0000000e+00 -5.6214126e-06 0.0000000e+00 
0.0000000e+00 -5.5333967e-06 0.0000000e+00 
-1.0680980e-07 1.4292967e-05 1.2086903e-07 
-1.8085746e-07 1.3734111e-05 1.4770860e-07 
-1.9215277e-07 1.3838948e-05 1.5130746e-07 
-1.2491515e-07 1.4356493e-05 1.1433098e-07 
-1.1151318e-07 1.4333818e-05 1.1624847e-07 
0.0000000e+00 1.4578424e-05 0.0000000e+00 
0.0000000e+00 1.4609107e-05 0.0000000e+00 
1.3475005e-07 1.3861742e-05 4.5680178e-08 
1.4689408e-07 1.3780379e-05 4.5629090e-08 
0.0000000e+00 1.4567620e-05 0.0000000e+00 
0.0000000e+00 1.4591328e-05 0.0000000e+00 
-7.8371421e-08 1.6887054e-05 1.2853189e-07 
-1.3112540e-07 1.6500371e-05 1.9147480e-07 
-1.9824910e-07 1.6526768e-05 1.8505388e-07 
-1.1279414e-07 1.6909142e-05 1.2246224e-07 
-9.2376872e-08 1.6905553e-05 1.2388557e-07 
0.0000000e+00 1.7083961e-05 0.0000000e+00 
0.0000000e+00 1.7090690e-05 0.0000000e+00 
6.4545887e-08 1.6552140e-05 1.5897044e-07 
9.4715865e-08 1.6527832e-05 1.5617947e-07 
0.0000000e+00 1.7070304e-05 0.0000000e+00 
0.0000000e+00 1.7082088e-05 0.0000000e+00 
1.0223498e-08 1.5047404e-05 3.9915111e-08 
-2.6268674e-08 1.5170297e-05 4.0197076e-08 
-7.1622206e-09 1.5191862e-05 4.9262574e-08 
4.0989030e-09 1.5054029e-05 4.2578751e-08 
5.6183724e-09 1.5050265e-05 4.0762675e-08 
0.0000000e+00 1.5003729e-05 0.0000000e+00 
0.0000000e+00 1.5006870e-05 0.0000000e+00 
-7.0527229e-08 1.5179097e-05 2.9909085e-08 
-6.7266441e-08 1.5165409e-05 2.8449954e-08 
0.0000000e+00 1.5007463e-05 0.0000000e+00 
0.0000000e+00 1.5009835e-05 0.0000000e+00 
1.4548583e-07 8.8383194e-06 -1.1891368e-08 
1.8946110e-07 9.3818444e-06 -1.1147477e-08 
1.9565327e-07 9.3356302e-06 2.5561540e-09 
1.4115921e-07 8.8069464e-06 -7.2564572e-09 
1.3882865e-07 8.8185516e-06 -8.0376665e-09 
0.0000000e+00 8.5323245e-06 0.0000000e+00 
0.0000000e+00 8.5133724e-06 0.0000000e+00 
-1.2727934e-07 9.3078006e-06 4.1121517e-08 
-1.2039003e-07 9.3442331e-06 4.2147473e-08 
0.0000000e+00 8.5408110e-06 0.0000000e+00 
0.0000000e+00 8.5265783e-06 0.0000000e+00 
2.4731589e-08 -1.4163073e-06 2.4050482e-07 
2.8766205e-08 -1.3869594e-06 4.4934788e-07 
-7.5760418e-08 -1.4163294e-06 4.5282280e-07 
-6.0053416e-08 -1.4200808e-06 2.4131398e-07 
-1.7771288e-08 -1.4177524e-06 2.3885141e-07 
0.0000000e+00 -1.4270755e-06 0.0000000e+00 
0.0000000e+00 -1.4326225e-06 0.0000000e+00 
-7.8713647e-08 -1.4100747e-06 4.6144152e-07 
2.5337394e-08 -1.4019993e-06 4.6126192e-07 
0.0000000e+00 -1.4317811e-06 0.0000000e+00 
0.0000000e+00 -1.4272443e-06 0.0000000e+00 
-1.3734252e-07 -7.3213250e-06 4.7932211e-08 
-2.0229942e-07 -7.7003042e-06 1.0847131e-08 
-2.0211591e-07 -7.7429040e-06 1.0331632e-08 
-1.4098838e-07 -7.3410151e-06 4.5324128e-08 
-1.3514922e-07 -7.3275178e-06 4.7599436e-08 
0.0000000e+00 -7.1129771e-06 0.0000000e+00 
0.0000000e+00 -7.1208315e-06 0.0000000e+00 
5.2414581e-08 -7.7156219e-06 5.6117639e-08 
4.2577398e-08 -7.6877805e-06 5.4307147e-08 
0.0000000e+00 -7.1252434e-06 0.0000000e+00 
0.0000000e+00 -7.1266386e-06 0.0000000e+00 
-5.4384628e-08 -4.3770092e-06 -1.8747720e-07 
-8.6321734e-08 -4.3755326e-06 -4.4237305e-07 
5.7519525e-08 -4.3392802e-06 -4.3358409e-07 
3.2323726e-08 -4.3620371e-06 -1.9149624e-07 
-1.0153090e-08 -4.3665887e-06 -1.8791258e-07 
0.0000000e+00 -4.4261583e-06 0.0000000e+00 
0.0000000e+00 -4.4198973e-06 0.0000000e+00 
3.9424272e-08 -4.3450059e-06 -4.5579441e-07 
-7.5510094e-08 -4.3656028e-06 -4.5613908e-07 
0.0000000e+00 -4.4181647e-06 0.0000000e+00 
0.0000000e+00 -4.4195522e-06 0.0000000e+00 
4.5099949e-08 3.4036004e-06 -7.8367222e-08 
7.5094107e-08 3.5514229e-06 -1.6662717e-07 
1.1850499e-07 3.6765591e-06 -1.5474902e-07 
8.7022393e-08 3.4692828e-06 -8.0018538e-08 
6.4790392e-08 3.4356910e-06 -8.0167858e-08 
0.0000000e+00 3.2870041e-06 0.0000000e+00 
0.0000000e+00 3.3169426e-06 0.0000000e+00 
4.2655448e-09 3.6487488e-06 -2.7797853e-07 
-4.3961911e-08 3.5623386e-06 -2.7415408e-07 
0.0000000e+00 3.3041006e-06 0.0000000e+00 
0.0000000e+00 3.3216106e-06 0.0000000e+00 
8.4759940e-08 7.0697592e-06 2.7305921e-07 
1.2590236e-07 7.1747108e-06 5.4852006e-07 
-1.2814464e-09 7.2345997e-06 5.5568580e-07 
-1.3672401e-08 7.1090894e-06 2.7722615e-07 
3.3395487e-08 7.0855335e-06 2.7214094e-07 
0.0000000e+00 7.0299543e-06 0.0000000e+00 
0.0000000e+00 7.0470346e-06 0.0000000e+00 
-7.7313224e-08 7.2218177e-06 4.7505767e-07 
4.8817704e-08 7.1699255e-06 4.7709534e-07 
0.0000000e+00 7.0329606e-06 0.0000000e+00 
0.0000000e+00 7.0502861e-06 0.0000000e+00 
8.2418715e-08 2.8841996e-06 5.6120081e-07 
1.0249458e-07 2.8752918e-06 1.1493254e-06 
-1.7326207e-07 2.9217997e-06 1.1487164e-06 
-1.2712808e-07 2.9152841e-06 5.6301906e-07 
-2.1967994e-08 2.8987076e-06 5.5650361e-07 
0.0000000e+00 2.9196967e-06 0.0000000e+00 
0.0000000e+00 2.9376795e-06 0.0000000e+00 
-1.6236132e-07 2.9225105e-06 1.0684445e-06 
1.1107067e-07 2.8728232e-06 1.0686198e-06 
0.0000000e+00 2.9184589e-06 0.0000000e+00 
0.0000000e+00 2.9443588e-06 0.0000000e+00 
4.8319080e-08 -3.9157189e-06 1.4072882e-07 
6.1727128e-08 -3.8158978e-06 2.6381156e-07 
-2.0803128e-09 -3.8283592e-06 2.5795399e-07 
2.4615709e-10 -3.9174365e-06 1.3741617e-07 
2.4819238e-08 -3.9148008e-06 1.3782829e-07 
0.0000000e+00 -4.0202881e-06 0.0000000e+00 
0.0000000e+00 -4.0190798e-06 0.0000000e+00 
-5.7582966e-08 -3.8245553e-06 2.6343926e-07 
2.4547260e-09 -3.8223557e-06 2.6203168e-07 
0.0000000e+00 -4.0174291e-06 0.0000000e+00 
0.0000000e+00 -4.0158566e-06 0.0000000e+00 
-4.0342016e-08 -6.2957643e-06 -2.1953977e-07 
-4.9925699e-08 -6.3079160e-06 -4.9878162e-07 
7.6947025e-08 -6.3306757e-06 -5.0525432e-07 
5.4199774e-08 -6.3101857e-06 -2.2101031e-07 
8.1182288e-09 -6.3027051e-06 -2.1829339e-07 
0.0000000e+00 -6.3154457e-06 0.0000000e+00 
0.0000000e+00 -6.3204598e-06 0.0000000e+00 
7.8900555e-08 -6.3271477e-06 -4.6328668e-07 
-4.8842548e-08 -6.3064149e-06 -4.6300909e-07 
0.0000000e+00 -6.3158500e-06 0.0000000e+00 
0.0000000e+00 -6.3238226e-06 0.0000000e+00 
-5.2674820e-10 -3.2639734e-06 -1.8013327e-07 
-1.4002695e-10 -3.1829384e-06 -3.7537080e-07 
8.8101416e-08 -3.1796635e-06 -3.7367704e-07 
6.9983848e-08 -3.2660382e-06 -1.8024951e-07 
3.4471022e-08 -3.2666253e-06 -1.7858370e-07 
0.0000000e+00 -3.3352046e-06 0.0000000e+00 
0.0000000e+00 -3.3352403e-06 0.0000000e+00 
3.6499603e-08 -3.1867912e-06 -3.6518398e-07 
-5.5066838e-08 -3.1829998e-06 -3.6483038e-07 
0.0000000e+00 -3.3309007e-06 0.0000000e+00 
0.0000000e+00 -3.3375184e-06 0.0000000e+00 
-2.8145390e-09 1.0212809e-06 4.8432565e-08 
-8.6173797e-09 9.8407861e-07 1.0935465e-07 
-4.1758661e-08 1.0100554e-06 1.1900439e-07 
-2.3371777e-08 1.0390822e-06 4.9033741e-08 
-1.3676327e-08 1.0299035e-06 4.7737998e-08 
0.0000000e+00 1.0748050e-06 0.0000000e+00 
0.0000000e+00 1.0819151e-06 0.0000000e+00 
-1.1900485e-08 1.0072358e-06 8.2701682e-08 
1.5986439e-08 9.8583473e-07 8.4110013e-08 
0.0000000e+00 1.0747900e-06 0.0000000e+00 
0.0000000e+00 1.0824074e-06 0.0000000e+00 
-1.1001250e-08 2.9681255e-06 5.1445430e-09 
-1.2998086e-08 2.9233972e-06 4.3020879e-08 
-2.9117647e-08 2.9271714e-06 4.3607127e-08 
-2.0040192e-08 2.9694886e-06 6.9186807e-09 
-1.5527549e-08 2.9686587e-06 5.9186704e-09 
0.0000000e+00 3.0122801e-06 0.0000000e+00 
0.0000000e+00 3.0119886e-06 0.0000000e+00 
-9.3562269e-10 2.9282821e-06 3.7290494e-08 
1.4415020e-08 2.9261655e-06 3.7587586e-08 
0.0000000e+00 3.0112692e-06 0.0000000e+00 
0.0000000e+00 3.0124961e-06 0.0000000e+00 
2.1540101e-08 2.0184830e-06 1.2417088e-07 
2.7488104e-08 2.0244156e-06 2.6924721e-07 
-3.5979141e-08 2.0375378e-06 2.6522270e-07 
-2.7500214e-08 2.0275927e-06 1.2452884e-07 
-2.5060953e-09 2.0231582e-06 1.2314402e-07 
0.0000000e+00 2.0116852e-06 0.0000000e+00 
0.0000000e+00 2.0163711e-06 0.0000000e+00 
-4.1314085e-08 2.0386676e-06 2.4584205e-07 
2.4099501e-08 2.0258110e-06 2.4548615e-07 
0.0000000e+00 2.0134657e-06 0.0000000e+00 
0.0000000e+00 2.0184962e-06 0.0000000e+00 
8.2467908e-09 4.2930132e-08 3.8321989e-08 
1.3877169e-08 6.2824711e-08 7.0251225e-08 
-2.4701954e-09 4.8918107e-08 6.7290074e-08 
-5.5345493e-09 3.7296388e-08 3.8006036e-08 
1.7856900e-09 4.0585849e-08 3.7927592e-08 
0.0000000e+00 2.4698172e-08 0.0000000e+00 
0.0000000e+00 2.2421762e-08 0.0000000e+00 
-1.3577185e-08 5.1478136e-08 7.9945863e-08 
2.4263094e-09 5.9554907e-08 7.9637672e-08 
0.0000000e+00 2.4638430e-08 0.0000000e+00 
0.0000000e+00 2.3449445e-08 0.0000000e+00 
6.1262639e-09 -1.0770316e-06 -4.1875072e-09 
5.1834816e-09 -1.0501197e-06 -1.6559905e-08 
9.4474233e-09 -1.0561489e-06 -1.6519417e-08 
8.8488115e-09 -1.0798381e-06 -5.0744728e-09 
7.4697759e-09 -1.0781276e-06 -4.5561408e-09 
0.0000000e+00 -1.1077176e-06 0.0000000e+00 
0.0000000e+00 -1.1083096e-06 0.0000000e+00 
-4.8991176e-09 -1.0556458e-06 -1.0073572e-08 
-9.5795896e-09 -1.0515088e-06 -1.0320840e-08 
0.0000000e+00 -1.1065763e-06 0.0000000e+00 
0.0000000e+00 -1.1080116e-06 0.0000000e+00 
-3.8635992e-09 -7.5991454e-07 -1.8186608e-08 
-5.7220975e-09 -7.6366928e-07 -4.1718138e-08 
6.6311014e-09 -7.6049071e-07 -4.1587519e-08 
4.2943871e-09 -7.5819753e-07 -1.8220899e-08 
1.6772783e-10 -7.5913800e-07 -1.8120280e-08 
0.0000000e+00 -7.5649740e-07 0.0000000e+00 
0.0000000e+00 -7.5576833e-07 0.0000000e+00 
7.5232363e-09 -7.6125775e-07 -4.3344485e-08 
-3.3565117e-09 -7.6325557e-07 -4.3386969e-08 
0.0000000e+00 -7.5652719e-07 0.0000000e+00 
0.0000000e+00 -7.5638366e-07 0.0000000e+00 
3.9399764e-10 3.1058518e-09 1.9553713e-08 
1.8688224e-09 -5.7325988e-09 4.4607241e-08 
-9.8322461e-09 1.0579699e-09 4.6479006e-08 
-7.8126376e-09 7.4978956e-09 2.0155380e-08 
-3.8202459e-09 4.9799054e-09 1.9607478e-08 
0.0000000e+00 1.8732523e-08 0.0000000e+00 
0.0000000e+00 2.0328017e-08 0.0000000e+00 
-4.5115702e-09 -1.4607909e-10 3.6980374e-08 
6.7265855e-09 -5.7116947e-09 3.7401122e-08 
0.0000000e+00 1.8486563e-08 0.0000000e+00 
0.0000000e+00 2.0403824e-08 0.0000000e+00 
3.0847300e-09 3.2103856e-07 2.8849909e-08 
4.7894972e-09 3.1622534e-07 5.9360495e-08 
-9.4176986e-09 3.2213600e-07 5.9542003e-08 
-7.6573148e-09 3.2534447e-07 2.9048262e-08 
-2.2200548e-09 3.2312408e-07 2.8631142e-08 
0.0000000e+00 3.2985460e-07 0.0000000e+00 
0.0000000e+00 3.3160322e-07 0.0000000e+00 
-6.6843677e-09 3.2175936e-07 5.1560388e-08 
7.1654251e-09 3.1639593e-07 5.1680370e-08 
0.0000000e+00 3.2977013e-07 0.0000000e+00 
0.0000000e+00 3.3168305e-07 0.0000000e+00 
3.9156909e-09 1.9592190e-07 1.1152618e-08 
6.4122010e-09 2.0131193e-07 2.4147331e-08 
6.9342843e-10 2.0151764e-07 2.2424043e-08 
-3.8458117e-10 1.9643669e-07 1.0998350e-08 
1.8362437e-09 1.9614782e-07 1.0974544e-08 
0.0000000e+00 1.9103632e-07 0.0000000e+00 
0.0000000e+00 1.9117918e-07 0.0000000e+00 
-3.3629080e-09 2.0169827e-07 2.2249498e-08 
2.3202384e-09 2.0104750e-07 2.2000162e-08 
0.0000000e+00 1.9096815e-07 0.0000000e+00 
0.0000000e+00 1.9150578e-07 0.0000000e+00 
-6.1968247e-10 -4.6917176e-08 -1.2726137e-08 
-1.0850237e-09 -3.9997875e-08 -2.6119693e-08 
4.9068363e-09 -4.2985015e-08 -2.6377132e-08 
4.0655759e-09 -4.9065296e-08 -1.2953086e-08 
1.7443780e-09 -4.7851934e-08 -1.2700253e-08 
0.0000000e+00 -5.5694013e-08 0.0000000e+00 
0.0000000e+00 -5.6653793e-08 0.0000000e+00 
1.1035974e-09 -4.2867335e-08 -2.2353557e-08 
-5.0099480e-09 -4.0150610e-08 -2.2488210e-08 
0.0000000e+00 -5.5405049e-08 0.0000000e+00 
0.0000000e+00 -5.6571619e-08 0.0000000e+00 
-9.2586860e-10 -8.4424151e-08 -1.1768741e-08 
-1.1670207e-09 -8.1337475e-08 -2.1989289e-08 
3.4903738e-09 -8.2593566e-08 -2.1909193e-08 
3.1173799e-09 -8.5297394e-08 -1.1770602e-08 
1.1226349e-09 -8.4889933e-08 -1.1676430e-08 
0.0000000e+00 -8.8108777e-08 0.0000000e+00 
0.0000000e+00 -8.8323290e-08 0.0000000e+00 
1.8278374e-09 -8.2595108e-08 -2.0213895e-08 
-2.9902902e-09 -8.1346514e-08 -2.0235156e-08 
0.0000000e+00 -8.7887805e-08 0.0000000e+00 
0.0000000e+00 -8.8544624e-08 0.0000000e+00 
3.0097472e-10 3.6522745e-09 5.7499978e-09 
2.0630235e-10 1.7140516e-09 1.2739475e-08 
-3.0445069e-09 3.5729355e-09 1.3025510e-08 
-2.0193773e-09 4.9253690e-09 5.9370704e-09 
-9.1067409e-10 4.2014197e-09 5.7733827e-09 
0.0000000e+00 6.7810455e-09 0.0000000e+00 
0.0000000e+00 7.2800623e-09 0.0000000e+00 
-1.6266491e-09 3.3605647e-09 1.0561489e-08 
1.4910481e-09 1.8147926e-09 1.0585856e-08 
0.0000000e+00 6.7743913e-09 0.0000000e+00 
0.0000000e+00 7.1634267e-09 0.0000000e+00 
3.4782337e-09 1.7446981e-08 1.7990258e-08 
4.1284092e-09 1.8859861e-08 3.8175951e-08 
-4.6756039e-09 2.0900407e-08 3.8063799e-08 
-3.4980914e-09 1.8781524e-08 1.8061918e-08 
-2.5137923e-11 1.8079266e-08 1.7858119e-08 
0.0000000e+00 1.7112274e-08 0.0000000e+00 
0.0000000e+00 1.7865700e-08 0.0000000e+00 
-5.7513039e-09 2.0814685e-08 3.4936477e-08 
3.5565721e-09 1.8833353e-08 3.4933965e-08 
0.0000000e+00 1.7194179e-08 0.0000000e+00 
0.0000000e+00 1.8100627e-08 0.0000000e+00 
1.8083741e-09 -1.5606240e-08 6.6976091e-09 
2.3479856e-09 -1.3080173e-08 1.3421417e-08 
-8.1513102e-10 -1.1695556e-08 1.3376491e-08 
-5.8607347e-10 -1.4551260e-08 6.6457511e-09 
6.0562044e-10 -1.5038937e-08 6.6004242e-09 
0.0000000e+00 -1.7707787e-08 0.0000000e+00 
0.0000000e+00 -1.7246800e-08 0.0000000e+00 
-2.3627398e-09 -1.1843632e-08 1.1554378e-08 
7.1770878e-10 -1.3124724e-08 1.1542013e-08 
0.0000000e+00 -1.7541314e-08 0.0000000e+00 
0.0000000e+00 -1.7147739e-08 0.0000000e+00 
1.1382212e-09 -8.3025711e-09 5.5127174e-09 
1.8945432e-09 -8.9128562e-09 1.1701808e-08 
-1.0940213e-09 -7.9818392e-09 1.1412085e-08 
-9.2472868e-10 -7.5549336e-09 5.5034381e-09 
9.0424682e-11 -7.8985298e-09 5.4537201e-09 
0.0000000e+00 -7.0929644e-09 0.0000000e+00 
0.0000000e+00 -6.7747044e-09 0.0000000e+00 
-8.3310220e-10 -8.0011766e-09 1.0202141e-08 
1.9233963e-09 -8.9171674e-09 1.0179663e-08 
0.0000000e+00 -7.1902968e-09 0.0000000e+00 
0.0000000e+00 -6.7814181e-09 0.0000000e+00 
-7.6526213e-10 2.4099739e-08 -2.4883773e-09 
-8.6735363e-10 2.3098419e-08 -5.1991602e-09 
4.0088566e-10 2.2563787e-08 -5.3382410e-09 
1.8423836e-10 2.3745901e-08 -2.4867641e-09 
-3.0296868e-10 2.3926498e-08 -2.4605369e-09 
0.0000000e+00 2.5544420e-08 0.0000000e+00 
0.0000000e+00 2.5373261e-08 0.0000000e+00 
1.0255623e-09 2.2624214e-08 -4.5544462e-09 
-2.2972708e-10 2.3083775e-08 -4.5808228e-09 
0.0000000e+00 2.5444674e-08 0.0000000e+00 
0.0000000e+00 2.5326994e-08 0.0000000e+00 
-1.9125761e-09 2.4254867e-08 -5.4267879e-09 
-2.2721327e-09 2.0321107e-08 -1.1381065e-08 
4.6992077e-10 1.9277950e-08 -1.1577646e-08 
1.8096490e-10 2.3480187e-08 -5.3896416e-09 
-8.6764956e-10 2.3878359e-08 -5.3468265e-09 
0.0000000e+00 2.7730140e-08 0.0000000e+00 
0.0000000e+00 2.7328252e-08 0.0000000e+00 
2.7837836e-09 1.9460609e-08 -1.0022583e-08 
2.7389624e-11 2.0414484e-08 -1.0044827e-08 
0.0000000e+00 2.7454828e-08 0.0000000e+00 
0.0000000e+00 2.7202379e-08 0.0000000e+00 
-6.9574418e-10 -1.4197355e-08 -2.1421724e-09 
-7.8021423e-10 -1.4767491e-08 -4.1127963e-09 
1.1442058e-10 -1.5351880e-08 -4.1107762e-09 
5.3891065e-11 -1.4605885e-08 -2.1601398e-09 
-3.0994940e-10 -1.4384526e-08 -2.1236750e-09 
0.0000000e+00 -1.4058948e-08 0.0000000e+00 
0.0000000e+00 -1.4239460e-08 0.0000000e+00 
5.0045057e-10 -1.5297260e-08 -3.4181360e-09 
-3.9645173e-10 -1.4792573e-08 -3.4241445e-09 
0.0000000e+00 -1.4103101e-08 0.0000000e+00 
0.0000000e+00 -1.4257552e-08 0.0000000e+00 
0.0000000e+00 -4.9031001e-05 0.0000000e+00 
0.0000000e+00 -1.1568967e-08 0.0000000e+00 
-1.0415994e-11 -3.4913121e-08 -7.7406202e-13 
1.7570181e-11 -3.5198472e-08 -5.1646747e-12 
0.0000000e+00 -3.5206511e-08 0.0000000e+00 