# vtk DataFile Version 4.0
vtk output
ASCII
DATASET UNSTRUCTURED_GRID
POINTS 1827 float
0.0000000e+00 0.0000000e+00 0.0000000e+00 
0.0000000e+00 0.0000000e+00 2.0000000e+01 
3.4700000e+00 0.0000000e+00 0.0000000e+00 
3.4700000e+00 0.0000000e+00 2.0000000e+01 
3.4700000e+00 1.0000000e+00 0.0000000e+00 
3.4700000e+00 1.0000000e+00 2.0000000e+01 
0.0000000e+00 1.0000000e+00 0.0000000e+00 
0.0000000e+00 1.0000000e+00 2.0000000e+01 
1.2500000e+00 2.5000000e+00 0.0000000e+00 
1.2500000e+00 2.5000000e+00 1.1700000e-01 
7.5000000e-01 2.5000000e+00 1.1700000e-01 
7.5000000e-01 2.5000000e+00 0.0000000e+00 
0.0000000e+00 2.5000000e+00 0.0000000e+00 
0.0000000e+00 2.5000000e+00 1.1700000e-01 
1.2500000e+00 2.8000000e+00 1.1700000e-01 
1.2500000e+00 2.8000000e+00 0.0000000e+00 
0.0000000e+00 2.8000000e+00 0.0000000e+00 
0.0000000e+00 2.8000000e+00 1.1700000e-01 
7.5000000e-01 2.5000000e+00 3.8299999e-01 
1.2500000e+00 2.5000000e+00 3.8299999e-01 
1.2500000e+00 2.5000000e+00 6.1699998e-01 
7.5000000e-01 2.5000000e+00 6.1699998e-01 
7.5000000e-01 2.5000000e+00 5.0000000e-01 
0.0000000e+00 2.5000000e+00 3.8299999e-01 
0.0000000e+00 2.5000000e+00 6.1699998e-01 
1.2500000e+00 2.8000000e+00 6.1699998e-01 
1.2500000e+00 2.8000000e+00 3.8299999e-01 
0.0000000e+00 2.8000000e+00 3.8299999e-01 
0.0000000e+00 2.8000000e+00 6.1699998e-01 
7.5000000e-01 2.5000000e+00 8.8300002e-01 
1.2500000e+00 2.5000000e+00 8.8300002e-01 
1.2500000e+00 2.5000000e+00 1.1170000e+00 
7.5000000e-01 2.5000000e+00 1.1170000e+00 
7.5000000e-01 2.5000000e+00 1.0000000e+00 
0.0000000e+00 2.5000000e+00 8.8300002e-01 
0.0000000e+00 2.5000000e+00 1.1170000e+00 
1.2500000e+00 2.8000000e+00 1.1170000e+00 
1.2500000e+00 2.8000000e+00 8.8300002e-01 
0.0000000e+00 2.8000000e+00 8.8300002e-01 
0.0000000e+00 2.8000000e+00 1.1170000e+00 
7.5000000e-01 2.5000000e+00 1.3830000e+00 
1.2500000e+00 2.5000000e+00 1.3830000e+00 
1.2500000e+00 2.5000000e+00 1.6170000e+00 
7.5000000e-01 2.5000000e+00 1.6170000e+00 
7.5000000e-01 2.5000000e+00 1.5000000e+00 
0.0000000e+00 2.5000000e+00 1.3830000e+00 
0.0000000e+00 2.5000000e+00 1.6170000e+00 
1.2500000e+00 2.8000000e+00 1.6170000e+00 
1.2500000e+00 2.8000000e+00 1.3830000e+00 
0.0000000e+00 2.8000000e+00 1.3830000e+00 
0.0000000e+00 2.8000000e+00 1.6170000e+00 
7.5000000e-01 2.5000000e+00 1.8830000e+00 
1.2500000e+00 2.5000000e+00 1.8830000e+00 
1.2500000e+00 2.5000000e+00 2.1170001e+00 
7.5000000e-01 2.5000000e+00 2.1170001e+00 
7.5000000e-01 2.5000000e+00 2.0000000e+00 
0.0000000e+00 2.5000000e+00 1.8830000e+00 
0.0000000e+00 2.5000000e+00 2.1170001e+00 
1.2500000e+00 2.8000000e+00 2.1170001e+00 
1.2500000e+00 2.8000000e+00 1.8830000e+00 
0.0000000e+00 2.8000000e+00 1.8830000e+00 
0.0000000e+00 2.8000000e+00 2.1170001e+00 
7.5000000e-01 2.5000000e+00 2.3829999e+00 
1.2500000e+00 2.5000000e+00 2.3829999e+00 
1.2500000e+00 2.5000000e+00 2.6170001e+00 
7.5000000e-01 2.5000000e+00 2.6170001e+00 
7.5000000e-01 2.5000000e+00 2.5000000e+00 
0.0000000e+00 2.5000000e+00 2.3829999e+00 
0.0000000e+00 2.5000000e+00 2.6170001e+00 
1.2500000e+00 2.8000000e+00 2.6170001e+00 
1.2500000e+00 2.8000000e+00 2.3829999e+00 
0.0000000e+00 2.8000000e+00 2.3829999e+00 
0.0000000e+00 2.8000000e+00 2.6170001e+00 
7.5000000e-01 2.5000000e+00 2.8829999e+00 
1.2500000e+00 2.5000000e+00 2.8829999e+00 
1.2500000e+00 2.5000000e+00 3.1170001e+00 
7.5000000e-01 2.5000000e+00 3.1170001e+00 
7.5000000e-01 2.5000000e+00 3.0000000e+00 
0.0000000e+00 2.5000000e+00 2.8829999e+00 
0.0000000e+00 2.5000000e+00 3.1170001e+00 
1.2500000e+00 2.8000000e+00 3.1170001e+00 
1.2500000e+00 2.8000000e+00 2.8829999e+00 
0.0000000e+00 2.8000000e+00 2.8829999e+00 
0.0000000e+00 2.8000000e+00 3.1170001e+00 
7.5000000e-01 2.5000000e+00 3.3829999e+00 
1.2500000e+00 2.5000000e+00 3.3829999e+00 
1.2500000e+00 2.5000000e+00 3.6170001e+00 
7.5000000e-01 2.5000000e+00 3.6170001e+00 
7.5000000e-01 2.5000000e+00 3.5000000e+00 
0.0000000e+00 2.5000000e+00 3.3829999e+00 
0.0000000e+00 2.5000000e+00 3.6170001e+00 
1.2500000e+00 2.8000000e+00 3.6170001e+00 
1.2500000e+00 2.8000000e+00 3.3829999e+00 
0.0000000e+00 2.8000000e+00 3.3829999e+00 
0.0000000e+00 2.8000000e+00 3.6170001e+00 
7.5000000e-01 2.5000000e+00 3.8829999e+00 
1.2500000e+00 2.5000000e+00 3.8829999e+00 
1.2500000e+00 2.5000000e+00 4.1170001e+00 
7.5000000e-01 2.5000000e+00 4.1170001e+00 
7.5000000e-01 2.5000000e+00 4.0000000e+00 
0.0000000e+00 2.5000000e+00 3.8829999e+00 
0.0000000e+00 2.5000000e+00 4.1170001e+00 
1.2500000e+00 2.8000000e+00 4.1170001e+00 
1.2500000e+00 2.8000000e+00 3.8829999e+00 
0.0000000e+00 2.8000000e+00 3.8829999e+00 
0.0000000e+00 2.8000000e+00 4.1170001e+00 
7.5000000e-01 2.5000000e+00 4.3829999e+00 
1.2500000e+00 2.5000000e+00 4.3829999e+00 
1.2500000e+00 2.5000000e+00 4.6170001e+00 
7.5000000e-01 2.5000000e+00 4.6170001e+00 
7.5000000e-01 2.5000000e+00 4.5000000e+00 
0.0000000e+00 2.5000000e+00 4.3829999e+00 
0.0000000e+00 2.5000000e+00 4.6170001e+00 
1.2500000e+00 2.8000000e+00 4.6170001e+00 
1.2500000e+00 2.8000000e+00 4.3829999e+00 
0.0000000e+00 2.8000000e+00 4.3829999e+00 
0.0000000e+00 2.8000000e+00 4.6170001e+00 
7.5000000e-01 2.5000000e+00 4.8829999e+00 
1.2500000e+00 2.5000000e+00 4.8829999e+00 
1.2500000e+00 2.5000000e+00 5.1170001e+00 
7.5000000e-01 2.5000000e+00 5.1170001e+00 
7.5000000e-01 2.5000000e+00 5.0000000e+00 
0.0000000e+00 2.5000000e+00 4.8829999e+00 
0.0000000e+00 2.5000000e+00 5.1170001e+00 
1.2500000e+00 2.8000000e+00 5.1170001e+00 
1.2500000e+00 2.8000000e+00 4.8829999e+00 
0.0000000e+00 2.8000000e+00 4.8829999e+00 
0.0000000e+00 2.8000000e+00 5.1170001e+00 
7.5000000e-01 2.5000000e+00 5.3829999e+00 
1.2500000e+00 2.5000000e+00 5.3829999e+00 
1.2500000e+00 2.5000000e+00 5.6170001e+00 
7.5000000e-01 2.5000000e+00 5.6170001e+00 
7.5000000e-01 2.5000000e+00 5.5000000e+00 
0.0000000e+00 2.5000000e+00 5.3829999e+00 
0.0000000e+00 2.5000000e+00 5.6170001e+00 
1.2500000e+00 2.8000000e+00 5.6170001e+00 
1.2500000e+00 2.8000000e+00 5.3829999e+00 
0.0000000e+00 2.8000000e+00 5.3829999e+00 
0.0000000e+00 2.8000000e+00 5.6170001e+00 
7.5000000e-01 2.5000000e+00 5.8829999e+00 
1.2500000e+00 2.5000000e+00 5.8829999e+00 
1.2500000e+00 2.5000000e+00 6.1170001e+00 
7.5000000e-01 2.5000000e+00 6.1170001e+00 
7.5000000e-01 2.5000000e+00 6.0000000e+00 
0.0000000e+00 2.5000000e+00 5.8829999e+00 
0.0000000e+00 2.5000000e+00 6.1170001e+00 
1.2500000e+00 2.8000000e+00 6.1170001e+00 
1.2500000e+00 2.8000000e+00 5.8829999e+00 
0.0000000e+00 2.8000000e+00 5.8829999e+00 
0.0000000e+00 2.8000000e+00 6.1170001e+00 
7.5000000e-01 2.5000000e+00 6.3829999e+00 
1.2500000e+00 2.5000000e+00 6.3829999e+00 
1.2500000e+00 2.5000000e+00 6.6170001e+00 
7.5000000e-01 2.5000000e+00 6.6170001e+00 
7.5000000e-01 2.5000000e+00 6.5000000e+00 
0.0000000e+00 2.5000000e+00 6.3829999e+00 
0.0000000e+00 2.5000000e+00 6.6170001e+00 
1.2500000e+00 2.8000000e+00 6.6170001e+00 
1.2500000e+00 2.8000000e+00 6.3829999e+00 
0.0000000e+00 2.8000000e+00 6.3829999e+00 
0.0000000e+00 2.8000000e+00 6.6170001e+00 
7.5000000e-01 2.5000000e+00 6.8829999e+00 
1.2500000e+00 2.5000000e+00 6.8829999e+00 
1.2500000e+00 2.5000000e+00 7.1170001e+00 
7.5000000e-01 2.5000000e+00 7.1170001e+00 
7.5000000e-01 2.5000000e+00 7.0000000e+00 
0.0000000e+00 2.5000000e+00 6.8829999e+00 
0.0000000e+00 2.5000000e+00 7.1170001e+00 
1.2500000e+00 2.8000000e+00 7.1170001e+00 
1.2500000e+00 2.8000000e+00 6.8829999e+00 
0.0000000e+00 2.8000000e+00 6.8829999e+00 
0.0000000e+00 2.8000000e+00 7.1170001e+00 
7.5000000e-01 2.5000000e+00 7.3829999e+00 
1.2500000e+00 2.5000000e+00 7.3829999e+00 
1.2500000e+00 2.5000000e+00 7.6170001e+00 
7.5000000e-01 2.5000000e+00 7.6170001e+00 
7.5000000e-01 2.5000000e+00 7.5000000e+00 
0.0000000e+00 2.5000000e+00 7.3829999e+00 
0.0000000e+00 2.5000000e+00 7.6170001e+00 
1.2500000e+00 2.8000000e+00 7.6170001e+00 
1.2500000e+00 2.8000000e+00 7.3829999e+00 
0.0000000e+00 2.8000000e+00 7.3829999e+00 
0.0000000e+00 2.8000000e+00 7.6170001e+00 
7.5000000e-01 2.5000000e+00 7.8829999e+00 
1.2500000e+00 2.5000000e+00 7.8829999e+00 
1.2500000e+00 2.5000000e+00 8.1169996e+00 
7.5000000e-01 2.5000000e+00 8.1169996e+00 
7.5000000e-01 2.5000000e+00 8.0000000e+00 
0.0000000e+00 2.5000000e+00 7.8829999e+00 
0.0000000e+00 2.5000000e+00 8.1169996e+00 
1.2500000e+00 2.8000000e+00 8.1169996e+00 
1.2500000e+00 2.8000000e+00 7.8829999e+00 
0.0000000e+00 2.8000000e+00 7.8829999e+00 
0.0000000e+00 2.8000000e+00 8.1169996e+00 
7.5000000e-01 2.5000000e+00 8.3830004e+00 
1.2500000e+00 2.5000000e+00 8.3830004e+00 
1.2500000e+00 2.5000000e+00 8.6169996e+00 
7.5000000e-01 2.5000000e+00 8.6169996e+00 
7.5000000e-01 2.5000000e+00 8.5000000e+00 
0.0000000e+00 2.5000000e+00 8.3830004e+00 
0.0000000e+00 2.5000000e+00 8.6169996e+00 
1.2500000e+00 2.8000000e+00 8.6169996e+00 
1.2500000e+00 2.8000000e+00 8.3830004e+00 
0.0000000e+00 2.8000000e+00 8.3830004e+00 
0.0000000e+00 2.8000000e+00 8.6169996e+00 
7.5000000e-01 2.5000000e+00 8.8830004e+00 
1.2500000e+00 2.5000000e+00 8.8830004e+00 
1.2500000e+00 2.5000000e+00 9.1169996e+00 
7.5000000e-01 2.5000000e+00 9.1169996e+00 
7.5000000e-01 2.5000000e+00 9.0000000e+00 
0.0000000e+00 2.5000000e+00 8.8830004e+00 
0.0000000e+00 2.5000000e+00 9.1169996e+00 
1.2500000e+00 2.8000000e+00 9.1169996e+00 
1.2500000e+00 2.8000000e+00 8.8830004e+00 
0.0000000e+00 2.8000000e+00 8.8830004e+00 
0.0000000e+00 2.8000000e+00 9.1169996e+00 
7.5000000e-01 2.5000000e+00 9.3830004e+00 
1.2500000e+00 2.5000000e+00 9.3830004e+00 
1.2500000e+00 2.5000000e+00 9.6169996e+00 
7.5000000e-01 2.5000000e+00 9.6169996e+00 
7.5000000e-01 2.5000000e+00 9.5000000e+00 
0.0000000e+00 2.5000000e+00 9.3830004e+00 
0.0000000e+00 2.5000000e+00 9.6169996e+00 
1.2500000e+00 2.8000000e+00 9.6169996e+00 
1.2500000e+00 2.8000000e+00 9.3830004e+00 
0.0000000e+00 2.8000000e+00 9.3830004e+00 
0.0000000e+00 2.8000000e+00 9.6169996e+00 
7.5000000e-01 2.5000000e+00 9.8830004e+00 
1.2500000e+00 2.5000000e+00 9.8830004e+00 
1.2500000e+00 2.5000000e+00 1.0117000e+01 
[...]
POINT_DATA 1827
FIELD FieldData 2
DISPLACEMENT 3 1827  float
0.0000000e+00 0.0000000e+00 0.0000000e+00 
0.0000000e+00 0.0000000e+00 0.0000000e+00 
0.0000000e+00 0.0000000e+00 0.0000000e+00 
0.0000000e+00 0.0000000e+00 0.0000000e+00 
0.0000000e+00 1.0638440e-05 0.0000000e+00 
0.0000000e+00 -1.2962768e-12 0.0000000e+00 
0.0000000e+00 3.2941087e-05 0.0000000e+00 
0.0000000e+00 1.7140406e-10 0.0000000e+00 
0.0000000e+00 -5.4696826e-05 0.0000000e+00 
9.0814908e-08 -5.4619930e-05 3.1374832e-08 
5.4914775e-09 -5.5366669e-05 1.5134848e-08 
0.0000000e+00 -5.5423221e-05 0.0000000e+00 
0.0000000e+00 -5.5293971e-05 0.0000000e+00 
0.0000000e+00 -5.5281609e-05 0.0000000e+00 
-7.4719459e-08 -5.4767093e-05 -1.6310132e-08 
0.0000000e+00 -5.4767101e-05 0.0000000e+00 
0.0000000e+00 -5.5283479e-05 0.0000000e+00 
0.0000000e+00 -5.5270990e-05 0.0000000e+00 
-1.4774210e-07 2.0404796e-05 -4.9031538e-08 
-1.7959979e-07 1.9909277e-05 -4.3943842e-07 
2.1135016e-08 2.0379870e-05 -4.5046662e-07 
-2.3336543e-08 2.0707304e-05 -6.1014475e-08 
-8.2498673e-08 2.0567162e-05 -5.9390416e-08 
0.0000000e+00 2.0773223e-05 0.0000000e+00 
0.0000000e+00 2.0921230e-05 0.0000000e+00 
2.4215313e-07 2.0354699e-05 -9.0132278e-07 
4.3498993e-08 1.9986104e-05 -8.9697124e-07 
0.0000000e+00 2.0799889e-05 0.0000000e+00 
0.0000000e+00 2.0901849e-05 0.0000000e+00 
6.2207821e-09 4.3506025e-05 3.0507826e-07 
3.8354962e-08 4.3402048e-05 6.0244508e-07 
-1.2533526e-07 4.3424305e-05 6.0763449e-07 
-1.0548225e-07 4.3544060e-05 3.0438085e-07 
-5.0676892e-08 4.3529413e-05 3.0207303e-07 
0.0000000e+00 4.3671316e-05 0.0000000e+00 
0.0000000e+00 4.3680266e-05 0.0000000e+00 
-4.7580759e-08 4.3433225e-05 5.5319930e-07 
9.1653931e-08 4.3397278e-05 5.5534127e-07 
0.0000000e+00 4.3666561e-05 0.0000000e+00 
0.0000000e+00 4.3684915e-05 0.0000000e+00 
4.3142020e-08 3.3862125e-05 4.1873793e-07 
4.7419711e-08 3.3796790e-05 8.4626004e-07 
-1.6127787e-07 3.3712113e-05 8.4684058e-07 
-1.2179994e-07 3.3805412e-05 4.1104053e-07 
-3.5450018e-08 3.3837543e-05 4.1177645e-07 
0.0000000e+00 3.3792443e-05 0.0000000e+00 
0.0000000e+00 3.3772314e-05 0.0000000e+00 
-1.1583018e-07 3.3740809e-05 9.1482667e-07 
9.4811561e-08 3.3800505e-05 9.1479501e-07 
0.0000000e+00 3.3790344e-05 0.0000000e+00 
0.0000000e+00 3.3782613e-05 0.0000000e+00 
1.1707359e-07 1.5223633e-05 1.6214855e-07 
1.3742979e-07 1.5494890e-05 3.4848534e-07 
4.7646097e-08 1.5367301e-05 3.3536568e-07 
3.9235061e-08 1.5132923e-05 1.5419029e-07 
7.9667387e-08 1.5186869e-05 1.5778556e-07 
0.0000000e+00 1.4887873e-05 0.0000000e+00 
0.0000000e+00 1.4851651e-05 0.0000000e+00 
-1.0961886e-07 1.5384077e-05 4.7660436e-07 
-1.5976669e-08 1.5486881e-05 4.7188013e-07 
0.0000000e+00 1.4892127e-05 0.0000000e+00 
0.0000000e+00 1.4879480e-05 0.0000000e+00 
-4.9157087e-08 2.0842765e-06 -6.2648320e-07 
-3.6932978e-08 2.0573571e-06 -1.2458178e-06 
2.5206157e-07 1.8587622e-06 -1.2526389e-06 
1.6782943e-07 1.9297104e-06 -6.2127469e-07 
5.9432097e-08 2.0027019e-06 -6.1629362e-07 
0.0000000e+00 2.0753341e-06 0.0000000e+00 
0.0000000e+00 2.0130424e-06 0.0000000e+00 
2.4236044e-07 1.8678646e-06 -9.9894498e-07 
-3.9532463e-08 2.0485734e-06 -9.9639465e-07 
0.0000000e+00 2.0528046e-06 0.0000000e+00 
0.0000000e+00 1.9989889e-06 0.0000000e+00 
7.0068104e-08 -6.7671544e-06 3.6313696e-07 
9.8201305e-08 -6.8029904e-06 8.9963743e-07 
-1.4971735e-07 -6.7957703e-06 9.0749450e-07 
-1.0686510e-07 -6.7773067e-06 3.7708375e-07 
-1.9402584e-08 -6.7774267e-06 3.6684958e-07 
0.0000000e+00 -6.6932416e-06 0.0000000e+00 
0.0000000e+00 -6.6968996e-06 0.0000000e+00 
-1.2701025e-07 -6.8066774e-06 8.7496045e-07 
1.1552779e-07 -6.8078580e-06 8.7757007e-07 
0.0000000e+00 -6.7043111e-06 0.0000000e+00 
0.0000000e+00 -6.6970069e-06 0.0000000e+00 
2.4000130e-07 -1.0995169e-05 7.5379353e-07 
2.6759116e-07 -1.0481861e-05 1.5190756e-06 
-7.9026677e-08 -1.0449395e-05 1.5101136e-06 
-4.3823405e-08 -1.0951273e-05 7.5048803e-07 
9.9368016e-08 -1.0974957e-05 7.4724943e-07 
0.0000000e+00 -1.1500768e-05 0.0000000e+00 
0.0000000e+00 -1.1480670e-05 0.0000000e+00 
-3.6994174e-07 -1.0451790e-05 1.4368705e-06 
-1.2202812e-08 -1.0505353e-05 1.4296060e-06 
0.0000000e+00 -1.1494962e-05 0.0000000e+00 
0.0000000e+00 -1.1450777e-05 0.0000000e+00 
-2.7057143e-09 -5.6843614e-06 -1.4593046e-07 
2.8786322e-09 -5.5999058e-06 -3.1714922e-07 
9.3225829e-08 -5.5617916e-06 -3.3005074e-07 
6.1250674e-08 -5.6654035e-06 -1.4874702e-07 
2.9592613e-08 -5.6744216e-06 -1.4665636e-07 
0.0000000e+00 -5.7910402e-06 0.0000000e+00 
0.0000000e+00 -5.7797133e-06 0.0000000e+00 
2.3958235e-08 -5.5702399e-06 -3.4903420e-07 
-5.9318555e-08 -5.5942883e-06 -3.5116130e-07 
0.0000000e+00 -5.7794059e-06 0.0000000e+00 
0.0000000e+00 -5.7790071e-06 0.0000000e+00 
-7.5380548e-08 1.3176289e-06 -5.3065412e-07 
-8.8685418e-08 1.4018277e-06 -1.0551495e-06 
1.6272804e-07 1.3333976e-06 -1.0557904e-06 
1.1718011e-07 1.2595486e-06 -5.3026929e-07 
2.0588113e-08 1.2857791e-06 -5.2522955e-07 
0.0000000e+00 1.2492187e-06 0.0000000e+00 
0.0000000e+00 1.2304621e-06 0.0000000e+00 
1.0634167e-07 1.3297287e-06 -9.5120265e-07 
-1.3626682e-07 1.4002220e-06 -9.5176466e-07 
0.0000000e+00 1.2552317e-06 0.0000000e+00 
0.0000000e+00 1.2280723e-06 0.0000000e+00 
-9.5160303e-08 3.2370799e-06 -4.1340471e-07 
-9.3519425e-08 3.1287036e-06 -7.2815038e-07 
5.2494379e-08 3.0052227e-06 -7.1606758e-07 
3.1764753e-08 3.1483828e-06 -4.0688860e-07 
-3.2233025e-08 3.1906354e-06 -4.0492125e-07 
0.0000000e+00 3.3477588e-06 0.0000000e+00 
0.0000000e+00 3.3061908e-06 0.0000000e+00 
1.1886067e-07 3.0124522e-06 -5.8053121e-07 
-2.5734870e-08 3.1209502e-06 -5.7685781e-07 
0.0000000e+00 3.3353065e-06 0.0000000e+00 
0.0000000e+00 3.3050915e-06 0.0000000e+00 
2.1253792e-09 -3.5833003e-07 7.1784939e-08 
-3.4711334e-09 -4.1695534e-07 2.0034091e-07 
-6.4352513e-08 -4.0670136e-07 2.0326678e-07 
-3.5372434e-08 -3.5399898e-07 7.0560034e-08 
-1.4970398e-08 -3.5454690e-07 7.0292899e-08 
0.0000000e+00 -3.7662022e-07 0.0000000e+00 
0.0000000e+00 -3.7347144e-07 0.0000000e+00 
-2.6289985e-08 -4.0158676e-07 1.8269968e-07 
3.1347028e-08 -4.0986572e-07 1.8275331e-07 
0.0000000e+00 -3.7702276e-07 0.0000000e+00 
0.0000000e+00 -3.7397905e-07 0.0000000e+00 
1.0524694e-08 -1.8865238e-06 9.1918743e-08 
8.6240641e-09 -1.8795726e-06 1.7616544e-07 
-2.8898809e-08 -1.8382520e-06 1.6931247e-07 
-1.7784416e-08 -1.8634765e-06 9.0197823e-08 
-3.2654839e-09 -1.8733614e-06 8.9909520e-08 
0.0000000e+00 -1.9190124e-06 0.0000000e+00 
0.0000000e+00 -1.9095708e-06 0.0000000e+00 
-3.4624556e-08 -1.8416939e-06 1.2876814e-07 
1.4584765e-09 -1.8740338e-06 1.2709769e-07 
0.0000000e+00 -1.9165727e-06 0.0000000e+00 
0.0000000e+00 -1.9073138e-06 0.0000000e+00 
1.8743354e-08 -3.3901588e-07 -1.3622311e-07 
2.1211049e-08 -1.5497245e-07 -2.7872244e-07 
9.1155485e-08 -1.5276655e-07 -2.7848844e-07 
7.1416856e-08 -3.4258440e-07 -1.3534861e-07 
4.4080728e-08 -3.4268530e-07 -1.3465234e-07 
0.0000000e+00 -4.7197281e-07 0.0000000e+00 
0.0000000e+00 -4.7478287e-07 0.0000000e+00 
-1.9550333e-08 -1.6320342e-07 -2.7133711e-07 
-8.6590177e-08 -1.5982688e-07 -2.7203106e-07 
0.0000000e+00 -4.6312439e-07 0.0000000e+00 
0.0000000e+00 -4.6997565e-07 0.0000000e+00 
6.6472179e-09 8.4120086e-07 -9.1130374e-08 
1.2032575e-08 9.5628150e-07 -1.7338688e-07 
4.8488076e-08 9.2829691e-07 -1.7299853e-07 
3.7655440e-08 8.2414766e-07 -8.9996121e-08 
2.1462293e-08 8.3127827e-07 -8.9748625e-08 
0.0000000e+00 7.5480153e-07 0.0000000e+00 
0.0000000e+00 7.4849106e-07 0.0000000e+00 
-1.6207490e-08 9.2729465e-07 -1.4222340e-07 
-5.3495501e-08 9.4956289e-07 -1.4232781e-07 
0.0000000e+00 7.6051680e-07 0.0000000e+00 
0.0000000e+00 7.5289148e-07 0.0000000e+00 
-1.7650871e-08 4.2310467e-07 -4.2196483e-08 
-2.0249592e-08 3.7653732e-07 -9.5282701e-08 
2.3185938e-09 3.6312699e-07 -9.3441052e-08 
-3.2507202e-10 4.1539599e-07 -4.2793495e-08 
-8.6780974e-09 4.1970995e-07 -4.1957314e-08 
0.0000000e+00 4.5342048e-07 0.0000000e+00 
0.0000000e+00 4.5103326e-07 0.0000000e+00 
2.9771892e-08 3.6646759e-07 -7.9115296e-08 
6.9310588e-09 3.7668354e-07 -7.8579689e-08 
0.0000000e+00 4.5100577e-07 0.0000000e+00 
0.0000000e+00 4.4898775e-07 0.0000000e+00 
-1.9600995e-08 -3.2784268e-07 8.7068058e-10 
-2.0612040e-08 -4.3332761e-07 1.9229464e-08 
-3.1875601e-08 -4.3808609e-07 2.0385926e-08 
-2.4260778e-08 -3.3195357e-07 2.5343100e-10 
-2.1198186e-08 -3.2916691e-07 5.7400878e-10 
0.0000000e+00 -2.4379105e-07 0.0000000e+00 
0.0000000e+00 -2.4756633e-07 0.0000000e+00 
3.1199367e-08 -4.3522977e-07 2.4142766e-08 
3.9128036e-08 -4.3035817e-07 2.4627425e-08 
0.0000000e+00 -2.5130532e-07 0.0000000e+00 
0.0000000e+00 -2.5149410e-07 0.0000000e+00 
-2.8051499e-11 -4.4925838e-07 9.0639451e-09 
-4.4584503e-10 -4.5917236e-07 2.2277622e-08 
-6.6947576e-09 -4.5331217e-07 2.2784823e-08 
-3.9642098e-09 -4.4645262e-07 8.6928464e-09 
-2.0003530e-09 -4.4758318e-07 8.7362144e-09 
0.0000000e+00 -4.4113534e-07 0.0000000e+00 
0.0000000e+00 -4.4018944e-07 0.0000000e+00 
-5.8385596e-10 -4.5424400e-07 1.6394598e-08 
5.0514828e-09 -4.5827014e-07 1.6324412e-08 
0.0000000e+00 -4.4197617e-07 0.0000000e+00 
0.0000000e+00 -4.4119201e-07 0.0000000e+00 
1.9765740e-09 -3.7315619e-08 2.3941460e-08 
1.2878606e-09 -5.0642914e-08 4.7621644e-08 
-8.3894189e-09 -4.1345800e-08 4.7484040e-08 
-6.4436954e-09 -3.1060413e-08 2.4129218e-08 
-2.3632625e-09 -3.4189803e-08 2.3724057e-08 
0.0000000e+00 -1.9629852e-08 0.0000000e+00 
0.0000000e+00 -1.6978351e-08 0.0000000e+00 
-1.2417544e-09 -4.1840263e-08 3.6746151e-08 
9.3345873e-09 -4.9774602e-08 3.6802174e-08 
0.0000000e+00 -2.0284146e-08 0.0000000e+00 
0.0000000e+00 -1.7360151e-08 0.0000000e+00 
2.9777475e-10 2.4782858e-07 8.8570982e-09 
1.3843880e-09 2.4197547e-07 1.8947263e-08 
-3.5402581e-09 2.4275013e-07 1.8788805e-08 
-3.2905385e-09 2.4841225e-07 9.1430694e-09 
-1.6160551e-09 2.4783466e-07 8.8981356e-09 
0.0000000e+00 2.5918987e-07 0.0000000e+00 
0.0000000e+00 2.5931905e-07 0.0000000e+00 
-5.6549276e-11 2.4261882e-07 1.7542861e-08 
4.4737218e-09 2.4182512e-07 1.7618225e-08 
0.0000000e+00 2.5867712e-07 0.0000000e+00 
0.0000000e+00 2.5927289e-07 0.0000000e+00 
7.8470119e-10 3.0247065e-08 -6.8176087e-10 
1.1910369e-09 3.3707408e-08 -1.6167042e-09 
1.6382196e-09 3.2259258e-08 -1.6049858e-09 
9.8942310e-10 2.9226767e-08 -8.2043550e-10 
8.9150021e-10 2.9794323e-08 -7.3782097e-10 
0.0000000e+00 2.5681592e-08 0.0000000e+00 
0.0000000e+00 2.4959853e-08 0.0000000e+00 
-6.3363537e-10 3.2437594e-08 2.6550252e-11 
-9.4968433e-10 3.3630393e-08 2.9449884e-11 
0.0000000e+00 2.5695009e-08 0.0000000e+00 
0.0000000e+00 2.5437769e-08 0.0000000e+00 
4.4500346e-09 -1.7946896e-07 3.0842016e-09 
5.1781668e-09 -1.6592199e-07 4.8405289e-09 
4.3297756e-09 -1.6481708e-07 4.9041007e-09 
3.7654573e-09 -1.7878637e-07 2.9579121e-09 
4.0772656e-09 -1.7911563e-07 2.9850342e-09 
0.0000000e+00 -1.9370657e-07 0.0000000e+00 
0.0000000e+00 -1.9343331e-07 0.0000000e+00 
-4.0222128e-09 -1.6519294e-07 3.5477778e-09 
-3.0919467e-09 -1.6617484e-07 3.5391206e-09 
0.0000000e+00 -1.9300570e-07 0.0000000e+00 
0.0000000e+00 -1.9289324e-07 0.0000000e+00 
6.5984849e-09 -1.3091548e-07 1.5959448e-09 
8.8438226e-09 -1.0876762e-07 5.0089759e-09 
6.8306671e-09 -1.0720657e-07 4.7703392e-09 
5.9297145e-09 -1.2977465e-07 1.3827502e-09 
6.1773737e-09 -1.3036330e-07 1.4400762e-09 
0.0000000e+00 -1.5109836e-07 0.0000000e+00 
0.0000000e+00 -1.5061987e-07 0.0000000e+00 
-6.4566890e-09 -1.0791582e-07 2.7509348e-09 
-4.9930824e-09 -1.0931387e-07 2.6696150e-09 
0.0000000e+00 -1.5003224e-07 0.0000000e+00 
0.0000000e+00 -1.4991438e-07 0.0000000e+00 
-1.6202383e-09 1.1265292e-07 -6.8835178e-09 
-1.5316752e-09 1.1321180e-07 -1.2818212e-08 
1.2842432e-09 1.1333964e-07 -1.2750614e-08 
8.2506990e-10 1.1278011e-07 -6.7482429e-09 
-4.2630829e-10 1.1259905e-07 -6.7590067e-09 
0.0000000e+00 1.1423675e-07 0.0000000e+00 
0.0000000e+00 1.1466302e-07 0.0000000e+00 
1.0234777e-09 1.1312653e-07 -1.2771542e-08 
-1.8326415e-09 1.1307007e-07 -1.2764195e-08 
0.0000000e+00 1.1447690e-07 0.0000000e+00 
0.0000000e+00 1.1448461e-07 0.0000000e+00 
-3.9088688e-09 1.7828411e-07 4.9212465e-09 
-4.4164379e-09 1.6189635e-07 1.0324206e-08 
-6.3833445e-09 1.6084326e-07 1.0255761e-08 
-5.9345324e-09 1.7738371e-07 5.1585141e-09 
-4.8909188e-09 1.7772727e-07 5.0098397e-09 
0.0000000e+00 1.9632141e-07 0.0000000e+00 
0.0000000e+00 1.9522398e-07 0.0000000e+00 
3.1223926e-09 1.6127267e-07 1.1301371e-08 
5.6357101e-09 1.6212526e-07 1.1388400e-08 
0.0000000e+00 1.9502127e-07 0.0000000e+00 
0.0000000e+00 1.9513394e-07 0.0000000e+00 
-4.6355383e-10 -2.9917221e-08 -3.8028269e-09 
-1.1486385e-09 -2.6560034e-08 -8.7220142e-09 
1.1192482e-09 -2.9054501e-08 -8.8049719e-09 
1.0310593e-09 -3.1704545e-08 -3.9111718e-09 
3.1546440e-10 -3.0684625e-08 -3.7957961e-09 
0.0000000e+00 -3.5132409e-08 0.0000000e+00 
0.0000000e+00 -3.5973748e-08 0.0000000e+00 
-5.6997301e-10 -2.8745628e-08 -5.7945235e-09 
-2.6514102e-09 -2.6641994e-08 -5.8629404e-09 
0.0000000e+00 -3.5017479e-08 0.0000000e+00 
0.0000000e+00 -3.5713779e-08 0.0000000e+00 
1.4927236e-09 -1.3374947e-07 5.8448085e-10 
1.1952930e-09 -1.2869071e-07 7.5821588e-10 
1.1133582e-09 -1.2736054e-07 7.5982826e-10 
1.4811703e-09 -1.3271907e-07 4.1169015e-10 
1.5264572e-09 -1.3313105e-07 4.8168391e-10 
0.0000000e+00 -1.4156845e-07 0.0000000e+00 
0.0000000e+00 -1.4090786e-07 0.0000000e+00 
-1.8447973e-09 -1.2740504e-07 -7.2740802e-10 
-1.7784850e-09 -1.2854359e-07 -7.9261508e-10 
0.0000000e+00 -1.4102908e-07 0.0000000e+00 
0.0000000e+00 -1.4088586e-07 0.0000000e+00 
-6.2015132e-10 -2.8008451e-09 9.4215613e-10 
-5.8162636e-10 -5.7296989e-09 1.3948257e-09 
-6.6061689e-10 -5.0560089e-09 1.2766909e-09 
-8.0762791e-10 -2.3833737e-09 1.0177387e-09 
-7.2846862e-10 -2.6379510e-09 9.7038888e-10 
0.0000000e+00 1.1637147e-09 0.0000000e+00 
0.0000000e+00 1.2457280e-09 0.0000000e+00 
9.0352387e-10 -5.1568136e-09 6.7103639e-10 
1.0516741e-09 -5.6979466e-09 6.7550177e-10 
0.0000000e+00 9.4685537e-10 0.0000000e+00 
0.0000000e+00 1.1485600e-09 0.0000000e+00 
-2.0545364e-10 8.4605254e-08 -4.9932919e-10 
-4.8350039e-11 8.4459977e-08 -7.4830864e-10 
9.9623941e-11 8.4282625e-08 -6.8431583e-10 
-1.0611732e-10 8.4400902e-08 -3.9747594e-10 
-1.8950212e-10 8.4429452e-08 -4.3898638e-10 
0.0000000e+00 8.6225661e-08 0.0000000e+00 
0.0000000e+00 8.6072070e-08 0.0000000e+00 
1.5161174e-10 8.4216381e-08 -4.5724877e-10 
1.6433164e-11 8.4423306e-08 -4.2144693e-10 
0.0000000e+00 8.6207393e-08 0.0000000e+00 
0.0000000e+00 8.6186169e-08 0.0000000e+00 
9.1792612e-10 2.9289689e-08 2.9788894e-09 
1.0200071e-09 3.0180640e-08 5.9926486e-09 
-4.2503312e-10 2.9983187e-08 5.9555241e-09 
-2.3490079e-10 2.9214748e-08 2.9518592e-09 
3.4867628e-10 2.9270511e-08 2.9402325e-09 
0.0000000e+00 2.7992252e-08 0.0000000e+00 
0.0000000e+00 2.8020102e-08 0.0000000e+00 
-9.3451846e-10 3.0119367e-08 6.0186491e-09 
5.0374110e-10 3.0200734e-08 6.0235164e-09 
0.0000000e+00 2.8077634e-08 0.0000000e+00 
0.0000000e+00 2.8106282e-08 0.0000000e+00 
-6.9504602e-10 -4.0266983e-08 -1.1667703e-09 
-9.7442210e-10 -4.2538122e-08 -2.0004163e-09 
-6.1802763e-10 -4.2660048e-08 -2.0498521e-09 
-3.2518679e-10 -4.0385398e-08 -1.2414577e-09 
-4.6930931e-10 -4.0234244e-08 -1.1906720e-09 
0.0000000e+00 -3.9969816e-08 0.0000000e+00 
0.0000000e+00 -3.9992241e-08 0.0000000e+00 
7.4653672e-10 -4.2494094e-08 -1.8496925e-09 
3.4138198e-10 -4.2351463e-08 -1.8619587e-09 
0.0000000e+00 -4.0020993e-08 0.0000000e+00 
0.0000000e+00 -4.0079346e-08 0.0000000e+00 
-2.8936792e-10 -1.9367061e-08 -8.8935298e-10 
-3.7885309e-10 -1.9962922e-08 -1.8737145e-09 
1.2473378e-10 -1.9610917e-08 -1.8675343e-09 
8.0905206e-11 -1.9190924e-08 -8.8355889e-10 
-1.0578610e-10 -1.9286599e-08 -8.8129293e-10 
0.0000000e+00 -1.8799314e-08 0.0000000e+00 
0.0000000e+00 -1.8751598e-08 0.0000000e+00 
4.2233361e-10 -1.9682032e-08 -2.1448265e-09 
-6.8693232e-11 -1.9907011e-08 -2.1427284e-09 
0.0000000e+00 -1.8827226e-08 0.0000000e+00 
0.0000000e+00 -1.8787620e-08 0.0000000e+00 
1.7320189e-11 2.2170031e-08 6.0373345e-10 
1.0520205e-10 2.1865135e-08 1.1238104e-09 
-1.2065904e-10 2.1715744e-08 1.1198985e-09 
-2.1723218e-10 2.2100480e-08 6.4542971e-10 
-1.1626348e-10 2.2097744e-08 6.2079253e-10 
0.0000000e+00 2.3149800e-08 0.0000000e+00 
0.0000000e+00 2.3100137e-08 0.0000000e+00 
4.2004393e-11 2.1719789e-08 1.2486118e-09 
2.9447836e-10 2.1812637e-08 1.2608078e-09 
0.0000000e+00 2.3116515e-08 0.0000000e+00 
0.0000000e+00 2.3129623e-08 0.0000000e+00 
4.7720504e-12 1.4499070e-08 6.2060440e-10 
4.0225493e-11 1.3930091e-08 1.2529090e-09 
-2.6752925e-10 1.3879513e-08 1.2388194e-09 
-2.3637922e-10 1.4469887e-08 6.1840943e-10 
-1.1396569e-10 1.4491538e-08 6.1412353e-10 
0.0000000e+00 1.4918824e-08 0.0000000e+00 
0.0000000e+00 1.4908217e-08 0.0000000e+00 
5.6377059e-11 1.3924208e-08 1.2719260e-09 
3.5414027e-10 1.3954404e-08 1.2718254e-09 
0.0000000e+00 1.4903677e-08 0.0000000e+00 
0.0000000e+00 1.4899058e-08 0.0000000e+00 
-2.9523767e-10 -8.6507876e-09 -3.0263758e-10 
-4.1129625e-10 -9.6862856e-09 -5.2499555e-10 
-3.1545763e-10 -9.6745785e-09 -5.3952293e-10 
-1.9548722e-10 -8.6662642e-09 -3.2917261e-10 
-2.2962682e-10 -8.6325134e-09 -3.1307387e-10 
0.0000000e+00 -8.3384597e-09 0.0000000e+00 
0.0000000e+00 -8.3537293e-09 0.0000000e+00 
2.9910346e-10 -9.6182813e-09 -5.1871785e-10 
1.8813304e-10 -9.6046380e-09 -5.2446347e-10 
0.0000000e+00 -8.3800415e-09 0.0000000e+00 
0.0000000e+00 -8.3884180e-09 0.0000000e+00 
-2.1209244e-11 -6.5551902e-09 -1.7196398e-10 
-3.1113907e-11 -6.4814709e-09 -3.5150113e-10 
5.8594803e-11 -6.4172458e-09 -3.4417738e-10 
5.0015339e-11 -6.5172245e-09 -1.7014606e-10 
1.3665291e-11 -6.5397541e-09 -1.7001936e-10 
0.0000000e+00 -6.6005574e-09 0.0000000e+00 
0.0000000e+00 -6.5838375e-09 0.0000000e+00 
1.1711841e-11 -6.4367294e-09 -4.0520892e-10 
-7.5852692e-11 -6.4825665e-09 -4.0551193e-10 
0.0000000e+00 -6.5934600e-09 0.0000000e+00 
0.0000000e+00 -6.5885377e-09 0.0000000e+00 
7.8338745e-11 3.4350109e-09 6.6044066e-11 
1.2706940e-10 3.7775814e-09 1.0824517e-10 
1.0293298e-10 3.7440779e-09 1.1084583e-10 
5.6377493e-11 3.4385612e-09 7.8402049e-11 
6.0643233e-11 3.4264525e-09 7.1615519e-11 
0.0000000e+00 3.4170455e-09 0.0000000e+00 
0.0000000e+00 3.4094849e-09 0.0000000e+00 
-8.9099339e-11 3.7313685e-09 1.2506958e-10 
-6.6211620e-11 3.7395558e-09 1.2706518e-10 
0.0000000e+00 3.4255085e-09 0.0000000e+00 
0.0000000e+00 3.4281475e-09 0.0000000e+00 
-8.2365890e-13 2.4172861e-09 1.6672532e-12 
-4.6220974e-12 2.4210856e-09 3.7934647e-12 
-7.5570670e-12 2.3927595e-09 3.9097796e-12 
-3.8946723e-12 2.3997269e-09 6.4748781e-13 
-1.9865385e-12 2.4099125e-09 1.3809086e-12 
0.0000000e+00 2.3989821e-09 0.0000000e+00 
0.0000000e+00 2.3906628e-09 0.0000000e+00 
-5.5302082e-12 2.3989135e-09 3.1972276e-11 
-2.3210336e-12 2.4202607e-09 3.1872834e-11 
0.0000000e+00 2.3982902e-09 0.0000000e+00 
0.0000000e+00 2.3930298e-09 0.0000000e+00 
8.0463587e-12 -1.5103477e-09 2.3252376e-11 
-1.2587643e-12 -1.5115406e-09 5.5659134e-11 
-1.9605330e-11 -1.5141851e-09 5.5354207e-11 
-1.9241893e-12 -1.5069637e-09 1.7288879e-11 
5.0694878e-12 -1.5029561e-09 2.0092593e-11 
0.0000000e+00 -1.5907349e-09 0.0000000e+00 
0.0000000e+00 -1.5900753e-09 0.0000000e+00 
-1.2977079e-11 -1.5074205e-09 5.2524967e-11 
3.2246452e-12 -1.5084365e-09 5.1039381e-11 
0.0000000e+00 -1.5915005e-09 0.0000000e+00 
0.0000000e+00 -1.5928626e-09 0.0000000e+00 
9.0489326e-12 -5.8299776e-10 4.1583608e-11 
1.0643086e-11 -5.7112104e-10 7.1351508e-11 
-2.8288511e-12 -5.4871663e-10 7.1940905e-11 
-2.4919509e-12 -5.6701333e-10 4.2305711e-11 
3.1429414e-12 -5.7564548e-10 4.1331414e-11 
0.0000000e+00 -5.8368010e-10 0.0000000e+00 
0.0000000e+00 -5.7625144e-10 0.0000000e+00 
-1.1101914e-11 -5.5187471e-10 4.6992601e-11 
2.0869107e-12 -5.7081567e-10 4.7069165e-11 
0.0000000e+00 -5.8186911e-10 0.0000000e+00 
0.0000000e+00 -5.7665411e-10 0.0000000e+00 
0.0000000e+00 -2.5968839e-06 0.0000000e+00 
0.0000000e+00 -1.0811275e-11 0.0000000e+00 
-6.7607476e-13 9.8430153e-10 -1.8905333e-12 
1.7209783e-12 1.0063348e-09 -2.7286422e-13 
0.0000000e+00 1.0048993e-09 0.0000000e+00 