# vtk DataFile Version 4.0
vtk output
ASCII
DATASET UNSTRUCTURED_GRID
POINTS 1827 float
0.0000000e+00 0.0000000e+00 0.0000000e+00 
0.0000000e+00 0.0000000e+00 2.0000000e+01 
3.4700000e+00 0.0000000e+00 0.0000000e+00 
3.4700000e+00 0.0000000e+00 2.0000000e+01 
3.4700000e+00 1.0000000e+00 0.0000000e+00 
3.4700000e+00 1.0000000e+00 2.0000000e+01 
0.0000000e+00 1.0000000e+00 0.0000000e+00 
0.0000000e+00 1.0000000e+00 2.0000000e+01 
1.2500000e+00 2.5000000e+00 0.0000000e+00 
1.2500000e+00 2.5000000e+00 1.1700000e-01 
7.5000000e-01 2.5000000e+00 1.1700000e-01 
7.5000000e-01 2.5000000e+00 0.0000000e+00 
0.0000000e+00 2.5000000e+00 0.0000000e+00 
0.0000000e+00 2.5000000e+00 1.1700000e-01 
1.2500000e+00 2.8000000e+00 1.1700000e-01 
1.2500000e+00 2.8000000e+00 0.0000000e+00 
0.0000000e+00 2.8000000e+00 0.0000000e+00 
0.0000000e+00 2.8000000e+00 1.1700000e-01 
7.5000000e-01 2.5000000e+00 3.8299999e-01 
1.2500000e+00 2.5000000e+00 3.8299999e-01 
1.2500000e+00 2.5000000e+00 6.1699998e-01 
7.5000000e-01 2.5000000e+00 6.1699998e-01 
7.5000000e-01 2.5000000e+00 5.0000000e-01 
0.0000000e+00 2.5000000e+00 3.8299999e-01 
0.0000000e+00 2.5000000e+00 6.1699998e-01 
1.2500000e+00 2.8000000e+00 6.1699998e-01 
1.2500000e+00 2.8000000e+00 3.8299999e-01 
0.0000000e+00 2.8000000e+00 3.8299999e-01 
0.0000000e+00 2.8000000e+00 6.1699998e-01 
7.5000000e-01 2.5000000e+00 8.8300002e-01 
1.2500000e+00 2.5000000e+00 8.8300002e-01 
1.2500000e+00 2.5000000e+00 1.1170000e+00 
7.5000000e-01 2.5000000e+00 1.1170000e+00 
7.5000000e-01 2.5000000e+00 1.0000000e+00 
0.0000000e+00 2.5000000e+00 8.8300002e-01 
0.0000000e+00 2.5000000e+00 1.1170000e+00 
1.2500000e+00 2.8000000e+00 1.1170000e+00 
1.2500000e+00 2.8000000e+00 8.8300002e-01 
0.0000000e+00 2.8000000e+00 8.8300002e-01 
0.0000000e+00 2.8000000e+00 1.1170000e+00 
7.5000000e-01 2.5000000e+00 1.3830000e+00 
1.2500000e+00 2.5000000e+00 1.3830000e+00 
1.2500000e+00 2.5000000e+00 1.6170000e+00 
7.5000000e-01 2.5000000e+00 1.6170000e+00 
7.5000000e-01 2.5000000e+00 1.5000000e+00 
0.0000000e+00 2.5000000e+00 1.3830000e+00 
0.0000000e+00 2.5000000e+00 1.6170000e+00 
1.2500000e+00 2.8000000e+00 1.6170000e+00 
1.2500000e+00 2.8000000e+00 1.3830000e+00 
0.0000000e+00 2.8000000e+00 1.3830000e+00 
0.0000000e+00 2.8000000e+00 1.6170000e+00 
7.5000000e-01 2.5000000e+00 1.8830000e+00 
1.2500000e+00 2.5000000e+00 1.8830000e+00 
1.2500000e+00 2.5000000e+00 2.1170001e+00 
7.5000000e-01 2.5000000e+00 2.1170001e+00 
7.5000000e-01 2.5000000e+00 2.0000000e+00 
0.0000000e+00 2.5000000e+00 1.8830000e+00 
0.0000000e+00 2.5000000e+00 2.1170001e+00 
1.2500000e+00 2.8000000e+00 2.1170001e+00 
1.2500000e+00 2.8000000e+00 1.8830000e+00 
0.0000000e+00 2.8000000e+00 1.8830000e+00 
0.0000000e+00 2.8000000e+00 2.1170001e+00 
7.5000000e-01 2.5000000e+00 2.3829999e+00 
1.2500000e+00 2.5000000e+00 2.3829999e+00 
1.2500000e+00 2.5000000e+00 2.6170001e+00 
7.5000000e-01 2.5000000e+00 2.6170001e+00 
7.5000000e-01 2.5000000e+00 2.5000000e+00 
0.0000000e+00 2.5000000e+00 2.3829999e+00 
0.0000000e+00 2.5000000e+00 2.6170001e+00 
1.2500000e+00 2.8000000e+00 2.6170001e+00 
1.2500000e+00 2.8000000e+00 2.3829999e+00 
0.0000000e+00 2.8000000e+00 2.3829999e+00 
0.0000000e+00 2.8000000e+00 2.6170001e+00 
7.5000000e-01 2.5000000e+00 2.8829999e+00 
1.2500000e+00 2.5000000e+00 2.8829999e+00 
1.2500000e+00 2.5000000e+00 3.1170001e+00 
7.5000000e-01 2.5000000e+00 3.1170001e+00 
7.5000000e-01 2.5000000e+00 3.0000000e+00 
0.0000000e+00 2.5000000e+00 2.8829999e+00 
0.0000000e+00 2.5000000e+00 3.1170001e+00 
1.2500000e+00 2.8000000e+00 3.1170001e+00 
1.2500000e+00 2.8000000e+00 2.8829999e+00 
0.0000000e+00 2.8000000e+00 2.8829999e+00 
0.0000000e+00 2.8000000e+00 3.1170001e+00 
7.5000000e-01 2.5000000e+00 3.3829999e+00 
1.2500000e+00 2.5000000e+00 3.3829999e+00 
1.2500000e+00 2.5000000e+00 3.6170001e+00 
7.5000000e-01 2.5000000e+00 3.6170001e+00 
7.5000000e-01 2.5000000e+00 3.5000000e+00 
0.0000000e+00 2.5000000e+00 3.3829999e+00 
0.0000000e+00 2.5000000e+00 3.6170001e+00 
1.2500000e+00 2.8000000e+00 3.6170001e+00 
1.2500000e+00 2.8000000e+00 3.3829999e+00 
0.0000000e+00 2.8000000e+00 3.3829999e+00 
0.0000000e+00 2.8000000e+00 3.6170001e+00 
7.5000000e-01 2.5000000e+00 3.8829999e+00 
1.2500000e+00 2.5000000e+00 3.8829999e+00 
1.2500000e+00 2.5000000e+00 4.1170001e+00 
7.5000000e-01 2.5000000e+00 4.1170001e+00 
7.5000000e-01 2.5000000e+00 4.0000000e+00 
0.0000000e+00 2.5000000e+00 3.8829999e+00 
0.0000000e+00 2.5000000e+00 4.1170001e+00 
1.2500000e+00 2.8000000e+00 4.1170001e+00 
1.2500000e+00 2.8000000e+00 3.8829999e+00 
0.0000000e+00 2.8000000e+00 3.8829999e+00 
0.0000000e+00 2.8000000e+00 4.1170001e+00 
7.5000000e-01 2.5000000e+00 4.3829999e+00 
1.2500000e+00 2.5000000e+00 4.3829999e+00 
1.2500000e+00 2.5000000e+00 4.6170001e+00 
7.5000000e-01 2.5000000e+00 4.6170001e+00 
7.5000000e-01 2.5000000e+00 4.5000000e+00 
0.0000000e+00 2.5000000e+00 4.3829999e+00 
0.0000000e+00 2.5000000e+00 4.6170001e+00 
1.2500000e+00 2.8000000e+00 4.6170001e+00 
1.2500000e+00 2.8000000e+00 4.3829999e+00 
0.0000000e+00 2.8000000e+00 4.3829999e+00 
0.0000000e+00 2.8000000e+00 4.6170001e+00 
7.5000000e-01 2.5000000e+00 4.8829999e+00 
1.2500000e+00 2.5000000e+00 4.8829999e+00 
1.2500000e+00 2.5000000e+00 5.1170001e+00 
7.5000000e-01 2.5000000e+00 5.1170001e+00 
7.5000000e-01 2.5000000e+00 5.0000000e+00 
0.0000000e+00 2.5000000e+00 4.8829999e+00 
0.0000000e+00 2.5000000e+00 5.1170001e+00 
1.2500000e+00 2.8000000e+00 5.1170001e+00 
1.2500000e+00 2.8000000e+00 4.8829999e+00 
0.0000000e+00 2.8000000e+00 4.8829999e+00 
0.0000000e+00 2.8000000e+00 5.1170001e+00 
7.5000000e-01 2.5000000e+00 5.3829999e+00 
1.2500000e+00 2.5000000e+00 5.3829999e+00 
1.2500000e+00 2.5000000e+00 5.6170001e+00 
7.5000000e-01 2.5000000e+00 5.6170001e+00 
7.5000000e-01 2.5000000e+00 5.5000000e+00 
0.0000000e+00 2.5000000e+00 5.3829999e+00 
0.0000000e+00 2.5000000e+00 5.6170001e+00 
1.2500000e+00 2.8000000e+00 5.6170001e+00 
1.2500000e+00 2.8000000e+00 5.3829999e+00 
0.0000000e+00 2.8000000e+00 5.3829999e+00 
0.0000000e+00 2.8000000e+00 5.6170001e+00 
7.5000000e-01 2.5000000e+00 5.8829999e+00 
1.2500000e+00 2.5000000e+00 5.8829999e+00 
1.2500000e+00 2.5000000e+00 6.1170001e+00 
7.5000000e-01 2.5000000e+00 6.1170001e+00 
7.5000000e-01 2.5000000e+00 6.0000000e+00 
0.0000000e+00 2.5000000e+00 5.8829999e+00 
0.0000000e+00 2.5000000e+00 6.1170001e+00 
1.2500000e+00 2.8000000e+00 6.1170001e+00 
1.2500000e+00 2.8000000e+00 5.8829999e+00 
0.0000000e+00 2.8000000e+00 5.8829999e+00 
0.0000000e+00 2.8000000e+00 6.1170001e+00 
7.5000000e-01 2.5000000e+00 6.3829999e+00 
1.2500000e+00 2.5000000e+00 6.3829999e+00 
1.2500000e+00 2.5000000e+00 6.6170001e+00 
7.5000000e-01 2.5000000e+00 6.6170001e+00 
7.5000000e-01 2.5000000e+00 6.5000000e+00 
0.0000000e+00 2.5000000e+00 6.3829999e+00 
0.0000000e+00 2.5000000e+00 6.6170001e+00 
1.2500000e+00 2.8000000e+00 6.6170001e+00 
1.2500000e+00 2.8000000e+00 6.3829999e+00 
0.0000000e+00 2.8000000e+00 6.3829999e+00 
0.0000000e+00 2.8000000e+00 6.6170001e+00 
7.5000000e-01 2.5000000e+00 6.8829999e+00 
1.2500000e+00 2.5000000e+00 6.8829999e+00 
1.2500000e+00 2.5000000e+00 7.1170001e+00 
7.5000000e-01 2.5000000e+00 7.1170001e+00 
7.5000000e-01 2.5000000e+00 7.0000000e+00 
0.0000000e+00 2.5000000e+00 6.8829999e+00 
0.0000000e+00 2.5000000e+00 7.1170001e+00 
1.2500000e+00 2.8000000e+00 7.1170001e+00 
1.2500000e+00 2.8000000e+00 6.8829999e+00 
0.0000000e+00 2.8000000e+00 6.8829999e+00 
0.0000000e+00 2.8000000e+00 7.1170001e+00 
7.5000000e-01 2.5000000e+00 7.3829999e+00 
1.2500000e+00 2.5000000e+00 7.3829999e+00 
1.2500000e+00 2.5000000e+00 7.6170001e+00 
7.5000000e-01 2.5000000e+00 7.6170001e+00 
7.5000000e-01 2.5000000e+00 7.5000000e+00 
0.0000000e+00 2.5000000e+00 7.3829999e+00 
0.0000000e+00 2.5000000e+00 7.6170001e+00 
1.2500000e+00 2.8000000e+00 7.6170001e+00 
1.2500000e+00 2.8000000e+00 7.3829999e+00 
0.0000000e+00 2.8000000e+00 7.3829999e+00 
0.0000000e+00 2.8000000e+00 7.6170001e+00 
7.5000000e-01 2.5000000e+00 7.8829999e+00 
1.2500000e+00 2.5000000e+00 7.8829999e+00 
1.2500000e+00 2.5000000e+00 8.1169996e+00 
7.5000000e-01 2.5000000e+00 8.1169996e+00 
7.5000000e-01 2.5000000e+00 8.0000000e+00 
0.0000000e+00 2.5000000e+00 7.8829999e+00 
0.0000000e+00 2.5000000e+00 8.1169996e+00 
1.2500000e+00 2.8000000e+00 8.1169996e+00 
1.2500000e+00 2.8000000e+00 7.8829999e+00 
0.0000000e+00 2.8000000e+00 7.8829999e+00 
0.0000000e+00 2.8000000e+00 8.1169996e+00 
7.5000000e-01 2.5000000e+00 8.3830004e+00 
1.2500000e+00 2.5000000e+00 8.3830004e+00 
1.2500000e+00 2.5000000e+00 8.6169996e+00 
7.5000000e-01 2.5000000e+00 8.6169996e+00 
7.5000000e-01 2.5000000e+00 8.5000000e+00 
0.0000000e+00 2.5000000e+00 8.3830004e+00 
0.0000000e+00 2.5000000e+00 8.6169996e+00 
1.2500000e+00 2.8000000e+00 8.6169996e+00 
1.2500000e+00 2.8000000e+00 8.3830004e+00 
0.0000000e+00 2.8000000e+00 8.3830004e+00 
0.0000000e+00 2.8000000e+00 8.6169996e+00 
7.5000000e-01 2.5000000e+00 8.8830004e+00 
1.2500000e+00 2.5000000e+00 8.8830004e+00 
1.2500000e+00 2.5000000e+00 9.1169996e+00 
7.5000000e-01 2.5000000e+00 9.1169996e+00 
7.5000000e-01 2.5000000e+00 9.0000000e+00 
0.0000000e+00 2.5000000e+00 8.8830004e+00 
0.0000000e+00 2.5000000e+00 9.1169996e+00 
1.2500000e+00 2.8000000e+00 9.1169996e+00 
1.2500000e+00 2.8000000e+00 8.8830004e+00 
0.0000000e+00 2.8000000e+00 8.8830004e+00 
0.0000000e+00 2.8000000e+00 9.1169996e+00 
7.5000000e-01 2.5000000e+00 9.3830004e+00 
1.2500000e+00 2.5000000e+00 9.3830004e+00 
1.2500000e+00 2.5000000e+00 9.6169996e+00 
7.5000000e-01 2.5000000e+00 9.6169996e+00 
7.5000000e-01 2.5000000e+00 9.5000000e+00 
0.0000000e+00 2.5000000e+00 9.3830004e+00 
0.0000000e+00 2.5000000e+00 9.6169996e+00 
1.2500000e+00 2.8000000e+00 9.6169996e+00 
1.2500000e+00 2.8000000e+00 9.3830004e+00 
0.0000000e+00 2.8000000e+00 9.3830004e+00 
0.0000000e+00 2.8000000e+00 9.6169996e+00 
7.5000000e-01 2.5000000e+00 9.8830004e+00 
1.2500000e+00 2.5000000e+00 9.8830004e+00 
1.2500000e+00 2.5000000e+00 1.0117000e+01 
[...]
POINT_DATA 1827
FIELD FieldData 2
DISPLACEMENT 3 1827  float
0.0000000e+00 0.0000000e+00 0.0000000e+00 
0.0000000e+00 0.0000000e+00 0.0000000e+00 
0.0000000e+00 0.0000000e+00 0.0000000e+00 
0.0000000e+00 0.0000000e+00 0.0000000e+00 
0.0000000e+00 -9.4057978e-06 0.0000000e+00 
0.0000000e+00 -5.1042690e-07 0.0000000e+00 
0.0000000e+00 -2.1681921e-05 0.0000000e+00 
0.0000000e+00 2.1586177e-06 0.0000000e+00 
0.0000000e+00 2.7569888e-06 0.0000000e+00 
-4.7353260e-10 2.7476724e-06 -8.4028446e-09 
-3.5314356e-09 2.8558445e-06 2.3630473e-10 
0.0000000e+00 2.8578140e-06 0.0000000e+00 
0.0000000e+00 2.9526470e-06 0.0000000e+00 
0.0000000e+00 2.9480091e-06 0.0000000e+00 
1.0586741e-08 2.7734045e-06 -9.9689457e-10 
0.0000000e+00 2.7748640e-06 0.0000000e+00 
0.0000000e+00 2.9515948e-06 0.0000000e+00 
0.0000000e+00 2.9503526e-06 0.0000000e+00 
-4.1298723e-08 -3.3172614e-06 1.2545033e-07 
-8.9777707e-08 -3.2485093e-06 2.8626721e-07 
-1.5438579e-07 -3.3169244e-06 2.8128065e-07 
-1.0211841e-07 -3.3672134e-06 1.2696327e-07 
-7.1927772e-08 -3.3408994e-06 1.2567570e-07 
0.0000000e+00 -3.3791630e-06 0.0000000e+00 
0.0000000e+00 -3.4133097e-06 0.0000000e+00 
-1.6116421e-07 -3.3031843e-06 3.5087973e-07 
-8.3943242e-08 -3.2494461e-06 3.4584409e-07 
0.0000000e+00 -3.3730637e-06 0.0000000e+00 
0.0000000e+00 -3.3884803e-06 0.0000000e+00 
-6.1284709e-08 -1.3123642e-05 -5.1733082e-07 
-1.8188877e-07 -1.2750304e-05 -1.1860527e-06 
1.9420567e-07 -1.2958185e-05 -1.1875150e-06 
1.4982362e-07 -1.3244080e-05 -5.2071857e-07 
4.5561215e-08 -1.3182237e-05 -5.1282973e-07 
0.0000000e+00 -1.3548653e-05 0.0000000e+00 
0.0000000e+00 -1.3587788e-05 0.0000000e+00 
-1.8246689e-08 -1.2927509e-05 -9.4831194e-07 
-3.0323318e-07 -1.2773244e-05 -9.5406301e-07 
0.0000000e+00 -1.3524094e-05 0.0000000e+00 
0.0000000e+00 -1.3573545e-05 0.0000000e+00 
-2.7974091e-08 -2.1923750e-05 -8.6368225e-08 
-3.4748129e-09 -2.2233966e-05 -1.3004620e-07 
4.8747982e-08 -2.2331029e-05 -1.3388912e-07 
-1.3609962e-08 -2.1984326e-05 -9.1010676e-08 
-1.8574768e-08 -2.1952468e-05 -8.7044157e-08 
0.0000000e+00 -2.1688636e-05 0.0000000e+00 
0.0000000e+00 -2.1713575e-05 0.0000000e+00 
1.8304887e-07 -2.2307167e-05 -3.2363026e-08 
1.6922945e-07 -2.2230748e-05 -2.8032980e-08 
0.0000000e+00 -2.1711174e-05 0.0000000e+00 
0.0000000e+00 -2.1728036e-05 0.0000000e+00 
-1.8206829e-07 -3.0031753e-05 -1.5536428e-07 
-2.0240941e-07 -3.0646646e-05 -2.7004251e-07 
-1.6134183e-07 -3.0727959e-05 -2.8110404e-07 
-1.3722361e-07 -3.0089042e-05 -1.5595239e-07 
-1.5583798e-07 -3.0055246e-05 -1.5405764e-07 
0.0000000e+00 -2.9551284e-05 0.0000000e+00 
0.0000000e+00 -2.9582339e-05 0.0000000e+00 
2.0462429e-07 -3.0696883e-05 -1.8270241e-07 
1.5159927e-07 -3.0625499e-05 -1.8192293e-07 
0.0000000e+00 -2.9571213e-05 0.0000000e+00 
0.0000000e+00 -2.9600176e-05 0.0000000e+00 
-2.9092695e-07 -3.6625712e-05 -7.3619867e-07 
-3.9111248e-07 -3.7121055e-05 -1.4884672e-06 
-4.5627356e-08 -3.7301092e-05 -1.4793535e-06 
-2.6079743e-08 -3.6766218e-05 -7.3058618e-07 
-1.5433042e-07 -3.6696863e-05 -7.2484738e-07 
0.0000000e+00 -3.6317277e-05 0.0000000e+00 
0.0000000e+00 -3.6373374e-05 0.0000000e+00 
2.7024907e-07 -3.7272184e-05 -1.2449806e-06 
-7.1458146e-08 -3.7104372e-05 -1.2443409e-06 
0.0000000e+00 -3.6340651e-05 0.0000000e+00 
0.0000000e+00 -3.6388665e-05 0.0000000e+00 
-1.1222565e-07 -4.0885439e-05 -5.1257626e-07 
-1.6920555e-07 -4.0884323e-05 -1.0613438e-06 
8.7329425e-08 -4.0940427e-05 -1.0430658e-06 
7.7924362e-08 -4.0919582e-05 -5.1455640e-07 
-1.6483231e-08 -4.0900020e-05 -5.0846262e-07 
0.0000000e+00 -4.0942537e-05 0.0000000e+00 
0.0000000e+00 -4.0963474e-05 0.0000000e+00 
1.0229858e-07 -4.0936542e-05 -9.6825283e-07 
-1.4695321e-07 -4.0883435e-05 -9.6798158e-07 
0.0000000e+00 -4.0938983e-05 0.0000000e+00 
0.0000000e+00 -4.0965566e-05 0.0000000e+00 
-1.9881756e-07 -3.7640479e-05 2.9182250e-08 
-2.8238398e-07 -3.8233138e-05 1.3410167e-07 
-3.3443408e-07 -3.8133454e-05 1.4810105e-07 
-2.1595230e-07 -3.7589863e-05 3.2471650e-08 
-2.0262482e-07 -3.7613638e-05 2.8866904e-08 
0.0000000e+00 -3.7272246e-05 0.0000000e+00 
0.0000000e+00 -3.7252048e-05 0.0000000e+00 
4.0744609e-08 -3.8120579e-05 3.3078521e-08 
8.1576609e-08 -3.8192647e-05 3.2923307e-08 
0.0000000e+00 -3.7281196e-05 0.0000000e+00 
0.0000000e+00 -3.7267986e-05 0.0000000e+00 
-1.0941211e-07 -2.7110305e-05 3.0284039e-07 
-1.8124989e-07 -2.7468823e-05 4.7924857e-07 
-2.2776624e-07 -2.7321359e-05 4.7369397e-07 
-1.9014310e-07 -2.7021742e-05 3.0487914e-07 
-1.4704902e-07 -2.7061886e-05 3.0112716e-07 
0.0000000e+00 -2.6903701e-05 0.0000000e+00 
0.0000000e+00 -2.6859907e-05 0.0000000e+00 
-3.2001015e-08 -2.7318654e-05 3.3018100e-07 
4.9102894e-08 -2.7434528e-05 3.2759073e-07 
0.0000000e+00 -2.6896472e-05 0.0000000e+00 
0.0000000e+00 -2.6861393e-05 0.0000000e+00 
-1.2049104e-07 -1.1324360e-05 -3.2051105e-07 
-1.8898869e-07 -1.1379848e-05 -7.5651838e-07 
2.4011916e-08 -1.1316721e-05 -7.5559285e-07 
2.8822331e-08 -1.1287801e-05 -3.2619914e-07 
-4.2887788e-08 -1.1302199e-05 -3.2038412e-07 
0.0000000e+00 -1.1419991e-05 0.0000000e+00 
0.0000000e+00 -1.1395454e-05 0.0000000e+00 
5.6135555e-08 -1.1313189e-05 -7.9212657e-07 
-1.4424421e-07 -1.1354452e-05 -7.9554161e-07 
0.0000000e+00 -1.1396933e-05 0.0000000e+00 
0.0000000e+00 -1.1395739e-05 0.0000000e+00 
-1.0358090e-08 5.9218246e-07 -3.1594413e-07 
-1.7188697e-08 7.9442805e-07 -6.8577714e-07 
1.3809768e-07 7.6663378e-07 -6.8225103e-07 
1.1846132e-07 5.7035288e-07 -3.1900078e-07 
5.2232323e-08 5.8283570e-07 -3.1430048e-07 
0.0000000e+00 3.9427348e-07 0.0000000e+00 
0.0000000e+00 3.8786254e-07 0.0000000e+00 
2.9419850e-08 7.6300512e-07 -6.3167289e-07 
-1.3942103e-07 7.9382949e-07 -6.3307345e-07 
0.0000000e+00 4.1017020e-07 0.0000000e+00 
0.0000000e+00 3.9396815e-07 0.0000000e+00 
1.2642741e-07 -8.4404483e-06 1.2169473e-07 
1.2795833e-07 -7.8778821e-06 2.4336762e-07 
6.4740171e-08 -8.0587797e-06 2.5671144e-07 
6.7415669e-08 -8.5325364e-06 1.3037362e-07 
9.2878608e-08 -8.4880485e-06 1.2644676e-07 
0.0000000e+00 -8.8036822e-06 0.0000000e+00 
0.0000000e+00 -8.8372281e-06 0.0000000e+00 
-2.2082411e-07 -8.0508071e-06 4.1208312e-07 
-1.4636824e-07 -7.9290412e-06 4.1025567e-07 
0.0000000e+00 -8.7862818e-06 0.0000000e+00 
0.0000000e+00 -8.8188735e-06 0.0000000e+00 
3.4210331e-07 -5.4637061e-05 -1.9020060e-08 
4.7014058e-07 -5.3355983e-05 2.3776337e-07 
3.3346845e-07 -5.3841901e-05 2.5805417e-07 
2.5667006e-07 -5.4990487e-05 -2.2770786e-08 
2.9063705e-07 -5.4813638e-05 -1.1353022e-08 
0.0000000e+00 -5.5436794e-05 0.0000000e+00 
0.0000000e+00 -5.5599194e-05 0.0000000e+00 
-3.7997577e-07 -5.3868087e-05 7.4590361e-07 
-2.3429165e-07 -5.3463380e-05 7.4184152e-07 
0.0000000e+00 -5.5438089e-05 0.0000000e+00 
0.0000000e+00 -5.5557877e-05 0.0000000e+00 
5.6590301e-07 -1.4468585e-04 1.1532828e-06 
7.1583889e-07 -1.4309368e-04 2.1590861e-06 
2.4149077e-07 -1.4339238e-04 2.1775047e-06 
1.4281693e-07 -1.4487935e-04 1.1822561e-06 
3.3375275e-07 -1.4480145e-04 1.1584555e-06 
0.0000000e+00 -1.4536356e-04 0.0000000e+00 
0.0000000e+00 -1.4549081e-04 0.0000000e+00 
-6.5868977e-07 -1.4344887e-04 2.4269004e-06 
-1.5094685e-07 -1.4324395e-04 2.4243591e-06 
0.0000000e+00 -1.4538012e-04 0.0000000e+00 
0.0000000e+00 -1.4541886e-04 0.0000000e+00 
5.1756354e-07 -2.5946423e-04 -2.5132977e-07 
7.6385760e-07 -2.5748770e-04 2.7094168e-07 
4.7317815e-07 -2.5843282e-04 2.9440008e-07 
3.7199837e-07 -2.6017832e-04 -1.8827154e-07 
4.2236010e-07 -2.5988015e-04 -1.9982183e-07 
0.0000000e+00 -2.6048388e-04 0.0000000e+00 
0.0000000e+00 -2.6077506e-04 0.0000000e+00 
-6.0510882e-07 -2.5849885e-04 1.2712819e-06 
-3.5262610e-07 -2.5769265e-04 1.2828543e-06 
0.0000000e+00 -2.6051753e-04 0.0000000e+00 
0.0000000e+00 -2.6070897e-04 0.0000000e+00 
4.9633201e-07 -3.3806817e-04 -3.6960319e-07 
6.9028999e-07 -3.3548023e-04 -6.8693237e-07 
8.1063757e-07 -3.3581088e-04 -6.1051924e-07 
5.8736788e-07 -3.3823482e-04 -3.1880174e-07 
5.0991792e-07 -3.3821756e-04 -3.3900199e-07 
0.0000000e+00 -3.3917688e-04 0.0000000e+00 
0.0000000e+00 -3.3923305e-04 0.0000000e+00 
-6.3135701e-07 -3.3596822e-04 -3.2165897e-07 
-7.5532819e-07 -3.3573364e-04 -3.1339013e-07 
0.0000000e+00 -3.3912246e-04 0.0000000e+00 
0.0000000e+00 -3.3919423e-04 0.0000000e+00 
4.6968054e-07 -2.8387122e-04 -8.8206249e-08 
6.3564806e-07 -2.8170887e-04 -4.6388078e-07 
8.5958357e-07 -2.8102234e-04 -4.1834588e-07 
6.1545302e-07 -2.8344960e-04 -5.6420163e-08 
5.1476843e-07 -2.8370478e-04 -7.9636038e-08 
0.0000000e+00 -2.8477539e-04 0.0000000e+00 
0.0000000e+00 -2.8458532e-04 0.0000000e+00 
-4.8222745e-07 -2.8127586e-04 -1.1085791e-06 
-6.8853183e-07 -2.8179874e-04 -1.1021651e-06 
0.0000000e+00 -2.8467004e-04 0.0000000e+00 
0.0000000e+00 -2.8455228e-04 0.0000000e+00 
1.4798638e-07 -1.7224302e-04 -1.2341446e-06 
2.4147027e-07 -1.7068684e-04 -2.5348711e-06 
9.3644280e-07 -1.7006994e-04 -2.4943679e-06 
6.7156674e-07 -1.7189338e-04 -1.2064687e-06 
3.9190593e-07 -1.7210233e-04 -1.2130640e-06 
0.0000000e+00 -1.7277582e-04 0.0000000e+00 
0.0000000e+00 -1.7266416e-04 0.0000000e+00 
-8.6694300e-08 -1.7028960e-04 -3.0626572e-06 
-7.3500354e-07 -1.7071569e-04 -3.0485915e-06 
0.0000000e+00 -1.7273214e-04 0.0000000e+00 
0.0000000e+00 -1.7265917e-04 0.0000000e+00 
1.1653029e-07 -8.2818871e-05 5.2994972e-07 
1.5259261e-07 -8.2692539e-05 6.7861498e-07 
1.3916105e-07 -8.1996637e-05 6.8621529e-07 
4.3847574e-08 -8.2377483e-05 5.3173420e-07 
7.3490455e-08 -8.2599232e-05 5.1914571e-07 
0.0000000e+00 -8.2563434e-05 0.0000000e+00 
0.0000000e+00 -8.2385202e-05 0.0000000e+00 
-3.0054096e-08 -8.2104714e-05 -1.9490976e-08 
1.4925350e-08 -8.2655577e-05 -1.3444598e-08 
0.0000000e+00 -8.2544757e-05 0.0000000e+00 
0.0000000e+00 -8.2387000e-05 0.0000000e+00 
8.1672184e-08 -2.8616463e-05 5.4864989e-07 
1.0478733e-07 -2.8547069e-05 1.0893521e-06 
-1.3885364e-07 -2.8219454e-05 1.0879298e-06 
-9.6215395e-08 -2.8421995e-05 5.5065323e-07 
-8.5118046e-09 -2.8519307e-05 5.4171829e-07 
0.0000000e+00 -2.8609114e-05 0.0000000e+00 
0.0000000e+00 -2.8518625e-05 0.0000000e+00 
-1.9742747e-07 -2.8262135e-05 7.3520613e-07 
3.4452267e-08 -2.8518587e-05 7.3557902e-07 
0.0000000e+00 -2.8585990e-05 0.0000000e+00 
0.0000000e+00 -2.8508150e-05 0.0000000e+00 
-4.7934375e-08 -2.4171445e-06 7.4172689e-08 
-7.9357811e-08 -2.5541287e-06 9.1814314e-08 
-8.0284472e-08 -2.4109511e-06 7.4053794e-08 
-5.1403426e-08 -2.3263033e-06 7.0176398e-08 
-4.7172900e-08 -2.3683515e-06 6.9582484e-08 
0.0000000e+00 -2.3906159e-06 0.0000000e+00 
0.0000000e+00 -2.3477585e-06 0.0000000e+00 
-5.6282179e-09 -2.4113526e-06 -5.9548530e-08 
-7.5087696e-09 -2.5233362e-06 -6.3411925e-08 
0.0000000e+00 -2.3828563e-06 0.0000000e+00 
0.0000000e+00 -2.3554346e-06 0.0000000e+00 
-5.2918363e-08 1.0076760e-05 -4.1486723e-07 
-8.2313690e-08 1.0160352e-05 -8.1656299e-07 
1.0790607e-07 1.0131853e-05 -8.2023666e-07 
9.7440818e-08 1.0052054e-05 -4.1984578e-07 
2.4391536e-08 1.0067715e-05 -4.1331867e-07 
0.0000000e+00 9.9195850e-06 0.0000000e+00 
0.0000000e+00 9.9150302e-06 0.0000000e+00 
6.1357909e-08 1.0134969e-05 -7.6479830e-07 
-1.2665599e-07 1.0169721e-05 -7.6732744e-07 
0.0000000e+00 9.9327035e-06 0.0000000e+00 
0.0000000e+00 9.9111949e-06 0.0000000e+00 
-1.4329271e-07 1.6023654e-05 -8.2322447e-07 
-2.0300257e-07 1.6046613e-05 -1.7240943e-06 
2.1794961e-07 1.5954964e-05 -1.7141882e-06 
1.7233735e-07 1.5953858e-05 -8.2679446e-07 
1.7804222e-08 1.5988675e-05 -8.1872292e-07 
0.0000000e+00 1.5915581e-05 0.0000000e+00 
0.0000000e+00 1.5889791e-05 0.0000000e+00 
2.0540320e-07 1.5958902e-05 -1.5698965e-06 
-2.0710863e-07 1.6053562e-05 -1.5697398e-06 
0.0000000e+00 1.5924647e-05 0.0000000e+00 
0.0000000e+00 1.5877215e-05 0.0000000e+00 
5.9757408e-09 1.5693362e-05 -2.3372812e-07 
7.9483078e-09 1.5691652e-05 -4.2023771e-07 
9.4980905e-08 1.5618036e-05 -4.1777065e-07 
7.7811166e-08 1.5633846e-05 -2.3070767e-07 
4.0131443e-08 1.5660238e-05 -2.2954808e-07 
0.0000000e+00 1.5702804e-05 0.0000000e+00 
0.0000000e+00 1.5677891e-05 0.0000000e+00 
9.0361731e-08 1.5620806e-05 -3.2882474e-07 
4.1293702e-09 1.5689644e-05 -3.2674620e-07 
0.0000000e+00 1.5693244e-05 0.0000000e+00 
0.0000000e+00 1.5673262e-05 0.0000000e+00 
6.5387171e-09 8.2453244e-06 9.3297636e-08 
3.0946975e-08 8.1162380e-06 2.2745354e-07 
-4.1423323e-08 8.0455220e-06 2.2930411e-07 
-4.3107512e-08 8.1979269e-06 9.2850570e-08 
-1.8109381e-08 8.2208126e-06 9.2757986e-08 
0.0000000e+00 8.3910691e-06 0.0000000e+00 
0.0000000e+00 8.3588429e-06 0.0000000e+00 
3.4317100e-08 8.0556283e-06 2.9341496e-07 
9.9519127e-08 8.1105127e-06 2.9626395e-07 
0.0000000e+00 8.3684090e-06 0.0000000e+00 
0.0000000e+00 8.3586101e-06 0.0000000e+00 
-1.5979269e-08 -1.0921852e-06 1.5038597e-07 
-1.3237957e-08 -1.3812755e-06 3.2846691e-07 
-9.1305161e-08 -1.4219017e-06 3.1580711e-07 
-7.9893844e-08 -1.1115415e-06 1.4696117e-07 
-4.5381238e-08 -1.0987683e-06 1.4765043e-07 
0.0000000e+00 -8.9870906e-07 0.0000000e+00 
0.0000000e+00 -9.1348477e-07 0.0000000e+00 
6.8646322e-08 -1.3972666e-06 3.4935630e-07 
1.5252377e-07 -1.3730815e-06 3.5004643e-07 
0.0000000e+00 -9.1978649e-07 0.0000000e+00 
0.0000000e+00 -9.1905559e-07 0.0000000e+00 
-1.1307433e-08 -5.4623461e-06 -1.2946644e-07 
-2.5000547e-08 -5.3996546e-06 -2.7813383e-07 
4.0742226e-08 -5.4200500e-06 -2.7693383e-07 
3.9977511e-08 -5.4843986e-06 -1.3435424e-07 
1.4532280e-08 -5.4710731e-06 -1.3045432e-07 
0.0000000e+00 -5.5678956e-06 0.0000000e+00 
0.0000000e+00 -5.5769424e-06 0.0000000e+00 
7.8088611e-09 -5.4209099e-06 -2.4290387e-07 
-5.9069464e-08 -5.3970803e-06 -2.4432796e-07 
0.0000000e+00 -5.5642568e-06 0.0000000e+00 
0.0000000e+00 -5.5751166e-06 0.0000000e+00 
-2.4084914e-08 -2.9056482e-06 -2.9325696e-07 
-4.1687553e-08 -2.7185085e-06 -5.7644996e-07 
8.2540168e-08 -2.6941866e-06 -5.7123759e-07 
8.4662098e-08 -2.9033963e-06 -2.9380780e-07 
2.8899031e-08 -2.9050902e-06 -2.9225714e-07 
0.0000000e+00 -3.0717688e-06 0.0000000e+00 
0.0000000e+00 -3.0676367e-06 0.0000000e+00 
-1.3555951e-08 -2.7128124e-06 -5.7566189e-07 
-1.4889258e-07 -2.7169251e-06 -5.7848570e-07 
0.0000000e+00 -3.0567110e-06 0.0000000e+00 
0.0000000e+00 -3.0654282e-06 0.0000000e+00 
1.1136946e-08 2.0961427e-06 2.7171366e-08 
1.5484495e-08 2.1900560e-06 7.4861411e-08 
-2.8916796e-09 2.2291315e-06 8.7299703e-08 
-2.2002682e-09 2.1191988e-06 3.2080568e-08 
2.9163700e-09 2.1046092e-06 2.8800477e-08 
0.0000000e+00 2.0921830e-06 0.0000000e+00 
0.0000000e+00 2.1010619e-06 0.0000000e+00 
-5.4889711e-08 2.2128004e-06 3.8415624e-08 
-3.4561584e-08 2.1832609e-06 3.9840685e-08 
0.0000000e+00 2.0973118e-06 0.0000000e+00 
0.0000000e+00 2.1043468e-06 0.0000000e+00 
2.6974107e-08 3.3067593e-06 1.3592056e-07 
3.9223163e-08 3.2848516e-06 2.8757634e-07 
-2.9605339e-08 3.3002336e-06 2.8831582e-07 
-2.7052176e-08 3.3209399e-06 1.3718729e-07 
-4.2462128e-10 3.3129306e-06 1.3505269e-07 
0.0000000e+00 3.3675171e-06 0.0000000e+00 
0.0000000e+00 3.3719582e-06 0.0000000e+00 
-1.9294786e-08 3.2998621e-06 2.6130300e-07 
5.0270234e-08 3.2828839e-06 2.6239323e-07 
0.0000000e+00 3.3637732e-06 0.0000000e+00 
0.0000000e+00 3.3714405e-06 0.0000000e+00 
-6.0025187e-08 1.3193107e-06 2.4825106e-08 
-6.7997043e-08 1.0324698e-06 1.0553540e-07 
-1.1681479e-07 9.9350643e-07 9.1720786e-08 
-8.0252477e-08 1.3030360e-06 2.0492982e-08 
-6.7704740e-08 1.3142619e-06 2.2662856e-08 
0.0000000e+00 1.4927442e-06 0.0000000e+00 
0.0000000e+00 1.4833950e-06 0.0000000e+00 
6.2515731e-08 1.0192946e-06 1.2553784e-07 
9.8597312e-08 1.0436186e-06 1.2418948e-07 
0.0000000e+00 1.4846934e-06 0.0000000e+00 
0.0000000e+00 1.4774065e-06 0.0000000e+00 
-4.6481709e-08 -3.6364341e-08 -1.1059167e-07 
-6.6205786e-08 -1.2087698e-07 -2.2797349e-07 
-1.3002685e-08 -1.4132401e-07 -2.3276803e-07 
-5.3200742e-09 -5.2361354e-08 -1.1165866e-07 
-2.4875078e-08 -4.2811990e-08 -1.0990009e-07 
0.0000000e+00 -1.1150020e-08 0.0000000e+00 
0.0000000e+00 -1.8816648e-08 0.0000000e+00 
4.1265878e-08 -1.3383395e-07 -2.0014453e-07 
-1.3595288e-08 -1.1350861e-07 -2.0146351e-07 
0.0000000e+00 -1.2304645e-08 0.0000000e+00 
0.0000000e+00 -1.9905478e-08 0.0000000e+00 
-3.6290453e-09 2.2436559e-08 -1.2286301e-07 
-1.2113682e-08 1.1931093e-07 -2.4476412e-07 
4.8194625e-08 1.2072395e-07 -2.3941519e-07 
4.2118309e-08 2.0396039e-08 -1.2145077e-07 
1.8884604e-08 2.0236827e-08 -1.2123554e-07 
0.0000000e+00 -5.7846322e-08 0.0000000e+00 
0.0000000e+00 -5.8284531e-08 0.0000000e+00 
-7.3807374e-09 1.1475337e-07 -2.3621659e-07 
-6.3986924e-08 1.1769851e-07 -2.3618328e-07 
0.0000000e+00 -5.1693437e-08 0.0000000e+00 
0.0000000e+00 -5.7014628e-08 0.0000000e+00 
4.2689070e-08 2.3279370e-07 1.2225024e-07 
5.8016155e-08 3.1762437e-07 2.4328750e-07 
2.5093054e-09 3.3157019e-07 2.4647073e-07 
-1.9233126e-09 2.4902192e-07 1.2435528e-07 
1.9119934e-08 2.3904562e-07 1.2204812e-07 
0.0000000e+00 1.9680733e-07 0.0000000e+00 
0.0000000e+00 2.0356424e-07 0.0000000e+00 
-4.8106255e-08 3.2689150e-07 2.1960085e-07 
8.8270173e-09 3.0923027e-07 2.1990452e-07 
0.0000000e+00 1.9776013e-07 0.0000000e+00 
0.0000000e+00 2.0536569e-07 0.0000000e+00 
7.5104811e-09 -6.3392957e-07 1.7396660e-07 
2.2884214e-08 -7.4333900e-07 3.4525399e-07 
-5.8777314e-08 -7.3542304e-07 3.3268438e-07 
-5.5560335e-08 -6.2523827e-07 1.7323977e-07 
-2.2728841e-08 -6.2895361e-07 1.7247795e-07 
0.0000000e+00 -5.4573269e-07 0.0000000e+00 
0.0000000e+00 -5.4262665e-07 0.0000000e+00 
-5.8128607e-10 -7.2848792e-07 3.2108611e-07 
7.7535809e-08 -7.4051127e-07 3.2033802e-07 
0.0000000e+00 -5.5317315e-07 0.0000000e+00 
0.0000000e+00 -5.4425686e-07 0.0000000e+00 
-1.4056354e-08 -9.8265696e-07 -4.3007880e-08 
-1.9971489e-08 -9.8590590e-07 -1.0261729e-07 
7.4247817e-09 -9.9141766e-07 -1.0403013e-07 
5.2874531e-09 -9.8619080e-07 -4.4338449e-08 
-3.9102082e-09 -9.8358430e-07 -4.3225249e-08 
0.0000000e+00 -9.9573674e-07 0.0000000e+00 
0.0000000e+00 -9.9713861e-07 0.0000000e+00 
1.0087352e-08 -9.8988426e-07 -9.4035023e-08 
-1.6642597e-08 -9.8494968e-07 -9.4692766e-08 
0.0000000e+00 -9.9504496e-07 0.0000000e+00 
0.0000000e+00 -9.9747899e-07 0.0000000e+00 
-2.5532817e-08 -2.2827413e-07 -2.2053266e-07 
-3.9134438e-08 -1.6090962e-07 -4.9415712e-07 
8.6814140e-08 -1.8469750e-07 -4.8701816e-07 
6.5176742e-08 -2.4401297e-07 -2.2160138e-07 
2.0211170e-08 -2.3657414e-07 -2.1925656e-07 
0.0000000e+00 -2.9723591e-07 0.0000000e+00 
0.0000000e+00 -3.0382887e-07 0.0000000e+00 
4.6857643e-08 -1.8637756e-07 -4.5102874e-07 
-7.5825909e-08 -1.6337617e-07 -4.5017785e-07 
0.0000000e+00 -2.9256583e-07 0.0000000e+00 
0.0000000e+00 -3.0494115e-07 0.0000000e+00 
-2.3095314e-08 3.5953340e-07 -6.8238364e-08 
-2.7610584e-08 3.2783964e-07 -1.4173395e-07 
1.3861494e-09 3.0591943e-07 -1.3910123e-07 
1.7135043e-09 3.4689907e-07 -6.7437547e-08 
-1.0784946e-08 3.5286678e-07 -6.7050379e-08 
0.0000000e+00 3.8832837e-07 0.0000000e+00 
0.0000000e+00 3.8239079e-07 0.0000000e+00 
2.5238805e-08 3.0881634e-07 -1.1535190e-07 
-7.2304092e-09 3.2616015e-07 -1.1485885e-07 
0.0000000e+00 3.8604068e-07 0.0000000e+00 
0.0000000e+00 3.8175565e-07 0.0000000e+00 
-1.0016398e-08 1.8714870e-07 3.7781898e-08 
-1.3281588e-08 1.3830825e-07 9.0297085e-08 
-4.3066574e-08 1.3794831e-07 9.2806744e-08 
-2.7226459e-08 1.8730576e-07 3.7548755e-08 
-1.8113544e-08 1.8777946e-07 3.7322849e-08 
0.0000000e+00 2.2020150e-07 0.0000000e+00 
0.0000000e+00 2.1982676e-07 0.0000000e+00 
-7.5448732e-09 1.4068871e-07 8.8286157e-08 
1.6644083e-08 1.4034150e-07 8.8586013e-08 
0.0000000e+00 2.1842649e-07 0.0000000e+00 
0.0000000e+00 2.1979891e-07 0.0000000e+00 
3.5527143e-09 1.9700870e-10 1.9918470e-08 
4.3016644e-09 1.6784119e-08 5.1057089e-08 
-1.0436655e-08 2.4021151e-08 5.1774890e-08 
-5.6651488e-09 4.4013184e-09 1.9703688e-08 
-9.1667074e-10 2.4653397e-09 1.9578211e-08 
0.0000000e+00 -1.5170686e-08 0.0000000e+00 
0.0000000e+00 -1.2996690e-08 0.0000000e+00 
-1.8425965e-08 2.2541656e-08 4.2372822e-08 
-4.8256465e-09 1.6999328e-08 4.2205350e-08 
0.0000000e+00 -1.3308597e-08 0.0000000e+00 
0.0000000e+00 -1.2105811e-08 0.0000000e+00 
0.0000000e+00 -6.6323191e-05 0.0000000e+00 
0.0000000e+00 -1.7470530e-06 0.0000000e+00 