# vtk DataFile Version 4.0
vtk output
ASCII
DATASET UNSTRUCTURED_GRID
POINTS 1827 float
0.0000000e+00 0.0000000e+00 0.0000000e+00 
0.0000000e+00 0.0000000e+00 2.0000000e+01 
3.4700000e+00 0.0000000e+00 0.0000000e+00 
3.4700000e+00 0.0000000e+00 2.0000000e+01 
3.4700000e+00 1.0000000e+00 0.0000000e+00 
3.4700000e+00 1.0000000e+00 2.0000000e+01 
0.0000000e+00 1.0000000e+00 0.0000000e+00 
0.0000000e+00 1.0000000e+00 2.0000000e+01 
1.2500000e+00 2.5000000e+00 0.0000000e+00 
1.2500000e+00 2.5000000e+00 1.1700000e-01 
7.5000000e-01 2.5000000e+00 1.1700000e-01 
7.5000000e-01 2.5000000e+00 0.0000000e+00 
0.0000000e+00 2.5000000e+00 0.0000000e+00 
0.0000000e+00 2.5000000e+00 1.1700000e-01 
1.2500000e+00 2.8000000e+00 1.1700000e-01 
1.2500000e+00 2.8000000e+00 0.0000000e+00 
0.0000000e+00 2.8000000e+00 0.0000000e+00 
0.0000000e+00 2.8000000e+00 1.1700000e-01 
7.5000000e-01 2.5000000e+00 3.8299999e-01 
1.2500000e+00 2.5000000e+00 3.8299999e-01 
1.2500000e+00 2.5000000e+00 6.1699998e-01 
7.5000000e-01 2.5000000e+00 6.1699998e-01 
7.5000000e-01 2.5000000e+00 5.0000000e-01 
0.0000000e+00 2.5000000e+00 3.8299999e-01 
0.0000000e+00 2.5000000e+00 6.1699998e-01 
1.2500000e+00 2.8000000e+00 6.1699998e-01 
1.2500000e+00 2.8000000e+00 3.8299999e-01 
0.0000000e+00 2.8000000e+00 3.8299999e-01 
0.0000000e+00 2.8000000e+00 6.1699998e-01 
7.5000000e-01 2.5000000e+00 8.8300002e-01 
1.2500000e+00 2.5000000e+00 8.8300002e-01 
1.2500000e+00 2.5000000e+00 1.1170000e+00 
7.5000000e-01 2.5000000e+00 1.1170000e+00 
7.5000000e-01 2.5000000e+00 1.0000000e+00 
0.0000000e+00 2.5000000e+00 8.8300002e-01 
0.0000000e+00 2.5000000e+00 1.1170000e+00 
1.2500000e+00 2.8000000e+00 1.1170000e+00 
1.2500000e+00 2.8000000e+00 8.8300002e-01 
0.0000000e+00 2.8000000e+00 8.8300002e-01 
0.0000000e+00 2.8000000e+00 1.1170000e+00 
7.5000000e-01 2.5000000e+00 1.3830000e+00 
1.2500000e+00 2.5000000e+00 1.3830000e+00 
1.2500000e+00 2.5000000e+00 1.6170000e+00 
7.5000000e-01 2.5000000e+00 1.6170000e+00 
7.5000000e-01 2.5000000e+00 1.5000000e+00 
0.0000000e+00 2.5000000e+00 1.3830000e+00 
0.0000000e+00 2.5000000e+00 1.6170000e+00 
1.2500000e+00 2.8000000e+00 1.6170000e+00 
1.2500000e+00 2.8000000e+00 1.3830000e+00 
0.0000000e+00 2.8000000e+00 1.3830000e+00 
0.0000000e+00 2.8000000e+00 1.6170000e+00 
7.5000000e-01 2.5000000e+00 1.8830000e+00 
1.2500000e+00 2.5000000e+00 1.8830000e+00 
1.2500000e+00 2.5000000e+00 2.1170001e+00 
7.5000000e-01 2.5000000e+00 2.1170001e+00 
7.5000000e-01 2.5000000e+00 2.0000000e+00 
0.0000000e+00 2.5000000e+00 1.8830000e+00 
0.0000000e+00 2.5000000e+00 2.1170001e+00 
1.2500000e+00 2.8000000e+00 2.1170001e+00 
1.2500000e+00 2.8000000e+00 1.8830000e+00 
0.0000000e+00 2.8000000e+00 1.8830000e+00 
0.0000000e+00 2.8000000e+00 2.1170001e+00 
7.5000000e-01 2.5000000e+00 2.3829999e+00 
1.2500000e+00 2.5000000e+00 2.3829999e+00 
1.2500000e+00 2.5000000e+00 2.6170001e+00 
7.5000000e-01 2.5000000e+00 2.6170001e+00 
7.5000000e-01 2.5000000e+00 2.5000000e+00 
0.0000000e+00 2.5000000e+00 2.3829999e+00 
0.0000000e+00 2.5000000e+00 2.6170001e+00 
1.2500000e+00 2.8000000e+00 2.6170001e+00 
1.2500000e+00 2.8000000e+00 2.3829999e+00 
0.0000000e+00 2.8000000e+00 2.3829999e+00 
0.0000000e+00 2.8000000e+00 2.6170001e+00 
7.5000000e-01 2.5000000e+00 2.8829999e+00 
1.2500000e+00 2.5000000e+00 2.8829999e+00 
1.2500000e+00 2.5000000e+00 3.1170001e+00 
7.5000000e-01 2.5000000e+00 3.1170001e+00 
7.5000000e-01 2.5000000e+00 3.0000000e+00 
0.0000000e+00 2.5000000e+00 2.8829999e+00 
0.0000000e+00 2.5000000e+00 3.1170001e+00 
1.2500000e+00 2.8000000e+00 3.1170001e+00 
1.2500000e+00 2.8000000e+00 2.8829999e+00 
0.0000000e+00 2.8000000e+00 2.8829999e+00 
0.0000000e+00 2.8000000e+00 3.1170001e+00 
7.5000000e-01 2.5000000e+00 3.3829999e+00 
1.2500000e+00 2.5000000e+00 3.3829999e+00 
1.2500000e+00 2.5000000e+00 3.6170001e+00 
7.5000000e-01 2.5000000e+00 3.6170001e+00 
7.5000000e-01 2.5000000e+00 3.5000000e+00 
0.0000000e+00 2.5000000e+00 3.3829999e+00 
0.0000000e+00 2.5000000e+00 3.6170001e+00 
1.2500000e+00 2.8000000e+00 3.6170001e+00 
1.2500000e+00 2.8000000e+00 3.3829999e+00 
0.0000000e+00 2.8000000e+00 3.3829999e+00 
0.0000000e+00 2.8000000e+00 3.6170001e+00 
7.5000000e-01 2.5000000e+00 3.8829999e+00 
1.2500000e+00 2.5000000e+00 3.8829999e+00 
1.2500000e+00 2.5000000e+00 4.1170001e+00 
7.5000000e-01 2.5000000e+00 4.1170001e+00 
7.5000000e-01 2.5000000e+00 4.0000000e+00 
0.0000000e+00 2.5000000e+00 3.8829999e+00 
0.0000000e+00 2.5000000e+00 4.1170001e+00 
1.2500000e+00 2.8000000e+00 4.1170001e+00 
1.2500000e+00 2.8000000e+00 3.8829999e+00 
0.0000000e+00 2.8000000e+00 3.8829999e+00 
0.0000000e+00 2.8000000e+00 4.1170001e+00 
7.5000000e-01 2.5000000e+00 4.3829999e+00 
1.2500000e+00 2.5000000e+00 4.3829999e+00 
1.2500000e+00 2.5000000e+00 4.6170001e+00 
7.5000000e-01 2.5000000e+00 4.6170001e+00 
7.5000000e-01 2.5000000e+00 4.5000000e+00 
0.0000000e+00 2.5000000e+00 4.3829999e+00 
0.0000000e+00 2.5000000e+00 4.6170001e+00 
1.2500000e+00 2.8000000e+00 4.6170001e+00 
1.2500000e+00 2.8000000e+00 4.3829999e+00 
0.0000000e+00 2.8000000e+00 4.3829999e+00 
0.0000000e+00 2.8000000e+00 4.6170001e+00 
7.5000000e-01 2.5000000e+00 4.8829999e+00 
1.2500000e+00 2.5000000e+00 4.8829999e+00 
1.2500000e+00 2.5000000e+00 5.1170001e+00 
7.5000000e-01 2.5000000e+00 5.1170001e+00 
7.5000000e-01 2.5000000e+00 5.0000000e+00 
0.0000000e+00 2.5000000e+00 4.8829999e+00 
0.0000000e+00 2.5000000e+00 5.1170001e+00 
1.2500000e+00 2.8000000e+00 5.1170001e+00 
1.2500000e+00 2.8000000e+00 4.8829999e+00 
0.0000000e+00 2.8000000e+00 4.8829999e+00 
0.0000000e+00 2.8000000e+00 5.1170001e+00 
7.5000000e-01 2.5000000e+00 5.3829999e+00 
1.2500000e+00 2.5000000e+00 5.3829999e+00 
1.2500000e+00 2.5000000e+00 5.6170001e+00 
7.5000000e-01 2.5000000e+00 5.6170001e+00 
7.5000000e-01 2.5000000e+00 5.5000000e+00 
0.0000000e+00 2.5000000e+00 5.3829999e+00 
0.0000000e+00 2.5000000e+00 5.6170001e+00 
1.2500000e+00 2.8000000e+00 5.6170001e+00 
1.2500000e+00 2.8000000e+00 5.3829999e+00 
0.0000000e+00 2.8000000e+00 5.3829999e+00 
0.0000000e+00 2.8000000e+00 5.6170001e+00 
7.5000000e-01 2.5000000e+00 5.8829999e+00 
1.2500000e+00 2.5000000e+00 5.8829999e+00 
1.2500000e+00 2.5000000e+00 6.1170001e+00 
7.5000000e-01 2.5000000e+00 6.1170001e+00 
7.5000000e-01 2.5000000e+00 6.0000000e+00 
0.0000000e+00 2.5000000e+00 5.8829999e+00 
0.0000000e+00 2.5000000e+00 6.1170001e+00 
1.2500000e+00 2.8000000e+00 6.1170001e+00 
1.2500000e+00 2.8000000e+00 5.8829999e+00 
0.0000000e+00 2.8000000e+00 5.8829999e+00 
0.0000000e+00 2.8000000e+00 6.1170001e+00 
7.5000000e-01 2.5000000e+00 6.3829999e+00 
1.2500000e+00 2.5000000e+00 6.3829999e+00 
1.2500000e+00 2.5000000e+00 6.6170001e+00 
7.5000000e-01 2.5000000e+00 6.6170001e+00 
7.5000000e-01 2.5000000e+00 6.5000000e+00 
0.0000000e+00 2.5000000e+00 6.3829999e+00 
0.0000000e+00 2.5000000e+00 6.6170001e+00 
1.2500000e+00 2.8000000e+00 6.6170001e+00 
1.2500000e+00 2.8000000e+00 6.3829999e+00 
0.0000000e+00 2.8000000e+00 6.3829999e+00 
0.0000000e+00 2.8000000e+00 6.6170001e+00 
7.5000000e-01 2.5000000e+00 6.8829999e+00 
1.2500000e+00 2.5000000e+00 6.8829999e+00 
1.2500000e+00 2.5000000e+00 7.1170001e+00 
7.5000000e-01 2.5000000e+00 7.1170001e+00 
7.5000000e-01 2.5000000e+00 7.0000000e+00 
0.0000000e+00 2.5000000e+00 6.8829999e+00 
0.0000000e+00 2.5000000e+00 7.1170001e+00 
1.2500000e+00 2.8000000e+00 7.1170001e+00 
1.2500000e+00 2.8000000e+00 6.8829999e+00 
0.0000000e+00 2.8000000e+00 6.8829999e+00 
0.0000000e+00 2.8000000e+00 7.1170001e+00 
7.5000000e-01 2.5000000e+00 7.3829999e+00 
1.2500000e+00 2.5000000e+00 7.3829999e+00 
1.2500000e+00 2.5000000e+00 7.6170001e+00 
7.5000000e-01 2.5000000e+00 7.6170001e+00 
7.5000000e-01 2.5000000e+00 7.5000000e+00 
0.0000000e+00 2.5000000e+00 7.3829999e+00 
0.0000000e+00 2.5000000e+00 7.6170001e+00 
1.2500000e+00 2.8000000e+00 7.6170001e+00 
1.2500000e+00 2.8000000e+00 7.3829999e+00 
0.0000000e+00 2.8000000e+00 7.3829999e+00 
0.0000000e+00 2.8000000e+00 7.6170001e+00 
7.5000000e-01 2.5000000e+00 7.8829999e+00 
1.2500000e+00 2.5000000e+00 7.8829999e+00 
1.2500000e+00 2.5000000e+00 8.1169996e+00 
7.5000000e-01 2.5000000e+00 8.1169996e+00 
7.5000000e-01 2.5000000e+00 8.0000000e+00 
0.0000000e+00 2.5000000e+00 7.8829999e+00 
0.0000000e+00 2.5000000e+00 8.1169996e+00 
1.2500000e+00 2.8000000e+00 8.1169996e+00 
1.2500000e+00 2.8000000e+00 7.8829999e+00 
0.0000000e+00 2.8000000e+00 7.8829999e+00 
0.0000000e+00 2.8000000e+00 8.1169996e+00 
7.5000000e-01 2.5000000e+00 8.3830004e+00 
1.2500000e+00 2.5000000e+00 8.3830004e+00 
1.2500000e+00 2.5000000e+00 8.6169996e+00 
7.5000000e-01 2.5000000e+00 8.6169996e+00 
7.5000000e-01 2.5000000e+00 8.5000000e+00 
0.0000000e+00 2.5000000e+00 8.3830004e+00 
0.0000000e+00 2.5000000e+00 8.6169996e+00 
1.2500000e+00 2.8000000e+00 8.6169996e+00 
1.2500000e+00 2.8000000e+00 8.3830004e+00 
0.0000000e+00 2.8000000e+00 8.3830004e+00 
0.0000000e+00 2.8000000e+00 8.6169996e+00 
7.5000000e-01 2.5000000e+00 8.8830004e+00 
1.2500000e+00 2.5000000e+00 8.8830004e+00 
1.2500000e+00 2.5000000e+00 9.1169996e+00 
7.5000000e-01 2.5000000e+00 9.1169996e+00 
7.5000000e-01 2.5000000e+00 9.0000000e+00 
0.0000000e+00 2.5000000e+00 8.8830004e+00 
0.0000000e+00 2.5000000e+00 9.1169996e+00 
1.2500000e+00 2.8000000e+00 9.1169996e+00 
1.2500000e+00 2.8000000e+00 8.8830004e+00 
0.0000000e+00 2.8000000e+00 8.8830004e+00 
0.0000000e+00 2.8000000e+00 9.1169996e+00 
7.5000000e-01 2.5000000e+00 9.3830004e+00 
1.2500000e+00 2.5000000e+00 9.3830004e+00 
1.2500000e+00 2.5000000e+00 9.6169996e+00 
7.5000000e-01 2.5000000e+00 9.6169996e+00 
7.5000000e-01 2.5000000e+00 9.5000000e+00 
0.0000000e+00 2.5000000e+00 9.3830004e+00 
0.0000000e+00 2.5000000e+00 9.6169996e+00 
1.2500000e+00 2.8000000e+00 9.6169996e+00 
1.2500000e+00 2.8000000e+00 9.3830004e+00 
0.0000000e+00 2.8000000e+00 9.3830004e+00 
0.0000000e+00 2.8000000e+00 9.6169996e+00 
7.5000000e-01 2.5000000e+00 9.8830004e+00 
1.2500000e+00 2.5000000e+00 9.8830004e+00 
1.2500000e+00 2.5000000e+00 1.0117000e+01 
[...]
POINT_DATA 1827
FIELD FieldData 2
DISPLACEMENT 3 1827  float
0.0000000e+00 0.0000000e+00 0.0000000e+00 
0.0000000e+00 0.0000000e+00 0.0000000e+00 
0.0000000e+00 0.0000000e+00 0.0000000e+00 
0.0000000e+00 0.0000000e+00 0.0000000e+00 
0.0000000e+00 -3.3135577e-05 0.0000000e+00 
0.0000000e+00 -3.5035328e-09 0.0000000e+00 
0.0000000e+00 -2.3919369e-05 0.0000000e+00 
0.0000000e+00 -4.3140862e-08 0.0000000e+00 
0.0000000e+00 -1.1617783e-04 0.0000000e+00 
-2.8458653e-09 -1.1618708e-04 1.4785142e-09 
3.6020837e-09 -1.1616138e-04 -3.6504532e-11 
0.0000000e+00 -1.1615113e-04 0.0000000e+00 
0.0000000e+00 -1.1629274e-04 0.0000000e+00 
0.0000000e+00 -1.1629428e-04 0.0000000e+00 
4.3565018e-09 -1.1618289e-04 3.8642241e-09 
0.0000000e+00 -1.1618432e-04 0.0000000e+00 
0.0000000e+00 -1.1629276e-04 0.0000000e+00 
0.0000000e+00 -1.1629418e-04 0.0000000e+00 
2.0068269e-07 -1.4607479e-04 9.3859342e-08 
2.9992952e-07 -1.4521382e-04 3.0242344e-07 
1.7648962e-07 -1.4549654e-04 3.2791885e-07 
1.1822433e-07 -1.4625858e-04 1.1619954e-07 
1.5156097e-07 -1.4618393e-04 1.0652014e-07 
0.0000000e+00 -1.4647425e-04 0.0000000e+00 
0.0000000e+00 -1.4656982e-04 0.0000000e+00 
-2.9072001e-07 -1.4552182e-04 5.8964395e-07 
-1.7748584e-07 -1.4530295e-04 5.9136812e-07 
0.0000000e+00 -1.4647555e-04 0.0000000e+00 
0.0000000e+00 -1.4653617e-04 0.0000000e+00 
1.8224087e-07 -2.1985985e-04 4.1424818e-07 
2.8100612e-07 -2.1908912e-04 1.0702887e-06 
-1.2912473e-07 -2.1996516e-04 1.0677533e-06 
-8.8343484e-08 -2.2038465e-04 4.4591334e-07 
3.4880170e-08 -2.2014469e-04 4.4187792e-07 
0.0000000e+00 -2.2011746e-04 0.0000000e+00 
0.0000000e+00 -2.2034232e-04 0.0000000e+00 
-4.1832143e-07 -2.1990441e-04 1.9118113e-06 
-7.2933773e-08 -2.1925406e-04 1.9154970e-06 
0.0000000e+00 -2.2016182e-04 0.0000000e+00 
0.0000000e+00 -2.2028577e-04 0.0000000e+00 
5.0936092e-07 -3.2666925e-04 -1.9617064e-08 
6.6209390e-07 -3.2410421e-04 2.4759309e-08 
6.0487554e-07 -3.2462986e-04 5.2667264e-08 
4.6251955e-07 -3.2709463e-04 6.3468537e-09 
4.6364917e-07 -3.2692729e-04 -1.6194243e-09 
0.0000000e+00 -3.2816292e-04 0.0000000e+00 
0.0000000e+00 -3.2833472e-04 0.0000000e+00 
-8.2186767e-07 -3.2474665e-04 6.3116914e-07 
-7.7034423e-07 -3.2428434e-04 6.2169141e-07 
0.0000000e+00 -3.2810695e-04 0.0000000e+00 
0.0000000e+00 -3.2826504e-04 0.0000000e+00 
3.3987621e-07 -4.0194023e-04 -1.0960724e-06 
4.6956777e-07 -3.9952560e-04 -2.0594505e-06 
9.2900478e-07 -3.9957784e-04 -2.0342809e-06 
7.3134862e-07 -4.0195390e-04 -1.0619186e-06 
5.0464337e-07 -4.0200833e-04 -1.0678257e-06 
0.0000000e+00 -4.0307164e-04 0.0000000e+00 
0.0000000e+00 -4.0304274e-04 0.0000000e+00 
-4.4610437e-07 -3.9974437e-04 -1.9707090e-06 
-9.0359202e-07 -3.9969725e-04 -1.9695581e-06 
0.0000000e+00 -4.0298526e-04 0.0000000e+00 
0.0000000e+00 -4.0299847e-04 0.0000000e+00 
7.4298293e-07 -3.4059092e-04 -1.2573757e-06 
9.6897475e-07 -3.3638466e-04 -2.6345488e-06 
1.6798161e-06 -3.3552706e-04 -2.5817153e-06 
1.3031581e-06 -3.3999898e-04 -1.2380046e-06 
9.8607427e-07 -3.4034063e-04 -1.2443609e-06 
0.0000000e+00 -3.4300753e-04 0.0000000e+00 
0.0000000e+00 -3.4278227e-04 0.0000000e+00 
-8.4681363e-07 -3.3586437e-04 -3.4439497e-06 
-1.5339626e-06 -3.3653050e-04 -3.4570051e-06 
0.0000000e+00 -3.4278253e-04 0.0000000e+00 
0.0000000e+00 -3.4270363e-04 0.0000000e+00 
1.3465271e-07 -1.9344811e-04 -4.1674400e-07 
1.9926465e-07 -1.9226703e-04 -1.1646629e-06 
6.2665544e-07 -1.9097720e-04 -1.1809956e-06 
4.5249311e-07 -1.9270444e-04 -3.8518814e-07 
2.6999297e-07 -1.9310389e-04 -4.0876620e-07 
0.0000000e+00 -1.9372907e-04 0.0000000e+00 
0.0000000e+00 -1.9340994e-04 0.0000000e+00 
-1.9539635e-07 -1.9125041e-04 -2.3828713e-06 
-6.3609832e-07 -1.9218949e-04 -2.3834373e-06 
0.0000000e+00 -1.9360770e-04 0.0000000e+00 
0.0000000e+00 -1.9338436e-04 0.0000000e+00 
1.9918146e-07 -7.1336923e-05 9.7080158e-07 
3.0247568e-07 -7.1483184e-05 1.9427328e-06 
-7.9337440e-08 -7.0460483e-05 1.9186200e-06 
-7.8305810e-08 -7.0744813e-05 9.7698364e-07 
5.8945837e-08 -7.1054368e-05 9.5213608e-07 
0.0000000e+00 -7.0953844e-05 0.0000000e+00 
0.0000000e+00 -7.0696042e-05 0.0000000e+00 
-1.3321578e-07 -7.0596929e-05 8.7735907e-07 
2.4721012e-07 -7.1372706e-05 8.6951439e-07 
0.0000000e+00 -7.0972666e-05 0.0000000e+00 
0.0000000e+00 -7.0760652e-05 0.0000000e+00 
3.9875747e-08 -6.4775195e-06 5.8000455e-07 
6.3286265e-08 -6.8676227e-06 1.0093903e-06 
-1.2111369e-07 -6.5091167e-06 9.9681540e-07 
-1.1811473e-07 -6.2257923e-06 5.8243916e-07 
-4.0030375e-08 -6.3503953e-06 5.7221786e-07 
0.0000000e+00 -6.0398265e-06 0.0000000e+00 
0.0000000e+00 -5.9320582e-06 0.0000000e+00 
6.2270587e-08 -6.5276122e-06 6.0568112e-07 
2.4572282e-07 -6.8303921e-06 6.0680861e-07 
0.0000000e+00 -6.0386706e-06 0.0000000e+00 
0.0000000e+00 -5.9507570e-06 0.0000000e+00 
-1.0088937e-07 1.4256751e-05 1.1475520e-07 
-1.7306616e-07 1.3717855e-05 1.3563550e-07 
-1.8123491e-07 1.3825743e-05 1.3950698e-07 
-1.1647150e-07 1.4322246e-05 1.0837718e-07 
-1.0454978e-07 1.4298247e-05 1.1023716e-07 
0.0000000e+00 1.4529698e-05 0.0000000e+00 
0.0000000e+00 1.4561162e-05 0.0000000e+00 
1.3309064e-07 1.3847075e-05 3.0820971e-08 
1.4226146e-07 1.3763444e-05 3.0832268e-08 
0.0000000e+00 1.4519685e-05 0.0000000e+00 
0.0000000e+00 1.4543582e-05 0.0000000e+00 
-7.8136665e-08 1.7105323e-05 1.4309940e-07 
-1.3054739e-07 1.6711958e-05 2.2323263e-07 
-2.0554600e-07 1.6738308e-05 2.1676884e-07 
-1.1866887e-07 1.7127441e-05 1.3744602e-07 
-9.5226127e-08 1.7123593e-05 1.3852767e-07 
0.0000000e+00 1.7312952e-05 0.0000000e+00 
0.0000000e+00 1.7319653e-05 0.0000000e+00 
6.1559362e-08 1.6763841e-05 1.8996407e-07 
9.9601650e-08 1.6739341e-05 1.8727144e-07 
0.0000000e+00 1.7298893e-05 0.0000000e+00 
0.0000000e+00 1.7311228e-05 0.0000000e+00 
1.0749050e-08 1.5087111e-05 3.5843236e-08 
-2.5806640e-08 1.5216871e-05 3.0992275e-08 
-4.0552837e-09 1.5237636e-05 4.0081890e-08 
6.3262289e-09 1.5093022e-05 3.8426435e-08 
6.9734849e-09 1.5089650e-05 3.6687556e-08 
0.0000000e+00 1.5037562e-05 0.0000000e+00 
0.0000000e+00 1.5040401e-05 0.0000000e+00 
-7.1587969e-08 1.5224682e-05 2.1879366e-08 
-7.0611172e-08 1.5211762e-05 2.0363187e-08 
0.0000000e+00 1.5041584e-05 0.0000000e+00 
0.0000000e+00 1.5043531e-05 0.0000000e+00 
1.4658529e-07 8.6537775e-06 3.0942402e-09 
1.9067514e-07 9.1911425e-06 2.0756492e-08 
1.8864796e-07 9.1474039e-06 3.5027121e-08 
1.3647204e-07 8.6241325e-06 7.7818179e-09 
1.3705683e-07 8.6349719e-06 6.8442354e-09 
0.0000000e+00 8.3494624e-06 0.0000000e+00 
0.0000000e+00 8.3313025e-06 0.0000000e+00 
-1.3042619e-07 9.1197999e-06 6.9596851e-08 
-1.1573097e-07 9.1538959e-06 7.0754808e-08 
0.0000000e+00 8.3578807e-06 0.0000000e+00 
0.0000000e+00 8.3446539e-06 0.0000000e+00 
2.6249111e-08 -1.5961145e-06 2.4398520e-07 
3.0645715e-08 -1.5654209e-06 4.5760203e-07 
-7.6212388e-08 -1.5925924e-06 4.6097145e-07 
-5.9889857e-08 -1.5986257e-06 2.4463108e-07 
-1.6920922e-08 -1.5968312e-06 2.4220165e-07 
0.0000000e+00 -1.6098843e-06 0.0000000e+00 
0.0000000e+00 -1.6149058e-06 0.0000000e+00 
-8.0129475e-08 -1.5865023e-06 4.6713492e-07 
2.5945470e-08 -1.5801256e-06 4.6692998e-07 
0.0000000e+00 -1.6144127e-06 0.0000000e+00 
0.0000000e+00 -1.6094342e-06 0.0000000e+00 
-1.3703827e-07 -7.2680305e-06 4.4601279e-08 
-2.0237880e-07 -7.6438173e-06 3.2995739e-09 
-2.0015507e-07 -7.6854240e-06 2.9105822e-09 
-1.3911156e-07 -7.2868361e-06 4.1973795e-08 
-1.3405322e-07 -7.2738085e-06 4.4243148e-08 
0.0000000e+00 -7.0634856e-06 0.0000000e+00 
0.0000000e+00 -7.0709470e-06 0.0000000e+00 
5.2445294e-08 -7.6581146e-06 4.7604349e-08 
4.0662243e-08 -7.6311799e-06 4.5804246e-08 
0.0000000e+00 -7.0752631e-06 0.0000000e+00 
0.0000000e+00 -7.0765632e-06 0.0000000e+00 
-5.2840619e-08 -4.1452413e-06 -1.8677027e-07 
-8.4496051e-08 -4.1423759e-06 -4.3862676e-07 
5.8092940e-08 -4.1056132e-06 -4.2961014e-07 
3.3083953e-08 -4.1302128e-06 -1.9067987e-07 
-9.0625454e-09 -4.1348903e-06 -1.8716197e-07 
0.0000000e+00 -4.1950670e-06 0.0000000e+00 
0.0000000e+00 -4.1886046e-06 0.0000000e+00 
3.8971617e-08 -4.1114527e-06 -4.5252025e-07 
-7.4665621e-08 -4.1322633e-06 -4.5278418e-07 
0.0000000e+00 -4.1868902e-06 0.0000000e+00 
0.0000000e+00 -4.1881972e-06 0.0000000e+00 
4.5459249e-08 3.5742617e-06 -7.3604994e-08 
7.6077484e-08 3.7183306e-06 -1.5467118e-07 
1.1585204e-07 3.8425869e-06 -1.4262335e-07 
8.4965414e-08 3.6394240e-06 -7.5191501e-08 
6.3961991e-08 3.6060887e-06 -7.5413958e-08 
0.0000000e+00 3.4611505e-06 0.0000000e+00 
0.0000000e+00 3.4908430e-06 0.0000000e+00 
3.9567012e-09 3.8150451e-06 -2.6553266e-07 
-4.0927858e-08 3.7292270e-06 -2.6163798e-07 
0.0000000e+00 3.4779623e-06 0.0000000e+00 
0.0000000e+00 3.4954808e-06 0.0000000e+00 
8.5465039e-08 7.0119390e-06 2.8245637e-07 
1.2683195e-07 7.1142381e-06 5.6905776e-07 
-6.0893313e-09 7.1744935e-06 5.7641847e-07 
-1.6827210e-08 7.0516917e-06 2.8659306e-07 
3.2195658e-08 7.0279775e-06 2.8143219e-07 
0.0000000e+00 6.9725493e-06 0.0000000e+00 
0.0000000e+00 6.9899511e-06 0.0000000e+00 
-7.9950489e-08 7.1619447e-06 4.9462284e-07 
5.1326399e-08 7.1095192e-06 4.9662594e-07 
0.0000000e+00 6.9755265e-06 0.0000000e+00 
0.0000000e+00 6.9931980e-06 0.0000000e+00 
8.3323620e-08 2.6702346e-06 5.6138089e-07 
1.0353033e-07 2.6649313e-06 1.1482641e-06 
-1.7169276e-07 2.7111939e-06 1.1474236e-06 
-1.2596219e-07 2.7010510e-06 5.6311421e-07 
-2.0924999e-08 2.6846808e-06 5.5664390e-07 
0.0000000e+00 2.7023141e-06 0.0000000e+00 
0.0000000e+00 2.7201279e-06 0.0000000e+00 
-1.6296561e-07 2.7117785e-06 1.0677373e-06 
1.0994053e-07 2.6623393e-06 1.0678427e-06 
0.0000000e+00 2.7010781e-06 0.0000000e+00 
0.0000000e+00 2.7268354e-06 0.0000000e+00 
4.7940425e-08 -4.0705113e-06 1.3416596e-07 
6.1302678e-08 -3.9673596e-06 2.4982762e-07 
8.1401869e-10 -3.9797260e-06 2.4382845e-07 
2.5081190e-09 -4.0719910e-06 1.3080611e-07 
2.5761171e-08 -4.0694672e-06 1.3129953e-07 
0.0000000e+00 -4.1792314e-06 0.0000000e+00 
0.0000000e+00 -4.1778385e-06 0.0000000e+00 
-5.6704685e-08 -3.9759884e-06 2.4957339e-07 
-1.4309359e-10 -3.9738320e-06 2.4813704e-07 
0.0000000e+00 -4.1760240e-06 0.0000000e+00 
0.0000000e+00 -4.1746071e-06 0.0000000e+00 
-4.2616279e-08 -6.2686468e-06 -2.2217930e-07 
-5.2697445e-08 -6.2858721e-06 -5.0474733e-07 
7.5804515e-08 -6.3081166e-06 -5.1118673e-07 
5.3096116e-08 -6.2828990e-06 -2.2351915e-07 
6.4412480e-09 -6.2755794e-06 -2.2084937e-07 
0.0000000e+00 -6.2828308e-06 0.0000000e+00 
0.0000000e+00 -6.2878094e-06 0.0000000e+00 
8.0720774e-08 -6.3046982e-06 -4.6948671e-07 
-4.8612616e-08 -6.2842055e-06 -4.6916770e-07 
0.0000000e+00 -6.2833269e-06 0.0000000e+00 
0.0000000e+00 -6.2914360e-06 0.0000000e+00 
-1.2411592e-09 -3.1542388e-06 -1.8368813e-07 
-9.1621549e-10 -3.0726483e-06 -3.8218542e-07 
8.8828429e-08 -3.0699186e-06 -3.8042248e-07 
7.0470051e-08 -3.1567479e-06 -1.8373316e-07 
3.4343330e-08 -3.1571612e-06 -1.8206978e-07 
0.0000000e+00 -3.2246357e-06 0.0000000e+00 
0.0000000e+00 -3.2249625e-06 0.0000000e+00 
3.7021547e-08 -3.0771596e-06 -3.7118738e-07 
-5.6085160e-08 -3.0728097e-06 -3.7083231e-07 
0.0000000e+00 -3.2203789e-06 0.0000000e+00 
0.0000000e+00 -3.2272428e-06 0.0000000e+00 
-2.2755668e-09 1.0847986e-06 4.9196302e-08 
-8.2350127e-09 1.0509126e-06 1.1046417e-07 
-4.1451894e-08 1.0763115e-06 1.2007929e-07 
-2.3081503e-08 1.1022265e-06 4.9800892e-08 
-1.3281111e-08 1.0932428e-06 4.8517759e-08 
0.0000000e+00 1.1355612e-06 0.0000000e+00 
0.0000000e+00 1.1424899e-06 0.0000000e+00 
-1.3400144e-08 1.0734918e-06 8.4384617e-08 
1.4728292e-08 1.0525097e-06 8.5748837e-08 
0.0000000e+00 1.1356619e-06 0.0000000e+00 
0.0000000e+00 1.1431476e-06 0.0000000e+00 
-1.1547469e-08 2.9620080e-06 6.8714088e-09 
-1.3647441e-08 2.9168273e-06 4.5340954e-08 
-3.0049925e-08 2.9207365e-06 4.5901135e-08 
-2.0966278e-08 2.9635648e-06 8.6196623e-09 
-1.6225931e-08 2.9626829e-06 7.6207005e-09 
0.0000000e+00 3.0061208e-06 0.0000000e+00 
0.0000000e+00 3.0060035e-06 0.0000000e+00 
-1.5561245e-09 2.9218986e-06 3.9399630e-08 
1.4142684e-08 2.9195660e-06 3.9678191e-08 
0.0000000e+00 3.0051924e-06 0.0000000e+00 
0.0000000e+00 3.0065235e-06 0.0000000e+00 
2.0915381e-08 1.9845997e-06 1.1900933e-07 
2.6713471e-08 1.9922550e-06 2.5764916e-07 
-3.3934072e-08 2.0043851e-06 2.5382136e-07 
-2.6016055e-08 1.9930458e-06 1.1934945e-07 
-2.1032451e-09 1.9889317e-06 1.1802759e-07 
0.0000000e+00 1.9768336e-06 0.0000000e+00 
0.0000000e+00 1.9811598e-06 0.0000000e+00 
-4.0159151e-08 2.0054288e-06 2.3569918e-07 
2.2396200e-08 1.9934328e-06 2.3535405e-07 
0.0000000e+00 1.9785746e-06 0.0000000e+00 
0.0000000e+00 1.9832830e-06 0.0000000e+00 
8.8672971e-09 1.2981709e-08 3.5249325e-08 
1.4634210e-08 3.6354415e-08 6.3548185e-08 
-1.5816622e-10 2.1473634e-08 6.0645377e-08 
-3.7301153e-09 6.8157329e-09 3.4916994e-08 
2.9638758e-09 1.0354611e-08 3.4880813e-08 
0.0000000e+00 -8.0892857e-09 0.0000000e+00 
0.0000000e+00 -1.0590515e-08 0.0000000e+00 
-1.3268280e-08 2.4032087e-08 7.4396880e-08 
1.1420273e-09 3.2859933e-08 7.4093720e-08 
0.0000000e+00 -8.0613489e-09 0.0000000e+00 
0.0000000e+00 -9.5167438e-09 0.0000000e+00 
5.8875216e-09 -1.0776122e-06 -5.6842411e-09 
4.5598956e-09 -1.0512468e-06 -1.9809137e-08 
9.6787334e-09 -1.0567686e-06 -1.9701796e-08 
9.2363965e-09 -1.0801542e-06 -6.6008368e-09 
7.5327131e-09 -1.0785540e-06 -6.0573155e-09 
0.0000000e+00 -1.1082690e-06 0.0000000e+00 
0.0000000e+00 -1.1087304e-06 0.0000000e+00 
-4.3284833e-09 -1.0562884e-06 -1.3669030e-08 
-9.8326680e-09 -1.0524733e-06 -1.3924581e-08 
0.0000000e+00 -1.1070924e-06 0.0000000e+00 
0.0000000e+00 -1.1084837e-06 0.0000000e+00 
-4.1126267e-09 -7.2893113e-07 -1.8028874e-08 
-5.8704908e-09 -7.3417215e-07 -4.0615962e-08 
6.0049326e-09 -7.3059414e-07 -4.0448040e-08 
3.8422603e-09 -7.2700499e-07 -1.8014690e-08 
-1.8858642e-10 -7.2808433e-07 -1.7952674e-08 
0.0000000e+00 -7.2334609e-07 0.0000000e+00 
0.0000000e+00 -7.2256364e-07 0.0000000e+00 
7.8131146e-09 -7.3145077e-07 -4.2677168e-08 
-2.7040508e-09 -7.3372320e-07 -4.2704816e-08 
0.0000000e+00 -7.2347893e-07 0.0000000e+00 
0.0000000e+00 -7.2323394e-07 0.0000000e+00 
2.5775107e-10 1.4375998e-08 2.0756250e-08 
1.7147240e-09 4.3981196e-09 4.7199489e-08 
-1.0673849e-08 1.0842569e-08 4.9078690e-08 
-8.4799305e-09 1.8551290e-08 2.1355334e-08 
-4.2147441e-09 1.6155354e-08 2.0804931e-08 
0.0000000e+00 3.0970334e-08 0.0000000e+00 
0.0000000e+00 3.2428492e-08 0.0000000e+00 
-4.6036046e-09 9.7243147e-09 3.9865970e-08 
7.2995174e-09 4.4109898e-09 4.0292004e-08 
0.0000000e+00 3.0617066e-08 0.0000000e+00 
0.0000000e+00 3.2511661e-08 0.0000000e+00 
3.6917915e-09 3.0483400e-07 3.0147991e-08 
5.4350027e-09 3.0098681e-07 6.1762321e-08 
-9.2886001e-09 3.0715302e-07 6.1925938e-08 
-7.4861344e-09 3.0933717e-07 3.0311561e-08 
-1.8317985e-09 3.0703418e-07 2.9897649e-08 
0.0000000e+00 3.1258838e-07 0.0000000e+00 
0.0000000e+00 3.1444657e-07 0.0000000e+00 
-7.1426332e-09 3.0676230e-07 5.3631432e-08 
7.2270092e-09 3.0116226e-07 5.3743264e-08 
0.0000000e+00 3.1255823e-07 0.0000000e+00 
0.0000000e+00 3.1453175e-07 0.0000000e+00 
3.8727870e-09 1.8362600e-07 1.0588608e-08 
6.3727748e-09 1.8943634e-07 2.3096476e-08 
8.0556778e-10 1.8938701e-07 2.1342087e-08 
-2.5318769e-10 1.8399022e-07 1.0437097e-08 
1.8784803e-09 1.8377790e-07 1.0419082e-08 
0.0000000e+00 1.7831663e-07 0.0000000e+00 
0.0000000e+00 1.7841711e-07 0.0000000e+00 
-3.4184042e-09 1.8958322e-07 2.1472792e-08 
2.0379223e-09 1.8914270e-07 2.1217193e-08 
0.0000000e+00 1.7828471e-07 0.0000000e+00 
0.0000000e+00 1.7876741e-07 0.0000000e+00 
-1.0181384e-09 -4.0059415e-08 -1.3688372e-08 
-1.5904182e-09 -3.4171645e-08 -2.8040279e-08 
4.8686188e-09 -3.7200294e-08 -2.8295542e-08 
4.0132053e-09 -4.2241879e-08 -1.3907751e-08 
1.5182851e-09 -4.1010253e-08 -1.3649844e-08 
0.0000000e+00 -4.7827157e-08 0.0000000e+00 
0.0000000e+00 -4.8823864e-08 0.0000000e+00 
1.6727305e-09 -3.7060573e-08 -2.4172593e-08 
-4.8962399e-09 -3.4285218e-08 -2.4304697e-08 
0.0000000e+00 -4.7592184e-08 0.0000000e+00 
0.0000000e+00 -4.8780290e-08 0.0000000e+00 
-8.5754193e-10 -7.0490231e-08 -1.1474773e-08 
-1.0540583e-09 -6.7653517e-08 -2.1365171e-08 
3.4542300e-09 -6.8922645e-08 -2.1275667e-08 
3.0540481e-09 -7.1376334e-08 -1.1463992e-08 
1.1195327e-09 -7.0962614e-08 -1.1376314e-08 
0.0000000e+00 -7.3686245e-08 0.0000000e+00 
0.0000000e+00 -7.3921136e-08 0.0000000e+00 
1.9223507e-09 -6.8924166e-08 -1.9580987e-08 
-2.7432692e-09 -6.7664502e-08 -1.9595168e-08 
0.0000000e+00 -7.3497588e-08 0.0000000e+00 
0.0000000e+00 -7.4143088e-08 0.0000000e+00 
4.7264564e-10 5.3111946e-09 6.7708230e-09 
3.9612513e-10 3.4707128e-09 1.4904119e-08 
-3.3879866e-09 5.4437375e-09 1.5182456e-08 
-2.2488749e-09 6.6638592e-09 6.9476047e-09 
-9.3782915e-10 5.9124488e-09 6.7788468e-09 
0.0000000e+00 8.1483620e-09 0.0000000e+00 
0.0000000e+00 8.6856078e-09 0.0000000e+00 
-2.0066120e-09 5.2425420e-09 1.2550879e-08 
1.6347880e-09 3.5879826e-09 1.2565028e-08 
0.0000000e+00 8.1496809e-09 0.0000000e+00 
0.0000000e+00 8.5910763e-09 0.0000000e+00 
3.3671668e-09 1.2328147e-08 1.8189825e-08 
4.0175112e-09 1.3179536e-08 3.8791878e-08 
-4.9383755e-09 1.5332191e-08 3.8657706e-08 
-3.7071417e-09 1.3738138e-08 1.8253720e-08 
-1.7670736e-10 1.3006334e-08 1.8048230e-08 
0.0000000e+00 1.2315164e-08 0.0000000e+00 
0.0000000e+00 1.3106934e-08 0.0000000e+00 
-5.7131744e-09 1.5265005e-08 3.5388556e-08 
3.7690220e-09 1.3185568e-08 3.5383842e-08 
0.0000000e+00 1.2383954e-08 0.0000000e+00 
0.0000000e+00 1.3324907e-08 0.0000000e+00 
1.7275494e-09 -1.6902799e-08 6.6691106e-09 
2.2940061e-09 -1.4695536e-08 1.3439883e-08 
-8.9285795e-10 -1.3285126e-08 1.3399274e-08 
-6.7138117e-10 -1.5843302e-08 6.6233325e-09 
5.2232701e-10 -1.6337738e-08 6.5748642e-09 
0.0000000e+00 -1.8624048e-08 0.0000000e+00 
0.0000000e+00 -1.8166373e-08 0.0000000e+00 
-2.2634008e-09 -1.3444946e-08 1.1551014e-08 
8.3037260e-10 -1.4737583e-08 1.1542174e-08 
0.0000000e+00 -1.8480776e-08 0.0000000e+00 
0.0000000e+00 -1.8080383e-08 0.0000000e+00 
1.1607165e-09 -7.5568671e-09 5.8175793e-09 
1.9581308e-09 -8.3226679e-09 1.2306866e-08 
-1.1734028e-09 -7.3826834e-09 1.2015310e-08 
-1.0129521e-09 -6.7972699e-09 5.8120864e-09 
5.4578463e-11 -7.1498780e-09 5.7587286e-09 
0.0000000e+00 -6.0642500e-09 0.0000000e+00 
0.0000000e+00 -5.7420508e-09 0.0000000e+00 
-8.2641916e-10 -7.4058817e-09 1.0780529e-08 
2.0689082e-09 -8.3382590e-09 1.0759956e-08 
0.0000000e+00 -6.1816290e-09 0.0000000e+00 
0.0000000e+00 -5.7557563e-09 0.0000000e+00 
-7.5001944e-10 2.2469751e-08 -2.1663509e-09 
-8.3233992e-10 2.1234476e-08 -4.5258721e-09 
2.7315164e-10 2.0748502e-08 -4.6634567e-09 
7.4976192e-11 2.2151603e-08 -2.1644351e-09 
-3.4901018e-10 2.2314062e-08 -2.1418365e-09 
0.0000000e+00 2.4173666e-08 0.0000000e+00 
0.0000000e+00 2.4006225e-08 0.0000000e+00 
1.0284268e-09 2.0807882e-08 -3.9496273e-09 
-6.6547080e-11 2.1222819e-08 -3.9735499e-09 
0.0000000e+00 2.4051912e-08 0.0000000e+00 
0.0000000e+00 2.3953366e-08 0.0000000e+00 
-1.9620656e-09 2.0162032e-08 -5.3572067e-09 
-2.3468036e-09 1.5931059e-08 -1.1204190e-08 
3.3235287e-10 1.4815441e-08 -1.1402871e-08 
9.3380775e-11 1.9360822e-08 -5.3280909e-09 
-9.3162933e-10 1.9778570e-08 -5.2814797e-09 
0.0000000e+00 2.3719966e-08 0.0000000e+00 
0.0000000e+00 2.3304279e-08 0.0000000e+00 
2.8370171e-09 1.5036621e-08 -9.7951842e-09 
1.3628734e-10 1.6032752e-08 -9.8170929e-09 
0.0000000e+00 2.3431426e-08 0.0000000e+00 
0.0000000e+00 2.3173625e-08 0.0000000e+00 
-8.1507617e-10 -1.4552334e-08 -2.0709441e-09 
-9.2280839e-10 -1.5517395e-08 -4.0287871e-09 
-2.4667551e-11 -1.6007775e-08 -4.0192356e-09 
-7.1956954e-11 -1.4898766e-08 -2.0841389e-09 
-4.2964135e-10 -1.4709959e-08 -2.0515394e-09 
0.0000000e+00 -1.4080095e-08 0.0000000e+00 
0.0000000e+00 -1.4240136e-08 0.0000000e+00 
5.8239719e-10 -1.5953486e-08 -3.4291947e-09 
-3.1107919e-10 -1.5525840e-08 -3.4327405e-09 
0.0000000e+00 -1.4135836e-08 0.0000000e+00 
0.0000000e+00 -1.4266408e-08 0.0000000e+00 
0.0000000e+00 -4.9022492e-05 0.0000000e+00 
0.0000000e+00 -8.9861816e-09 0.0000000e+00 
-1.1393303e-11 -3.3138697e-08 -2.3966825e-12 
1.6772883e-11 -3.3398230e-08 -4.5927420e-12 
0.0000000e+00 -3.3407087e-08 0.0000000e+00 