# vtk DataFile Version 4.0
vtk output
ASCII
DATASET UNSTRUCTURED_GRID
POINTS 1827 float
0.0000000e+00 0.0000000e+00 0.0000000e+00 
0.0000000e+00 0.0000000e+00 2.0000000e+01 
3.4700000e+00 0.0000000e+00 0.0000000e+00 
3.4700000e+00 0.0000000e+00 2.0000000e+01 
3.4700000e+00 1.0000000e+00 0.0000000e+00 
3.4700000e+00 1.0000000e+00 2.0000000e+01 
0.0000000e+00 1.0000000e+00 0.0000000e+00 
0.0000000e+00 1.0000000e+00 2.0000000e+01 
1.2500000e+00 2.5000000e+00 0.0000000e+00 
1.2500000e+00 2.5000000e+00 1.1700000e-01 
7.5000000e-01 2.5000000e+00 1.1700000e-01 
7.5000000e-01 2.5000000e+00 0.0000000e+00 
0.0000000e+00 2.5000000e+00 0.0000000e+00 
0.0000000e+00 2.5000000e+00 1.1700000e-01 
1.2500000e+00 2.8000000e+00 1.1700000e-01 
1.2500000e+00 2.8000000e+00 0.0000000e+00 
0.0000000e+00 2.8000000e+00 0.0000000e+00 
0.0000000e+00 2.8000000e+00 1.1700000e-01 
7.5000000e-01 2.5000000e+00 3.8299999e-01 
1.2500000e+00 2.5000000e+00 3.8299999e-01 
1.2500000e+00 2.5000000e+00 6.1699998e-01 
7.5000000e-01 2.5000000e+00 6.1699998e-01 
7.5000000e-01 2.5000000e+00 5.0000000e-01 
0.0000000e+00 2.5000000e+00 3.8299999e-01 
0.0000000e+00 2.5000000e+00 6.1699998e-01 
1.2500000e+00 2.8000000e+00 6.1699998e-01 
1.2500000e+00 2.8000000e+00 3.8299999e-01 
0.0000000e+00 2.8000000e+00 3.8299999e-01 
0.0000000e+00 2.8000000e+00 6.1699998e-01 
7.5000000e-01 2.5000000e+00 8.8300002e-01 
1.2500000e+00 2.5000000e+00 8.8300002e-01 
1.2500000e+00 2.5000000e+00 1.1170000e+00 
7.5000000e-01 2.5000000e+00 1.1170000e+00 
7.5000000e-01 2.5000000e+00 1.0000000e+00 
0.0000000e+00 2.5000000e+00 8.8300002e-01 
0.0000000e+00 2.5000000e+00 1.1170000e+00 
1.2500000e+00 2.8000000e+00 1.1170000e+00 
1.2500000e+00 2.8000000e+00 8.8300002e-01 
0.0000000e+00 2.8000000e+00 8.8300002e-01 
0.0000000e+00 2.8000000e+00 1.1170000e+00 
7.5000000e-01 2.5000000e+00 1.3830000e+00 
1.2500000e+00 2.5000000e+00 1.3830000e+00 
1.2500000e+00 2.5000000e+00 1.6170000e+00 
7.5000000e-01 2.5000000e+00 1.6170000e+00 
7.5000000e-01 2.5000000e+00 1.5000000e+00 
0.0000000e+00 2.5000000e+00 1.3830000e+00 
0.0000000e+00 2.5000000e+00 1.6170000e+00 
1.2500000e+00 2.8000000e+00 1.6170000e+00 
1.2500000e+00 2.8000000e+00 1.3830000e+00 
0.0000000e+00 2.8000000e+00 1.3830000e+00 
0.0000000e+00 2.8000000e+00 1.6170000e+00 
7.5000000e-01 2.5000000e+00 1.8830000e+00 
1.2500000e+00 2.5000000e+00 1.8830000e+00 
1.2500000e+00 2.5000000e+00 2.1170001e+00 
7.5000000e-01 2.5000000e+00 2.1170001e+00 
7.5000000e-01 2.5000000e+00 2.0000000e+00 
0.0000000e+00 2.5000000e+00 1.8830000e+00 
0.0000000e+00 2.5000000e+00 2.1170001e+00 
1.2500000e+00 2.8000000e+00 2.1170001e+00 
1.2500000e+00 2.8000000e+00 1.8830000e+00 
0.0000000e+00 2.8000000e+00 1.8830000e+00 
0.0000000e+00 2.8000000e+00 2.1170001e+00 
7.5000000e-01 2.5000000e+00 2.3829999e+00 
1.2500000e+00 2.5000000e+00 2.3829999e+00 
1.2500000e+00 2.5000000e+00 2.6170001e+00 
7.5000000e-01 2.5000000e+00 2.6170001e+00 
7.5000000e-01 2.5000000e+00 2.5000000e+00 
0.0000000e+00 2.5000000e+00 2.3829999e+00 
0.0000000e+00 2.5000000e+00 2.6170001e+00 
1.2500000e+00 2.8000000e+00 2.6170001e+00 
1.2500000e+00 2.8000000e+00 2.3829999e+00 
0.0000000e+00 2.8000000e+00 2.3829999e+00 
0.0000000e+00 2.8000000e+00 2.6170001e+00 
7.5000000e-01 2.5000000e+00 2.8829999e+00 
1.2500000e+00 2.5000000e+00 2.8829999e+00 
1.2500000e+00 2.5000000e+00 3.1170001e+00 
7.5000000e-01 2.5000000e+00 3.1170001e+00 
7.5000000e-01 2.5000000e+00 3.0000000e+00 
0.0000000e+00 2.5000000e+00 2.8829999e+00 
0.0000000e+00 2.5000000e+00 3.1170001e+00 
1.2500000e+00 2.8000000e+00 3.1170001e+00 
1.2500000e+00 2.8000000e+00 2.8829999e+00 
0.0000000e+00 2.8000000e+00 2.8829999e+00 
0.0000000e+00 2.8000000e+00 3.1170001e+00 
7.5000000e-01 2.5000000e+00 3.3829999e+00 
1.2500000e+00 2.5000000e+00 3.3829999e+00 
1.2500000e+00 2.5000000e+00 3.6170001e+00 
7.5000000e-01 2.5000000e+00 3.6170001e+00 
7.5000000e-01 2.5000000e+00 3.5000000e+00 
0.0000000e+00 2.5000000e+00 3.3829999e+00 
0.0000000e+00 2.5000000e+00 3.6170001e+00 
1.2500000e+00 2.8000000e+00 3.6170001e+00 
1.2500000e+00 2.8000000e+00 3.3829999e+00 
0.0000000e+00 2.8000000e+00 3.3829999e+00 
0.0000000e+00 2.8000000e+00 3.6170001e+00 
7.5000000e-01 2.5000000e+00 3.8829999e+00 
1.2500000e+00 2.5000000e+00 3.8829999e+00 
1.2500000e+00 2.5000000e+00 4.1170001e+00 
7.5000000e-01 2.5000000e+00 4.1170001e+00 
7.5000000e-01 2.5000000e+00 4.0000000e+00 
0.0000000e+00 2.5000000e+00 3.8829999e+00 
0.0000000e+00 2.5000000e+00 4.1170001e+00 
1.2500000e+00 2.8000000e+00 4.1170001e+00 
1.2500000e+00 2.8000000e+00 3.8829999e+00 
0.0000000e+00 2.8000000e+00 3.8829999e+00 
0.0000000e+00 2.8000000e+00 4.1170001e+00 
7.5000000e-01 2.5000000e+00 4.3829999e+00 
1.2500000e+00 2.5000000e+00 4.3829999e+00 
1.2500000e+00 2.5000000e+00 4.6170001e+00 
7.5000000e-01 2.5000000e+00 4.6170001e+00 
7.5000000e-01 2.5000000e+00 4.5000000e+00 
0.0000000e+00 2.5000000e+00 4.3829999e+00 
0.0000000e+00 2.5000000e+00 4.6170001e+00 
1.2500000e+00 2.8000000e+00 4.6170001e+00 
1.2500000e+00 2.8000000e+00 4.3829999e+00 
0.0000000e+00 2.8000000e+00 4.3829999e+00 
0.0000000e+00 2.8000000e+00 4.6170001e+00 
7.5000000e-01 2.5000000e+00 4.8829999e+00 
1.2500000e+00 2.5000000e+00 4.8829999e+00 
1.2500000e+00 2.5000000e+00 5.1170001e+00 
7.5000000e-01 2.5000000e+00 5.1170001e+00 
7.5000000e-01 2.5000000e+00 5.0000000e+00 
0.0000000e+00 2.5000000e+00 4.8829999e+00 
0.0000000e+00 2.5000000e+00 5.1170001e+00 
1.2500000e+00 2.8000000e+00 5.1170001e+00 
1.2500000e+00 2.8000000e+00 4.8829999e+00 
0.0000000e+00 2.8000000e+00 4.8829999e+00 
0.0000000e+00 2.8000000e+00 5.1170001e+00 
7.5000000e-01 2.5000000e+00 5.3829999e+00 
1.2500000e+00 2.5000000e+00 5.3829999e+00 
1.2500000e+00 2.5000000e+00 5.6170001e+00 
7.5000000e-01 2.5000000e+00 5.6170001e+00 
7.5000000e-01 2.5000000e+00 5.5000000e+00 
0.0000000e+00 2.5000000e+00 5.3829999e+00 
0.0000000e+00 2.5000000e+00 5.6170001e+00 
1.2500000e+00 2.8000000e+00 5.6170001e+00 
1.2500000e+00 2.8000000e+00 5.3829999e+00 
0.0000000e+00 2.8000000e+00 5.3829999e+00 
0.0000000e+00 2.8000000e+00 5.6170001e+00 
7.5000000e-01 2.5000000e+00 5.8829999e+00 
1.2500000e+00 2.5000000e+00 5.8829999e+00 
1.2500000e+00 2.5000000e+00 6.1170001e+00 
7.5000000e-01 2.5000000e+00 6.1170001e+00 
7.5000000e-01 2.5000000e+00 6.0000000e+00 
0.0000000e+00 2.5000000e+00 5.8829999e+00 
0.0000000e+00 2.5000000e+00 6.1170001e+00 
1.2500000e+00 2.8000000e+00 6.1170001e+00 
1.2500000e+00 2.8000000e+00 5.8829999e+00 
0.0000000e+00 2.8000000e+00 5.8829999e+00 
0.0000000e+00 2.8000000e+00 6.1170001e+00 
7.5000000e-01 2.5000000e+00 6.3829999e+00 
1.2500000e+00 2.5000000e+00 6.3829999e+00 
1.2500000e+00 2.5000000e+00 6.6170001e+00 
7.5000000e-01 2.5000000e+00 6.6170001e+00 
7.5000000e-01 2.5000000e+00 6.5000000e+00 
0.0000000e+00 2.5000000e+00 6.3829999e+00 
0.0000000e+00 2.5000000e+00 6.6170001e+00 
1.2500000e+00 2.8000000e+00 6.6170001e+00 
1.2500000e+00 2.8000000e+00 6.3829999e+00 
0.0000000e+00 2.8000000e+00 6.3829999e+00 
0.0000000e+00 2.8000000e+00 6.6170001e+00 
7.5000000e-01 2.5000000e+00 6.8829999e+00 
1.2500000e+00 2.5000000e+00 6.8829999e+00 
1.2500000e+00 2.5000000e+00 7.1170001e+00 
7.5000000e-01 2.5000000e+00 7.1170001e+00 
7.5000000e-01 2.5000000e+00 7.0000000e+00 
0.0000000e+00 2.5000000e+00 6.8829999e+00 
0.0000000e+00 2.5000000e+00 7.1170001e+00 
1.2500000e+00 2.8000000e+00 7.1170001e+00 
1.2500000e+00 2.8000000e+00 6.8829999e+00 
0.0000000e+00 2.8000000e+00 6.8829999e+00 
0.0000000e+00 2.8000000e+00 7.1170001e+00 
7.5000000e-01 2.5000000e+00 7.3829999e+00 
1.2500000e+00 2.5000000e+00 7.3829999e+00 
1.2500000e+00 2.5000000e+00 7.6170001e+00 
7.5000000e-01 2.5000000e+00 7.6170001e+00 
7.5000000e-01 2.5000000e+00 7.5000000e+00 
0.0000000e+00 2.5000000e+00 7.3829999e+00 
0.0000000e+00 2.5000000e+00 7.6170001e+00 
1.2500000e+00 2.8000000e+00 7.6170001e+00 
1.2500000e+00 2.8000000e+00 7.3829999e+00 
0.0000000e+00 2.8000000e+00 7.3829999e+00 
0.0000000e+00 2.8000000e+00 7.6170001e+00 
7.5000000e-01 2.5000000e+00 7.8829999e+00 
1.2500000e+00 2.5000000e+00 7.8829999e+00 
1.2500000e+00 2.5000000e+00 8.1169996e+00 
7.5000000e-01 2.5000000e+00 8.1169996e+00 
7.5000000e-01 2.5000000e+00 8.0000000e+00 
0.0000000e+00 2.5000000e+00 7.8829999e+00 
0.0000000e+00 2.5000000e+00 8.1169996e+00 
1.2500000e+00 2.8000000e+00 8.1169996e+00 
1.2500000e+00 2.8000000e+00 7.8829999e+00 
0.0000000e+00 2.8000000e+00 7.8829999e+00 
0.0000000e+00 2.8000000e+00 8.1169996e+00 
7.5000000e-01 2.5000000e+00 8.3830004e+00 
1.2500000e+00 2.5000000e+00 8.3830004e+00 
1.2500000e+00 2.5000000e+00 8.6169996e+00 
7.5000000e-01 2.5000000e+00 8.6169996e+00 
7.5000000e-01 2.5000000e+00 8.5000000e+00 
0.0000000e+00 2.5000000e+00 8.3830004e+00 
0.0000000e+00 2.5000000e+00 8.6169996e+00 
1.2500000e+00 2.8000000e+00 8.6169996e+00 
1.2500000e+00 2.8000000e+00 8.3830004e+00 
0.0000000e+00 2.8000000e+00 8.3830004e+00 
0.0000000e+00 2.8000000e+00 8.6169996e+00 
7.5000000e-01 2.5000000e+00 8.8830004e+00 
1.2500000e+00 2.5000000e+00 8.8830004e+00 
1.2500000e+00 2.5000000e+00 9.1169996e+00 
7.5000000e-01 2.5000000e+00 9.1169996e+00 
7.5000000e-01 2.5000000e+00 9.0000000e+00 
0.0000000e+00 2.5000000e+00 8.8830004e+00 
0.0000000e+00 2.5000000e+00 9.1169996e+00 
1.2500000e+00 2.8000000e+00 9.1169996e+00 
1.2500000e+00 2.8000000e+00 8.8830004e+00 
0.0000000e+00 2.8000000e+00 8.8830004e+00 
0.0000000e+00 2.8000000e+00 9.1169996e+00 
7.5000000e-01 2.5000000e+00 9.3830004e+00 
1.2500000e+00 2.5000000e+00 9.3830004e+00 
1.2500000e+00 2.5000000e+00 9.6169996e+00 
7.5000000e-01 2.5000000e+00 9.6169996e+00 
7.5000000e-01 2.5000000e+00 9.5000000e+00 
0.0000000e+00 2.5000000e+00 9.3830004e+00 
0.0000000e+00 2.5000000e+00 9.6169996e+00 
1.2500000e+00 2.8000000e+00 9.6169996e+00 
1.2500000e+00 2.8000000e+00 9.3830004e+00 
0.0000000e+00 2.8000000e+00 9.3830004e+00 
0.0000000e+00 2.8000000e+00 9.6169996e+00 
7.5000000e-01 2.5000000e+00 9.8830004e+00 
1.2500000e+00 2.5000000e+00 9.8830004e+00 
1.2500000e+00 2.5000000e+00 1.0117000e+01 
[...]
POINT_DATA 1827
FIELD FieldData 2
DISPLACEMENT 3 1827  float
0.0000000e+00 0.0000000e+00 0.0000000e+00 
0.0000000e+00 0.0000000e+00 0.0000000e+00 
0.0000000e+00 0.0000000e+00 0.0000000e+00 
0.0000000e+00 0.0000000e+00 0.0000000e+00 
0.0000000e+00 2.3266901e-05 0.0000000e+00 
0.0000000e+00 1.1558100e-06 0.0000000e+00 
0.0000000e+00 -1.8718520e-06 0.0000000e+00 
0.0000000e+00 -4.8343286e-06 0.0000000e+00 
0.0000000e+00 3.7288977e-05 0.0000000e+00 
3.0475318e-09 3.7292608e-05 7.0141914e-09 
-9.7389352e-10 3.7283186e-05 7.5255391e-10 
0.0000000e+00 3.7277307e-05 0.0000000e+00 
0.0000000e+00 3.7335016e-05 0.0000000e+00 
0.0000000e+00 3.7336406e-05 0.0000000e+00 
-1.9155317e-09 3.7288402e-05 -1.3768836e-09 
0.0000000e+00 3.7289028e-05 0.0000000e+00 
0.0000000e+00 3.7333662e-05 0.0000000e+00 
0.0000000e+00 3.7334448e-05 0.0000000e+00 
-1.3718207e-07 4.8265880e-05 4.9611412e-08 
-1.4745736e-07 4.7617606e-05 2.2899833e-07 
-2.2415028e-07 4.7678423e-05 2.2443261e-07 
-1.8196705e-07 4.8289447e-05 4.8353026e-08 
-1.5756997e-07 4.8277325e-05 4.8089753e-08 
0.0000000e+00 4.8804293e-05 0.0000000e+00 
0.0000000e+00 4.8819871e-05 0.0000000e+00 
1.4717057e-07 4.7691094e-05 1.6097746e-07 
2.1599152e-07 4.7652728e-05 1.6335396e-07 
0.0000000e+00 4.8782666e-05 0.0000000e+00 
0.0000000e+00 4.8800484e-05 0.0000000e+00 
-7.3400145e-08 4.9216753e-05 2.9663809e-08 
-6.8506559e-08 4.8870737e-05 2.5760352e-07 
-1.8883438e-07 4.8827231e-05 2.4618220e-07 
-1.2630186e-07 4.9183065e-05 3.3363470e-08 
-9.8556853e-08 4.9201579e-05 3.0896395e-08 
0.0000000e+00 4.9499955e-05 0.0000000e+00 
0.0000000e+00 4.9487709e-05 0.0000000e+00 
3.4769808e-08 4.8847422e-05 2.8245026e-07 
1.2887872e-07 4.8885569e-05 2.8261158e-07 
0.0000000e+00 4.9484857e-05 0.0000000e+00 
0.0000000e+00 4.9483067e-05 0.0000000e+00 
-1.4111363e-07 4.0670049e-05 -7.4938538e-07 
-2.0399736e-07 4.0546216e-05 -1.5496507e-06 
1.8260494e-07 4.0318842e-05 -1.5860484e-06 
1.3070327e-07 4.0506813e-05 -7.5499526e-07 
-4.1058872e-09 4.0590072e-05 -7.4361037e-07 
0.0000000e+00 4.0657233e-05 0.0000000e+00 
0.0000000e+00 4.0575429e-05 0.0000000e+00 
2.5192168e-07 4.0349834e-05 -1.2744823e-06 
-1.1498137e-07 4.0553357e-05 -1.2821973e-06 
0.0000000e+00 4.0641356e-05 0.0000000e+00 
0.0000000e+00 4.0568459e-05 0.0000000e+00 
-7.7864215e-08 3.1893964e-05 -5.4698120e-07 
-1.1926693e-07 3.1948868e-05 -1.1283959e-06 
1.4565862e-07 3.1792595e-05 -1.1321933e-06 
1.2257482e-07 3.1782292e-05 -5.5200400e-07 
2.3443691e-08 3.1843709e-05 -5.4337022e-07 
0.0000000e+00 3.1738495e-05 0.0000000e+00 
0.0000000e+00 3.1697549e-05 0.0000000e+00 
1.2222627e-07 3.1812291e-05 -9.3426456e-07 
-1.3925933e-07 3.1948352e-05 -9.3444521e-07 
0.0000000e+00 3.1747652e-05 0.0000000e+00 
0.0000000e+00 3.1709205e-05 0.0000000e+00 
-2.8313806e-07 2.8933497e-05 -9.2258165e-07 
-3.8553665e-07 2.8470260e-05 -1.9354309e-06 
8.6456794e-08 2.8253695e-05 -1.9438830e-06 
6.5802070e-08 2.8787334e-05 -9.1976057e-07 
-1.0409150e-07 2.8860668e-05 -9.1078419e-07 
0.0000000e+00 2.9158793e-05 0.0000000e+00 
0.0000000e+00 2.9105686e-05 0.0000000e+00 
3.6895210e-07 2.8298493e-05 -1.6600665e-06 
-8.9966711e-08 2.8485239e-05 -1.6612912e-06 
0.0000000e+00 2.9138395e-05 0.0000000e+00 
0.0000000e+00 2.9083280e-05 0.0000000e+00 
-1.0608836e-07 2.7364698e-05 -2.8671118e-07 
-1.3893866e-07 2.7119584e-05 -5.6030160e-07 
-1.6337601e-08 2.7007838e-05 -5.5530916e-07 
-1.3571261e-08 2.7282878e-05 -2.8256039e-07 
-5.9453367e-08 2.7320561e-05 -2.8097011e-07 
0.0000000e+00 2.7552569e-05 0.0000000e+00 
0.0000000e+00 2.7512018e-05 0.0000000e+00 
1.3704893e-07 2.7022854e-05 -4.2051988e-07 
1.3823846e-08 2.7123768e-05 -4.1927555e-07 
0.0000000e+00 2.7535953e-05 0.0000000e+00 
0.0000000e+00 2.7505052e-05 0.0000000e+00 
-5.6380159e-08 2.2599905e-05 -1.9002678e-07 
-8.0966792e-08 2.2594179e-05 -3.7423047e-07 
1.3112777e-08 2.2529042e-05 -3.6461256e-07 
6.0702945e-09 2.2555789e-05 -1.8881974e-07 
-2.5561258e-08 2.2577657e-05 -1.8743283e-07 
0.0000000e+00 2.2590288e-05 0.0000000e+00 
0.0000000e+00 2.2569155e-05 0.0000000e+00 
2.0718124e-08 2.2533713e-05 -2.9190929e-07 
-5.9933015e-08 2.2590131e-05 -2.9005483e-07 
0.0000000e+00 2.2595488e-05 0.0000000e+00 
0.0000000e+00 2.2575237e-05 0.0000000e+00 
3.8306823e-08 1.7069109e-05 1.3970106e-07 
6.7577702e-08 1.7014545e-05 3.2558319e-07 
-1.8130367e-08 1.6989898e-05 3.3036221e-07 
-2.3465349e-08 1.7055676e-05 1.4048263e-07 
7.0970172e-09 1.7062368e-05 1.3917489e-07 
0.0000000e+00 1.7119060e-05 0.0000000e+00 
0.0000000e+00 1.7110347e-05 0.0000000e+00 
3.1583598e-09 1.6996446e-05 3.3598906e-07 
8.9798945e-08 1.7009814e-05 3.3938491e-07 
0.0000000e+00 1.7109918e-05 0.0000000e+00 
0.0000000e+00 1.7110249e-05 0.0000000e+00 
5.6328204e-08 1.2423066e-05 4.9426222e-07 
8.9100546e-08 1.2158959e-05 1.0425503e-06 
-1.6332000e-07 1.2246795e-05 1.0297778e-06 
-1.3220971e-07 1.2481624e-05 4.9294920e-07 
-3.6880628e-08 1.2456090e-05 4.8848534e-07 
0.0000000e+00 1.2624912e-05 0.0000000e+00 
0.0000000e+00 1.2647520e-05 0.0000000e+00 
-2.6082429e-08 1.2254215e-05 9.1568222e-07 
2.1967334e-07 1.2176109e-05 9.1655664e-07 
0.0000000e+00 1.2613104e-05 0.0000000e+00 
0.0000000e+00 1.2643179e-05 0.0000000e+00 
1.0437802e-07 1.0106015e-05 6.3889598e-07 
1.1223410e-07 1.0115329e-05 1.2699342e-06 
-1.7292767e-07 1.0257560e-05 1.2630331e-06 
-1.2442199e-07 1.0198833e-05 6.4172144e-07 
-9.2058494e-09 1.0150245e-05 6.3311194e-07 
0.0000000e+00 1.0118749e-05 0.0000000e+00 
0.0000000e+00 1.0163413e-05 0.0000000e+00 
-1.8182307e-07 1.0248107e-05 1.0918661e-06 
1.0416265e-07 1.0126021e-05 1.0910763e-06 
0.0000000e+00 1.0128285e-05 0.0000000e+00 
0.0000000e+00 1.0167922e-05 0.0000000e+00 
3.0067184e-08 6.5436843e-06 2.0549760e-07 
4.2318305e-08 6.5595409e-06 3.6819091e-07 
-3.2421173e-08 6.5181280e-06 3.6453426e-07 
-4.0266148e-08 6.5310578e-06 2.0712058e-07 
-5.9671965e-09 6.5370464e-06 2.0577683e-07 
0.0000000e+00 6.6089879e-06 0.0000000e+00 
0.0000000e+00 6.6032530e-06 0.0000000e+00 
-3.7306879e-08 6.5242452e-06 3.9356067e-07 
4.4687688e-08 6.5426648e-06 3.9342089e-07 
0.0000000e+00 6.6023103e-06 0.0000000e+00 
0.0000000e+00 6.6044990e-06 0.0000000e+00 
5.3923102e-08 -8.5585995e-08 -1.0441461e-07 
6.2464871e-08 7.2012249e-08 -1.7802837e-07 
1.0119820e-07 -1.5394658e-08 -1.7000953e-07 
7.8520365e-08 -1.4608253e-07 -1.1179878e-07 
6.7229550e-08 -1.1302898e-07 -1.0600384e-07 
0.0000000e+00 -2.5897688e-07 0.0000000e+00 
0.0000000e+00 -2.8573749e-07 0.0000000e+00 
3.2860539e-09 -9.6130401e-09 -8.3356738e-08 
-2.2992948e-08 6.1637365e-08 -8.2762817e-08 
0.0000000e+00 -2.6019467e-07 0.0000000e+00 
0.0000000e+00 -2.8452186e-07 0.0000000e+00 
1.3711487e-08 -8.3796594e-06 2.0336347e-07 
1.2539361e-08 -8.4372132e-06 4.5573850e-07 
-1.1001013e-07 -8.4796829e-06 4.5900472e-07 
-7.5176466e-08 -8.4030034e-06 2.0143968e-07 
-2.8873743e-08 -8.3873019e-06 2.0072457e-07 
0.0000000e+00 -8.4127905e-06 0.0000000e+00 
0.0000000e+00 -8.4245121e-06 0.0000000e+00 
-6.4334763e-08 -8.4633566e-06 4.8192260e-07 
5.6635972e-08 -8.4372687e-06 4.8188673e-07 
0.0000000e+00 -8.4162784e-06 0.0000000e+00 
0.0000000e+00 -8.4189387e-06 0.0000000e+00 
-5.0343644e-08 -2.2351120e-05 -6.6684862e-08 
-5.9193219e-08 -2.2606086e-05 -1.9598867e-08 
-9.8035763e-08 -2.2837847e-05 -2.4767662e-08 
-6.4019055e-08 -2.2518125e-05 -7.2118148e-08 
-5.3802822e-08 -2.2428798e-05 -6.5058487e-08 
0.0000000e+00 -2.2253433e-05 0.0000000e+00 
0.0000000e+00 -2.2315577e-05 0.0000000e+00 
7.2198915e-08 -2.2798660e-05 2.2049871e-07 
1.0208513e-07 -2.2606291e-05 2.2147576e-07 
0.0000000e+00 -2.2279883e-05 0.0000000e+00 
0.0000000e+00 -2.2320928e-05 0.0000000e+00 
1.3971082e-07 -5.3683325e-05 -3.6236454e-08 
1.6374173e-07 -5.3128046e-05 -1.2353837e-07 
1.8334842e-07 -5.3538835e-05 -1.2482974e-07 
1.2927046e-07 -5.3915854e-05 -2.6206701e-08 
1.2903236e-07 -5.3805456e-05 -2.8182111e-08 
0.0000000e+00 -5.3960033e-05 0.0000000e+00 
0.0000000e+00 -5.4062952e-05 0.0000000e+00 
-9.4463850e-08 -5.3510565e-05 2.8625115e-07 
-1.0363916e-07 -5.3212305e-05 2.8700390e-07 
0.0000000e+00 -5.3976684e-05 0.0000000e+00 
0.0000000e+00 -5.4045788e-05 0.0000000e+00 
1.9844367e-07 -1.2036961e-04 -5.4973731e-07 
3.1433152e-07 -1.1931254e-04 -8.2708840e-07 
4.2207284e-07 -1.2010521e-04 -8.2614054e-07 
2.8710684e-07 -1.2087526e-04 -5.2171265e-07 
2.2799752e-07 -1.2064788e-04 -5.2148886e-07 
0.0000000e+00 -1.2075217e-04 0.0000000e+00 
0.0000000e+00 -1.2097333e-04 0.0000000e+00 
-1.3190729e-07 -1.2009635e-04 -6.9395369e-09 
-2.2821605e-07 -1.1946926e-04 -1.1258190e-08 
0.0000000e+00 -1.2078934e-04 0.0000000e+00 
0.0000000e+00 -1.2097206e-04 0.0000000e+00 
4.0075864e-07 -2.2635469e-04 1.0150122e-06 
4.9825132e-07 -2.2531718e-04 1.9204954e-06 
4.0167841e-08 -2.2589785e-04 1.9390150e-06 
-4.2899320e-09 -2.2668783e-04 1.0421827e-06 
1.8142038e-07 -2.2654302e-04 1.0228798e-06 
0.0000000e+00 -2.2671465e-04 0.0000000e+00 
0.0000000e+00 -2.2687277e-04 0.0000000e+00 
-4.7809618e-07 -2.2588950e-04 2.4612757e-06 
-9.2414065e-10 -2.2548699e-04 2.4549870e-06 
0.0000000e+00 -2.2673955e-04 0.0000000e+00 
0.0000000e+00 -2.2680650e-04 0.0000000e+00 
6.0624018e-07 -3.3102088e-04 -5.6094444e-07 
8.2247919e-07 -3.2802497e-04 -9.2951632e-07 
9.7622444e-07 -3.2860113e-04 -8.8199380e-07 
7.3195127e-07 -3.3138972e-04 -5.0302583e-07 
6.3518468e-07 -3.3126809e-04 -5.2167445e-07 
0.0000000e+00 -3.3249089e-04 0.0000000e+00 
0.0000000e+00 -3.3263455e-04 0.0000000e+00 
-7.0142755e-07 -3.2874828e-04 -3.0374073e-07 
-8.4551834e-07 -3.2828914e-04 -3.0627066e-07 
0.0000000e+00 -3.3243766e-04 0.0000000e+00 
0.0000000e+00 -3.3259403e-04 0.0000000e+00 
5.5167345e-07 -3.4569419e-04 -5.4898931e-07 
6.9764701e-07 -3.4263753e-04 -1.2139258e-06 
1.0634076e-06 -3.4227609e-04 -1.1062704e-06 
7.9445624e-07 -3.4551363e-04 -4.9796222e-07 
6.3684485e-07 -3.4566346e-04 -5.2136721e-07 
0.0000000e+00 -3.4715323e-04 0.0000000e+00 
0.0000000e+00 -3.4706443e-04 0.0000000e+00 
-7.4476213e-07 -3.4256815e-04 -1.4647353e-06 
-1.0647416e-06 -3.4280750e-04 -1.4571904e-06 
0.0000000e+00 -3.4703675e-04 0.0000000e+00 
0.0000000e+00 -3.4701714e-04 0.0000000e+00 
1.8448367e-07 -2.3436580e-04 1.8643287e-07 
2.1717200e-07 -2.3322659e-04 -1.6354765e-08 
3.8991431e-07 -2.3211776e-04 1.6500435e-08 
2.8981006e-07 -2.3361361e-04 2.5406953e-07 
2.1446421e-07 -2.3404756e-04 2.0215212e-07 
0.0000000e+00 -2.3451031e-04 0.0000000e+00 
0.0000000e+00 -2.3422120e-04 0.0000000e+00 
-3.5173287e-07 -2.3233621e-04 -1.1492070e-06 
-5.0540672e-07 -2.3322603e-04 -1.1400555e-06 
0.0000000e+00 -2.3446459e-04 0.0000000e+00 
0.0000000e+00 -2.3425970e-04 0.0000000e+00 
-9.5803003e-08 -1.0720792e-04 -1.4166133e-06 
-9.6439081e-08 -1.0653494e-04 -2.7780416e-06 
5.7097861e-07 -1.0611251e-04 -2.7676833e-06 
4.5678365e-07 -1.0695214e-04 -1.4016274e-06 
1.7505528e-07 -1.0709496e-04 -1.3987681e-06 
0.0000000e+00 -1.0752428e-04 0.0000000e+00 
0.0000000e+00 -1.0739522e-04 0.0000000e+00 
1.3730920e-07 -1.0622609e-04 -3.1289014e-06 
-5.4052953e-07 -1.0651489e-04 -3.1273487e-06 
0.0000000e+00 -1.0744608e-04 0.0000000e+00 
0.0000000e+00 -1.0740833e-04 0.0000000e+00 
1.0470804e-07 -1.9365063e-05 2.7458896e-07 
1.7796715e-07 -1.9047060e-05 2.9968442e-07 
1.9438700e-07 -1.8437300e-05 3.0620404e-07 
1.0432068e-07 -1.8934588e-05 2.7493982e-07 
9.7303506e-08 -1.9146742e-05 2.5998881e-07 
0.0000000e+00 -1.9306048e-05 0.0000000e+00 
0.0000000e+00 -1.9130768e-05 0.0000000e+00 
-6.0718826e-08 -1.8522545e-05 -3.4464315e-07 
-7.3718297e-08 -1.9029902e-05 -3.3749993e-07 
0.0000000e+00 -1.9255845e-05 0.0000000e+00 
0.0000000e+00 -1.9115672e-05 0.0000000e+00 
-8.9830579e-08 1.6452923e-05 -6.9843225e-09 
-7.9479634e-08 1.6120888e-05 -1.0680458e-08 
-7.6597118e-08 1.6174505e-05 -7.1958017e-09 
-8.3572772e-08 1.6493848e-05 -7.1818329e-10 
-8.5628912e-08 1.6470836e-05 -4.0859822e-09 
0.0000000e+00 1.6786011e-05 0.0000000e+00 
0.0000000e+00 1.6803822e-05 0.0000000e+00 
1.0561484e-07 1.6176338e-05 -6.8558883e-08 
9.9095139e-08 1.6130934e-05 -6.4854738e-08 
0.0000000e+00 1.6776927e-05 0.0000000e+00 
0.0000000e+00 1.6794154e-05 0.0000000e+00 
-4.6448275e-08 1.3462402e-05 3.8053085e-07 
-6.2551621e-08 1.3024041e-05 8.0891823e-07 
-2.5526336e-07 1.3011269e-05 7.9902281e-07 
-1.9817517e-07 1.3443738e-05 3.7537845e-07 
-1.1729099e-07 1.3457603e-05 3.7458540e-07 
0.0000000e+00 1.3746208e-05 0.0000000e+00 
0.0000000e+00 1.3718666e-05 0.0000000e+00 
3.4226681e-11 1.3036942e-05 8.0141632e-07 
1.9766259e-07 1.3046591e-05 8.0163636e-07 
0.0000000e+00 1.3715858e-05 0.0000000e+00 
0.0000000e+00 1.3720501e-05 0.0000000e+00 
-5.5918430e-09 -8.8468191e-08 2.4497336e-07 
-2.5731200e-08 -3.8308718e-07 5.0009191e-07 
-1.3515390e-07 -4.2398889e-07 4.9590773e-07 
-1.0125355e-07 -1.0820801e-07 2.3526243e-07 
-4.8708653e-08 -8.9006249e-08 2.3827400e-07 
0.0000000e+00 1.6341321e-08 0.0000000e+00 
0.0000000e+00 3.0794631e-09 0.0000000e+00 
3.1640123e-08 -3.9076244e-07 5.2047028e-07 
1.5638985e-07 -3.6846720e-07 5.2104946e-07 
0.0000000e+00 -1.7483769e-09 0.0000000e+00 
0.0000000e+00 -1.2370662e-09 0.0000000e+00 
2.8863164e-08 -4.5399725e-06 2.1685480e-07 
2.1909992e-08 -4.5369320e-06 4.1571320e-07 
-6.6484688e-08 -4.4666035e-06 4.1247961e-07 
-4.2293799e-08 -4.4989188e-06 2.1239886e-07 
-4.3120449e-09 -4.5161628e-06 2.1210526e-07 
0.0000000e+00 -4.6269879e-06 0.0000000e+00 
0.0000000e+00 -4.6058185e-06 0.0000000e+00 
-7.3114585e-08 -4.4678250e-06 3.3538552e-07 
1.6736742e-08 -4.5238180e-06 3.3384441e-07 
0.0000000e+00 -4.6176028e-06 0.0000000e+00 
0.0000000e+00 -4.6034734e-06 0.0000000e+00 
6.4088781e-08 9.6550184e-07 2.3169914e-08 
8.0992791e-08 1.2283359e-06 3.8353374e-08 
8.1034138e-08 1.3684594e-06 3.5682916e-08 
6.6917835e-08 1.0414150e-06 2.4413430e-08 
6.3708036e-08 1.0008041e-06 2.1562887e-08 
0.0000000e+00 7.8526830e-07 0.0000000e+00 
0.0000000e+00 8.2289529e-07 0.0000000e+00 
-8.6493849e-08 1.3337299e-06 -9.5924058e-08 
-9.0253330e-08 1.2345214e-06 -9.8373491e-08 
0.0000000e+00 8.0808417e-07 0.0000000e+00 
0.0000000e+00 8.2618038e-07 0.0000000e+00 
7.6165676e-08 6.7066376e-06 1.5837611e-07 
1.0486878e-07 6.9094162e-06 3.1113495e-07 
4.1720078e-08 6.9785065e-06 3.2299459e-07 
2.2122759e-08 6.7555807e-06 1.6584839e-07 
4.5773412e-08 6.7252713e-06 1.5983139e-07 
0.0000000e+00 6.6620782e-06 0.0000000e+00 
0.0000000e+00 6.6801849e-06 0.0000000e+00 
-8.6093436e-08 6.9551929e-06 2.3478299e-07 
-1.7044325e-08 6.8954523e-06 2.3741586e-07 
0.0000000e+00 6.6702237e-06 0.0000000e+00 
0.0000000e+00 6.6867060e-06 0.0000000e+00 
1.3842279e-08 4.8705829e-06 1.9231706e-07 
2.3075858e-08 4.7418557e-06 4.0266079e-07 
-7.5773350e-08 4.7379726e-06 4.0381764e-07 
-6.2678147e-08 4.8707511e-06 1.9429558e-07 
-2.4071065e-08 4.8691923e-06 1.9145422e-07 
0.0000000e+00 5.0113972e-06 0.0000000e+00 
0.0000000e+00 5.0083077e-06 0.0000000e+00 
-1.1120473e-09 4.7429908e-06 3.9403420e-07 
9.7046254e-08 4.7407511e-06 3.9602585e-07 
0.0000000e+00 4.9989026e-06 0.0000000e+00 
0.0000000e+00 5.0055928e-06 0.0000000e+00 
-4.3255540e-08 -4.8302473e-07 1.3371866e-07 
-4.3533380e-08 -8.1133703e-07 3.9438137e-07 
-1.7300084e-07 -8.4704806e-07 3.8722024e-07 
-1.1966841e-07 -5.0198759e-07 1.2716454e-07 
-7.7706915e-08 -4.8801360e-07 1.2951367e-07 
0.0000000e+00 -3.0511777e-07 0.0000000e+00 
0.0000000e+00 -3.1669404e-07 0.0000000e+00 
2.8851826e-08 -8.2088991e-07 4.0451590e-07 
1.4758564e-07 -7.9808689e-07 4.0399075e-07 
0.0000000e+00 -3.1757412e-07 0.0000000e+00 
0.0000000e+00 -3.2246194e-07 0.0000000e+00 
-7.8169172e-08 -1.8418876e-06 -9.8132105e-08 
-1.0478162e-07 -2.0367868e-06 -1.6942575e-07 
-7.3084280e-08 -2.0435803e-06 -1.7482839e-07 
-4.6814574e-08 -1.8497850e-06 -1.0078493e-07 
-6.0004631e-08 -1.8423002e-06 -9.8446264e-08 
0.0000000e+00 -1.7557452e-06 0.0000000e+00 
0.0000000e+00 -1.7612633e-06 0.0000000e+00 
4.8910863e-08 -2.0325951e-06 -1.5906622e-07 
1.2755871e-08 -2.0224661e-06 -1.6075938e-07 
0.0000000e+00 -1.7603256e-06 0.0000000e+00 
0.0000000e+00 -1.7644628e-06 0.0000000e+00 
-5.9024451e-08 1.3805969e-06 -1.9831261e-07 
-7.9652601e-08 1.3735428e-06 -3.7192675e-07 
4.0956305e-09 1.3876707e-06 -3.6998861e-07 
1.1836451e-08 1.3822611e-06 -1.9538521e-07 
-2.2983064e-08 1.3801427e-06 -1.9552341e-07 
0.0000000e+00 1.3713484e-06 0.0000000e+00 
0.0000000e+00 1.3734605e-06 0.0000000e+00 
1.3996100e-08 1.3820836e-06 -3.7229231e-07 
-7.1260878e-08 1.3799822e-06 -3.7304969e-07 
0.0000000e+00 1.3776965e-06 0.0000000e+00 
0.0000000e+00 1.3722758e-06 0.0000000e+00 
4.0342458e-09 3.7012112e-06 -6.8665692e-08 
-7.2497257e-09 3.8836924e-06 -1.4760707e-07 
3.1140424e-08 3.8535591e-06 -1.3588009e-07 
2.8444108e-08 3.6863389e-06 -6.2715472e-08 
1.4148323e-08 3.6898289e-06 -6.4853310e-08 
0.0000000e+00 3.6336066e-06 0.0000000e+00 
0.0000000e+00 3.6234378e-06 0.0000000e+00 
-6.0014145e-08 3.8448152e-06 -1.1049115e-07 
-9.2265779e-08 3.8663279e-06 -1.0985048e-07 
0.0000000e+00 3.6386823e-06 0.0000000e+00 
0.0000000e+00 3.6337101e-06 0.0000000e+00 
4.4326132e-08 6.2196654e-07 7.6955615e-08 
4.3586788e-08 7.7851206e-07 1.5418945e-07 
2.6814284e-09 7.1109838e-07 1.6648022e-07 
9.5782111e-09 5.8378811e-07 7.7812032e-08 
2.5648461e-08 6.0188972e-07 7.7994883e-08 
0.0000000e+00 5.3553345e-07 0.0000000e+00 
0.0000000e+00 5.2012018e-07 0.0000000e+00 
-7.1959256e-08 7.1288321e-07 2.2073023e-07 
-2.7758370e-08 7.6013868e-07 2.2122595e-07 
0.0000000e+00 5.3627082e-07 0.0000000e+00 
0.0000000e+00 5.2466345e-07 0.0000000e+00 
2.5623988e-08 -4.3063806e-06 1.1696770e-07 
2.7743141e-08 -4.3264586e-06 2.5044315e-07 
-3.3969965e-08 -4.3307086e-06 2.4646511e-07 
-2.1486370e-08 -4.3066093e-06 1.1392989e-07 
2.7475797e-09 -4.3041414e-06 1.1434609e-07 
0.0000000e+00 -4.3277250e-06 0.0000000e+00 
0.0000000e+00 -4.3281061e-06 0.0000000e+00 
-2.2252385e-08 -4.3236923e-06 2.4402760e-07 
3.9892953e-08 -4.3239693e-06 2.4348606e-07 
0.0000000e+00 -4.3291880e-06 0.0000000e+00 
0.0000000e+00 -4.3273394e-06 0.0000000e+00 
-1.6433603e-08 -5.1734119e-06 7.6289524e-08 
-1.9694992e-08 -5.3098906e-06 2.1602757e-07 
-7.8403836e-08 -5.2409041e-06 2.0848111e-07 
-5.2524587e-08 -5.1444590e-06 7.4809947e-08 
-3.3327410e-08 -5.1566117e-06 7.4067309e-08 
0.0000000e+00 -5.1282195e-06 0.0000000e+00 
0.0000000e+00 -5.1135685e-06 0.0000000e+00 
-7.7704874e-09 -5.2437708e-06 1.4284898e-07 
4.7654559e-08 -5.2888727e-06 1.4193670e-07 
0.0000000e+00 -5.1272573e-06 0.0000000e+00 
0.0000000e+00 -5.1150500e-06 0.0000000e+00 
2.4056319e-09 -1.5840466e-06 -1.0720995e-07 
3.3593015e-09 -1.4866399e-06 -2.2896775e-07 
7.2798478e-08 -1.4413656e-06 -2.3588962e-07 
4.9149119e-08 -1.5675164e-06 -1.0625170e-07 
2.4451381e-08 -1.5769020e-06 -1.0617983e-07 
0.0000000e+00 -1.6494203e-06 0.0000000e+00 
0.0000000e+00 -1.6407001e-06 0.0000000e+00 
1.4299012e-09 -1.4575140e-06 -2.6266963e-07 
-6.0033237e-08 -1.4829470e-06 -2.6462655e-07 
0.0000000e+00 -1.6419986e-06 0.0000000e+00 
0.0000000e+00 -1.6406576e-06 0.0000000e+00 
-3.4607836e-10 2.1549888e-06 -1.0097077e-07 
2.6216334e-09 2.2067663e-06 -2.1188404e-07 
5.9231581e-08 2.2021391e-06 -2.1251152e-07 
3.9515569e-08 2.1510450e-06 -9.8962460e-08 
1.8214955e-08 2.1508865e-06 -9.9008794e-08 
0.0000000e+00 2.1446333e-06 0.0000000e+00 
0.0000000e+00 2.1429826e-06 0.0000000e+00 
2.3336268e-08 2.1968981e-06 -2.0081903e-07 
-2.8389449e-08 2.2026022e-06 -2.0075240e-07 
0.0000000e+00 2.1455787e-06 0.0000000e+00 
0.0000000e+00 2.1423950e-06 0.0000000e+00 
-1.3271364e-08 3.2927746e-06 -1.2335344e-08 
-2.3089150e-08 3.2241248e-06 -5.9095569e-08 
-2.6680405e-09 3.2146663e-06 -6.1204496e-08 
-2.3874265e-09 3.2892149e-06 -1.2428420e-08 
-7.8241662e-09 3.2917717e-06 -1.2294230e-08 
0.0000000e+00 3.3445376e-06 0.0000000e+00 
0.0000000e+00 3.3415181e-06 0.0000000e+00 
3.8129734e-08 3.2210012e-06 -4.8242534e-08 
1.8557996e-08 3.2267908e-06 -4.8306521e-08 
0.0000000e+00 3.3401400e-06 0.0000000e+00 
0.0000000e+00 3.3397941e-06 0.0000000e+00 
0.0000000e+00 3.0775132e-05 0.0000000e+00 
0.0000000e+00 4.9492905e-06 0.0000000e+00 
-1.7437909e-09 3.2095775e-06 1.1140386e-09 
-3.3996870e-09 3.1641569e-06 1.2194441e-09 
0.0000000e+00 3.1672835e-06 0.0000000e+00 