# vtk DataFile Version 4.0
vtk output
ASCII
DATASET UNSTRUCTURED_GRID
POINTS 1827 float
0.0000000e+00 0.0000000e+00 0.0000000e+00 
0.0000000e+00 0.0000000e+00 2.0000000e+01 
3.4700000e+00 0.0000000e+00 0.0000000e+00 
3.4700000e+00 0.0000000e+00 2.0000000e+01 
3.4700000e+00 1.0000000e+00 0.0000000e+00 
3.4700000e+00 1.0000000e+00 2.0000000e+01 
0.0000000e+00 1.0000000e+00 0.0000000e+00 
0.0000000e+00 1.0000000e+00 2.0000000e+01 
1.2500000e+00 2.5000000e+00 0.0000000e+00 
1.2500000e+00 2.5000000e+00 1.1700000e-01 
7.5000000e-01 2.5000000e+00 1.1700000e-01 
7.5000000e-01 2.5000000e+00 0.0000000e+00 
0.0000000e+00 2.5000000e+00 0.0000000e+00 
0.0000000e+00 2.5000000e+00 1.1700000e-01 
1.2500000e+00 2.8000000e+00 1.1700000e-01 
1.2500000e+00 2.8000000e+00 0.0000000e+00 
0.0000000e+00 2.8000000e+00 0.0000000e+00 
0.0000000e+00 2.8000000e+00 1.1700000e-01 
7.5000000e-01 2.5000000e+00 3.8299999e-01 
1.2500000e+00 2.5000000e+00 3.8299999e-01 
1.2500000e+00 2.5000000e+00 6.1699998e-01 
7.5000000e-01 2.5000000e+00 6.1699998e-01 
7.5000000e-01 2.5000000e+00 5.0000000e-01 
0.0000000e+00 2.5000000e+00 3.8299999e-01 
0.0000000e+00 2.5000000e+00 6.1699998e-01 
1.2500000e+00 2.8000000e+00 6.1699998e-01 
1.2500000e+00 2.8000000e+00 3.8299999e-01 
0.0000000e+00 2.8000000e+00 3.8299999e-01 
0.0000000e+00 2.8000000e+00 6.1699998e-01 
7.5000000e-01 2.5000000e+00 8.8300002e-01 
1.2500000e+00 2.5000000e+00 8.8300002e-01 
1.2500000e+00 2.5000000e+00 1.1170000e+00 
7.5000000e-01 2.5000000e+00 1.1170000e+00 
7.5000000e-01 2.5000000e+00 1.0000000e+00 
0.0000000e+00 2.5000000e+00 8.8300002e-01 
0.0000000e+00 2.5000000e+00 1.1170000e+00 
1.2500000e+00 2.8000000e+00 1.1170000e+00 
1.2500000e+00 2.8000000e+00 8.8300002e-01 
0.0000000e+00 2.8000000e+00 8.8300002e-01 
0.0000000e+00 2.8000000e+00 1.1170000e+00 
7.5000000e-01 2.5000000e+00 1.3830000e+00 
1.2500000e+00 2.5000000e+00 1.3830000e+00 
1.2500000e+00 2.5000000e+00 1.6170000e+00 
7.5000000e-01 2.5000000e+00 1.6170000e+00 
7.5000000e-01 2.5000000e+00 1.5000000e+00 
0.0000000e+00 2.5000000e+00 1.3830000e+00 
0.0000000e+00 2.5000000e+00 1.6170000e+00 
1.2500000e+00 2.8000000e+00 1.6170000e+00 
1.2500000e+00 2.8000000e+00 1.3830000e+00 
0.0000000e+00 2.8000000e+00 1.3830000e+00 
0.0000000e+00 2.8000000e+00 1.6170000e+00 
7.5000000e-01 2.5000000e+00 1.8830000e+00 
1.2500000e+00 2.5000000e+00 1.8830000e+00 
1.2500000e+00 2.5000000e+00 2.1170001e+00 
7.5000000e-01 2.5000000e+00 2.1170001e+00 
7.5000000e-01 2.5000000e+00 2.0000000e+00 
0.0000000e+00 2.5000000e+00 1.8830000e+00 
0.0000000e+00 2.5000000e+00 2.1170001e+00 
1.2500000e+00 2.8000000e+00 2.1170001e+00 
1.2500000e+00 2.8000000e+00 1.8830000e+00 
0.0000000e+00 2.8000000e+00 1.8830000e+00 
0.0000000e+00 2.8000000e+00 2.1170001e+00 
7.5000000e-01 2.5000000e+00 2.3829999e+00 
1.2500000e+00 2.5000000e+00 2.3829999e+00 
1.2500000e+00 2.5000000e+00 2.6170001e+00 
7.5000000e-01 2.5000000e+00 2.6170001e+00 
7.5000000e-01 2.5000000e+00 2.5000000e+00 
0.0000000e+00 2.5000000e+00 2.3829999e+00 
0.0000000e+00 2.5000000e+00 2.6170001e+00 
1.2500000e+00 2.8000000e+00 2.6170001e+00 
1.2500000e+00 2.8000000e+00 2.3829999e+00 
0.0000000e+00 2.8000000e+00 2.3829999e+00 
0.0000000e+00 2.8000000e+00 2.6170001e+00 
7.5000000e-01 2.5000000e+00 2.8829999e+00 
1.2500000e+00 2.5000000e+00 2.8829999e+00 
1.2500000e+00 2.5000000e+00 3.1170001e+00 
7.5000000e-01 2.5000000e+00 3.1170001e+00 
7.5000000e-01 2.5000000e+00 3.0000000e+00 
0.0000000e+00 2.5000000e+00 2.8829999e+00 
0.0000000e+00 2.5000000e+00 3.1170001e+00 
1.2500000e+00 2.8000000e+00 3.1170001e+00 
1.2500000e+00 2.8000000e+00 2.8829999e+00 
0.0000000e+00 2.8000000e+00 2.8829999e+00 
0.0000000e+00 2.8000000e+00 3.1170001e+00 
7.5000000e-01 2.5000000e+00 3.3829999e+00 
1.2500000e+00 2.5000000e+00 3.3829999e+00 
1.2500000e+00 2.5000000e+00 3.6170001e+00 
7.5000000e-01 2.5000000e+00 3.6170001e+00 
7.5000000e-01 2.5000000e+00 3.5000000e+00 
0.0000000e+00 2.5000000e+00 3.3829999e+00 
0.0000000e+00 2.5000000e+00 3.6170001e+00 
1.2500000e+00 2.8000000e+00 3.6170001e+00 
1.2500000e+00 2.8000000e+00 3.3829999e+00 
0.0000000e+00 2.8000000e+00 3.3829999e+00 
0.0000000e+00 2.8000000e+00 3.6170001e+00 
7.5000000e-01 2.5000000e+00 3.8829999e+00 
1.2500000e+00 2.5000000e+00 3.8829999e+00 
1.2500000e+00 2.5000000e+00 4.1170001e+00 
7.5000000e-01 2.5000000e+00 4.1170001e+00 
7.5000000e-01 2.5000000e+00 4.0000000e+00 
0.0000000e+00 2.5000000e+00 3.8829999e+00 
0.0000000e+00 2.5000000e+00 4.1170001e+00 
1.2500000e+00 2.8000000e+00 4.1170001e+00 
1.2500000e+00 2.8000000e+00 3.8829999e+00 
0.0000000e+00 2.8000000e+00 3.8829999e+00 
0.0000000e+00 2.8000000e+00 4.1170001e+00 
7.5000000e-01 2.5000000e+00 4.3829999e+00 
1.2500000e+00 2.5000000e+00 4.3829999e+00 
1.2500000e+00 2.5000000e+00 4.6170001e+00 
7.5000000e-01 2.5000000e+00 4.6170001e+00 
7.5000000e-01 2.5000000e+00 4.5000000e+00 
0.0000000e+00 2.5000000e+00 4.3829999e+00 
0.0000000e+00 2.5000000e+00 4.6170001e+00 
1.2500000e+00 2.8000000e+00 4.6170001e+00 
1.2500000e+00 2.8000000e+00 4.3829999e+00 
0.0000000e+00 2.8000000e+00 4.3829999e+00 
0.0000000e+00 2.8000000e+00 4.6170001e+00 
7.5000000e-01 2.5000000e+00 4.8829999e+00 
1.2500000e+00 2.5000000e+00 4.8829999e+00 
1.2500000e+00 2.5000000e+00 5.1170001e+00 
7.5000000e-01 2.5000000e+00 5.1170001e+00 
7.5000000e-01 2.5000000e+00 5.0000000e+00 
0.0000000e+00 2.5000000e+00 4.8829999e+00 
0.0000000e+00 2.5000000e+00 5.1170001e+00 
1.2500000e+00 2.8000000e+00 5.1170001e+00 
1.2500000e+00 2.8000000e+00 4.8829999e+00 
0.0000000e+00 2.8000000e+00 4.8829999e+00 
0.0000000e+00 2.8000000e+00 5.1170001e+00 
7.5000000e-01 2.5000000e+00 5.3829999e+00 
1.2500000e+00 2.5000000e+00 5.3829999e+00 
1.2500000e+00 2.5000000e+00 5.6170001e+00 
7.5000000e-01 2.5000000e+00 5.6170001e+00 
7.5000000e-01 2.5000000e+00 5.5000000e+00 
0.0000000e+00 2.5000000e+00 5.3829999e+00 
0.0000000e+00 2.5000000e+00 5.6170001e+00 
1.2500000e+00 2.8000000e+00 5.6170001e+00 
1.2500000e+00 2.8000000e+00 5.3829999e+00 
0.0000000e+00 2.8000000e+00 5.3829999e+00 
0.0000000e+00 2.8000000e+00 5.6170001e+00 
7.5000000e-01 2.5000000e+00 5.8829999e+00 
1.2500000e+00 2.5000000e+00 5.8829999e+00 
1.2500000e+00 2.5000000e+00 6.1170001e+00 
7.5000000e-01 2.5000000e+00 6.1170001e+00 
7.5000000e-01 2.5000000e+00 6.0000000e+00 
0.0000000e+00 2.5000000e+00 5.8829999e+00 
0.0000000e+00 2.5000000e+00 6.1170001e+00 
1.2500000e+00 2.8000000e+00 6.1170001e+00 
1.2500000e+00 2.8000000e+00 5.8829999e+00 
0.0000000e+00 2.8000000e+00 5.8829999e+00 
0.0000000e+00 2.8000000e+00 6.1170001e+00 
7.5000000e-01 2.5000000e+00 6.3829999e+00 
1.2500000e+00 2.5000000e+00 6.3829999e+00 
1.2500000e+00 2.5000000e+00 6.6170001e+00 
7.5000000e-01 2.5000000e+00 6.6170001e+00 
7.5000000e-01 2.5000000e+00 6.5000000e+00 
0.0000000e+00 2.5000000e+00 6.3829999e+00 
0.0000000e+00 2.5000000e+00 6.6170001e+00 
1.2500000e+00 2.8000000e+00 6.6170001e+00 
1.2500000e+00 2.8000000e+00 6.3829999e+00 
0.0000000e+00 2.8000000e+00 6.3829999e+00 
0.0000000e+00 2.8000000e+00 6.6170001e+00 
7.5000000e-01 2.5000000e+00 6.8829999e+00 
1.2500000e+00 2.5000000e+00 6.8829999e+00 
1.2500000e+00 2.5000000e+00 7.1170001e+00 
7.5000000e-01 2.5000000e+00 7.1170001e+00 
7.5000000e-01 2.5000000e+00 7.0000000e+00 
0.0000000e+00 2.5000000e+00 6.8829999e+00 
0.0000000e+00 2.5000000e+00 7.1170001e+00 
1.2500000e+00 2.8000000e+00 7.1170001e+00 
1.2500000e+00 2.8000000e+00 6.8829999e+00 
0.0000000e+00 2.8000000e+00 6.8829999e+00 
0.0000000e+00 2.8000000e+00 7.1170001e+00 
7.5000000e-01 2.5000000e+00 7.3829999e+00 
1.2500000e+00 2.5000000e+00 7.3829999e+00 
1.2500000e+00 2.5000000e+00 7.6170001e+00 
7.5000000e-01 2.5000000e+00 7.6170001e+00 
7.5000000e-01 2.5000000e+00 7.5000000e+00 
0.0000000e+00 2.5000000e+00 7.3829999e+00 
0.0000000e+00 2.5000000e+00 7.6170001e+00 
1.2500000e+00 2.8000000e+00 7.6170001e+00 
1.2500000e+00 2.8000000e+00 7.3829999e+00 
0.0000000e+00 2.8000000e+00 7.3829999e+00 
0.0000000e+00 2.8000000e+00 7.6170001e+00 
7.5000000e-01 2.5000000e+00 7.8829999e+00 
1.2500000e+00 2.5000000e+00 7.8829999e+00 
1.2500000e+00 2.5000000e+00 8.1169996e+00 
7.5000000e-01 2.5000000e+00 8.1169996e+00 
7.5000000e-01 2.5000000e+00 8.0000000e+00 
0.0000000e+00 2.5000000e+00 7.8829999e+00 
0.0000000e+00 2.5000000e+00 8.1169996e+00 
1.2500000e+00 2.8000000e+00 8.1169996e+00 
1.2500000e+00 2.8000000e+00 7.8829999e+00 
0.0000000e+00 2.8000000e+00 7.8829999e+00 
0.0000000e+00 2.8000000e+00 8.1169996e+00 
7.5000000e-01 2.5000000e+00 8.3830004e+00 
1.2500000e+00 2.5000000e+00 8.3830004e+00 
1.2500000e+00 2.5000000e+00 8.6169996e+00 
7.5000000e-01 2.5000000e+00 8.6169996e+00 
7.5000000e-01 2.5000000e+00 8.5000000e+00 
0.0000000e+00 2.5000000e+00 8.3830004e+00 
0.0000000e+00 2.5000000e+00 8.6169996e+00 
1.2500000e+00 2.8000000e+00 8.6169996e+00 
1.2500000e+00 2.8000000e+00 8.3830004e+00 
0.0000000e+00 2.8000000e+00 8.3830004e+00 
0.0000000e+00 2.8000000e+00 8.6169996e+00 
7.5000000e-01 2.5000000e+00 8.8830004e+00 
1.2500000e+00 2.5000000e+00 8.8830004e+00 
1.2500000e+00 2.5000000e+00 9.1169996e+00 
7.5000000e-01 2.5000000e+00 9.1169996e+00 
7.5000000e-01 2.5000000e+00 9.0000000e+00 
0.0000000e+00 2.5000000e+00 8.8830004e+00 
0.0000000e+00 2.5000000e+00 9.1169996e+00 
1.2500000e+00 2.8000000e+00 9.1169996e+00 
1.2500000e+00 2.8000000e+00 8.8830004e+00 
0.0000000e+00 2.8000000e+00 8.8830004e+00 
0.0000000e+00 2.8000000e+00 9.1169996e+00 
7.5000000e-01 2.5000000e+00 9.3830004e+00 
1.2500000e+00 2.5000000e+00 9.3830004e+00 
1.2500000e+00 2.5000000e+00 9.6169996e+00 
7.5000000e-01 2.5000000e+00 9.6169996e+00 
7.5000000e-01 2.5000000e+00 9.5000000e+00 
0.0000000e+00 2.5000000e+00 9.3830004e+00 
0.0000000e+00 2.5000000e+00 9.6169996e+00 
1.2500000e+00 2.8000000e+00 9.6169996e+00 
1.2500000e+00 2.8000000e+00 9.3830004e+00 
0.0000000e+00 2.8000000e+00 9.3830004e+00 
0.0000000e+00 2.8000000e+00 9.6169996e+00 
7.5000000e-01 2.5000000e+00 9.8830004e+00 
1.2500000e+00 2.5000000e+00 9.8830004e+00 
1.2500000e+00 2.5000000e+00 1.0117000e+01 
[...]
POINT_DATA 1827
FIELD FieldData 2
DISPLACEMENT 3 1827  float
0.0000000e+00 0.0000000e+00 0.0000000e+00 
0.0000000e+00 0.0000000e+00 0.0000000e+00 
0.0000000e+00 0.0000000e+00 0.0000000e+00 
0.0000000e+00 0.0000000e+00 0.0000000e+00 
0.0000000e+00 -1.9061104e-05 0.0000000e+00 
0.0000000e+00 -5.1022221e-07 0.0000000e+00 
0.0000000e+00 -1.9532181e-05 0.0000000e+00 
0.0000000e+00 -3.1659440e-06 0.0000000e+00 
0.0000000e+00 -1.8304254e-06 0.0000000e+00 
-2.9163736e-08 -1.8499238e-06 -1.6756889e-08 
-2.8129872e-09 -1.6166487e-06 -7.3202990e-09 
0.0000000e+00 -1.6011502e-06 0.0000000e+00 
0.0000000e+00 -1.6508673e-06 0.0000000e+00 
0.0000000e+00 -1.6541542e-06 0.0000000e+00 
2.3207779e-08 -1.8016664e-06 4.1478474e-09 
0.0000000e+00 -1.8020983e-06 0.0000000e+00 
0.0000000e+00 -1.6511740e-06 0.0000000e+00 
0.0000000e+00 -1.6547035e-06 0.0000000e+00 
-1.3969505e-07 -4.5450111e-06 2.1505672e-07 
-2.2705299e-07 -5.0628646e-06 3.3238487e-07 
-2.7105099e-07 -4.9710102e-06 3.3036412e-07 
-1.9249192e-07 -4.4645271e-06 2.1614363e-07 
-1.6141908e-07 -4.4987778e-06 2.1323621e-07 
0.0000000e+00 -4.2683232e-06 0.0000000e+00 
0.0000000e+00 -4.2190122e-06 0.0000000e+00 
4.6166001e-08 -4.9439386e-06 2.2272508e-07 
1.0159425e-07 -5.0334461e-06 2.2221896e-07 
0.0000000e+00 -4.2670481e-06 0.0000000e+00 
0.0000000e+00 -4.2303673e-06 0.0000000e+00 
-1.2079826e-07 7.1434060e-06 2.0836521e-07 
-1.6564708e-07 6.6347025e-06 3.4570800e-07 
-2.1952681e-07 6.8402683e-06 3.4825538e-07 
-1.7037721e-07 7.2694529e-06 2.1178499e-07 
-1.4309410e-07 7.2081425e-06 2.0578950e-07 
0.0000000e+00 7.5345806e-06 0.0000000e+00 
0.0000000e+00 7.5824632e-06 0.0000000e+00 
6.6816305e-08 6.8340241e-06 1.3981051e-07 
1.2078637e-07 6.6768257e-06 1.4068726e-07 
0.0000000e+00 7.5307071e-06 0.0000000e+00 
0.0000000e+00 7.5740822e-06 0.0000000e+00 
-4.0549999e-08 1.8566489e-05 4.7404561e-07 
-2.3726225e-08 1.8232418e-05 9.7919997e-07 
-2.6542477e-07 1.8324397e-05 9.9171746e-07 
-2.1949072e-07 1.8634002e-05 4.8254373e-07 
-1.2768672e-07 1.8595434e-05 4.7331369e-07 
0.0000000e+00 1.8885352e-05 0.0000000e+00 
0.0000000e+00 1.8918345e-05 0.0000000e+00 
-6.8846226e-08 1.8326111e-05 8.6033310e-07 
1.6283498e-07 1.8241415e-05 8.6575312e-07 
0.0000000e+00 1.8880955e-05 0.0000000e+00 
0.0000000e+00 1.8920162e-05 0.0000000e+00 
-1.0675772e-07 2.0732574e-05 1.1840621e-08 
-1.1841305e-07 2.0385447e-05 1.1969533e-08 
-1.1870434e-07 2.0386586e-05 1.9082720e-09 
-1.0782402e-07 2.0732823e-05 1.4827141e-08 
-1.0502867e-07 2.0733243e-05 1.3112726e-08 
0.0000000e+00 2.1019614e-05 0.0000000e+00 
0.0000000e+00 2.1014805e-05 0.0000000e+00 
8.2401122e-08 2.0398877e-05 7.6927655e-09 
8.0613397e-08 2.0398986e-05 7.6302271e-09 
0.0000000e+00 2.1010201e-05 0.0000000e+00 
0.0000000e+00 2.1004333e-05 0.0000000e+00 
-1.6853386e-07 1.7847065e-05 -3.6742179e-07 
-2.4185744e-07 1.7614841e-05 -8.3866962e-07 
-2.2862315e-08 1.7523913e-05 -8.4481627e-07 
-1.3451904e-08 1.7776430e-05 -3.7063731e-07 
-8.6703039e-08 1.7814826e-05 -3.6483277e-07 
0.0000000e+00 1.7896871e-05 0.0000000e+00 
0.0000000e+00 1.7867320e-05 0.0000000e+00 
1.2624713e-07 1.7546628e-05 -7.1424830e-07 
-8.4949143e-08 1.7629172e-05 -7.1725140e-07 
0.0000000e+00 1.7891796e-05 0.0000000e+00 
0.0000000e+00 1.7864671e-05 0.0000000e+00 
-1.6851411e-07 1.7284518e-05 -1.9792525e-07 
-2.4522686e-07 1.6995780e-05 -4.3008956e-07 
-1.3291925e-07 1.6993807e-05 -4.1914902e-07 
-9.0264379e-08 1.7281980e-05 -1.9591431e-07 
-1.2588474e-07 1.7286326e-05 -1.9491691e-07 
0.0000000e+00 1.7430270e-05 0.0000000e+00 
0.0000000e+00 1.7430264e-05 0.0000000e+00 
5.8137008e-08 1.7005586e-05 -4.0788834e-07 
-4.8059036e-08 1.7012218e-05 -4.0823491e-07 
0.0000000e+00 1.7432019e-05 0.0000000e+00 
0.0000000e+00 1.7428221e-05 0.0000000e+00 
-7.0599370e-08 2.0873662e-05 2.2013155e-07 
-1.2561021e-07 2.0472327e-05 3.9848328e-07 
-1.4802779e-07 2.0627003e-05 4.0482874e-07 
-1.3194477e-07 2.0950969e-05 2.2168857e-07 
-9.8504827e-08 2.0912350e-05 2.1741425e-07 
0.0000000e+00 2.1174197e-05 0.0000000e+00 
0.0000000e+00 2.1201397e-05 0.0000000e+00 
4.5338286e-08 2.0619751e-05 2.5080018e-07 
1.2562330e-07 2.0507659e-05 2.5126320e-07 
0.0000000e+00 2.1157994e-05 0.0000000e+00 
0.0000000e+00 2.1184256e-05 0.0000000e+00 
7.9095095e-08 2.5527557e-05 9.4561507e-08 
1.2474797e-07 2.5640216e-05 2.0315483e-07 
7.6892846e-08 2.5680385e-05 1.8667218e-07 
4.6317759e-08 2.5561052e-05 9.1531575e-08 
6.1991592e-08 2.5545209e-05 9.1984354e-08 
0.0000000e+00 2.5436786e-05 0.0000000e+00 
0.0000000e+00 2.5455094e-05 0.0000000e+00 
-1.1637407e-08 2.5677647e-05 1.4240987e-07 
3.3889712e-08 2.5639443e-05 1.4165256e-07 
0.0000000e+00 2.5445235e-05 0.0000000e+00 
0.0000000e+00 2.5455978e-05 0.0000000e+00 
-1.2560246e-08 2.9560288e-05 -3.5712523e-07 
-2.9641605e-08 2.9748644e-05 -7.4663518e-07 
1.5001618e-07 2.9709459e-05 -7.3893796e-07 
1.2487222e-07 2.9527724e-05 -3.5868027e-07 
5.4871517e-08 2.9543109e-05 -3.5447346e-07 
0.0000000e+00 2.9407604e-05 0.0000000e+00 
0.0000000e+00 2.9395846e-05 0.0000000e+00 
4.5008015e-08 2.9701918e-05 -6.7889988e-07 
-1.3185897e-07 2.9742656e-05 -6.7949406e-07 
0.0000000e+00 2.9414945e-05 0.0000000e+00 
0.0000000e+00 2.9395669e-05 0.0000000e+00 
-5.4551894e-08 3.1603373e-05 3.2916528e-08 
-8.8413906e-08 3.1546413e-05 9.9305808e-08 
-1.0779521e-07 3.1569205e-05 1.0186467e-07 
-7.1316215e-08 3.1617707e-05 3.5768846e-08 
-6.2097790e-08 3.1613221e-05 3.3983898e-08 
0.0000000e+00 3.1677177e-05 0.0000000e+00 
0.0000000e+00 3.1683856e-05 0.0000000e+00 
-5.6353315e-08 3.1566586e-05 7.4467621e-08 
-2.7711662e-08 3.1548505e-05 7.2114837e-08 
0.0000000e+00 3.1679465e-05 0.0000000e+00 
0.0000000e+00 3.1685198e-05 0.0000000e+00 
3.6193335e-08 3.0745672e-05 1.2395361e-07 
4.6604956e-08 3.0857103e-05 2.5090424e-07 
-1.0054016e-08 3.0848991e-05 2.5867740e-07 
-1.0776362e-08 3.0745345e-05 1.2581994e-07 
1.0784349e-08 3.0745443e-05 1.2399612e-07 
0.0000000e+00 3.0767736e-05 0.0000000e+00 
0.0000000e+00 3.0769337e-05 0.0000000e+00 
-6.5358897e-08 3.0840543e-05 2.5311428e-07 
-3.2815992e-09 3.0840863e-05 2.5326932e-07 
0.0000000e+00 3.0766718e-05 0.0000000e+00 
0.0000000e+00 3.0770243e-05 0.0000000e+00 
6.9489460e-08 2.6395881e-05 3.4096709e-07 
1.0251718e-07 2.6368360e-05 7.9363980e-07 
-9.4575583e-08 2.6355432e-05 7.9854499e-07 
-8.2746332e-08 2.6396656e-05 3.3780563e-07 
-8.0129245e-09 2.6400350e-05 3.3658367e-07 
0.0000000e+00 2.6501037e-05 0.0000000e+00 
0.0000000e+00 2.6500071e-05 0.0000000e+00 
-8.0924430e-08 2.6359314e-05 7.7347664e-07 
1.3015374e-07 2.6355710e-05 7.7440944e-07 
0.0000000e+00 2.6489861e-05 0.0000000e+00 
0.0000000e+00 2.6501019e-05 0.0000000e+00 
9.0252271e-08 2.1745038e-05 2.6108350e-07 
1.3785234e-07 2.1842254e-05 5.8199066e-07 
-7.6858351e-09 2.1876878e-05 5.8220905e-07 
-1.6359866e-08 2.1761763e-05 2.5912021e-07 
3.5183795e-08 2.1755428e-05 2.5746343e-07 
0.0000000e+00 2.1723297e-05 0.0000000e+00 
0.0000000e+00 2.1727627e-05 0.0000000e+00 
-7.9177092e-08 2.1866388e-05 5.3114780e-07 
6.7209349e-08 2.1838014e-05 5.3195487e-07 
0.0000000e+00 2.1721113e-05 0.0000000e+00 
0.0000000e+00 2.1733498e-05 0.0000000e+00 
4.9200811e-08 1.9142914e-05 1.8343317e-07 
6.6516073e-08 1.9167834e-05 4.6994575e-07 
-7.4275988e-08 1.9184632e-05 4.6956734e-07 
-3.7797470e-08 1.9157475e-05 1.8090924e-07 
6.1676655e-09 1.9153296e-05 1.8010327e-07 
0.0000000e+00 1.9098869e-05 0.0000000e+00 
0.0000000e+00 1.9105873e-05 0.0000000e+00 
-7.9582527e-08 1.9187939e-05 4.3286792e-07 
4.8407991e-08 1.9171082e-05 4.3250583e-07 
0.0000000e+00 1.9102166e-05 0.0000000e+00 
0.0000000e+00 1.9109208e-05 0.0000000e+00 
-3.5184605e-08 1.8888331e-05 -1.3525029e-07 
-5.2832668e-08 1.8707398e-05 -2.4301679e-07 
4.4092410e-09 1.8673109e-05 -2.5353049e-07 
8.2010185e-09 1.8861947e-05 -1.3784771e-07 
-1.2091943e-08 1.8877397e-05 -1.3500636e-07 
0.0000000e+00 1.8935900e-05 0.0000000e+00 
0.0000000e+00 1.8924873e-05 0.0000000e+00 
1.0102442e-07 1.8692841e-05 -2.0664015e-07 
5.0091824e-08 1.8724306e-05 -2.0704718e-07 
0.0000000e+00 1.8929182e-05 0.0000000e+00 
0.0000000e+00 1.8920735e-05 0.0000000e+00 
-1.1413327e-07 1.5572190e-05 -4.0769999e-07 
-1.2751626e-07 1.5291813e-05 -8.3274239e-07 
5.6835805e-08 1.5169909e-05 -8.4204385e-07 
3.1333567e-08 1.5496686e-05 -4.0861863e-07 
-4.0341497e-08 1.5534044e-05 -4.0346893e-07 
0.0000000e+00 1.5775642e-05 0.0000000e+00 
0.0000000e+00 1.5736614e-05 0.0000000e+00 
2.2255105e-07 1.5193921e-05 -6.8907570e-07 
2.8185712e-08 1.5296991e-05 -6.8876466e-07 
0.0000000e+00 1.5756576e-05 0.0000000e+00 
0.0000000e+00 1.5724894e-05 0.0000000e+00 
-1.1491962e-07 8.4829099e-07 2.7062459e-08 
-1.4686840e-07 4.4075423e-07 -3.9299923e-09 
-1.5269730e-07 2.3377500e-07 -9.1283248e-09 
-1.2901869e-07 7.3084198e-07 2.8283972e-08 
-1.1872541e-07 7.9425485e-07 2.8682793e-08 
0.0000000e+00 1.1536215e-06 0.0000000e+00 
0.0000000e+00 1.1060073e-06 0.0000000e+00 
1.1583859e-07 2.8149600e-07 2.0094951e-07 
1.1828899e-07 4.3155663e-07 2.0016722e-07 
0.0000000e+00 1.1363645e-06 0.0000000e+00 
0.0000000e+00 1.0982703e-06 0.0000000e+00 
5.0828135e-08 -2.9236684e-05 -1.1813935e-07 
6.3920389e-08 -2.9046692e-05 -2.0727266e-07 
9.3214865e-08 -2.9386083e-05 -2.0062821e-07 
6.4030516e-08 -2.9437664e-05 -1.1669773e-07 
5.6082634e-08 -2.9339571e-05 -1.1346058e-07 
0.0000000e+00 -2.9362856e-05 0.0000000e+00 
0.0000000e+00 -2.9450053e-05 0.0000000e+00 
7.8755455e-09 -2.9351386e-05 1.3482723e-07 
-9.1618757e-09 -2.9096333e-05 1.3488786e-07 
0.0000000e+00 -2.9381747e-05 0.0000000e+00 
0.0000000e+00 -2.9451361e-05 0.0000000e+00 
1.4964273e-07 -8.2539540e-05 1.2918817e-07 
1.9902811e-07 -8.2110375e-05 1.7050102e-07 
1.4798205e-07 -8.2580373e-05 1.6826286e-07 
8.6848161e-08 -8.2794162e-05 1.2936093e-07 
1.1425168e-07 -8.2672137e-05 1.3165814e-07 
0.0000000e+00 -8.2708488e-05 0.0000000e+00 
0.0000000e+00 -8.2822604e-05 0.0000000e+00 
-5.7369757e-08 -8.2536928e-05 6.2204430e-07 
1.9224331e-09 -8.2205916e-05 6.1994086e-07 
0.0000000e+00 -8.2738661e-05 0.0000000e+00 
0.0000000e+00 -8.2820945e-05 0.0000000e+00 
3.3576268e-07 -1.6362789e-04 -6.8199785e-07 
4.6329731e-07 -1.6179201e-04 -1.2106965e-06 
6.6649380e-07 -1.6254534e-04 -1.2001041e-06 
4.9426654e-07 -1.6417984e-04 -6.8450328e-07 
4.0296203e-07 -1.6390772e-04 -6.6400105e-07 
0.0000000e+00 -1.6470767e-04 0.0000000e+00 
0.0000000e+00 -1.6496834e-04 0.0000000e+00 
-3.4368202e-07 -1.6259289e-04 -3.6410350e-07 
-5.4763967e-07 -1.6195381e-04 -3.7005611e-07 
0.0000000e+00 -1.6469894e-04 0.0000000e+00 
0.0000000e+00 -1.6484497e-04 0.0000000e+00 
3.9137694e-07 -2.6780576e-04 8.3408878e-07 
5.1588142e-07 -2.6635232e-04 1.5856889e-06 
1.3656536e-07 -2.6676204e-04 1.6344393e-06 
6.1944441e-08 -2.6804139e-04 8.7516742e-07 
2.0444075e-07 -2.6796380e-04 8.4896772e-07 
0.0000000e+00 -2.6820778e-04 0.0000000e+00 
0.0000000e+00 -2.6835533e-04 0.0000000e+00 
-6.2910067e-07 -2.6682037e-04 1.9740121e-06 
-2.3453053e-07 -2.6653879e-04 1.9758577e-06 
0.0000000e+00 -2.6823141e-04 0.0000000e+00 
0.0000000e+00 -2.6828985e-04 0.0000000e+00 
5.5480797e-07 -3.4940054e-04 -9.9885108e-07 
7.5160341e-07 -3.4605779e-04 -1.9310148e-06 
1.1727975e-06 -3.4653669e-04 -1.8630834e-06 
8.8003731e-07 -3.4967446e-04 -9.2316395e-07 
6.8360526e-07 -3.4962548e-04 -9.4642542e-07 
0.0000000e+00 -3.5099109e-04 0.0000000e+00 
0.0000000e+00 -3.5114272e-04 0.0000000e+00 
-7.0305435e-07 -3.4671571e-04 -1.3907465e-06 
-1.1063939e-06 -3.4634781e-04 -1.3907116e-06 
0.0000000e+00 -3.5093760e-04 0.0000000e+00 
0.0000000e+00 -3.5107427e-04 0.0000000e+00 
1.4031956e-07 -3.1294377e-04 -1.0302364e-06 
2.0699208e-07 -3.1118636e-04 -2.2387323e-06 
8.0462769e-07 -3.1085178e-04 -2.2194909e-06 
5.9089882e-07 -3.1267974e-04 -9.9444833e-07 
3.4358862e-07 -3.1285966e-04 -1.0061773e-06 
0.0000000e+00 -3.1361173e-04 0.0000000e+00 
0.0000000e+00 -3.1351284e-04 0.0000000e+00 
-2.2978055e-07 -3.1101744e-04 -2.5354034e-06 
-8.1084227e-07 -3.1129032e-04 -2.5414763e-06 
0.0000000e+00 -3.1352651e-04 0.0000000e+00 
0.0000000e+00 -3.1349363e-04 0.0000000e+00 
1.0055273e-07 -1.9539431e-04 -4.8395441e-07 
1.6127746e-07 -1.9414665e-04 -1.3577454e-06 
5.9212402e-07 -1.9340753e-04 -1.3357426e-06 
4.1589632e-07 -1.9482442e-04 -4.5406344e-07 
2.4088320e-07 -1.9512963e-04 -4.7178514e-07 
0.0000000e+00 -1.9568646e-04 0.0000000e+00 
0.0000000e+00 -1.9537550e-04 0.0000000e+00 
-1.5535306e-07 -1.9357684e-04 -2.1054175e-06 
-5.9112222e-07 -1.9420176e-04 -2.1129065e-06 
0.0000000e+00 -1.9555734e-04 0.0000000e+00 
0.0000000e+00 -1.9540919e-04 0.0000000e+00 
2.7644006e-07 -8.7376808e-05 5.0091421e-07 
4.1665305e-07 -8.6587555e-05 1.0862052e-06 
1.9584513e-07 -8.5663800e-05 1.1026400e-06 
1.3884036e-07 -8.6810840e-05 5.1186680e-07 
2.0024153e-07 -8.7114633e-05 4.9401706e-07 
0.0000000e+00 -8.7748129e-05 0.0000000e+00 
0.0000000e+00 -8.7478482e-05 0.0000000e+00 
-3.7030335e-07 -8.5836109e-05 1.3349847e-07 
-1.6598436e-07 -8.6540997e-05 1.3319357e-07 
0.0000000e+00 -8.7640838e-05 0.0000000e+00 
0.0000000e+00 -8.7480657e-05 0.0000000e+00 
-1.1917270e-07 -1.7604065e-05 -2.7820795e-07 
-1.9193148e-07 -1.7933264e-05 -7.5645994e-07 
8.2171596e-08 -1.7446782e-05 -7.3779694e-07 
5.0730268e-08 -1.7295348e-05 -2.8223016e-07 
-3.5981380e-08 -1.7439717e-05 -2.8210067e-07 
0.0000000e+00 -1.7263681e-05 0.0000000e+00 
0.0000000e+00 -1.7150303e-05 0.0000000e+00 
2.2013320e-07 -1.7499417e-05 -1.2088660e-06 
-2.1545148e-08 -1.7866729e-05 -1.2107323e-06 
0.0000000e+00 -1.7255667e-05 0.0000000e+00 
0.0000000e+00 -1.7177508e-05 0.0000000e+00 
5.6587027e-08 1.9918716e-05 2.0498719e-07 
8.8753183e-08 1.9865447e-05 3.6894428e-07 
4.0760142e-08 2.0159048e-05 3.4846974e-07 
1.2651747e-08 2.0087589e-05 2.0405444e-07 
3.4467263e-08 2.0003281e-05 1.9862257e-07 
0.0000000e+00 2.0015390e-05 0.0000000e+00 
0.0000000e+00 2.0087784e-05 0.0000000e+00 
1.6571189e-08 2.0119911e-05 6.5306864e-08 
7.0684642e-08 1.9900686e-05 6.2845906e-08 
0.0000000e+00 2.0026575e-05 0.0000000e+00 
0.0000000e+00 2.0078583e-05 0.0000000e+00 
1.1521677e-07 2.8891245e-05 4.7186646e-07 
1.5945430e-07 2.8925948e-05 9.7109717e-07 
-6.5883015e-08 2.9029588e-05 9.8960709e-07 
-6.1091662e-08 2.8963153e-05 4.7575099e-07 
2.4947816e-08 2.8926472e-05 4.6860444e-07 
0.0000000e+00 2.8949131e-05 0.0000000e+00 
0.0000000e+00 2.8974944e-05 0.0000000e+00 
-1.0292159e-07 2.9014955e-05 8.4210080e-07 
1.2661341e-07 2.8922728e-05 8.4745636e-07 
0.0000000e+00 2.8947943e-05 0.0000000e+00 
0.0000000e+00 2.8978775e-05 0.0000000e+00 
5.9086723e-08 1.9087609e-05 4.5988929e-07 
8.6189644e-08 1.8975888e-05 9.6208032e-07 
-1.5326124e-07 1.8977229e-05 9.6179599e-07 
-1.2109493e-07 1.9092049e-05 4.6090616e-07 
-2.8783885e-08 1.9090885e-05 4.5601962e-07 
0.0000000e+00 1.9193023e-05 0.0000000e+00 
0.0000000e+00 1.9194316e-05 0.0000000e+00 
-8.6318494e-08 1.8986646e-05 9.3086555e-07 
1.4712747e-07 1.8974903e-05 9.3317982e-07 
0.0000000e+00 1.9182358e-05 0.0000000e+00 
0.0000000e+00 1.9195508e-05 0.0000000e+00 
-3.6503273e-08 3.9897632e-06 1.1117380e-07 
-3.0491471e-08 3.7278153e-06 3.8121732e-07 
-1.7191805e-07 3.5964179e-06 3.6024309e-07 
-1.1535352e-07 3.9176621e-06 1.0394447e-07 
-7.1919430e-08 3.9595943e-06 1.0770237e-07 
0.0000000e+00 4.0988230e-06 0.0000000e+00 
0.0000000e+00 4.0660252e-06 0.0000000e+00 
5.2722129e-09 3.6372935e-06 4.7679080e-07 
1.3039775e-07 3.7299003e-06 4.7415921e-07 
0.0000000e+00 4.0909176e-06 0.0000000e+00 
0.0000000e+00 4.0694722e-06 0.0000000e+00 
-6.5498469e-08 -4.7689305e-06 -1.6840173e-07 
-8.9086768e-08 -4.9159389e-06 -3.3084279e-07 
-1.7147045e-08 -4.9842265e-06 -3.4397129e-07 
-8.0220177e-09 -4.8092825e-06 -1.7193514e-07 
-3.4789732e-08 -4.7857129e-06 -1.6806227e-07 
0.0000000e+00 -4.7224439e-06 0.0000000e+00 
0.0000000e+00 -4.7411750e-06 0.0000000e+00 
7.7697571e-08 -4.9644673e-06 -2.5974001e-07 
3.1740697e-09 -4.9096102e-06 -2.6256998e-07 
0.0000000e+00 -4.7289168e-06 0.0000000e+00 
0.0000000e+00 -4.7456770e-06 0.0000000e+00 
-6.0300593e-08 -4.9262981e-06 -3.9328231e-07 
-7.3946552e-08 -4.9454079e-06 -7.8011760e-07 
1.0570355e-07 -4.9650625e-06 -7.7995946e-07 
8.3270287e-08 -4.9514078e-06 -3.9252498e-07 
1.2855478e-08 -4.9407995e-06 -3.8968378e-07 
0.0000000e+00 -4.9491327e-06 0.0000000e+00 
0.0000000e+00 -4.9574473e-06 0.0000000e+00 
1.1057343e-07 -4.9687610e-06 -7.3153035e-07 
-7.2420356e-08 -4.9369114e-06 -7.3143195e-07 
0.0000000e+00 -4.9477676e-06 0.0000000e+00 
0.0000000e+00 -4.9671876e-06 0.0000000e+00 
2.3252593e-08 -9.1791577e-07 -1.5205696e-07 
3.1235778e-08 -6.9896350e-07 -3.0532001e-07 
1.0449610e-07 -7.0648963e-07 -2.9707937e-07 
7.9435175e-08 -9.2374853e-07 -1.4793605e-07 
4.9244527e-08 -9.2438995e-07 -1.4848482e-07 
0.0000000e+00 -1.0191247e-06 0.0000000e+00 
0.0000000e+00 -1.0255300e-06 0.0000000e+00 
-2.2944704e-08 -7.2201414e-07 -2.8657149e-07 
-9.3233503e-08 -7.1286564e-07 -2.8508231e-07 
0.0000000e+00 -1.0149768e-06 0.0000000e+00 
0.0000000e+00 -1.0185981e-06 0.0000000e+00 
7.3773926e-08 1.3789336e-06 3.1886617e-07 
9.7103197e-08 1.5209293e-06 6.2937886e-07 
-5.5942422e-08 1.5609568e-06 6.4290271e-07 
-4.1354930e-08 1.4166510e-06 3.2337911e-07 
1.3762391e-08 1.3960146e-06 3.1815540e-07 
0.0000000e+00 1.3294789e-06 0.0000000e+00 
0.0000000e+00 1.3489033e-06 0.0000000e+00 
-1.3025976e-07 1.5528468e-06 5.6935642e-07 
1.7054669e-08 1.5070426e-06 5.7172184e-07 
0.0000000e+00 1.3356048e-06 0.0000000e+00 
0.0000000e+00 1.3552793e-06 0.0000000e+00 
1.8775919e-08 1.6584053e-06 2.3780500e-07 
2.3304295e-08 1.5720909e-06 4.5935124e-07 
-7.7843666e-08 1.6156961e-06 4.5595209e-07 
-6.3176671e-08 1.6961283e-06 2.3672372e-07 
-2.1742782e-08 1.6791827e-06 2.3484488e-07 
0.0000000e+00 1.7287070e-06 0.0000000e+00 
0.0000000e+00 1.7453049e-06 0.0000000e+00 
-2.9666298e-08 1.6206200e-06 3.9625201e-07 
7.2564234e-08 1.5762369e-06 3.9622708e-07 
0.0000000e+00 1.7280639e-06 0.0000000e+00 
0.0000000e+00 1.7447809e-06 0.0000000e+00 
2.9586948e-08 2.1653632e-06 1.2928923e-07 
4.3635637e-08 2.0441753e-06 2.7118224e-07 
-1.4706420e-08 2.0857710e-06 2.5601787e-07 
-1.4358102e-08 2.1857657e-06 1.2503412e-07 
8.1333207e-09 2.1788439e-06 1.2611878e-07 
0.0000000e+00 2.2277579e-06 0.0000000e+00 
0.0000000e+00 2.2380596e-06 0.0000000e+00 
3.6717182e-08 2.0909245e-06 2.1758785e-07 
9.7012311e-08 2.0594071e-06 2.1681386e-07 
0.0000000e+00 2.2228332e-06 0.0000000e+00 
0.0000000e+00 2.2344134e-06 0.0000000e+00 
-1.6736459e-08 3.1751811e-06 -2.8029157e-07 
-1.4471697e-08 3.2177900e-06 -5.8255642e-07 
1.3029211e-07 3.2118619e-06 -5.9688500e-07 
9.2661118e-08 3.1569043e-06 -2.8112620e-07 
3.6484636e-08 3.1661725e-06 -2.7853960e-07 
0.0000000e+00 3.1336056e-06 0.0000000e+00 
0.0000000e+00 3.1252926e-06 0.0000000e+00 
9.0267754e-08 3.2050179e-06 -5.5662969e-07 
-5.3652119e-08 3.2238202e-06 -5.5905724e-07 
0.0000000e+00 3.1340439e-06 0.0000000e+00 
0.0000000e+00 3.1227964e-06 0.0000000e+00 
-3.3982605e-08 1.8011555e-06 -1.9275636e-07 
-3.7352027e-08 1.8155926e-06 -3.7612961e-07 
4.0840384e-08 1.7670782e-06 -3.7393340e-07 
3.1778281e-08 1.7643553e-06 -1.8800239e-07 
-2.8220786e-09 1.7797352e-06 -1.8816138e-07 
0.0000000e+00 1.8375612e-06 0.0000000e+00 
0.0000000e+00 1.8214805e-06 0.0000000e+00 
4.1541803e-08 1.7631586e-06 -3.1241660e-07 
-4.3016538e-08 1.8078787e-06 -3.1216092e-07 
0.0000000e+00 1.8329728e-06 0.0000000e+00 
0.0000000e+00 1.8202369e-06 0.0000000e+00 
-9.9390007e-09 -3.3123822e-06 1.6756130e-07 
-2.1200650e-08 -3.3554170e-06 3.2448935e-07 
-1.0314122e-07 -3.3617157e-06 3.2961188e-07 
-7.1947191e-08 -3.3179051e-06 1.7069969e-07 
-4.0008938e-08 -3.3144981e-06 1.6747121e-07 
0.0000000e+00 -3.2565565e-06 0.0000000e+00 
0.0000000e+00 -3.2623680e-06 0.0000000e+00 
-5.9745879e-08 -3.3611414e-06 3.2785445e-07 
1.4955738e-08 -3.3580611e-06 3.2790723e-07 
0.0000000e+00 -3.2617893e-06 0.0000000e+00 
0.0000000e+00 -3.2595062e-06 0.0000000e+00 
0.0000000e+00 -1.9448340e-05 0.0000000e+00 
0.0000000e+00 3.8746639e-06 0.0000000e+00 
-5.0486404e-10 -6.5099262e-06 3.0347140e-09 
-4.8570041e-09 -6.5543563e-06 5.5955200e-09 
0.0000000e+00 -6.5521331e-06 0.0000000e+00 
0.0000000e+00 -6.5061813e-06 0.0000000e+00 