# vtk DataFile Version 4.0
vtk output
ASCII
DATASET UNSTRUCTURED_GRID
POINTS 1827 float
0.0000000e+00 0.0000000e+00 0.0000000e+00 
0.0000000e+00 0.0000000e+00 2.0000000e+01 
3.4700000e+00 0.0000000e+00 0.0000000e+00 
3.4700000e+00 0.0000000e+00 2.0000000e+01 
3.4700000e+00 1.0000000e+00 0.0000000e+00 
3.4700000e+00 1.0000000e+00 2.0000000e+01 
0.0000000e+00 1.0000000e+00 0.0000000e+00 
0.0000000e+00 1.0000000e+00 2.0000000e+01 
1.2500000e+00 2.5000000e+00 0.0000000e+00 
1.2500000e+00 2.5000000e+00 1.1700000e-01 
7.5000000e-01 2.5000000e+00 1.1700000e-01 
7.5000000e-01 2.5000000e+00 0.0000000e+00 
0.0000000e+00 2.5000000e+00 0.0000000e+00 
0.0000000e+00 2.5000000e+00 1.1700000e-01 
1.2500000e+00 2.8000000e+00 1.1700000e-01 
1.2500000e+00 2.8000000e+00 0.0000000e+00 
0.0000000e+00 2.8000000e+00 0.0000000e+00 
0.0000000e+00 2.8000000e+00 1.1700000e-01 
7.5000000e-01 2.5000000e+00 3.8299999e-01 
1.2500000e+00 2.5000000e+00 3.8299999e-01 
1.2500000e+00 2.5000000e+00 6.1699998e-01 
7.5000000e-01 2.5000000e+00 6.1699998e-01 
7.5000000e-01 2.5000000e+00 5.0000000e-01 
0.0000000e+00 2.5000000e+00 3.8299999e-01 
0.0000000e+00 2.5000000e+00 6.1699998e-01 
1.2500000e+00 2.8000000e+00 6.1699998e-01 
1.2500000e+00 2.8000000e+00 3.8299999e-01 
0.0000000e+00 2.8000000e+00 3.8299999e-01 
0.0000000e+00 2.8000000e+00 6.1699998e-01 
7.5000000e-01 2.5000000e+00 8.8300002e-01 
1.2500000e+00 2.5000000e+00 8.8300002e-01 
1.2500000e+00 2.5000000e+00 1.1170000e+00 
7.5000000e-01 2.5000000e+00 1.1170000e+00 
7.5000000e-01 2.5000000e+00 1.0000000e+00 
0.0000000e+00 2.5000000e+00 8.8300002e-01 
0.0000000e+00 2.5000000e+00 1.1170000e+00 
1.2500000e+00 2.8000000e+00 1.1170000e+00 
1.2500000e+00 2.8000000e+00 8.8300002e-01 
0.0000000e+00 2.8000000e+00 8.8300002e-01 
0.0000000e+00 2.8000000e+00 1.1170000e+00 
7.5000000e-01 2.5000000e+00 1.3830000e+00 
1.2500000e+00 2.5000000e+00 1.3830000e+00 
1.2500000e+00 2.5000000e+00 1.6170000e+00 
7.5000000e-01 2.5000000e+00 1.6170000e+00 
7.5000000e-01 2.5000000e+00 1.5000000e+00 
0.0000000e+00 2.5000000e+00 1.3830000e+00 
0.0000000e+00 2.5000000e+00 1.6170000e+00 
1.2500000e+00 2.8000000e+00 1.6170000e+00 
1.2500000e+00 2.8000000e+00 1.3830000e+00 
0.0000000e+00 2.8000000e+00 1.3830000e+00 
0.0000000e+00 2.8000000e+00 1.6170000e+00 
7.5000000e-01 2.5000000e+00 1.8830000e+00 
1.2500000e+00 2.5000000e+00 1.8830000e+00 
1.2500000e+00 2.5000000e+00 2.1170001e+00 
7.5000000e-01 2.5000000e+00 2.1170001e+00 
7.5000000e-01 2.5000000e+00 2.0000000e+00 
0.0000000e+00 2.5000000e+00 1.8830000e+00 
0.0000000e+00 2.5000000e+00 2.1170001e+00 
1.2500000e+00 2.8000000e+00 2.1170001e+00 
1.2500000e+00 2.8000000e+00 1.8830000e+00 
0.0000000e+00 2.8000000e+00 1.8830000e+00 
0.0000000e+00 2.8000000e+00 2.1170001e+00 
7.5000000e-01 2.5000000e+00 2.3829999e+00 
1.2500000e+00 2.5000000e+00 2.3829999e+00 
1.2500000e+00 2.5000000e+00 2.6170001e+00 
7.5000000e-01 2.5000000e+00 2.6170001e+00 
7.5000000e-01 2.5000000e+00 2.5000000e+00 
0.0000000e+00 2.5000000e+00 2.3829999e+00 
0.0000000e+00 2.5000000e+00 2.6170001e+00 
1.2500000e+00 2.8000000e+00 2.6170001e+00 
1.2500000e+00 2.8000000e+00 2.3829999e+00 
0.0000000e+00 2.8000000e+00 2.3829999e+00 
0.0000000e+00 2.8000000e+00 2.6170001e+00 
7.5000000e-01 2.5000000e+00 2.8829999e+00 
1.2500000e+00 2.5000000e+00 2.8829999e+00 
1.2500000e+00 2.5000000e+00 3.1170001e+00 
7.5000000e-01 2.5000000e+00 3.1170001e+00 
7.5000000e-01 2.5000000e+00 3.0000000e+00 
0.0000000e+00 2.5000000e+00 2.8829999e+00 
0.0000000e+00 2.5000000e+00 3.1170001e+00 
1.2500000e+00 2.8000000e+00 3.1170001e+00 
1.2500000e+00 2.8000000e+00 2.8829999e+00 
0.0000000e+00 2.8000000e+00 2.8829999e+00 
0.0000000e+00 2.8000000e+00 3.1170001e+00 
7.5000000e-01 2.5000000e+00 3.3829999e+00 
1.2500000e+00 2.5000000e+00 3.3829999e+00 
1.2500000e+00 2.5000000e+00 3.6170001e+00 
7.5000000e-01 2.5000000e+00 3.6170001e+00 
7.5000000e-01 2.5000000e+00 3.5000000e+00 
0.0000000e+00 2.5000000e+00 3.3829999e+00 
0.0000000e+00 2.5000000e+00 3.6170001e+00 
1.2500000e+00 2.8000000e+00 3.6170001e+00 
1.2500000e+00 2.8000000e+00 3.3829999e+00 
0.0000000e+00 2.8000000e+00 3.3829999e+00 
0.0000000e+00 2.8000000e+00 3.6170001e+00 
7.5000000e-01 2.5000000e+00 3.8829999e+00 
1.2500000e+00 2.5000000e+00 3.8829999e+00 
1.2500000e+00 2.5000000e+00 4.1170001e+00 
7.5000000e-01 2.5000000e+00 4.1170001e+00 
7.5000000e-01 2.5000000e+00 4.0000000e+00 
0.0000000e+00 2.5000000e+00 3.8829999e+00 
0.0000000e+00 2.5000000e+00 4.1170001e+00 
1.2500000e+00 2.8000000e+00 4.1170001e+00 
1.2500000e+00 2.8000000e+00 3.8829999e+00 
0.0000000e+00 2.8000000e+00 3.8829999e+00 
0.0000000e+00 2.8000000e+00 4.1170001e+00 
7.5000000e-01 2.5000000e+00 4.3829999e+00 
1.2500000e+00 2.5000000e+00 4.3829999e+00 
1.2500000e+00 2.5000000e+00 4.6170001e+00 
7.5000000e-01 2.5000000e+00 4.6170001e+00 
7.5000000e-01 2.5000000e+00 4.5000000e+00 
0.0000000e+00 2.5000000e+00 4.3829999e+00 
0.0000000e+00 2.5000000e+00 4.6170001e+00 
1.2500000e+00 2.8000000e+00 4.6170001e+00 
1.2500000e+00 2.8000000e+00 4.3829999e+00 
0.0000000e+00 2.8000000e+00 4.3829999e+00 
0.0000000e+00 2.8000000e+00 4.6170001e+00 
7.5000000e-01 2.5000000e+00 4.8829999e+00 
1.2500000e+00 2.5000000e+00 4.8829999e+00 
1.2500000e+00 2.5000000e+00 5.1170001e+00 
7.5000000e-01 2.5000000e+00 5.1170001e+00 
7.5000000e-01 2.5000000e+00 5.0000000e+00 
0.0000000e+00 2.5000000e+00 4.8829999e+00 
0.0000000e+00 2.5000000e+00 5.1170001e+00 
1.2500000e+00 2.8000000e+00 5.1170001e+00 
1.2500000e+00 2.8000000e+00 4.8829999e+00 
0.0000000e+00 2.8000000e+00 4.8829999e+00 
0.0000000e+00 2.8000000e+00 5.1170001e+00 
7.5000000e-01 2.5000000e+00 5.3829999e+00 
1.2500000e+00 2.5000000e+00 5.3829999e+00 
1.2500000e+00 2.5000000e+00 5.6170001e+00 
7.5000000e-01 2.5000000e+00 5.6170001e+00 
7.5000000e-01 2.5000000e+00 5.5000000e+00 
0.0000000e+00 2.5000000e+00 5.3829999e+00 
0.0000000e+00 2.5000000e+00 5.6170001e+00 
1.2500000e+00 2.8000000e+00 5.6170001e+00 
1.2500000e+00 2.8000000e+00 5.3829999e+00 
0.0000000e+00 2.8000000e+00 5.3829999e+00 
0.0000000e+00 2.8000000e+00 5.6170001e+00 
7.5000000e-01 2.5000000e+00 5.8829999e+00 
1.2500000e+00 2.5000000e+00 5.8829999e+00 
1.2500000e+00 2.5000000e+00 6.1170001e+00 
7.5000000e-01 2.5000000e+00 6.1170001e+00 
7.5000000e-01 2.5000000e+00 6.0000000e+00 
0.0000000e+00 2.5000000e+00 5.8829999e+00 
0.0000000e+00 2.5000000e+00 6.1170001e+00 
1.2500000e+00 2.8000000e+00 6.1170001e+00 
1.2500000e+00 2.8000000e+00 5.8829999e+00 
0.0000000e+00 2.8000000e+00 5.8829999e+00 
0.0000000e+00 2.8000000e+00 6.1170001e+00 
7.5000000e-01 2.5000000e+00 6.3829999e+00 
1.2500000e+00 2.5000000e+00 6.3829999e+00 
1.2500000e+00 2.5000000e+00 6.6170001e+00 
7.5000000e-01 2.5000000e+00 6.6170001e+00 
7.5000000e-01 2.5000000e+00 6.5000000e+00 
0.0000000e+00 2.5000000e+00 6.3829999e+00 
0.0000000e+00 2.5000000e+00 6.6170001e+00 
1.2500000e+00 2.8000000e+00 6.6170001e+00 
1.2500000e+00 2.8000000e+00 6.3829999e+00 
0.0000000e+00 2.8000000e+00 6.3829999e+00 
0.0000000e+00 2.8000000e+00 6.6170001e+00 
7.5000000e-01 2.5000000e+00 6.8829999e+00 
1.2500000e+00 2.5000000e+00 6.8829999e+00 
1.2500000e+00 2.5000000e+00 7.1170001e+00 
7.5000000e-01 2.5000000e+00 7.1170001e+00 
7.5000000e-01 2.5000000e+00 7.0000000e+00 
0.0000000e+00 2.5000000e+00 6.8829999e+00 
0.0000000e+00 2.5000000e+00 7.1170001e+00 
1.2500000e+00 2.8000000e+00 7.1170001e+00 
1.2500000e+00 2.8000000e+00 6.8829999e+00 
0.0000000e+00 2.8000000e+00 6.8829999e+00 
0.0000000e+00 2.8000000e+00 7.1170001e+00 
7.5000000e-01 2.5000000e+00 7.3829999e+00 
1.2500000e+00 2.5000000e+00 7.3829999e+00 
1.2500000e+00 2.5000000e+00 7.6170001e+00 
7.5000000e-01 2.5000000e+00 7.6170001e+00 
7.5000000e-01 2.5000000e+00 7.5000000e+00 
0.0000000e+00 2.5000000e+00 7.3829999e+00 
0.0000000e+00 2.5000000e+00 7.6170001e+00 
1.2500000e+00 2.8000000e+00 7.6170001e+00 
1.2500000e+00 2.8000000e+00 7.3829999e+00 
0.0000000e+00 2.8000000e+00 7.3829999e+00 
0.0000000e+00 2.8000000e+00 7.6170001e+00 
7.5000000e-01 2.5000000e+00 7.8829999e+00 
1.2500000e+00 2.5000000e+00 7.8829999e+00 
1.2500000e+00 2.5000000e+00 8.1169996e+00 
7.5000000e-01 2.5000000e+00 8.1169996e+00 
7.5000000e-01 2.5000000e+00 8.0000000e+00 
0.0000000e+00 2.5000000e+00 7.8829999e+00 
0.0000000e+00 2.5000000e+00 8.1169996e+00 
1.2500000e+00 2.8000000e+00 8.1169996e+00 
1.2500000e+00 2.8000000e+00 7.8829999e+00 
0.0000000e+00 2.8000000e+00 7.8829999e+00 
0.0000000e+00 2.8000000e+00 8.1169996e+00 
7.5000000e-01 2.5000000e+00 8.3830004e+00 
1.2500000e+00 2.5000000e+00 8.3830004e+00 
1.2500000e+00 2.5000000e+00 8.6169996e+00 
7.5000000e-01 2.5000000e+00 8.6169996e+00 
7.5000000e-01 2.5000000e+00 8.5000000e+00 
0.0000000e+00 2.5000000e+00 8.3830004e+00 
0.0000000e+00 2.5000000e+00 8.6169996e+00 
1.2500000e+00 2.8000000e+00 8.6169996e+00 
1.2500000e+00 2.8000000e+00 8.3830004e+00 
0.0000000e+00 2.8000000e+00 8.3830004e+00 
0.0000000e+00 2.8000000e+00 8.6169996e+00 
7.5000000e-01 2.5000000e+00 8.8830004e+00 
1.2500000e+00 2.5000000e+00 8.8830004e+00 
1.2500000e+00 2.5000000e+00 9.1169996e+00 
7.5000000e-01 2.5000000e+00 9.1169996e+00 
7.5000000e-01 2.5000000e+00 9.0000000e+00 
0.0000000e+00 2.5000000e+00 8.8830004e+00 
0.0000000e+00 2.5000000e+00 9.1169996e+00 
1.2500000e+00 2.8000000e+00 9.1169996e+00 
1.2500000e+00 2.8000000e+00 8.8830004e+00 
0.0000000e+00 2.8000000e+00 8.8830004e+00 
0.0000000e+00 2.8000000e+00 9.1169996e+00 
7.5000000e-01 2.5000000e+00 9.3830004e+00 
1.2500000e+00 2.5000000e+00 9.3830004e+00 
1.2500000e+00 2.5000000e+00 9.6169996e+00 
7.5000000e-01 2.5000000e+00 9.6169996e+00 
7.5000000e-01 2.5000000e+00 9.5000000e+00 
0.0000000e+00 2.5000000e+00 9.3830004e+00 
0.0000000e+00 2.5000000e+00 9.6169996e+00 
1.2500000e+00 2.8000000e+00 9.6169996e+00 
1.2500000e+00 2.8000000e+00 9.3830004e+00 
0.0000000e+00 2.8000000e+00 9.3830004e+00 
0.0000000e+00 2.8000000e+00 9.6169996e+00 
7.5000000e-01 2.5000000e+00 9.8830004e+00 
1.2500000e+00 2.5000000e+00 9.8830004e+00 
1.2500000e+00 2.5000000e+00 1.0117000e+01 
[...]
POINT_DATA 1827
FIELD FieldData 2
DISPLACEMENT 3 1827  float
0.0000000e+00 0.0000000e+00 0.0000000e+00 
0.0000000e+00 0.0000000e+00 0.0000000e+00 
0.0000000e+00 0.0000000e+00 0.0000000e+00 
0.0000000e+00 0.0000000e+00 0.0000000e+00 
0.0000000e+00 -2.9557848e-05 0.0000000e+00 
0.0000000e+00 -6.7941819e-06 0.0000000e+00 
0.0000000e+00 -2.6837066e-05 0.0000000e+00 
0.0000000e+00 4.2040872e-07 0.0000000e+00 
0.0000000e+00 -1.7342586e-06 0.0000000e+00 
-1.0453613e-08 -1.7506832e-06 -7.1278698e-09 
4.4864445e-10 -1.6435016e-06 -5.6540381e-09 
0.0000000e+00 -1.6278610e-06 0.0000000e+00 
0.0000000e+00 -1.6828681e-06 0.0000000e+00 
0.0000000e+00 -1.6867491e-06 0.0000000e+00 
1.2351688e-08 -1.7238298e-06 3.4787568e-09 
0.0000000e+00 -1.7243320e-06 0.0000000e+00 
0.0000000e+00 -1.6805853e-06 0.0000000e+00 
0.0000000e+00 -1.6839958e-06 0.0000000e+00 
-1.1464744e-07 -1.2985593e-05 -5.7476103e-07 
-1.7362839e-07 -1.3003984e-05 -9.8991256e-07 
2.7686070e-08 -1.3171763e-05 -9.9136230e-07 
5.5930609e-08 -1.3106844e-05 -5.7381243e-07 
-2.6985193e-08 -1.3046244e-05 -5.6742380e-07 
0.0000000e+00 -1.3076364e-05 0.0000000e+00 
0.0000000e+00 -1.3120819e-05 0.0000000e+00 
6.5907329e-08 -1.3152453e-05 -7.9768199e-07 
-1.2827849e-07 -1.3002774e-05 -8.0171390e-07 
0.0000000e+00 -1.3074629e-05 0.0000000e+00 
0.0000000e+00 -1.3129482e-05 0.0000000e+00 
-1.5990950e-07 -1.6116624e-05 -3.5918177e-08 
-2.2407177e-07 -1.6666510e-05 -4.4555204e-08 
-2.1719579e-07 -1.6651393e-05 -2.4915430e-08 
-1.5307414e-07 -1.6106911e-05 -3.4305547e-08 
-1.5201809e-07 -1.6110294e-05 -3.5506719e-08 
0.0000000e+00 -1.5778187e-05 0.0000000e+00 
0.0000000e+00 -1.5767746e-05 0.0000000e+00 
1.1586069e-07 -1.6628257e-05 -5.5410084e-08 
1.1280153e-07 -1.6640748e-05 -5.1645593e-08 
0.0000000e+00 -1.5791356e-05 0.0000000e+00 
0.0000000e+00 -1.5783027e-05 0.0000000e+00 
-8.9960484e-09 -1.6081753e-05 6.0172891e-07 
2.4419791e-08 -1.6577358e-05 1.2962084e-06 
-2.9488098e-07 -1.6509173e-05 1.3187024e-06 
-2.4873552e-07 -1.6028422e-05 6.0600087e-07 
-1.2616078e-07 -1.6058537e-05 5.9764744e-07 
0.0000000e+00 -1.5615169e-05 0.0000000e+00 
0.0000000e+00 -1.5592743e-05 0.0000000e+00 
-1.7857424e-08 -1.6498700e-05 1.1875790e-06 
3.0471475e-07 -1.6571223e-05 1.1962557e-06 
0.0000000e+00 -1.5641888e-05 0.0000000e+00 
0.0000000e+00 -1.5601448e-05 0.0000000e+00 
-1.0799673e-07 -2.0237270e-05 1.4792280e-07 
-1.0416495e-07 -2.0847399e-05 3.4193027e-07 
-1.9562194e-07 -2.0865144e-05 3.2805355e-07 
-1.7252550e-07 -2.0241194e-05 1.4912074e-07 
-1.3669063e-07 -2.0236861e-05 1.4676856e-07 
0.0000000e+00 -1.9747507e-05 0.0000000e+00 
0.0000000e+00 -1.9759143e-05 0.0000000e+00 
1.5337267e-07 -2.0835741e-05 3.3593724e-07 
2.4079785e-07 -2.0828991e-05 3.3688534e-07 
0.0000000e+00 -1.9772679e-05 0.0000000e+00 
0.0000000e+00 -1.9781042e-05 0.0000000e+00 
-2.2347351e-07 -2.7222892e-05 -1.4327365e-07 
-2.6712524e-07 -2.8093285e-05 -3.1303554e-07 
-2.0499984e-07 -2.8203325e-05 -3.2786409e-07 
-1.7319445e-07 -2.7310629e-05 -1.4538317e-07 
-1.9262667e-07 -2.7264219e-05 -1.4177671e-07 
0.0000000e+00 -2.6643664e-05 0.0000000e+00 
0.0000000e+00 -2.6677917e-05 0.0000000e+00 
3.0331537e-07 -2.8156526e-05 -1.8335975e-07 
2.2748853e-07 -2.8056435e-05 -1.8126812e-07 
0.0000000e+00 -2.6685153e-05 0.0000000e+00 
0.0000000e+00 -2.6700453e-05 0.0000000e+00 
-4.2475005e-08 -3.2570992e-05 -2.2691329e-07 
-8.6291365e-08 -3.2524371e-05 -5.6724423e-07 
8.3409340e-08 -3.2538461e-05 -5.5217794e-07 
6.3113582e-08 -3.2580148e-05 -2.3343115e-07 
1.0841511e-08 -3.2571181e-05 -2.2792977e-07 
0.0000000e+00 -3.2648175e-05 0.0000000e+00 
0.0000000e+00 -3.2657070e-05 0.0000000e+00 
5.5576276e-08 -3.2536431e-05 -5.2567702e-07 
-9.2762420e-08 -3.2522395e-05 -5.2546204e-07 
0.0000000e+00 -3.2643886e-05 0.0000000e+00 
0.0000000e+00 -3.2654782e-05 0.0000000e+00 
1.2575100e-07 -3.0844010e-05 2.8438987e-07 
1.4841983e-07 -3.0681498e-05 5.9556726e-07 
7.9683211e-09 -3.0624131e-05 6.0562428e-07 
1.8136896e-08 -3.0796506e-05 2.8148801e-07 
7.2198006e-08 -3.0820222e-05 2.7990475e-07 
0.0000000e+00 -3.0970670e-05 0.0000000e+00 
0.0000000e+00 -3.0941563e-05 0.0000000e+00 
-9.2438214e-08 -3.0628431e-05 5.1740204e-07 
5.2896254e-08 -3.0686107e-05 5.1748771e-07 
0.0000000e+00 -3.0969106e-05 0.0000000e+00 
0.0000000e+00 -3.0942436e-05 0.0000000e+00 
-8.3233992e-08 -2.3930634e-05 1.0333404e-07 
-9.3042871e-08 -2.4536570e-05 2.1385144e-07 
-1.3781771e-07 -2.4448249e-05 2.0316024e-07 
-1.1418174e-07 -2.3875004e-05 1.0176961e-07 
-9.6032593e-08 -2.3901304e-05 1.0007805e-07 
0.0000000e+00 -2.3447292e-05 0.0000000e+00 
0.0000000e+00 -2.3417973e-05 0.0000000e+00 
1.9617534e-07 -2.4433739e-05 1.1475277e-07 
2.3912440e-07 -2.4502477e-05 1.1625293e-07 
0.0000000e+00 -2.3470580e-05 0.0000000e+00 
0.0000000e+00 -2.3444345e-05 0.0000000e+00 
-9.6372034e-08 -1.5878020e-05 -1.1089090e-08 
-1.0993495e-07 -1.6482869e-05 -5.2177004e-08 
-6.5097872e-08 -1.6423510e-05 -7.0323040e-08 
-8.0121396e-08 -1.5848953e-05 -1.1887693e-08 
-8.5752731e-08 -1.5863659e-05 -1.1510775e-08 
0.0000000e+00 -1.5444946e-05 0.0000000e+00 
0.0000000e+00 -1.5433086e-05 0.0000000e+00 
2.4285220e-07 -1.6405062e-05 -1.1147975e-07 
2.1710275e-07 -1.6445589e-05 -1.0943241e-07 
0.0000000e+00 -1.5468000e-05 0.0000000e+00 
0.0000000e+00 -1.5452933e-05 0.0000000e+00 
2.0339650e-08 -9.1311740e-06 2.8169771e-07 
5.1783712e-08 -9.3986555e-06 5.7378742e-07 
-8.2314507e-08 -9.3023209e-06 5.6214873e-07 
-8.0191576e-08 -9.0659760e-06 2.7587103e-07 
-2.7303249e-08 -9.0944213e-06 2.7525894e-07 
0.0000000e+00 -8.9298092e-06 0.0000000e+00 
0.0000000e+00 -8.9049790e-06 0.0000000e+00 
4.7187182e-08 -9.2948039e-06 4.5259412e-07 
1.7641315e-07 -9.3758417e-06 4.5376339e-07 
0.0000000e+00 -8.9393598e-06 0.0000000e+00 
0.0000000e+00 -8.9122859e-06 0.0000000e+00 
3.8012452e-08 -1.6415891e-06 2.7500872e-07 
6.7756488e-08 -1.7435772e-06 6.1775569e-07 
-7.8522703e-08 -1.5841327e-06 6.1157408e-07 
-6.5032118e-08 -1.5551874e-06 2.7353923e-07 
-1.2541836e-08 -1.5965967e-06 2.6977906e-07 
0.0000000e+00 -1.5880406e-06 0.0000000e+00 
0.0000000e+00 -1.5477084e-06 0.0000000e+00 
-4.9643873e-08 -1.5965785e-06 4.4167186e-07 
9.6082523e-08 -1.7157569e-06 4.4317224e-07 
0.0000000e+00 -1.5805908e-06 0.0000000e+00 
0.0000000e+00 -1.5443214e-06 0.0000000e+00 
4.3596657e-08 4.6874966e-06 3.6940702e-07 
6.4325064e-08 4.7564135e-06 7.7256470e-07 
-1.3506154e-07 4.8564530e-06 7.7269493e-07 
-9.1338279e-08 4.7561862e-06 3.7254941e-07 
-2.5209449e-08 4.7219446e-06 3.6684358e-07 
0.0000000e+00 4.6430105e-06 0.0000000e+00 
0.0000000e+00 4.6723703e-06 0.0000000e+00 
-1.6344163e-07 4.8483603e-06 6.4447954e-07 
1.7402888e-08 4.7603630e-06 6.4418458e-07 
0.0000000e+00 4.6580044e-06 0.0000000e+00 
0.0000000e+00 4.6899640e-06 0.0000000e+00 
3.6706599e-08 8.3305076e-06 1.9950080e-07 
3.9694793e-08 8.4307649e-06 4.3257202e-07 
-7.5810334e-08 8.4766534e-06 4.4070842e-07 
-3.9670297e-08 8.3674113e-06 2.0086546e-07 
-2.4905942e-09 8.3491768e-06 1.9810010e-07 
0.0000000e+00 8.2487522e-06 0.0000000e+00 
0.0000000e+00 8.2662282e-06 0.0000000e+00 
-1.1915563e-07 8.4747426e-06 3.6919218e-07 
-1.2083849e-08 8.4297881e-06 3.6947154e-07 
0.0000000e+00 8.2615470e-06 0.0000000e+00 
0.0000000e+00 8.2781971e-06 0.0000000e+00 
-8.9294723e-08 1.0652077e-05 -7.7984396e-08 
-1.2684693e-07 1.0451716e-05 -1.7112137e-07 
-1.0309508e-07 1.0465867e-05 -1.8227954e-07 
-5.4339051e-08 1.0664664e-05 -7.9390674e-08 
-6.8977542e-08 1.0661318e-05 -7.8605609e-08 
0.0000000e+00 1.0678837e-05 0.0000000e+00 
0.0000000e+00 1.0686761e-05 0.0000000e+00 
3.4402532e-08 1.0484911e-05 -1.8781017e-07 
-1.2291917e-08 1.0473449e-05 -1.9058749e-07 
0.0000000e+00 1.0685973e-05 0.0000000e+00 
0.0000000e+00 1.0687845e-05 0.0000000e+00 
-1.2696987e-07 1.3901455e-05 -2.8548320e-07 
-1.7529892e-07 1.3818140e-05 -6.2605807e-07 
-8.5276071e-09 1.3912272e-05 -6.4302435e-07 
1.3483080e-09 1.3922521e-05 -2.8343084e-07 
-6.1734326e-08 1.3913251e-05 -2.8219446e-07 
0.0000000e+00 1.3882062e-05 0.0000000e+00 
0.0000000e+00 1.3893876e-05 0.0000000e+00 
3.4986471e-08 1.3893876e-05 -6.8396525e-07 
-1.3496467e-07 1.3850134e-05 -6.9014050e-07 
0.0000000e+00 1.3895315e-05 0.0000000e+00 
0.0000000e+00 1.3895586e-05 0.0000000e+00 
-2.2553076e-08 1.6550064e-05 -1.1798175e-07 
-5.6946099e-08 1.6763996e-05 -3.3219035e-07 
6.7124056e-08 1.6778231e-05 -3.3116413e-07 
4.0876994e-08 1.6565618e-05 -1.1109722e-07 
7.4205291e-09 1.6554835e-05 -1.1418052e-07 
0.0000000e+00 1.6457110e-05 0.0000000e+00 
0.0000000e+00 1.6465054e-05 0.0000000e+00 
-5.5614397e-08 1.6761467e-05 -3.3375812e-07 
-1.5102830e-07 1.6747654e-05 -3.3589697e-07 
0.0000000e+00 1.6470152e-05 0.0000000e+00 
0.0000000e+00 1.6470161e-05 0.0000000e+00 
4.7544084e-08 1.5285485e-05 3.6296985e-08 
5.4234537e-08 1.5450167e-05 2.1766276e-08 
6.8006322e-08 1.5443115e-05 2.5144596e-08 
4.3382745e-08 1.5286809e-05 3.8355275e-08 
4.3014655e-08 1.5284195e-05 3.6933809e-08 
0.0000000e+00 1.5242309e-05 0.0000000e+00 
0.0000000e+00 1.5238602e-05 0.0000000e+00 
-2.9209309e-08 1.5431995e-05 2.8513812e-08 
-3.1470176e-08 1.5431953e-05 2.8509964e-08 
0.0000000e+00 1.5238607e-05 0.0000000e+00 
0.0000000e+00 1.5239419e-05 0.0000000e+00 
-2.2185036e-09 1.2900647e-05 7.7214345e-08 
-3.5894596e-09 1.2864522e-05 7.9079129e-08 
-2.5710879e-08 1.2867959e-05 6.9619482e-08 
-1.5612416e-08 1.2904872e-05 7.4424641e-08 
-8.8926333e-09 1.2906421e-05 7.4957036e-08 
0.0000000e+00 1.2970414e-05 0.0000000e+00 
0.0000000e+00 1.2969808e-05 0.0000000e+00 
1.1510487e-08 1.2866210e-05 7.6495162e-08 
1.4050451e-08 1.2862271e-05 7.3679644e-08 
0.0000000e+00 1.2959595e-05 0.0000000e+00 
0.0000000e+00 1.2963999e-05 0.0000000e+00 
-3.3948513e-08 1.4468886e-05 -5.9080552e-08 
-8.5257987e-08 1.4564585e-05 -2.0652496e-07 
-2.5563640e-08 1.4563453e-05 -1.9670790e-07 
4.6545163e-09 1.4476161e-05 -6.1357852e-08 
-1.4909130e-08 1.4476855e-05 -5.9749077e-08 
0.0000000e+00 1.4405222e-05 0.0000000e+00 
0.0000000e+00 1.4406147e-05 0.0000000e+00 
-4.6674742e-08 1.4560044e-05 -1.9256885e-07 
-1.0845339e-07 1.4557794e-05 -1.9560423e-07 
0.0000000e+00 1.4408834e-05 0.0000000e+00 
0.0000000e+00 1.4407527e-05 0.0000000e+00 
-1.2535271e-07 1.8508206e-05 -1.4537339e-07 
-1.8586071e-07 1.8269135e-05 -3.4562498e-07 
-9.7755652e-08 1.8245230e-05 -3.4195884e-07 
-6.2021606e-08 1.8500865e-05 -1.4656133e-07 
-9.1020226e-08 1.8508063e-05 -1.4462631e-07 
0.0000000e+00 1.8665176e-05 0.0000000e+00 
0.0000000e+00 1.8664705e-05 0.0000000e+00 
6.7017545e-08 1.8261777e-05 -3.1211871e-07 
-2.1127539e-08 1.8277833e-05 -3.1271341e-07 
0.0000000e+00 1.8663079e-05 0.0000000e+00 
0.0000000e+00 1.8655319e-05 0.0000000e+00 
-1.9361419e-08 1.4821798e-05 1.9791192e-07 
-2.8688518e-08 1.4556129e-05 3.4445674e-07 
-9.4022020e-08 1.4477943e-05 3.4674505e-07 
-9.0656222e-08 1.4783147e-05 2.0034335e-07 
-5.4112657e-08 1.4804539e-05 1.9785708e-07 
0.0000000e+00 1.5045292e-05 0.0000000e+00 
0.0000000e+00 1.5026478e-05 0.0000000e+00 
6.0897889e-08 1.4503760e-05 4.1362242e-07 
1.3915283e-07 1.4553235e-05 4.1595155e-07 
0.0000000e+00 1.5024255e-05 0.0000000e+00 
0.0000000e+00 1.5020698e-05 0.0000000e+00 
-1.9286059e-08 -1.3096270e-05 -7.6487783e-07 
-4.6311612e-09 -1.2710214e-05 -1.5687278e-06 
3.3943678e-07 -1.3307158e-05 -1.5946209e-06 
2.2464806e-07 -1.3498512e-05 -7.6642863e-07 
1.0270968e-07 -1.3300859e-05 -7.4860924e-07 
0.0000000e+00 -1.3338441e-05 0.0000000e+00 
0.0000000e+00 -1.3514748e-05 0.0000000e+00 
1.4660249e-07 -1.3271097e-05 -9.0705106e-07 
-1.9533265e-07 -1.2777050e-05 -9.1476579e-07 
0.0000000e+00 -1.3369898e-05 0.0000000e+00 
0.0000000e+00 -1.3519107e-05 0.0000000e+00 
1.5359979e-07 -8.0409256e-05 4.2163023e-07 
2.4808307e-07 -8.0041944e-05 1.0246075e-06 
-6.3252443e-08 -8.0513717e-05 1.0411570e-06 
-8.1778275e-08 -8.0766098e-05 4.4075176e-07 
3.1822172e-08 -8.0598111e-05 4.3067010e-07 
0.0000000e+00 -8.0501741e-05 0.0000000e+00 
0.0000000e+00 -8.0670368e-05 0.0000000e+00 
-2.4393472e-07 -8.0505990e-05 1.5154495e-06 
5.7256280e-08 -8.0115038e-05 1.5237921e-06 
0.0000000e+00 -8.0549740e-05 0.0000000e+00 
0.0000000e+00 -8.0632424e-05 0.0000000e+00 
5.1114887e-07 -1.8730332e-04 -7.8994788e-08 
6.9353365e-07 -1.8515071e-04 1.8562001e-07 
4.5576112e-07 -1.8623249e-04 2.6820402e-07 
3.7749143e-07 -1.8802116e-04 -5.7830100e-08 
4.2434687e-07 -1.8769781e-04 -5.9286332e-08 
0.0000000e+00 -1.8863507e-04 0.0000000e+00 
0.0000000e+00 -1.8898069e-04 0.0000000e+00 
-6.5920813e-07 -1.8623544e-04 1.3238950e-06 
-4.7403321e-07 -1.8537688e-04 1.3394056e-06 
0.0000000e+00 -1.8865545e-04 0.0000000e+00 
0.0000000e+00 -1.8888345e-04 0.0000000e+00 
3.6678986e-07 -3.0646668e-04 -2.6147470e-07 
5.1550364e-07 -3.0452781e-04 -3.5869317e-07 
4.8528420e-07 -3.0553699e-04 -3.2957240e-07 
3.5117361e-07 -3.0704160e-04 -2.1555087e-07 
3.3350557e-07 -3.0679282e-04 -2.2876658e-07 
0.0000000e+00 -3.0713071e-04 0.0000000e+00 
0.0000000e+00 -3.0738118e-04 0.0000000e+00 
-4.8264900e-07 -3.0554552e-04 6.4878913e-07 
-4.6921116e-07 -3.0480445e-04 6.5321825e-07 
0.0000000e+00 -3.0716261e-04 0.0000000e+00 
0.0000000e+00 -3.0733636e-04 0.0000000e+00 
7.8887678e-07 -3.5843521e-04 7.7316247e-07 
1.1438264e-06 -3.5560763e-04 1.6698151e-06 
6.7176967e-07 -3.5559607e-04 1.7053457e-06 
4.7588819e-07 -3.5840124e-04 8.3189684e-07 
6.0117634e-07 -3.5849091e-04 7.9447432e-07 
0.0000000e+00 -3.5963801e-04 0.0000000e+00 
0.0000000e+00 -3.5958455e-04 0.0000000e+00 
-9.4848758e-07 -3.5579639e-04 1.6149377e-06 
-5.4358117e-07 -3.5583429e-04 1.6219200e-06 
0.0000000e+00 -3.5955201e-04 0.0000000e+00 
0.0000000e+00 -3.5954060e-04 0.0000000e+00 
4.7734744e-07 -2.7814769e-04 9.3992213e-07 
6.3802383e-07 -2.7670944e-04 1.7798677e-06 
2.7625399e-07 -2.7568109e-04 1.8048989e-06 
2.1637055e-07 -2.7751882e-04 9.8157795e-07 
3.2847427e-07 -2.7787904e-04 9.3696639e-07 
0.0000000e+00 -2.7851251e-04 0.0000000e+00 
0.0000000e+00 -2.7822921e-04 0.0000000e+00 
-6.2244010e-07 -2.7593449e-04 7.2888469e-07 
-3.0134123e-07 -2.7672460e-04 7.2534255e-07 
0.0000000e+00 -2.7841231e-04 0.0000000e+00 
0.0000000e+00 -2.7822808e-04 0.0000000e+00 
1.8926326e-07 -1.5951996e-04 4.4073364e-10 
2.2824696e-07 -1.5848628e-04 -1.5162098e-07 
3.5536183e-07 -1.5770161e-04 -9.1422670e-08 
2.7442528e-07 -1.5900761e-04 2.7082665e-08 
2.1735583e-07 -1.5928737e-04 5.1544347e-09 
0.0000000e+00 -1.5988320e-04 0.0000000e+00 
0.0000000e+00 -1.5968918e-04 0.0000000e+00 
-3.0550731e-07 -1.5787479e-04 -9.2218534e-07 
-4.1382972e-07 -1.5848828e-04 -9.1947919e-07 
0.0000000e+00 -1.5979246e-04 0.0000000e+00 
0.0000000e+00 -1.5966829e-04 0.0000000e+00 
-7.8815113e-08 -6.6815126e-05 -3.9655299e-07 
-8.9925543e-08 -6.6673761e-05 -8.4092267e-07 
1.3621047e-07 -6.6300156e-05 -8.2351352e-07 
1.1043222e-07 -6.6551751e-05 -3.9401527e-07 
1.1369193e-08 -6.6686371e-05 -3.9469930e-07 
0.0000000e+00 -6.6733322e-05 0.0000000e+00 
0.0000000e+00 -6.6629313e-05 0.0000000e+00 
4.3909985e-08 -6.6362350e-05 -1.2056362e-06 
-1.8657465e-07 -6.6657500e-05 -1.2087514e-06 
0.0000000e+00 -6.6700573e-05 0.0000000e+00 
0.0000000e+00 -6.6640874e-05 0.0000000e+00 
2.3166631e-07 -1.0028213e-05 8.7324202e-07 
3.0538652e-07 -9.8185110e-06 1.7146882e-06 
-5.3446225e-08 -9.3558310e-06 1.6957498e-06 
-4.9489636e-08 -9.7251595e-06 8.6715738e-07 
9.1340226e-08 -9.8806031e-06 8.5818067e-07 
0.0000000e+00 -1.0119077e-05 0.0000000e+00 
0.0000000e+00 -9.9941890e-06 0.0000000e+00 
-2.3355082e-07 -9.4080106e-06 1.1899472e-06 
1.3057075e-07 -9.7904294e-06 1.1817432e-06 
0.0000000e+00 -1.0131527e-05 0.0000000e+00 
0.0000000e+00 -1.0009097e-05 0.0000000e+00 
-8.4749892e-08 1.8455310e-05 -2.5981876e-07 
-1.1558698e-07 1.8250141e-05 -5.0865162e-07 
1.7583041e-08 1.8351660e-05 -5.1189897e-07 
1.7027487e-08 1.8508495e-05 -2.6443786e-07 
-3.1502736e-08 1.8488785e-05 -2.6034343e-07 
0.0000000e+00 1.8528381e-05 0.0000000e+00 
0.0000000e+00 1.8547689e-05 0.0000000e+00 
1.1801589e-07 1.8348828e-05 -5.9312146e-07 
-7.9269196e-09 1.8283572e-05 -5.9348258e-07 
0.0000000e+00 1.8530305e-05 0.0000000e+00 
0.0000000e+00 1.8541241e-05 0.0000000e+00 
-8.0166423e-08 2.9912286e-05 -2.2273422e-07 
-8.5563151e-08 2.9717003e-05 -3.9827091e-07 
-8.5195699e-09 2.9697436e-05 -4.0228505e-07 
-8.1041884e-09 2.9892331e-05 -2.2132663e-07 
-4.1913854e-08 2.9902378e-05 -2.1992308e-07 
0.0000000e+00 3.0029816e-05 0.0000000e+00 
0.0000000e+00 3.0026093e-05 0.0000000e+00 
1.0337792e-07 2.9704221e-05 -3.6717194e-07 
1.6450269e-08 2.9729683e-05 -3.6661004e-07 
0.0000000e+00 3.0025996e-05 0.0000000e+00 
0.0000000e+00 3.0015646e-05 0.0000000e+00 
-9.2425601e-08 2.6720560e-05 -8.0469839e-08 
-1.2085671e-07 2.6504100e-05 -1.8534065e-07 
-7.5125456e-08 2.6425960e-05 -1.7650240e-07 
-6.4751475e-08 2.6669442e-05 -7.3936690e-08 
-7.7619497e-08 2.6692740e-05 -7.6042703e-08 
0.0000000e+00 2.6924316e-05 0.0000000e+00 
0.0000000e+00 2.6898233e-05 0.0000000e+00 
6.4767157e-08 2.6437976e-05 -9.4861427e-08 
2.2902759e-08 2.6500838e-05 -9.2528111e-08 
0.0000000e+00 2.6917340e-05 0.0000000e+00 
0.0000000e+00 2.6896098e-05 0.0000000e+00 
-1.0473593e-09 1.2674062e-05 1.2413237e-07 
-3.5667291e-08 1.2732718e-05 2.3136012e-07 
-1.0251949e-07 1.2537356e-05 2.5589731e-07 
-6.3132255e-08 1.2543544e-05 1.2721303e-07 
-3.2824353e-08 1.2608765e-05 1.2906892e-07 
0.0000000e+00 1.2624363e-05 0.0000000e+00 
0.0000000e+00 1.2568369e-05 0.0000000e+00 
-9.3763539e-08 1.2556036e-05 4.4183878e-07 
-2.3875947e-08 1.2708957e-05 4.4246775e-07 
0.0000000e+00 1.2613742e-05 0.0000000e+00 
0.0000000e+00 1.2575072e-05 0.0000000e+00 
8.1081446e-08 -1.7218292e-06 3.6932144e-07 
8.6172314e-08 -1.6243898e-06 7.3267086e-07 
-8.3622048e-08 -1.6213371e-06 7.2840464e-07 
-5.5311279e-08 -1.7090936e-06 3.6392137e-07 
1.3525259e-08 -1.7107467e-06 3.6310368e-07 
0.0000000e+00 -1.8471126e-06 0.0000000e+00 
0.0000000e+00 -1.8428332e-06 0.0000000e+00 
-1.3256079e-07 -1.6119376e-06 7.0296142e-07 
3.9751789e-08 -1.6277503e-06 7.0129835e-07 
0.0000000e+00 -1.8419071e-06 0.0000000e+00 
0.0000000e+00 -1.8329060e-06 0.0000000e+00 
3.7681186e-08 -6.4130659e-06 2.1705452e-07 
5.4071371e-08 -6.5410595e-06 5.0639756e-07 
-7.0387443e-08 -6.4461642e-06 4.9529842e-07 
-4.7200544e-08 -6.3685320e-06 2.1317832e-07 
-3.8074752e-09 -6.3872139e-06 2.1284011e-07 
0.0000000e+00 -6.3963244e-06 0.0000000e+00 
0.0000000e+00 -6.3717976e-06 0.0000000e+00 
-1.8215777e-08 -6.4476903e-06 3.9621187e-07 
1.0530707e-07 -6.5159797e-06 3.9585771e-07 
0.0000000e+00 -6.3946263e-06 0.0000000e+00 
0.0000000e+00 -6.3728708e-06 0.0000000e+00 
-8.9317993e-09 -2.4095764e-06 -7.8863946e-09 
1.2152020e-08 -2.5086906e-06 3.2872730e-08 
3.6883727e-10 -2.4360979e-06 2.4129223e-08 
-1.0287838e-08 -2.3753055e-06 -6.5070962e-09 
-1.0259788e-08 -2.3938760e-06 -8.2030676e-09 
0.0000000e+00 -2.3025800e-06 0.0000000e+00 
0.0000000e+00 -2.2870281e-06 0.0000000e+00 
3.8438962e-08 -2.4486569e-06 -4.1015465e-08 
4.7199336e-08 -2.4966323e-06 -4.1010942e-08 
0.0000000e+00 -2.3045634e-06 0.0000000e+00 
0.0000000e+00 -2.2926201e-06 0.0000000e+00 
-6.2113969e-08 1.5182073e-06 -5.8988693e-08 
-6.7648898e-08 1.3584070e-06 -6.2423467e-08 
-7.9240309e-08 1.3540388e-06 -5.7452073e-08 
-5.2597933e-08 1.5106031e-06 -5.4990650e-08 
-5.7663812e-08 1.5115553e-06 -5.6416244e-08 
0.0000000e+00 1.6954112e-06 0.0000000e+00 
0.0000000e+00 1.6906084e-06 0.0000000e+00 
3.0759654e-08 1.3524294e-06 -5.4240360e-08 
2.5394318e-08 1.3605970e-06 -5.3261697e-08 
0.0000000e+00 1.6864590e-06 0.0000000e+00 
0.0000000e+00 1.6869531e-06 0.0000000e+00 
-4.2752319e-08 1.0888638e-06 -1.3097786e-08 
-6.9010433e-08 1.0362170e-06 -1.9736969e-08 
-7.3759132e-08 1.0223472e-06 -1.6961646e-08 
-4.0883251e-08 1.0762101e-06 -1.1339485e-08 
-4.1184720e-08 1.0840483e-06 -1.2145843e-08 
0.0000000e+00 1.1210949e-06 0.0000000e+00 
0.0000000e+00 1.1127111e-06 0.0000000e+00 
-2.1859412e-08 1.0252677e-06 -7.6236656e-10 
-2.4854165e-08 1.0390135e-06 -2.0030639e-09 
0.0000000e+00 1.1191986e-06 0.0000000e+00 
0.0000000e+00 1.1152932e-06 0.0000000e+00 
0.0000000e+00 -3.7946342e-05 0.0000000e+00 
0.0000000e+00 -2.7920445e-05 0.0000000e+00 
6.7961164e-10 1.1473684e-07 1.7644026e-09 