# vtk DataFile Version 4.0
vtk output
ASCII
DATASET UNSTRUCTURED_GRID
POINTS 1827 float
0.0000000e+00 0.0000000e+00 0.0000000e+00 
0.0000000e+00 0.0000000e+00 2.0000000e+01 
3.4700000e+00 0.0000000e+00 0.0000000e+00 
3.4700000e+00 0.0000000e+00 2.0000000e+01 
3.4700000e+00 1.0000000e+00 0.0000000e+00 
3.4700000e+00 1.0000000e+00 2.0000000e+01 
0.0000000e+00 1.0000000e+00 0.0000000e+00 
0.0000000e+00 1.0000000e+00 2.0000000e+01 
1.2500000e+00 2.5000000e+00 0.0000000e+00 
1.2500000e+00 2.5000000e+00 1.1700000e-01 
7.5000000e-01 2.5000000e+00 1.1700000e-01 
7.5000000e-01 2.5000000e+00 0.0000000e+00 
0.0000000e+00 2.5000000e+00 0.0000000e+00 
0.0000000e+00 2.5000000e+00 1.1700000e-01 
1.2500000e+00 2.8000000e+00 1.1700000e-01 
1.2500000e+00 2.8000000e+00 0.0000000e+00 
0.0000000e+00 2.8000000e+00 0.0000000e+00 
0.0000000e+00 2.8000000e+00 1.1700000e-01 
7.5000000e-01 2.5000000e+00 3.8299999e-01 
1.2500000e+00 2.5000000e+00 3.8299999e-01 
1.2500000e+00 2.5000000e+00 6.1699998e-01 
7.5000000e-01 2.5000000e+00 6.1699998e-01 
7.5000000e-01 2.5000000e+00 5.0000000e-01 
0.0000000e+00 2.5000000e+00 3.8299999e-01 
0.0000000e+00 2.5000000e+00 6.1699998e-01 
1.2500000e+00 2.8000000e+00 6.1699998e-01 
1.2500000e+00 2.8000000e+00 3.8299999e-01 
0.0000000e+00 2.8000000e+00 3.8299999e-01 
0.0000000e+00 2.8000000e+00 6.1699998e-01 
7.5000000e-01 2.5000000e+00 8.8300002e-01 
1.2500000e+00 2.5000000e+00 8.8300002e-01 
1.2500000e+00 2.5000000e+00 1.1170000e+00 
7.5000000e-01 2.5000000e+00 1.1170000e+00 
7.5000000e-01 2.5000000e+00 1.0000000e+00 
0.0000000e+00 2.5000000e+00 8.8300002e-01 
0.0000000e+00 2.5000000e+00 1.1170000e+00 
1.2500000e+00 2.8000000e+00 1.1170000e+00 
1.2500000e+00 2.8000000e+00 8.8300002e-01 
0.0000000e+00 2.8000000e+00 8.8300002e-01 
0.0000000e+00 2.8000000e+00 1.1170000e+00 
7.5000000e-01 2.5000000e+00 1.3830000e+00 
1.2500000e+00 2.5000000e+00 1.3830000e+00 
1.2500000e+00 2.5000000e+00 1.6170000e+00 
7.5000000e-01 2.5000000e+00 1.6170000e+00 
7.5000000e-01 2.5000000e+00 1.5000000e+00 
0.0000000e+00 2.5000000e+00 1.3830000e+00 
0.0000000e+00 2.5000000e+00 1.6170000e+00 
1.2500000e+00 2.8000000e+00 1.6170000e+00 
1.2500000e+00 2.8000000e+00 1.3830000e+00 
0.0000000e+00 2.8000000e+00 1.3830000e+00 
0.0000000e+00 2.8000000e+00 1.6170000e+00 
7.5000000e-01 2.5000000e+00 1.8830000e+00 
1.2500000e+00 2.5000000e+00 1.8830000e+00 
1.2500000e+00 2.5000000e+00 2.1170001e+00 
7.5000000e-01 2.5000000e+00 2.1170001e+00 
7.5000000e-01 2.5000000e+00 2.0000000e+00 
0.0000000e+00 2.5000000e+00 1.8830000e+00 
0.0000000e+00 2.5000000e+00 2.1170001e+00 
1.2500000e+00 2.8000000e+00 2.1170001e+00 
1.2500000e+00 2.8000000e+00 1.8830000e+00 
0.0000000e+00 2.8000000e+00 1.8830000e+00 
0.0000000e+00 2.8000000e+00 2.1170001e+00 
7.5000000e-01 2.5000000e+00 2.3829999e+00 
1.2500000e+00 2.5000000e+00 2.3829999e+00 
1.2500000e+00 2.5000000e+00 2.6170001e+00 
7.5000000e-01 2.5000000e+00 2.6170001e+00 
7.5000000e-01 2.5000000e+00 2.5000000e+00 
0.0000000e+00 2.5000000e+00 2.3829999e+00 
0.0000000e+00 2.5000000e+00 2.6170001e+00 
1.2500000e+00 2.8000000e+00 2.6170001e+00 
1.2500000e+00 2.8000000e+00 2.3829999e+00 
0.0000000e+00 2.8000000e+00 2.3829999e+00 
0.0000000e+00 2.8000000e+00 2.6170001e+00 
7.5000000e-01 2.5000000e+00 2.8829999e+00 
1.2500000e+00 2.5000000e+00 2.8829999e+00 
1.2500000e+00 2.5000000e+00 3.1170001e+00 
7.5000000e-01 2.5000000e+00 3.1170001e+00 
7.5000000e-01 2.5000000e+00 3.0000000e+00 
0.0000000e+00 2.5000000e+00 2.8829999e+00 
0.0000000e+00 2.5000000e+00 3.1170001e+00 
1.2500000e+00 2.8000000e+00 3.1170001e+00 
1.2500000e+00 2.8000000e+00 2.8829999e+00 
0.0000000e+00 2.8000000e+00 2.8829999e+00 
0.0000000e+00 2.8000000e+00 3.1170001e+00 
7.5000000e-01 2.5000000e+00 3.3829999e+00 
1.2500000e+00 2.5000000e+00 3.3829999e+00 
1.2500000e+00 2.5000000e+00 3.6170001e+00 
7.5000000e-01 2.5000000e+00 3.6170001e+00 
7.5000000e-01 2.5000000e+00 3.5000000e+00 
0.0000000e+00 2.5000000e+00 3.3829999e+00 
0.0000000e+00 2.5000000e+00 3.6170001e+00 
1.2500000e+00 2.8000000e+00 3.6170001e+00 
1.2500000e+00 2.8000000e+00 3.3829999e+00 
0.0000000e+00 2.8000000e+00 3.3829999e+00 
0.0000000e+00 2.8000000e+00 3.6170001e+00 
7.5000000e-01 2.5000000e+00 3.8829999e+00 
1.2500000e+00 2.5000000e+00 3.8829999e+00 
1.2500000e+00 2.5000000e+00 4.1170001e+00 
7.5000000e-01 2.5000000e+00 4.1170001e+00 
7.5000000e-01 2.5000000e+00 4.0000000e+00 
0.0000000e+00 2.5000000e+00 3.8829999e+00 
0.0000000e+00 2.5000000e+00 4.1170001e+00 
1.2500000e+00 2.8000000e+00 4.1170001e+00 
1.2500000e+00 2.8000000e+00 3.8829999e+00 
0.0000000e+00 2.8000000e+00 3.8829999e+00 
0.0000000e+00 2.8000000e+00 4.1170001e+00 
7.5000000e-01 2.5000000e+00 4.3829999e+00 
1.2500000e+00 2.5000000e+00 4.3829999e+00 
1.2500000e+00 2.5000000e+00 4.6170001e+00 
7.5000000e-01 2.5000000e+00 4.6170001e+00 
7.5000000e-01 2.5000000e+00 4.5000000e+00 
0.0000000e+00 2.5000000e+00 4.3829999e+00 
0.0000000e+00 2.5000000e+00 4.6170001e+00 
1.2500000e+00 2.8000000e+00 4.6170001e+00 
1.2500000e+00 2.8000000e+00 4.3829999e+00 
0.0000000e+00 2.8000000e+00 4.3829999e+00 
0.0000000e+00 2.8000000e+00 4.6170001e+00 
7.5000000e-01 2.5000000e+00 4.8829999e+00 
1.2500000e+00 2.5000000e+00 4.8829999e+00 
1.2500000e+00 2.5000000e+00 5.1170001e+00 
7.5000000e-01 2.5000000e+00 5.1170001e+00 
7.5000000e-01 2.5000000e+00 5.0000000e+00 
0.0000000e+00 2.5000000e+00 4.8829999e+00 
0.0000000e+00 2.5000000e+00 5.1170001e+00 
1.2500000e+00 2.8000000e+00 5.1170001e+00 
1.2500000e+00 2.8000000e+00 4.8829999e+00 
0.0000000e+00 2.8000000e+00 4.8829999e+00 
0.0000000e+00 2.8000000e+00 5.1170001e+00 
7.5000000e-01 2.5000000e+00 5.3829999e+00 
1.2500000e+00 2.5000000e+00 5.3829999e+00 
1.2500000e+00 2.5000000e+00 5.6170001e+00 
7.5000000e-01 2.5000000e+00 5.6170001e+00 
7.5000000e-01 2.5000000e+00 5.5000000e+00 
0.0000000e+00 2.5000000e+00 5.3829999e+00 
0.0000000e+00 2.5000000e+00 5.6170001e+00 
1.2500000e+00 2.8000000e+00 5.6170001e+00 
1.2500000e+00 2.8000000e+00 5.3829999e+00 
0.0000000e+00 2.8000000e+00 5.3829999e+00 
0.0000000e+00 2.8000000e+00 5.6170001e+00 
7.5000000e-01 2.5000000e+00 5.8829999e+00 
1.2500000e+00 2.5000000e+00 5.8829999e+00 
1.2500000e+00 2.5000000e+00 6.1170001e+00 
7.5000000e-01 2.5000000e+00 6.1170001e+00 
7.5000000e-01 2.5000000e+00 6.0000000e+00 
0.0000000e+00 2.5000000e+00 5.8829999e+00 
0.0000000e+00 2.5000000e+00 6.1170001e+00 
1.2500000e+00 2.8000000e+00 6.1170001e+00 
1.2500000e+00 2.8000000e+00 5.8829999e+00 
0.0000000e+00 2.8000000e+00 5.8829999e+00 
0.0000000e+00 2.8000000e+00 6.1170001e+00 
7.5000000e-01 2.5000000e+00 6.3829999e+00 
1.2500000e+00 2.5000000e+00 6.3829999e+00 
1.2500000e+00 2.5000000e+00 6.6170001e+00 
7.5000000e-01 2.5000000e+00 6.6170001e+00 
7.5000000e-01 2.5000000e+00 6.5000000e+00 
0.0000000e+00 2.5000000e+00 6.3829999e+00 
0.0000000e+00 2.5000000e+00 6.6170001e+00 
1.2500000e+00 2.8000000e+00 6.6170001e+00 
1.2500000e+00 2.8000000e+00 6.3829999e+00 
0.0000000e+00 2.8000000e+00 6.3829999e+00 
0.0000000e+00 2.8000000e+00 6.6170001e+00 
7.5000000e-01 2.5000000e+00 6.8829999e+00 
1.2500000e+00 2.5000000e+00 6.8829999e+00 
1.2500000e+00 2.5000000e+00 7.1170001e+00 
7.5000000e-01 2.5000000e+00 7.1170001e+00 
7.5000000e-01 2.5000000e+00 7.0000000e+00 
0.0000000e+00 2.5000000e+00 6.8829999e+00 
0.0000000e+00 2.5000000e+00 7.1170001e+00 
1.2500000e+00 2.8000000e+00 7.1170001e+00 
1.2500000e+00 2.8000000e+00 6.8829999e+00 
0.0000000e+00 2.8000000e+00 6.8829999e+00 
0.0000000e+00 2.8000000e+00 7.1170001e+00 
7.5000000e-01 2.5000000e+00 7.3829999e+00 
1.2500000e+00 2.5000000e+00 7.3829999e+00 
1.2500000e+00 2.5000000e+00 7.6170001e+00 
7.5000000e-01 2.5000000e+00 7.6170001e+00 
7.5000000e-01 2.5000000e+00 7.5000000e+00 
0.0000000e+00 2.5000000e+00 7.3829999e+00 
0.0000000e+00 2.5000000e+00 7.6170001e+00 
1.2500000e+00 2.8000000e+00 7.6170001e+00 
1.2500000e+00 2.8000000e+00 7.3829999e+00 
0.0000000e+00 2.8000000e+00 7.3829999e+00 
0.0000000e+00 2.8000000e+00 7.6170001e+00 
7.5000000e-01 2.5000000e+00 7.8829999e+00 
1.2500000e+00 2.5000000e+00 7.8829999e+00 
1.2500000e+00 2.5000000e+00 8.1169996e+00 
7.5000000e-01 2.5000000e+00 8.1169996e+00 
7.5000000e-01 2.5000000e+00 8.0000000e+00 
0.0000000e+00 2.5000000e+00 7.8829999e+00 
0.0000000e+00 2.5000000e+00 8.1169996e+00 
1.2500000e+00 2.8000000e+00 8.1169996e+00 
1.2500000e+00 2.8000000e+00 7.8829999e+00 
0.0000000e+00 2.8000000e+00 7.8829999e+00 
0.0000000e+00 2.8000000e+00 8.1169996e+00 
7.5000000e-01 2.5000000e+00 8.3830004e+00 
1.2500000e+00 2.5000000e+00 8.3830004e+00 
1.2500000e+00 2.5000000e+00 8.6169996e+00 
7.5000000e-01 2.5000000e+00 8.6169996e+00 
7.5000000e-01 2.5000000e+00 8.5000000e+00 
0.0000000e+00 2.5000000e+00 8.3830004e+00 
0.0000000e+00 2.5000000e+00 8.6169996e+00 
1.2500000e+00 2.8000000e+00 8.6169996e+00 
1.2500000e+00 2.8000000e+00 8.3830004e+00 
0.0000000e+00 2.8000000e+00 8.3830004e+00 
0.0000000e+00 2.8000000e+00 8.6169996e+00 
7.5000000e-01 2.5000000e+00 8.8830004e+00 
1.2500000e+00 2.5000000e+00 8.8830004e+00 
1.2500000e+00 2.5000000e+00 9.1169996e+00 
7.5000000e-01 2.5000000e+00 9.1169996e+00 
7.5000000e-01 2.5000000e+00 9.0000000e+00 
0.0000000e+00 2.5000000e+00 8.8830004e+00 
0.0000000e+00 2.5000000e+00 9.1169996e+00 
1.2500000e+00 2.8000000e+00 9.1169996e+00 
1.2500000e+00 2.8000000e+00 8.8830004e+00 
0.0000000e+00 2.8000000e+00 8.8830004e+00 
0.0000000e+00 2.8000000e+00 9.1169996e+00 
7.5000000e-01 2.5000000e+00 9.3830004e+00 
1.2500000e+00 2.5000000e+00 9.3830004e+00 
1.2500000e+00 2.5000000e+00 9.6169996e+00 
7.5000000e-01 2.5000000e+00 9.6169996e+00 
7.5000000e-01 2.5000000e+00 9.5000000e+00 
0.0000000e+00 2.5000000e+00 9.3830004e+00 
0.0000000e+00 2.5000000e+00 9.6169996e+00 
1.2500000e+00 2.8000000e+00 9.6169996e+00 
1.2500000e+00 2.8000000e+00 9.3830004e+00 
0.0000000e+00 2.8000000e+00 9.3830004e+00 
0.0000000e+00 2.8000000e+00 9.6169996e+00 
7.5000000e-01 2.5000000e+00 9.8830004e+00 
1.2500000e+00 2.5000000e+00 9.8830004e+00 
1.2500000e+00 2.5000000e+00 1.0117000e+01 
[...]
POINT_DATA 1827
FIELD FieldData 2
DISPLACEMENT 3 1827  float
0.0000000e+00 0.0000000e+00 0.0000000e+00 
0.0000000e+00 0.0000000e+00 0.0000000e+00 
0.0000000e+00 0.0000000e+00 0.0000000e+00 
0.0000000e+00 0.0000000e+00 0.0000000e+00 
0.0000000e+00 2.3005132e-05 0.0000000e+00 
0.0000000e+00 1.2347047e-06 0.0000000e+00 
0.0000000e+00 -3.3931056e-07 0.0000000e+00 
0.0000000e+00 -4.8368752e-06 0.0000000e+00 
0.0000000e+00 3.6816600e-05 0.0000000e+00 
3.8555661e-09 3.6820365e-05 7.0257213e-09 
-1.0995092e-09 3.6803442e-05 7.5166284e-10 
0.0000000e+00 3.6797996e-05 0.0000000e+00 
0.0000000e+00 3.6861318e-05 0.0000000e+00 
0.0000000e+00 3.6862359e-05 0.0000000e+00 
-2.3547762e-09 3.6814134e-05 -1.3436635e-09 
0.0000000e+00 3.6814821e-05 0.0000000e+00 
0.0000000e+00 3.6859834e-05 0.0000000e+00 
0.0000000e+00 3.6860503e-05 0.0000000e+00 
-1.4557546e-07 4.7950314e-05 3.1580228e-08 
-1.5951140e-07 4.7285728e-05 1.9705126e-07 
-2.2780327e-07 4.7351783e-05 1.9165329e-07 
-1.8419419e-07 4.7975533e-05 3.1299010e-08 
-1.6245147e-07 4.7962731e-05 3.0698761e-08 
0.0000000e+00 4.8487465e-05 0.0000000e+00 
0.0000000e+00 4.8503898e-05 0.0000000e+00 
1.5123943e-07 4.7364250e-05 1.2536667e-07 
2.1243146e-07 4.7323487e-05 1.2762855e-07 
0.0000000e+00 4.8466220e-05 0.0000000e+00 
0.0000000e+00 4.8483806e-05 0.0000000e+00 
-8.8064567e-08 4.9507908e-05 1.0858385e-08 
-8.3404110e-08 4.9136452e-05 2.2327457e-07 
-1.9780600e-07 4.9094146e-05 2.1111134e-07 
-1.3421977e-07 4.9472746e-05 1.5240925e-08 
-1.0985486e-07 4.9491733e-05 1.2572893e-08 
0.0000000e+00 4.9815899e-05 0.0000000e+00 
0.0000000e+00 4.9802886e-05 0.0000000e+00 
4.1935674e-08 4.9112441e-05 2.4792931e-07 
1.2756939e-07 4.9151004e-05 2.4786291e-07 
0.0000000e+00 4.9800270e-05 0.0000000e+00 
0.0000000e+00 4.9798127e-05 0.0000000e+00 
-1.4679203e-07 4.1147610e-05 -7.6347595e-07 
-2.1119823e-07 4.1021183e-05 -1.5788703e-06 
1.8481836e-07 4.0793053e-05 -1.6156843e-06 
1.3177844e-07 4.0981631e-05 -7.6863927e-07 
-6.4106529e-09 4.1065847e-05 -7.5730924e-07 
0.0000000e+00 4.1136209e-05 0.0000000e+00 
0.0000000e+00 4.1053529e-05 0.0000000e+00 
2.5445573e-07 4.0823903e-05 -1.3018675e-06 
-1.1975818e-07 4.1028819e-05 -1.3097308e-06 
0.0000000e+00 4.1121064e-05 0.0000000e+00 
0.0000000e+00 4.1047133e-05 0.0000000e+00 
-7.0442788e-08 3.2148244e-05 -5.3738182e-07 
-1.1004007e-07 3.2229946e-05 -1.1074284e-06 
1.4884667e-07 3.2072279e-05 -1.1100414e-06 
1.2558191e-07 3.2035274e-05 -5.4258061e-07 
2.8403351e-08 3.2097498e-05 -5.3394183e-07 
0.0000000e+00 3.1977648e-05 0.0000000e+00 
0.0000000e+00 3.1936339e-05 0.0000000e+00 
1.1109812e-07 3.2090848e-05 -9.1149042e-07 
-1.4478906e-07 3.2228072e-05 -9.1177685e-07 
0.0000000e+00 3.1987813e-05 0.0000000e+00 
0.0000000e+00 3.1949618e-05 0.0000000e+00 
-2.8312144e-07 2.9085417e-05 -9.0694965e-07 
-3.8680633e-07 2.8612934e-05 -1.9005170e-06 
7.5787945e-08 2.8400693e-05 -1.9094225e-06 
5.9604659e-08 2.8942175e-05 -9.0399107e-07 
-1.0694775e-07 2.9014254e-05 -8.9519818e-07 
0.0000000e+00 2.9305600e-05 0.0000000e+00 
0.0000000e+00 2.9254454e-05 0.0000000e+00 
3.6473327e-07 2.8446148e-05 -1.6313378e-06 
-8.5716778e-08 2.8628969e-05 -1.6327415e-06 
0.0000000e+00 2.9286215e-05 0.0000000e+00 
0.0000000e+00 2.9232304e-05 0.0000000e+00 
-1.1180268e-07 2.7674794e-05 -3.0931898e-07 
-1.4745747e-07 2.7433409e-05 -6.1026361e-07 
-1.0314804e-08 2.7319476e-05 -6.0506790e-07 
-9.9107300e-09 2.7589005e-05 -3.0491091e-07 
-6.0574436e-08 2.7628897e-05 -3.0317418e-07 
0.0000000e+00 2.7864504e-05 0.0000000e+00 
0.0000000e+00 2.7822116e-05 0.0000000e+00 
1.4069657e-07 2.7332862e-05 -4.6506904e-07 
4.7568851e-09 2.7437318e-05 -4.6412595e-07 
0.0000000e+00 2.7847802e-05 0.0000000e+00 
0.0000000e+00 2.7815027e-05 0.0000000e+00 
-6.5335861e-08 2.2947694e-05 -1.9506976e-07 
-9.4916061e-08 2.2915374e-05 -3.8296142e-07 
2.6027545e-09 2.2855118e-05 -3.7359530e-07 
-1.0765785e-09 2.2904598e-05 -1.9381436e-07 
-3.3402930e-08 2.2926077e-05 -1.9248635e-07 
0.0000000e+00 2.2946662e-05 0.0000000e+00 
0.0000000e+00 2.2925820e-05 0.0000000e+00 
2.5342588e-08 2.2860473e-05 -3.0425352e-07 
-5.7558548e-08 2.2914550e-05 -3.0235867e-07 
0.0000000e+00 2.2952174e-05 0.0000000e+00 
0.0000000e+00 2.2932021e-05 0.0000000e+00 
3.8397502e-08 1.7220640e-05 1.4765018e-07 
6.7349291e-08 1.7174103e-05 3.3928023e-07 
-2.2294403e-08 1.7145288e-05 3.4461030e-07 
-2.6137986e-08 1.7206143e-05 1.4811559e-07 
5.7349259e-09 1.7213615e-05 1.4700349e-07 
0.0000000e+00 1.7267235e-05 0.0000000e+00 
0.0000000e+00 1.7259001e-05 0.0000000e+00 
-3.2956937e-09 1.7152794e-05 3.5246919e-07 
8.6761929e-08 1.7167909e-05 3.5578432e-07 
0.0000000e+00 1.7258788e-05 0.0000000e+00 
0.0000000e+00 1.7259237e-05 0.0000000e+00 
5.5621950e-08 1.2332705e-05 4.8691061e-07 
8.5588837e-08 1.2058084e-05 1.0252614e-06 
-1.6115152e-07 1.2143463e-05 1.0120109e-06 
-1.2978560e-07 1.2389365e-05 4.8517705e-07 
-3.5741614e-08 1.2365051e-05 4.8101452e-07 
0.0000000e+00 1.2528656e-05 0.0000000e+00 
0.0000000e+00 1.2550960e-05 0.0000000e+00 
-1.8499493e-08 1.2152482e-05 9.0145778e-07 
2.2289812e-07 1.2076634e-05 9.0226820e-07 
0.0000000e+00 1.2516547e-05 0.0000000e+00 
0.0000000e+00 1.2545910e-05 0.0000000e+00 
9.9343687e-08 9.9413974e-06 6.2730697e-07 
1.0661084e-07 9.9511253e-06 1.2416203e-06 
-1.7341449e-07 1.0090017e-05 1.2348429e-06 
-1.2418855e-07 1.0034316e-05 6.2993166e-07 
-1.1636369e-08 9.9859762e-06 6.2151105e-07 
0.0000000e+00 9.9610224e-06 0.0000000e+00 
0.0000000e+00 1.0005423e-05 0.0000000e+00 
-1.7958807e-07 1.0081167e-05 1.0663979e-06 
9.9222731e-08 9.9603303e-06 1.0653835e-06 
0.0000000e+00 9.9701556e-06 0.0000000e+00 
0.0000000e+00 1.0009679e-05 0.0000000e+00 
3.6125986e-08 6.4876508e-06 2.0549268e-07 
4.1198565e-08 6.5252252e-06 3.6290615e-07 
-2.8028971e-08 6.4866845e-06 3.6057915e-07 
-3.3081811e-08 6.4759897e-06 2.0697654e-07 
5.7089478e-10 6.4814135e-06 2.0570165e-07 
0.0000000e+00 6.5317658e-06 0.0000000e+00 
0.0000000e+00 6.5266636e-06 0.0000000e+00 
-4.4917869e-08 6.4924679e-06 3.8711133e-07 
3.5315306e-08 6.5090867e-06 3.8679778e-07 
0.0000000e+00 6.5261265e-06 0.0000000e+00 
0.0000000e+00 6.5284235e-06 0.0000000e+00 
5.7810936e-08 -1.8155923e-08 -9.3021313e-08 
7.3402887e-08 1.5496772e-07 -1.5511169e-07 
1.0618889e-07 7.1140200e-08 -1.4674674e-07 
7.8343106e-08 -7.6734381e-08 -1.0088603e-07 
6.8902047e-08 -4.4426404e-08 -9.4977217e-08 
0.0000000e+00 -1.9073856e-07 0.0000000e+00 
0.0000000e+00 -2.1691731e-07 0.0000000e+00 
-2.8405700e-09 7.4495965e-08 -6.3713173e-08 
-2.3972738e-08 1.4351848e-07 -6.2985457e-08 
0.0000000e+00 -1.9184066e-07 0.0000000e+00 
0.0000000e+00 -2.1543693e-07 0.0000000e+00 
1.5476681e-08 -8.2733350e-06 2.0418449e-07 
1.7303233e-08 -8.3153382e-06 4.6000699e-07 
-1.0674051e-07 -8.3585264e-06 4.6340614e-07 
-7.4280479e-08 -8.2969964e-06 2.0276529e-07 
-2.7809815e-08 -8.2814349e-06 2.0180090e-07 
0.0000000e+00 -8.3031746e-06 0.0000000e+00 
0.0000000e+00 -8.3150089e-06 0.0000000e+00 
-7.0424967e-08 -8.3435480e-06 4.8678805e-07 
5.2019079e-08 -8.3169216e-06 4.8671967e-07 
0.0000000e+00 -8.3065079e-06 0.0000000e+00 
0.0000000e+00 -8.3091081e-06 0.0000000e+00 
-5.5697903e-08 -2.2216305e-05 -6.4522403e-08 
-6.4934561e-08 -2.2485636e-05 -1.5675159e-08 
-1.0570622e-07 -2.2717768e-05 -2.1007562e-08 
-7.0228765e-08 -2.2382201e-05 -7.0195014e-08 
-5.9500508e-08 -2.2293205e-05 -6.3045526e-08 
0.0000000e+00 -2.2102422e-05 0.0000000e+00 
0.0000000e+00 -2.2164040e-05 0.0000000e+00 
7.4115675e-08 -2.2677588e-05 2.2405973e-07 
1.0494541e-07 -2.2485618e-05 2.2495630e-07 
0.0000000e+00 -2.2129603e-05 0.0000000e+00 
0.0000000e+00 -2.2170078e-05 0.0000000e+00 
1.3447081e-07 -5.3497024e-05 -3.3857127e-08 
1.6223692e-07 -5.2954187e-05 -1.1922562e-07 
1.8227260e-07 -5.3361222e-05 -1.2155890e-07 
1.2395988e-07 -5.3730091e-05 -2.3481345e-08 
1.2399121e-07 -5.3619595e-05 -2.5622322e-08 
0.0000000e+00 -5.3768803e-05 0.0000000e+00 
0.0000000e+00 -5.3872325e-05 0.0000000e+00 
-9.2693760e-08 -5.3333948e-05 2.8808839e-07 
-1.0192133e-07 -5.3036681e-05 2.8909739e-07 
0.0000000e+00 -5.3785378e-05 0.0000000e+00 
0.0000000e+00 -5.3854626e-05 0.0000000e+00 
1.9748292e-07 -1.2025316e-04 -5.4685717e-07 
3.1583156e-07 -1.1919564e-04 -8.2529351e-07 
4.1929886e-07 -1.1999179e-04 -8.2495859e-07 
2.8571864e-07 -1.2075627e-04 -5.1814487e-07 
2.2687497e-07 -1.2053058e-04 -5.1833587e-07 
0.0000000e+00 -1.2063491e-04 0.0000000e+00 
0.0000000e+00 -1.2085463e-04 0.0000000e+00 
-1.3160654e-07 -1.1998061e-04 -5.2031295e-09 
-2.2794681e-07 -1.1935408e-04 -9.4207326e-09 
0.0000000e+00 -1.2067139e-04 0.0000000e+00 
0.0000000e+00 -1.2085304e-04 0.0000000e+00 
4.0349889e-07 -2.2640220e-04 1.0190583e-06 
5.0589261e-07 -2.2534498e-04 1.9298084e-06 
4.6107456e-08 -2.2592545e-04 1.9487477e-06 
-3.2508769e-09 -2.2673589e-04 1.0463750e-06 
1.8289845e-07 -2.2659081e-04 1.0269613e-06 
0.0000000e+00 -2.2675155e-04 0.0000000e+00 
0.0000000e+00 -2.2691027e-04 0.0000000e+00 
-4.8477347e-07 -2.2591995e-04 2.4711535e-06 
-5.0710192e-09 -2.2551697e-04 2.4647668e-06 
0.0000000e+00 -2.2677664e-04 0.0000000e+00 
0.0000000e+00 -2.2684394e-04 0.0000000e+00 
6.0534433e-07 -3.3122819e-04 -5.4809129e-07 
8.2048479e-07 -3.2825212e-04 -8.9988208e-07 
9.6522922e-07 -3.2882640e-04 -8.5235592e-07 
7.2559237e-07 -3.3159670e-04 -4.8908873e-07 
6.3164970e-07 -3.3147619e-04 -5.0839833e-07 
0.0000000e+00 -3.3269476e-04 0.0000000e+00 
0.0000000e+00 -3.3283752e-04 0.0000000e+00 
-7.0046150e-07 -3.2897221e-04 -2.7737852e-07 
-8.3728702e-07 -3.2851481e-04 -2.7955633e-07 
0.0000000e+00 -3.3264110e-04 0.0000000e+00 
0.0000000e+00 -3.3279660e-04 0.0000000e+00 
5.5079988e-07 -3.4601454e-04 -5.4650343e-07 
6.9698001e-07 -3.4295590e-04 -1.2118910e-06 
1.0638933e-06 -3.4259292e-04 -1.1038396e-06 
7.9317090e-07 -3.4583377e-04 -4.9585572e-07 
6.3564119e-07 -3.4598316e-04 -5.1909700e-07 
0.0000000e+00 -3.4745978e-04 0.0000000e+00 
0.0000000e+00 -3.4737150e-04 0.0000000e+00 
-7.4570329e-07 -3.4288681e-04 -1.4629525e-06 
-1.0657913e-06 -3.4312671e-04 -1.4556307e-06 
0.0000000e+00 -3.4734458e-04 0.0000000e+00 
0.0000000e+00 -3.4732482e-04 0.0000000e+00 
1.8516414e-07 -2.3468939e-04 1.8112593e-07 
2.1781906e-07 -2.3354602e-04 -2.8609632e-08 
3.9338326e-07 -2.3243784e-04 4.1141370e-09 
2.9278277e-07 -2.3393713e-04 2.4850925e-07 
2.1636515e-07 -2.3437098e-04 1.9676447e-07 
0.0000000e+00 -2.3484095e-04 0.0000000e+00 
0.0000000e+00 -2.3455180e-04 0.0000000e+00 
-3.5055928e-07 -2.3265611e-04 -1.1607036e-06 
-5.0732507e-07 -2.3354559e-04 -1.1515646e-06 
0.0000000e+00 -2.3479527e-04 0.0000000e+00 
0.0000000e+00 -2.3459032e-04 0.0000000e+00 
-9.4955979e-08 -1.0741498e-04 -1.4216174e-06 
-9.4854954e-08 -1.0673110e-04 -2.7878268e-06 
5.7484283e-07 -1.0630764e-04 -2.7772423e-06 
4.5954653e-07 -1.0715865e-04 -1.4062754e-06 
1.7672870e-07 -1.0730208e-04 -1.4035577e-06 
0.0000000e+00 -1.0773601e-04 0.0000000e+00 
0.0000000e+00 -1.0760675e-04 0.0000000e+00 
1.3471238e-07 -1.0642207e-04 -3.1393986e-06 
-5.4548286e-07 -1.0671154e-04 -3.1377988e-06 
0.0000000e+00 -1.0765719e-04 0.0000000e+00 
0.0000000e+00 -1.0761943e-04 0.0000000e+00 
1.0600284e-07 -1.9343590e-05 2.9148984e-07 
1.8039121e-07 -1.9032625e-05 3.3455336e-07 
1.8828449e-07 -1.8418457e-05 3.4137022e-07 
9.9393972e-08 -1.8909956e-05 2.9159580e-07 
9.5473254e-08 -1.9123439e-05 2.7656463e-07 
0.0000000e+00 -1.9275494e-05 0.0000000e+00 
0.0000000e+00 -1.9098848e-05 0.0000000e+00 
-6.2784984e-08 -1.8503997e-05 -3.1526210e-07 
-6.7578732e-08 -1.9015264e-05 -3.0807058e-07 
0.0000000e+00 -1.9225768e-05 0.0000000e+00 
0.0000000e+00 -1.9084033e-05 0.0000000e+00 
-9.0790209e-08 1.6704891e-05 -5.2785387e-10 
-8.0295187e-08 1.6366292e-05 2.5833806e-09 
-8.0494054e-08 1.6422404e-05 6.0492464e-09 
-8.6867423e-08 1.6747796e-05 5.9021410e-09 
-8.7736886e-08 1.6723745e-05 2.3760374e-09 
0.0000000e+00 1.7044193e-05 0.0000000e+00 
0.0000000e+00 1.7062788e-05 0.0000000e+00 
1.0547853e-07 1.6424316e-05 -5.8401096e-08 
1.0194923e-07 1.6376665e-05 -5.4640100e-08 
0.0000000e+00 1.7035116e-05 0.0000000e+00 
0.0000000e+00 1.7053128e-05 0.0000000e+00 
-4.4096538e-08 1.3758348e-05 3.8923540e-07 
-5.8639909e-08 1.3322782e-05 8.2899362e-07 
-2.5681379e-07 1.3309636e-05 8.1887282e-07 
-1.9961033e-07 1.3739698e-05 3.8420026e-07 
-1.1686479e-07 1.3753464e-05 3.8326900e-07 
0.0000000e+00 1.4043443e-05 0.0000000e+00 
0.0000000e+00 1.4015865e-05 0.0000000e+00 
-3.0420584e-09 1.3335212e-05 8.2100854e-07 
1.9972597e-07 1.3344876e-05 8.2124643e-07 
0.0000000e+00 1.4012980e-05 0.0000000e+00 
0.0000000e+00 1.4017824e-05 0.0000000e+00 
-4.9499809e-09 2.2806615e-08 2.4217564e-07 
-2.4297345e-08 -2.6794663e-07 4.9483810e-07 
-1.3319385e-07 -3.1296213e-07 4.9054387e-07 
-9.9946497e-08 6.2694810e-10 2.3242637e-07 
-4.7735320e-08 2.1069161e-08 2.3551067e-07 
0.0000000e+00 1.2467849e-07 0.0000000e+00 
0.0000000e+00 1.1025097e-07 0.0000000e+00 
3.1711789e-08 -2.7940015e-07 5.1938792e-07 
1.5554470e-07 -2.5395909e-07 5.1997478e-07 
0.0000000e+00 1.0637439e-07 0.0000000e+00 
0.0000000e+00 1.0607921e-07 0.0000000e+00 
2.8688261e-08 -4.6444629e-06 2.1836054e-07 
2.1876058e-08 -4.6443929e-06 4.2001798e-07 
-6.7941365e-08 -4.5750085e-06 4.1642963e-07 
-4.3292847e-08 -4.6038444e-06 2.1374488e-07 
-4.8109228e-09 -4.6207633e-06 2.1352540e-07 
0.0000000e+00 -4.7321855e-06 0.0000000e+00 
0.0000000e+00 -4.7111721e-06 0.0000000e+00 
-7.2865518e-08 -4.5756638e-06 3.4017521e-07 
1.8264720e-08 -4.6310506e-06 3.3860283e-07 
0.0000000e+00 -4.7228459e-06 0.0000000e+00 
0.0000000e+00 -4.7088206e-06 0.0000000e+00 
6.3139353e-08 8.2447121e-07 2.3126418e-08 
7.9752880e-08 1.0828193e-06 3.7735024e-08 
8.0159850e-08 1.2240600e-06 3.5227643e-08 
6.6178032e-08 9.0077418e-07 2.4370962e-08 
6.2901989e-08 8.5998334e-07 2.1502821e-08 
0.0000000e+00 6.4631433e-07 0.0000000e+00 
0.0000000e+00 6.8405240e-07 0.0000000e+00 
-8.5103885e-08 1.1893537e-06 -9.7360989e-08 
-8.9155989e-08 1.0894919e-06 -9.9755361e-08 
0.0000000e+00 6.6905511e-07 0.0000000e+00 
0.0000000e+00 6.8729594e-07 0.0000000e+00 
7.8822836e-08 6.6566140e-06 1.6368249e-07 
1.0831891e-07 6.8644081e-06 3.2259746e-07 
4.2381693e-08 6.9361176e-06 3.3466543e-07 
2.2823130e-08 6.7071837e-06 1.7111959e-07 
4.7401304e-08 6.6760440e-06 1.6505334e-07 
0.0000000e+00 6.6085104e-06 0.0000000e+00 
0.0000000e+00 6.6273146e-06 0.0000000e+00 
-8.8679499e-08 6.9123294e-06 2.4334744e-07 
-1.6911965e-08 6.8505205e-06 2.4601562e-07 
0.0000000e+00 6.6170410e-06 0.0000000e+00 
0.0000000e+00 6.6340267e-06 0.0000000e+00 
1.3434686e-08 4.9234336e-06 1.9404139e-07 
2.2618096e-08 4.7927701e-06 4.0683486e-07 
-7.7443914e-08 4.7896369e-06 4.0810269e-07 
-6.3812458e-08 4.9240525e-06 1.9613510e-07 
-2.4845527e-08 4.9221994e-06 1.9321517e-07 
0.0000000e+00 5.0666367e-06 0.0000000e+00 
0.0000000e+00 5.0637655e-06 0.0000000e+00 
-1.4803120e-09 4.7945496e-06 3.9735971e-07 
9.7725597e-08 4.7917183e-06 3.9937740e-07 
0.0000000e+00 5.0541103e-06 0.0000000e+00 
0.0000000e+00 5.0610192e-06 0.0000000e+00 
-4.2004878e-08 -4.2547941e-07 1.3646327e-07 
-4.2256154e-08 -7.5005113e-07 4.0050094e-07 
-1.7315102e-07 -7.8636896e-07 3.9331974e-07 
-1.1962013e-07 -4.4492808e-07 1.2993375e-07 
-7.7079115e-08 -4.3072453e-07 1.3225210e-07 
0.0000000e+00 -2.5019693e-07 0.0000000e+00 
0.0000000e+00 -2.6202696e-07 0.0000000e+00 
2.6675158e-08 -7.6031046e-07 4.1115962e-07 
1.4699457e-07 -7.3702552e-07 4.1059468e-07 
0.0000000e+00 -2.6260983e-07 0.0000000e+00 
0.0000000e+00 -2.6754205e-07 0.0000000e+00 
-7.7852903e-08 -1.8371488e-06 -9.9498713e-08 
-1.0457013e-07 -2.0295640e-06 -1.7271439e-07 
-7.2029245e-08 -2.0369623e-06 -1.7824451e-07 
-4.5899263e-08 -1.8453469e-06 -1.0219162e-07 
-5.9389883e-08 -1.8376836e-06 -9.9815999e-08 
0.0000000e+00 -1.7537757e-06 0.0000000e+00 
0.0000000e+00 -1.7593630e-06 0.0000000e+00 
4.8599791e-08 -2.0258810e-06 -1.6173742e-07 
1.1604106e-08 -2.0153182e-06 -1.6347073e-07 
0.0000000e+00 -1.7581864e-06 0.0000000e+00 
0.0000000e+00 -1.7624920e-06 0.0000000e+00 
-5.9433450e-08 1.3558036e-06 -2.0000309e-07 
-8.0282092e-08 1.3482427e-06 -3.7563996e-07 
4.3926485e-09 1.3620767e-06 -3.7371569e-07 
1.2117138e-08 1.3572476e-06 -1.9710158e-07 
-2.3033698e-08 1.3552469e-06 -1.9721078e-07 
0.0000000e+00 1.3459940e-06 0.0000000e+00 
0.0000000e+00 1.3480299e-06 0.0000000e+00 
1.4566759e-08 1.3566104e-06 -3.7558118e-07 
-7.1606316e-08 1.3547883e-06 -3.7633833e-07 
0.0000000e+00 1.3523958e-06 0.0000000e+00 
0.0000000e+00 1.3468517e-06 0.0000000e+00 
4.4006754e-09 3.6931046e-06 -7.2267113e-08 
-7.1834885e-09 3.8780054e-06 -1.5526497e-07 
3.3054988e-08 3.8476464e-06 -1.4353384e-07 
3.0221489e-08 3.6778854e-06 -6.6354190e-08 
1.5204701e-08 3.6815520e-06 -6.8436179e-08 
0.0000000e+00 3.6229912e-06 0.0000000e+00 
0.0000000e+00 3.6126748e-06 0.0000000e+00 
-5.9519959e-08 3.8388439e-06 -1.1756844e-07 
-9.3640118e-08 3.8607182e-06 -1.1692704e-07 
0.0000000e+00 3.6281485e-06 0.0000000e+00 
0.0000000e+00 3.6230608e-06 0.0000000e+00 
4.4565166e-08 6.5737095e-07 7.3560969e-08 
4.3356486e-08 8.1870184e-07 1.4692357e-07 
4.2064721e-09 7.5135756e-07 1.5948061e-07 
1.1072901e-08 6.1917808e-07 7.4483985e-08 
2.6450850e-08 6.3724275e-07 7.4657493e-08 
0.0000000e+00 5.6751605e-07 0.0000000e+00 
0.0000000e+00 5.5215463e-07 0.0000000e+00 
-7.2935151e-08 7.5284402e-07 2.1379859e-07 
-3.0484859e-08 8.0017065e-07 2.1428826e-07 
0.0000000e+00 5.6855265e-07 0.0000000e+00 
0.0000000e+00 5.5680039e-07 0.0000000e+00 
2.6122486e-08 -4.2674424e-06 1.1932990e-07 
2.8295007e-08 -4.2852471e-06 2.5485821e-07 
-3.4364408e-08 -4.2892680e-06 2.5105314e-07 
-2.1810305e-08 -4.2673955e-06 1.1637628e-07 
2.8074911e-09 -4.2651154e-06 1.1672653e-07 
0.0000000e+00 -4.2894012e-06 0.0000000e+00 
0.0000000e+00 -4.2896927e-06 0.0000000e+00 
-2.3808617e-08 -4.2824167e-06 2.4811919e-07 
3.9335394e-08 -4.2829979e-06 2.4759296e-07 
0.0000000e+00 -4.2907764e-06 0.0000000e+00 
0.0000000e+00 -4.2888068e-06 0.0000000e+00 
-1.5668217e-08 -5.1941061e-06 8.2445972e-08 
-1.8477522e-08 -5.3325084e-06 2.2922403e-07 
-8.0471800e-08 -5.2641035e-06 2.2145707e-07 
-5.4239081e-08 -5.1652810e-06 8.0968292e-08 
-3.3807542e-08 -5.1773595e-06 8.0197054e-08 
0.0000000e+00 -5.1467850e-06 0.0000000e+00 
0.0000000e+00 -5.1321722e-06 0.0000000e+00 
-8.6359568e-09 -5.2667174e-06 1.5600655e-07 
5.0063687e-08 -5.3116487e-06 1.5506934e-07 
0.0000000e+00 -5.1460661e-06 0.0000000e+00 
0.0000000e+00 -5.1336865e-06 0.0000000e+00 
1.7516575e-09 -1.6462109e-06 -1.0585634e-07 
2.5097884e-09 -1.5531972e-06 -2.2636644e-07 
7.1423422e-08 -1.5078248e-06 -2.3342236e-07 
4.8042185e-08 -1.6295563e-06 -1.0495594e-07 
2.3610520e-08 -1.6389536e-06 -1.0486592e-07 
0.0000000e+00 -1.7088470e-06 0.0000000e+00 
0.0000000e+00 -1.7001220e-06 0.0000000e+00 
2.5302989e-09 -1.5237142e-06 -2.6033578e-07 
-5.8355674e-08 -1.5492915e-06 -2.6229560e-07 
0.0000000e+00 -1.7016425e-06 0.0000000e+00 
0.0000000e+00 -1.7001937e-06 0.0000000e+00 
-8.5669932e-10 2.1142832e-06 -1.0351134e-07 
1.8706094e-09 2.1658818e-06 -2.1777917e-07 
6.0121387e-08 2.1615633e-06 -2.1852706e-07 
4.0131056e-08 2.1104390e-06 -1.0149878e-07 
1.8253932e-08 2.1102339e-06 -1.0152554e-07 
0.0000000e+00 2.1043875e-06 0.0000000e+00 
0.0000000e+00 2.1027472e-06 0.0000000e+00 
2.4259181e-08 2.1562046e-06 -2.0679757e-07 
-2.9048849e-08 2.1617768e-06 -2.0676835e-07 
0.0000000e+00 2.1053015e-06 0.0000000e+00 
0.0000000e+00 2.1020956e-06 0.0000000e+00 
-1.3709687e-08 3.2935600e-06 -1.3218164e-08 
-2.3696350e-08 3.2245812e-06 -6.1525341e-08 
-2.5517084e-09 3.2151429e-06 -6.3587429e-08 
-2.3587312e-09 3.2900891e-06 -1.3265923e-08 
-8.0374578e-09 3.2925716e-06 -1.3146277e-08 
0.0000000e+00 3.3459696e-06 0.0000000e+00 
0.0000000e+00 3.3429824e-06 0.0000000e+00 
3.8483581e-08 3.2214614e-06 -5.0619111e-08 
1.8226393e-08 3.2271978e-06 -5.0678814e-08 
0.0000000e+00 3.3415654e-06 0.0000000e+00 
0.0000000e+00 3.3412366e-06 0.0000000e+00 
0.0000000e+00 3.0325298e-05 0.0000000e+00 
0.0000000e+00 4.9385649e-06 0.0000000e+00 
-1.7757877e-09 3.2242808e-06 1.1109258e-09 
-3.4461320e-09 3.1783966e-06 1.2364851e-09 
0.0000000e+00 3.1815407e-06 0.0000000e+00 