# vtk DataFile Version 4.0
vtk output
ASCII
DATASET UNSTRUCTURED_GRID
POINTS 2974 float
-1.0000000e+00 -1.0000000e+00 0.0000000e+00 
-1.0000000e+00 -1.0000000e+00 1.0000000e+01 
1.0000000e+00 -1.0000000e+00 0.0000000e+00 
1.0000000e+00 -1.0000000e+00 1.0000000e+01 
1.0000000e+00 0.0000000e+00 0.0000000e+00 
1.0000000e+00 0.0000000e+00 1.0000000e+01 
-1.0000000e+00 0.0000000e+00 0.0000000e+00 
-1.0000000e+00 0.0000000e+00 1.0000000e+01 
1.0000000e+00 1.0000000e+00 0.0000000e+00 
1.0000000e+00 1.0000000e+00 1.0000000e+01 
-1.0000000e+00 1.0000000e+00 0.0000000e+00 
-1.0000000e+00 1.0000000e+00 1.0000000e+01 
-1.0000000e+00 -1.0000000e+00 2.5000000e-01 
-1.0000000e+00 -1.0000000e+00 5.0000000e-01 
-1.0000000e+00 -1.0000000e+00 7.5000000e-01 
-1.0000000e+00 -1.0000000e+00 1.0000000e+00 
-1.0000000e+00 -1.0000000e+00 1.2500000e+00 
-1.0000000e+00 -1.0000000e+00 1.5000000e+00 
-1.0000000e+00 -1.0000000e+00 1.7500000e+00 
-1.0000000e+00 -1.0000000e+00 2.0000000e+00 
-1.0000000e+00 -1.0000000e+00 2.2500000e+00 
-1.0000000e+00 -1.0000000e+00 2.5000000e+00 
-1.0000000e+00 -1.0000000e+00 2.7500000e+00 
-1.0000000e+00 -1.0000000e+00 3.0000000e+00 
-1.0000000e+00 -1.0000000e+00 3.2500000e+00 
-1.0000000e+00 -1.0000000e+00 3.5000000e+00 
-1.0000000e+00 -1.0000000e+00 3.7500000e+00 
-1.0000000e+00 -1.0000000e+00 4.0000000e+00 
-1.0000000e+00 -1.0000000e+00 4.2500000e+00 
-1.0000000e+00 -1.0000000e+00 4.5000000e+00 
-1.0000000e+00 -1.0000000e+00 4.7500000e+00 
-1.0000000e+00 -1.0000000e+00 5.0000000e+00 
-1.0000000e+00 -1.0000000e+00 5.2500000e+00 
-1.0000000e+00 -1.0000000e+00 5.5000000e+00 
-1.0000000e+00 -1.0000000e+00 5.7500000e+00 
-1.0000000e+00 -1.0000000e+00 6.0000000e+00 
-1.0000000e+00 -1.0000000e+00 6.2500000e+00 
-1.0000000e+00 -1.0000000e+00 6.5000000e+00 
-1.0000000e+00 -1.0000000e+00 6.7500000e+00 
-1.0000000e+00 -1.0000000e+00 7.0000000e+00 
-1.0000000e+00 -1.0000000e+00 7.2500000e+00 
-1.0000000e+00 -1.0000000e+00 7.5000000e+00 
-1.0000000e+00 -1.0000000e+00 7.7500000e+00 
-1.0000000e+00 -1.0000000e+00 8.0000000e+00 
-1.0000000e+00 -1.0000000e+00 8.2500000e+00 
-1.0000000e+00 -1.0000000e+00 8.5000000e+00 
-1.0000000e+00 -1.0000000e+00 8.7500000e+00 
-1.0000000e+00 -1.0000000e+00 9.0000000e+00 
-1.0000000e+00 -1.0000000e+00 9.2500000e+00 
-1.0000000e+00 -1.0000000e+00 9.5000000e+00 
-1.0000000e+00 -1.0000000e+00 9.7500000e+00 
1.0000000e+00 -1.0000000e+00 2.5000000e-01 
1.0000000e+00 -1.0000000e+00 5.0000000e-01 
1.0000000e+00 -1.0000000e+00 7.5000000e-01 
1.0000000e+00 -1.0000000e+00 1.0000000e+00 
1.0000000e+00 -1.0000000e+00 1.2500000e+00 
1.0000000e+00 -1.0000000e+00 1.5000000e+00 
1.0000000e+00 -1.0000000e+00 1.7500000e+00 
1.0000000e+00 -1.0000000e+00 2.0000000e+00 
1.0000000e+00 -1.0000000e+00 2.2500000e+00 
1.0000000e+00 -1.0000000e+00 2.5000000e+00 
1.0000000e+00 -1.0000000e+00 2.7500000e+00 
1.0000000e+00 -1.0000000e+00 3.0000000e+00 
1.0000000e+00 -1.0000000e+00 3.2500000e+00 
1.0000000e+00 -1.0000000e+00 3.5000000e+00 
1.0000000e+00 -1.0000000e+00 3.7500000e+00 
1.0000000e+00 -1.0000000e+00 4.0000000e+00 
1.0000000e+00 -1.0000000e+00 4.2500000e+00 
1.0000000e+00 -1.0000000e+00 4.5000000e+00 
1.0000000e+00 -1.0000000e+00 4.7500000e+00 
1.0000000e+00 -1.0000000e+00 5.0000000e+00 
1.0000000e+00 -1.0000000e+00 5.2500000e+00 
1.0000000e+00 -1.0000000e+00 5.5000000e+00 
1.0000000e+00 -1.0000000e+00 5.7500000e+00 
1.0000000e+00 -1.0000000e+00 6.0000000e+00 
1.0000000e+00 -1.0000000e+00 6.2500000e+00 
1.0000000e+00 -1.0000000e+00 6.5000000e+00 
1.0000000e+00 -1.0000000e+00 6.7500000e+00 
1.0000000e+00 -1.0000000e+00 7.0000000e+00 
1.0000000e+00 -1.0000000e+00 7.2500000e+00 
1.0000000e+00 -1.0000000e+00 7.5000000e+00 
1.0000000e+00 -1.0000000e+00 7.7500000e+00 
1.0000000e+00 -1.0000000e+00 8.0000000e+00 
1.0000000e+00 -1.0000000e+00 8.2500000e+00 
1.0000000e+00 -1.0000000e+00 8.5000000e+00 
1.0000000e+00 -1.0000000e+00 8.7500000e+00 
1.0000000e+00 -1.0000000e+00 9.0000000e+00 
1.0000000e+00 -1.0000000e+00 9.2500000e+00 
1.0000000e+00 -1.0000000e+00 9.5000000e+00 
1.0000000e+00 -1.0000000e+00 9.7500000e+00 
-7.5000000e-01 -1.0000000e+00 0.0000000e+00 
-5.0000000e-01 -1.0000000e+00 0.0000000e+00 
-2.5000000e-01 -1.0000000e+00 0.0000000e+00 
0.0000000e+00 -1.0000000e+00 0.0000000e+00 
2.5000000e-01 -1.0000000e+00 0.0000000e+00 
5.0000000e-01 -1.0000000e+00 0.0000000e+00 
7.5000000e-01 -1.0000000e+00 0.0000000e+00 
-7.5000000e-01 -1.0000000e+00 1.0000000e+01 
-5.0000000e-01 -1.0000000e+00 1.0000000e+01 
-2.5000000e-01 -1.0000000e+00 1.0000000e+01 
0.0000000e+00 -1.0000000e+00 1.0000000e+01 
2.5000000e-01 -1.0000000e+00 1.0000000e+01 
5.0000000e-01 -1.0000000e+00 1.0000000e+01 
7.5000000e-01 -1.0000000e+00 1.0000000e+01 
1.0000000e+00 0.0000000e+00 2.5000000e-01 
1.0000000e+00 0.0000000e+00 5.0000000e-01 
1.0000000e+00 0.0000000e+00 7.5000000e-01 
1.0000000e+00 0.0000000e+00 1.0000000e+00 
1.0000000e+00 0.0000000e+00 1.2500000e+00 
1.0000000e+00 0.0000000e+00 1.5000000e+00 
1.0000000e+00 0.0000000e+00 1.7500000e+00 
1.0000000e+00 0.0000000e+00 2.0000000e+00 
1.0000000e+00 0.0000000e+00 2.2500000e+00 
1.0000000e+00 0.0000000e+00 2.5000000e+00 
1.0000000e+00 0.0000000e+00 2.7500000e+00 
1.0000000e+00 0.0000000e+00 3.0000000e+00 
1.0000000e+00 0.0000000e+00 3.2500000e+00 
1.0000000e+00 0.0000000e+00 3.5000000e+00 
1.0000000e+00 0.0000000e+00 3.7500000e+00 
1.0000000e+00 0.0000000e+00 4.0000000e+00 
1.0000000e+00 0.0000000e+00 4.2500000e+00 
1.0000000e+00 0.0000000e+00 4.5000000e+00 
1.0000000e+00 0.0000000e+00 4.7500000e+00 
1.0000000e+00 0.0000000e+00 5.0000000e+00 
1.0000000e+00 0.0000000e+00 5.2500000e+00 
1.0000000e+00 0.0000000e+00 5.5000000e+00 
1.0000000e+00 0.0000000e+00 5.7500000e+00 
1.0000000e+00 0.0000000e+00 6.0000000e+00 
1.0000000e+00 0.0000000e+00 6.2500000e+00 
1.0000000e+00 0.0000000e+00 6.5000000e+00 
1.0000000e+00 0.0000000e+00 6.7500000e+00 
1.0000000e+00 0.0000000e+00 7.0000000e+00 
1.0000000e+00 0.0000000e+00 7.2500000e+00 
1.0000000e+00 0.0000000e+00 7.5000000e+00 
1.0000000e+00 0.0000000e+00 7.7500000e+00 
1.0000000e+00 0.0000000e+00 8.0000000e+00 
1.0000000e+00 0.0000000e+00 8.2500000e+00 
1.0000000e+00 0.0000000e+00 8.5000000e+00 
1.0000000e+00 0.0000000e+00 8.7500000e+00 
1.0000000e+00 0.0000000e+00 9.0000000e+00 
1.0000000e+00 0.0000000e+00 9.2500000e+00 
1.0000000e+00 0.0000000e+00 9.5000000e+00 
1.0000000e+00 0.0000000e+00 9.7500000e+00 
1.0000000e+00 -7.5000000e-01 0.0000000e+00 
1.0000000e+00 -5.0000000e-01 0.0000000e+00 
1.0000000e+00 -2.5000000e-01 0.0000000e+00 
1.0000000e+00 -7.5000000e-01 1.0000000e+01 
1.0000000e+00 -5.0000000e-01 1.0000000e+01 
1.0000000e+00 -2.5000000e-01 1.0000000e+01 
-1.0000000e+00 0.0000000e+00 2.5000000e-01 
-1.0000000e+00 0.0000000e+00 5.0000000e-01 
-1.0000000e+00 0.0000000e+00 7.5000000e-01 
-1.0000000e+00 0.0000000e+00 1.0000000e+00 
-1.0000000e+00 0.0000000e+00 1.2500000e+00 
-1.0000000e+00 0.0000000e+00 1.5000000e+00 
-1.0000000e+00 0.0000000e+00 1.7500000e+00 
-1.0000000e+00 0.0000000e+00 2.0000000e+00 
-1.0000000e+00 0.0000000e+00 2.2500000e+00 
-1.0000000e+00 0.0000000e+00 2.5000000e+00 
-1.0000000e+00 0.0000000e+00 2.7500000e+00 
-1.0000000e+00 0.0000000e+00 3.0000000e+00 
-1.0000000e+00 0.0000000e+00 3.2500000e+00 
-1.0000000e+00 0.0000000e+00 3.5000000e+00 
-1.0000000e+00 0.0000000e+00 3.7500000e+00 
-1.0000000e+00 0.0000000e+00 4.0000000e+00 
-1.0000000e+00 0.0000000e+00 4.2500000e+00 
-1.0000000e+00 0.0000000e+00 4.5000000e+00 
-1.0000000e+00 0.0000000e+00 4.7500000e+00 
-1.0000000e+00 0.0000000e+00 5.0000000e+00 
-1.0000000e+00 0.0000000e+00 5.2500000e+00 
-1.0000000e+00 0.0000000e+00 5.5000000e+00 
-1.0000000e+00 0.0000000e+00 5.7500000e+00 
-1.0000000e+00 0.0000000e+00 6.0000000e+00 
-1.0000000e+00 0.0000000e+00 6.2500000e+00 
-1.0000000e+00 0.0000000e+00 6.5000000e+00 
-1.0000000e+00 0.0000000e+00 6.7500000e+00 
-1.0000000e+00 0.0000000e+00 7.0000000e+00 
-1.0000000e+00 0.0000000e+00 7.2500000e+00 
-1.0000000e+00 0.0000000e+00 7.5000000e+00 
-1.0000000e+00 0.0000000e+00 7.7500000e+00 
-1.0000000e+00 0.0000000e+00 8.0000000e+00 
-1.0000000e+00 0.0000000e+00 8.2500000e+00 
-1.0000000e+00 0.0000000e+00 8.5000000e+00 
-1.0000000e+00 0.0000000e+00 8.7500000e+00 
-1.0000000e+00 0.0000000e+00 9.0000000e+00 
-1.0000000e+00 0.0000000e+00 9.2500000e+00 
-1.0000000e+00 0.0000000e+00 9.5000000e+00 
-1.0000000e+00 0.0000000e+00 9.7500000e+00 
7.5000000e-01 0.0000000e+00 0.0000000e+00 
5.0000000e-01 0.0000000e+00 0.0000000e+00 
2.5000000e-01 0.0000000e+00 0.0000000e+00 
0.0000000e+00 0.0000000e+00 0.0000000e+00 
-2.5000000e-01 0.0000000e+00 0.0000000e+00 
-5.0000000e-01 0.0000000e+00 0.0000000e+00 
-7.5000000e-01 0.0000000e+00 0.0000000e+00 
7.5000000e-01 0.0000000e+00 1.0000000e+01 
5.0000000e-01 0.0000000e+00 1.0000000e+01 
2.5000000e-01 0.0000000e+00 1.0000000e+01 
0.0000000e+00 0.0000000e+00 1.0000000e+01 
-2.5000000e-01 0.0000000e+00 1.0000000e+01 
-5.0000000e-01 0.0000000e+00 1.0000000e+01 
-7.5000000e-01 0.0000000e+00 1.0000000e+01 
-1.0000000e+00 -2.5000000e-01 0.0000000e+00 
-1.0000000e+00 -5.0000000e-01 0.0000000e+00 
-1.0000000e+00 -7.5000000e-01 0.0000000e+00 
-1.0000000e+00 -2.5000000e-01 1.0000000e+01 
-1.0000000e+00 -5.0000000e-01 1.0000000e+01 
-1.0000000e+00 -7.5000000e-01 1.0000000e+01 
1.0000000e+00 1.0000000e+00 2.5000000e-01 
1.0000000e+00 1.0000000e+00 5.0000000e-01 
1.0000000e+00 1.0000000e+00 7.5000000e-01 
1.0000000e+00 1.0000000e+00 1.0000000e+00 
1.0000000e+00 1.0000000e+00 1.2500000e+00 
1.0000000e+00 1.0000000e+00 1.5000000e+00 
1.0000000e+00 1.0000000e+00 1.7500000e+00 
1.0000000e+00 1.0000000e+00 2.0000000e+00 
1.0000000e+00 1.0000000e+00 2.2500000e+00 
1.0000000e+00 1.0000000e+00 2.5000000e+00 
1.0000000e+00 1.0000000e+00 2.7500000e+00 
1.0000000e+00 1.0000000e+00 3.0000000e+00 
1.0000000e+00 1.0000000e+00 3.2500000e+00 
1.0000000e+00 1.0000000e+00 3.5000000e+00 
1.0000000e+00 1.0000000e+00 3.7500000e+00 
1.0000000e+00 1.0000000e+00 4.0000000e+00 
1.0000000e+00 1.0000000e+00 4.2500000e+00 
[...]
POINT_DATA 2974
FIELD FieldData 2
DISPLACEMENT 3 2974  float
0.0000000e+00 0.0000000e+00 -2.6648843e-06 
0.0000000e+00 0.0000000e+00 -3.4303075e-06 
0.0000000e+00 0.0000000e+00 -2.6648841e-06 
0.0000000e+00 0.0000000e+00 -3.4303080e-06 
0.0000000e+00 0.0000000e+00 -2.6648852e-06 
0.0000000e+00 0.0000000e+00 -3.4303089e-06 
0.0000000e+00 0.0000000e+00 -2.6648847e-06 
0.0000000e+00 0.0000000e+00 -3.4303098e-06 
0.0000000e+00 0.0000000e+00 -2.6648852e-06 
0.0000000e+00 0.0000000e+00 -3.4303093e-06 
0.0000000e+00 0.0000000e+00 -2.6648847e-06 
0.0000000e+00 0.0000000e+00 -3.4303073e-06 
0.0000000e+00 0.0000000e+00 -2.6845751e-06 
0.0000000e+00 0.0000000e+00 -2.7042399e-06 
0.0000000e+00 0.0000000e+00 -2.7238768e-06 
0.0000000e+00 0.0000000e+00 -2.7434869e-06 
0.0000000e+00 0.0000000e+00 -2.7630688e-06 
0.0000000e+00 0.0000000e+00 -2.7826213e-06 
0.0000000e+00 0.0000000e+00 -2.8021427e-06 
0.0000000e+00 0.0000000e+00 -2.8216336e-06 
0.0000000e+00 0.0000000e+00 -2.8410923e-06 
0.0000000e+00 0.0000000e+00 -2.8605218e-06 
0.0000000e+00 0.0000000e+00 -2.8799261e-06 
0.0000000e+00 0.0000000e+00 -2.8993018e-06 
0.0000000e+00 0.0000000e+00 -2.9186499e-06 
0.0000000e+00 0.0000000e+00 -2.9379717e-06 
0.0000000e+00 0.0000000e+00 -2.9572657e-06 
0.0000000e+00 0.0000000e+00 -2.9765301e-06 
0.0000000e+00 0.0000000e+00 -2.9957625e-06 
0.0000000e+00 0.0000000e+00 -3.0149636e-06 
0.0000000e+00 0.0000000e+00 -3.0341369e-06 
0.0000000e+00 0.0000000e+00 -3.0532810e-06 
0.0000000e+00 0.0000000e+00 -3.0723966e-06 
0.0000000e+00 0.0000000e+00 -3.0914869e-06 
0.0000000e+00 0.0000000e+00 -3.1105510e-06 
0.0000000e+00 0.0000000e+00 -3.1295849e-06 
0.0000000e+00 0.0000000e+00 -3.1485868e-06 
0.0000000e+00 0.0000000e+00 -3.1675602e-06 
0.0000000e+00 0.0000000e+00 -3.1865054e-06 
0.0000000e+00 0.0000000e+00 -3.2054240e-06 
0.0000000e+00 0.0000000e+00 -3.2243165e-06 
0.0000000e+00 0.0000000e+00 -3.2431831e-06 
0.0000000e+00 0.0000000e+00 -3.2620217e-06 
0.0000000e+00 0.0000000e+00 -3.2808305e-06 
0.0000000e+00 0.0000000e+00 -3.2996122e-06 
0.0000000e+00 0.0000000e+00 -3.3183680e-06 
0.0000000e+00 0.0000000e+00 -3.3370989e-06 
0.0000000e+00 0.0000000e+00 -3.3557981e-06 
0.0000000e+00 0.0000000e+00 -3.3744670e-06 
0.0000000e+00 0.0000000e+00 -3.3931117e-06 
0.0000000e+00 0.0000000e+00 -3.4117290e-06 
0.0000000e+00 0.0000000e+00 -2.6845746e-06 
0.0000000e+00 0.0000000e+00 -2.7042393e-06 
0.0000000e+00 0.0000000e+00 -2.7238768e-06 
0.0000000e+00 0.0000000e+00 -2.7434876e-06 
0.0000000e+00 0.0000000e+00 -2.7630706e-06 
0.0000000e+00 0.0000000e+00 -2.7826213e-06 
0.0000000e+00 0.0000000e+00 -2.8021427e-06 
0.0000000e+00 0.0000000e+00 -2.8216334e-06 
0.0000000e+00 0.0000000e+00 -2.8410925e-06 
0.0000000e+00 0.0000000e+00 -2.8605234e-06 
0.0000000e+00 0.0000000e+00 -2.8799257e-06 
0.0000000e+00 0.0000000e+00 -2.8993013e-06 
0.0000000e+00 0.0000000e+00 -2.9186501e-06 
0.0000000e+00 0.0000000e+00 -2.9379719e-06 
0.0000000e+00 0.0000000e+00 -2.9572645e-06 
0.0000000e+00 0.0000000e+00 -2.9765283e-06 
0.0000000e+00 0.0000000e+00 -2.9957623e-06 
0.0000000e+00 0.0000000e+00 -3.0149652e-06 
0.0000000e+00 0.0000000e+00 -3.0341362e-06 
0.0000000e+00 0.0000000e+00 -3.0532799e-06 
0.0000000e+00 0.0000000e+00 -3.0723972e-06 
0.0000000e+00 0.0000000e+00 -3.0914873e-06 
0.0000000e+00 0.0000000e+00 -3.1105494e-06 
0.0000000e+00 0.0000000e+00 -3.1295820e-06 
0.0000000e+00 0.0000000e+00 -3.1485868e-06 
0.0000000e+00 0.0000000e+00 -3.1675609e-06 
0.0000000e+00 0.0000000e+00 -3.1865054e-06 
0.0000000e+00 0.0000000e+00 -3.2054238e-06 
0.0000000e+00 0.0000000e+00 -3.2243174e-06 
0.0000000e+00 0.0000000e+00 -3.2431838e-06 
0.0000000e+00 0.0000000e+00 -3.2620217e-06 
0.0000000e+00 0.0000000e+00 -3.2808296e-06 
0.0000000e+00 0.0000000e+00 -3.2996097e-06 
0.0000000e+00 0.0000000e+00 -3.3183658e-06 
0.0000000e+00 0.0000000e+00 -3.3370975e-06 
0.0000000e+00 0.0000000e+00 -3.3557978e-06 
0.0000000e+00 0.0000000e+00 -3.3744673e-06 
0.0000000e+00 0.0000000e+00 -3.3931121e-06 
0.0000000e+00 0.0000000e+00 -3.4117295e-06 
0.0000000e+00 0.0000000e+00 -2.6648818e-06 
0.0000000e+00 0.0000000e+00 -2.6648813e-06 
0.0000000e+00 0.0000000e+00 -2.6648815e-06 
0.0000000e+00 0.0000000e+00 -2.6648861e-06 
0.0000000e+00 0.0000000e+00 -2.6648829e-06 
0.0000000e+00 0.0000000e+00 -2.6648829e-06 
0.0000000e+00 0.0000000e+00 -2.6648829e-06 
0.0000000e+00 0.0000000e+00 -3.4303048e-06 
0.0000000e+00 0.0000000e+00 -3.4303034e-06 
0.0000000e+00 0.0000000e+00 -3.4303064e-06 
0.0000000e+00 0.0000000e+00 -3.4303062e-06 
0.0000000e+00 0.0000000e+00 -3.4303052e-06 
0.0000000e+00 0.0000000e+00 -3.4303043e-06 
0.0000000e+00 0.0000000e+00 -3.4303087e-06 
0.0000000e+00 0.0000000e+00 -2.6845751e-06 
0.0000000e+00 0.0000000e+00 -2.7042390e-06 
0.0000000e+00 0.0000000e+00 -2.7238762e-06 
0.0000000e+00 0.0000000e+00 -2.7434862e-06 
0.0000000e+00 0.0000000e+00 -2.7630686e-06 
0.0000000e+00 0.0000000e+00 -2.7826218e-06 
0.0000000e+00 0.0000000e+00 -2.8021432e-06 
0.0000000e+00 0.0000000e+00 -2.8216336e-06 
0.0000000e+00 0.0000000e+00 -2.8410941e-06 
0.0000000e+00 0.0000000e+00 -2.8605232e-06 
0.0000000e+00 0.0000000e+00 -2.8799245e-06 
0.0000000e+00 0.0000000e+00 -2.8992999e-06 
0.0000000e+00 0.0000000e+00 -2.9186499e-06 
0.0000000e+00 0.0000000e+00 -2.9379719e-06 
0.0000000e+00 0.0000000e+00 -2.9572655e-06 
0.0000000e+00 0.0000000e+00 -2.9765297e-06 
0.0000000e+00 0.0000000e+00 -2.9957628e-06 
0.0000000e+00 0.0000000e+00 -3.0149647e-06 
0.0000000e+00 0.0000000e+00 -3.0341371e-06 
0.0000000e+00 0.0000000e+00 -3.0532810e-06 
0.0000000e+00 0.0000000e+00 -3.0723975e-06 
0.0000000e+00 0.0000000e+00 -3.0914873e-06 
0.0000000e+00 0.0000000e+00 -3.1105494e-06 
0.0000000e+00 0.0000000e+00 -3.1295833e-06 
0.0000000e+00 0.0000000e+00 -3.1485870e-06 
0.0000000e+00 0.0000000e+00 -3.1675611e-06 
0.0000000e+00 0.0000000e+00 -3.1865059e-06 
0.0000000e+00 0.0000000e+00 -3.2054238e-06 
0.0000000e+00 0.0000000e+00 -3.2243163e-06 
0.0000000e+00 0.0000000e+00 -3.2431824e-06 
0.0000000e+00 0.0000000e+00 -3.2620210e-06 
0.0000000e+00 0.0000000e+00 -3.2808312e-06 
0.0000000e+00 0.0000000e+00 -3.2996124e-06 
0.0000000e+00 0.0000000e+00 -3.3183680e-06 
0.0000000e+00 0.0000000e+00 -3.3370973e-06 
0.0000000e+00 0.0000000e+00 -3.3557963e-06 
0.0000000e+00 0.0000000e+00 -3.3744657e-06 
0.0000000e+00 0.0000000e+00 -3.3931112e-06 
0.0000000e+00 0.0000000e+00 -3.4117295e-06 
0.0000000e+00 0.0000000e+00 -2.6648818e-06 
0.0000000e+00 0.0000000e+00 -2.6648822e-06 
0.0000000e+00 0.0000000e+00 -2.6648836e-06 
0.0000000e+00 0.0000000e+00 -3.4303068e-06 
0.0000000e+00 0.0000000e+00 -3.4303057e-06 
0.0000000e+00 0.0000000e+00 -3.4303073e-06 
0.0000000e+00 0.0000000e+00 -2.6845748e-06 
0.0000000e+00 0.0000000e+00 -2.7042386e-06 
0.0000000e+00 0.0000000e+00 -2.7238773e-06 
0.0000000e+00 0.0000000e+00 -2.7434871e-06 
0.0000000e+00 0.0000000e+00 -2.7630690e-06 
0.0000000e+00 0.0000000e+00 -2.7826216e-06 
0.0000000e+00 0.0000000e+00 -2.8021425e-06 
0.0000000e+00 0.0000000e+00 -2.8216330e-06 
0.0000000e+00 0.0000000e+00 -2.8410932e-06 
0.0000000e+00 0.0000000e+00 -2.8605234e-06 
0.0000000e+00 0.0000000e+00 -2.8799268e-06 
0.0000000e+00 0.0000000e+00 -2.8993018e-06 
0.0000000e+00 0.0000000e+00 -2.9186492e-06 
0.0000000e+00 0.0000000e+00 -2.9379712e-06 
0.0000000e+00 0.0000000e+00 -2.9572643e-06 
0.0000000e+00 0.0000000e+00 -2.9765276e-06 
0.0000000e+00 0.0000000e+00 -2.9957621e-06 
0.0000000e+00 0.0000000e+00 -3.0149649e-06 
0.0000000e+00 0.0000000e+00 -3.0341371e-06 
0.0000000e+00 0.0000000e+00 -3.0532810e-06 
0.0000000e+00 0.0000000e+00 -3.0723970e-06 
0.0000000e+00 0.0000000e+00 -3.0914871e-06 
0.0000000e+00 0.0000000e+00 -3.1105499e-06 
0.0000000e+00 0.0000000e+00 -3.1295820e-06 
0.0000000e+00 0.0000000e+00 -3.1485870e-06 
0.0000000e+00 0.0000000e+00 -3.1675609e-06 
0.0000000e+00 0.0000000e+00 -3.1865054e-06 
0.0000000e+00 0.0000000e+00 -3.2054229e-06 
0.0000000e+00 0.0000000e+00 -3.2243158e-06 
0.0000000e+00 0.0000000e+00 -3.2431828e-06 
0.0000000e+00 0.0000000e+00 -3.2620219e-06 
0.0000000e+00 0.0000000e+00 -3.2808305e-06 
0.0000000e+00 0.0000000e+00 -3.2996115e-06 
0.0000000e+00 0.0000000e+00 -3.3183674e-06 
0.0000000e+00 0.0000000e+00 -3.3370973e-06 
0.0000000e+00 0.0000000e+00 -3.3557969e-06 
0.0000000e+00 0.0000000e+00 -3.3744659e-06 
0.0000000e+00 0.0000000e+00 -3.3931112e-06 
0.0000000e+00 0.0000000e+00 -3.4117302e-06 
-2.9816075e-13 1.1909497e-13 -2.6648827e-06 
-3.5672073e-13 -3.8228745e-14 -2.6648820e-06 
-8.5937648e-13 -3.2234694e-13 -2.6648820e-06 
-4.9029623e-13 -2.4714698e-13 -2.6648818e-06 
-8.8302073e-14 -1.9364325e-13 -2.6648827e-06 
3.4938464e-13 1.2519013e-13 -2.6648825e-06 
1.0556971e-12 2.3737894e-13 -2.6648827e-06 
1.1289016e-12 4.0182717e-13 -3.4303080e-06 
2.9852317e-13 -3.8899469e-13 -3.4303057e-06 
-6.5763779e-13 -1.0539909e-12 -3.4303057e-06 
-9.4301330e-14 -6.6104609e-13 -3.4303068e-06 
-4.6041052e-13 -3.6956964e-13 -3.4303052e-06 
-5.4024482e-13 2.3818265e-14 -3.4303064e-06 
-1.3599111e-12 4.0234682e-14 -3.4303062e-06 
0.0000000e+00 0.0000000e+00 -2.6648829e-06 
0.0000000e+00 0.0000000e+00 -2.6648820e-06 
0.0000000e+00 0.0000000e+00 -2.6648827e-06 
0.0000000e+00 0.0000000e+00 -3.4303082e-06 
0.0000000e+00 0.0000000e+00 -3.4303059e-06 
0.0000000e+00 0.0000000e+00 -3.4303077e-06 
0.0000000e+00 0.0000000e+00 -2.6845755e-06 
0.0000000e+00 0.0000000e+00 -2.7042397e-06 
0.0000000e+00 0.0000000e+00 -2.7238766e-06 
0.0000000e+00 0.0000000e+00 -2.7434860e-06 
0.0000000e+00 0.0000000e+00 -2.7630681e-06 
0.0000000e+00 0.0000000e+00 -2.7826220e-06 
0.0000000e+00 0.0000000e+00 -2.8021434e-06 
0.0000000e+00 0.0000000e+00 -2.8216343e-06 
0.0000000e+00 0.0000000e+00 -2.8410943e-06 
0.0000000e+00 0.0000000e+00 -2.8605239e-06 
0.0000000e+00 0.0000000e+00 -2.8799248e-06 
0.0000000e+00 0.0000000e+00 -2.8992990e-06 
0.0000000e+00 0.0000000e+00 -2.9186488e-06 
0.0000000e+00 0.0000000e+00 -2.9379714e-06 
0.0000000e+00 0.0000000e+00 -2.9572650e-06 
0.0000000e+00 0.0000000e+00 -2.9765290e-06 
0.0000000e+00 0.0000000e+00 -2.9957625e-06 
0.0000000e+00 0.0000000e+00 -3.0149652e-06 
0.0000000e+00 0.0000000e+00 -3.0341375e-06 
0.0000000e+00 0.0000000e+00 -3.0532810e-06 
0.0000000e+00 0.0000000e+00 -3.0723975e-06 
0.0000000e+00 0.0000000e+00 -3.0914873e-06 
0.0000000e+00 0.0000000e+00 -3.1105487e-06 
0.0000000e+00 0.0000000e+00 -3.1295824e-06 
0.0000000e+00 0.0000000e+00 -3.1485877e-06 
0.0000000e+00 0.0000000e+00 -3.1675609e-06 
0.0000000e+00 0.0000000e+00 -3.1865045e-06 
0.0000000e+00 0.0000000e+00 -3.2054234e-06 
0.0000000e+00 0.0000000e+00 -3.2243167e-06 
0.0000000e+00 0.0000000e+00 -3.2431826e-06 
0.0000000e+00 0.0000000e+00 -3.2620217e-06 
0.0000000e+00 0.0000000e+00 -3.2808321e-06 
0.0000000e+00 0.0000000e+00 -3.2996127e-06 
0.0000000e+00 0.0000000e+00 -3.3183685e-06 
0.0000000e+00 0.0000000e+00 -3.3370982e-06 
0.0000000e+00 0.0000000e+00 -3.3557976e-06 
0.0000000e+00 0.0000000e+00 -3.3744659e-06 
0.0000000e+00 0.0000000e+00 -3.3931117e-06 
0.0000000e+00 0.0000000e+00 -3.4117299e-06 
0.0000000e+00 0.0000000e+00 -2.6648834e-06 
0.0000000e+00 0.0000000e+00 -2.6648813e-06 
0.0000000e+00 0.0000000e+00 -2.6648831e-06 
0.0000000e+00 0.0000000e+00 -3.4303077e-06 
0.0000000e+00 0.0000000e+00 -3.4303050e-06 
0.0000000e+00 0.0000000e+00 -3.4303071e-06 
0.0000000e+00 0.0000000e+00 -2.6845753e-06 
0.0000000e+00 0.0000000e+00 -2.7042388e-06 
0.0000000e+00 0.0000000e+00 -2.7238764e-06 
0.0000000e+00 0.0000000e+00 -2.7434862e-06 
0.0000000e+00 0.0000000e+00 -2.7630683e-06 
0.0000000e+00 0.0000000e+00 -2.7826216e-06 
0.0000000e+00 0.0000000e+00 -2.8021439e-06 
0.0000000e+00 0.0000000e+00 -2.8216339e-06 
0.0000000e+00 0.0000000e+00 -2.8410927e-06 
0.0000000e+00 0.0000000e+00 -2.8605241e-06 
0.0000000e+00 0.0000000e+00 -2.8799266e-06 
0.0000000e+00 0.0000000e+00 -2.8993018e-06 
0.0000000e+00 0.0000000e+00 -2.9186492e-06 
0.0000000e+00 0.0000000e+00 -2.9379712e-06 
0.0000000e+00 0.0000000e+00 -2.9572657e-06 
0.0000000e+00 0.0000000e+00 -2.9765304e-06 
0.0000000e+00 0.0000000e+00 -2.9957621e-06 
0.0000000e+00 0.0000000e+00 -3.0149636e-06 
0.0000000e+00 0.0000000e+00 -3.0341366e-06 
0.0000000e+00 0.0000000e+00 -3.0532810e-06 
0.0000000e+00 0.0000000e+00 -3.0723972e-06 
0.0000000e+00 0.0000000e+00 -3.0914864e-06 
0.0000000e+00 0.0000000e+00 -3.1105490e-06 
0.0000000e+00 0.0000000e+00 -3.1295831e-06 
0.0000000e+00 0.0000000e+00 -3.1485881e-06 
0.0000000e+00 0.0000000e+00 -3.1675622e-06 
0.0000000e+00 0.0000000e+00 -3.1865063e-06 
0.0000000e+00 0.0000000e+00 -3.2054240e-06 
0.0000000e+00 0.0000000e+00 -3.2243161e-06 
0.0000000e+00 0.0000000e+00 -3.2431840e-06 
0.0000000e+00 0.0000000e+00 -3.2620230e-06 
0.0000000e+00 0.0000000e+00 -3.2808312e-06 
0.0000000e+00 0.0000000e+00 -3.2996111e-06 
0.0000000e+00 0.0000000e+00 -3.3183676e-06 
0.0000000e+00 0.0000000e+00 -3.3370984e-06 
0.0000000e+00 0.0000000e+00 -3.3557976e-06 
0.0000000e+00 0.0000000e+00 -3.3744661e-06 
0.0000000e+00 0.0000000e+00 -3.3931117e-06 
0.0000000e+00 0.0000000e+00 -3.4117290e-06 
0.0000000e+00 0.0000000e+00 -2.6648827e-06 
0.0000000e+00 0.0000000e+00 -2.6648818e-06 
0.0000000e+00 0.0000000e+00 -2.6648822e-06 
0.0000000e+00 0.0000000e+00 -2.6648866e-06 
0.0000000e+00 0.0000000e+00 -2.6648831e-06 
0.0000000e+00 0.0000000e+00 -2.6648831e-06 
0.0000000e+00 0.0000000e+00 -2.6648827e-06 
0.0000000e+00 0.0000000e+00 -3.4303077e-06 
0.0000000e+00 0.0000000e+00 -3.4303039e-06 
0.0000000e+00 0.0000000e+00 -3.4303039e-06 
0.0000000e+00 0.0000000e+00 -3.4303034e-06 
0.0000000e+00 0.0000000e+00 -3.4303068e-06 
0.0000000e+00 0.0000000e+00 -3.4303055e-06 
0.0000000e+00 0.0000000e+00 -3.4303048e-06 
0.0000000e+00 0.0000000e+00 -2.6648815e-06 
0.0000000e+00 0.0000000e+00 -2.6648820e-06 
0.0000000e+00 0.0000000e+00 -2.6648820e-06 
0.0000000e+00 0.0000000e+00 -3.4303071e-06 
0.0000000e+00 0.0000000e+00 -3.4303039e-06 
0.0000000e+00 0.0000000e+00 -3.4303059e-06 
0.0000000e+00 0.0000000e+00 -2.7527747e-06 
0.0000000e+00 0.0000000e+00 -2.8341813e-06 
0.0000000e+00 0.0000000e+00 -2.8915774e-06 
0.0000000e+00 0.0000000e+00 -2.9473060e-06 
0.0000000e+00 0.0000000e+00 -3.0051328e-06 
0.0000000e+00 0.0000000e+00 -3.0625449e-06 
0.0000000e+00 0.0000000e+00 -3.1190782e-06 
0.0000000e+00 0.0000000e+00 -3.1741176e-06 
0.0000000e+00 0.0000000e+00 -3.2345786e-06 
0.0000000e+00 0.0000000e+00 -3.2902240e-06 
0.0000000e+00 0.0000000e+00 -3.3453380e-06 
0.0000000e+00 0.0000000e+00 -2.7714327e-06 
0.0000000e+00 0.0000000e+00 -2.8106631e-06 
0.0000000e+00 0.0000000e+00 -2.8708193e-06 
0.0000000e+00 0.0000000e+00 -2.9282594e-06 
0.0000000e+00 0.0000000e+00 -2.9846233e-06 
0.0000000e+00 0.0000000e+00 -3.0411977e-06 
0.0000000e+00 0.0000000e+00 -3.1027062e-06 
0.0000000e+00 0.0000000e+00 -3.1580785e-06 
0.0000000e+00 0.0000000e+00 -3.2148744e-06 
0.0000000e+00 0.0000000e+00 -3.2699179e-06 
0.0000000e+00 0.0000000e+00 -3.3303418e-06 
0.0000000e+00 0.0000000e+00 -3.4142213e-06 
0.0000000e+00 0.0000000e+00 -2.6828600e-06 
0.0000000e+00 0.0000000e+00 -2.7354045e-06 
0.0000000e+00 0.0000000e+00 -3.3654237e-06 
0.0000000e+00 0.0000000e+00 -2.7140604e-06 
0.0000000e+00 0.0000000e+00 -3.3854112e-06 
0.0000000e+00 0.0000000e+00 -2.6833741e-06 
0.0000000e+00 0.0000000e+00 -3.4142222e-06 
0.0000000e+00 0.0000000e+00 -2.6924731e-06 
0.0000000e+00 0.0000000e+00 -3.4007164e-06 
0.0000000e+00 0.0000000e+00 -3.4145780e-06 
0.0000000e+00 0.0000000e+00 -3.3965634e-06 
0.0000000e+00 0.0000000e+00 -3.3978470e-06 
0.0000000e+00 0.0000000e+00 -3.3819640e-06 
0.0000000e+00 0.0000000e+00 -3.3819206e-06 
0.0000000e+00 0.0000000e+00 -3.3658000e-06 
0.0000000e+00 0.0000000e+00 -3.3657996e-06 
0.0000000e+00 0.0000000e+00 -3.3496276e-06 
0.0000000e+00 0.0000000e+00 -3.3496256e-06 
0.0000000e+00 0.0000000e+00 -3.3334259e-06 
0.0000000e+00 0.0000000e+00 -3.3334277e-06 
0.0000000e+00 0.0000000e+00 -3.3172014e-06 
0.0000000e+00 0.0000000e+00 -3.3172023e-06 
0.0000000e+00 0.0000000e+00 -3.3009596e-06 
0.0000000e+00 0.0000000e+00 -3.3009603e-06 
0.0000000e+00 0.0000000e+00 -3.2846990e-06 
0.0000000e+00 0.0000000e+00 -3.2846974e-06 
0.0000000e+00 0.0000000e+00 -3.2684163e-06 
0.0000000e+00 0.0000000e+00 -3.2684154e-06 
0.0000000e+00 0.0000000e+00 -3.2521120e-06 
0.0000000e+00 0.0000000e+00 -3.2521127e-06 
0.0000000e+00 0.0000000e+00 -3.2357873e-06 
0.0000000e+00 0.0000000e+00 -3.2357864e-06 
0.0000000e+00 0.0000000e+00 -3.2194393e-06 
0.0000000e+00 0.0000000e+00 -3.2194398e-06 
0.0000000e+00 0.0000000e+00 -3.2030741e-06 
0.0000000e+00 0.0000000e+00 -3.2030753e-06 
0.0000000e+00 0.0000000e+00 -3.1866896e-06 
0.0000000e+00 0.0000000e+00 -3.1866875e-06 
0.0000000e+00 0.0000000e+00 -3.1702843e-06 
0.0000000e+00 0.0000000e+00 -3.1702837e-06 
0.0000000e+00 0.0000000e+00 -3.1538566e-06 
0.0000000e+00 0.0000000e+00 -3.1538591e-06 
0.0000000e+00 0.0000000e+00 -3.1374095e-06 
0.0000000e+00 0.0000000e+00 -3.1374100e-06 
0.0000000e+00 0.0000000e+00 -3.1209393e-06 
0.0000000e+00 0.0000000e+00 -3.1209374e-06 
0.0000000e+00 0.0000000e+00 -3.1044431e-06 
0.0000000e+00 0.0000000e+00 -3.1044447e-06 
0.0000000e+00 0.0000000e+00 -3.0879291e-06 
0.0000000e+00 0.0000000e+00 -3.0879273e-06 
0.0000000e+00 0.0000000e+00 -3.0713938e-06 
0.0000000e+00 0.0000000e+00 -3.0713957e-06 
0.0000000e+00 0.0000000e+00 -3.0548388e-06 
0.0000000e+00 0.0000000e+00 -3.0548392e-06 
0.0000000e+00 0.0000000e+00 -3.0382632e-06 
0.0000000e+00 0.0000000e+00 -3.0382650e-06 
0.0000000e+00 0.0000000e+00 -3.0216684e-06 
0.0000000e+00 0.0000000e+00 -3.0216677e-06 
0.0000000e+00 0.0000000e+00 -3.0050503e-06 
0.0000000e+00 0.0000000e+00 -3.1538586e-06 
0.0000000e+00 0.0000000e+00 -3.0050487e-06 
0.0000000e+00 0.0000000e+00 -2.9884059e-06 
0.0000000e+00 0.0000000e+00 -2.9882531e-06 
0.0000000e+00 0.0000000e+00 -2.9717157e-06 
0.0000000e+00 0.0000000e+00 -2.9717385e-06 
0.0000000e+00 0.0000000e+00 -2.9550495e-06 
0.0000000e+00 0.0000000e+00 -2.9550499e-06 
0.0000000e+00 0.0000000e+00 -2.9383414e-06 
0.0000000e+00 0.0000000e+00 -2.9382820e-06 
0.0000000e+00 0.0000000e+00 -2.9216026e-06 
0.0000000e+00 0.0000000e+00 -2.9216098e-06 
0.0000000e+00 0.0000000e+00 -2.9048597e-06 
0.0000000e+00 0.0000000e+00 -2.9048131e-06 
0.0000000e+00 0.0000000e+00 -2.8880818e-06 
0.0000000e+00 0.0000000e+00 -2.8880886e-06 
0.0000000e+00 0.0000000e+00 -2.8712975e-06 
0.0000000e+00 0.0000000e+00 -2.8712966e-06 
0.0000000e+00 0.0000000e+00 -2.8544873e-06 
0.0000000e+00 0.0000000e+00 -2.8544880e-06 
0.0000000e+00 0.0000000e+00 -2.8376530e-06 
0.0000000e+00 0.0000000e+00 -2.8376544e-06 
0.0000000e+00 0.0000000e+00 -2.8207974e-06 
0.0000000e+00 0.0000000e+00 -2.8207944e-06 
0.0000000e+00 0.0000000e+00 -2.8039194e-06 
0.0000000e+00 0.0000000e+00 -2.8039192e-06 
0.0000000e+00 0.0000000e+00 -2.7870192e-06 
0.0000000e+00 0.0000000e+00 -2.7870187e-06 
0.0000000e+00 0.0000000e+00 -2.7700937e-06 
0.0000000e+00 0.0000000e+00 -2.9216139e-06 
0.0000000e+00 0.0000000e+00 -2.7700946e-06 
0.0000000e+00 0.0000000e+00 -2.7531448e-06 
0.0000000e+00 0.0000000e+00 -2.7532571e-06 
0.0000000e+00 0.0000000e+00 -2.7363064e-06 
0.0000000e+00 0.0000000e+00 -2.7361987e-06 
0.0000000e+00 0.0000000e+00 -3.3658066e-06 
0.0000000e+00 0.0000000e+00 -3.1866887e-06 
0.0000000e+00 0.0000000e+00 -2.7188923e-06 
0.0000000e+00 0.0000000e+00 -2.7196409e-06 
0.0000000e+00 0.0000000e+00 -3.3172034e-06 
0.0000000e+00 0.0000000e+00 -2.9550540e-06 
0.0000000e+00 0.0000000e+00 -3.0879285e-06 
0.0000000e+00 0.0000000e+00 -2.7870185e-06 
0.0000000e+00 0.0000000e+00 -2.8544878e-06 
0.0000000e+00 0.0000000e+00 -3.3496287e-06 
0.0000000e+00 0.0000000e+00 -3.0216688e-06 
0.0000000e+00 0.0000000e+00 -3.1209386e-06 
0.0000000e+00 0.0000000e+00 -3.2521129e-06 
0.0000000e+00 0.0000000e+00 -3.1866587e-06 
0.0000000e+00 0.0000000e+00 -3.2517835e-06 
0.0000000e+00 0.0000000e+00 -2.8880902e-06 
0.0000000e+00 0.0000000e+00 -3.0216677e-06 
0.0000000e+00 0.0000000e+00 -2.9550563e-06 
0.0000000e+00 0.0000000e+00 -2.8544889e-06 
0.0000000e+00 0.0000000e+00 -2.7867463e-06 
0.0000000e+00 0.0000000e+00 -2.8032591e-06 
0.0000000e+00 0.0000000e+00 -3.2844421e-06 
0.0000000e+00 0.0000000e+00 -3.3004849e-06 