# vtk DataFile Version 4.0
vtk output
ASCII
DATASET UNSTRUCTURED_GRID
POINTS 662 float
0.0000000e+00 0.0000000e+00 0.0000000e+00 
0.0000000e+00 0.0000000e+00 4.0000000e+01 
5.0000000e+00 0.0000000e+00 0.0000000e+00 
5.0000000e+00 0.0000000e+00 4.0000000e+01 
5.0000000e+00 1.0000000e+00 0.0000000e+00 
5.0000000e+00 1.0000000e+00 4.0000000e+01 
0.0000000e+00 1.0000000e+00 0.0000000e+00 
0.0000000e+00 1.0000000e+00 4.0000000e+01 
5.0000000e+00 2.0000000e+00 0.0000000e+00 
5.0000000e+00 2.0000000e+00 4.0000000e+01 
3.0000000e+00 2.0000000e+00 0.0000000e+00 
3.0000000e+00 2.0000000e+00 4.0000000e+01 
0.0000000e+00 2.0000000e+00 0.0000000e+00 
0.0000000e+00 2.0000000e+00 4.0000000e+01 
1.5000000e+00 3.0000000e+00 0.0000000e+00 
1.5000000e+00 3.0000000e+00 4.0000000e+01 
7.5000000e-01 3.0000000e+00 0.0000000e+00 
7.5000000e-01 3.0000000e+00 4.0000000e+01 
0.0000000e+00 3.0000000e+00 0.0000000e+00 
0.0000000e+00 3.0000000e+00 4.0000000e+01 
7.5000000e-01 3.0000000e+00 5.0000000e-01 
7.5000000e-01 3.0000000e+00 1.0000000e+00 
7.5000000e-01 3.0000000e+00 1.5000000e+00 
7.5000000e-01 3.0000000e+00 2.0000000e+00 
7.5000000e-01 3.0000000e+00 2.5000000e+00 
7.5000000e-01 3.0000000e+00 3.0000000e+00 
7.5000000e-01 3.0000000e+00 3.5000000e+00 
7.5000000e-01 3.0000000e+00 4.0000000e+00 
7.5000000e-01 3.0000000e+00 4.5000000e+00 
7.5000000e-01 3.0000000e+00 5.0000000e+00 
7.5000000e-01 3.0000000e+00 5.5000000e+00 
7.5000000e-01 3.0000000e+00 6.0000000e+00 
7.5000000e-01 3.0000000e+00 6.5000000e+00 
7.5000000e-01 3.0000000e+00 7.0000000e+00 
7.5000000e-01 3.0000000e+00 7.5000000e+00 
7.5000000e-01 3.0000000e+00 8.0000000e+00 
7.5000000e-01 3.0000000e+00 8.5000000e+00 
7.5000000e-01 3.0000000e+00 9.0000000e+00 
7.5000000e-01 3.0000000e+00 9.5000000e+00 
7.5000000e-01 3.0000000e+00 1.0000000e+01 
7.5000000e-01 3.0000000e+00 1.0500000e+01 
7.5000000e-01 3.0000000e+00 1.1000000e+01 
7.5000000e-01 3.0000000e+00 1.1500000e+01 
7.5000000e-01 3.0000000e+00 1.2000000e+01 
7.5000000e-01 3.0000000e+00 1.2500000e+01 
7.5000000e-01 3.0000000e+00 1.3000000e+01 
7.5000000e-01 3.0000000e+00 1.3500000e+01 
7.5000000e-01 3.0000000e+00 1.4000000e+01 
7.5000000e-01 3.0000000e+00 1.4500000e+01 
7.5000000e-01 3.0000000e+00 1.5000000e+01 
7.5000000e-01 3.0000000e+00 1.5500000e+01 
7.5000000e-01 3.0000000e+00 1.6000000e+01 
7.5000000e-01 3.0000000e+00 1.6500000e+01 
7.5000000e-01 3.0000000e+00 1.7000000e+01 
7.5000000e-01 3.0000000e+00 1.7500000e+01 
7.5000000e-01 3.0000000e+00 1.8000000e+01 
7.5000000e-01 3.0000000e+00 1.8500000e+01 
7.5000000e-01 3.0000000e+00 1.9000000e+01 
7.5000000e-01 3.0000000e+00 1.9500000e+01 
7.5000000e-01 3.0000000e+00 2.0000000e+01 
7.5000000e-01 3.0000000e+00 2.0500000e+01 
7.5000000e-01 3.0000000e+00 2.1000000e+01 
7.5000000e-01 3.0000000e+00 2.1500000e+01 
7.5000000e-01 3.0000000e+00 2.2000000e+01 
7.5000000e-01 3.0000000e+00 2.2500000e+01 
7.5000000e-01 3.0000000e+00 2.3000000e+01 
7.5000000e-01 3.0000000e+00 2.3500000e+01 
7.5000000e-01 3.0000000e+00 2.4000000e+01 
7.5000000e-01 3.0000000e+00 2.4500000e+01 
7.5000000e-01 3.0000000e+00 2.5000000e+01 
7.5000000e-01 3.0000000e+00 2.5500000e+01 
7.5000000e-01 3.0000000e+00 2.6000000e+01 
7.5000000e-01 3.0000000e+00 2.6500000e+01 
7.5000000e-01 3.0000000e+00 2.7000000e+01 
7.5000000e-01 3.0000000e+00 2.7500000e+01 
7.5000000e-01 3.0000000e+00 2.8000000e+01 
7.5000000e-01 3.0000000e+00 2.8500000e+01 
7.5000000e-01 3.0000000e+00 2.9000000e+01 
7.5000000e-01 3.0000000e+00 2.9500000e+01 
7.5000000e-01 3.0000000e+00 3.0000000e+01 
7.5000000e-01 3.0000000e+00 3.0500000e+01 
7.5000000e-01 3.0000000e+00 3.1000000e+01 
7.5000000e-01 3.0000000e+00 3.1500000e+01 
7.5000000e-01 3.0000000e+00 3.2000000e+01 
7.5000000e-01 3.0000000e+00 3.2500000e+01 
7.5000000e-01 3.0000000e+00 3.3000000e+01 
7.5000000e-01 3.0000000e+00 3.3500000e+01 
7.5000000e-01 3.0000000e+00 3.4000000e+01 
7.5000000e-01 3.0000000e+00 3.4500000e+01 
7.5000000e-01 3.0000000e+00 3.5000000e+01 
7.5000000e-01 3.0000000e+00 3.5500000e+01 
7.5000000e-01 3.0000000e+00 3.6000000e+01 
7.5000000e-01 3.0000000e+00 3.6500000e+01 
7.5000000e-01 3.0000000e+00 3.7000000e+01 
7.5000000e-01 3.0000000e+00 3.7500000e+01 
7.5000000e-01 3.0000000e+00 3.8000000e+01 
7.5000000e-01 3.0000000e+00 3.8500000e+01 
7.5000000e-01 3.0000000e+00 3.9000000e+01 
7.5000000e-01 3.0000000e+00 3.9500000e+01 
7.5000000e-01 3.0000000e+00 4.0500000e+01 
7.5000000e-01 3.0000000e+00 4.1000000e+01 
7.5000000e-01 3.0000000e+00 4.1500000e+01 
7.5000000e-01 3.0000000e+00 4.2000000e+01 
7.5000000e-01 3.0000000e+00 4.2500000e+01 
7.5000000e-01 3.0000000e+00 4.3000000e+01 
7.5000000e-01 3.0000000e+00 4.3500000e+01 
7.5000000e-01 3.0000000e+00 4.4000000e+01 
7.5000000e-01 3.0000000e+00 4.4500000e+01 
7.5000000e-01 3.0000000e+00 4.5000000e+01 
7.5000000e-01 3.0000000e+00 4.5500000e+01 
7.5000000e-01 3.0000000e+00 4.6000000e+01 
7.5000000e-01 3.0000000e+00 4.6500000e+01 
7.5000000e-01 3.0000000e+00 4.7000000e+01 
7.5000000e-01 3.0000000e+00 4.7500000e+01 
7.5000000e-01 3.0000000e+00 4.8000000e+01 
7.5000000e-01 3.0000000e+00 4.8500000e+01 
7.5000000e-01 3.0000000e+00 4.9000000e+01 
7.5000000e-01 3.0000000e+00 4.9500000e+01 
7.5000000e-01 3.0000000e+00 5.0000000e+01 
7.5000000e-01 3.0250001e+00 0.0000000e+00 
7.5000000e-01 3.0250001e+00 5.0000000e-01 
7.5000000e-01 3.0250001e+00 1.0000000e+00 
7.5000000e-01 3.0250001e+00 1.5000000e+00 
7.5000000e-01 3.0250001e+00 2.0000000e+00 
7.5000000e-01 3.0250001e+00 2.5000000e+00 
7.5000000e-01 3.0250001e+00 3.0000000e+00 
7.5000000e-01 3.0250001e+00 3.5000000e+00 
7.5000000e-01 3.0250001e+00 4.0000000e+00 
7.5000000e-01 3.0250001e+00 4.5000000e+00 
7.5000000e-01 3.0250001e+00 5.0000000e+00 
7.5000000e-01 3.0250001e+00 5.5000000e+00 
7.5000000e-01 3.0250001e+00 6.0000000e+00 
7.5000000e-01 3.0250001e+00 6.5000000e+00 
7.5000000e-01 3.0250001e+00 7.0000000e+00 
7.5000000e-01 3.0250001e+00 7.5000000e+00 
7.5000000e-01 3.0250001e+00 8.0000000e+00 
7.5000000e-01 3.0250001e+00 8.5000000e+00 
7.5000000e-01 3.0250001e+00 9.0000000e+00 
7.5000000e-01 3.0250001e+00 9.5000000e+00 
7.5000000e-01 3.0250001e+00 1.0000000e+01 
7.5000000e-01 3.0250001e+00 1.0500000e+01 
7.5000000e-01 3.0250001e+00 1.1000000e+01 
7.5000000e-01 3.0250001e+00 1.1500000e+01 
7.5000000e-01 3.0250001e+00 1.2000000e+01 
7.5000000e-01 3.0250001e+00 1.2500000e+01 
7.5000000e-01 3.0250001e+00 1.3000000e+01 
7.5000000e-01 3.0250001e+00 1.3500000e+01 
7.5000000e-01 3.0250001e+00 1.4000000e+01 
7.5000000e-01 3.0250001e+00 1.4500000e+01 
7.5000000e-01 3.0250001e+00 1.5000000e+01 
7.5000000e-01 3.0250001e+00 1.5500000e+01 
7.5000000e-01 3.0250001e+00 1.6000000e+01 
7.5000000e-01 3.0250001e+00 1.6500000e+01 
7.5000000e-01 3.0250001e+00 1.7000000e+01 
7.5000000e-01 3.0250001e+00 1.7500000e+01 
7.5000000e-01 3.0250001e+00 1.8000000e+01 
7.5000000e-01 3.0250001e+00 1.8500000e+01 
7.5000000e-01 3.0250001e+00 1.9000000e+01 
7.5000000e-01 3.0250001e+00 1.9500000e+01 
7.5000000e-01 3.0250001e+00 2.0000000e+01 
7.5000000e-01 3.0250001e+00 2.0500000e+01 
7.5000000e-01 3.0250001e+00 2.1000000e+01 
7.5000000e-01 3.0250001e+00 2.1500000e+01 
7.5000000e-01 3.0250001e+00 2.2000000e+01 
7.5000000e-01 3.0250001e+00 2.2500000e+01 
7.5000000e-01 3.0250001e+00 2.3000000e+01 
7.5000000e-01 3.0250001e+00 2.3500000e+01 
7.5000000e-01 3.0250001e+00 2.4000000e+01 
7.5000000e-01 3.0250001e+00 2.4500000e+01 
7.5000000e-01 3.0250001e+00 2.5000000e+01 
7.5000000e-01 3.0250001e+00 2.5500000e+01 
7.5000000e-01 3.0250001e+00 2.6000000e+01 
7.5000000e-01 3.0250001e+00 2.6500000e+01 
7.5000000e-01 3.0250001e+00 2.7000000e+01 
7.5000000e-01 3.0250001e+00 2.7500000e+01 
7.5000000e-01 3.0250001e+00 2.8000000e+01 
7.5000000e-01 3.0250001e+00 2.8500000e+01 
7.5000000e-01 3.0250001e+00 2.9000000e+01 
7.5000000e-01 3.0250001e+00 2.9500000e+01 
7.5000000e-01 3.0250001e+00 3.0000000e+01 
7.5000000e-01 3.0250001e+00 3.0500000e+01 
7.5000000e-01 3.0250001e+00 3.1000000e+01 
7.5000000e-01 3.0250001e+00 3.1500000e+01 
7.5000000e-01 3.0250001e+00 3.2000000e+01 
7.5000000e-01 3.0250001e+00 3.2500000e+01 
7.5000000e-01 3.0250001e+00 3.3000000e+01 
7.5000000e-01 3.0250001e+00 3.3500000e+01 
7.5000000e-01 3.0250001e+00 3.4000000e+01 
7.5000000e-01 3.0250001e+00 3.4500000e+01 
7.5000000e-01 3.0250001e+00 3.5000000e+01 
7.5000000e-01 3.0250001e+00 3.5500000e+01 
7.5000000e-01 3.0250001e+00 3.6000000e+01 
7.5000000e-01 3.0250001e+00 3.6500000e+01 
7.5000000e-01 3.0250001e+00 3.7000000e+01 
7.5000000e-01 3.0250001e+00 3.7500000e+01 
7.5000000e-01 3.0250001e+00 3.8000000e+01 
7.5000000e-01 3.0250001e+00 3.8500000e+01 
7.5000000e-01 3.0250001e+00 3.9000000e+01 
7.5000000e-01 3.0250001e+00 3.9500000e+01 
7.5000000e-01 3.0250001e+00 4.0000000e+01 
7.5000000e-01 3.0250001e+00 4.0500000e+01 
7.5000000e-01 3.0250001e+00 4.1000000e+01 
7.5000000e-01 3.0250001e+00 4.1500000e+01 
7.5000000e-01 3.0250001e+00 4.2000000e+01 
7.5000000e-01 3.0250001e+00 4.2500000e+01 
7.5000000e-01 3.0250001e+00 4.3000000e+01 
7.5000000e-01 3.0250001e+00 4.3500000e+01 
7.5000000e-01 3.0250001e+00 4.4000000e+01 
7.5000000e-01 3.0250001e+00 4.4500000e+01 
7.5000000e-01 3.0250001e+00 4.5000000e+01 
7.5000000e-01 3.0250001e+00 4.5500000e+01 
7.5000000e-01 3.0250001e+00 4.6000000e+01 
7.5000000e-01 3.0250001e+00 4.6500000e+01 
7.5000000e-01 3.0250001e+00 4.7000000e+01 
7.5000000e-01 3.0250001e+00 4.7500000e+01 
7.5000000e-01 3.0250001e+00 4.8000000e+01 
7.5000000e-01 3.0250001e+00 4.8500000e+01 
7.5000000e-01 3.0250001e+00 4.9000000e+01 
7.5000000e-01 3.0250001e+00 4.9500000e+01 
7.5000000e-01 3.0250001e+00 5.0000000e+01 
7.5000000e-01 3.0250001e+00 3.5750000e+01 
3.0000000e+00 2.0000000e+00 3.6000000e+01 
8.0487806e-01 3.0000000e+00 3.6000000e+01 
0.0000000e+00 0.0000000e+00 2.0000000e+00 
0.0000000e+00 0.0000000e+00 4.0000000e+00 
0.0000000e+00 0.0000000e+00 6.0000000e+00 
0.0000000e+00 0.0000000e+00 8.0000000e+00 
0.0000000e+00 0.0000000e+00 1.0000000e+01 
0.0000000e+00 0.0000000e+00 1.2000000e+01 
0.0000000e+00 0.0000000e+00 1.4000000e+01 
[...]
POINT_DATA 662
FIELD FieldData 3
DISPLACEMENT 3 662  float
0.0000000e+00 0.0000000e+00 0.0000000e+00 
0.0000000e+00 0.0000000e+00 0.0000000e+00 
0.0000000e+00 0.0000000e+00 0.0000000e+00 
0.0000000e+00 0.0000000e+00 0.0000000e+00 
4.5518595e-06 -5.7056463e-06 -1.6902300e-06 
3.8849862e-07 8.9818133e-07 1.5643386e-06 
0.0000000e+00 -2.5586917e-06 0.0000000e+00 
0.0000000e+00 -1.1478483e-05 0.0000000e+00 
-1.2115267e-07 -5.8932847e-06 -4.3869563e-06 
-2.6952112e-06 2.4651308e-06 -1.4040523e-06 
-4.2739075e-07 -2.3478158e-05 -2.6533700e-05 
-1.4723132e-06 -3.0399610e-06 -6.3872981e-06 
0.0000000e+00 -3.7379207e-06 0.0000000e+00 
0.0000000e+00 -1.9441575e-05 0.0000000e+00 
-2.1773617e-06 -2.0631614e-05 -9.7875258e-05 
-1.2594243e-05 -1.6876289e-05 -2.8367107e-05 
-9.7375632e-06 3.8589875e-05 -5.1105180e-05 
3.1540051e-06 -3.3938279e-05 -4.0335421e-05 
0.0000000e+00 -7.6716742e-06 0.0000000e+00 
0.0000000e+00 -2.5749769e-05 0.0000000e+00 
2.2728593e-05 4.5395798e-05 -7.1079216e-05 
3.5672008e-05 6.3207081e-05 -5.6055182e-05 
4.2030009e-05 8.6069878e-05 -4.7799553e-05 
4.5955912e-05 1.1239833e-04 -3.1862302e-05 
4.8596292e-05 1.4035961e-04 -6.6444782e-06 
4.4549510e-05 1.6470016e-04 9.2964974e-06 
3.0683299e-05 1.7415622e-04 3.1189964e-05 
2.0264735e-05 1.3873569e-04 5.1245137e-05 
-1.2143925e-05 1.6704122e-05 8.8613568e-05 
-2.3141654e-05 -2.3209558e-04 1.2497182e-04 
-5.7201596e-05 -6.6815421e-04 1.7196692e-04 
-1.1336314e-04 -1.3328715e-03 1.1462316e-04 
-2.5012621e-04 -2.2440506e-03 1.9195302e-04 
-2.5145331e-04 -3.2310926e-03 1.7440060e-04 
-1.3603957e-04 -3.9998502e-03 1.0472741e-04 
-1.0075978e-04 -4.0159174e-03 1.0333032e-04 
-2.4352512e-04 -3.8424013e-03 3.4322726e-05 
-3.1530281e-04 -3.8383626e-03 1.2438816e-05 
-2.0270691e-04 -4.1067349e-03 -2.9041215e-05 
-4.7661688e-05 -4.1417577e-03 -7.8812525e-05 
-8.1851133e-05 -3.4512572e-03 -1.5863206e-04 
-1.8124495e-04 -2.4193428e-03 -1.7194642e-04 
-1.9043086e-04 -1.5158952e-03 -1.5002950e-04 
-8.0254176e-05 -8.2733610e-04 -7.9433848e-05 
-4.3988228e-05 -3.9185077e-04 -1.1185003e-04 
-3.0148665e-05 -1.4645010e-04 -7.9399761e-05 
-3.0011453e-05 -3.0023548e-05 -5.9173555e-05 
-2.0675467e-05 8.0558020e-06 -4.2172676e-05 
-1.2153275e-05 1.3263531e-06 -2.6489452e-05 
-4.0591758e-06 -2.5263325e-05 -1.6054801e-05 
-2.8554616e-06 -5.4424894e-05 -1.5350008e-05 
-9.6502381e-06 -7.9051955e-05 -1.3010678e-05 
-1.2834304e-05 -9.5415293e-05 6.7323272e-06 
-1.5105491e-05 -1.0540193e-04 2.6241043e-05 
-3.3371347e-05 -1.1237110e-04 5.8419831e-05 
-5.1616531e-05 -1.1631054e-04 8.3023442e-05 
-5.1563165e-05 -1.1591393e-04 6.1649174e-05 
-5.4774078e-05 -1.1069428e-04 2.8177594e-05 
-3.9030263e-05 -9.9083707e-05 -1.6041411e-05 
-1.6185917e-05 -7.9594269e-05 -6.1835482e-05 
3.2533057e-06 -4.9003182e-05 -7.6165146e-05 
1.7262615e-05 -1.0025796e-05 -7.6288205e-05 
3.2278462e-05 3.5916408e-05 -7.8533623e-05 
4.1773117e-05 8.4641193e-05 -6.7271460e-05 
5.0557719e-05 1.3114350e-04 -4.4436827e-05 
5.4370019e-05 1.6842564e-04 -1.8114375e-05 
4.2114894e-05 1.8350422e-04 9.8845167e-06 
3.0214804e-05 1.4684370e-04 3.7276859e-05 
-1.2276867e-05 1.3346380e-05 6.8694841e-05 
-2.1195605e-05 -2.6119090e-04 9.9890502e-05 
-3.5828398e-05 -7.4182992e-04 1.3694294e-04 
-8.3083629e-05 -1.4639392e-03 6.8871821e-05 
-2.2796972e-04 -2.4316888e-03 1.6863747e-04 
-2.3225440e-04 -3.4279970e-03 1.6795291e-04 
-1.3367811e-04 -4.0891999e-03 1.3716331e-04 
-1.0249643e-04 -4.0141083e-03 1.8553386e-04 
-2.5261988e-04 -3.8703321e-03 1.3058101e-04 
-3.2094982e-04 -3.9360193e-03 1.1270685e-04 
-2.1278241e-04 -4.2380579e-03 7.3693256e-05 
-7.6869299e-05 -4.1730390e-03 4.0954910e-05 
-1.2368022e-04 -3.3875185e-03 -1.0124539e-04 
-2.2995984e-04 -2.3589483e-03 -1.6180622e-04 
-2.2254449e-04 -1.4823658e-03 -1.8943289e-04 
-1.0251897e-04 -8.1693084e-04 -1.6618530e-04 
-5.5613680e-05 -3.8475767e-04 -2.1035278e-04 
-3.1124320e-05 -1.2565438e-04 -1.8227166e-04 
-1.9136305e-05 1.7036193e-05 -1.6856070e-04 
3.0132385e-06 8.7797540e-05 -1.4469461e-04 
2.5397796e-05 1.1355396e-04 -9.5551761e-05 
4.3046628e-05 1.1535329e-04 -4.5203018e-05 
3.5341185e-05 1.0484247e-04 -6.7394826e-06 
2.5258607e-05 8.6520173e-05 2.9779299e-05 
1.9521049e-05 6.2262538e-05 5.0519546e-05 
1.3687081e-05 3.5453908e-05 6.0232887e-05 
3.2465832e-06 9.4025891e-06 6.8757639e-05 
-7.8476905e-06 -1.1891464e-05 6.2222971e-05 
-9.2159589e-06 -2.6582533e-05 4.3951131e-05 
-1.3306319e-05 -3.4686451e-05 1.8852063e-05 
-9.6958192e-06 -3.6982321e-05 -6.3933539e-06 
0.0000000e+00 -2.6835236e-05 0.0000000e+00 
0.0000000e+00 -1.5443509e-05 0.0000000e+00 
0.0000000e+00 -1.1708369e-06 0.0000000e+00 
0.0000000e+00 1.3604164e-05 0.0000000e+00 
0.0000000e+00 2.6018799e-05 0.0000000e+00 
0.0000000e+00 3.3479108e-05 0.0000000e+00 
0.0000000e+00 3.4353736e-05 0.0000000e+00 
0.0000000e+00 2.8422022e-05 0.0000000e+00 
0.0000000e+00 1.6898619e-05 0.0000000e+00 
0.0000000e+00 2.0323787e-06 0.0000000e+00 
0.0000000e+00 -1.3468582e-05 0.0000000e+00 
0.0000000e+00 -2.6871121e-05 0.0000000e+00 
0.0000000e+00 -3.5637098e-05 0.0000000e+00 
0.0000000e+00 -3.7661797e-05 0.0000000e+00 
0.0000000e+00 -3.1780823e-05 0.0000000e+00 
0.0000000e+00 -1.8463024e-05 0.0000000e+00 
0.0000000e+00 -2.4794224e-07 0.0000000e+00 
0.0000000e+00 1.8527096e-05 0.0000000e+00 
0.0000000e+00 3.2790449e-05 0.0000000e+00 
0.0000000e+00 3.8204966e-05 0.0000000e+00 
0.0000000e+00 3.8799310e-05 0.0000000e+00 
0.0000000e+00 4.5563935e-05 0.0000000e+00 
0.0000000e+00 6.2991225e-05 0.0000000e+00 
0.0000000e+00 8.6049382e-05 0.0000000e+00 
0.0000000e+00 1.1253526e-04 0.0000000e+00 
0.0000000e+00 1.4068789e-04 0.0000000e+00 
0.0000000e+00 1.6575356e-04 0.0000000e+00 
0.0000000e+00 1.7481863e-04 0.0000000e+00 
0.0000000e+00 1.3877584e-04 0.0000000e+00 
0.0000000e+00 1.7818631e-05 0.0000000e+00 
0.0000000e+00 -2.3274907e-04 0.0000000e+00 
0.0000000e+00 -6.6962105e-04 0.0000000e+00 
0.0000000e+00 -1.3418919e-03 0.0000000e+00 
0.0000000e+00 -2.2515180e-03 0.0000000e+00 
0.0000000e+00 -3.2626670e-03 0.0000000e+00 
0.0000000e+00 -4.0236604e-03 0.0000000e+00 
0.0000000e+00 -4.0464806e-03 0.0000000e+00 
0.0000000e+00 -3.8561879e-03 0.0000000e+00 
0.0000000e+00 -3.8690190e-03 0.0000000e+00 
0.0000000e+00 -4.1267439e-03 0.0000000e+00 
0.0000000e+00 -4.1764039e-03 0.0000000e+00 
0.0000000e+00 -3.4694539e-03 0.0000000e+00 
0.0000000e+00 -2.4379455e-03 0.0000000e+00 
0.0000000e+00 -1.5181627e-03 0.0000000e+00 
0.0000000e+00 -8.3167525e-04 0.0000000e+00 
0.0000000e+00 -3.9170898e-04 0.0000000e+00 
0.0000000e+00 -1.4554315e-04 0.0000000e+00 
0.0000000e+00 -2.9060240e-05 0.0000000e+00 
0.0000000e+00 8.4661679e-06 0.0000000e+00 
0.0000000e+00 1.6994371e-06 0.0000000e+00 
0.0000000e+00 -2.4747746e-05 0.0000000e+00 
0.0000000e+00 -5.4247354e-05 0.0000000e+00 
0.0000000e+00 -7.8788988e-05 0.0000000e+00 
0.0000000e+00 -9.5356831e-05 0.0000000e+00 
0.0000000e+00 -1.0559808e-04 0.0000000e+00 
0.0000000e+00 -1.1246812e-04 0.0000000e+00 
0.0000000e+00 -1.1630338e-04 0.0000000e+00 
0.0000000e+00 -1.1599891e-04 0.0000000e+00 
0.0000000e+00 -1.1070483e-04 0.0000000e+00 
0.0000000e+00 -9.9148841e-05 0.0000000e+00 
0.0000000e+00 -7.9274323e-05 0.0000000e+00 
0.0000000e+00 -4.9055077e-05 0.0000000e+00 
0.0000000e+00 -9.9039298e-06 0.0000000e+00 
0.0000000e+00 3.5950154e-05 0.0000000e+00 
0.0000000e+00 8.4684114e-05 0.0000000e+00 
0.0000000e+00 1.3146120e-04 0.0000000e+00 
0.0000000e+00 1.6935203e-04 0.0000000e+00 
0.0000000e+00 1.8435781e-04 0.0000000e+00 
0.0000000e+00 1.4699649e-04 0.0000000e+00 
0.0000000e+00 1.4504597e-05 0.0000000e+00 
0.0000000e+00 -2.6236995e-04 0.0000000e+00 
0.0000000e+00 -7.4376294e-04 0.0000000e+00 
0.0000000e+00 -1.4746243e-03 0.0000000e+00 
0.0000000e+00 -2.4407264e-03 0.0000000e+00 
0.0000000e+00 -3.4632222e-03 0.0000000e+00 
0.0000000e+00 -4.1133049e-03 0.0000000e+00 
0.0000000e+00 -4.0442483e-03 0.0000000e+00 
0.0000000e+00 -3.8838801e-03 0.0000000e+00 
0.0000000e+00 -3.9681545e-03 0.0000000e+00 
0.0000000e+00 -4.2596720e-03 0.0000000e+00 
0.0000000e+00 -4.2070909e-03 0.0000000e+00 
0.0000000e+00 -3.4039617e-03 0.0000000e+00 
0.0000000e+00 -2.3751007e-03 0.0000000e+00 
0.0000000e+00 -1.4840754e-03 0.0000000e+00 
0.0000000e+00 -8.2038692e-04 0.0000000e+00 
0.0000000e+00 -3.8453494e-04 0.0000000e+00 
0.0000000e+00 -1.2474867e-04 0.0000000e+00 
0.0000000e+00 1.7998871e-05 0.0000000e+00 
0.0000000e+00 8.8132525e-05 0.0000000e+00 
0.0000000e+00 1.1405393e-04 0.0000000e+00 
0.0000000e+00 1.1573081e-04 0.0000000e+00 
0.0000000e+00 1.0496344e-04 0.0000000e+00 
0.0000000e+00 8.6433807e-05 0.0000000e+00 
0.0000000e+00 6.2255567e-05 0.0000000e+00 
0.0000000e+00 3.5448757e-05 0.0000000e+00 
0.0000000e+00 9.5335990e-06 0.0000000e+00 
0.0000000e+00 -1.1796071e-05 0.0000000e+00 
0.0000000e+00 -2.6563397e-05 0.0000000e+00 
0.0000000e+00 -3.4713114e-05 0.0000000e+00 
0.0000000e+00 -3.6966492e-05 0.0000000e+00 
0.0000000e+00 -3.4042692e-05 0.0000000e+00 
0.0000000e+00 -2.6770113e-05 0.0000000e+00 
0.0000000e+00 -1.5388498e-05 0.0000000e+00 
0.0000000e+00 -1.1419303e-06 0.0000000e+00 
0.0000000e+00 1.3595920e-05 0.0000000e+00 
0.0000000e+00 2.5972655e-05 0.0000000e+00 
0.0000000e+00 3.3409458e-05 0.0000000e+00 
0.0000000e+00 3.4286582e-05 0.0000000e+00 
0.0000000e+00 2.8380327e-05 0.0000000e+00 
0.0000000e+00 1.6887376e-05 0.0000000e+00 
0.0000000e+00 2.0386062e-06 0.0000000e+00 
0.0000000e+00 -1.3459315e-05 0.0000000e+00 
0.0000000e+00 -2.6857733e-05 0.0000000e+00 
0.0000000e+00 -3.5603414e-05 0.0000000e+00 
0.0000000e+00 -3.7594888e-05 0.0000000e+00 
0.0000000e+00 -3.1689786e-05 0.0000000e+00 
0.0000000e+00 -1.8380235e-05 0.0000000e+00 
0.0000000e+00 -2.1135614e-07 0.0000000e+00 
0.0000000e+00 1.8496517e-05 0.0000000e+00 
0.0000000e+00 3.2701049e-05 0.0000000e+00 
0.0000000e+00 3.8091897e-05 0.0000000e+00 
0.0000000e+00 9.6590236e-05 0.0000000e+00 
3.3583833e-06 2.6845690e-05 3.2834555e-06 
2.6006279e-05 8.7643210e-05 2.9836272e-05 
0.0000000e+00 0.0000000e+00 0.0000000e+00 
0.0000000e+00 0.0000000e+00 0.0000000e+00 
0.0000000e+00 0.0000000e+00 0.0000000e+00 
0.0000000e+00 0.0000000e+00 0.0000000e+00 
0.0000000e+00 0.0000000e+00 0.0000000e+00 
0.0000000e+00 0.0000000e+00 0.0000000e+00 
0.0000000e+00 0.0000000e+00 0.0000000e+00 
0.0000000e+00 0.0000000e+00 0.0000000e+00 
0.0000000e+00 0.0000000e+00 0.0000000e+00 
0.0000000e+00 0.0000000e+00 0.0000000e+00 
0.0000000e+00 0.0000000e+00 0.0000000e+00 
0.0000000e+00 0.0000000e+00 0.0000000e+00 
0.0000000e+00 0.0000000e+00 0.0000000e+00 
0.0000000e+00 0.0000000e+00 0.0000000e+00 
0.0000000e+00 0.0000000e+00 0.0000000e+00 
0.0000000e+00 0.0000000e+00 0.0000000e+00 
0.0000000e+00 0.0000000e+00 0.0000000e+00 
0.0000000e+00 0.0000000e+00 0.0000000e+00 
0.0000000e+00 0.0000000e+00 0.0000000e+00 
0.0000000e+00 0.0000000e+00 0.0000000e+00 
0.0000000e+00 0.0000000e+00 0.0000000e+00 
0.0000000e+00 0.0000000e+00 0.0000000e+00 
0.0000000e+00 0.0000000e+00 0.0000000e+00 
0.0000000e+00 0.0000000e+00 0.0000000e+00 
0.0000000e+00 0.0000000e+00 0.0000000e+00 
0.0000000e+00 0.0000000e+00 0.0000000e+00 
0.0000000e+00 0.0000000e+00 0.0000000e+00 
0.0000000e+00 0.0000000e+00 0.0000000e+00 
0.0000000e+00 0.0000000e+00 0.0000000e+00 
0.0000000e+00 0.0000000e+00 0.0000000e+00 
0.0000000e+00 0.0000000e+00 0.0000000e+00 
0.0000000e+00 0.0000000e+00 0.0000000e+00 
0.0000000e+00 0.0000000e+00 0.0000000e+00 
0.0000000e+00 0.0000000e+00 0.0000000e+00 
0.0000000e+00 0.0000000e+00 0.0000000e+00 
0.0000000e+00 0.0000000e+00 0.0000000e+00 
0.0000000e+00 0.0000000e+00 0.0000000e+00 
0.0000000e+00 0.0000000e+00 0.0000000e+00 
0.0000000e+00 0.0000000e+00 0.0000000e+00 
0.0000000e+00 0.0000000e+00 0.0000000e+00 
0.0000000e+00 0.0000000e+00 0.0000000e+00 
0.0000000e+00 0.0000000e+00 0.0000000e+00 
-2.2239690e-06 -2.8528334e-06 -4.9864252e-06 
7.6824790e-06 9.4473785e-07 -1.1162934e-05 
3.0732521e-05 -3.3076765e-06 -1.3976806e-05 
4.5435703e-05 -1.3699318e-05 -7.6016709e-06 
4.5240060e-05 -8.8663874e-06 1.8059580e-06 
1.8916895e-05 -7.8407902e-07 -2.0852026e-06 
5.3429785e-06 2.3839466e-06 4.1240146e-06 
5.6141921e-06 1.1352048e-06 7.8011171e-06 
2.8838469e-06 -5.6784183e-06 4.8824304e-06 
-2.0789817e-06 -5.0726858e-06 2.2591514e-06 
-4.6010082e-06 3.4517764e-06 -1.3257693e-06 
7.4086047e-06 -2.3629609e-06 -6.6496077e-06 
2.8130687e-05 -5.7142156e-06 -6.9602888e-06 
4.8685713e-05 -8.9167042e-06 -2.9830992e-06 
4.7346592e-05 -1.2644349e-05 3.7042917e-06 
2.1238915e-05 -5.5608398e-06 4.0767336e-06 
1.3003012e-06 6.3215730e-06 8.8715578e-06 
-2.8350862e-06 2.7157457e-06 4.6624491e-06 
2.0166947e-06 -4.7137710e-06 2.6520859e-06 
0.0000000e+00 4.2733194e-05 0.0000000e+00 
0.0000000e+00 3.2541386e-05 0.0000000e+00 
0.0000000e+00 -1.8723360e-04 0.0000000e+00 
0.0000000e+00 -5.1343523e-04 0.0000000e+00 
0.0000000e+00 -4.7666507e-04 0.0000000e+00 
0.0000000e+00 -1.6111496e-04 0.0000000e+00 
0.0000000e+00 -2.9434574e-05 0.0000000e+00 
0.0000000e+00 -3.2806925e-05 0.0000000e+00 
0.0000000e+00 -4.1071886e-05 0.0000000e+00 
0.0000000e+00 -3.9504510e-05 0.0000000e+00 
0.0000000e+00 3.0309757e-05 0.0000000e+00 
0.0000000e+00 3.2954733e-05 0.0000000e+00 
0.0000000e+00 -1.8572860e-04 0.0000000e+00 
0.0000000e+00 -4.9664796e-04 0.0000000e+00 
0.0000000e+00 -5.1070051e-04 0.0000000e+00 
0.0000000e+00 -1.8691871e-04 0.0000000e+00 
0.0000000e+00 1.0705594e-05 0.0000000e+00 
0.0000000e+00 3.7675720e-05 0.0000000e+00 
0.0000000e+00 -1.0141846e-05 0.0000000e+00 
6.9861352e-07 -1.2585415e-05 -6.7360047e-06 
-3.9673600e-06 -1.5431664e-05 -8.1315420e-06 
4.4971375e-07 -1.0526679e-06 -2.5019051e-06 
1.4525392e-06 -8.4233170e-06 1.4407376e-06 
3.8340654e-06 -2.6009345e-06 -1.0776519e-05 
2.0269410e-05 9.8527232e-07 -1.7890339e-05 
3.8348131e-05 9.0149348e-07 -6.0516968e-06 
4.9059785e-05 -2.2981874e-06 -5.0502763e-06 
3.3776269e-05 -8.5798301e-06 -1.1356833e-06 
1.1473979e-05 1.5348186e-06 -1.0564905e-05 
1.7851687e-06 3.5574440e-06 4.0997734e-06 
5.2408359e-06 -7.0070797e-07 1.2127409e-05 
-1.1954926e-06 -7.9377824e-06 9.2451573e-06 
-9.0517497e-06 -5.3009503e-06 -1.8510833e-06 
-2.0571654e-06 4.3177697e-06 -8.5967995e-06 
2.3747081e-05 -3.2147593e-06 -8.1904218e-06 
3.0941035e-05 -3.2927389e-06 -1.5667273e-07 
3.9950810e-05 -8.4461371e-06 4.6027926e-06 
2.5897853e-05 -1.0251626e-05 5.0307735e-06 
4.6358509e-06 -1.5362125e-06 -7.7193608e-06 
3.4663087e-06 6.7434839e-06 2.8671363e-06 
2.0675468e-06 6.4788475e-07 7.1231930e-06 
3.4993056e-06 -4.1678604e-06 5.0159751e-06 
1.2336966e-06 -1.3335210e-05 -3.0775835e-05 
0.0000000e+00 8.0838210e-05 0.0000000e+00 
0.0000000e+00 6.8695350e-05 0.0000000e+00 
0.0000000e+00 -4.0244716e-04 0.0000000e+00 
0.0000000e+00 -1.1435666e-03 0.0000000e+00 
0.0000000e+00 -1.0814240e-03 0.0000000e+00 
0.0000000e+00 -3.0213813e-04 0.0000000e+00 
0.0000000e+00 -3.6288082e-05 0.0000000e+00 
0.0000000e+00 -5.9472488e-05 0.0000000e+00 
0.0000000e+00 -7.1240720e-05 0.0000000e+00 
0.0000000e+00 -6.8705041e-05 0.0000000e+00 
0.0000000e+00 5.7843357e-05 0.0000000e+00 
0.0000000e+00 6.9289206e-05 0.0000000e+00 
0.0000000e+00 -4.1664776e-04 0.0000000e+00 
0.0000000e+00 -1.1260581e-03 0.0000000e+00 
0.0000000e+00 -1.1347298e-03 0.0000000e+00 
0.0000000e+00 -3.4071345e-04 0.0000000e+00 
0.0000000e+00 2.6803020e-05 0.0000000e+00 
0.0000000e+00 6.2882493e-05 0.0000000e+00 
0.0000000e+00 -1.5931077e-05 0.0000000e+00 
-3.0664901e-06 -1.3498580e-05 1.2510845e-06 
6.5755354e-05 7.4295102e-05 -2.8407825e-05 
4.9978134e-05 1.1907619e-04 6.9821748e-05 
-2.6103799e-04 -3.9177723e-04 3.2110768e-04 
-6.4231787e-04 -1.2915928e-03 1.0510397e-04 
-5.8017374e-04 -1.3983768e-03 -1.8005294e-04 
-1.7400128e-04 -2.3056239e-04 -2.0985995e-04 
2.4167973e-06 -1.5973372e-05 -4.9261227e-05 
-2.1351780e-05 -5.5090233e-05 -1.8860233e-05 
-7.1700277e-05 -8.2236184e-05 9.7733806e-05 
-2.2963084e-05 -5.9296392e-05 -9.6078860e-05 
5.8374655e-05 3.5616569e-05 -9.1258560e-05 
5.7806305e-05 1.5045120e-04 7.1849623e-05 
-2.4857899e-04 -4.0170763e-04 2.7336460e-04 
-6.4129295e-04 -1.2501196e-03 1.8098041e-04 
-6.1935571e-04 -1.4373849e-03 -3.8852362e-05 
-1.8175441e-04 -2.8235154e-04 -3.0476617e-04 
2.6478998e-05 4.8337239e-05 -1.7777653e-04 
3.1677129e-05 6.4090069e-05 4.0550138e-05 
-2.7267893e-06 -1.1548716e-05 7.5554191e-05 
0.0000000e+00 1.0481764e-04 0.0000000e+00 
0.0000000e+00 1.3267594e-04 0.0000000e+00 
0.0000000e+00 -7.7309355e-04 0.0000000e+00 
0.0000000e+00 -2.2514886e-03 0.0000000e+00 
0.0000000e+00 -2.1100310e-03 0.0000000e+00 
0.0000000e+00 -5.1084731e-04 0.0000000e+00 
0.0000000e+00 -1.0471425e-07 0.0000000e+00 
0.0000000e+00 -8.7990338e-05 0.0000000e+00 
0.0000000e+00 -8.3536179e-05 0.0000000e+00 
0.0000000e+00 -8.1840953e-05 0.0000000e+00 
0.0000000e+00 6.9642789e-05 0.0000000e+00 
0.0000000e+00 1.3560601e-04 0.0000000e+00 
0.0000000e+00 -8.4601564e-04 0.0000000e+00 
0.0000000e+00 -2.2731437e-03 0.0000000e+00 
0.0000000e+00 -2.1567608e-03 0.0000000e+00 
0.0000000e+00 -5.2899163e-04 0.0000000e+00 
0.0000000e+00 6.8399146e-05 0.0000000e+00 
0.0000000e+00 7.8900288e-05 0.0000000e+00 
0.0000000e+00 -1.7287286e-05 0.0000000e+00 
1.0165815e-05 1.9302368e-05 -1.5698661e-05 
2.9675579e-05 3.6514015e-05 2.9541904e-06 
5.1455438e-05 -2.5055571e-05 5.4343222e-06 
5.3413063e-05 -1.0323900e-04 -2.1301510e-05 
4.7391211e-05 -8.3400955e-05 -8.2061579e-06 
3.3514672e-05 -4.0896502e-05 -3.4248028e-06 
7.6989054e-06 -6.4243563e-06 -9.4323359e-06 
-6.6166622e-06 -4.0763143e-06 3.4772229e-06 
-1.7053493e-05 -1.7634095e-05 1.3505831e-05 
-7.3807364e-06 -2.3079801e-05 -1.2124102e-05 
3.5584594e-06 1.5287933e-05 -1.5236938e-05 
2.8130773e-05 4.5371577e-05 4.6550867e-06 
6.5326050e-05 -3.3868233e-05 4.7413673e-06 
6.1866114e-05 -7.8431047e-05 9.8275623e-06 
3.5142792e-05 -1.0988879e-04 2.1225820e-05 
2.5188358e-05 -7.2548624e-05 -1.4842899e-05 
1.0247636e-07 2.1645483e-05 -3.7711543e-05 
1.2873643e-06 -5.6746112e-06 1.4624479e-05 
2.0225962e-05 5.1916963e-05 2.4158113e-05 
0.0000000e+00 0.0000000e+00 0.0000000e+00 
0.0000000e+00 0.0000000e+00 0.0000000e+00 
0.0000000e+00 0.0000000e+00 0.0000000e+00 
0.0000000e+00 0.0000000e+00 0.0000000e+00 
0.0000000e+00 0.0000000e+00 0.0000000e+00 
0.0000000e+00 0.0000000e+00 0.0000000e+00 
0.0000000e+00 0.0000000e+00 0.0000000e+00 
0.0000000e+00 0.0000000e+00 0.0000000e+00 
0.0000000e+00 0.0000000e+00 0.0000000e+00 
0.0000000e+00 0.0000000e+00 0.0000000e+00 
0.0000000e+00 0.0000000e+00 0.0000000e+00 
0.0000000e+00 0.0000000e+00 0.0000000e+00 
0.0000000e+00 0.0000000e+00 0.0000000e+00 
0.0000000e+00 0.0000000e+00 0.0000000e+00 
0.0000000e+00 0.0000000e+00 0.0000000e+00 
0.0000000e+00 0.0000000e+00 0.0000000e+00 
0.0000000e+00 0.0000000e+00 0.0000000e+00 
0.0000000e+00 0.0000000e+00 0.0000000e+00 
0.0000000e+00 0.0000000e+00 0.0000000e+00 
0.0000000e+00 0.0000000e+00 0.0000000e+00 
0.0000000e+00 0.0000000e+00 0.0000000e+00 
0.0000000e+00 0.0000000e+00 0.0000000e+00 
0.0000000e+00 0.0000000e+00 0.0000000e+00 
0.0000000e+00 0.0000000e+00 0.0000000e+00 
0.0000000e+00 0.0000000e+00 0.0000000e+00 
0.0000000e+00 0.0000000e+00 0.0000000e+00 
0.0000000e+00 0.0000000e+00 0.0000000e+00 
0.0000000e+00 0.0000000e+00 0.0000000e+00 
0.0000000e+00 0.0000000e+00 0.0000000e+00 
0.0000000e+00 0.0000000e+00 0.0000000e+00 
0.0000000e+00 0.0000000e+00 0.0000000e+00 
0.0000000e+00 0.0000000e+00 0.0000000e+00 
0.0000000e+00 0.0000000e+00 0.0000000e+00 
0.0000000e+00 0.0000000e+00 0.0000000e+00 
0.0000000e+00 0.0000000e+00 0.0000000e+00 
0.0000000e+00 0.0000000e+00 0.0000000e+00 
0.0000000e+00 0.0000000e+00 0.0000000e+00 
0.0000000e+00 0.0000000e+00 0.0000000e+00 
0.0000000e+00 0.0000000e+00 0.0000000e+00 
0.0000000e+00 0.0000000e+00 0.0000000e+00 
0.0000000e+00 0.0000000e+00 0.0000000e+00 
0.0000000e+00 0.0000000e+00 0.0000000e+00 
3.0177301e-07 -1.5803727e-06 -9.7114014e-07 
3.9698070e-06 -7.8508401e-07 8.2308532e-07 
2.2960692e-06 4.0281515e-07 2.3532934e-06 
-8.0466214e-07 1.4462263e-06 -1.4470335e-06 
6.3896973e-06 -5.8799696e-06 -3.8348826e-06 
2.3688946e-05 -8.5502188e-06 -2.8215109e-06 
2.5802925e-05 -1.1713357e-05 -7.7168482e-07 