# vtk DataFile Version 4.0
vtk output
ASCII
DATASET UNSTRUCTURED_GRID
POINTS 622 float
0.0000000e+00 0.0000000e+00 0.0000000e+00 
0.0000000e+00 0.0000000e+00 4.0000000e+01 
5.0000000e+00 0.0000000e+00 0.0000000e+00 
5.0000000e+00 0.0000000e+00 4.0000000e+01 
5.0000000e+00 1.0000000e+00 0.0000000e+00 
5.0000000e+00 1.0000000e+00 4.0000000e+01 
0.0000000e+00 1.0000000e+00 0.0000000e+00 
0.0000000e+00 1.0000000e+00 4.0000000e+01 
5.0000000e+00 2.0000000e+00 0.0000000e+00 
5.0000000e+00 2.0000000e+00 4.0000000e+01 
3.0000000e+00 2.0000000e+00 0.0000000e+00 
3.0000000e+00 2.0000000e+00 4.0000000e+01 
0.0000000e+00 2.0000000e+00 0.0000000e+00 
0.0000000e+00 2.0000000e+00 4.0000000e+01 
1.5000000e+00 3.0000000e+00 0.0000000e+00 
1.5000000e+00 3.0000000e+00 4.0000000e+01 
7.5000000e-01 3.0000000e+00 0.0000000e+00 
7.5000000e-01 3.0000000e+00 4.0000000e+01 
0.0000000e+00 3.0000000e+00 0.0000000e+00 
0.0000000e+00 3.0000000e+00 4.0000000e+01 
7.5000000e-01 3.0000000e+00 5.0000000e-01 
7.5000000e-01 3.0000000e+00 1.0000000e+00 
7.5000000e-01 3.0000000e+00 1.5000000e+00 
7.5000000e-01 3.0000000e+00 2.0000000e+00 
7.5000000e-01 3.0000000e+00 2.5000000e+00 
7.5000000e-01 3.0000000e+00 3.0000000e+00 
7.5000000e-01 3.0000000e+00 3.5000000e+00 
7.5000000e-01 3.0000000e+00 4.0000000e+00 
7.5000000e-01 3.0000000e+00 4.5000000e+00 
7.5000000e-01 3.0000000e+00 5.0000000e+00 
7.5000000e-01 3.0000000e+00 5.5000000e+00 
7.5000000e-01 3.0000000e+00 6.0000000e+00 
7.5000000e-01 3.0000000e+00 6.5000000e+00 
7.5000000e-01 3.0000000e+00 7.0000000e+00 
7.5000000e-01 3.0000000e+00 7.5000000e+00 
7.5000000e-01 3.0000000e+00 8.0000000e+00 
7.5000000e-01 3.0000000e+00 8.5000000e+00 
7.5000000e-01 3.0000000e+00 9.0000000e+00 
7.5000000e-01 3.0000000e+00 9.5000000e+00 
7.5000000e-01 3.0000000e+00 1.0000000e+01 
7.5000000e-01 3.0000000e+00 1.0500000e+01 
7.5000000e-01 3.0000000e+00 1.1000000e+01 
7.5000000e-01 3.0000000e+00 1.1500000e+01 
7.5000000e-01 3.0000000e+00 1.2000000e+01 
7.5000000e-01 3.0000000e+00 1.2500000e+01 
7.5000000e-01 3.0000000e+00 1.3000000e+01 
7.5000000e-01 3.0000000e+00 1.3500000e+01 
7.5000000e-01 3.0000000e+00 1.4000000e+01 
7.5000000e-01 3.0000000e+00 1.4500000e+01 
7.5000000e-01 3.0000000e+00 1.5000000e+01 
7.5000000e-01 3.0000000e+00 1.5500000e+01 
7.5000000e-01 3.0000000e+00 1.6000000e+01 
7.5000000e-01 3.0000000e+00 1.6500000e+01 
7.5000000e-01 3.0000000e+00 1.7000000e+01 
7.5000000e-01 3.0000000e+00 1.7500000e+01 
7.5000000e-01 3.0000000e+00 1.8000000e+01 
7.5000000e-01 3.0000000e+00 1.8500000e+01 
7.5000000e-01 3.0000000e+00 1.9000000e+01 
7.5000000e-01 3.0000000e+00 1.9500000e+01 
7.5000000e-01 3.0000000e+00 2.0000000e+01 
7.5000000e-01 3.0000000e+00 2.0500000e+01 
7.5000000e-01 3.0000000e+00 2.1000000e+01 
7.5000000e-01 3.0000000e+00 2.1500000e+01 
7.5000000e-01 3.0000000e+00 2.2000000e+01 
7.5000000e-01 3.0000000e+00 2.2500000e+01 
7.5000000e-01 3.0000000e+00 2.3000000e+01 
7.5000000e-01 3.0000000e+00 2.3500000e+01 
7.5000000e-01 3.0000000e+00 2.4000000e+01 
7.5000000e-01 3.0000000e+00 2.4500000e+01 
7.5000000e-01 3.0000000e+00 2.5000000e+01 
7.5000000e-01 3.0000000e+00 2.5500000e+01 
7.5000000e-01 3.0000000e+00 2.6000000e+01 
7.5000000e-01 3.0000000e+00 2.6500000e+01 
7.5000000e-01 3.0000000e+00 2.7000000e+01 
7.5000000e-01 3.0000000e+00 2.7500000e+01 
7.5000000e-01 3.0000000e+00 2.8000000e+01 
7.5000000e-01 3.0000000e+00 2.8500000e+01 
7.5000000e-01 3.0000000e+00 2.9000000e+01 
7.5000000e-01 3.0000000e+00 2.9500000e+01 
7.5000000e-01 3.0000000e+00 3.0000000e+01 
7.5000000e-01 3.0000000e+00 3.0500000e+01 
7.5000000e-01 3.0000000e+00 3.1000000e+01 
7.5000000e-01 3.0000000e+00 3.1500000e+01 
7.5000000e-01 3.0000000e+00 3.2000000e+01 
7.5000000e-01 3.0000000e+00 3.2500000e+01 
7.5000000e-01 3.0000000e+00 3.3000000e+01 
7.5000000e-01 3.0000000e+00 3.3500000e+01 
7.5000000e-01 3.0000000e+00 3.4000000e+01 
7.5000000e-01 3.0000000e+00 3.4500000e+01 
7.5000000e-01 3.0000000e+00 3.5000000e+01 
7.5000000e-01 3.0000000e+00 3.5500000e+01 
7.5000000e-01 3.0000000e+00 3.6000000e+01 
7.5000000e-01 3.0000000e+00 3.6500000e+01 
7.5000000e-01 3.0000000e+00 3.7000000e+01 
7.5000000e-01 3.0000000e+00 3.7500000e+01 
7.5000000e-01 3.0000000e+00 3.8000000e+01 
7.5000000e-01 3.0000000e+00 3.8500000e+01 
7.5000000e-01 3.0000000e+00 3.9000000e+01 
7.5000000e-01 3.0000000e+00 3.9500000e+01 
7.5000000e-01 3.0250001e+00 0.0000000e+00 
7.5000000e-01 3.0250001e+00 5.0000000e-01 
7.5000000e-01 3.0250001e+00 1.0000000e+00 
7.5000000e-01 3.0250001e+00 1.5000000e+00 
7.5000000e-01 3.0250001e+00 2.0000000e+00 
7.5000000e-01 3.0250001e+00 2.5000000e+00 
7.5000000e-01 3.0250001e+00 3.0000000e+00 
7.5000000e-01 3.0250001e+00 3.5000000e+00 
7.5000000e-01 3.0250001e+00 4.0000000e+00 
7.5000000e-01 3.0250001e+00 4.5000000e+00 
7.5000000e-01 3.0250001e+00 5.0000000e+00 
7.5000000e-01 3.0250001e+00 5.5000000e+00 
7.5000000e-01 3.0250001e+00 6.0000000e+00 
7.5000000e-01 3.0250001e+00 6.5000000e+00 
7.5000000e-01 3.0250001e+00 7.0000000e+00 
7.5000000e-01 3.0250001e+00 7.5000000e+00 
7.5000000e-01 3.0250001e+00 8.0000000e+00 
7.5000000e-01 3.0250001e+00 8.5000000e+00 
7.5000000e-01 3.0250001e+00 9.0000000e+00 
7.5000000e-01 3.0250001e+00 9.5000000e+00 
7.5000000e-01 3.0250001e+00 1.0000000e+01 
7.5000000e-01 3.0250001e+00 1.0500000e+01 
7.5000000e-01 3.0250001e+00 1.1000000e+01 
7.5000000e-01 3.0250001e+00 1.1500000e+01 
7.5000000e-01 3.0250001e+00 1.2000000e+01 
7.5000000e-01 3.0250001e+00 1.2500000e+01 
7.5000000e-01 3.0250001e+00 1.3000000e+01 
7.5000000e-01 3.0250001e+00 1.3500000e+01 
7.5000000e-01 3.0250001e+00 1.4000000e+01 
7.5000000e-01 3.0250001e+00 1.4500000e+01 
7.5000000e-01 3.0250001e+00 1.5000000e+01 
7.5000000e-01 3.0250001e+00 1.5500000e+01 
7.5000000e-01 3.0250001e+00 1.6000000e+01 
7.5000000e-01 3.0250001e+00 1.6500000e+01 
7.5000000e-01 3.0250001e+00 1.7000000e+01 
7.5000000e-01 3.0250001e+00 1.7500000e+01 
7.5000000e-01 3.0250001e+00 1.8000000e+01 
7.5000000e-01 3.0250001e+00 1.8500000e+01 
7.5000000e-01 3.0250001e+00 1.9000000e+01 
7.5000000e-01 3.0250001e+00 1.9500000e+01 
7.5000000e-01 3.0250001e+00 2.0000000e+01 
7.5000000e-01 3.0250001e+00 2.0500000e+01 
7.5000000e-01 3.0250001e+00 2.1000000e+01 
7.5000000e-01 3.0250001e+00 2.1500000e+01 
7.5000000e-01 3.0250001e+00 2.2000000e+01 
7.5000000e-01 3.0250001e+00 2.2500000e+01 
7.5000000e-01 3.0250001e+00 2.3000000e+01 
7.5000000e-01 3.0250001e+00 2.3500000e+01 
7.5000000e-01 3.0250001e+00 2.4000000e+01 
7.5000000e-01 3.0250001e+00 2.4500000e+01 
7.5000000e-01 3.0250001e+00 2.5000000e+01 
7.5000000e-01 3.0250001e+00 2.5500000e+01 
7.5000000e-01 3.0250001e+00 2.6000000e+01 
7.5000000e-01 3.0250001e+00 2.6500000e+01 
7.5000000e-01 3.0250001e+00 2.7000000e+01 
7.5000000e-01 3.0250001e+00 2.7500000e+01 
7.5000000e-01 3.0250001e+00 2.8000000e+01 
7.5000000e-01 3.0250001e+00 2.8500000e+01 
7.5000000e-01 3.0250001e+00 2.9000000e+01 
7.5000000e-01 3.0250001e+00 2.9500000e+01 
7.5000000e-01 3.0250001e+00 3.0000000e+01 
7.5000000e-01 3.0250001e+00 3.0500000e+01 
7.5000000e-01 3.0250001e+00 3.1000000e+01 
7.5000000e-01 3.0250001e+00 3.1500000e+01 
7.5000000e-01 3.0250001e+00 3.2000000e+01 
7.5000000e-01 3.0250001e+00 3.2500000e+01 
7.5000000e-01 3.0250001e+00 3.3000000e+01 
7.5000000e-01 3.0250001e+00 3.3500000e+01 
7.5000000e-01 3.0250001e+00 3.4000000e+01 
7.5000000e-01 3.0250001e+00 3.4500000e+01 
7.5000000e-01 3.0250001e+00 3.5000000e+01 
7.5000000e-01 3.0250001e+00 3.5500000e+01 
7.5000000e-01 3.0250001e+00 3.6000000e+01 
7.5000000e-01 3.0250001e+00 3.6500000e+01 
7.5000000e-01 3.0250001e+00 3.7000000e+01 
7.5000000e-01 3.0250001e+00 3.7500000e+01 
7.5000000e-01 3.0250001e+00 3.8000000e+01 
7.5000000e-01 3.0250001e+00 3.8500000e+01 
7.5000000e-01 3.0250001e+00 3.9000000e+01 
7.5000000e-01 3.0250001e+00 3.9500000e+01 
7.5000000e-01 3.0250001e+00 4.0000000e+01 
7.5000000e-01 3.0250001e+00 3.5750000e+01 
3.0000000e+00 2.0000000e+00 3.6000000e+01 
8.0487806e-01 3.0000000e+00 3.6000000e+01 
0.0000000e+00 0.0000000e+00 2.0000000e+00 
0.0000000e+00 0.0000000e+00 4.0000000e+00 
0.0000000e+00 0.0000000e+00 6.0000000e+00 
0.0000000e+00 0.0000000e+00 8.0000000e+00 
0.0000000e+00 0.0000000e+00 1.0000000e+01 
0.0000000e+00 0.0000000e+00 1.2000000e+01 
0.0000000e+00 0.0000000e+00 1.4000000e+01 
0.0000000e+00 0.0000000e+00 1.6000000e+01 
0.0000000e+00 0.0000000e+00 1.8000000e+01 
0.0000000e+00 0.0000000e+00 2.0000000e+01 
0.0000000e+00 0.0000000e+00 2.2000000e+01 
0.0000000e+00 0.0000000e+00 2.4000000e+01 
0.0000000e+00 0.0000000e+00 2.6000000e+01 
0.0000000e+00 0.0000000e+00 2.8000000e+01 
0.0000000e+00 0.0000000e+00 3.0000000e+01 
0.0000000e+00 0.0000000e+00 3.2000000e+01 
0.0000000e+00 0.0000000e+00 3.4000000e+01 
0.0000000e+00 0.0000000e+00 3.6000000e+01 
0.0000000e+00 0.0000000e+00 3.8000000e+01 
5.0000000e+00 0.0000000e+00 2.0000000e+00 
5.0000000e+00 0.0000000e+00 4.0000000e+00 
5.0000000e+00 0.0000000e+00 6.0000000e+00 
5.0000000e+00 0.0000000e+00 8.0000000e+00 
5.0000000e+00 0.0000000e+00 1.0000000e+01 
5.0000000e+00 0.0000000e+00 1.2000000e+01 
5.0000000e+00 0.0000000e+00 1.4000000e+01 
5.0000000e+00 0.0000000e+00 1.6000000e+01 
5.0000000e+00 0.0000000e+00 1.8000000e+01 
5.0000000e+00 0.0000000e+00 2.0000000e+01 
5.0000000e+00 0.0000000e+00 2.2000000e+01 
5.0000000e+00 0.0000000e+00 2.4000000e+01 
5.0000000e+00 0.0000000e+00 2.6000000e+01 
5.0000000e+00 0.0000000e+00 2.8000000e+01 
5.0000000e+00 0.0000000e+00 3.0000000e+01 
5.0000000e+00 0.0000000e+00 3.2000000e+01 
5.0000000e+00 0.0000000e+00 3.4000000e+01 
5.0000000e+00 0.0000000e+00 3.6000000e+01 
5.0000000e+00 0.0000000e+00 3.8000000e+01 
1.6666666e+00 0.0000000e+00 0.0000000e+00 
3.3333333e+00 0.0000000e+00 0.0000000e+00 
1.6666666e+00 0.0000000e+00 4.0000000e+01 
3.3333333e+00 0.0000000e+00 4.0000000e+01 
5.0000000e+00 1.0000000e+00 2.0000000e+00 
5.0000000e+00 1.0000000e+00 4.0000000e+00 
5.0000000e+00 1.0000000e+00 6.0000000e+00 
5.0000000e+00 1.0000000e+00 8.0000000e+00 
5.0000000e+00 1.0000000e+00 1.0000000e+01 
[...]
POINT_DATA 622
FIELD FieldData 3
DISPLACEMENT 3 622  float
0.0000000e+00 0.0000000e+00 0.0000000e+00 
0.0000000e+00 0.0000000e+00 0.0000000e+00 
0.0000000e+00 0.0000000e+00 0.0000000e+00 
0.0000000e+00 0.0000000e+00 0.0000000e+00 
6.3302723e-06 -4.9637997e-06 8.2178838e-07 
4.0198403e-05 -3.5228131e-05 -2.5265517e-05 
0.0000000e+00 -1.5936061e-05 0.0000000e+00 
0.0000000e+00 -1.3948685e-04 0.0000000e+00 
7.8761059e-06 -6.6606895e-06 -4.0901132e-06 
4.9569298e-05 -7.6135024e-05 -1.7690769e-05 
2.0374614e-06 -1.3247422e-05 -1.5120707e-05 
7.3039837e-06 -1.7909556e-06 2.3340336e-04 
0.0000000e+00 -2.7911376e-05 0.0000000e+00 
0.0000000e+00 -9.3279692e-04 0.0000000e+00 
-1.4222069e-05 -3.3012439e-05 -6.1616913e-05 
-2.3467193e-04 -1.1243682e-03 3.2036862e-04 
-2.1106827e-05 -3.8366525e-07 -5.0448616e-05 
7.4949799e-05 -5.1820455e-03 2.7458463e-04 
0.0000000e+00 -4.2368429e-05 0.0000000e+00 
0.0000000e+00 -2.3810561e-03 0.0000000e+00 
-1.3276497e-05 4.8294169e-06 -4.5916553e-05 
-7.9450620e-06 1.7023691e-05 -3.8646158e-05 
-4.2232468e-06 3.0441692e-05 -2.8841159e-05 
2.4361527e-06 4.1010517e-05 -1.3751408e-05 
6.7943920e-06 4.5599358e-05 2.4330850e-06 
1.2294058e-05 4.1825133e-05 1.6852851e-05 
1.0415059e-05 3.0094696e-05 2.7080630e-05 
8.7694361e-06 1.2195133e-05 3.1572374e-05 
7.7253308e-06 -9.6829590e-06 3.1377032e-05 
1.0196942e-05 -3.3054075e-05 3.0096651e-05 
1.4117447e-05 -5.5520446e-05 3.3327149e-05 
1.3344636e-05 -7.4434502e-05 3.7837966e-05 
3.1986601e-06 -8.7489316e-05 3.8432841e-05 
-8.1446306e-06 -9.3449591e-05 3.1855252e-05 
-1.2943165e-05 -9.1468806e-05 2.3014369e-05 
-1.5250202e-05 -8.2397775e-05 7.7302020e-06 
-1.8253115e-05 -6.6298744e-05 -1.1556353e-05 
-2.0545805e-05 -4.6773501e-05 -2.3639892e-05 
-2.0585103e-05 -2.6134090e-05 -2.7370885e-05 
-1.9719340e-05 -5.7670363e-06 -2.4236280e-05 
-1.3744950e-05 1.3061552e-05 -1.8407549e-05 
-9.0584526e-06 2.9951363e-05 -1.3978257e-05 
-2.8914872e-06 4.4385397e-05 -1.8975219e-05 
7.6215438e-06 5.6648449e-05 -2.4041416e-05 
1.8300643e-05 6.6860674e-05 -2.1956150e-05 
2.6588315e-05 7.5941287e-05 -1.4704265e-05 
3.3041430e-05 8.5082182e-05 -8.3000305e-06 
3.7882699e-05 9.5134797e-05 5.7558810e-07 
4.1897907e-05 1.0575718e-04 6.5889053e-06 
4.2843425e-05 1.1163633e-04 1.5727474e-05 
3.5612051e-05 1.0206007e-04 3.4046599e-05 
2.0393471e-05 4.9103095e-05 5.3550379e-05 
-2.3984843e-05 -8.7934735e-05 8.9782094e-05 
-3.9919058e-05 -3.5088282e-04 1.2167513e-04 
-6.7356144e-05 -8.0406026e-04 1.6547769e-04 
-1.2666608e-04 -1.4931854e-03 1.0657396e-04 
-2.8134655e-04 -2.4396712e-03 1.8335578e-04 
-2.9276538e-04 -3.4637188e-03 1.6114971e-04 
-1.8698885e-04 -4.2540827e-03 9.7506483e-05 
-1.5838891e-04 -4.2452202e-03 1.0931605e-04 
-2.8792245e-04 -4.0194471e-03 4.1016036e-05 
-3.5173167e-04 -3.9550397e-03 2.4712903e-05 
-2.3865417e-04 -4.1670376e-03 -1.0429567e-05 
-8.0957412e-05 -4.1601821e-03 -5.4379270e-05 
-1.0261312e-04 -3.4501213e-03 -1.5172284e-04 
-1.9125729e-04 -2.4099008e-03 -1.8054739e-04 
-1.8078882e-04 -1.4985206e-03 -1.7914055e-04 
-5.3803011e-05 -8.0469629e-04 -1.2163447e-04 
-1.6089967e-05 -3.6666918e-04 -1.5120873e-04 
6.1485571e-07 -1.1449744e-04 -1.1325548e-04 
3.2007083e-06 1.8727998e-05 -8.5879197e-05 
1.4662220e-05 7.7164383e-05 -5.5436867e-05 
1.5018572e-05 8.1099723e-05 -3.1659412e-05 
9.4285342e-06 5.1048868e-05 -1.1823062e-05 
4.2695788e-07 6.3791736e-06 -1.7531527e-06 
-8.3135365e-06 -2.9018071e-05 -6.5228155e-06 
-1.2907428e-05 -4.7440575e-05 1.5182260e-06 
-2.0070620e-05 -5.4359512e-05 1.4920641e-06 
-2.3704681e-05 -4.2756212e-05 4.4661642e-06 
-4.3017979e-05 -1.0186536e-05 1.4381388e-05 
-3.2046097e-05 4.1441206e-05 3.5061155e-06 
-6.0017887e-06 7.7007513e-05 -2.1776226e-05 
1.8128878e-05 6.8393711e-05 -5.8270056e-05 
6.3685729e-05 2.0768557e-05 -9.3902985e-05 
3.9772767e-05 -4.6681511e-05 -6.6922090e-05 
2.2586315e-05 -1.0248672e-04 4.2505253e-06 
-3.2392032e-05 -1.3469519e-04 7.6160497e-05 
-7.5216441e-05 -1.1501760e-04 1.7517472e-04 
4.0114352e-05 -1.9478881e-05 1.5232182e-04 
5.3492819e-05 1.3475557e-04 6.5100183e-05 
1.1855083e-04 3.3043840e-04 2.3418590e-05 
9.0618967e-05 4.6459248e-04 -1.4285464e-06 
2.3791372e-05 4.4024951e-04 -9.3495764e-06 
6.7811256e-05 1.7186577e-04 -1.1965456e-04 
2.2284575e-04 -4.3436015e-04 -2.7765267e-04 
-3.6637695e-05 -1.3968120e-03 -5.5515888e-05 
-1.7559112e-04 -2.6206055e-03 6.2822146e-05 
-2.2053206e-04 -3.9016628e-03 1.1507111e-05 
-3.5045221e-05 -4.8580794e-03 -8.7854067e-05 
0.0000000e+00 -1.3981693e-07 0.0000000e+00 
0.0000000e+00 4.9289965e-06 0.0000000e+00 
0.0000000e+00 1.6931133e-05 0.0000000e+00 
0.0000000e+00 3.0395027e-05 0.0000000e+00 
0.0000000e+00 4.0980995e-05 0.0000000e+00 
0.0000000e+00 4.5463414e-05 0.0000000e+00 
0.0000000e+00 4.1769854e-05 0.0000000e+00 
0.0000000e+00 3.0091429e-05 0.0000000e+00 
0.0000000e+00 1.2184454e-05 0.0000000e+00 
0.0000000e+00 -9.6825970e-06 0.0000000e+00 
0.0000000e+00 -3.3075830e-05 0.0000000e+00 
0.0000000e+00 -5.5515848e-05 0.0000000e+00 
0.0000000e+00 -7.4402436e-05 0.0000000e+00 
0.0000000e+00 -8.7487628e-05 0.0000000e+00 
0.0000000e+00 -9.3396797e-05 0.0000000e+00 
0.0000000e+00 -9.1514732e-05 0.0000000e+00 
0.0000000e+00 -8.2218670e-05 0.0000000e+00 
0.0000000e+00 -6.6362794e-05 0.0000000e+00 
0.0000000e+00 -4.6845988e-05 0.0000000e+00 
0.0000000e+00 -2.6151463e-05 0.0000000e+00 
0.0000000e+00 -5.8123505e-06 0.0000000e+00 
0.0000000e+00 1.3065109e-05 0.0000000e+00 
0.0000000e+00 2.9927585e-05 0.0000000e+00 
0.0000000e+00 4.4406086e-05 0.0000000e+00 
0.0000000e+00 5.6618304e-05 0.0000000e+00 
0.0000000e+00 6.6862129e-05 0.0000000e+00 
0.0000000e+00 7.5981145e-05 0.0000000e+00 
0.0000000e+00 8.5145140e-05 0.0000000e+00 
0.0000000e+00 9.5352108e-05 0.0000000e+00 
0.0000000e+00 1.0605733e-04 0.0000000e+00 
0.0000000e+00 1.1260529e-04 0.0000000e+00 
0.0000000e+00 1.0276525e-04 0.0000000e+00 
0.0000000e+00 4.9267524e-05 0.0000000e+00 
0.0000000e+00 -8.6735708e-05 0.0000000e+00 
0.0000000e+00 -3.5152151e-04 0.0000000e+00 
0.0000000e+00 -8.0560124e-04 0.0000000e+00 
0.0000000e+00 -1.5028397e-03 0.0000000e+00 
0.0000000e+00 -2.4476170e-03 0.0000000e+00 
0.0000000e+00 -3.4969214e-03 0.0000000e+00 
0.0000000e+00 -4.2789876e-03 0.0000000e+00 
0.0000000e+00 -4.2767790e-03 0.0000000e+00 
0.0000000e+00 -4.0336042e-03 0.0000000e+00 
0.0000000e+00 -3.9857072e-03 0.0000000e+00 
0.0000000e+00 -4.1867774e-03 0.0000000e+00 
0.0000000e+00 -4.1943151e-03 0.0000000e+00 
0.0000000e+00 -3.4678951e-03 0.0000000e+00 
0.0000000e+00 -2.4277789e-03 0.0000000e+00 
0.0000000e+00 -1.5007985e-03 0.0000000e+00 
0.0000000e+00 -8.0939697e-04 0.0000000e+00 
0.0000000e+00 -3.6663178e-04 0.0000000e+00 
0.0000000e+00 -1.1316823e-04 0.0000000e+00 
0.0000000e+00 2.0187994e-05 0.0000000e+00 
0.0000000e+00 7.7543460e-05 0.0000000e+00 
0.0000000e+00 8.1096878e-05 0.0000000e+00 
0.0000000e+00 5.0484250e-05 0.0000000e+00 
0.0000000e+00 7.0639217e-06 0.0000000e+00 
0.0000000e+00 -2.8157028e-05 0.0000000e+00 
0.0000000e+00 -4.7972062e-05 0.0000000e+00 
0.0000000e+00 -5.4336480e-05 0.0000000e+00 
0.0000000e+00 -4.2622476e-05 0.0000000e+00 
0.0000000e+00 -8.3528830e-06 0.0000000e+00 
0.0000000e+00 4.1403258e-05 0.0000000e+00 
0.0000000e+00 7.5394608e-05 0.0000000e+00 
0.0000000e+00 6.7532761e-05 0.0000000e+00 
0.0000000e+00 1.9749576e-05 0.0000000e+00 
0.0000000e+00 -4.5835644e-05 0.0000000e+00 
0.0000000e+00 -1.0283093e-04 0.0000000e+00 
0.0000000e+00 -1.3429920e-04 0.0000000e+00 
0.0000000e+00 -1.1342371e-04 0.0000000e+00 
0.0000000e+00 -1.9598479e-05 0.0000000e+00 
0.0000000e+00 1.3909361e-04 0.0000000e+00 
0.0000000e+00 3.3063770e-04 0.0000000e+00 
0.0000000e+00 4.6451620e-04 0.0000000e+00 
0.0000000e+00 4.4145840e-04 0.0000000e+00 
0.0000000e+00 1.6840316e-04 0.0000000e+00 
0.0000000e+00 -4.4074925e-04 0.0000000e+00 
0.0000000e+00 -1.4027993e-03 0.0000000e+00 
0.0000000e+00 -2.6299760e-03 0.0000000e+00 
0.0000000e+00 -3.9328369e-03 0.0000000e+00 
0.0000000e+00 -4.9148528e-03 0.0000000e+00 
0.0000000e+00 -5.1944032e-03 0.0000000e+00 
0.0000000e+00 4.1211559e-04 0.0000000e+00 
-4.0031304e-05 -1.9598017e-05 9.8600634e-05 
6.3205065e-05 4.1420152e-04 2.5072344e-05 
0.0000000e+00 0.0000000e+00 0.0000000e+00 
0.0000000e+00 0.0000000e+00 0.0000000e+00 
0.0000000e+00 0.0000000e+00 0.0000000e+00 
0.0000000e+00 0.0000000e+00 0.0000000e+00 
0.0000000e+00 0.0000000e+00 0.0000000e+00 
0.0000000e+00 0.0000000e+00 0.0000000e+00 
0.0000000e+00 0.0000000e+00 0.0000000e+00 
0.0000000e+00 0.0000000e+00 0.0000000e+00 
0.0000000e+00 0.0000000e+00 0.0000000e+00 
0.0000000e+00 0.0000000e+00 0.0000000e+00 
0.0000000e+00 0.0000000e+00 0.0000000e+00 
0.0000000e+00 0.0000000e+00 0.0000000e+00 
0.0000000e+00 0.0000000e+00 0.0000000e+00 
0.0000000e+00 0.0000000e+00 0.0000000e+00 
0.0000000e+00 0.0000000e+00 0.0000000e+00 
0.0000000e+00 0.0000000e+00 0.0000000e+00 
0.0000000e+00 0.0000000e+00 0.0000000e+00 
0.0000000e+00 0.0000000e+00 0.0000000e+00 
0.0000000e+00 0.0000000e+00 0.0000000e+00 
0.0000000e+00 0.0000000e+00 0.0000000e+00 
0.0000000e+00 0.0000000e+00 0.0000000e+00 
0.0000000e+00 0.0000000e+00 0.0000000e+00 
0.0000000e+00 0.0000000e+00 0.0000000e+00 
0.0000000e+00 0.0000000e+00 0.0000000e+00 
0.0000000e+00 0.0000000e+00 0.0000000e+00 
0.0000000e+00 0.0000000e+00 0.0000000e+00 
0.0000000e+00 0.0000000e+00 0.0000000e+00 
0.0000000e+00 0.0000000e+00 0.0000000e+00 
0.0000000e+00 0.0000000e+00 0.0000000e+00 
0.0000000e+00 0.0000000e+00 0.0000000e+00 
0.0000000e+00 0.0000000e+00 0.0000000e+00 
0.0000000e+00 0.0000000e+00 0.0000000e+00 
0.0000000e+00 0.0000000e+00 0.0000000e+00 
0.0000000e+00 0.0000000e+00 0.0000000e+00 
0.0000000e+00 0.0000000e+00 0.0000000e+00 
0.0000000e+00 0.0000000e+00 0.0000000e+00 
0.0000000e+00 0.0000000e+00 0.0000000e+00 
0.0000000e+00 0.0000000e+00 0.0000000e+00 
0.0000000e+00 0.0000000e+00 0.0000000e+00 
0.0000000e+00 0.0000000e+00 0.0000000e+00 
0.0000000e+00 0.0000000e+00 0.0000000e+00 
0.0000000e+00 0.0000000e+00 0.0000000e+00 
-9.4397814e-07 2.1520848e-06 5.2424474e-07 
-1.8898496e-06 2.8645150e-06 -1.8287374e-06 
2.2685801e-06 -4.7883384e-07 1.2643750e-06 
4.2965671e-06 -2.8214652e-06 3.9028751e-06 
-1.7699178e-06 -2.4671938e-06 6.7217475e-06 
-8.4252597e-06 5.0853117e-07 1.7769935e-06 
-4.1531730e-06 8.8308525e-07 -6.8019795e-06 
1.1114728e-05 -3.0918752e-06 -1.1569944e-05 
3.6300004e-05 -8.0378795e-06 -1.3060777e-05 
5.3539086e-05 -7.1343561e-06 -3.6956269e-06 
4.6437188e-05 -5.2882328e-06 8.5318725e-06 
2.2724194e-05 -3.0168769e-06 4.3753535e-06 
6.1071560e-06 -1.9788995e-06 2.2885533e-06 
-1.3283827e-06 2.4532821e-06 2.6066255e-06 
-1.6827455e-07 -3.5758210e-06 6.2042850e-06 
-2.5947951e-05 -6.4347223e-06 7.3870046e-06 
1.5436766e-05 3.9393515e-05 -1.5000790e-05 
-1.2581338e-05 -1.9809997e-05 3.0655763e-05 
-5.1340201e-05 -2.5264984e-05 4.0442956e-05 
0.0000000e+00 1.6011641e-05 0.0000000e+00 
0.0000000e+00 6.1233904e-06 0.0000000e+00 
0.0000000e+00 -2.0419715e-05 0.0000000e+00 
0.0000000e+00 -2.7903136e-05 0.0000000e+00 
0.0000000e+00 -7.5745083e-07 0.0000000e+00 
0.0000000e+00 1.6724371e-05 0.0000000e+00 
0.0000000e+00 2.9522665e-05 0.0000000e+00 
0.0000000e+00 -3.0714025e-06 0.0000000e+00 
0.0000000e+00 -2.3134907e-04 0.0000000e+00 
0.0000000e+00 -5.6398811e-04 0.0000000e+00 
0.0000000e+00 -5.0859962e-04 0.0000000e+00 
0.0000000e+00 -1.5326093e-04 0.0000000e+00 
0.0000000e+00 -4.6172963e-06 0.0000000e+00 
0.0000000e+00 1.7983977e-05 0.0000000e+00 
0.0000000e+00 -4.3539971e-05 0.0000000e+00 
0.0000000e+00 7.8831181e-05 0.0000000e+00 
0.0000000e+00 -1.3991418e-04 0.0000000e+00 
0.0000000e+00 2.8841305e-04 0.0000000e+00 
0.0000000e+00 8.9737914e-05 0.0000000e+00 
3.0376800e-06 -6.1436895e-06 -2.8014717e-06 
1.6350211e-06 -1.4853606e-05 -7.1512586e-06 
-3.8824401e-05 -4.1427356e-05 1.1257664e-04 
-1.8028328e-05 1.3398376e-06 6.2949082e-05 
1.1298522e-06 1.7407972e-06 -1.7841531e-06 
-2.1223643e-06 2.8978577e-06 -2.5117183e-07 
5.2661761e-07 6.0488188e-09 3.9653887e-06 
1.9847678e-06 -3.3127458e-06 6.0384959e-06 
-2.1980161e-06 -4.8598040e-06 5.7767570e-06 
-6.6355628e-06 8.1272003e-07 1.4765419e-07 
-2.0013283e-06 2.2454396e-06 -9.6842068e-06 
2.1960032e-05 -3.1733832e-06 -1.4187857e-05 
3.5220823e-05 -6.3485868e-06 -6.7804931e-06 
3.7614049e-05 -5.8234305e-06 -2.6311122e-06 
2.7739756e-05 -2.6790469e-06 7.9969732e-06 
1.4280888e-05 2.8725631e-07 -2.1966409e-06 
5.6477738e-06 -1.7529925e-06 1.8104477e-06 
5.7390835e-06 -1.1456996e-06 4.9528518e-07 
-1.4951092e-05 -1.5309271e-06 1.0292883e-05 
1.8445769e-05 -1.6131506e-05 -1.3868282e-05 
-2.4702411e-05 4.8732833e-05 1.2927630e-05 
-4.3986947e-05 -3.8610797e-05 3.0036497e-05 
-2.9372184e-05 -6.0311166e-05 3.3213946e-05 
-5.2439031e-08 -1.8916036e-05 -2.0269428e-05 
0.0000000e+00 3.1359483e-05 0.0000000e+00 
0.0000000e+00 1.2067752e-05 0.0000000e+00 
0.0000000e+00 -3.9053280e-05 0.0000000e+00 
0.0000000e+00 -5.1575054e-05 0.0000000e+00 
0.0000000e+00 5.3935565e-07 0.0000000e+00 
0.0000000e+00 3.0439332e-05 0.0000000e+00 
0.0000000e+00 5.4171818e-05 0.0000000e+00 
0.0000000e+00 6.6631792e-06 0.0000000e+00 
0.0000000e+00 -4.8402703e-04 0.0000000e+00 
0.0000000e+00 -1.2469055e-03 0.0000000e+00 
0.0000000e+00 -1.1331085e-03 0.0000000e+00 
0.0000000e+00 -2.8466526e-04 0.0000000e+00 
0.0000000e+00 4.3640143e-06 0.0000000e+00 
0.0000000e+00 8.4078938e-06 0.0000000e+00 
0.0000000e+00 -6.0130875e-05 0.0000000e+00 
0.0000000e+00 1.4331379e-04 0.0000000e+00 
0.0000000e+00 -2.9883336e-04 0.0000000e+00 
0.0000000e+00 4.9621222e-04 0.0000000e+00 
0.0000000e+00 3.6352951e-05 0.0000000e+00 
1.3597973e-04 -1.5784113e-04 8.0535465e-05 
-1.3033368e-06 3.9589657e-05 -2.0378104e-05 
9.9290874e-06 4.5603242e-06 4.4847347e-05 
1.3083867e-05 -6.0606188e-05 4.8731676e-05 
-2.2620017e-05 -6.0098737e-05 3.7911316e-06 
-2.4787243e-05 -6.4208443e-06 -2.9749659e-05 
5.3278818e-06 4.3660457e-05 -4.6959125e-05 
6.0140213e-05 4.4629032e-05 5.9120481e-07 
4.0536899e-05 6.6517649e-05 8.3549858e-05 
-2.9012782e-04 -4.5899148e-04 3.0523411e-04 
-7.2506536e-04 -1.3887094e-03 1.0228974e-04 
-6.2638585e-04 -1.4184680e-03 -1.4611684e-04 
-1.2432893e-04 -2.4214567e-04 -2.5488777e-04 
3.1156196e-05 1.8396084e-05 -5.9308255e-05 
-2.0477495e-05 1.1169805e-05 9.2632666e-07 
-2.8350639e-06 -1.0940201e-04 1.7352269e-05 
-5.8511519e-05 2.2462859e-04 -1.4526323e-04 
1.4141793e-04 -3.0877753e-04 2.2628748e-04 
-4.5227069e-05 1.4715281e-04 4.4469416e-05 
7.5068041e-05 4.0117992e-04 1.4102702e-04 
0.0000000e+00 4.4841752e-05 0.0000000e+00 
0.0000000e+00 1.7176224e-05 0.0000000e+00 
0.0000000e+00 -6.7142340e-05 0.0000000e+00 
0.0000000e+00 -7.2137504e-05 0.0000000e+00 
0.0000000e+00 3.3092201e-06 0.0000000e+00 
0.0000000e+00 4.2912852e-05 0.0000000e+00 
0.0000000e+00 7.5278258e-05 0.0000000e+00 
0.0000000e+00 5.0508574e-05 0.0000000e+00 
0.0000000e+00 -9.0079103e-04 0.0000000e+00 
0.0000000e+00 -2.4141993e-03 0.0000000e+00 
0.0000000e+00 -2.1601852e-03 0.0000000e+00 
0.0000000e+00 -4.8285321e-04 0.0000000e+00 
0.0000000e+00 4.2035612e-05 0.0000000e+00 
0.0000000e+00 5.5466667e-06 0.0000000e+00 
0.0000000e+00 -2.8821220e-05 0.0000000e+00 
0.0000000e+00 2.8726236e-05 0.0000000e+00 
0.0000000e+00 -2.4264745e-04 0.0000000e+00 
0.0000000e+00 4.0548170e-04 0.0000000e+00 
0.0000000e+00 -3.5886074e-04 0.0000000e+00 
-3.4792092e-06 1.1206355e-05 -8.2425213e-06 
-1.5168685e-07 2.2621327e-06 4.3875989e-06 
3.2823884e-06 -1.4938055e-05 1.1942225e-05 
-4.1546950e-06 -1.8427898e-05 5.0534218e-06 
-1.3483453e-05 -2.5166994e-06 3.3303884e-08 
-6.7665210e-06 1.0735744e-05 -7.5074008e-06 
1.0714422e-05 1.3687847e-05 -1.4927886e-06 
2.5792047e-05 3.0826333e-05 1.2260921e-05 
5.6669091e-05 -5.1325074e-05 2.7818573e-06 
5.3727366e-05 -1.0413082e-04 -9.2450482e-06 
3.9569375e-05 -9.8679993e-05 1.0445942e-06 
3.9526927e-05 -5.0804199e-05 -4.0105342e-06 
4.5580705e-06 1.6792815e-06 -1.0676309e-05 
-5.8703536e-06 1.3721902e-05 -6.2380900e-06 
-2.6945218e-05 -4.8351201e-05 5.9807239e-06 
3.2538628e-06 1.1633830e-04 -2.1710533e-05 
-3.0051484e-05 -1.0921704e-04 7.9210688e-05 
3.6682086e-05 2.0284319e-04 1.0242384e-04 
-1.2238014e-04 7.0066766e-05 9.3853618e-05 
0.0000000e+00 0.0000000e+00 0.0000000e+00 
0.0000000e+00 0.0000000e+00 0.0000000e+00 
0.0000000e+00 0.0000000e+00 0.0000000e+00 
0.0000000e+00 0.0000000e+00 0.0000000e+00 
0.0000000e+00 0.0000000e+00 0.0000000e+00 
0.0000000e+00 0.0000000e+00 0.0000000e+00 
0.0000000e+00 0.0000000e+00 0.0000000e+00 
0.0000000e+00 0.0000000e+00 0.0000000e+00 
0.0000000e+00 0.0000000e+00 0.0000000e+00 
0.0000000e+00 0.0000000e+00 0.0000000e+00 
0.0000000e+00 0.0000000e+00 0.0000000e+00 
0.0000000e+00 0.0000000e+00 0.0000000e+00 
0.0000000e+00 0.0000000e+00 0.0000000e+00 
0.0000000e+00 0.0000000e+00 0.0000000e+00 
0.0000000e+00 0.0000000e+00 0.0000000e+00 
0.0000000e+00 0.0000000e+00 0.0000000e+00 
0.0000000e+00 0.0000000e+00 0.0000000e+00 
0.0000000e+00 0.0000000e+00 0.0000000e+00 
0.0000000e+00 0.0000000e+00 0.0000000e+00 
0.0000000e+00 0.0000000e+00 0.0000000e+00 
0.0000000e+00 0.0000000e+00 0.0000000e+00 
0.0000000e+00 0.0000000e+00 0.0000000e+00 
0.0000000e+00 0.0000000e+00 0.0000000e+00 
0.0000000e+00 0.0000000e+00 0.0000000e+00 
0.0000000e+00 0.0000000e+00 0.0000000e+00 
0.0000000e+00 0.0000000e+00 0.0000000e+00 
0.0000000e+00 0.0000000e+00 0.0000000e+00 
0.0000000e+00 0.0000000e+00 0.0000000e+00 
0.0000000e+00 0.0000000e+00 0.0000000e+00 
0.0000000e+00 0.0000000e+00 0.0000000e+00 
0.0000000e+00 0.0000000e+00 0.0000000e+00 
0.0000000e+00 0.0000000e+00 0.0000000e+00 
0.0000000e+00 0.0000000e+00 0.0000000e+00 
0.0000000e+00 0.0000000e+00 0.0000000e+00 
0.0000000e+00 0.0000000e+00 0.0000000e+00 
0.0000000e+00 0.0000000e+00 0.0000000e+00 
0.0000000e+00 0.0000000e+00 0.0000000e+00 
0.0000000e+00 0.0000000e+00 0.0000000e+00 
0.0000000e+00 0.0000000e+00 0.0000000e+00 
0.0000000e+00 0.0000000e+00 0.0000000e+00 
0.0000000e+00 0.0000000e+00 0.0000000e+00 
0.0000000e+00 0.0000000e+00 0.0000000e+00 
6.8176251e-07 -3.2936330e-07 1.6159596e-06 
-3.5501416e-06 -8.6164711e-08 -1.4318242e-06 
1.0037855e-05 -7.2328012e-06 -7.9826023e-06 
2.0967307e-05 -8.4590611e-06 3.3998056e-06 
6.7006058e-06 -2.7699493e-06 1.2388679e-06 
5.0211054e-07 -1.6080662e-07 9.0203486e-07 
1.5251587e-06 1.4798833e-06 2.5089259e-06 
-9.0971189e-06 -3.3671432e-07 6.9308016e-06 
-7.8733619e-06 6.5603422e-06 5.3686349e-06 
8.9749956e-06 9.1665142e-06 -6.2703984e-06 
-2.3366791e-05 -2.4940400e-06 2.4293986e-05 
-1.6617296e-05 -8.8884890e-06 6.1136902e-06 
-1.1460770e-06 1.5061160e-06 1.0659839e-08 
1.6233757e-07 7.3211658e-07 -7.4986400e-07 
2.8425659e-06 -1.7744087e-06 1.5178939e-06 
1.8158628e-06 -9.5795428e-07 3.0350193e-06 
-3.4702064e-06 7.2538697e-08 2.3646137e-06 
1.2406832e-06 -2.5329837e-07 -3.1389850e-06 
2.7543632e-05 -1.0086657e-05 -4.5269790e-06 
2.5729780e-05 -8.6354376e-06 2.3051120e-06 
-2.0761288e-06 7.3673727e-06 -2.6367486e-06 
-3.3660093e-05 1.1734052e-04 3.0597843e-05 
2.8356865e-06 -4.3485666e-06 3.3281087e-06 
-2.8277764e-06 -5.5066744e-06 5.3469071e-06 
-3.8230301e-06 5.6363992e-06 -1.9208185e-06 
3.6612044e-05 1.0822324e-05 -1.4676093e-05 
8.6892527e-05 -2.2795019e-05 5.4635683e-07 
2.1660435e-05 -1.9546353e-06 1.0822721e-05 
-4.8844622e-06 -1.4351842e-05 -5.2073456e-06 
1.5482188e-05 1.6626100e-05 -3.6944926e-05 
2.6772570e-06 -2.2542928e-05 5.2228106e-06 
-7.3625301e-06 6.5420722e-06 3.9724991e-06 
1.4347472e-05 1.5761698e-05 -3.2368616e-06 
1.1703391e-04 -2.3940300e-04 -3.9920491e-05 
9.1070578e-05 -1.9820932e-04 4.2236054e-05 
2.5735749e-06 2.0555335e-06 -4.0178875e-07 
-2.0929274e-06 2.4790499e-05 1.1523017e-05 
6.8204508e-06 -7.8077574e-05 4.2825410e-05 
-3.8015620e-05 2.5222133e-04 6.9409994e-05 
-3.3616263e-06 4.9882792e-06 -3.2952939e-06 
-6.7730070e-05 1.1072612e-05 8.8980814e-05 
-1.7103805e-06 1.3265173e-05 -1.4436504e-06 
3.6713213e-06 -6.8374861e-06 4.4924327e-06 
-7.5893718e-06 1.0779127e-06 2.5196064e-06 
7.0622868e-06 8.0648306e-06 -1.4286916e-06 
5.4008920e-05 -1.9151918e-05 -9.3412536e-06 
4.1325675e-05 -2.0392568e-05 5.9221238e-06 
2.0877719e-07 2.0748341e-06 1.0078927e-06 