# vtk DataFile Version 4.0
vtk output
ASCII
DATASET UNSTRUCTURED_GRID
POINTS 622 float
0.0000000e+00 0.0000000e+00 0.0000000e+00 
0.0000000e+00 0.0000000e+00 4.0000000e+01 
5.0000000e+00 0.0000000e+00 0.0000000e+00 
5.0000000e+00 0.0000000e+00 4.0000000e+01 
5.0000000e+00 1.0000000e+00 0.0000000e+00 
5.0000000e+00 1.0000000e+00 4.0000000e+01 
0.0000000e+00 1.0000000e+00 0.0000000e+00 
0.0000000e+00 1.0000000e+00 4.0000000e+01 
5.0000000e+00 2.0000000e+00 0.0000000e+00 
5.0000000e+00 2.0000000e+00 4.0000000e+01 
3.0000000e+00 2.0000000e+00 0.0000000e+00 
3.0000000e+00 2.0000000e+00 4.0000000e+01 
0.0000000e+00 2.0000000e+00 0.0000000e+00 
0.0000000e+00 2.0000000e+00 4.0000000e+01 
1.5000000e+00 3.0000000e+00 0.0000000e+00 
1.5000000e+00 3.0000000e+00 4.0000000e+01 
7.5000000e-01 3.0000000e+00 0.0000000e+00 
7.5000000e-01 3.0000000e+00 4.0000000e+01 
0.0000000e+00 3.0000000e+00 0.0000000e+00 
0.0000000e+00 3.0000000e+00 4.0000000e+01 
7.5000000e-01 3.0000000e+00 5.0000000e-01 
7.5000000e-01 3.0000000e+00 1.0000000e+00 
7.5000000e-01 3.0000000e+00 1.5000000e+00 
7.5000000e-01 3.0000000e+00 2.0000000e+00 
7.5000000e-01 3.0000000e+00 2.5000000e+00 
7.5000000e-01 3.0000000e+00 3.0000000e+00 
7.5000000e-01 3.0000000e+00 3.5000000e+00 
7.5000000e-01 3.0000000e+00 4.0000000e+00 
7.5000000e-01 3.0000000e+00 4.5000000e+00 
7.5000000e-01 3.0000000e+00 5.0000000e+00 
7.5000000e-01 3.0000000e+00 5.5000000e+00 
7.5000000e-01 3.0000000e+00 6.0000000e+00 
7.5000000e-01 3.0000000e+00 6.5000000e+00 
7.5000000e-01 3.0000000e+00 7.0000000e+00 
7.5000000e-01 3.0000000e+00 7.5000000e+00 
7.5000000e-01 3.0000000e+00 8.0000000e+00 
7.5000000e-01 3.0000000e+00 8.5000000e+00 
7.5000000e-01 3.0000000e+00 9.0000000e+00 
7.5000000e-01 3.0000000e+00 9.5000000e+00 
7.5000000e-01 3.0000000e+00 1.0000000e+01 
7.5000000e-01 3.0000000e+00 1.0500000e+01 
7.5000000e-01 3.0000000e+00 1.1000000e+01 
7.5000000e-01 3.0000000e+00 1.1500000e+01 
7.5000000e-01 3.0000000e+00 1.2000000e+01 
7.5000000e-01 3.0000000e+00 1.2500000e+01 
7.5000000e-01 3.0000000e+00 1.3000000e+01 
7.5000000e-01 3.0000000e+00 1.3500000e+01 
7.5000000e-01 3.0000000e+00 1.4000000e+01 
7.5000000e-01 3.0000000e+00 1.4500000e+01 
7.5000000e-01 3.0000000e+00 1.5000000e+01 
7.5000000e-01 3.0000000e+00 1.5500000e+01 
7.5000000e-01 3.0000000e+00 1.6000000e+01 
7.5000000e-01 3.0000000e+00 1.6500000e+01 
7.5000000e-01 3.0000000e+00 1.7000000e+01 
7.5000000e-01 3.0000000e+00 1.7500000e+01 
7.5000000e-01 3.0000000e+00 1.8000000e+01 
7.5000000e-01 3.0000000e+00 1.8500000e+01 
7.5000000e-01 3.0000000e+00 1.9000000e+01 
7.5000000e-01 3.0000000e+00 1.9500000e+01 
7.5000000e-01 3.0000000e+00 2.0000000e+01 
7.5000000e-01 3.0000000e+00 2.0500000e+01 
7.5000000e-01 3.0000000e+00 2.1000000e+01 
7.5000000e-01 3.0000000e+00 2.1500000e+01 
7.5000000e-01 3.0000000e+00 2.2000000e+01 
7.5000000e-01 3.0000000e+00 2.2500000e+01 
7.5000000e-01 3.0000000e+00 2.3000000e+01 
7.5000000e-01 3.0000000e+00 2.3500000e+01 
7.5000000e-01 3.0000000e+00 2.4000000e+01 
7.5000000e-01 3.0000000e+00 2.4500000e+01 
7.5000000e-01 3.0000000e+00 2.5000000e+01 
7.5000000e-01 3.0000000e+00 2.5500000e+01 
7.5000000e-01 3.0000000e+00 2.6000000e+01 
7.5000000e-01 3.0000000e+00 2.6500000e+01 
7.5000000e-01 3.0000000e+00 2.7000000e+01 
7.5000000e-01 3.0000000e+00 2.7500000e+01 
7.5000000e-01 3.0000000e+00 2.8000000e+01 
7.5000000e-01 3.0000000e+00 2.8500000e+01 
7.5000000e-01 3.0000000e+00 2.9000000e+01 
7.5000000e-01 3.0000000e+00 2.9500000e+01 
7.5000000e-01 3.0000000e+00 3.0000000e+01 
7.5000000e-01 3.0000000e+00 3.0500000e+01 
7.5000000e-01 3.0000000e+00 3.1000000e+01 
7.5000000e-01 3.0000000e+00 3.1500000e+01 
7.5000000e-01 3.0000000e+00 3.2000000e+01 
7.5000000e-01 3.0000000e+00 3.2500000e+01 
7.5000000e-01 3.0000000e+00 3.3000000e+01 
7.5000000e-01 3.0000000e+00 3.3500000e+01 
7.5000000e-01 3.0000000e+00 3.4000000e+01 
7.5000000e-01 3.0000000e+00 3.4500000e+01 
7.5000000e-01 3.0000000e+00 3.5000000e+01 
7.5000000e-01 3.0000000e+00 3.5500000e+01 
7.5000000e-01 3.0000000e+00 3.6000000e+01 
7.5000000e-01 3.0000000e+00 3.6500000e+01 
7.5000000e-01 3.0000000e+00 3.7000000e+01 
7.5000000e-01 3.0000000e+00 3.7500000e+01 
7.5000000e-01 3.0000000e+00 3.8000000e+01 
7.5000000e-01 3.0000000e+00 3.8500000e+01 
7.5000000e-01 3.0000000e+00 3.9000000e+01 
7.5000000e-01 3.0000000e+00 3.9500000e+01 
7.5000000e-01 3.0250001e+00 0.0000000e+00 
7.5000000e-01 3.0250001e+00 5.0000000e-01 
7.5000000e-01 3.0250001e+00 1.0000000e+00 
7.5000000e-01 3.0250001e+00 1.5000000e+00 
7.5000000e-01 3.0250001e+00 2.0000000e+00 
7.5000000e-01 3.0250001e+00 2.5000000e+00 
7.5000000e-01 3.0250001e+00 3.0000000e+00 
7.5000000e-01 3.0250001e+00 3.5000000e+00 
7.5000000e-01 3.0250001e+00 4.0000000e+00 
7.5000000e-01 3.0250001e+00 4.5000000e+00 
7.5000000e-01 3.0250001e+00 5.0000000e+00 
7.5000000e-01 3.0250001e+00 5.5000000e+00 
7.5000000e-01 3.0250001e+00 6.0000000e+00 
7.5000000e-01 3.0250001e+00 6.5000000e+00 
7.5000000e-01 3.0250001e+00 7.0000000e+00 
7.5000000e-01 3.0250001e+00 7.5000000e+00 
7.5000000e-01 3.0250001e+00 8.0000000e+00 
7.5000000e-01 3.0250001e+00 8.5000000e+00 
7.5000000e-01 3.0250001e+00 9.0000000e+00 
7.5000000e-01 3.0250001e+00 9.5000000e+00 
7.5000000e-01 3.0250001e+00 1.0000000e+01 
7.5000000e-01 3.0250001e+00 1.0500000e+01 
7.5000000e-01 3.0250001e+00 1.1000000e+01 
7.5000000e-01 3.0250001e+00 1.1500000e+01 
7.5000000e-01 3.0250001e+00 1.2000000e+01 
7.5000000e-01 3.0250001e+00 1.2500000e+01 
7.5000000e-01 3.0250001e+00 1.3000000e+01 
7.5000000e-01 3.0250001e+00 1.3500000e+01 
7.5000000e-01 3.0250001e+00 1.4000000e+01 
7.5000000e-01 3.0250001e+00 1.4500000e+01 
7.5000000e-01 3.0250001e+00 1.5000000e+01 
7.5000000e-01 3.0250001e+00 1.5500000e+01 
7.5000000e-01 3.0250001e+00 1.6000000e+01 
7.5000000e-01 3.0250001e+00 1.6500000e+01 
7.5000000e-01 3.0250001e+00 1.7000000e+01 
7.5000000e-01 3.0250001e+00 1.7500000e+01 
7.5000000e-01 3.0250001e+00 1.8000000e+01 
7.5000000e-01 3.0250001e+00 1.8500000e+01 
7.5000000e-01 3.0250001e+00 1.9000000e+01 
7.5000000e-01 3.0250001e+00 1.9500000e+01 
7.5000000e-01 3.0250001e+00 2.0000000e+01 
7.5000000e-01 3.0250001e+00 2.0500000e+01 
7.5000000e-01 3.0250001e+00 2.1000000e+01 
7.5000000e-01 3.0250001e+00 2.1500000e+01 
7.5000000e-01 3.0250001e+00 2.2000000e+01 
7.5000000e-01 3.0250001e+00 2.2500000e+01 
7.5000000e-01 3.0250001e+00 2.3000000e+01 
7.5000000e-01 3.0250001e+00 2.3500000e+01 
7.5000000e-01 3.0250001e+00 2.4000000e+01 
7.5000000e-01 3.0250001e+00 2.4500000e+01 
7.5000000e-01 3.0250001e+00 2.5000000e+01 
7.5000000e-01 3.0250001e+00 2.5500000e+01 
7.5000000e-01 3.0250001e+00 2.6000000e+01 
7.5000000e-01 3.0250001e+00 2.6500000e+01 
7.5000000e-01 3.0250001e+00 2.7000000e+01 
7.5000000e-01 3.0250001e+00 2.7500000e+01 
7.5000000e-01 3.0250001e+00 2.8000000e+01 
7.5000000e-01 3.0250001e+00 2.8500000e+01 
7.5000000e-01 3.0250001e+00 2.9000000e+01 
7.5000000e-01 3.0250001e+00 2.9500000e+01 
7.5000000e-01 3.0250001e+00 3.0000000e+01 
7.5000000e-01 3.0250001e+00 3.0500000e+01 
7.5000000e-01 3.0250001e+00 3.1000000e+01 
7.5000000e-01 3.0250001e+00 3.1500000e+01 
7.5000000e-01 3.0250001e+00 3.2000000e+01 
7.5000000e-01 3.0250001e+00 3.2500000e+01 
7.5000000e-01 3.0250001e+00 3.3000000e+01 
7.5000000e-01 3.0250001e+00 3.3500000e+01 
7.5000000e-01 3.0250001e+00 3.4000000e+01 
7.5000000e-01 3.0250001e+00 3.4500000e+01 
7.5000000e-01 3.0250001e+00 3.5000000e+01 
7.5000000e-01 3.0250001e+00 3.5500000e+01 
7.5000000e-01 3.0250001e+00 3.6000000e+01 
7.5000000e-01 3.0250001e+00 3.6500000e+01 
7.5000000e-01 3.0250001e+00 3.7000000e+01 
7.5000000e-01 3.0250001e+00 3.7500000e+01 
7.5000000e-01 3.0250001e+00 3.8000000e+01 
7.5000000e-01 3.0250001e+00 3.8500000e+01 
7.5000000e-01 3.0250001e+00 3.9000000e+01 
7.5000000e-01 3.0250001e+00 3.9500000e+01 
7.5000000e-01 3.0250001e+00 4.0000000e+01 
7.5000000e-01 3.0250001e+00 3.5750000e+01 
3.0000000e+00 2.0000000e+00 3.6000000e+01 
8.0487806e-01 3.0000000e+00 3.6000000e+01 
0.0000000e+00 0.0000000e+00 2.0000000e+00 
0.0000000e+00 0.0000000e+00 4.0000000e+00 
0.0000000e+00 0.0000000e+00 6.0000000e+00 
0.0000000e+00 0.0000000e+00 8.0000000e+00 
0.0000000e+00 0.0000000e+00 1.0000000e+01 
0.0000000e+00 0.0000000e+00 1.2000000e+01 
0.0000000e+00 0.0000000e+00 1.4000000e+01 
0.0000000e+00 0.0000000e+00 1.6000000e+01 
0.0000000e+00 0.0000000e+00 1.8000000e+01 
0.0000000e+00 0.0000000e+00 2.0000000e+01 
0.0000000e+00 0.0000000e+00 2.2000000e+01 
0.0000000e+00 0.0000000e+00 2.4000000e+01 
0.0000000e+00 0.0000000e+00 2.6000000e+01 
0.0000000e+00 0.0000000e+00 2.8000000e+01 
0.0000000e+00 0.0000000e+00 3.0000000e+01 
0.0000000e+00 0.0000000e+00 3.2000000e+01 
0.0000000e+00 0.0000000e+00 3.4000000e+01 
0.0000000e+00 0.0000000e+00 3.6000000e+01 
0.0000000e+00 0.0000000e+00 3.8000000e+01 
5.0000000e+00 0.0000000e+00 2.0000000e+00 
5.0000000e+00 0.0000000e+00 4.0000000e+00 
5.0000000e+00 0.0000000e+00 6.0000000e+00 
5.0000000e+00 0.0000000e+00 8.0000000e+00 
5.0000000e+00 0.0000000e+00 1.0000000e+01 
5.0000000e+00 0.0000000e+00 1.2000000e+01 
5.0000000e+00 0.0000000e+00 1.4000000e+01 
5.0000000e+00 0.0000000e+00 1.6000000e+01 
5.0000000e+00 0.0000000e+00 1.8000000e+01 
5.0000000e+00 0.0000000e+00 2.0000000e+01 
5.0000000e+00 0.0000000e+00 2.2000000e+01 
5.0000000e+00 0.0000000e+00 2.4000000e+01 
5.0000000e+00 0.0000000e+00 2.6000000e+01 
5.0000000e+00 0.0000000e+00 2.8000000e+01 
5.0000000e+00 0.0000000e+00 3.0000000e+01 
5.0000000e+00 0.0000000e+00 3.2000000e+01 
5.0000000e+00 0.0000000e+00 3.4000000e+01 
5.0000000e+00 0.0000000e+00 3.6000000e+01 
5.0000000e+00 0.0000000e+00 3.8000000e+01 
1.6666666e+00 0.0000000e+00 0.0000000e+00 
3.3333333e+00 0.0000000e+00 0.0000000e+00 
1.6666666e+00 0.0000000e+00 4.0000000e+01 
3.3333333e+00 0.0000000e+00 4.0000000e+01 
5.0000000e+00 1.0000000e+00 2.0000000e+00 
5.0000000e+00 1.0000000e+00 4.0000000e+00 
5.0000000e+00 1.0000000e+00 6.0000000e+00 
5.0000000e+00 1.0000000e+00 8.0000000e+00 
5.0000000e+00 1.0000000e+00 1.0000000e+01 
[...]
POINT_DATA 622
FIELD FieldData 3
DISPLACEMENT 3 622  float
0.0000000e+00 0.0000000e+00 0.0000000e+00 
0.0000000e+00 0.0000000e+00 0.0000000e+00 
0.0000000e+00 0.0000000e+00 0.0000000e+00 
0.0000000e+00 0.0000000e+00 0.0000000e+00 
1.3769242e-05 -2.0255222e-05 -2.9753093e-05 
-1.5249410e-07 -6.8258856e-07 -2.4128736e-08 
0.0000000e+00 -7.2798422e-05 0.0000000e+00 
0.0000000e+00 -1.4270531e-06 0.0000000e+00 
1.9099241e-05 -2.7896769e-05 -5.1422208e-05 
-3.7805304e-07 -8.7048198e-07 9.2258989e-07 
4.5562419e-06 -1.5558466e-05 -2.4992243e-05 
-5.6731909e-07 -2.0068530e-06 3.4190023e-07 
0.0000000e+00 -8.0736623e-05 0.0000000e+00 
0.0000000e+00 -3.5998369e-06 0.0000000e+00 
4.7244273e-05 4.4135380e-05 1.1385285e-04 
-5.0866430e-07 -8.2528795e-06 -2.3136115e-06 
3.2463555e-05 7.2346164e-05 2.5693033e-04 
4.4754478e-07 -1.2599491e-05 -3.7075107e-08 
0.0000000e+00 1.9620743e-06 0.0000000e+00 
0.0000000e+00 -6.3125153e-06 0.0000000e+00 
-3.6133264e-05 -1.2022889e-05 2.0999713e-04 
-6.4184132e-05 -2.6176655e-04 1.4191637e-04 
-8.7829299e-05 -7.0010469e-04 2.2613654e-04 
-1.0652439e-04 -1.3644742e-03 2.4709417e-04 
-1.8749466e-04 -2.2443112e-03 1.3064084e-04 
-2.2084291e-04 -3.2422356e-03 1.3694417e-04 
-1.1854641e-04 -4.0381192e-03 9.9789220e-05 
-8.5287706e-05 -4.0698680e-03 1.1662199e-04 
-2.2976578e-04 -3.9039210e-03 5.1328265e-05 
-3.0313505e-04 -3.9044491e-03 4.0322026e-05 
-2.0736860e-04 -4.1739754e-03 9.4651205e-06 
-6.3690757e-05 -4.2069592e-03 -4.9606464e-05 
-9.8857796e-05 -3.5118433e-03 -1.5843110e-04 
-2.0115302e-04 -2.4802675e-03 -1.9509735e-04 
-1.9376597e-04 -1.5879656e-03 -1.8522478e-04 
-7.2788469e-05 -9.1847166e-04 -1.1383836e-04 
-4.6882989e-05 -5.0398370e-04 -1.5218549e-04 
-4.1435687e-05 -2.7158696e-04 -1.3714729e-04 
-3.1803567e-05 -1.4923011e-04 -1.3485219e-04 
-3.7382113e-06 -7.6725344e-05 -1.2273205e-04 
1.8460696e-05 -1.6239141e-05 -8.9300585e-05 
3.2029624e-05 4.3349111e-05 -5.0118539e-05 
2.1830299e-05 9.9393561e-05 -1.6078468e-05 
4.8899469e-06 1.4056599e-04 1.5831858e-05 
8.5628454e-07 1.5564758e-04 1.7549715e-05 
-3.4121203e-06 1.4770030e-04 1.3756353e-05 
-3.4673526e-06 1.2398808e-04 -7.7188116e-07 
2.5280924e-06 9.3608738e-05 -2.5833968e-05 
5.0469242e-07 6.5223903e-05 -4.0615239e-05 
5.8829310e-06 3.9861920e-05 -4.2541520e-05 
6.9286007e-06 1.6356467e-05 -3.2428739e-05 
6.3160164e-06 -5.8524533e-06 -1.4456816e-05 
5.1712764e-06 -2.7873813e-05 1.3410690e-05 
9.0884905e-06 -4.9543174e-05 3.1897664e-05 
7.7104996e-06 -7.1067094e-05 4.6701160e-05 
-6.9232883e-06 -8.7205190e-05 6.0719201e-05 
-2.4666417e-05 -9.2558046e-05 4.9805320e-05 
-2.8558248e-05 -8.8505825e-05 3.8972019e-05 
-1.9913901e-05 -8.1785613e-05 2.9105329e-05 
-1.9001536e-06 -1.0341994e-04 1.3681992e-05 
-3.6441328e-05 -1.9917176e-04 3.1290176e-05 
-5.7656216e-05 -4.2217853e-04 5.6264587e-05 
-7.8315323e-05 -8.4396789e-04 9.2517526e-05 
-1.1858836e-04 -1.5038217e-03 4.3076685e-05 
-2.2834292e-04 -2.4100384e-03 1.5931348e-04 
-2.1821634e-04 -3.3502935e-03 1.6351057e-04 
-1.2661019e-04 -3.9682961e-03 1.3641934e-04 
-1.0918297e-04 -3.8674939e-03 1.8328431e-04 
-2.6109218e-04 -3.7148069e-03 1.1272826e-04 
-3.2207745e-04 -3.7853024e-03 9.4101313e-05 
-2.1286572e-04 -4.1015563e-03 4.3151587e-05 
-7.8051089e-05 -4.0641446e-03 -1.3661545e-05 
-1.0568670e-04 -3.3205401e-03 -1.4672297e-04 
-2.0120003e-04 -2.3374676e-03 -1.9930571e-04 
-1.8839244e-04 -1.5008264e-03 -2.1309059e-04 
-8.2598774e-05 -8.6809800e-04 -1.5645966e-04 
-4.7017063e-05 -4.6032274e-04 -1.7982291e-04 
-2.7488097e-05 -2.1573322e-04 -1.4349326e-04 
-1.7983737e-05 -7.7769735e-05 -1.2092415e-04 
9.5289042e-06 -2.0029587e-07 -9.4731782e-05 
2.4543328e-05 4.4591096e-05 -6.1708997e-05 
3.5894940e-05 7.2846320e-05 -2.4431520e-05 
2.3381521e-05 9.0198220e-05 8.3371197e-06 
6.4317273e-06 9.5648909e-05 3.2971955e-05 
-1.3902639e-06 8.5404987e-05 3.8609447e-05 
-8.0002956e-06 6.2919913e-05 3.2932949e-05 
-8.4775775e-06 3.4283305e-05 2.0150790e-05 
-5.1679649e-06 6.0600446e-06 3.5708167e-06 
-4.2023094e-06 -1.5103492e-05 -5.6815684e-06 
-2.3371726e-06 -2.7659325e-05 -1.2567681e-05 
2.3833770e-06 -2.9996294e-05 -1.5741420e-05 
1.3336039e-06 -2.2729146e-05 -1.0459097e-05 
1.7142195e-06 -8.3410368e-06 -4.0653290e-06 
1.7503035e-06 7.0975902e-06 2.5301811e-06 
-7.7410778e-07 1.6173070e-05 6.5554418e-06 
-7.2892919e-07 1.6732391e-05 5.1774741e-06 
-6.4852776e-07 9.8381088e-06 2.2169709e-06 
-3.9614719e-07 -6.5521658e-07 -1.3486847e-06 
1.0028331e-07 -9.0768035e-06 -3.3106714e-06 
0.0000000e+00 7.2207258e-05 0.0000000e+00 
0.0000000e+00 -1.0475801e-05 0.0000000e+00 
0.0000000e+00 -2.6099067e-04 0.0000000e+00 
0.0000000e+00 -7.0237176e-04 0.0000000e+00 
0.0000000e+00 -1.3682506e-03 0.0000000e+00 
0.0000000e+00 -2.2568477e-03 0.0000000e+00 
0.0000000e+00 -3.2749469e-03 0.0000000e+00 
0.0000000e+00 -4.0625241e-03 0.0000000e+00 
0.0000000e+00 -4.1010631e-03 0.0000000e+00 
0.0000000e+00 -3.9180061e-03 0.0000000e+00 
0.0000000e+00 -3.9349739e-03 0.0000000e+00 
0.0000000e+00 -4.1941311e-03 0.0000000e+00 
0.0000000e+00 -4.2422409e-03 0.0000000e+00 
0.0000000e+00 -3.5303971e-03 0.0000000e+00 
0.0000000e+00 -2.4992912e-03 0.0000000e+00 
0.0000000e+00 -1.5903896e-03 0.0000000e+00 
0.0000000e+00 -9.2299562e-04 0.0000000e+00 
0.0000000e+00 -5.0392328e-04 0.0000000e+00 
0.0000000e+00 -2.7069097e-04 0.0000000e+00 
0.0000000e+00 -1.4804000e-04 0.0000000e+00 
0.0000000e+00 -7.5402480e-05 0.0000000e+00 
0.0000000e+00 -1.5579451e-05 0.0000000e+00 
0.0000000e+00 4.3771324e-05 0.0000000e+00 
0.0000000e+00 9.9369288e-05 0.0000000e+00 
0.0000000e+00 1.3981617e-04 0.0000000e+00 
0.0000000e+00 1.5545798e-04 0.0000000e+00 
0.0000000e+00 1.4768926e-04 0.0000000e+00 
0.0000000e+00 1.2408037e-04 0.0000000e+00 
0.0000000e+00 9.4059717e-05 0.0000000e+00 
0.0000000e+00 6.5388347e-05 0.0000000e+00 
0.0000000e+00 3.9877774e-05 0.0000000e+00 
0.0000000e+00 1.6358852e-05 0.0000000e+00 
0.0000000e+00 -6.0057369e-06 0.0000000e+00 
0.0000000e+00 -2.7962826e-05 0.0000000e+00 
0.0000000e+00 -4.9889815e-05 0.0000000e+00 
0.0000000e+00 -7.1051618e-05 0.0000000e+00 
0.0000000e+00 -8.6801840e-05 0.0000000e+00 
0.0000000e+00 -9.2226743e-05 0.0000000e+00 
0.0000000e+00 -8.7283945e-05 0.0000000e+00 
0.0000000e+00 -8.1060432e-05 0.0000000e+00 
0.0000000e+00 -1.0297960e-04 0.0000000e+00 
0.0000000e+00 -1.9820259e-04 0.0000000e+00 
0.0000000e+00 -4.2350710e-04 0.0000000e+00 
0.0000000e+00 -8.4587646e-04 0.0000000e+00 
0.0000000e+00 -1.5144624e-03 0.0000000e+00 
0.0000000e+00 -2.4189246e-03 0.0000000e+00 
0.0000000e+00 -3.3854777e-03 0.0000000e+00 
0.0000000e+00 -3.9923456e-03 0.0000000e+00 
0.0000000e+00 -3.8977375e-03 0.0000000e+00 
0.0000000e+00 -3.7283963e-03 0.0000000e+00 
0.0000000e+00 -3.8169394e-03 0.0000000e+00 
0.0000000e+00 -4.1228691e-03 0.0000000e+00 
0.0000000e+00 -4.0978910e-03 0.0000000e+00 
0.0000000e+00 -3.3367255e-03 0.0000000e+00 
0.0000000e+00 -2.3532328e-03 0.0000000e+00 
0.0000000e+00 -1.5025450e-03 0.0000000e+00 
0.0000000e+00 -8.7163714e-04 0.0000000e+00 
0.0000000e+00 -4.6006427e-04 0.0000000e+00 
0.0000000e+00 -2.1496759e-04 0.0000000e+00 
0.0000000e+00 -7.6774799e-05 0.0000000e+00 
0.0000000e+00 4.1800533e-07 0.0000000e+00 
0.0000000e+00 4.5120105e-05 0.0000000e+00 
0.0000000e+00 7.3160074e-05 0.0000000e+00 
0.0000000e+00 9.0305824e-05 0.0000000e+00 
0.0000000e+00 9.5277472e-05 0.0000000e+00 
0.0000000e+00 8.5311098e-05 0.0000000e+00 
0.0000000e+00 6.2959974e-05 0.0000000e+00 
0.0000000e+00 3.4303328e-05 0.0000000e+00 
0.0000000e+00 6.2941799e-06 0.0000000e+00 
0.0000000e+00 -1.5111902e-05 0.0000000e+00 
0.0000000e+00 -2.7518536e-05 0.0000000e+00 
0.0000000e+00 -2.9897386e-05 0.0000000e+00 
0.0000000e+00 -2.2568622e-05 0.0000000e+00 
0.0000000e+00 -8.3093209e-06 0.0000000e+00 
0.0000000e+00 6.7596407e-06 0.0000000e+00 
0.0000000e+00 1.6000813e-05 0.0000000e+00 
0.0000000e+00 1.6652488e-05 0.0000000e+00 
0.0000000e+00 9.8333048e-06 0.0000000e+00 
0.0000000e+00 -4.7563046e-07 0.0000000e+00 
0.0000000e+00 -9.0921631e-06 0.0000000e+00 
0.0000000e+00 -1.2541558e-05 0.0000000e+00 
0.0000000e+00 -2.7417935e-05 0.0000000e+00 
-1.2362434e-06 -4.0422497e-06 -7.9076858e-07 
7.0886409e-07 -2.4858315e-05 -1.1157898e-05 
0.0000000e+00 0.0000000e+00 0.0000000e+00 
0.0000000e+00 0.0000000e+00 0.0000000e+00 
0.0000000e+00 0.0000000e+00 0.0000000e+00 
0.0000000e+00 0.0000000e+00 0.0000000e+00 
0.0000000e+00 0.0000000e+00 0.0000000e+00 
0.0000000e+00 0.0000000e+00 0.0000000e+00 
0.0000000e+00 0.0000000e+00 0.0000000e+00 
0.0000000e+00 0.0000000e+00 0.0000000e+00 
0.0000000e+00 0.0000000e+00 0.0000000e+00 
0.0000000e+00 0.0000000e+00 0.0000000e+00 
0.0000000e+00 0.0000000e+00 0.0000000e+00 
0.0000000e+00 0.0000000e+00 0.0000000e+00 
0.0000000e+00 0.0000000e+00 0.0000000e+00 
0.0000000e+00 0.0000000e+00 0.0000000e+00 
0.0000000e+00 0.0000000e+00 0.0000000e+00 
0.0000000e+00 0.0000000e+00 0.0000000e+00 
0.0000000e+00 0.0000000e+00 0.0000000e+00 
0.0000000e+00 0.0000000e+00 0.0000000e+00 
0.0000000e+00 0.0000000e+00 0.0000000e+00 
0.0000000e+00 0.0000000e+00 0.0000000e+00 
0.0000000e+00 0.0000000e+00 0.0000000e+00 
0.0000000e+00 0.0000000e+00 0.0000000e+00 
0.0000000e+00 0.0000000e+00 0.0000000e+00 
0.0000000e+00 0.0000000e+00 0.0000000e+00 
0.0000000e+00 0.0000000e+00 0.0000000e+00 
0.0000000e+00 0.0000000e+00 0.0000000e+00 
0.0000000e+00 0.0000000e+00 0.0000000e+00 
0.0000000e+00 0.0000000e+00 0.0000000e+00 
0.0000000e+00 0.0000000e+00 0.0000000e+00 
0.0000000e+00 0.0000000e+00 0.0000000e+00 
0.0000000e+00 0.0000000e+00 0.0000000e+00 
0.0000000e+00 0.0000000e+00 0.0000000e+00 
0.0000000e+00 0.0000000e+00 0.0000000e+00 
0.0000000e+00 0.0000000e+00 0.0000000e+00 
0.0000000e+00 0.0000000e+00 0.0000000e+00 
0.0000000e+00 0.0000000e+00 0.0000000e+00 
0.0000000e+00 0.0000000e+00 0.0000000e+00 
0.0000000e+00 0.0000000e+00 0.0000000e+00 
0.0000000e+00 0.0000000e+00 0.0000000e+00 
0.0000000e+00 0.0000000e+00 0.0000000e+00 
0.0000000e+00 0.0000000e+00 0.0000000e+00 
0.0000000e+00 0.0000000e+00 0.0000000e+00 
2.9835224e-05 -7.3417118e-07 -2.3091603e-05 
5.8178121e-05 -4.8087950e-06 -1.3833627e-05 
3.9477953e-05 -8.0024320e-06 1.7869893e-07 
1.1019880e-05 -9.5759924e-06 1.0998219e-06 
4.1743751e-06 -8.3963250e-06 1.1505630e-05 
-7.4146163e-07 4.4064200e-06 8.6211758e-06 
7.8951571e-06 6.4514024e-06 -6.3219600e-06 
2.9359326e-06 -2.8032030e-06 -1.2554848e-05 
5.4914648e-07 -5.7527946e-06 -3.2760904e-06 
1.1118002e-05 -9.5492760e-06 -4.3483592e-06 
3.2950724e-05 -1.7386972e-06 -3.9942975e-06 
4.7437705e-05 -8.2023155e-07 2.7568649e-07 
3.6363923e-05 -6.8607483e-06 1.5736503e-06 
1.1648212e-05 -1.4279281e-05 2.7386777e-06 
6.7158626e-06 -9.5098505e-07 8.2260449e-06 
2.2373265e-06 3.4455798e-06 9.2351502e-06 
1.6377662e-07 -1.1271544e-06 1.6643515e-06 
-6.3207943e-07 -1.7360129e-06 -1.3219845e-06 
3.7366286e-07 1.0758813e-06 2.9590896e-07 
0.0000000e+00 -2.1420018e-04 0.0000000e+00 
0.0000000e+00 -4.8891088e-04 0.0000000e+00 
0.0000000e+00 -5.1087776e-04 0.0000000e+00 
0.0000000e+00 -1.8370290e-04 0.0000000e+00 
0.0000000e+00 -2.7852833e-05 0.0000000e+00 
0.0000000e+00 3.8597842e-05 0.0000000e+00 
0.0000000e+00 1.6142707e-05 0.0000000e+00 
0.0000000e+00 3.0426490e-05 0.0000000e+00 
0.0000000e+00 -2.4336998e-05 0.0000000e+00 
0.0000000e+00 -3.7270140e-05 0.0000000e+00 
0.0000000e+00 -1.9945313e-04 0.0000000e+00 
0.0000000e+00 -4.7103874e-04 0.0000000e+00 
0.0000000e+00 -5.2521919e-04 0.0000000e+00 
0.0000000e+00 -1.8889914e-04 0.0000000e+00 
0.0000000e+00 -3.1179843e-06 0.0000000e+00 
0.0000000e+00 3.0609503e-05 0.0000000e+00 
0.0000000e+00 -4.3290606e-06 0.0000000e+00 
0.0000000e+00 -2.9917499e-06 0.0000000e+00 
0.0000000e+00 1.4731941e-06 0.0000000e+00 
2.1071324e-05 -1.3235060e-05 -2.2215158e-05 
2.1565553e-05 -3.9653449e-05 -3.6604361e-05 
-2.0188075e-07 -8.6431254e-07 -2.4122616e-07 
-2.8690764e-07 -1.4270407e-06 -5.0463427e-07 
2.8894161e-05 5.3282301e-06 -3.2002557e-05 
5.2150037e-05 7.0303777e-06 -1.1928066e-05 
3.3399589e-05 -1.4723166e-06 3.0820709e-07 
4.7021585e-06 -6.2229719e-06 -1.4237791e-07 
4.6356135e-07 -1.3597158e-05 6.9542334e-06 
3.6194886e-06 7.4782242e-06 2.7038059e-06 
1.3481547e-05 1.1092728e-05 -1.9973675e-06 
-1.7905654e-06 -4.9641594e-06 -6.9955390e-06 
-7.4118643e-06 -8.1382514e-06 -6.2940107e-06 
1.6011092e-05 -1.1086153e-05 -9.4041779e-06 
3.4195986e-05 1.1178305e-06 -4.1791600e-06 
4.6241832e-05 2.4072374e-06 2.6400780e-06 
2.5876381e-05 -2.9310772e-06 1.0959957e-05 
-7.9442094e-07 -1.7496575e-05 -9.4923173e-08 
1.8998558e-06 -3.0334961e-06 1.8654417e-07 
4.2748775e-06 4.1023691e-06 1.0045315e-05 
2.2446391e-06 -3.2378250e-07 4.1546714e-06 
-7.6979148e-07 -1.9650897e-06 -4.5074293e-07 
7.5495876e-08 1.0627982e-06 -4.8380912e-07 
6.8359113e-06 -5.9729737e-05 -2.5468575e-05 
0.0000000e+00 -4.6506553e-04 0.0000000e+00 
0.0000000e+00 -1.1105607e-03 0.0000000e+00 
0.0000000e+00 -1.1498968e-03 0.0000000e+00 
0.0000000e+00 -3.4799954e-04 0.0000000e+00 
0.0000000e+00 -5.1907260e-05 0.0000000e+00 
0.0000000e+00 8.0714912e-05 0.0000000e+00 
0.0000000e+00 3.3883287e-05 0.0000000e+00 
0.0000000e+00 4.3383807e-05 0.0000000e+00 
0.0000000e+00 -5.2467363e-05 0.0000000e+00 
0.0000000e+00 -6.3669635e-05 0.0000000e+00 
0.0000000e+00 -4.4737087e-04 0.0000000e+00 
0.0000000e+00 -1.0568865e-03 0.0000000e+00 
0.0000000e+00 -1.1444602e-03 0.0000000e+00 
0.0000000e+00 -3.5180277e-04 0.0000000e+00 
0.0000000e+00 -1.1071070e-06 0.0000000e+00 
0.0000000e+00 5.8666697e-05 0.0000000e+00 
0.0000000e+00 -9.2086184e-06 0.0000000e+00 
0.0000000e+00 -9.3927993e-06 0.0000000e+00 
0.0000000e+00 6.7317924e-06 0.0000000e+00 
-3.2562639e-07 -2.3653708e-06 -5.1338606e-07 
-3.2764632e-04 -4.3463422e-04 2.8156495e-04 
-6.2962918e-04 -1.3448196e-03 1.1405310e-04 
-6.0560717e-04 -1.3876943e-03 -1.0932083e-04 
-1.7523288e-04 -2.9708052e-04 -2.1880816e-04 
2.6099872e-06 -7.1834009e-05 -1.4369457e-04 
2.0459935e-05 8.9513000e-05 2.1385079e-06 
3.7310865e-06 7.3575604e-05 -7.8785642e-06 
5.6456929e-06 -2.6871450e-05 9.9769486e-06 
8.7018343e-06 -1.0015858e-04 6.1192419e-05 
-1.5998816e-06 -3.9621449e-05 3.5251098e-05 
-2.7639585e-04 -4.3883949e-04 2.1160104e-04 
-6.5309403e-04 -1.1479523e-03 1.5553743e-04 
-6.0591294e-04 -1.3328216e-03 -4.9704959e-05 
-1.6567463e-04 -3.2616008e-04 -2.7354780e-04 
1.4602043e-05 -9.5425094e-06 -1.3049549e-04 
1.7542836e-05 5.5185516e-05 4.5129760e-05 
-9.1742932e-06 8.3894138e-06 2.1953208e-05 
-1.0989002e-08 -2.0234485e-05 -1.3898793e-05 
1.4629377e-06 1.4102210e-05 7.0911274e-06 
0.0000000e+00 -8.1387133e-04 0.0000000e+00 
0.0000000e+00 -2.2395200e-03 0.0000000e+00 
0.0000000e+00 -2.1838129e-03 0.0000000e+00 
0.0000000e+00 -5.8769848e-04 0.0000000e+00 
0.0000000e+00 -6.5747699e-05 0.0000000e+00 
0.0000000e+00 1.3241250e-04 0.0000000e+00 
0.0000000e+00 6.7026944e-05 0.0000000e+00 
0.0000000e+00 4.1162322e-05 0.0000000e+00 
0.0000000e+00 -1.0012853e-04 0.0000000e+00 
0.0000000e+00 -6.9657770e-05 0.0000000e+00 
0.0000000e+00 -8.7638723e-04 0.0000000e+00 
0.0000000e+00 -2.1311839e-03 0.0000000e+00 
0.0000000e+00 -2.1390212e-03 0.0000000e+00 
0.0000000e+00 -5.7411921e-04 0.0000000e+00 
0.0000000e+00 1.4197109e-05 0.0000000e+00 
0.0000000e+00 8.9604189e-05 0.0000000e+00 
0.0000000e+00 -7.8123833e-07 0.0000000e+00 
0.0000000e+00 -2.0391069e-05 0.0000000e+00 
0.0000000e+00 1.3731025e-05 0.0000000e+00 
3.1093710e-05 -1.8335722e-05 -9.0346675e-06 
7.1148723e-05 -1.1587399e-04 1.5516236e-05 
6.8316353e-05 -9.1366412e-05 1.1400040e-05 
2.5447944e-05 -5.7375950e-05 -1.0241697e-05 
-1.3523841e-05 -1.1607012e-05 -1.5094209e-05 
1.1816918e-05 2.1200911e-05 -4.2596766e-06 
8.9914192e-06 1.6792748e-05 -7.5385574e-06 
-4.6618425e-06 -2.0726851e-05 5.4579453e-07 
-7.7766745e-06 -3.8354559e-05 1.1583722e-05 
1.4959755e-05 -3.7799161e-06 6.5106669e-06 
5.9195190e-05 -3.1137988e-05 -1.2831636e-06 
7.6136705e-05 -4.0173629e-05 5.8242649e-06 
4.1170399e-05 -7.1295137e-05 1.7001530e-05 
2.1385576e-05 -6.6341367e-05 -1.6283824e-05 
-1.1034514e-05 -6.4860892e-06 -1.5761492e-05 
5.2840664e-06 1.3398808e-05 7.6823326e-06 
9.5304171e-07 2.9130706e-06 9.7164811e-06 
9.1253673e-07 2.9396194e-06 -8.9512264e-07 
2.1644698e-06 -1.5017822e-05 -7.7833438e-06 
0.0000000e+00 0.0000000e+00 0.0000000e+00 
0.0000000e+00 0.0000000e+00 0.0000000e+00 
0.0000000e+00 0.0000000e+00 0.0000000e+00 
0.0000000e+00 0.0000000e+00 0.0000000e+00 
0.0000000e+00 0.0000000e+00 0.0000000e+00 
0.0000000e+00 0.0000000e+00 0.0000000e+00 
0.0000000e+00 0.0000000e+00 0.0000000e+00 
0.0000000e+00 0.0000000e+00 0.0000000e+00 
0.0000000e+00 0.0000000e+00 0.0000000e+00 
0.0000000e+00 0.0000000e+00 0.0000000e+00 
0.0000000e+00 0.0000000e+00 0.0000000e+00 
0.0000000e+00 0.0000000e+00 0.0000000e+00 
0.0000000e+00 0.0000000e+00 0.0000000e+00 
0.0000000e+00 0.0000000e+00 0.0000000e+00 
0.0000000e+00 0.0000000e+00 0.0000000e+00 
0.0000000e+00 0.0000000e+00 0.0000000e+00 
0.0000000e+00 0.0000000e+00 0.0000000e+00 
0.0000000e+00 0.0000000e+00 0.0000000e+00 
0.0000000e+00 0.0000000e+00 0.0000000e+00 
0.0000000e+00 0.0000000e+00 0.0000000e+00 
0.0000000e+00 0.0000000e+00 0.0000000e+00 
0.0000000e+00 0.0000000e+00 0.0000000e+00 
0.0000000e+00 0.0000000e+00 0.0000000e+00 
0.0000000e+00 0.0000000e+00 0.0000000e+00 
0.0000000e+00 0.0000000e+00 0.0000000e+00 
0.0000000e+00 0.0000000e+00 0.0000000e+00 
0.0000000e+00 0.0000000e+00 0.0000000e+00 
0.0000000e+00 0.0000000e+00 0.0000000e+00 
0.0000000e+00 0.0000000e+00 0.0000000e+00 
0.0000000e+00 0.0000000e+00 0.0000000e+00 
0.0000000e+00 0.0000000e+00 0.0000000e+00 
0.0000000e+00 0.0000000e+00 0.0000000e+00 
0.0000000e+00 0.0000000e+00 0.0000000e+00 
0.0000000e+00 0.0000000e+00 0.0000000e+00 
0.0000000e+00 0.0000000e+00 0.0000000e+00 
0.0000000e+00 0.0000000e+00 0.0000000e+00 
0.0000000e+00 0.0000000e+00 0.0000000e+00 
0.0000000e+00 0.0000000e+00 0.0000000e+00 
0.0000000e+00 0.0000000e+00 0.0000000e+00 
0.0000000e+00 0.0000000e+00 0.0000000e+00 
0.0000000e+00 0.0000000e+00 0.0000000e+00 
0.0000000e+00 0.0000000e+00 0.0000000e+00 
1.2264934e-05 -8.0249029e-06 -1.1652387e-05 
1.2395897e-06 1.2297822e-06 1.0452541e-06 
2.6137875e-06 3.8163907e-07 -5.0810104e-06 
2.2806847e-05 -4.7486733e-06 -1.5955590e-07 
1.8948125e-05 -1.0501736e-05 5.6696177e-07 
1.5583211e-05 -1.0360516e-05 -5.0831216e-07 
5.1470711e-06 -4.4922463e-06 4.0023697e-06 
2.6136909e-06 9.9016472e-07 4.4054823e-06 
5.8206365e-07 -4.0673874e-07 2.8619943e-06 
2.0441553e-07 -1.0776222e-06 -3.9534049e-07 
-1.6150422e-07 -6.2411033e-08 -7.7419720e-08 
-1.1230707e-07 2.2733715e-07 -9.3227463e-08 
2.5423635e-05 -8.3176164e-06 -1.3800745e-05 
3.3141841e-05 -1.0033684e-05 -7.2114399e-06 
1.5556396e-05 -8.7936141e-06 -5.6810887e-07 
3.9503971e-06 -5.4301331e-06 3.8498524e-06 
3.9185062e-07 -9.7373163e-07 6.0699385e-06 
2.9614778e-06 2.0476122e-07 -7.0138735e-06 
3.3080619e-06 -5.1243860e-06 -6.4421130e-07 
9.5238456e-06 -6.7438345e-06 -2.9200858e-06 
3.6544126e-05 -3.0566491e-05 -1.5834190e-05 
1.2434622e-07 1.6656334e-06 -3.0404527e-07 
8.3882856e-05 -4.3064621e-05 7.7678005e-06 
1.3502032e-05 -8.1066519e-06 7.1922332e-06 
5.3540466e-06 1.2829852e-05 -2.7689550e-06 
-1.0389236e-05 -1.9048613e-05 -2.7560409e-06 
3.2776617e-05 6.7660762e-06 -3.9848737e-06 
9.4131552e-05 3.4263664e-06 -9.3474881e-07 
1.1700341e-05 -1.0875419e-05 6.7403212e-06 
6.3512255e-07 5.5039072e-06 5.5079663e-06 
7.7796591e-05 -1.9263597e-04 4.4466993e-05 
1.1577300e-06 8.9949566e-07 9.1613329e-06 
-3.3487549e-06 6.2871009e-06 -1.2817557e-05 
1.4893051e-05 -3.0945812e-05 2.8380571e-06 
1.1329324e-04 -1.8933952e-04 -2.5987923e-05 
8.6576234e-05 -2.0298523e-04 2.7303306e-05 
2.3827122e-06 9.1413949e-06 1.0402934e-05 
2.0466182e-06 -8.4184912e-06 -4.0246796e-06 
-6.4535766e-07 1.3643838e-06 1.8737439e-06 
8.4624684e-05 -5.8366177e-06 -6.8332183e-06 
-2.0936234e-07 -3.2647083e-07 5.4638713e-07 
8.6449021e-05 -2.6787395e-04 -5.0046005e-05 
3.3507225e-05 -1.6662632e-05 1.4611078e-06 
8.5915715e-08 1.3958248e-07 4.9883733e-06 
3.0113044e-06 -7.5320509e-07 -1.0918382e-05 
6.8113668e-06 -1.0473233e-05 2.9878149e-06 