# vtk DataFile Version 4.0
vtk output
ASCII
DATASET UNSTRUCTURED_GRID
POINTS 662 float
0.0000000e+00 0.0000000e+00 0.0000000e+00 
0.0000000e+00 0.0000000e+00 4.0000000e+01 
5.0000000e+00 0.0000000e+00 0.0000000e+00 
5.0000000e+00 0.0000000e+00 4.0000000e+01 
5.0000000e+00 1.0000000e+00 0.0000000e+00 
5.0000000e+00 1.0000000e+00 4.0000000e+01 
0.0000000e+00 1.0000000e+00 0.0000000e+00 
0.0000000e+00 1.0000000e+00 4.0000000e+01 
5.0000000e+00 2.0000000e+00 0.0000000e+00 
5.0000000e+00 2.0000000e+00 4.0000000e+01 
3.0000000e+00 2.0000000e+00 0.0000000e+00 
3.0000000e+00 2.0000000e+00 4.0000000e+01 
0.0000000e+00 2.0000000e+00 0.0000000e+00 
0.0000000e+00 2.0000000e+00 4.0000000e+01 
1.5000000e+00 3.0000000e+00 0.0000000e+00 
1.5000000e+00 3.0000000e+00 4.0000000e+01 
7.5000000e-01 3.0000000e+00 0.0000000e+00 
7.5000000e-01 3.0000000e+00 4.0000000e+01 
0.0000000e+00 3.0000000e+00 0.0000000e+00 
0.0000000e+00 3.0000000e+00 4.0000000e+01 
7.5000000e-01 3.0000000e+00 5.0000000e-01 
7.5000000e-01 3.0000000e+00 1.0000000e+00 
7.5000000e-01 3.0000000e+00 1.5000000e+00 
7.5000000e-01 3.0000000e+00 2.0000000e+00 
7.5000000e-01 3.0000000e+00 2.5000000e+00 
7.5000000e-01 3.0000000e+00 3.0000000e+00 
7.5000000e-01 3.0000000e+00 3.5000000e+00 
7.5000000e-01 3.0000000e+00 4.0000000e+00 
7.5000000e-01 3.0000000e+00 4.5000000e+00 
7.5000000e-01 3.0000000e+00 5.0000000e+00 
7.5000000e-01 3.0000000e+00 5.5000000e+00 
7.5000000e-01 3.0000000e+00 6.0000000e+00 
7.5000000e-01 3.0000000e+00 6.5000000e+00 
7.5000000e-01 3.0000000e+00 7.0000000e+00 
7.5000000e-01 3.0000000e+00 7.5000000e+00 
7.5000000e-01 3.0000000e+00 8.0000000e+00 
7.5000000e-01 3.0000000e+00 8.5000000e+00 
7.5000000e-01 3.0000000e+00 9.0000000e+00 
7.5000000e-01 3.0000000e+00 9.5000000e+00 
7.5000000e-01 3.0000000e+00 1.0000000e+01 
7.5000000e-01 3.0000000e+00 1.0500000e+01 
7.5000000e-01 3.0000000e+00 1.1000000e+01 
7.5000000e-01 3.0000000e+00 1.1500000e+01 
7.5000000e-01 3.0000000e+00 1.2000000e+01 
7.5000000e-01 3.0000000e+00 1.2500000e+01 
7.5000000e-01 3.0000000e+00 1.3000000e+01 
7.5000000e-01 3.0000000e+00 1.3500000e+01 
7.5000000e-01 3.0000000e+00 1.4000000e+01 
7.5000000e-01 3.0000000e+00 1.4500000e+01 
7.5000000e-01 3.0000000e+00 1.5000000e+01 
7.5000000e-01 3.0000000e+00 1.5500000e+01 
7.5000000e-01 3.0000000e+00 1.6000000e+01 
7.5000000e-01 3.0000000e+00 1.6500000e+01 
7.5000000e-01 3.0000000e+00 1.7000000e+01 
7.5000000e-01 3.0000000e+00 1.7500000e+01 
7.5000000e-01 3.0000000e+00 1.8000000e+01 
7.5000000e-01 3.0000000e+00 1.8500000e+01 
7.5000000e-01 3.0000000e+00 1.9000000e+01 
7.5000000e-01 3.0000000e+00 1.9500000e+01 
7.5000000e-01 3.0000000e+00 2.0000000e+01 
7.5000000e-01 3.0000000e+00 2.0500000e+01 
7.5000000e-01 3.0000000e+00 2.1000000e+01 
7.5000000e-01 3.0000000e+00 2.1500000e+01 
7.5000000e-01 3.0000000e+00 2.2000000e+01 
7.5000000e-01 3.0000000e+00 2.2500000e+01 
7.5000000e-01 3.0000000e+00 2.3000000e+01 
7.5000000e-01 3.0000000e+00 2.3500000e+01 
7.5000000e-01 3.0000000e+00 2.4000000e+01 
7.5000000e-01 3.0000000e+00 2.4500000e+01 
7.5000000e-01 3.0000000e+00 2.5000000e+01 
7.5000000e-01 3.0000000e+00 2.5500000e+01 
7.5000000e-01 3.0000000e+00 2.6000000e+01 
7.5000000e-01 3.0000000e+00 2.6500000e+01 
7.5000000e-01 3.0000000e+00 2.7000000e+01 
7.5000000e-01 3.0000000e+00 2.7500000e+01 
7.5000000e-01 3.0000000e+00 2.8000000e+01 
7.5000000e-01 3.0000000e+00 2.8500000e+01 
7.5000000e-01 3.0000000e+00 2.9000000e+01 
7.5000000e-01 3.0000000e+00 2.9500000e+01 
7.5000000e-01 3.0000000e+00 3.0000000e+01 
7.5000000e-01 3.0000000e+00 3.0500000e+01 
7.5000000e-01 3.0000000e+00 3.1000000e+01 
7.5000000e-01 3.0000000e+00 3.1500000e+01 
7.5000000e-01 3.0000000e+00 3.2000000e+01 
7.5000000e-01 3.0000000e+00 3.2500000e+01 
7.5000000e-01 3.0000000e+00 3.3000000e+01 
7.5000000e-01 3.0000000e+00 3.3500000e+01 
7.5000000e-01 3.0000000e+00 3.4000000e+01 
7.5000000e-01 3.0000000e+00 3.4500000e+01 
7.5000000e-01 3.0000000e+00 3.5000000e+01 
7.5000000e-01 3.0000000e+00 3.5500000e+01 
7.5000000e-01 3.0000000e+00 3.6000000e+01 
7.5000000e-01 3.0000000e+00 3.6500000e+01 
7.5000000e-01 3.0000000e+00 3.7000000e+01 
7.5000000e-01 3.0000000e+00 3.7500000e+01 
7.5000000e-01 3.0000000e+00 3.8000000e+01 
7.5000000e-01 3.0000000e+00 3.8500000e+01 
7.5000000e-01 3.0000000e+00 3.9000000e+01 
7.5000000e-01 3.0000000e+00 3.9500000e+01 
7.5000000e-01 3.0000000e+00 4.0500000e+01 
7.5000000e-01 3.0000000e+00 4.1000000e+01 
7.5000000e-01 3.0000000e+00 4.1500000e+01 
7.5000000e-01 3.0000000e+00 4.2000000e+01 
7.5000000e-01 3.0000000e+00 4.2500000e+01 
7.5000000e-01 3.0000000e+00 4.3000000e+01 
7.5000000e-01 3.0000000e+00 4.3500000e+01 
7.5000000e-01 3.0000000e+00 4.4000000e+01 
7.5000000e-01 3.0000000e+00 4.4500000e+01 
7.5000000e-01 3.0000000e+00 4.5000000e+01 
7.5000000e-01 3.0000000e+00 4.5500000e+01 
7.5000000e-01 3.0000000e+00 4.6000000e+01 
7.5000000e-01 3.0000000e+00 4.6500000e+01 
7.5000000e-01 3.0000000e+00 4.7000000e+01 
7.5000000e-01 3.0000000e+00 4.7500000e+01 
7.5000000e-01 3.0000000e+00 4.8000000e+01 
7.5000000e-01 3.0000000e+00 4.8500000e+01 
7.5000000e-01 3.0000000e+00 4.9000000e+01 
7.5000000e-01 3.0000000e+00 4.9500000e+01 
7.5000000e-01 3.0000000e+00 5.0000000e+01 
7.5000000e-01 3.0250001e+00 0.0000000e+00 
7.5000000e-01 3.0250001e+00 5.0000000e-01 
7.5000000e-01 3.0250001e+00 1.0000000e+00 
7.5000000e-01 3.0250001e+00 1.5000000e+00 
7.5000000e-01 3.0250001e+00 2.0000000e+00 
7.5000000e-01 3.0250001e+00 2.5000000e+00 
7.5000000e-01 3.0250001e+00 3.0000000e+00 
7.5000000e-01 3.0250001e+00 3.5000000e+00 
7.5000000e-01 3.0250001e+00 4.0000000e+00 
7.5000000e-01 3.0250001e+00 4.5000000e+00 
7.5000000e-01 3.0250001e+00 5.0000000e+00 
7.5000000e-01 3.0250001e+00 5.5000000e+00 
7.5000000e-01 3.0250001e+00 6.0000000e+00 
7.5000000e-01 3.0250001e+00 6.5000000e+00 
7.5000000e-01 3.0250001e+00 7.0000000e+00 
7.5000000e-01 3.0250001e+00 7.5000000e+00 
7.5000000e-01 3.0250001e+00 8.0000000e+00 
7.5000000e-01 3.0250001e+00 8.5000000e+00 
7.5000000e-01 3.0250001e+00 9.0000000e+00 
7.5000000e-01 3.0250001e+00 9.5000000e+00 
7.5000000e-01 3.0250001e+00 1.0000000e+01 
7.5000000e-01 3.0250001e+00 1.0500000e+01 
7.5000000e-01 3.0250001e+00 1.1000000e+01 
7.5000000e-01 3.0250001e+00 1.1500000e+01 
7.5000000e-01 3.0250001e+00 1.2000000e+01 
7.5000000e-01 3.0250001e+00 1.2500000e+01 
7.5000000e-01 3.0250001e+00 1.3000000e+01 
7.5000000e-01 3.0250001e+00 1.3500000e+01 
7.5000000e-01 3.0250001e+00 1.4000000e+01 
7.5000000e-01 3.0250001e+00 1.4500000e+01 
7.5000000e-01 3.0250001e+00 1.5000000e+01 
7.5000000e-01 3.0250001e+00 1.5500000e+01 
7.5000000e-01 3.0250001e+00 1.6000000e+01 
7.5000000e-01 3.0250001e+00 1.6500000e+01 
7.5000000e-01 3.0250001e+00 1.7000000e+01 
7.5000000e-01 3.0250001e+00 1.7500000e+01 
7.5000000e-01 3.0250001e+00 1.8000000e+01 
7.5000000e-01 3.0250001e+00 1.8500000e+01 
7.5000000e-01 3.0250001e+00 1.9000000e+01 
7.5000000e-01 3.0250001e+00 1.9500000e+01 
7.5000000e-01 3.0250001e+00 2.0000000e+01 
7.5000000e-01 3.0250001e+00 2.0500000e+01 
7.5000000e-01 3.0250001e+00 2.1000000e+01 
7.5000000e-01 3.0250001e+00 2.1500000e+01 
7.5000000e-01 3.0250001e+00 2.2000000e+01 
7.5000000e-01 3.0250001e+00 2.2500000e+01 
7.5000000e-01 3.0250001e+00 2.3000000e+01 
7.5000000e-01 3.0250001e+00 2.3500000e+01 
7.5000000e-01 3.0250001e+00 2.4000000e+01 
7.5000000e-01 3.0250001e+00 2.4500000e+01 
7.5000000e-01 3.0250001e+00 2.5000000e+01 
7.5000000e-01 3.0250001e+00 2.5500000e+01 
7.5000000e-01 3.0250001e+00 2.6000000e+01 
7.5000000e-01 3.0250001e+00 2.6500000e+01 
7.5000000e-01 3.0250001e+00 2.7000000e+01 
7.5000000e-01 3.0250001e+00 2.7500000e+01 
7.5000000e-01 3.0250001e+00 2.8000000e+01 
7.5000000e-01 3.0250001e+00 2.8500000e+01 
7.5000000e-01 3.0250001e+00 2.9000000e+01 
7.5000000e-01 3.0250001e+00 2.9500000e+01 
7.5000000e-01 3.0250001e+00 3.0000000e+01 
7.5000000e-01 3.0250001e+00 3.0500000e+01 
7.5000000e-01 3.0250001e+00 3.1000000e+01 
7.5000000e-01 3.0250001e+00 3.1500000e+01 
7.5000000e-01 3.0250001e+00 3.2000000e+01 
7.5000000e-01 3.0250001e+00 3.2500000e+01 
7.5000000e-01 3.0250001e+00 3.3000000e+01 
7.5000000e-01 3.0250001e+00 3.3500000e+01 
7.5000000e-01 3.0250001e+00 3.4000000e+01 
7.5000000e-01 3.0250001e+00 3.4500000e+01 
7.5000000e-01 3.0250001e+00 3.5000000e+01 
7.5000000e-01 3.0250001e+00 3.5500000e+01 
7.5000000e-01 3.0250001e+00 3.6000000e+01 
7.5000000e-01 3.0250001e+00 3.6500000e+01 
7.5000000e-01 3.0250001e+00 3.7000000e+01 
7.5000000e-01 3.0250001e+00 3.7500000e+01 
7.5000000e-01 3.0250001e+00 3.8000000e+01 
7.5000000e-01 3.0250001e+00 3.8500000e+01 
7.5000000e-01 3.0250001e+00 3.9000000e+01 
7.5000000e-01 3.0250001e+00 3.9500000e+01 
7.5000000e-01 3.0250001e+00 4.0000000e+01 
7.5000000e-01 3.0250001e+00 4.0500000e+01 
7.5000000e-01 3.0250001e+00 4.1000000e+01 
7.5000000e-01 3.0250001e+00 4.1500000e+01 
7.5000000e-01 3.0250001e+00 4.2000000e+01 
7.5000000e-01 3.0250001e+00 4.2500000e+01 
7.5000000e-01 3.0250001e+00 4.3000000e+01 
7.5000000e-01 3.0250001e+00 4.3500000e+01 
7.5000000e-01 3.0250001e+00 4.4000000e+01 
7.5000000e-01 3.0250001e+00 4.4500000e+01 
7.5000000e-01 3.0250001e+00 4.5000000e+01 
7.5000000e-01 3.0250001e+00 4.5500000e+01 
7.5000000e-01 3.0250001e+00 4.6000000e+01 
7.5000000e-01 3.0250001e+00 4.6500000e+01 
7.5000000e-01 3.0250001e+00 4.7000000e+01 
7.5000000e-01 3.0250001e+00 4.7500000e+01 
7.5000000e-01 3.0250001e+00 4.8000000e+01 
7.5000000e-01 3.0250001e+00 4.8500000e+01 
7.5000000e-01 3.0250001e+00 4.9000000e+01 
7.5000000e-01 3.0250001e+00 4.9500000e+01 
7.5000000e-01 3.0250001e+00 5.0000000e+01 
7.5000000e-01 3.0250001e+00 3.5750000e+01 
3.0000000e+00 2.0000000e+00 3.6000000e+01 
8.0487806e-01 3.0000000e+00 3.6000000e+01 
0.0000000e+00 0.0000000e+00 2.0000000e+00 
0.0000000e+00 0.0000000e+00 4.0000000e+00 
0.0000000e+00 0.0000000e+00 6.0000000e+00 
0.0000000e+00 0.0000000e+00 8.0000000e+00 
0.0000000e+00 0.0000000e+00 1.0000000e+01 
0.0000000e+00 0.0000000e+00 1.2000000e+01 
0.0000000e+00 0.0000000e+00 1.4000000e+01 
[...]
POINT_DATA 662
FIELD FieldData 3
DISPLACEMENT 3 662  float
0.0000000e+00 0.0000000e+00 0.0000000e+00 
0.0000000e+00 0.0000000e+00 0.0000000e+00 
0.0000000e+00 0.0000000e+00 0.0000000e+00 
0.0000000e+00 0.0000000e+00 0.0000000e+00 
4.5555471e-06 -5.9764143e-06 -2.1575104e-06 
4.1785310e-07 8.4221250e-07 1.5384211e-06 
0.0000000e+00 1.3924259e-06 0.0000000e+00 
0.0000000e+00 -1.1744892e-05 0.0000000e+00 
1.1893145e-07 -6.3984221e-06 -5.1961597e-06 
-2.7018648e-06 2.4329534e-06 -1.3130002e-06 
-5.4214301e-08 -2.2986116e-05 -2.6857129e-05 
-1.4747925e-06 -3.3956946e-06 -6.1799910e-06 
0.0000000e+00 3.6925735e-06 0.0000000e+00 
0.0000000e+00 -2.0012349e-05 0.0000000e+00 
2.8807577e-07 -1.4462607e-05 -9.9418459e-05 
-1.2739574e-05 -1.7457603e-05 -2.7109236e-05 
-7.4604113e-06 5.0971670e-05 -5.1212566e-05 
2.7707658e-06 -3.4247209e-05 -3.9853632e-05 
0.0000000e+00 3.7237985e-06 0.0000000e+00 
0.0000000e+00 -2.7132290e-05 0.0000000e+00 
2.4434592e-05 5.8387606e-05 -7.1820112e-05 
3.8034908e-05 7.7909724e-05 -5.6875600e-05 
4.5027256e-05 1.0342843e-04 -4.8766120e-05 
4.9597984e-05 1.3311389e-04 -3.2174969e-05 
5.2958996e-05 1.6488992e-04 -5.9350405e-06 
4.9006554e-05 1.9323490e-04 1.1380369e-05 
3.5266785e-05 2.0600818e-04 3.5065335e-05 
2.4608193e-05 1.7255011e-04 5.8629510e-05 
-7.4769987e-06 4.9408769e-05 9.8496545e-05 
-1.8429948e-05 -2.0507890e-04 1.3780335e-04 
-5.5007178e-05 -6.5290707e-04 1.8974960e-04 
-1.1506184e-04 -1.3355212e-03 1.3341058e-04 
-2.5761829e-04 -2.2698618e-03 2.0938453e-04 
-2.6202004e-04 -3.2824236e-03 1.8685206e-04 
-1.4779845e-04 -4.0761307e-03 1.1135028e-04 
-1.1550640e-04 -4.1130846e-03 1.0110052e-04 
-2.6030812e-04 -3.9496124e-03 2.4449879e-05 
-3.3339890e-04 -3.9427355e-03 -6.2082891e-06 
-2.1458878e-04 -4.1943253e-03 -5.7674657e-05 
-5.1467363e-05 -4.1999170e-03 -1.1109012e-04 
-7.7597448e-05 -3.4703980e-03 -1.8902939e-04 
-1.7216014e-04 -2.3992008e-03 -1.9416906e-04 
-1.8057344e-04 -1.4655327e-03 -1.6432282e-04 
-6.7131848e-05 -7.5890979e-04 -8.3513041e-05 
-3.1040552e-05 -3.1898395e-04 -1.0786872e-04 
-1.7379083e-05 -7.9369944e-05 -6.7284360e-05 
-2.1865622e-05 2.3687931e-05 -4.0076007e-05 
-1.8429335e-05 4.4257758e-05 -2.0495543e-05 
-1.4047371e-05 1.9439833e-05 -7.3800688e-06 
-8.4265230e-06 -2.2898952e-05 -3.3491194e-06 
-6.4954279e-06 -6.3328815e-05 -8.4963976e-06 
-1.3254500e-05 -9.4616087e-05 -1.2407768e-05 
-1.5516936e-05 -1.1270922e-04 3.8693420e-06 
-1.7390217e-05 -1.2063701e-04 2.1080061e-05 
-3.3850389e-05 -1.2273090e-04 5.2097756e-05 
-5.0702314e-05 -1.2072138e-04 7.7092023e-05 
-4.9805694e-05 -1.1510609e-04 5.7388803e-05 
-5.2610772e-05 -1.0625704e-04 2.6672978e-05 
-3.7825306e-05 -9.3087554e-05 -1.5489566e-05 
-1.5261865e-05 -7.3973679e-05 -5.9928156e-05 
2.9975974e-06 -4.5397668e-05 -7.3792566e-05 
1.7000384e-05 -9.1030561e-06 -7.4866934e-05 
3.1672404e-05 3.4274261e-05 -7.8207282e-05 
4.1444309e-05 8.1183927e-05 -6.7514637e-05 
5.0468898e-05 1.2676502e-04 -4.5457538e-05 
5.3624357e-05 1.6361772e-04 -1.9288562e-05 
4.2078216e-05 1.7865020e-04 8.7794069e-06 
2.9757173e-05 1.4288341e-04 3.5763755e-05 
-1.2694832e-05 1.1821927e-05 6.7041066e-05 
-2.1640824e-05 -2.5869653e-04 9.7857272e-05 
-3.6875612e-05 -7.3356758e-04 1.3426114e-04 
-8.3793748e-05 -1.4481356e-03 6.6509987e-05 
-2.2664489e-04 -2.4057466e-03 1.6478416e-04 
-2.2986447e-04 -3.3898747e-03 1.6339663e-04 
-1.3106356e-04 -4.0392219e-03 1.3142866e-04 
-9.8323108e-05 -3.9562639e-03 1.7940192e-04 
-2.4370011e-04 -3.8000331e-03 1.2461329e-04 
-3.1093432e-04 -3.8479725e-03 1.0826538e-04 
-2.0510971e-04 -4.1300692e-03 7.2093608e-05 
-7.0878516e-05 -4.0573715e-03 4.2733493e-05 
-1.1713061e-04 -3.2853093e-03 -9.5072166e-05 
-2.2136608e-04 -2.2806455e-03 -1.5293885e-04 
-2.1579771e-04 -1.4291647e-03 -1.7841157e-04 
-1.0046850e-04 -7.8633195e-04 -1.5577380e-04 
-5.6241646e-05 -3.7135379e-04 -2.0068942e-04 
-3.3255412e-05 -1.2458407e-04 -1.7602481e-04 
-2.1093294e-05 9.8383071e-06 -1.6549388e-04 
5.2584375e-07 7.5961034e-05 -1.4474167e-04 
2.3270866e-05 1.0099620e-04 -9.7363722e-05 
4.1191979e-05 1.0474447e-04 -4.8307691e-05 
3.4309553e-05 9.7411605e-05 -1.0792993e-05 
2.5031497e-05 8.2468337e-05 2.5715994e-05 
2.0120575e-05 6.1275729e-05 4.7697093e-05 
1.4666842e-05 3.6970814e-05 5.8936781e-05 
3.8113326e-06 1.2439487e-05 6.8842855e-05 
-7.3753476e-06 -8.5271959e-06 6.3091742e-05 
-9.0850954e-06 -2.3787188e-05 4.5293757e-05 
-1.3347460e-05 -3.2898210e-05 2.0274490e-05 
-9.8577839e-06 -3.6281413e-05 -5.3317262e-06 
0.0000000e+00 -2.7940247e-05 0.0000000e+00 
0.0000000e+00 -1.6968981e-05 0.0000000e+00 
0.0000000e+00 -2.6402042e-06 0.0000000e+00 
0.0000000e+00 1.2587085e-05 0.0000000e+00 
0.0000000e+00 2.5623342e-05 0.0000000e+00 
0.0000000e+00 3.3654156e-05 0.0000000e+00 
0.0000000e+00 3.4941200e-05 0.0000000e+00 
0.0000000e+00 2.9244598e-05 0.0000000e+00 
0.0000000e+00 1.7768161e-05 0.0000000e+00 
0.0000000e+00 2.7452820e-06 0.0000000e+00 
0.0000000e+00 -1.3078706e-05 0.0000000e+00 
0.0000000e+00 -2.6853466e-05 0.0000000e+00 
0.0000000e+00 -3.5905217e-05 0.0000000e+00 
0.0000000e+00 -3.8063525e-05 0.0000000e+00 
0.0000000e+00 -3.2185395e-05 0.0000000e+00 
0.0000000e+00 -1.8787234e-05 0.0000000e+00 
0.0000000e+00 -4.3010309e-07 0.0000000e+00 
0.0000000e+00 1.8534460e-05 0.0000000e+00 
0.0000000e+00 3.2979060e-05 0.0000000e+00 
0.0000000e+00 3.8472805e-05 0.0000000e+00 
0.0000000e+00 5.1186329e-05 0.0000000e+00 
0.0000000e+00 5.8557031e-05 0.0000000e+00 
0.0000000e+00 7.7701014e-05 0.0000000e+00 
0.0000000e+00 1.0341746e-04 0.0000000e+00 
0.0000000e+00 1.3326480e-04 0.0000000e+00 
0.0000000e+00 1.6525040e-04 0.0000000e+00 
0.0000000e+00 1.9427671e-04 0.0000000e+00 
0.0000000e+00 2.0671886e-04 0.0000000e+00 
0.0000000e+00 1.7259258e-04 0.0000000e+00 
0.0000000e+00 5.0541690e-05 0.0000000e+00 
0.0000000e+00 -2.0578447e-04 0.0000000e+00 
0.0000000e+00 -6.5443065e-04 0.0000000e+00 
0.0000000e+00 -1.3446732e-03 0.0000000e+00 
0.0000000e+00 -2.2773540e-03 0.0000000e+00 
0.0000000e+00 -3.3140129e-03 0.0000000e+00 
0.0000000e+00 -4.0999451e-03 0.0000000e+00 
0.0000000e+00 -4.1433889e-03 0.0000000e+00 
0.0000000e+00 -3.9633787e-03 0.0000000e+00 
0.0000000e+00 -3.9733057e-03 0.0000000e+00 
0.0000000e+00 -4.2143161e-03 0.0000000e+00 
0.0000000e+00 -4.2345230e-03 0.0000000e+00 
0.0000000e+00 -3.4886773e-03 0.0000000e+00 
0.0000000e+00 -2.4181027e-03 0.0000000e+00 
0.0000000e+00 -1.4678545e-03 0.0000000e+00 
0.0000000e+00 -7.6343428e-04 0.0000000e+00 
0.0000000e+00 -3.1878721e-04 0.0000000e+00 
0.0000000e+00 -7.8491692e-05 0.0000000e+00 
0.0000000e+00 2.4655526e-05 0.0000000e+00 
0.0000000e+00 4.4729994e-05 0.0000000e+00 
0.0000000e+00 1.9863057e-05 0.0000000e+00 
0.0000000e+00 -2.2300403e-05 0.0000000e+00 
0.0000000e+00 -6.3166859e-05 0.0000000e+00 
0.0000000e+00 -9.4279312e-05 0.0000000e+00 
0.0000000e+00 -1.1265824e-04 0.0000000e+00 
0.0000000e+00 -1.2080948e-04 0.0000000e+00 
0.0000000e+00 -1.2283630e-04 0.0000000e+00 
0.0000000e+00 -1.2076510e-04 0.0000000e+00 
0.0000000e+00 -1.1520489e-04 0.0000000e+00 
0.0000000e+00 -1.0629155e-04 0.0000000e+00 
0.0000000e+00 -9.3161128e-05 0.0000000e+00 
0.0000000e+00 -7.3685958e-05 0.0000000e+00 
0.0000000e+00 -4.5438795e-05 0.0000000e+00 
0.0000000e+00 -8.9718969e-06 0.0000000e+00 
0.0000000e+00 3.4333068e-05 0.0000000e+00 
0.0000000e+00 8.1255523e-05 0.0000000e+00 
0.0000000e+00 1.2706967e-04 0.0000000e+00 
0.0000000e+00 1.6451186e-04 0.0000000e+00 
0.0000000e+00 1.7949005e-04 0.0000000e+00 
0.0000000e+00 1.4305000e-04 0.0000000e+00 
0.0000000e+00 1.2979799e-05 0.0000000e+00 
0.0000000e+00 -2.5985611e-04 0.0000000e+00 
0.0000000e+00 -7.3553232e-04 0.0000000e+00 
0.0000000e+00 -1.4587749e-03 0.0000000e+00 
0.0000000e+00 -2.4146996e-03 0.0000000e+00 
0.0000000e+00 -3.4246426e-03 0.0000000e+00 
0.0000000e+00 -4.0629660e-03 0.0000000e+00 
0.0000000e+00 -3.9859079e-03 0.0000000e+00 
0.0000000e+00 -3.8133853e-03 0.0000000e+00 
0.0000000e+00 -3.8795108e-03 0.0000000e+00 
0.0000000e+00 -4.1512134e-03 0.0000000e+00 
0.0000000e+00 -4.0907585e-03 0.0000000e+00 
0.0000000e+00 -3.3014186e-03 0.0000000e+00 
0.0000000e+00 -2.2964973e-03 0.0000000e+00 
0.0000000e+00 -1.4308126e-03 0.0000000e+00 
0.0000000e+00 -7.8963628e-04 0.0000000e+00 
0.0000000e+00 -3.7113120e-04 0.0000000e+00 
0.0000000e+00 -1.2370088e-04 0.0000000e+00 
0.0000000e+00 1.0774781e-05 0.0000000e+00 
0.0000000e+00 7.6369179e-05 0.0000000e+00 
0.0000000e+00 1.0149382e-04 0.0000000e+00 
0.0000000e+00 1.0508994e-04 0.0000000e+00 
0.0000000e+00 9.7510427e-05 0.0000000e+00 
0.0000000e+00 8.2373139e-05 0.0000000e+00 
0.0000000e+00 6.1275525e-05 0.0000000e+00 
0.0000000e+00 3.6949379e-05 0.0000000e+00 
0.0000000e+00 1.2545773e-05 0.0000000e+00 
0.0000000e+00 -8.4340163e-06 0.0000000e+00 
0.0000000e+00 -2.3759072e-05 0.0000000e+00 
0.0000000e+00 -3.2916247e-05 0.0000000e+00 
0.0000000e+00 -3.6265836e-05 0.0000000e+00 
0.0000000e+00 -3.4352117e-05 0.0000000e+00 
0.0000000e+00 -2.7870627e-05 0.0000000e+00 
0.0000000e+00 -1.6905542e-05 0.0000000e+00 
0.0000000e+00 -2.6063833e-06 0.0000000e+00 
0.0000000e+00 1.2576881e-05 0.0000000e+00 
0.0000000e+00 2.5572226e-05 0.0000000e+00 
0.0000000e+00 3.3581971e-05 0.0000000e+00 
0.0000000e+00 3.4874472e-05 0.0000000e+00 
0.0000000e+00 2.9202487e-05 0.0000000e+00 
0.0000000e+00 1.7753528e-05 0.0000000e+00 
0.0000000e+00 2.7478318e-06 0.0000000e+00 
0.0000000e+00 -1.3069372e-05 0.0000000e+00 
0.0000000e+00 -2.6836129e-05 0.0000000e+00 
0.0000000e+00 -3.5867666e-05 0.0000000e+00 
0.0000000e+00 -3.7996073e-05 0.0000000e+00 
0.0000000e+00 -3.2095995e-05 0.0000000e+00 
0.0000000e+00 -1.8704764e-05 0.0000000e+00 
0.0000000e+00 -3.9141116e-07 0.0000000e+00 
0.0000000e+00 1.8505720e-05 0.0000000e+00 
0.0000000e+00 3.2888402e-05 0.0000000e+00 
0.0000000e+00 3.8356473e-05 0.0000000e+00 
0.0000000e+00 9.0850437e-05 0.0000000e+00 
3.3201957e-06 2.6412446e-05 2.5853178e-06 
2.5897383e-05 8.3810563e-05 2.5816526e-05 
0.0000000e+00 0.0000000e+00 0.0000000e+00 
0.0000000e+00 0.0000000e+00 0.0000000e+00 
0.0000000e+00 0.0000000e+00 0.0000000e+00 
0.0000000e+00 0.0000000e+00 0.0000000e+00 
0.0000000e+00 0.0000000e+00 0.0000000e+00 
0.0000000e+00 0.0000000e+00 0.0000000e+00 
0.0000000e+00 0.0000000e+00 0.0000000e+00 
0.0000000e+00 0.0000000e+00 0.0000000e+00 
0.0000000e+00 0.0000000e+00 0.0000000e+00 
0.0000000e+00 0.0000000e+00 0.0000000e+00 
0.0000000e+00 0.0000000e+00 0.0000000e+00 
0.0000000e+00 0.0000000e+00 0.0000000e+00 
0.0000000e+00 0.0000000e+00 0.0000000e+00 
0.0000000e+00 0.0000000e+00 0.0000000e+00 
0.0000000e+00 0.0000000e+00 0.0000000e+00 
0.0000000e+00 0.0000000e+00 0.0000000e+00 
0.0000000e+00 0.0000000e+00 0.0000000e+00 
0.0000000e+00 0.0000000e+00 0.0000000e+00 
0.0000000e+00 0.0000000e+00 0.0000000e+00 
0.0000000e+00 0.0000000e+00 0.0000000e+00 
0.0000000e+00 0.0000000e+00 0.0000000e+00 
0.0000000e+00 0.0000000e+00 0.0000000e+00 
0.0000000e+00 0.0000000e+00 0.0000000e+00 
0.0000000e+00 0.0000000e+00 0.0000000e+00 
0.0000000e+00 0.0000000e+00 0.0000000e+00 
0.0000000e+00 0.0000000e+00 0.0000000e+00 
0.0000000e+00 0.0000000e+00 0.0000000e+00 
0.0000000e+00 0.0000000e+00 0.0000000e+00 
0.0000000e+00 0.0000000e+00 0.0000000e+00 
0.0000000e+00 0.0000000e+00 0.0000000e+00 
0.0000000e+00 0.0000000e+00 0.0000000e+00 
0.0000000e+00 0.0000000e+00 0.0000000e+00 
0.0000000e+00 0.0000000e+00 0.0000000e+00 
0.0000000e+00 0.0000000e+00 0.0000000e+00 
0.0000000e+00 0.0000000e+00 0.0000000e+00 
0.0000000e+00 0.0000000e+00 0.0000000e+00 
0.0000000e+00 0.0000000e+00 0.0000000e+00 
0.0000000e+00 0.0000000e+00 0.0000000e+00 
0.0000000e+00 0.0000000e+00 0.0000000e+00 
0.0000000e+00 0.0000000e+00 0.0000000e+00 
0.0000000e+00 0.0000000e+00 0.0000000e+00 
0.0000000e+00 0.0000000e+00 0.0000000e+00 
-2.5763759e-06 -2.8110499e-06 -5.1441034e-06 
7.7620671e-06 1.1384179e-06 -1.1451349e-05 
3.1200529e-05 -3.7202387e-06 -1.4807070e-05 
4.6411118e-05 -1.4727962e-05 -8.2971064e-06 
4.5314093e-05 -8.5471756e-06 3.2675359e-06 
1.7016011e-05 5.7671900e-07 -1.3934626e-06 
4.4657668e-06 2.2420159e-06 3.6473978e-06 
5.9318863e-06 5.7381828e-07 7.5478401e-06 
2.8984030e-06 -5.5251535e-06 4.8683314e-06 
-2.1520120e-06 -5.0203425e-06 2.0703317e-06 
-4.5529177e-06 3.2667303e-06 -1.4057438e-06 
7.4082959e-06 -2.3689959e-06 -6.5821619e-06 
2.7882701e-05 -5.5670421e-06 -6.6957182e-06 
4.7753416e-05 -8.4918838e-06 -2.4249998e-06 
4.6151639e-05 -1.2239755e-05 3.7044240e-06 
2.0890348e-05 -5.5681662e-06 3.6391309e-06 
1.4599599e-06 6.0618963e-06 8.4514440e-06 
-2.7962774e-06 2.7484098e-06 4.6573059e-06 
1.9515860e-06 -4.5517854e-06 2.6100718e-06 
0.0000000e+00 4.8343813e-05 0.0000000e+00 
0.0000000e+00 4.3266911e-05 0.0000000e+00 
0.0000000e+00 -1.8962243e-04 0.0000000e+00 
0.0000000e+00 -5.4454902e-04 0.0000000e+00 
0.0000000e+00 -4.8990425e-04 0.0000000e+00 
0.0000000e+00 -1.3792084e-04 0.0000000e+00 
0.0000000e+00 -1.9240069e-05 0.0000000e+00 
0.0000000e+00 -3.8782597e-05 0.0000000e+00 
0.0000000e+00 -4.1887753e-05 0.0000000e+00 
0.0000000e+00 -3.7639522e-05 0.0000000e+00 
0.0000000e+00 2.9179177e-05 0.0000000e+00 
0.0000000e+00 3.1964861e-05 0.0000000e+00 
0.0000000e+00 -1.8458512e-04 0.0000000e+00 
0.0000000e+00 -4.8885128e-04 0.0000000e+00 
0.0000000e+00 -4.9070496e-04 0.0000000e+00 
0.0000000e+00 -1.7975259e-04 0.0000000e+00 
0.0000000e+00 6.6505445e-06 0.0000000e+00 
0.0000000e+00 3.6678437e-05 0.0000000e+00 
0.0000000e+00 -8.9418872e-06 0.0000000e+00 
1.3922191e-07 -1.2399122e-05 -6.5997488e-06 
-4.7741482e-06 -1.2947854e-05 -7.0904744e-06 
4.5263658e-07 -1.1874854e-06 -2.4894948e-06 
1.3715161e-06 -8.6337832e-06 1.2278068e-06 
4.3544087e-06 -2.8133877e-06 -1.1445679e-05 
2.1169370e-05 7.1886922e-07 -1.8328230e-05 
3.8693372e-05 3.9200540e-07 -5.9629297e-06 
4.7757425e-05 -2.4604483e-06 -5.6888321e-06 
3.2503660e-05 -8.2677552e-06 -1.9447284e-06 
1.1875844e-05 2.8178363e-06 -1.0120236e-05 
2.2520908e-06 3.4091738e-06 5.0949898e-06 
5.0469412e-06 -1.1853372e-06 1.2017810e-05 
-1.4888910e-06 -7.7264012e-06 8.7609878e-06 
-8.9490950e-06 -5.2845508e-06 -2.0150460e-06 
-2.1538442e-06 4.1549797e-06 -8.5530837e-06 
2.3555036e-05 -3.2611986e-06 -8.2661318e-06 
3.0770454e-05 -3.2027267e-06 -1.7299215e-07 
3.9774484e-05 -8.0095397e-06 4.8310108e-06 
2.6404075e-05 -9.9748941e-06 5.2124678e-06 
4.9947207e-06 -1.6505260e-06 -7.4722925e-06 
3.0239423e-06 6.5341915e-06 2.5434817e-06 
1.8747693e-06 7.1593081e-07 6.7890414e-06 
3.5022440e-06 -4.0431796e-06 4.9329569e-06 
1.4340549e-06 -8.6017599e-06 -3.0063677e-05 
0.0000000e+00 9.1914531e-05 0.0000000e+00 
0.0000000e+00 8.8051267e-05 0.0000000e+00 
0.0000000e+00 -4.0202567e-04 0.0000000e+00 
0.0000000e+00 -1.2045627e-03 0.0000000e+00 
0.0000000e+00 -1.1084928e-03 0.0000000e+00 
0.0000000e+00 -2.5598367e-04 0.0000000e+00 
0.0000000e+00 -1.7164160e-05 0.0000000e+00 
0.0000000e+00 -7.1644383e-05 0.0000000e+00 
0.0000000e+00 -7.2388953e-05 0.0000000e+00 
0.0000000e+00 -6.4545697e-05 0.0000000e+00 
0.0000000e+00 5.4504922e-05 0.0000000e+00 
0.0000000e+00 6.7396693e-05 0.0000000e+00 
0.0000000e+00 -4.1296790e-04 0.0000000e+00 
0.0000000e+00 -1.1101451e-03 0.0000000e+00 
0.0000000e+00 -1.0928320e-03 0.0000000e+00 
0.0000000e+00 -3.2680170e-04 0.0000000e+00 
0.0000000e+00 1.8721432e-05 0.0000000e+00 
0.0000000e+00 6.1095961e-05 0.0000000e+00 
0.0000000e+00 -1.3680527e-05 0.0000000e+00 
-3.0519407e-06 -1.3688827e-05 1.3391799e-06 
7.1417162e-05 8.6306813e-05 -2.9738507e-05 
5.7288977e-05 1.4233666e-04 7.7745804e-05 
-2.6283698e-04 -3.9194222e-04 3.5008381e-04 
-6.6600100e-04 -1.3547877e-03 1.0708245e-04 
-5.9111463e-04 -1.4258692e-03 -2.3037948e-04 
-1.5461785e-04 -1.8131993e-04 -2.1615530e-04 
8.2506649e-06 4.2441161e-06 -1.7560447e-05 
-2.6517493e-05 -6.8340014e-05 -1.8591440e-05 
-7.1039271e-05 -8.3800507e-05 8.8787834e-05 
-2.1815495e-05 -5.4652381e-05 -9.3055947e-05 
5.7721641e-05 3.2685850e-05 -9.1179536e-05 
5.6898611e-05 1.4864556e-04 7.0069349e-05 
-2.4805847e-04 -3.9843665e-04 2.6887996e-04 
-6.2939763e-04 -1.2335939e-03 1.7086967e-04 
-5.9887196e-04 -1.3879036e-03 -3.6981080e-05 
-1.7697873e-04 -2.6854407e-04 -2.8712169e-04 
2.2872580e-05 3.9537692e-05 -1.7743011e-04 
3.1411502e-05 6.1720275e-05 3.5089477e-05 
-2.1826572e-06 -8.8528441e-06 7.6555247e-05 
0.0000000e+00 1.1954016e-04 0.0000000e+00 
0.0000000e+00 1.6215355e-04 0.0000000e+00 
0.0000000e+00 -7.6792092e-04 0.0000000e+00 
0.0000000e+00 -2.3450707e-03 0.0000000e+00 
0.0000000e+00 -2.1571252e-03 0.0000000e+00 
0.0000000e+00 -4.3975512e-04 0.0000000e+00 
0.0000000e+00 2.9962708e-05 0.0000000e+00 
0.0000000e+00 -1.0620106e-04 0.0000000e+00 
0.0000000e+00 -8.6021915e-05 0.0000000e+00 
0.0000000e+00 -7.6086071e-05 0.0000000e+00 
0.0000000e+00 6.4683052e-05 0.0000000e+00 
0.0000000e+00 1.3300103e-04 0.0000000e+00 
0.0000000e+00 -8.3673769e-04 0.0000000e+00 
0.0000000e+00 -2.2434047e-03 0.0000000e+00 
0.0000000e+00 -2.0837842e-03 0.0000000e+00 
0.0000000e+00 -5.0636154e-04 0.0000000e+00 
0.0000000e+00 5.5643050e-05 0.0000000e+00 
0.0000000e+00 7.5950367e-05 0.0000000e+00 
0.0000000e+00 -1.3787580e-05 0.0000000e+00 
1.0814710e-05 2.1725098e-05 -1.5277179e-05 
3.0399489e-05 4.1712650e-05 4.6450000e-06 
5.1820349e-05 -2.6639584e-05 7.6114752e-06 
5.2132731e-05 -1.1609634e-04 -2.4167377e-05 
4.6644047e-05 -8.5743581e-05 -1.2825588e-05 
3.4119301e-05 -3.1604250e-05 -2.8132772e-06 
8.2015113e-06 -3.2481460e-06 -5.8439946e-06 
-7.0166029e-06 -6.8021777e-06 3.6339045e-06 
-1.7173335e-05 -1.7932380e-05 1.2411798e-05 
-7.3545111e-06 -2.2192527e-05 -1.2200661e-05 
3.6471540e-06 1.4664251e-05 -1.5461061e-05 
2.8048991e-05 4.4840901e-05 4.3841105e-06 
6.4625186e-05 -3.3865290e-05 4.4368740e-06 
6.1466482e-05 -7.6646094e-05 9.7763632e-06 
3.4916324e-05 -1.0375593e-04 2.2130060e-05 
2.4567538e-05 -6.9571201e-05 -1.3627918e-05 
-7.6868290e-08 1.9319206e-05 -3.7578360e-05 
1.3099882e-06 -5.0058602e-06 1.4479798e-05 
2.0252703e-05 5.0167368e-05 2.0734406e-05 
0.0000000e+00 0.0000000e+00 0.0000000e+00 
0.0000000e+00 0.0000000e+00 0.0000000e+00 
0.0000000e+00 0.0000000e+00 0.0000000e+00 
0.0000000e+00 0.0000000e+00 0.0000000e+00 
0.0000000e+00 0.0000000e+00 0.0000000e+00 
0.0000000e+00 0.0000000e+00 0.0000000e+00 
0.0000000e+00 0.0000000e+00 0.0000000e+00 
0.0000000e+00 0.0000000e+00 0.0000000e+00 
0.0000000e+00 0.0000000e+00 0.0000000e+00 
0.0000000e+00 0.0000000e+00 0.0000000e+00 
0.0000000e+00 0.0000000e+00 0.0000000e+00 
0.0000000e+00 0.0000000e+00 0.0000000e+00 
0.0000000e+00 0.0000000e+00 0.0000000e+00 
0.0000000e+00 0.0000000e+00 0.0000000e+00 
0.0000000e+00 0.0000000e+00 0.0000000e+00 
0.0000000e+00 0.0000000e+00 0.0000000e+00 
0.0000000e+00 0.0000000e+00 0.0000000e+00 
0.0000000e+00 0.0000000e+00 0.0000000e+00 
0.0000000e+00 0.0000000e+00 0.0000000e+00 
0.0000000e+00 0.0000000e+00 0.0000000e+00 
0.0000000e+00 0.0000000e+00 0.0000000e+00 
0.0000000e+00 0.0000000e+00 0.0000000e+00 
0.0000000e+00 0.0000000e+00 0.0000000e+00 
0.0000000e+00 0.0000000e+00 0.0000000e+00 
0.0000000e+00 0.0000000e+00 0.0000000e+00 
0.0000000e+00 0.0000000e+00 0.0000000e+00 
0.0000000e+00 0.0000000e+00 0.0000000e+00 
0.0000000e+00 0.0000000e+00 0.0000000e+00 
0.0000000e+00 0.0000000e+00 0.0000000e+00 
0.0000000e+00 0.0000000e+00 0.0000000e+00 
0.0000000e+00 0.0000000e+00 0.0000000e+00 
0.0000000e+00 0.0000000e+00 0.0000000e+00 
0.0000000e+00 0.0000000e+00 0.0000000e+00 
0.0000000e+00 0.0000000e+00 0.0000000e+00 
0.0000000e+00 0.0000000e+00 0.0000000e+00 
0.0000000e+00 0.0000000e+00 0.0000000e+00 
0.0000000e+00 0.0000000e+00 0.0000000e+00 
0.0000000e+00 0.0000000e+00 0.0000000e+00 
0.0000000e+00 0.0000000e+00 0.0000000e+00 
0.0000000e+00 0.0000000e+00 0.0000000e+00 
0.0000000e+00 0.0000000e+00 0.0000000e+00 
0.0000000e+00 0.0000000e+00 0.0000000e+00 
5.1832032e-08 -1.4852825e-06 -1.0537461e-06 
2.9938469e-06 -5.0673452e-07 6.6681832e-07 
2.2728268e-06 2.2023896e-07 2.1591145e-06 
-7.7180806e-07 1.3794299e-06 -1.4345701e-06 
6.3217967e-06 -5.7930770e-06 -3.7088032e-06 
2.3324277e-05 -8.3186451e-06 -2.5672296e-06 
2.5114681e-05 -1.1440173e-05 -7.2676693e-07 
2.1640197e-05 -1.1186118e-05 2.6693760e-06 