# vtk DataFile Version 4.0
vtk output
ASCII
DATASET UNSTRUCTURED_GRID
POINTS 662 float
0.0000000e+00 0.0000000e+00 0.0000000e+00 
0.0000000e+00 0.0000000e+00 4.0000000e+01 
5.0000000e+00 0.0000000e+00 0.0000000e+00 
5.0000000e+00 0.0000000e+00 4.0000000e+01 
5.0000000e+00 1.0000000e+00 0.0000000e+00 
5.0000000e+00 1.0000000e+00 4.0000000e+01 
0.0000000e+00 1.0000000e+00 0.0000000e+00 
0.0000000e+00 1.0000000e+00 4.0000000e+01 
5.0000000e+00 2.0000000e+00 0.0000000e+00 
5.0000000e+00 2.0000000e+00 4.0000000e+01 
3.0000000e+00 2.0000000e+00 0.0000000e+00 
3.0000000e+00 2.0000000e+00 4.0000000e+01 
0.0000000e+00 2.0000000e+00 0.0000000e+00 
0.0000000e+00 2.0000000e+00 4.0000000e+01 
1.5000000e+00 3.0000000e+00 0.0000000e+00 
1.5000000e+00 3.0000000e+00 4.0000000e+01 
7.5000000e-01 3.0000000e+00 0.0000000e+00 
7.5000000e-01 3.0000000e+00 4.0000000e+01 
0.0000000e+00 3.0000000e+00 0.0000000e+00 
0.0000000e+00 3.0000000e+00 4.0000000e+01 
7.5000000e-01 3.0000000e+00 5.0000000e-01 
7.5000000e-01 3.0000000e+00 1.0000000e+00 
7.5000000e-01 3.0000000e+00 1.5000000e+00 
7.5000000e-01 3.0000000e+00 2.0000000e+00 
7.5000000e-01 3.0000000e+00 2.5000000e+00 
7.5000000e-01 3.0000000e+00 3.0000000e+00 
7.5000000e-01 3.0000000e+00 3.5000000e+00 
7.5000000e-01 3.0000000e+00 4.0000000e+00 
7.5000000e-01 3.0000000e+00 4.5000000e+00 
7.5000000e-01 3.0000000e+00 5.0000000e+00 
7.5000000e-01 3.0000000e+00 5.5000000e+00 
7.5000000e-01 3.0000000e+00 6.0000000e+00 
7.5000000e-01 3.0000000e+00 6.5000000e+00 
7.5000000e-01 3.0000000e+00 7.0000000e+00 
7.5000000e-01 3.0000000e+00 7.5000000e+00 
7.5000000e-01 3.0000000e+00 8.0000000e+00 
7.5000000e-01 3.0000000e+00 8.5000000e+00 
7.5000000e-01 3.0000000e+00 9.0000000e+00 
7.5000000e-01 3.0000000e+00 9.5000000e+00 
7.5000000e-01 3.0000000e+00 1.0000000e+01 
7.5000000e-01 3.0000000e+00 1.0500000e+01 
7.5000000e-01 3.0000000e+00 1.1000000e+01 
7.5000000e-01 3.0000000e+00 1.1500000e+01 
7.5000000e-01 3.0000000e+00 1.2000000e+01 
7.5000000e-01 3.0000000e+00 1.2500000e+01 
7.5000000e-01 3.0000000e+00 1.3000000e+01 
7.5000000e-01 3.0000000e+00 1.3500000e+01 
7.5000000e-01 3.0000000e+00 1.4000000e+01 
7.5000000e-01 3.0000000e+00 1.4500000e+01 
7.5000000e-01 3.0000000e+00 1.5000000e+01 
7.5000000e-01 3.0000000e+00 1.5500000e+01 
7.5000000e-01 3.0000000e+00 1.6000000e+01 
7.5000000e-01 3.0000000e+00 1.6500000e+01 
7.5000000e-01 3.0000000e+00 1.7000000e+01 
7.5000000e-01 3.0000000e+00 1.7500000e+01 
7.5000000e-01 3.0000000e+00 1.8000000e+01 
7.5000000e-01 3.0000000e+00 1.8500000e+01 
7.5000000e-01 3.0000000e+00 1.9000000e+01 
7.5000000e-01 3.0000000e+00 1.9500000e+01 
7.5000000e-01 3.0000000e+00 2.0000000e+01 
7.5000000e-01 3.0000000e+00 2.0500000e+01 
7.5000000e-01 3.0000000e+00 2.1000000e+01 
7.5000000e-01 3.0000000e+00 2.1500000e+01 
7.5000000e-01 3.0000000e+00 2.2000000e+01 
7.5000000e-01 3.0000000e+00 2.2500000e+01 
7.5000000e-01 3.0000000e+00 2.3000000e+01 
7.5000000e-01 3.0000000e+00 2.3500000e+01 
7.5000000e-01 3.0000000e+00 2.4000000e+01 
7.5000000e-01 3.0000000e+00 2.4500000e+01 
7.5000000e-01 3.0000000e+00 2.5000000e+01 
7.5000000e-01 3.0000000e+00 2.5500000e+01 
7.5000000e-01 3.0000000e+00 2.6000000e+01 
7.5000000e-01 3.0000000e+00 2.6500000e+01 
7.5000000e-01 3.0000000e+00 2.7000000e+01 
7.5000000e-01 3.0000000e+00 2.7500000e+01 
7.5000000e-01 3.0000000e+00 2.8000000e+01 
7.5000000e-01 3.0000000e+00 2.8500000e+01 
7.5000000e-01 3.0000000e+00 2.9000000e+01 
7.5000000e-01 3.0000000e+00 2.9500000e+01 
7.5000000e-01 3.0000000e+00 3.0000000e+01 
7.5000000e-01 3.0000000e+00 3.0500000e+01 
7.5000000e-01 3.0000000e+00 3.1000000e+01 
7.5000000e-01 3.0000000e+00 3.1500000e+01 
7.5000000e-01 3.0000000e+00 3.2000000e+01 
7.5000000e-01 3.0000000e+00 3.2500000e+01 
7.5000000e-01 3.0000000e+00 3.3000000e+01 
7.5000000e-01 3.0000000e+00 3.3500000e+01 
7.5000000e-01 3.0000000e+00 3.4000000e+01 
7.5000000e-01 3.0000000e+00 3.4500000e+01 
7.5000000e-01 3.0000000e+00 3.5000000e+01 
7.5000000e-01 3.0000000e+00 3.5500000e+01 
7.5000000e-01 3.0000000e+00 3.6000000e+01 
7.5000000e-01 3.0000000e+00 3.6500000e+01 
7.5000000e-01 3.0000000e+00 3.7000000e+01 
7.5000000e-01 3.0000000e+00 3.7500000e+01 
7.5000000e-01 3.0000000e+00 3.8000000e+01 
7.5000000e-01 3.0000000e+00 3.8500000e+01 
7.5000000e-01 3.0000000e+00 3.9000000e+01 
7.5000000e-01 3.0000000e+00 3.9500000e+01 
7.5000000e-01 3.0000000e+00 4.0500000e+01 
7.5000000e-01 3.0000000e+00 4.1000000e+01 
7.5000000e-01 3.0000000e+00 4.1500000e+01 
7.5000000e-01 3.0000000e+00 4.2000000e+01 
7.5000000e-01 3.0000000e+00 4.2500000e+01 
7.5000000e-01 3.0000000e+00 4.3000000e+01 
7.5000000e-01 3.0000000e+00 4.3500000e+01 
7.5000000e-01 3.0000000e+00 4.4000000e+01 
7.5000000e-01 3.0000000e+00 4.4500000e+01 
7.5000000e-01 3.0000000e+00 4.5000000e+01 
7.5000000e-01 3.0000000e+00 4.5500000e+01 
7.5000000e-01 3.0000000e+00 4.6000000e+01 
7.5000000e-01 3.0000000e+00 4.6500000e+01 
7.5000000e-01 3.0000000e+00 4.7000000e+01 
7.5000000e-01 3.0000000e+00 4.7500000e+01 
7.5000000e-01 3.0000000e+00 4.8000000e+01 
7.5000000e-01 3.0000000e+00 4.8500000e+01 
7.5000000e-01 3.0000000e+00 4.9000000e+01 
7.5000000e-01 3.0000000e+00 4.9500000e+01 
7.5000000e-01 3.0000000e+00 5.0000000e+01 
7.5000000e-01 3.0250001e+00 0.0000000e+00 
7.5000000e-01 3.0250001e+00 5.0000000e-01 
7.5000000e-01 3.0250001e+00 1.0000000e+00 
7.5000000e-01 3.0250001e+00 1.5000000e+00 
7.5000000e-01 3.0250001e+00 2.0000000e+00 
7.5000000e-01 3.0250001e+00 2.5000000e+00 
7.5000000e-01 3.0250001e+00 3.0000000e+00 
7.5000000e-01 3.0250001e+00 3.5000000e+00 
7.5000000e-01 3.0250001e+00 4.0000000e+00 
7.5000000e-01 3.0250001e+00 4.5000000e+00 
7.5000000e-01 3.0250001e+00 5.0000000e+00 
7.5000000e-01 3.0250001e+00 5.5000000e+00 
7.5000000e-01 3.0250001e+00 6.0000000e+00 
7.5000000e-01 3.0250001e+00 6.5000000e+00 
7.5000000e-01 3.0250001e+00 7.0000000e+00 
7.5000000e-01 3.0250001e+00 7.5000000e+00 
7.5000000e-01 3.0250001e+00 8.0000000e+00 
7.5000000e-01 3.0250001e+00 8.5000000e+00 
7.5000000e-01 3.0250001e+00 9.0000000e+00 
7.5000000e-01 3.0250001e+00 9.5000000e+00 
7.5000000e-01 3.0250001e+00 1.0000000e+01 
7.5000000e-01 3.0250001e+00 1.0500000e+01 
7.5000000e-01 3.0250001e+00 1.1000000e+01 
7.5000000e-01 3.0250001e+00 1.1500000e+01 
7.5000000e-01 3.0250001e+00 1.2000000e+01 
7.5000000e-01 3.0250001e+00 1.2500000e+01 
7.5000000e-01 3.0250001e+00 1.3000000e+01 
7.5000000e-01 3.0250001e+00 1.3500000e+01 
7.5000000e-01 3.0250001e+00 1.4000000e+01 
7.5000000e-01 3.0250001e+00 1.4500000e+01 
7.5000000e-01 3.0250001e+00 1.5000000e+01 
7.5000000e-01 3.0250001e+00 1.5500000e+01 
7.5000000e-01 3.0250001e+00 1.6000000e+01 
7.5000000e-01 3.0250001e+00 1.6500000e+01 
7.5000000e-01 3.0250001e+00 1.7000000e+01 
7.5000000e-01 3.0250001e+00 1.7500000e+01 
7.5000000e-01 3.0250001e+00 1.8000000e+01 
7.5000000e-01 3.0250001e+00 1.8500000e+01 
7.5000000e-01 3.0250001e+00 1.9000000e+01 
7.5000000e-01 3.0250001e+00 1.9500000e+01 
7.5000000e-01 3.0250001e+00 2.0000000e+01 
7.5000000e-01 3.0250001e+00 2.0500000e+01 
7.5000000e-01 3.0250001e+00 2.1000000e+01 
7.5000000e-01 3.0250001e+00 2.1500000e+01 
7.5000000e-01 3.0250001e+00 2.2000000e+01 
7.5000000e-01 3.0250001e+00 2.2500000e+01 
7.5000000e-01 3.0250001e+00 2.3000000e+01 
7.5000000e-01 3.0250001e+00 2.3500000e+01 
7.5000000e-01 3.0250001e+00 2.4000000e+01 
7.5000000e-01 3.0250001e+00 2.4500000e+01 
7.5000000e-01 3.0250001e+00 2.5000000e+01 
7.5000000e-01 3.0250001e+00 2.5500000e+01 
7.5000000e-01 3.0250001e+00 2.6000000e+01 
7.5000000e-01 3.0250001e+00 2.6500000e+01 
7.5000000e-01 3.0250001e+00 2.7000000e+01 
7.5000000e-01 3.0250001e+00 2.7500000e+01 
7.5000000e-01 3.0250001e+00 2.8000000e+01 
7.5000000e-01 3.0250001e+00 2.8500000e+01 
7.5000000e-01 3.0250001e+00 2.9000000e+01 
7.5000000e-01 3.0250001e+00 2.9500000e+01 
7.5000000e-01 3.0250001e+00 3.0000000e+01 
7.5000000e-01 3.0250001e+00 3.0500000e+01 
7.5000000e-01 3.0250001e+00 3.1000000e+01 
7.5000000e-01 3.0250001e+00 3.1500000e+01 
7.5000000e-01 3.0250001e+00 3.2000000e+01 
7.5000000e-01 3.0250001e+00 3.2500000e+01 
7.5000000e-01 3.0250001e+00 3.3000000e+01 
7.5000000e-01 3.0250001e+00 3.3500000e+01 
7.5000000e-01 3.0250001e+00 3.4000000e+01 
7.5000000e-01 3.0250001e+00 3.4500000e+01 
7.5000000e-01 3.0250001e+00 3.5000000e+01 
7.5000000e-01 3.0250001e+00 3.5500000e+01 
7.5000000e-01 3.0250001e+00 3.6000000e+01 
7.5000000e-01 3.0250001e+00 3.6500000e+01 
7.5000000e-01 3.0250001e+00 3.7000000e+01 
7.5000000e-01 3.0250001e+00 3.7500000e+01 
7.5000000e-01 3.0250001e+00 3.8000000e+01 
7.5000000e-01 3.0250001e+00 3.8500000e+01 
7.5000000e-01 3.0250001e+00 3.9000000e+01 
7.5000000e-01 3.0250001e+00 3.9500000e+01 
7.5000000e-01 3.0250001e+00 4.0000000e+01 
7.5000000e-01 3.0250001e+00 4.0500000e+01 
7.5000000e-01 3.0250001e+00 4.1000000e+01 
7.5000000e-01 3.0250001e+00 4.1500000e+01 
7.5000000e-01 3.0250001e+00 4.2000000e+01 
7.5000000e-01 3.0250001e+00 4.2500000e+01 
7.5000000e-01 3.0250001e+00 4.3000000e+01 
7.5000000e-01 3.0250001e+00 4.3500000e+01 
7.5000000e-01 3.0250001e+00 4.4000000e+01 
7.5000000e-01 3.0250001e+00 4.4500000e+01 
7.5000000e-01 3.0250001e+00 4.5000000e+01 
7.5000000e-01 3.0250001e+00 4.5500000e+01 
7.5000000e-01 3.0250001e+00 4.6000000e+01 
7.5000000e-01 3.0250001e+00 4.6500000e+01 
7.5000000e-01 3.0250001e+00 4.7000000e+01 
7.5000000e-01 3.0250001e+00 4.7500000e+01 
7.5000000e-01 3.0250001e+00 4.8000000e+01 
7.5000000e-01 3.0250001e+00 4.8500000e+01 
7.5000000e-01 3.0250001e+00 4.9000000e+01 
7.5000000e-01 3.0250001e+00 4.9500000e+01 
7.5000000e-01 3.0250001e+00 5.0000000e+01 
7.5000000e-01 3.0250001e+00 3.5750000e+01 
3.0000000e+00 2.0000000e+00 3.6000000e+01 
8.0487806e-01 3.0000000e+00 3.6000000e+01 
0.0000000e+00 0.0000000e+00 2.0000000e+00 
0.0000000e+00 0.0000000e+00 4.0000000e+00 
0.0000000e+00 0.0000000e+00 6.0000000e+00 
0.0000000e+00 0.0000000e+00 8.0000000e+00 
0.0000000e+00 0.0000000e+00 1.0000000e+01 
0.0000000e+00 0.0000000e+00 1.2000000e+01 
0.0000000e+00 0.0000000e+00 1.4000000e+01 
[...]
POINT_DATA 662
FIELD FieldData 3
DISPLACEMENT 3 662  float
0.0000000e+00 0.0000000e+00 0.0000000e+00 
0.0000000e+00 0.0000000e+00 0.0000000e+00 
0.0000000e+00 0.0000000e+00 0.0000000e+00 
0.0000000e+00 0.0000000e+00 0.0000000e+00 
-1.5638536e-05 -5.5057408e-06 -2.1784049e-06 
6.4967645e-07 -1.2607887e-06 1.6143019e-06 
0.0000000e+00 1.1512540e-04 0.0000000e+00 
0.0000000e+00 -1.4541656e-05 0.0000000e+00 
5.8798514e-06 -1.4170269e-06 -2.0313770e-05 
-1.1502177e-06 -1.0579608e-06 -1.3842988e-06 
-7.7872764e-06 1.0265879e-05 -9.5787891e-06 
-1.6079133e-06 -4.3503419e-06 -5.1347938e-06 
0.0000000e+00 1.4630085e-04 0.0000000e+00 
0.0000000e+00 -2.1852324e-05 0.0000000e+00 
-4.5647594e-06 6.5473476e-05 3.6799258e-05 
-9.8992286e-06 -1.2918666e-05 -3.1097821e-05 
4.7468475e-05 6.5069864e-05 -1.4354913e-05 
2.0299783e-06 -3.5846624e-05 -5.6881665e-05 
0.0000000e+00 2.0361433e-04 0.0000000e+00 
0.0000000e+00 -2.3813336e-05 0.0000000e+00 
6.8280642e-05 6.5763285e-05 -3.0011808e-05 
-1.0002293e-05 6.8653870e-05 8.9916648e-06 
-3.4555849e-06 6.5607535e-05 6.6100538e-06 
2.3168719e-05 7.6106677e-05 -3.8865765e-06 
5.0933439e-05 1.0665820e-04 -2.6103540e-05 
7.9017016e-05 1.4455261e-04 -4.4887216e-05 
5.1252009e-06 1.8880032e-04 6.2711144e-05 
8.3542345e-06 1.5506454e-04 5.5021712e-05 
-1.9935769e-05 8.9195501e-06 9.0040419e-05 
-1.1289470e-05 -2.3376521e-04 1.0568424e-04 
-7.6258846e-05 -6.0933741e-04 1.2844571e-04 
-7.9582671e-05 -1.1842893e-03 1.4047470e-04 
-1.6334400e-04 -2.0547442e-03 2.6030972e-04 
-1.9591792e-04 -3.0927730e-03 2.9946634e-04 
-9.6282398e-05 -3.9832229e-03 2.4602187e-04 
-1.1989647e-04 -4.0706159e-03 2.4305277e-04 
-2.4622734e-04 -3.8731380e-03 1.6645089e-04 
-3.3335478e-04 -3.8252363e-03 1.1946299e-04 
-2.0414083e-04 -4.1155238e-03 6.0561393e-05 
-4.5173314e-05 -4.2226478e-03 -1.9309127e-05 
-1.0936964e-04 -3.5865225e-03 -1.4893725e-04 
-2.3652134e-04 -2.5673786e-03 -2.2365904e-04 
-2.2897529e-04 -1.6402401e-03 -2.4936409e-04 
-9.3432034e-05 -9.1513502e-04 -2.1100635e-04 
-2.5200443e-05 -4.2865143e-04 -2.2523587e-04 
2.0802705e-05 -1.1108045e-04 -1.7228069e-04 
2.8979723e-05 8.9100489e-05 -1.3456379e-04 
4.7039448e-05 1.9104709e-04 -1.1103879e-04 
2.2494845e-05 2.0838341e-04 -1.2796768e-04 
-5.3296530e-06 1.7830142e-04 -1.0928089e-04 
-1.0761802e-05 1.3579463e-04 -1.0103198e-04 
-1.6092478e-06 9.5881442e-05 -9.9025441e-05 
2.9665041e-05 6.1139661e-05 -3.4412096e-05 
8.3678198e-05 2.4398192e-05 1.4807065e-06 
2.6171696e-05 -2.5214280e-05 3.6022859e-05 
-4.1537905e-06 -7.1714087e-05 8.7462773e-05 
-3.4346194e-05 -1.0394819e-04 7.5403565e-05 
-6.4238331e-05 -1.1409684e-04 7.6203551e-06 
-6.9210670e-05 -1.1002912e-04 -3.0311139e-06 
-9.4929310e-05 -8.3344654e-05 -2.5310268e-05 
7.8241617e-05 -3.8601745e-05 -9.2565097e-05 
8.8007502e-05 2.1219325e-06 -8.8052788e-05 
1.1212634e-04 3.8775670e-05 -8.9463698e-05 
-2.8621553e-05 5.9817718e-05 -1.1944517e-04 
-4.3785255e-07 8.4648418e-05 -2.4102304e-05 
9.7739197e-05 1.3782673e-04 4.1260770e-05 
2.7826683e-05 2.1724681e-04 5.2011390e-05 
6.0379723e-05 2.3531153e-04 1.0592886e-04 
3.4768236e-05 9.6734693e-05 1.0833763e-04 
3.9535393e-05 -2.2263199e-04 1.1359061e-04 
1.5465117e-06 -7.4517407e-04 1.3876277e-04 
-8.7878507e-05 -1.4160732e-03 1.1527327e-04 
-2.0724285e-04 -2.2431365e-03 2.3083136e-04 
-2.6110283e-04 -3.1242282e-03 2.7054088e-04 
-1.0587169e-04 -3.8267539e-03 2.3359952e-04 
-6.9445399e-05 -3.8624504e-03 2.2165617e-04 
-2.1208923e-04 -3.7362624e-03 1.7607209e-04 
-2.5513853e-04 -3.7567469e-03 1.2289266e-04 
-1.6878141e-04 -4.0014489e-03 8.9799505e-05 
-4.4631353e-05 -3.9675809e-03 7.8031539e-05 
-1.1164800e-04 -3.2596695e-03 -6.0364247e-05 
-2.2947104e-04 -2.2733225e-03 -1.3378891e-04 
-2.2623689e-04 -1.4392552e-03 -1.6989940e-04 
-1.0957111e-04 -8.1186520e-04 -1.6532021e-04 
-6.8528614e-05 -3.9364520e-04 -2.2074149e-04 
-4.9862199e-05 -1.3692606e-04 -2.0532563e-04 
-3.6026224e-05 -5.9057475e-06 -2.1238709e-04 
-1.1792027e-05 4.8394209e-05 -2.0698553e-04 
2.1696093e-05 7.3027368e-05 -1.5129804e-04 
4.6963465e-05 9.0677189e-05 -8.4149535e-05 
4.1128813e-05 1.0011567e-04 -3.3498727e-05 
2.7986052e-05 9.3820425e-05 2.1037256e-05 
2.9752237e-05 7.2732364e-05 5.7449015e-05 
2.3962357e-05 4.6003872e-05 7.8393081e-05 
8.7422950e-06 1.7848124e-05 9.7181524e-05 
-7.0203623e-06 -8.5923139e-06 8.9814559e-05 
-1.3767451e-05 -2.9465651e-05 6.6011577e-05 
-1.9418278e-05 -4.0337589e-05 3.3086442e-05 
-1.0960282e-05 -4.0887895e-05 -2.9808918e-06 
0.0000000e+00 -2.9196683e-05 0.0000000e+00 
0.0000000e+00 -1.9600029e-05 0.0000000e+00 
0.0000000e+00 -5.4333896e-06 0.0000000e+00 
0.0000000e+00 1.2319137e-05 0.0000000e+00 
0.0000000e+00 2.9196648e-05 0.0000000e+00 
0.0000000e+00 4.0062005e-05 0.0000000e+00 
0.0000000e+00 4.2249823e-05 0.0000000e+00 
0.0000000e+00 3.6044596e-05 0.0000000e+00 
0.0000000e+00 2.3033705e-05 0.0000000e+00 
0.0000000e+00 5.0504627e-06 0.0000000e+00 
0.0000000e+00 -1.5206198e-05 0.0000000e+00 
0.0000000e+00 -3.3506782e-05 0.0000000e+00 
0.0000000e+00 -4.5115856e-05 0.0000000e+00 
0.0000000e+00 -4.6902118e-05 0.0000000e+00 
0.0000000e+00 -3.8506758e-05 0.0000000e+00 
0.0000000e+00 -2.1830085e-05 0.0000000e+00 
0.0000000e+00 -9.9880232e-08 0.0000000e+00 
0.0000000e+00 2.2269964e-05 0.0000000e+00 
0.0000000e+00 3.9648199e-05 0.0000000e+00 
0.0000000e+00 4.6389527e-05 0.0000000e+00 
0.0000000e+00 6.5446715e-05 0.0000000e+00 
0.0000000e+00 6.6197790e-05 0.0000000e+00 
0.0000000e+00 6.6914115e-05 0.0000000e+00 
0.0000000e+00 6.5361019e-05 0.0000000e+00 
0.0000000e+00 7.6373130e-05 0.0000000e+00 
0.0000000e+00 1.0655029e-04 0.0000000e+00 
0.0000000e+00 1.4960127e-04 0.0000000e+00 
0.0000000e+00 1.8700125e-04 0.0000000e+00 
0.0000000e+00 1.5206548e-04 0.0000000e+00 
0.0000000e+00 1.0517829e-05 0.0000000e+00 
0.0000000e+00 -2.3302299e-04 0.0000000e+00 
0.0000000e+00 -6.0757872e-04 0.0000000e+00 
0.0000000e+00 -1.1932054e-03 0.0000000e+00 
0.0000000e+00 -2.0647403e-03 0.0000000e+00 
0.0000000e+00 -3.1309240e-03 0.0000000e+00 
0.0000000e+00 -4.0048780e-03 0.0000000e+00 
0.0000000e+00 -4.0948302e-03 0.0000000e+00 
0.0000000e+00 -3.8865078e-03 0.0000000e+00 
0.0000000e+00 -3.8601446e-03 0.0000000e+00 
0.0000000e+00 -4.1386792e-03 0.0000000e+00 
0.0000000e+00 -4.2561381e-03 0.0000000e+00 
0.0000000e+00 -3.6032833e-03 0.0000000e+00 
0.0000000e+00 -2.5860711e-03 0.0000000e+00 
0.0000000e+00 -1.6438302e-03 0.0000000e+00 
0.0000000e+00 -9.1928529e-04 0.0000000e+00 
0.0000000e+00 -4.2765326e-04 0.0000000e+00 
0.0000000e+00 -1.0952970e-04 0.0000000e+00 
0.0000000e+00 8.9476351e-05 0.0000000e+00 
0.0000000e+00 1.9039457e-04 0.0000000e+00 
0.0000000e+00 2.0865988e-04 0.0000000e+00 
0.0000000e+00 1.7893111e-04 0.0000000e+00 
0.0000000e+00 1.3613007e-04 0.0000000e+00 
0.0000000e+00 9.6714284e-05 0.0000000e+00 
0.0000000e+00 6.1618965e-05 0.0000000e+00 
0.0000000e+00 2.2854088e-05 0.0000000e+00 
0.0000000e+00 -2.5180683e-05 0.0000000e+00 
0.0000000e+00 -7.1504954e-05 0.0000000e+00 
0.0000000e+00 -1.0333654e-04 0.0000000e+00 
0.0000000e+00 -1.1509894e-04 0.0000000e+00 
0.0000000e+00 -1.0966776e-04 0.0000000e+00 
0.0000000e+00 -8.2565530e-05 0.0000000e+00 
0.0000000e+00 -3.9406281e-05 0.0000000e+00 
0.0000000e+00 3.0494075e-06 0.0000000e+00 
0.0000000e+00 3.6963163e-05 0.0000000e+00 
0.0000000e+00 5.8694255e-05 0.0000000e+00 
0.0000000e+00 8.5774802e-05 0.0000000e+00 
0.0000000e+00 1.4206952e-04 0.0000000e+00 
0.0000000e+00 2.1856654e-04 0.0000000e+00 
0.0000000e+00 2.3284205e-04 0.0000000e+00 
0.0000000e+00 9.6030461e-05 0.0000000e+00 
0.0000000e+00 -2.2775878e-04 0.0000000e+00 
0.0000000e+00 -7.4299827e-04 0.0000000e+00 
0.0000000e+00 -1.4203538e-03 0.0000000e+00 
0.0000000e+00 -2.2519815e-03 0.0000000e+00 
0.0000000e+00 -3.1617947e-03 0.0000000e+00 
0.0000000e+00 -3.8511187e-03 0.0000000e+00 
0.0000000e+00 -3.8906955e-03 0.0000000e+00 
0.0000000e+00 -3.7487675e-03 0.0000000e+00 
0.0000000e+00 -3.7865539e-03 0.0000000e+00 
0.0000000e+00 -4.0221172e-03 0.0000000e+00 
0.0000000e+00 -4.0017841e-03 0.0000000e+00 
0.0000000e+00 -3.2774082e-03 0.0000000e+00 
0.0000000e+00 -2.2911113e-03 0.0000000e+00 
0.0000000e+00 -1.4412440e-03 0.0000000e+00 
0.0000000e+00 -8.1381417e-04 0.0000000e+00 
0.0000000e+00 -3.9333646e-04 0.0000000e+00 
0.0000000e+00 -1.3741023e-04 0.0000000e+00 
0.0000000e+00 -5.4730626e-06 0.0000000e+00 
0.0000000e+00 4.9863556e-05 0.0000000e+00 
0.0000000e+00 7.4097014e-05 0.0000000e+00 
0.0000000e+00 9.0739188e-05 0.0000000e+00 
0.0000000e+00 9.9720404e-05 0.0000000e+00 
0.0000000e+00 9.3557850e-05 0.0000000e+00 
0.0000000e+00 7.2981500e-05 0.0000000e+00 
0.0000000e+00 4.5991252e-05 0.0000000e+00 
0.0000000e+00 1.7802740e-05 0.0000000e+00 
0.0000000e+00 -8.5215388e-06 0.0000000e+00 
0.0000000e+00 -2.9199779e-05 0.0000000e+00 
0.0000000e+00 -4.0163632e-05 0.0000000e+00 
0.0000000e+00 -4.1042189e-05 0.0000000e+00 
0.0000000e+00 -3.6138674e-05 0.0000000e+00 
0.0000000e+00 -2.9154182e-05 0.0000000e+00 
0.0000000e+00 -1.9418610e-05 0.0000000e+00 
0.0000000e+00 -5.2801852e-06 0.0000000e+00 
0.0000000e+00 1.2306332e-05 0.0000000e+00 
0.0000000e+00 2.9058519e-05 0.0000000e+00 
0.0000000e+00 3.9941639e-05 0.0000000e+00 
0.0000000e+00 4.2214491e-05 0.0000000e+00 
0.0000000e+00 3.6034424e-05 0.0000000e+00 
0.0000000e+00 2.2977976e-05 0.0000000e+00 
0.0000000e+00 4.9779551e-06 0.0000000e+00 
0.0000000e+00 -1.5206387e-05 0.0000000e+00 
0.0000000e+00 -3.3408065e-05 0.0000000e+00 
0.0000000e+00 -4.4990957e-05 0.0000000e+00 
0.0000000e+00 -4.6829748e-05 0.0000000e+00 
0.0000000e+00 -3.8479218e-05 0.0000000e+00 
0.0000000e+00 -2.1785354e-05 0.0000000e+00 
0.0000000e+00 -2.9678645e-08 0.0000000e+00 
0.0000000e+00 2.2288512e-05 0.0000000e+00 
0.0000000e+00 3.9548944e-05 0.0000000e+00 
0.0000000e+00 4.6223064e-05 0.0000000e+00 
0.0000000e+00 9.8856486e-05 0.0000000e+00 
5.5648802e-06 3.0989406e-05 3.6104459e-06 
2.8744435e-05 9.6598087e-05 1.9935278e-05 
0.0000000e+00 0.0000000e+00 0.0000000e+00 
0.0000000e+00 0.0000000e+00 0.0000000e+00 
0.0000000e+00 0.0000000e+00 0.0000000e+00 
0.0000000e+00 0.0000000e+00 0.0000000e+00 
0.0000000e+00 0.0000000e+00 0.0000000e+00 
0.0000000e+00 0.0000000e+00 0.0000000e+00 
0.0000000e+00 0.0000000e+00 0.0000000e+00 
0.0000000e+00 0.0000000e+00 0.0000000e+00 
0.0000000e+00 0.0000000e+00 0.0000000e+00 
0.0000000e+00 0.0000000e+00 0.0000000e+00 
0.0000000e+00 0.0000000e+00 0.0000000e+00 
0.0000000e+00 0.0000000e+00 0.0000000e+00 
0.0000000e+00 0.0000000e+00 0.0000000e+00 
0.0000000e+00 0.0000000e+00 0.0000000e+00 
0.0000000e+00 0.0000000e+00 0.0000000e+00 
0.0000000e+00 0.0000000e+00 0.0000000e+00 
0.0000000e+00 0.0000000e+00 0.0000000e+00 
0.0000000e+00 0.0000000e+00 0.0000000e+00 
0.0000000e+00 0.0000000e+00 0.0000000e+00 
0.0000000e+00 0.0000000e+00 0.0000000e+00 
0.0000000e+00 0.0000000e+00 0.0000000e+00 
0.0000000e+00 0.0000000e+00 0.0000000e+00 
0.0000000e+00 0.0000000e+00 0.0000000e+00 
0.0000000e+00 0.0000000e+00 0.0000000e+00 
0.0000000e+00 0.0000000e+00 0.0000000e+00 
0.0000000e+00 0.0000000e+00 0.0000000e+00 
0.0000000e+00 0.0000000e+00 0.0000000e+00 
0.0000000e+00 0.0000000e+00 0.0000000e+00 
0.0000000e+00 0.0000000e+00 0.0000000e+00 
0.0000000e+00 0.0000000e+00 0.0000000e+00 
0.0000000e+00 0.0000000e+00 0.0000000e+00 
0.0000000e+00 0.0000000e+00 0.0000000e+00 
0.0000000e+00 0.0000000e+00 0.0000000e+00 
0.0000000e+00 0.0000000e+00 0.0000000e+00 
0.0000000e+00 0.0000000e+00 0.0000000e+00 
0.0000000e+00 0.0000000e+00 0.0000000e+00 
0.0000000e+00 0.0000000e+00 0.0000000e+00 
0.0000000e+00 0.0000000e+00 0.0000000e+00 
0.0000000e+00 0.0000000e+00 0.0000000e+00 
0.0000000e+00 0.0000000e+00 0.0000000e+00 
0.0000000e+00 0.0000000e+00 0.0000000e+00 
0.0000000e+00 0.0000000e+00 0.0000000e+00 
3.4634247e-06 1.2544028e-05 -1.7792019e-05 
9.3562257e-06 1.5017855e-05 -8.4355588e-06 
2.6515478e-05 1.9573497e-05 -1.9065588e-05 
4.1599294e-05 -1.6233849e-05 -8.6909940e-06 
4.6598689e-05 -2.1954209e-05 1.3799987e-05 
1.1784617e-05 -1.1012075e-05 4.5612678e-06 
-6.6044690e-06 1.5329957e-06 -1.2530330e-05 
-4.3460468e-06 1.6476990e-05 1.5293430e-05 
-3.1345546e-06 1.9045587e-05 1.5366485e-06 
-2.2763768e-06 3.9622544e-05 -3.2372041e-06 
-3.9652941e-06 5.2658761e-05 3.1046134e-06 
2.0410278e-06 2.2105236e-05 -2.4340561e-06 
2.0696230e-05 1.1095131e-05 -1.0099845e-05 
3.5186662e-05 -6.7655296e-06 2.3245254e-06 
3.8700458e-05 -2.0444835e-05 -2.3582350e-06 
1.9179301e-05 -1.0534696e-05 -3.7056770e-07 
6.9106982e-06 6.6197908e-06 7.3927486e-06 
-3.6289989e-06 5.7526950e-06 3.3046215e-06 
1.2237078e-06 -2.5437630e-06 7.1075698e-07 
0.0000000e+00 1.8626527e-04 0.0000000e+00 
0.0000000e+00 8.7612170e-05 0.0000000e+00 
0.0000000e+00 -9.7384891e-06 0.0000000e+00 
0.0000000e+00 -4.8729533e-04 0.0000000e+00 
0.0000000e+00 -5.3886924e-04 0.0000000e+00 
0.0000000e+00 -2.5891818e-04 0.0000000e+00 
0.0000000e+00 3.2685584e-05 0.0000000e+00 
0.0000000e+00 9.2958238e-05 0.0000000e+00 
0.0000000e+00 1.0749101e-04 0.0000000e+00 
0.0000000e+00 1.6837998e-04 0.0000000e+00 
0.0000000e+00 1.9004833e-04 0.0000000e+00 
0.0000000e+00 1.8470280e-04 0.0000000e+00 
0.0000000e+00 -4.9438437e-05 0.0000000e+00 
0.0000000e+00 -4.5998881e-04 0.0000000e+00 
0.0000000e+00 -5.1988498e-04 0.0000000e+00 
0.0000000e+00 -1.9388061e-04 0.0000000e+00 
0.0000000e+00 5.4130692e-06 0.0000000e+00 
0.0000000e+00 5.2436364e-05 0.0000000e+00 
0.0000000e+00 -1.3825312e-05 0.0000000e+00 
2.0602140e-06 1.1684650e-05 -8.8680044e-06 
-8.5559222e-06 1.6580538e-05 3.2364831e-06 
-1.1528159e-07 -1.9462304e-06 -2.5230863e-06 
1.3597481e-06 -1.0381790e-05 2.6489963e-06 
-1.3692290e-05 2.2691720e-05 -1.7620529e-05 
1.8028721e-05 2.8810684e-05 -2.2575583e-05 
3.2710304e-05 3.6277150e-05 -1.1116472e-05 
4.8835082e-05 -6.3304251e-06 1.9892859e-06 
4.0933890e-05 -2.9560249e-05 2.1319569e-05 
3.2535741e-06 -8.8598745e-06 -1.1846141e-05 
4.1057401e-06 -2.0753014e-07 -3.2085180e-05 
1.7485985e-05 1.2452620e-05 1.6887378e-05 
1.1879311e-05 2.3203100e-05 2.4481949e-06 
-5.3015337e-06 5.4131251e-05 -5.2333035e-06 
2.9187902e-07 6.7603505e-05 -1.1840992e-05 
3.2445507e-05 3.3701832e-05 3.4485452e-06 
4.3458022e-05 1.5532325e-05 8.2788547e-06 
3.7666148e-05 -8.7240978e-06 1.7579381e-05 
2.5029443e-05 -2.1390044e-05 8.4956713e-07 
2.7738442e-06 -9.6473495e-06 -1.3136284e-05 
6.2160539e-06 6.7704254e-06 -3.5099749e-06 
7.6151883e-07 4.6056120e-06 5.1663051e-06 
1.9852416e-06 -1.4694783e-06 4.4151370e-06 
1.7005312e-05 5.3808533e-05 -1.6189808e-05 
0.0000000e+00 2.8505080e-04 0.0000000e+00 
0.0000000e+00 2.4028750e-04 0.0000000e+00 
0.0000000e+00 -2.1211847e-04 0.0000000e+00 
0.0000000e+00 -1.1115399e-03 0.0000000e+00 
0.0000000e+00 -1.1755690e-03 0.0000000e+00 
0.0000000e+00 -4.5162378e-04 0.0000000e+00 
0.0000000e+00 8.0352998e-05 0.0000000e+00 
0.0000000e+00 1.5534733e-04 0.0000000e+00 
0.0000000e+00 9.9136407e-05 0.0000000e+00 
0.0000000e+00 1.7946937e-04 0.0000000e+00 
0.0000000e+00 3.6154184e-04 0.0000000e+00 
0.0000000e+00 2.8974903e-04 0.0000000e+00 
0.0000000e+00 -2.6865161e-04 0.0000000e+00 
0.0000000e+00 -1.0349648e-03 0.0000000e+00 
0.0000000e+00 -1.1159214e-03 0.0000000e+00 
0.0000000e+00 -3.4265849e-04 0.0000000e+00 
0.0000000e+00 1.2103647e-05 0.0000000e+00 
0.0000000e+00 8.3256207e-05 0.0000000e+00 
0.0000000e+00 -2.4377056e-05 0.0000000e+00 
-3.7185628e-06 -1.6100377e-05 4.6092068e-06 
4.6747435e-05 6.4237895e-05 -3.6970952e-05 
3.7626811e-05 3.3462089e-05 9.2405819e-05 
-2.4253661e-04 -3.1784736e-04 2.9253415e-04 
-6.2734052e-04 -1.2924436e-03 2.3399327e-04 
-5.9230038e-04 -1.4263254e-03 -7.4415475e-05 
-1.7722418e-04 -2.9363518e-04 -4.0578214e-04 
6.0931354e-05 7.7915276e-05 -1.2530388e-04 
-8.1998733e-06 1.8126433e-05 -6.6598564e-05 
-1.0547828e-04 -6.1566876e-05 2.3942837e-04 
-1.0568162e-04 -1.9512122e-04 -3.9657210e-05 
-2.8830995e-05 -8.3063547e-05 -1.5498386e-04 
-1.2493903e-05 1.6182195e-04 3.8661492e-05 
-2.4988019e-04 -4.1504941e-04 2.3682545e-04 
-5.5586663e-04 -1.1708314e-03 1.8351205e-04 
-5.8375130e-04 -1.3445170e-03 8.6504355e-05 
-1.8415113e-04 -2.8246755e-04 -2.7268249e-04 
1.9357331e-05 7.0573979e-06 -2.4353129e-04 
3.9710110e-05 8.3558181e-05 1.8827810e-05 
-6.5708714e-06 -1.3941893e-05 1.1538665e-04 
0.0000000e+00 3.6858610e-04 0.0000000e+00 
0.0000000e+00 3.1478520e-04 0.0000000e+00 
0.0000000e+00 -4.9563876e-04 0.0000000e+00 
0.0000000e+00 -2.2767044e-03 0.0000000e+00 
0.0000000e+00 -2.2213962e-03 0.0000000e+00 
0.0000000e+00 -6.8849133e-04 0.0000000e+00 
0.0000000e+00 1.9713469e-04 0.0000000e+00 
0.0000000e+00 2.0229237e-04 0.0000000e+00 
0.0000000e+00 1.1507818e-05 0.0000000e+00 
0.0000000e+00 1.5306979e-04 0.0000000e+00 
0.0000000e+00 2.5467601e-04 0.0000000e+00 
0.0000000e+00 2.3134556e-04 0.0000000e+00 
0.0000000e+00 -6.8682263e-04 0.0000000e+00 
0.0000000e+00 -2.1371210e-03 0.0000000e+00 
0.0000000e+00 -2.1047376e-03 0.0000000e+00 
0.0000000e+00 -5.1790982e-04 0.0000000e+00 
0.0000000e+00 3.3059878e-05 0.0000000e+00 
0.0000000e+00 9.6695097e-05 0.0000000e+00 
0.0000000e+00 -2.8581160e-05 0.0000000e+00 
2.0451667e-05 -1.8854286e-06 1.4549957e-05 
5.9173952e-05 2.3966517e-05 8.8025472e-06 
4.1124451e-05 1.0563521e-05 3.1999884e-06 
5.8129459e-05 -7.8949110e-05 1.0792088e-07 
2.9894703e-05 -1.1903414e-04 1.5615948e-05 
2.5490293e-05 -5.8993919e-05 -2.6061964e-05 
4.7697981e-06 3.3252611e-05 -5.2826956e-05 
2.6925993e-05 4.0605486e-05 -4.4345206e-06 
-5.5584278e-06 2.3363978e-05 2.0666188e-05 
4.3147080e-05 -2.8160624e-05 -4.4678949e-05 
4.3950480e-05 3.9547813e-06 1.0094329e-05 
4.2556996e-05 7.2671319e-05 1.0610518e-05 
8.5985877e-05 2.8823968e-06 1.1507451e-05 
7.2550196e-05 -5.2747928e-05 3.3903110e-05 
2.9909537e-05 -9.8457407e-05 2.3984116e-05 
1.1358418e-05 -8.3734798e-05 -2.3521521e-05 
1.3416858e-06 1.7504595e-05 -4.4729219e-05 
1.5735727e-06 -4.7948947e-06 1.7004299e-05 
2.7616275e-05 6.6705848e-05 8.9963423e-06 
0.0000000e+00 0.0000000e+00 0.0000000e+00 
0.0000000e+00 0.0000000e+00 0.0000000e+00 
0.0000000e+00 0.0000000e+00 0.0000000e+00 
0.0000000e+00 0.0000000e+00 0.0000000e+00 
0.0000000e+00 0.0000000e+00 0.0000000e+00 
0.0000000e+00 0.0000000e+00 0.0000000e+00 
0.0000000e+00 0.0000000e+00 0.0000000e+00 
0.0000000e+00 0.0000000e+00 0.0000000e+00 
0.0000000e+00 0.0000000e+00 0.0000000e+00 
0.0000000e+00 0.0000000e+00 0.0000000e+00 
0.0000000e+00 0.0000000e+00 0.0000000e+00 
0.0000000e+00 0.0000000e+00 0.0000000e+00 
0.0000000e+00 0.0000000e+00 0.0000000e+00 
0.0000000e+00 0.0000000e+00 0.0000000e+00 
0.0000000e+00 0.0000000e+00 0.0000000e+00 
0.0000000e+00 0.0000000e+00 0.0000000e+00 
0.0000000e+00 0.0000000e+00 0.0000000e+00 
0.0000000e+00 0.0000000e+00 0.0000000e+00 
0.0000000e+00 0.0000000e+00 0.0000000e+00 
0.0000000e+00 0.0000000e+00 0.0000000e+00 
0.0000000e+00 0.0000000e+00 0.0000000e+00 
0.0000000e+00 0.0000000e+00 0.0000000e+00 
0.0000000e+00 0.0000000e+00 0.0000000e+00 
0.0000000e+00 0.0000000e+00 0.0000000e+00 
0.0000000e+00 0.0000000e+00 0.0000000e+00 
0.0000000e+00 0.0000000e+00 0.0000000e+00 
0.0000000e+00 0.0000000e+00 0.0000000e+00 
0.0000000e+00 0.0000000e+00 0.0000000e+00 
0.0000000e+00 0.0000000e+00 0.0000000e+00 
0.0000000e+00 0.0000000e+00 0.0000000e+00 
0.0000000e+00 0.0000000e+00 0.0000000e+00 
0.0000000e+00 0.0000000e+00 0.0000000e+00 
0.0000000e+00 0.0000000e+00 0.0000000e+00 
0.0000000e+00 0.0000000e+00 0.0000000e+00 
0.0000000e+00 0.0000000e+00 0.0000000e+00 
0.0000000e+00 0.0000000e+00 0.0000000e+00 
0.0000000e+00 0.0000000e+00 0.0000000e+00 
0.0000000e+00 0.0000000e+00 0.0000000e+00 
0.0000000e+00 0.0000000e+00 0.0000000e+00 
0.0000000e+00 0.0000000e+00 0.0000000e+00 
0.0000000e+00 0.0000000e+00 0.0000000e+00 
0.0000000e+00 0.0000000e+00 0.0000000e+00 
-4.9066739e-06 -1.8974257e-06 -3.0959984e-06 
-8.3434179e-07 -6.2014537e-06 -7.0954496e-07 
-7.5668891e-06 8.6281871e-06 8.5143228e-07 
-3.0294032e-06 1.8261426e-05 5.3903221e-07 
-4.8335905e-06 3.4379973e-06 -4.7538338e-06 
1.4113905e-05 3.9174415e-07 -3.5277453e-06 
1.7845963e-05 -1.4287119e-05 -2.9312791e-06 
1.8880764e-05 -1.3595977e-05 9.9503881e-09 
6.9181706e-06 -1.0778743e-06 3.3678418e-06 