# vtk DataFile Version 4.0
vtk output
ASCII
DATASET UNSTRUCTURED_GRID
POINTS 662 float
0.0000000e+00 0.0000000e+00 0.0000000e+00 
0.0000000e+00 0.0000000e+00 4.0000000e+01 
5.0000000e+00 0.0000000e+00 0.0000000e+00 
5.0000000e+00 0.0000000e+00 4.0000000e+01 
5.0000000e+00 1.0000000e+00 0.0000000e+00 
5.0000000e+00 1.0000000e+00 4.0000000e+01 
0.0000000e+00 1.0000000e+00 0.0000000e+00 
0.0000000e+00 1.0000000e+00 4.0000000e+01 
5.0000000e+00 2.0000000e+00 0.0000000e+00 
5.0000000e+00 2.0000000e+00 4.0000000e+01 
3.0000000e+00 2.0000000e+00 0.0000000e+00 
3.0000000e+00 2.0000000e+00 4.0000000e+01 
0.0000000e+00 2.0000000e+00 0.0000000e+00 
0.0000000e+00 2.0000000e+00 4.0000000e+01 
1.5000000e+00 3.0000000e+00 0.0000000e+00 
1.5000000e+00 3.0000000e+00 4.0000000e+01 
7.5000000e-01 3.0000000e+00 0.0000000e+00 
7.5000000e-01 3.0000000e+00 4.0000000e+01 
0.0000000e+00 3.0000000e+00 0.0000000e+00 
0.0000000e+00 3.0000000e+00 4.0000000e+01 
7.5000000e-01 3.0000000e+00 5.0000000e-01 
7.5000000e-01 3.0000000e+00 1.0000000e+00 
7.5000000e-01 3.0000000e+00 1.5000000e+00 
7.5000000e-01 3.0000000e+00 2.0000000e+00 
7.5000000e-01 3.0000000e+00 2.5000000e+00 
7.5000000e-01 3.0000000e+00 3.0000000e+00 
7.5000000e-01 3.0000000e+00 3.5000000e+00 
7.5000000e-01 3.0000000e+00 4.0000000e+00 
7.5000000e-01 3.0000000e+00 4.5000000e+00 
7.5000000e-01 3.0000000e+00 5.0000000e+00 
7.5000000e-01 3.0000000e+00 5.5000000e+00 
7.5000000e-01 3.0000000e+00 6.0000000e+00 
7.5000000e-01 3.0000000e+00 6.5000000e+00 
7.5000000e-01 3.0000000e+00 7.0000000e+00 
7.5000000e-01 3.0000000e+00 7.5000000e+00 
7.5000000e-01 3.0000000e+00 8.0000000e+00 
7.5000000e-01 3.0000000e+00 8.5000000e+00 
7.5000000e-01 3.0000000e+00 9.0000000e+00 
7.5000000e-01 3.0000000e+00 9.5000000e+00 
7.5000000e-01 3.0000000e+00 1.0000000e+01 
7.5000000e-01 3.0000000e+00 1.0500000e+01 
7.5000000e-01 3.0000000e+00 1.1000000e+01 
7.5000000e-01 3.0000000e+00 1.1500000e+01 
7.5000000e-01 3.0000000e+00 1.2000000e+01 
7.5000000e-01 3.0000000e+00 1.2500000e+01 
7.5000000e-01 3.0000000e+00 1.3000000e+01 
7.5000000e-01 3.0000000e+00 1.3500000e+01 
7.5000000e-01 3.0000000e+00 1.4000000e+01 
7.5000000e-01 3.0000000e+00 1.4500000e+01 
7.5000000e-01 3.0000000e+00 1.5000000e+01 
7.5000000e-01 3.0000000e+00 1.5500000e+01 
7.5000000e-01 3.0000000e+00 1.6000000e+01 
7.5000000e-01 3.0000000e+00 1.6500000e+01 
7.5000000e-01 3.0000000e+00 1.7000000e+01 
7.5000000e-01 3.0000000e+00 1.7500000e+01 
7.5000000e-01 3.0000000e+00 1.8000000e+01 
7.5000000e-01 3.0000000e+00 1.8500000e+01 
7.5000000e-01 3.0000000e+00 1.9000000e+01 
7.5000000e-01 3.0000000e+00 1.9500000e+01 
7.5000000e-01 3.0000000e+00 2.0000000e+01 
7.5000000e-01 3.0000000e+00 2.0500000e+01 
7.5000000e-01 3.0000000e+00 2.1000000e+01 
7.5000000e-01 3.0000000e+00 2.1500000e+01 
7.5000000e-01 3.0000000e+00 2.2000000e+01 
7.5000000e-01 3.0000000e+00 2.2500000e+01 
7.5000000e-01 3.0000000e+00 2.3000000e+01 
7.5000000e-01 3.0000000e+00 2.3500000e+01 
7.5000000e-01 3.0000000e+00 2.4000000e+01 
7.5000000e-01 3.0000000e+00 2.4500000e+01 
7.5000000e-01 3.0000000e+00 2.5000000e+01 
7.5000000e-01 3.0000000e+00 2.5500000e+01 
7.5000000e-01 3.0000000e+00 2.6000000e+01 
7.5000000e-01 3.0000000e+00 2.6500000e+01 
7.5000000e-01 3.0000000e+00 2.7000000e+01 
7.5000000e-01 3.0000000e+00 2.7500000e+01 
7.5000000e-01 3.0000000e+00 2.8000000e+01 
7.5000000e-01 3.0000000e+00 2.8500000e+01 
7.5000000e-01 3.0000000e+00 2.9000000e+01 
7.5000000e-01 3.0000000e+00 2.9500000e+01 
7.5000000e-01 3.0000000e+00 3.0000000e+01 
7.5000000e-01 3.0000000e+00 3.0500000e+01 
7.5000000e-01 3.0000000e+00 3.1000000e+01 
7.5000000e-01 3.0000000e+00 3.1500000e+01 
7.5000000e-01 3.0000000e+00 3.2000000e+01 
7.5000000e-01 3.0000000e+00 3.2500000e+01 
7.5000000e-01 3.0000000e+00 3.3000000e+01 
7.5000000e-01 3.0000000e+00 3.3500000e+01 
7.5000000e-01 3.0000000e+00 3.4000000e+01 
7.5000000e-01 3.0000000e+00 3.4500000e+01 
7.5000000e-01 3.0000000e+00 3.5000000e+01 
7.5000000e-01 3.0000000e+00 3.5500000e+01 
7.5000000e-01 3.0000000e+00 3.6000000e+01 
7.5000000e-01 3.0000000e+00 3.6500000e+01 
7.5000000e-01 3.0000000e+00 3.7000000e+01 
7.5000000e-01 3.0000000e+00 3.7500000e+01 
7.5000000e-01 3.0000000e+00 3.8000000e+01 
7.5000000e-01 3.0000000e+00 3.8500000e+01 
7.5000000e-01 3.0000000e+00 3.9000000e+01 
7.5000000e-01 3.0000000e+00 3.9500000e+01 
7.5000000e-01 3.0000000e+00 4.0500000e+01 
7.5000000e-01 3.0000000e+00 4.1000000e+01 
7.5000000e-01 3.0000000e+00 4.1500000e+01 
7.5000000e-01 3.0000000e+00 4.2000000e+01 
7.5000000e-01 3.0000000e+00 4.2500000e+01 
7.5000000e-01 3.0000000e+00 4.3000000e+01 
7.5000000e-01 3.0000000e+00 4.3500000e+01 
7.5000000e-01 3.0000000e+00 4.4000000e+01 
7.5000000e-01 3.0000000e+00 4.4500000e+01 
7.5000000e-01 3.0000000e+00 4.5000000e+01 
7.5000000e-01 3.0000000e+00 4.5500000e+01 
7.5000000e-01 3.0000000e+00 4.6000000e+01 
7.5000000e-01 3.0000000e+00 4.6500000e+01 
7.5000000e-01 3.0000000e+00 4.7000000e+01 
7.5000000e-01 3.0000000e+00 4.7500000e+01 
7.5000000e-01 3.0000000e+00 4.8000000e+01 
7.5000000e-01 3.0000000e+00 4.8500000e+01 
7.5000000e-01 3.0000000e+00 4.9000000e+01 
7.5000000e-01 3.0000000e+00 4.9500000e+01 
7.5000000e-01 3.0000000e+00 5.0000000e+01 
7.5000000e-01 3.0250001e+00 0.0000000e+00 
7.5000000e-01 3.0250001e+00 5.0000000e-01 
7.5000000e-01 3.0250001e+00 1.0000000e+00 
7.5000000e-01 3.0250001e+00 1.5000000e+00 
7.5000000e-01 3.0250001e+00 2.0000000e+00 
7.5000000e-01 3.0250001e+00 2.5000000e+00 
7.5000000e-01 3.0250001e+00 3.0000000e+00 
7.5000000e-01 3.0250001e+00 3.5000000e+00 
7.5000000e-01 3.0250001e+00 4.0000000e+00 
7.5000000e-01 3.0250001e+00 4.5000000e+00 
7.5000000e-01 3.0250001e+00 5.0000000e+00 
7.5000000e-01 3.0250001e+00 5.5000000e+00 
7.5000000e-01 3.0250001e+00 6.0000000e+00 
7.5000000e-01 3.0250001e+00 6.5000000e+00 
7.5000000e-01 3.0250001e+00 7.0000000e+00 
7.5000000e-01 3.0250001e+00 7.5000000e+00 
7.5000000e-01 3.0250001e+00 8.0000000e+00 
7.5000000e-01 3.0250001e+00 8.5000000e+00 
7.5000000e-01 3.0250001e+00 9.0000000e+00 
7.5000000e-01 3.0250001e+00 9.5000000e+00 
7.5000000e-01 3.0250001e+00 1.0000000e+01 
7.5000000e-01 3.0250001e+00 1.0500000e+01 
7.5000000e-01 3.0250001e+00 1.1000000e+01 
7.5000000e-01 3.0250001e+00 1.1500000e+01 
7.5000000e-01 3.0250001e+00 1.2000000e+01 
7.5000000e-01 3.0250001e+00 1.2500000e+01 
7.5000000e-01 3.0250001e+00 1.3000000e+01 
7.5000000e-01 3.0250001e+00 1.3500000e+01 
7.5000000e-01 3.0250001e+00 1.4000000e+01 
7.5000000e-01 3.0250001e+00 1.4500000e+01 
7.5000000e-01 3.0250001e+00 1.5000000e+01 
7.5000000e-01 3.0250001e+00 1.5500000e+01 
7.5000000e-01 3.0250001e+00 1.6000000e+01 
7.5000000e-01 3.0250001e+00 1.6500000e+01 
7.5000000e-01 3.0250001e+00 1.7000000e+01 
7.5000000e-01 3.0250001e+00 1.7500000e+01 
7.5000000e-01 3.0250001e+00 1.8000000e+01 
7.5000000e-01 3.0250001e+00 1.8500000e+01 
7.5000000e-01 3.0250001e+00 1.9000000e+01 
7.5000000e-01 3.0250001e+00 1.9500000e+01 
7.5000000e-01 3.0250001e+00 2.0000000e+01 
7.5000000e-01 3.0250001e+00 2.0500000e+01 
7.5000000e-01 3.0250001e+00 2.1000000e+01 
7.5000000e-01 3.0250001e+00 2.1500000e+01 
7.5000000e-01 3.0250001e+00 2.2000000e+01 
7.5000000e-01 3.0250001e+00 2.2500000e+01 
7.5000000e-01 3.0250001e+00 2.3000000e+01 
7.5000000e-01 3.0250001e+00 2.3500000e+01 
7.5000000e-01 3.0250001e+00 2.4000000e+01 
7.5000000e-01 3.0250001e+00 2.4500000e+01 
7.5000000e-01 3.0250001e+00 2.5000000e+01 
7.5000000e-01 3.0250001e+00 2.5500000e+01 
7.5000000e-01 3.0250001e+00 2.6000000e+01 
7.5000000e-01 3.0250001e+00 2.6500000e+01 
7.5000000e-01 3.0250001e+00 2.7000000e+01 
7.5000000e-01 3.0250001e+00 2.7500000e+01 
7.5000000e-01 3.0250001e+00 2.8000000e+01 
7.5000000e-01 3.0250001e+00 2.8500000e+01 
7.5000000e-01 3.0250001e+00 2.9000000e+01 
7.5000000e-01 3.0250001e+00 2.9500000e+01 
7.5000000e-01 3.0250001e+00 3.0000000e+01 
7.5000000e-01 3.0250001e+00 3.0500000e+01 
7.5000000e-01 3.0250001e+00 3.1000000e+01 
7.5000000e-01 3.0250001e+00 3.1500000e+01 
7.5000000e-01 3.0250001e+00 3.2000000e+01 
7.5000000e-01 3.0250001e+00 3.2500000e+01 
7.5000000e-01 3.0250001e+00 3.3000000e+01 
7.5000000e-01 3.0250001e+00 3.3500000e+01 
7.5000000e-01 3.0250001e+00 3.4000000e+01 
7.5000000e-01 3.0250001e+00 3.4500000e+01 
7.5000000e-01 3.0250001e+00 3.5000000e+01 
7.5000000e-01 3.0250001e+00 3.5500000e+01 
7.5000000e-01 3.0250001e+00 3.6000000e+01 
7.5000000e-01 3.0250001e+00 3.6500000e+01 
7.5000000e-01 3.0250001e+00 3.7000000e+01 
7.5000000e-01 3.0250001e+00 3.7500000e+01 
7.5000000e-01 3.0250001e+00 3.8000000e+01 
7.5000000e-01 3.0250001e+00 3.8500000e+01 
7.5000000e-01 3.0250001e+00 3.9000000e+01 
7.5000000e-01 3.0250001e+00 3.9500000e+01 
7.5000000e-01 3.0250001e+00 4.0000000e+01 
7.5000000e-01 3.0250001e+00 4.0500000e+01 
7.5000000e-01 3.0250001e+00 4.1000000e+01 
7.5000000e-01 3.0250001e+00 4.1500000e+01 
7.5000000e-01 3.0250001e+00 4.2000000e+01 
7.5000000e-01 3.0250001e+00 4.2500000e+01 
7.5000000e-01 3.0250001e+00 4.3000000e+01 
7.5000000e-01 3.0250001e+00 4.3500000e+01 
7.5000000e-01 3.0250001e+00 4.4000000e+01 
7.5000000e-01 3.0250001e+00 4.4500000e+01 
7.5000000e-01 3.0250001e+00 4.5000000e+01 
7.5000000e-01 3.0250001e+00 4.5500000e+01 
7.5000000e-01 3.0250001e+00 4.6000000e+01 
7.5000000e-01 3.0250001e+00 4.6500000e+01 
7.5000000e-01 3.0250001e+00 4.7000000e+01 
7.5000000e-01 3.0250001e+00 4.7500000e+01 
7.5000000e-01 3.0250001e+00 4.8000000e+01 
7.5000000e-01 3.0250001e+00 4.8500000e+01 
7.5000000e-01 3.0250001e+00 4.9000000e+01 
7.5000000e-01 3.0250001e+00 4.9500000e+01 
7.5000000e-01 3.0250001e+00 5.0000000e+01 
7.5000000e-01 3.0250001e+00 3.5750000e+01 
3.0000000e+00 2.0000000e+00 3.6000000e+01 
8.0487806e-01 3.0000000e+00 3.6000000e+01 
0.0000000e+00 0.0000000e+00 2.0000000e+00 
0.0000000e+00 0.0000000e+00 4.0000000e+00 
0.0000000e+00 0.0000000e+00 6.0000000e+00 
0.0000000e+00 0.0000000e+00 8.0000000e+00 
0.0000000e+00 0.0000000e+00 1.0000000e+01 
0.0000000e+00 0.0000000e+00 1.2000000e+01 
0.0000000e+00 0.0000000e+00 1.4000000e+01 
[...]
POINT_DATA 662
FIELD FieldData 3
DISPLACEMENT 3 662  float
0.0000000e+00 0.0000000e+00 0.0000000e+00 
0.0000000e+00 0.0000000e+00 0.0000000e+00 
0.0000000e+00 0.0000000e+00 0.0000000e+00 
0.0000000e+00 0.0000000e+00 0.0000000e+00 
1.2741457e-05 -2.0680847e-05 -2.9909201e-05 
-1.6475515e-07 -7.0038794e-07 -2.8786868e-08 
0.0000000e+00 -6.0608523e-05 0.0000000e+00 
0.0000000e+00 -1.6200329e-06 0.0000000e+00 
1.8601506e-05 -2.8699365e-05 -5.2089235e-05 
-3.6045509e-07 -8.7240329e-07 9.0354837e-07 
4.4917924e-06 -1.3572013e-05 -2.4310119e-05 
-5.5826405e-07 -1.9444660e-06 3.2160563e-07 
0.0000000e+00 -6.0955826e-05 0.0000000e+00 
0.0000000e+00 -3.9791248e-06 0.0000000e+00 
5.2882151e-05 5.8604852e-05 1.1101107e-04 
-6.0032198e-07 -9.2332057e-06 -2.3191549e-06 
3.8390554e-05 9.8926292e-05 2.5497912e-04 
4.7956797e-07 -7.6402748e-06 -6.1721738e-07 
0.0000000e+00 2.6387435e-05 0.0000000e+00 
0.0000000e+00 -6.4282926e-06 0.0000000e+00 
-3.1483127e-05 1.8901161e-05 2.0701643e-04 
-5.7418158e-05 -2.1878285e-04 1.3903488e-04 
-8.1175669e-05 -6.3819950e-04 2.2077534e-04 
-9.8843244e-05 -1.2771460e-03 2.4368906e-04 
-1.7761350e-04 -2.1270150e-03 1.3300459e-04 
-2.1000164e-04 -3.0961088e-03 1.4104237e-04 
-1.1447754e-04 -3.8794591e-03 1.0857339e-04 
-8.5702079e-05 -3.9383769e-03 1.2520514e-04 
-2.3055982e-04 -3.8203455e-03 6.3777828e-05 
-3.0130384e-04 -3.8718439e-03 5.1168161e-05 
-2.0492835e-04 -4.1839951e-03 1.6597420e-05 
-6.6170003e-05 -4.2455653e-03 -4.8916056e-05 
-1.0206526e-04 -3.5600630e-03 -1.5887436e-04 
-2.0529605e-04 -2.5245103e-03 -1.9786066e-04 
-1.9614294e-04 -1.6217609e-03 -1.8877511e-04 
-7.2460993e-05 -9.4007695e-04 -1.1597545e-04 
-4.6171896e-05 -5.1477033e-04 -1.5444795e-04 
-4.0963918e-05 -2.7399190e-04 -1.3863108e-04 
-3.2175732e-05 -1.4670980e-04 -1.3551649e-04 
-3.8850590e-06 -7.2237053e-05 -1.2260415e-04 
1.8137463e-05 -1.1965338e-05 -8.9171597e-05 
3.2190172e-05 4.6483830e-05 -4.9612918e-05 
2.2170689e-05 1.0117798e-04 -1.5473279e-05 
5.0591343e-06 1.4094285e-04 1.6244765e-05 
1.1533538e-06 1.5485098e-04 1.7948805e-05 
-3.6643607e-06 1.4640887e-04 1.3832532e-05 
-3.5388973e-06 1.2318979e-04 -9.1085519e-07 
2.3334837e-06 9.3721406e-05 -2.6056940e-05 
3.2810593e-07 6.5940789e-05 -4.0948176e-05 
5.9613126e-06 4.0655465e-05 -4.2777621e-05 
6.8601107e-06 1.6920954e-05 -3.2530421e-05 
6.5126883e-06 -5.6554782e-06 -1.4686619e-05 
5.1225288e-06 -2.7961270e-05 1.3567554e-05 
9.3250874e-06 -4.9692197e-05 3.2058630e-05 
7.6639599e-06 -7.1179536e-05 4.6716716e-05 
-6.8825489e-06 -8.7111905e-05 6.1107581e-05 
-2.4472089e-05 -9.2259943e-05 4.9741182e-05 
-2.9040142e-05 -8.8197186e-05 3.8952559e-05 
-1.9733641e-05 -8.1600192e-05 2.9320889e-05 
-2.0596376e-06 -1.0311554e-04 1.3776080e-05 
-3.6638125e-05 -1.9843107e-04 3.1616513e-05 
-5.7566944e-05 -4.2132955e-04 5.6625209e-05 
-7.8713354e-05 -8.4415899e-04 9.3039343e-05 
-1.1902703e-04 -1.5069726e-03 4.3234388e-05 
-2.2945435e-04 -2.4179332e-03 1.5996744e-04 
-2.1903423e-04 -3.3632938e-03 1.6414936e-04 
-1.2735574e-04 -3.9856783e-03 1.3681609e-04 
-1.0995502e-04 -3.8882394e-03 1.8329176e-04 
-2.6293739e-04 -3.7400669e-03 1.1270387e-04 
-3.2407499e-04 -3.8167976e-03 9.4146264e-05 
-2.1307339e-04 -4.1398401e-03 4.2625088e-05 
-7.7100623e-05 -4.1025025e-03 -1.4327280e-05 
-1.0527375e-04 -3.3485938e-03 -1.4816230e-04 
-2.0185584e-04 -2.3526039e-03 -2.0068939e-04 
-1.8926474e-04 -1.5066705e-03 -2.1379985e-04 
-8.2256731e-05 -8.6834771e-04 -1.5619551e-04 
-4.6584875e-05 -4.5792092e-04 -1.7974807e-04 
-2.7173752e-05 -2.1276521e-04 -1.4330313e-04 
-1.7837074e-05 -7.5730313e-05 -1.2085657e-04 
9.3524632e-06 5.1696958e-07 -9.4694769e-05 
2.4333523e-05 4.4676024e-05 -6.1681138e-05 
3.5766876e-05 7.2858435e-05 -2.4365536e-05 
2.3317667e-05 9.0171423e-05 8.4443200e-06 
6.4622964e-06 9.5518335e-05 3.3025164e-05 
-1.3530465e-06 8.5261876e-05 3.8629500e-05 
-8.0049940e-06 6.2791718e-05 3.2876073e-05 
-8.4348567e-06 3.4081160e-05 2.0070718e-05 
-5.1683573e-06 5.8679379e-06 3.4680252e-06 
-4.2056554e-06 -1.5026329e-05 -5.7104862e-06 
-2.2939055e-06 -2.7358021e-05 -1.2567016e-05 
2.3160753e-06 -2.9849629e-05 -1.5699110e-05 
1.1872243e-06 -2.2981785e-05 -1.0342762e-05 
1.7046975e-06 -8.7910430e-06 -3.9385068e-06 
1.7444129e-06 6.8815666e-06 2.4611954e-06 
-6.9649280e-07 1.6183711e-05 6.4354431e-06 
-5.2729695e-07 1.6279642e-05 5.3163189e-06 
-5.6228635e-07 8.9013665e-06 2.2321287e-06 
-3.9380464e-07 -8.3077748e-07 -1.2314562e-06 
1.8781325e-08 -6.9099578e-06 -2.8431207e-06 
0.0000000e+00 -4.5548468e-06 0.0000000e+00 
0.0000000e+00 -3.3929311e-07 0.0000000e+00 
0.0000000e+00 2.5106990e-06 0.0000000e+00 
0.0000000e+00 3.1525419e-06 0.0000000e+00 
0.0000000e+00 2.3520986e-06 0.0000000e+00 
0.0000000e+00 1.3544560e-06 0.0000000e+00 
0.0000000e+00 7.6515289e-07 0.0000000e+00 
0.0000000e+00 3.5449415e-07 0.0000000e+00 
0.0000000e+00 -2.8993236e-07 0.0000000e+00 
0.0000000e+00 -1.0994561e-06 0.0000000e+00 
0.0000000e+00 -1.5371738e-06 0.0000000e+00 
0.0000000e+00 -1.1822380e-06 0.0000000e+00 
0.0000000e+00 -2.0774604e-07 0.0000000e+00 
0.0000000e+00 7.3916954e-07 0.0000000e+00 
0.0000000e+00 1.0920206e-06 0.0000000e+00 
0.0000000e+00 7.8880709e-07 0.0000000e+00 
0.0000000e+00 2.0671420e-07 0.0000000e+00 
0.0000000e+00 -2.3970526e-07 0.0000000e+00 
0.0000000e+00 -4.1368253e-07 0.0000000e+00 
0.0000000e+00 -4.3465727e-07 0.0000000e+00 
0.0000000e+00 9.8849509e-05 0.0000000e+00 
0.0000000e+00 2.0433474e-05 0.0000000e+00 
0.0000000e+00 -2.1802993e-04 0.0000000e+00 
0.0000000e+00 -6.4039731e-04 0.0000000e+00 
0.0000000e+00 -1.2807513e-03 0.0000000e+00 
0.0000000e+00 -2.1390028e-03 0.0000000e+00 
0.0000000e+00 -3.1276112e-03 0.0000000e+00 
0.0000000e+00 -3.9030048e-03 0.0000000e+00 
0.0000000e+00 -3.9687078e-03 0.0000000e+00 
0.0000000e+00 -3.8341060e-03 0.0000000e+00 
0.0000000e+00 -3.9021389e-03 0.0000000e+00 
0.0000000e+00 -4.2042276e-03 0.0000000e+00 
0.0000000e+00 -4.2806892e-03 0.0000000e+00 
0.0000000e+00 -3.5786671e-03 0.0000000e+00 
0.0000000e+00 -2.5437183e-03 0.0000000e+00 
0.0000000e+00 -1.6242813e-03 0.0000000e+00 
0.0000000e+00 -9.4468490e-04 0.0000000e+00 
0.0000000e+00 -5.1471579e-04 0.0000000e+00 
0.0000000e+00 -2.7318488e-04 0.0000000e+00 
0.0000000e+00 -1.4553420e-04 0.0000000e+00 
0.0000000e+00 -7.0916678e-05 0.0000000e+00 
0.0000000e+00 -1.1273625e-05 0.0000000e+00 
0.0000000e+00 4.6923866e-05 0.0000000e+00 
0.0000000e+00 1.0114475e-04 0.0000000e+00 
0.0000000e+00 1.4019583e-04 0.0000000e+00 
0.0000000e+00 1.5467423e-04 0.0000000e+00 
0.0000000e+00 1.4643495e-04 0.0000000e+00 
0.0000000e+00 1.2328142e-04 0.0000000e+00 
0.0000000e+00 9.4146017e-05 0.0000000e+00 
0.0000000e+00 6.6089793e-05 0.0000000e+00 
0.0000000e+00 4.0678566e-05 0.0000000e+00 
0.0000000e+00 1.6919528e-05 0.0000000e+00 
0.0000000e+00 -5.8073060e-06 0.0000000e+00 
0.0000000e+00 -2.8038527e-05 0.0000000e+00 
0.0000000e+00 -5.0050927e-05 0.0000000e+00 
0.0000000e+00 -7.1151699e-05 0.0000000e+00 
0.0000000e+00 -8.6702981e-05 0.0000000e+00 
0.0000000e+00 -9.1937320e-05 0.0000000e+00 
0.0000000e+00 -8.6987355e-05 0.0000000e+00 
0.0000000e+00 -8.0871308e-05 0.0000000e+00 
0.0000000e+00 -1.0265184e-04 0.0000000e+00 
0.0000000e+00 -1.9744490e-04 0.0000000e+00 
0.0000000e+00 -4.2264149e-04 0.0000000e+00 
0.0000000e+00 -8.4610825e-04 0.0000000e+00 
0.0000000e+00 -1.5176908e-03 0.0000000e+00 
0.0000000e+00 -2.4268213e-03 0.0000000e+00 
0.0000000e+00 -3.3984992e-03 0.0000000e+00 
0.0000000e+00 -4.0097325e-03 0.0000000e+00 
0.0000000e+00 -3.9185910e-03 0.0000000e+00 
0.0000000e+00 -3.7537541e-03 0.0000000e+00 
0.0000000e+00 -3.8487343e-03 0.0000000e+00 
0.0000000e+00 -4.1614007e-03 0.0000000e+00 
0.0000000e+00 -4.1366601e-03 0.0000000e+00 
0.0000000e+00 -3.3650210e-03 0.0000000e+00 
0.0000000e+00 -2.3686416e-03 0.0000000e+00 
0.0000000e+00 -1.5084059e-03 0.0000000e+00 
0.0000000e+00 -8.7188883e-04 0.0000000e+00 
0.0000000e+00 -4.5766134e-04 0.0000000e+00 
0.0000000e+00 -2.1201931e-04 0.0000000e+00 
0.0000000e+00 -7.4721458e-05 0.0000000e+00 
0.0000000e+00 1.2002334e-06 0.0000000e+00 
0.0000000e+00 4.5215747e-05 0.0000000e+00 
0.0000000e+00 7.3139687e-05 0.0000000e+00 
0.0000000e+00 9.0269452e-05 0.0000000e+00 
0.0000000e+00 9.5169402e-05 0.0000000e+00 
0.0000000e+00 8.5171894e-05 0.0000000e+00 
0.0000000e+00 6.2808111e-05 0.0000000e+00 
0.0000000e+00 3.4095869e-05 0.0000000e+00 
0.0000000e+00 6.1304499e-06 0.0000000e+00 
0.0000000e+00 -1.5025528e-05 0.0000000e+00 
0.0000000e+00 -2.7238622e-05 0.0000000e+00 
0.0000000e+00 -2.9774845e-05 0.0000000e+00 
0.0000000e+00 -2.2820808e-05 0.0000000e+00 
0.0000000e+00 -8.7226899e-06 0.0000000e+00 
0.0000000e+00 6.5697195e-06 0.0000000e+00 
0.0000000e+00 1.5950196e-05 0.0000000e+00 
0.0000000e+00 1.6154781e-05 0.0000000e+00 
0.0000000e+00 8.9171563e-06 0.0000000e+00 
0.0000000e+00 -5.8212743e-07 0.0000000e+00 
0.0000000e+00 -6.7665719e-06 0.0000000e+00 
0.0000000e+00 -7.6250035e-06 0.0000000e+00 
0.0000000e+00 -4.5903885e-06 0.0000000e+00 
0.0000000e+00 -4.1807820e-07 0.0000000e+00 
0.0000000e+00 2.4527201e-06 0.0000000e+00 
0.0000000e+00 3.1498485e-06 0.0000000e+00 
0.0000000e+00 2.3868602e-06 0.0000000e+00 
0.0000000e+00 1.3826889e-06 0.0000000e+00 
0.0000000e+00 7.6173274e-07 0.0000000e+00 
0.0000000e+00 3.3230293e-07 0.0000000e+00 
0.0000000e+00 -3.0098778e-07 0.0000000e+00 
0.0000000e+00 -1.0863555e-06 0.0000000e+00 
0.0000000e+00 -1.5143650e-06 0.0000000e+00 
0.0000000e+00 -1.1721393e-06 0.0000000e+00 
0.0000000e+00 -2.1685872e-07 0.0000000e+00 
0.0000000e+00 7.2290396e-07 0.0000000e+00 
0.0000000e+00 1.0827688e-06 0.0000000e+00 
0.0000000e+00 7.8936847e-07 0.0000000e+00 
0.0000000e+00 2.1098879e-07 0.0000000e+00 
0.0000000e+00 -2.3672071e-07 0.0000000e+00 
0.0000000e+00 -4.1215793e-07 0.0000000e+00 
0.0000000e+00 -4.3337184e-07 0.0000000e+00 
0.0000000e+00 -2.7481465e-05 0.0000000e+00 
-1.2403202e-06 -4.0880873e-06 -7.6977392e-07 
8.3989380e-07 -2.4773315e-05 -1.1210249e-05 
0.0000000e+00 0.0000000e+00 0.0000000e+00 
0.0000000e+00 0.0000000e+00 0.0000000e+00 
0.0000000e+00 0.0000000e+00 0.0000000e+00 
0.0000000e+00 0.0000000e+00 0.0000000e+00 
0.0000000e+00 0.0000000e+00 0.0000000e+00 
0.0000000e+00 0.0000000e+00 0.0000000e+00 
0.0000000e+00 0.0000000e+00 0.0000000e+00 
0.0000000e+00 0.0000000e+00 0.0000000e+00 
0.0000000e+00 0.0000000e+00 0.0000000e+00 
0.0000000e+00 0.0000000e+00 0.0000000e+00 
0.0000000e+00 0.0000000e+00 0.0000000e+00 
0.0000000e+00 0.0000000e+00 0.0000000e+00 
0.0000000e+00 0.0000000e+00 0.0000000e+00 
0.0000000e+00 0.0000000e+00 0.0000000e+00 
0.0000000e+00 0.0000000e+00 0.0000000e+00 
0.0000000e+00 0.0000000e+00 0.0000000e+00 
0.0000000e+00 0.0000000e+00 0.0000000e+00 
0.0000000e+00 0.0000000e+00 0.0000000e+00 
0.0000000e+00 0.0000000e+00 0.0000000e+00 
0.0000000e+00 0.0000000e+00 0.0000000e+00 
0.0000000e+00 0.0000000e+00 0.0000000e+00 
0.0000000e+00 0.0000000e+00 0.0000000e+00 
0.0000000e+00 0.0000000e+00 0.0000000e+00 
0.0000000e+00 0.0000000e+00 0.0000000e+00 
0.0000000e+00 0.0000000e+00 0.0000000e+00 
0.0000000e+00 0.0000000e+00 0.0000000e+00 
0.0000000e+00 0.0000000e+00 0.0000000e+00 
0.0000000e+00 0.0000000e+00 0.0000000e+00 
0.0000000e+00 0.0000000e+00 0.0000000e+00 
0.0000000e+00 0.0000000e+00 0.0000000e+00 
0.0000000e+00 0.0000000e+00 0.0000000e+00 
0.0000000e+00 0.0000000e+00 0.0000000e+00 
0.0000000e+00 0.0000000e+00 0.0000000e+00 
0.0000000e+00 0.0000000e+00 0.0000000e+00 
0.0000000e+00 0.0000000e+00 0.0000000e+00 
0.0000000e+00 0.0000000e+00 0.0000000e+00 
0.0000000e+00 0.0000000e+00 0.0000000e+00 
0.0000000e+00 0.0000000e+00 0.0000000e+00 
0.0000000e+00 0.0000000e+00 0.0000000e+00 
0.0000000e+00 0.0000000e+00 0.0000000e+00 
0.0000000e+00 0.0000000e+00 0.0000000e+00 
0.0000000e+00 0.0000000e+00 0.0000000e+00 
2.8678684e-05 -4.8672928e-07 -2.3111208e-05 
5.7454119e-05 -4.4216440e-06 -1.4641100e-05 
3.9466850e-05 -7.5824460e-06 -5.9001701e-07 
1.1000322e-05 -9.7835473e-06 8.0467981e-07 
4.1492763e-06 -8.5302509e-06 1.1634466e-05 
-7.2732541e-07 4.4744838e-06 8.7797353e-06 
7.8567700e-06 6.3675425e-06 -6.3808052e-06 
3.0059400e-06 -2.6713212e-06 -1.2603138e-05 
5.6497458e-07 -5.7923016e-06 -3.2778580e-06 
1.1175604e-05 -9.5967789e-06 -4.3216151e-06 
3.3069799e-05 -1.7000813e-06 -3.9950050e-06 
4.7554993e-05 -7.0929400e-07 3.5506892e-07 
3.6260812e-05 -6.8394329e-06 1.5806395e-06 
1.1542466e-05 -1.4418975e-05 2.5866680e-06 
6.7435221e-06 -9.5185044e-07 8.2527549e-06 
2.2672029e-06 3.5025155e-06 9.2977962e-06 
1.4479400e-07 -1.1776877e-06 1.6293999e-06 
-6.1279667e-07 -1.6969406e-06 -1.3240847e-06 
3.4248012e-07 1.0407425e-06 3.0315485e-07 
0.0000000e+00 -1.9495562e-04 0.0000000e+00 
0.0000000e+00 -4.7214399e-04 0.0000000e+00 
0.0000000e+00 -5.2236213e-04 0.0000000e+00 
0.0000000e+00 -1.8699684e-04 0.0000000e+00 
0.0000000e+00 -2.5828356e-05 0.0000000e+00 
0.0000000e+00 3.8077655e-05 0.0000000e+00 
0.0000000e+00 1.6299442e-05 0.0000000e+00 
0.0000000e+00 3.0183224e-05 0.0000000e+00 
0.0000000e+00 -2.4085073e-05 0.0000000e+00 
0.0000000e+00 -3.6878908e-05 0.0000000e+00 
0.0000000e+00 -2.0034586e-04 0.0000000e+00 
0.0000000e+00 -4.7451726e-04 0.0000000e+00 
0.0000000e+00 -5.2821724e-04 0.0000000e+00 
0.0000000e+00 -1.8754712e-04 0.0000000e+00 
0.0000000e+00 -3.2222654e-06 0.0000000e+00 
0.0000000e+00 3.0577761e-05 0.0000000e+00 
0.0000000e+00 -4.3624868e-06 0.0000000e+00 
0.0000000e+00 -2.9188097e-06 0.0000000e+00 
0.0000000e+00 1.4804215e-06 0.0000000e+00 
1.9070527e-05 -1.2202171e-05 -2.1209105e-05 
1.8891176e-05 -3.3039192e-05 -3.2898955e-05 
-2.1133080e-07 -8.2161108e-07 -2.3742686e-07 
-2.1401488e-07 -1.3648673e-06 -4.6941787e-07 
2.8790681e-05 5.1045972e-06 -3.2516000e-05 
5.1617386e-05 7.1036243e-06 -1.2511352e-05 
3.3315751e-05 -6.2383822e-07 -2.5312610e-07 
5.1159627e-06 -6.4446735e-06 -5.4709045e-07 
5.2291875e-07 -1.3812965e-05 7.1079871e-06 
3.6034439e-06 7.6008737e-06 2.7508283e-06 
1.3571711e-05 1.1024388e-05 -1.9939996e-06 
-1.7917743e-06 -4.8018924e-06 -7.0524379e-06 
-7.4908821e-06 -8.1544586e-06 -6.2251520e-06 
1.6038699e-05 -1.1177372e-05 -9.4140896e-06 
3.4222783e-05 1.1995646e-06 -4.1850449e-06 
4.6288023e-05 2.6187201e-06 2.6433761e-06 
2.6087026e-05 -2.9195853e-06 1.1000442e-05 
-6.7221691e-07 -1.7725784e-05 -1.3246203e-07 
1.7728030e-06 -2.9978228e-06 1.5113586e-07 
4.3273899e-06 4.1679314e-06 1.0099997e-05 
2.2589222e-06 -3.8384076e-07 4.1471662e-06 
-7.8774389e-07 -1.9178347e-06 -4.5778145e-07 
7.6541063e-08 1.0000706e-06 -4.9425978e-07 
7.0173646e-06 -4.6741774e-05 -2.2181044e-05 
0.0000000e+00 -4.2408225e-04 0.0000000e+00 
0.0000000e+00 -1.0705182e-03 0.0000000e+00 
0.0000000e+00 -1.1737613e-03 0.0000000e+00 
0.0000000e+00 -3.5537162e-04 0.0000000e+00 
0.0000000e+00 -4.8191938e-05 0.0000000e+00 
0.0000000e+00 7.9608537e-05 0.0000000e+00 
0.0000000e+00 3.4197939e-05 0.0000000e+00 
0.0000000e+00 4.3635107e-05 0.0000000e+00 
0.0000000e+00 -5.2960626e-05 0.0000000e+00 
0.0000000e+00 -6.3138883e-05 0.0000000e+00 
0.0000000e+00 -4.4812993e-04 0.0000000e+00 
0.0000000e+00 -1.0646771e-03 0.0000000e+00 
0.0000000e+00 -1.1518325e-03 0.0000000e+00 
0.0000000e+00 -3.4895260e-04 0.0000000e+00 
0.0000000e+00 -1.3481268e-06 0.0000000e+00 
0.0000000e+00 5.8531503e-05 0.0000000e+00 
0.0000000e+00 -9.2514456e-06 0.0000000e+00 
0.0000000e+00 -9.1147122e-06 0.0000000e+00 
0.0000000e+00 6.6398761e-06 0.0000000e+00 
-2.7989228e-07 -2.7111582e-06 -4.7189232e-07 
-3.0801655e-04 -3.9501907e-04 2.7650970e-04 
-6.1144296e-04 -1.2971886e-03 1.3116178e-04 
-6.1156123e-04 -1.4144171e-03 -1.0384159e-04 
-1.7869269e-04 -3.0474801e-04 -2.2468898e-04 
3.9841184e-06 -6.7386267e-05 -1.4361137e-04 
2.0091540e-05 8.8153378e-05 2.9329101e-06 
3.8802959e-06 7.4116724e-05 -8.4071926e-06 
5.7226075e-06 -2.6468055e-05 1.0011908e-05 
8.7032276e-06 -1.0101828e-04 6.1812418e-05 
-1.3010886e-06 -3.9028084e-05 3.5207158e-05 
-2.7740837e-04 -4.3980329e-04 2.1259868e-04 
-6.5647141e-04 -1.1544770e-03 1.5613651e-04 
-6.1041641e-04 -1.3422722e-03 -5.1478804e-05 
-1.6557564e-04 -3.2306302e-04 -2.7384289e-04 
1.4911720e-05 -1.0024686e-05 -1.3044098e-04 
1.7439375e-05 5.5362038e-05 4.5265133e-05 
-9.1468255e-06 8.1613598e-06 2.1826874e-05 
2.7416139e-08 -1.9971621e-05 -1.3835885e-05 
1.4146112e-06 1.3826580e-05 7.1486511e-06 
0.0000000e+00 -7.4719364e-04 0.0000000e+00 
0.0000000e+00 -2.1569990e-03 0.0000000e+00 
0.0000000e+00 -2.2232272e-03 0.0000000e+00 
0.0000000e+00 -6.0136418e-04 0.0000000e+00 
0.0000000e+00 -6.0234448e-05 0.0000000e+00 
0.0000000e+00 1.3122796e-04 0.0000000e+00 
0.0000000e+00 6.7733054e-05 0.0000000e+00 
0.0000000e+00 4.0668889e-05 0.0000000e+00 
0.0000000e+00 -1.0033782e-04 0.0000000e+00 
0.0000000e+00 -6.8508729e-05 0.0000000e+00 
0.0000000e+00 -8.7679841e-04 0.0000000e+00 
0.0000000e+00 -2.1455046e-03 0.0000000e+00 
0.0000000e+00 -2.1560357e-03 0.0000000e+00 
0.0000000e+00 -5.7031959e-04 0.0000000e+00 
0.0000000e+00 1.3768700e-05 0.0000000e+00 
0.0000000e+00 8.9553214e-05 0.0000000e+00 
0.0000000e+00 -8.7542560e-07 0.0000000e+00 
0.0000000e+00 -2.0068681e-05 0.0000000e+00 
0.0000000e+00 1.3095074e-05 0.0000000e+00 
3.0925705e-05 -1.3030198e-05 -7.4134668e-06 
7.0174472e-05 -1.1243871e-04 1.4978688e-05 
6.9053916e-05 -9.4543284e-05 1.0895601e-05 
2.5877345e-05 -5.7598660e-05 -1.0283713e-05 
-1.3349162e-05 -1.1127977e-05 -1.5177073e-05 
1.1661198e-05 2.1007178e-05 -4.1484172e-06 
9.0242856e-06 1.7038114e-05 -7.6019410e-06 
-4.5952497e-06 -2.0718460e-05 5.6166903e-07 
-7.7893710e-06 -3.8511083e-05 1.1612095e-05 
1.5006497e-05 -3.6337033e-06 6.5776312e-06 
5.9379840e-05 -3.1343763e-05 -1.4516919e-06 
7.6588738e-05 -4.0578863e-05 5.5529376e-06 
4.1667943e-05 -7.0603288e-05 1.7180682e-05 
2.1441465e-05 -6.5801447e-05 -1.6067857e-05 
-1.1078845e-05 -6.8988729e-06 -1.5901433e-05 
5.3295589e-06 1.3464299e-05 7.7129243e-06 
9.3482038e-07 2.9197995e-06 9.7180236e-06 
9.4213050e-07 3.0083309e-06 -9.2465467e-07 
2.1220110e-06 -1.4739823e-05 -7.7489176e-06 
0.0000000e+00 0.0000000e+00 0.0000000e+00 
0.0000000e+00 0.0000000e+00 0.0000000e+00 
0.0000000e+00 0.0000000e+00 0.0000000e+00 
0.0000000e+00 0.0000000e+00 0.0000000e+00 
0.0000000e+00 0.0000000e+00 0.0000000e+00 
0.0000000e+00 0.0000000e+00 0.0000000e+00 
0.0000000e+00 0.0000000e+00 0.0000000e+00 
0.0000000e+00 0.0000000e+00 0.0000000e+00 
0.0000000e+00 0.0000000e+00 0.0000000e+00 
0.0000000e+00 0.0000000e+00 0.0000000e+00 
0.0000000e+00 0.0000000e+00 0.0000000e+00 
0.0000000e+00 0.0000000e+00 0.0000000e+00 
0.0000000e+00 0.0000000e+00 0.0000000e+00 
0.0000000e+00 0.0000000e+00 0.0000000e+00 
0.0000000e+00 0.0000000e+00 0.0000000e+00 
0.0000000e+00 0.0000000e+00 0.0000000e+00 
0.0000000e+00 0.0000000e+00 0.0000000e+00 
0.0000000e+00 0.0000000e+00 0.0000000e+00 
0.0000000e+00 0.0000000e+00 0.0000000e+00 
0.0000000e+00 0.0000000e+00 0.0000000e+00 
0.0000000e+00 0.0000000e+00 0.0000000e+00 
0.0000000e+00 0.0000000e+00 0.0000000e+00 
0.0000000e+00 0.0000000e+00 0.0000000e+00 
0.0000000e+00 0.0000000e+00 0.0000000e+00 
0.0000000e+00 0.0000000e+00 0.0000000e+00 
0.0000000e+00 0.0000000e+00 0.0000000e+00 
0.0000000e+00 0.0000000e+00 0.0000000e+00 
0.0000000e+00 0.0000000e+00 0.0000000e+00 
0.0000000e+00 0.0000000e+00 0.0000000e+00 
0.0000000e+00 0.0000000e+00 0.0000000e+00 
0.0000000e+00 0.0000000e+00 0.0000000e+00 
0.0000000e+00 0.0000000e+00 0.0000000e+00 
0.0000000e+00 0.0000000e+00 0.0000000e+00 
0.0000000e+00 0.0000000e+00 0.0000000e+00 
0.0000000e+00 0.0000000e+00 0.0000000e+00 
0.0000000e+00 0.0000000e+00 0.0000000e+00 
0.0000000e+00 0.0000000e+00 0.0000000e+00 
0.0000000e+00 0.0000000e+00 0.0000000e+00 
0.0000000e+00 0.0000000e+00 0.0000000e+00 
0.0000000e+00 0.0000000e+00 0.0000000e+00 
0.0000000e+00 0.0000000e+00 0.0000000e+00 
0.0000000e+00 0.0000000e+00 0.0000000e+00 
1.1367249e-05 -7.7780378e-06 -1.1546034e-05 
1.2240894e-06 1.2066184e-06 1.0541726e-06 
2.9820806e-06 2.1034475e-07 -7.0064016e-06 
2.2933456e-05 -4.7644157e-06 -1.4211835e-07 
1.8858618e-05 -1.0535675e-05 5.6473715e-07 
1.5443184e-05 -1.0347882e-05 -5.6273478e-07 
5.1438556e-06 -4.5004131e-06 3.9888027e-06 