# vtk DataFile Version 4.0
vtk output
ASCII
DATASET UNSTRUCTURED_GRID
POINTS 662 float
0.0000000e+00 0.0000000e+00 0.0000000e+00 
0.0000000e+00 0.0000000e+00 4.0000000e+01 
5.0000000e+00 0.0000000e+00 0.0000000e+00 
5.0000000e+00 0.0000000e+00 4.0000000e+01 
5.0000000e+00 1.0000000e+00 0.0000000e+00 
5.0000000e+00 1.0000000e+00 4.0000000e+01 
0.0000000e+00 1.0000000e+00 0.0000000e+00 
0.0000000e+00 1.0000000e+00 4.0000000e+01 
5.0000000e+00 2.0000000e+00 0.0000000e+00 
5.0000000e+00 2.0000000e+00 4.0000000e+01 
3.0000000e+00 2.0000000e+00 0.0000000e+00 
3.0000000e+00 2.0000000e+00 4.0000000e+01 
0.0000000e+00 2.0000000e+00 0.0000000e+00 
0.0000000e+00 2.0000000e+00 4.0000000e+01 
1.5000000e+00 3.0000000e+00 0.0000000e+00 
1.5000000e+00 3.0000000e+00 4.0000000e+01 
7.5000000e-01 3.0000000e+00 0.0000000e+00 
7.5000000e-01 3.0000000e+00 4.0000000e+01 
0.0000000e+00 3.0000000e+00 0.0000000e+00 
0.0000000e+00 3.0000000e+00 4.0000000e+01 
7.5000000e-01 3.0000000e+00 5.0000000e-01 
7.5000000e-01 3.0000000e+00 1.0000000e+00 
7.5000000e-01 3.0000000e+00 1.5000000e+00 
7.5000000e-01 3.0000000e+00 2.0000000e+00 
7.5000000e-01 3.0000000e+00 2.5000000e+00 
7.5000000e-01 3.0000000e+00 3.0000000e+00 
7.5000000e-01 3.0000000e+00 3.5000000e+00 
7.5000000e-01 3.0000000e+00 4.0000000e+00 
7.5000000e-01 3.0000000e+00 4.5000000e+00 
7.5000000e-01 3.0000000e+00 5.0000000e+00 
7.5000000e-01 3.0000000e+00 5.5000000e+00 
7.5000000e-01 3.0000000e+00 6.0000000e+00 
7.5000000e-01 3.0000000e+00 6.5000000e+00 
7.5000000e-01 3.0000000e+00 7.0000000e+00 
7.5000000e-01 3.0000000e+00 7.5000000e+00 
7.5000000e-01 3.0000000e+00 8.0000000e+00 
7.5000000e-01 3.0000000e+00 8.5000000e+00 
7.5000000e-01 3.0000000e+00 9.0000000e+00 
7.5000000e-01 3.0000000e+00 9.5000000e+00 
7.5000000e-01 3.0000000e+00 1.0000000e+01 
7.5000000e-01 3.0000000e+00 1.0500000e+01 
7.5000000e-01 3.0000000e+00 1.1000000e+01 
7.5000000e-01 3.0000000e+00 1.1500000e+01 
7.5000000e-01 3.0000000e+00 1.2000000e+01 
7.5000000e-01 3.0000000e+00 1.2500000e+01 
7.5000000e-01 3.0000000e+00 1.3000000e+01 
7.5000000e-01 3.0000000e+00 1.3500000e+01 
7.5000000e-01 3.0000000e+00 1.4000000e+01 
7.5000000e-01 3.0000000e+00 1.4500000e+01 
7.5000000e-01 3.0000000e+00 1.5000000e+01 
7.5000000e-01 3.0000000e+00 1.5500000e+01 
7.5000000e-01 3.0000000e+00 1.6000000e+01 
7.5000000e-01 3.0000000e+00 1.6500000e+01 
7.5000000e-01 3.0000000e+00 1.7000000e+01 
7.5000000e-01 3.0000000e+00 1.7500000e+01 
7.5000000e-01 3.0000000e+00 1.8000000e+01 
7.5000000e-01 3.0000000e+00 1.8500000e+01 
7.5000000e-01 3.0000000e+00 1.9000000e+01 
7.5000000e-01 3.0000000e+00 1.9500000e+01 
7.5000000e-01 3.0000000e+00 2.0000000e+01 
7.5000000e-01 3.0000000e+00 2.0500000e+01 
7.5000000e-01 3.0000000e+00 2.1000000e+01 
7.5000000e-01 3.0000000e+00 2.1500000e+01 
7.5000000e-01 3.0000000e+00 2.2000000e+01 
7.5000000e-01 3.0000000e+00 2.2500000e+01 
7.5000000e-01 3.0000000e+00 2.3000000e+01 
7.5000000e-01 3.0000000e+00 2.3500000e+01 
7.5000000e-01 3.0000000e+00 2.4000000e+01 
7.5000000e-01 3.0000000e+00 2.4500000e+01 
7.5000000e-01 3.0000000e+00 2.5000000e+01 
7.5000000e-01 3.0000000e+00 2.5500000e+01 
7.5000000e-01 3.0000000e+00 2.6000000e+01 
7.5000000e-01 3.0000000e+00 2.6500000e+01 
7.5000000e-01 3.0000000e+00 2.7000000e+01 
7.5000000e-01 3.0000000e+00 2.7500000e+01 
7.5000000e-01 3.0000000e+00 2.8000000e+01 
7.5000000e-01 3.0000000e+00 2.8500000e+01 
7.5000000e-01 3.0000000e+00 2.9000000e+01 
7.5000000e-01 3.0000000e+00 2.9500000e+01 
7.5000000e-01 3.0000000e+00 3.0000000e+01 
7.5000000e-01 3.0000000e+00 3.0500000e+01 
7.5000000e-01 3.0000000e+00 3.1000000e+01 
7.5000000e-01 3.0000000e+00 3.1500000e+01 
7.5000000e-01 3.0000000e+00 3.2000000e+01 
7.5000000e-01 3.0000000e+00 3.2500000e+01 
7.5000000e-01 3.0000000e+00 3.3000000e+01 
7.5000000e-01 3.0000000e+00 3.3500000e+01 
7.5000000e-01 3.0000000e+00 3.4000000e+01 
7.5000000e-01 3.0000000e+00 3.4500000e+01 
7.5000000e-01 3.0000000e+00 3.5000000e+01 
7.5000000e-01 3.0000000e+00 3.5500000e+01 
7.5000000e-01 3.0000000e+00 3.6000000e+01 
7.5000000e-01 3.0000000e+00 3.6500000e+01 
7.5000000e-01 3.0000000e+00 3.7000000e+01 
7.5000000e-01 3.0000000e+00 3.7500000e+01 
7.5000000e-01 3.0000000e+00 3.8000000e+01 
7.5000000e-01 3.0000000e+00 3.8500000e+01 
7.5000000e-01 3.0000000e+00 3.9000000e+01 
7.5000000e-01 3.0000000e+00 3.9500000e+01 
7.5000000e-01 3.0000000e+00 4.0500000e+01 
7.5000000e-01 3.0000000e+00 4.1000000e+01 
7.5000000e-01 3.0000000e+00 4.1500000e+01 
7.5000000e-01 3.0000000e+00 4.2000000e+01 
7.5000000e-01 3.0000000e+00 4.2500000e+01 
7.5000000e-01 3.0000000e+00 4.3000000e+01 
7.5000000e-01 3.0000000e+00 4.3500000e+01 
7.5000000e-01 3.0000000e+00 4.4000000e+01 
7.5000000e-01 3.0000000e+00 4.4500000e+01 
7.5000000e-01 3.0000000e+00 4.5000000e+01 
7.5000000e-01 3.0000000e+00 4.5500000e+01 
7.5000000e-01 3.0000000e+00 4.6000000e+01 
7.5000000e-01 3.0000000e+00 4.6500000e+01 
7.5000000e-01 3.0000000e+00 4.7000000e+01 
7.5000000e-01 3.0000000e+00 4.7500000e+01 
7.5000000e-01 3.0000000e+00 4.8000000e+01 
7.5000000e-01 3.0000000e+00 4.8500000e+01 
7.5000000e-01 3.0000000e+00 4.9000000e+01 
7.5000000e-01 3.0000000e+00 4.9500000e+01 
7.5000000e-01 3.0000000e+00 5.0000000e+01 
7.5000000e-01 3.0250001e+00 0.0000000e+00 
7.5000000e-01 3.0250001e+00 5.0000000e-01 
7.5000000e-01 3.0250001e+00 1.0000000e+00 
7.5000000e-01 3.0250001e+00 1.5000000e+00 
7.5000000e-01 3.0250001e+00 2.0000000e+00 
7.5000000e-01 3.0250001e+00 2.5000000e+00 
7.5000000e-01 3.0250001e+00 3.0000000e+00 
7.5000000e-01 3.0250001e+00 3.5000000e+00 
7.5000000e-01 3.0250001e+00 4.0000000e+00 
7.5000000e-01 3.0250001e+00 4.5000000e+00 
7.5000000e-01 3.0250001e+00 5.0000000e+00 
7.5000000e-01 3.0250001e+00 5.5000000e+00 
7.5000000e-01 3.0250001e+00 6.0000000e+00 
7.5000000e-01 3.0250001e+00 6.5000000e+00 
7.5000000e-01 3.0250001e+00 7.0000000e+00 
7.5000000e-01 3.0250001e+00 7.5000000e+00 
7.5000000e-01 3.0250001e+00 8.0000000e+00 
7.5000000e-01 3.0250001e+00 8.5000000e+00 
7.5000000e-01 3.0250001e+00 9.0000000e+00 
7.5000000e-01 3.0250001e+00 9.5000000e+00 
7.5000000e-01 3.0250001e+00 1.0000000e+01 
7.5000000e-01 3.0250001e+00 1.0500000e+01 
7.5000000e-01 3.0250001e+00 1.1000000e+01 
7.5000000e-01 3.0250001e+00 1.1500000e+01 
7.5000000e-01 3.0250001e+00 1.2000000e+01 
7.5000000e-01 3.0250001e+00 1.2500000e+01 
7.5000000e-01 3.0250001e+00 1.3000000e+01 
7.5000000e-01 3.0250001e+00 1.3500000e+01 
7.5000000e-01 3.0250001e+00 1.4000000e+01 
7.5000000e-01 3.0250001e+00 1.4500000e+01 
7.5000000e-01 3.0250001e+00 1.5000000e+01 
7.5000000e-01 3.0250001e+00 1.5500000e+01 
7.5000000e-01 3.0250001e+00 1.6000000e+01 
7.5000000e-01 3.0250001e+00 1.6500000e+01 
7.5000000e-01 3.0250001e+00 1.7000000e+01 
7.5000000e-01 3.0250001e+00 1.7500000e+01 
7.5000000e-01 3.0250001e+00 1.8000000e+01 
7.5000000e-01 3.0250001e+00 1.8500000e+01 
7.5000000e-01 3.0250001e+00 1.9000000e+01 
7.5000000e-01 3.0250001e+00 1.9500000e+01 
7.5000000e-01 3.0250001e+00 2.0000000e+01 
7.5000000e-01 3.0250001e+00 2.0500000e+01 
7.5000000e-01 3.0250001e+00 2.1000000e+01 
7.5000000e-01 3.0250001e+00 2.1500000e+01 
7.5000000e-01 3.0250001e+00 2.2000000e+01 
7.5000000e-01 3.0250001e+00 2.2500000e+01 
7.5000000e-01 3.0250001e+00 2.3000000e+01 
7.5000000e-01 3.0250001e+00 2.3500000e+01 
7.5000000e-01 3.0250001e+00 2.4000000e+01 
7.5000000e-01 3.0250001e+00 2.4500000e+01 
7.5000000e-01 3.0250001e+00 2.5000000e+01 
7.5000000e-01 3.0250001e+00 2.5500000e+01 
7.5000000e-01 3.0250001e+00 2.6000000e+01 
7.5000000e-01 3.0250001e+00 2.6500000e+01 
7.5000000e-01 3.0250001e+00 2.7000000e+01 
7.5000000e-01 3.0250001e+00 2.7500000e+01 
7.5000000e-01 3.0250001e+00 2.8000000e+01 
7.5000000e-01 3.0250001e+00 2.8500000e+01 
7.5000000e-01 3.0250001e+00 2.9000000e+01 
7.5000000e-01 3.0250001e+00 2.9500000e+01 
7.5000000e-01 3.0250001e+00 3.0000000e+01 
7.5000000e-01 3.0250001e+00 3.0500000e+01 
7.5000000e-01 3.0250001e+00 3.1000000e+01 
7.5000000e-01 3.0250001e+00 3.1500000e+01 
7.5000000e-01 3.0250001e+00 3.2000000e+01 
7.5000000e-01 3.0250001e+00 3.2500000e+01 
7.5000000e-01 3.0250001e+00 3.3000000e+01 
7.5000000e-01 3.0250001e+00 3.3500000e+01 
7.5000000e-01 3.0250001e+00 3.4000000e+01 
7.5000000e-01 3.0250001e+00 3.4500000e+01 
7.5000000e-01 3.0250001e+00 3.5000000e+01 
7.5000000e-01 3.0250001e+00 3.5500000e+01 
7.5000000e-01 3.0250001e+00 3.6000000e+01 
7.5000000e-01 3.0250001e+00 3.6500000e+01 
7.5000000e-01 3.0250001e+00 3.7000000e+01 
7.5000000e-01 3.0250001e+00 3.7500000e+01 
7.5000000e-01 3.0250001e+00 3.8000000e+01 
7.5000000e-01 3.0250001e+00 3.8500000e+01 
7.5000000e-01 3.0250001e+00 3.9000000e+01 
7.5000000e-01 3.0250001e+00 3.9500000e+01 
7.5000000e-01 3.0250001e+00 4.0000000e+01 
7.5000000e-01 3.0250001e+00 4.0500000e+01 
7.5000000e-01 3.0250001e+00 4.1000000e+01 
7.5000000e-01 3.0250001e+00 4.1500000e+01 
7.5000000e-01 3.0250001e+00 4.2000000e+01 
7.5000000e-01 3.0250001e+00 4.2500000e+01 
7.5000000e-01 3.0250001e+00 4.3000000e+01 
7.5000000e-01 3.0250001e+00 4.3500000e+01 
7.5000000e-01 3.0250001e+00 4.4000000e+01 
7.5000000e-01 3.0250001e+00 4.4500000e+01 
7.5000000e-01 3.0250001e+00 4.5000000e+01 
7.5000000e-01 3.0250001e+00 4.5500000e+01 
7.5000000e-01 3.0250001e+00 4.6000000e+01 
7.5000000e-01 3.0250001e+00 4.6500000e+01 
7.5000000e-01 3.0250001e+00 4.7000000e+01 
7.5000000e-01 3.0250001e+00 4.7500000e+01 
7.5000000e-01 3.0250001e+00 4.8000000e+01 
7.5000000e-01 3.0250001e+00 4.8500000e+01 
7.5000000e-01 3.0250001e+00 4.9000000e+01 
7.5000000e-01 3.0250001e+00 4.9500000e+01 
7.5000000e-01 3.0250001e+00 5.0000000e+01 
7.5000000e-01 3.0250001e+00 3.5750000e+01 
3.0000000e+00 2.0000000e+00 3.6000000e+01 
8.0487806e-01 3.0000000e+00 3.6000000e+01 
0.0000000e+00 0.0000000e+00 2.0000000e+00 
0.0000000e+00 0.0000000e+00 4.0000000e+00 
0.0000000e+00 0.0000000e+00 6.0000000e+00 
0.0000000e+00 0.0000000e+00 8.0000000e+00 
0.0000000e+00 0.0000000e+00 1.0000000e+01 
0.0000000e+00 0.0000000e+00 1.2000000e+01 
0.0000000e+00 0.0000000e+00 1.4000000e+01 
[...]
POINT_DATA 662
FIELD FieldData 3
DISPLACEMENT 3 662  float
0.0000000e+00 0.0000000e+00 0.0000000e+00 
0.0000000e+00 0.0000000e+00 0.0000000e+00 
0.0000000e+00 0.0000000e+00 0.0000000e+00 
0.0000000e+00 0.0000000e+00 0.0000000e+00 
6.6888856e-06 -4.8875781e-06 -1.9880491e-07 
1.5944758e-07 -3.3086635e-06 -2.6202606e-06 
0.0000000e+00 -7.0628830e-06 0.0000000e+00 
0.0000000e+00 3.0612857e-05 0.0000000e+00 
8.7911203e-06 -6.9172775e-06 -4.4987560e-06 
1.2989565e-06 -8.1608823e-06 5.5208234e-06 
1.2146713e-06 -7.4318477e-06 -1.0006130e-05 
-2.8407267e-06 2.2177041e-07 4.8548995e-06 
0.0000000e+00 -9.6522581e-06 0.0000000e+00 
0.0000000e+00 6.0358292e-05 0.0000000e+00 
-4.9694327e-06 -8.5662878e-06 -1.1043442e-05 
3.0374142e-05 5.2025847e-05 7.1903501e-06 
1.6431273e-05 1.7243799e-05 3.6685901e-06 
2.5202853e-05 8.4445099e-05 2.1866803e-05 
0.0000000e+00 -1.6759648e-05 0.0000000e+00 
0.0000000e+00 7.8711033e-05 0.0000000e+00 
-1.2395471e-05 1.8455112e-05 -1.7764369e-05 
-1.7381148e-05 2.1300968e-05 -2.3679084e-05 
-1.8446974e-05 2.4040479e-05 -2.8347351e-05 
-1.5628933e-05 2.6318070e-05 -3.4310313e-05 
-8.6652472e-06 2.9141627e-05 -3.7992169e-05 
-4.7837202e-06 3.3710923e-05 -3.9970841e-05 
5.5107912e-06 4.1850759e-05 -5.3147978e-05 
1.7677017e-05 5.5625380e-05 -6.2834864e-05 
2.4929423e-05 7.6357333e-05 -5.7672311e-05 
3.0925974e-05 1.0241532e-04 -4.5603625e-05 
3.5948782e-05 1.3213363e-04 -3.6829613e-05 
4.6245859e-05 1.6408756e-04 -2.4240819e-05 
5.9250095e-05 1.9569295e-04 -1.0920004e-05 
6.3976695e-05 2.1976839e-04 7.6392607e-06 
5.0286562e-05 2.2343357e-04 3.6982015e-05 
2.8104567e-05 1.7806372e-04 6.8654415e-05 
-1.5205506e-05 4.1889267e-05 1.1015058e-04 
-2.6644626e-05 -2.2621214e-04 1.5006267e-04 
-5.4363532e-05 -6.8974472e-04 2.0867531e-04 
-1.1346581e-04 -1.3923513e-03 1.6412041e-04 
-2.6775137e-04 -2.3540696e-03 2.4817142e-04 
-2.8149621e-04 -3.3947581e-03 2.2666754e-04 
-1.8035823e-04 -4.2063175e-03 1.6612222e-04 
-1.5633809e-04 -4.2313496e-03 1.7056451e-04 
-2.9147413e-04 -4.0362859e-03 8.6252541e-05 
-3.5961031e-04 -3.9913873e-03 5.1418778e-05 
-2.4795774e-04 -4.2088847e-03 6.6100120e-06 
-9.5960662e-05 -4.2058760e-03 -4.2061991e-05 
-1.2189480e-04 -3.5106014e-03 -1.4316120e-04 
-2.1303387e-04 -2.4898695e-03 -1.7682352e-04 
-2.0380477e-04 -1.5905414e-03 -1.8168504e-04 
-7.9968318e-05 -8.9414779e-04 -1.3254194e-04 
-4.1781845e-05 -4.3646985e-04 -1.7252530e-04 
-2.7287952e-05 -1.5954131e-04 -1.4468342e-04 
-1.7436976e-05 -8.3968498e-06 -1.2612026e-04 
6.2649292e-06 6.3010375e-05 -1.0182467e-04 
2.0464931e-05 8.3228420e-05 -6.7926121e-05 
2.7085360e-05 7.6969984e-05 -3.7977396e-05 
1.8973356e-05 6.0901806e-05 -3.0181125e-05 
1.0431191e-05 4.2940181e-05 -3.3194687e-05 
2.1782641e-06 2.7404467e-05 -3.8453007e-05 
4.0292576e-07 1.2209834e-05 -3.8753413e-05 
-6.7866199e-06 -5.4240177e-06 -2.7194566e-05 
-1.8014969e-05 -2.4462284e-05 -8.6179361e-06 
-1.7770297e-05 -4.2227271e-05 9.7573138e-06 
-1.8008641e-05 -5.3487762e-05 1.9063949e-05 
-1.5008133e-05 -5.2625608e-05 2.0414165e-05 
-9.4091847e-06 -3.6468475e-05 1.6005853e-05 
3.9871338e-06 -2.3529512e-06 -6.7154069e-06 
9.2408691e-06 4.4665710e-05 -2.9181732e-05 
2.6303715e-05 9.9152647e-05 -5.4655302e-05 
4.7415546e-05 1.5332841e-04 -7.1276729e-05 
5.6930861e-05 2.0026662e-04 -6.3772408e-05 
6.5159664e-05 2.3093805e-04 -3.9526323e-05 
5.2385811e-05 2.3213834e-04 -7.9559586e-06 
3.1788655e-05 1.7711414e-04 3.0780098e-05 
-1.0461265e-05 2.2380504e-05 8.9231820e-05 
-2.0437841e-05 -2.7388119e-04 1.4265197e-04 
-4.5026449e-05 -7.7568291e-04 2.0307594e-04 
-1.0679426e-04 -1.5177216e-03 1.5139914e-04 
-2.5952907e-04 -2.5033890e-03 2.3275962e-04 
-2.7412636e-04 -3.5151294e-03 2.0043936e-04 
-1.7333221e-04 -4.1876710e-03 1.3290718e-04 
-1.3218766e-04 -4.1184067e-03 1.3938530e-04 
-2.7082302e-04 -3.9664526e-03 6.4768465e-05 
-3.2937943e-04 -4.0108948e-03 4.1489773e-05 
-2.1552746e-04 -4.2793318e-03 1.4239180e-06 
-7.9108722e-05 -4.1783676e-03 -1.9695301e-05 
-1.1907130e-04 -3.3625560e-03 -1.4448923e-04 
-2.1977651e-04 -2.3071656e-03 -1.8630158e-04 
-2.2070920e-04 -1.4065368e-03 -1.9946889e-04 
-1.3203164e-04 -7.2540814e-04 -1.7410988e-04 
-5.6353354e-05 -2.8661202e-04 -1.7152235e-04 
-3.4204568e-05 -2.7014494e-05 -1.4318022e-04 
-2.5814361e-05 1.1191476e-04 -1.2828584e-04 
1.0604533e-06 1.7249536e-04 -1.0729352e-04 
1.5772355e-05 1.8304540e-04 -7.1676899e-05 
2.8684823e-05 1.6413582e-04 -3.8174017e-05 
2.5443203e-05 1.3027525e-04 -1.8765733e-05 
0.0000000e+00 3.3217562e-05 0.0000000e+00 
0.0000000e+00 -1.8445480e-05 0.0000000e+00 
0.0000000e+00 -6.4241030e-05 0.0000000e+00 
0.0000000e+00 -9.7898017e-05 0.0000000e+00 
0.0000000e+00 -1.1460554e-04 0.0000000e+00 
0.0000000e+00 -1.1240892e-04 0.0000000e+00 
0.0000000e+00 -9.2717637e-05 0.0000000e+00 
0.0000000e+00 -5.9845926e-05 0.0000000e+00 
0.0000000e+00 -2.0027335e-05 0.0000000e+00 
0.0000000e+00 1.9695270e-05 0.0000000e+00 
0.0000000e+00 5.2611547e-05 0.0000000e+00 
0.0000000e+00 7.3499665e-05 0.0000000e+00 
0.0000000e+00 7.9564743e-05 0.0000000e+00 
0.0000000e+00 7.0812239e-05 0.0000000e+00 
0.0000000e+00 4.9747134e-05 0.0000000e+00 
0.0000000e+00 2.0665766e-05 0.0000000e+00 
0.0000000e+00 -1.1084983e-05 0.0000000e+00 
0.0000000e+00 -3.9755017e-05 0.0000000e+00 
0.0000000e+00 -5.9896720e-05 0.0000000e+00 
0.0000000e+00 -6.7242407e-05 0.0000000e+00 
0.0000000e+00 1.7335076e-05 0.0000000e+00 
0.0000000e+00 1.8522098e-05 0.0000000e+00 
0.0000000e+00 2.1231337e-05 0.0000000e+00 
0.0000000e+00 2.3957042e-05 0.0000000e+00 
0.0000000e+00 2.6292186e-05 0.0000000e+00 
0.0000000e+00 2.9103318e-05 0.0000000e+00 
0.0000000e+00 3.3699456e-05 0.0000000e+00 
0.0000000e+00 4.1901483e-05 0.0000000e+00 
0.0000000e+00 5.5784007e-05 0.0000000e+00 
0.0000000e+00 7.6369521e-05 0.0000000e+00 
0.0000000e+00 1.0241176e-04 0.0000000e+00 
0.0000000e+00 1.3220128e-04 0.0000000e+00 
0.0000000e+00 1.6431992e-04 0.0000000e+00 
0.0000000e+00 1.9603012e-04 0.0000000e+00 
0.0000000e+00 2.2069065e-04 0.0000000e+00 
0.0000000e+00 2.2417148e-04 0.0000000e+00 
0.0000000e+00 1.7815051e-04 0.0000000e+00 
0.0000000e+00 4.3098473e-05 0.0000000e+00 
0.0000000e+00 -2.2687593e-04 0.0000000e+00 
0.0000000e+00 -6.9122086e-04 0.0000000e+00 
0.0000000e+00 -1.4019412e-03 0.0000000e+00 
0.0000000e+00 -2.3618171e-03 0.0000000e+00 
0.0000000e+00 -3.4273085e-03 0.0000000e+00 
0.0000000e+00 -4.2307293e-03 0.0000000e+00 
0.0000000e+00 -4.2621004e-03 0.0000000e+00 
0.0000000e+00 -4.0501934e-03 0.0000000e+00 
0.0000000e+00 -4.0213424e-03 0.0000000e+00 
0.0000000e+00 -4.2281686e-03 0.0000000e+00 
0.0000000e+00 -4.2392272e-03 0.0000000e+00 
0.0000000e+00 -3.5281677e-03 0.0000000e+00 
0.0000000e+00 -2.5075891e-03 0.0000000e+00 
0.0000000e+00 -1.5926968e-03 0.0000000e+00 
0.0000000e+00 -8.9817535e-04 0.0000000e+00 
0.0000000e+00 -4.3631200e-04 0.0000000e+00 
0.0000000e+00 -1.5876375e-04 0.0000000e+00 
0.0000000e+00 -7.4350714e-06 0.0000000e+00 
0.0000000e+00 6.3219748e-05 0.0000000e+00 
0.0000000e+00 8.3643536e-05 0.0000000e+00 
0.0000000e+00 7.7457400e-05 0.0000000e+00 
0.0000000e+00 6.1097999e-05 0.0000000e+00 
0.0000000e+00 4.3229014e-05 0.0000000e+00 
0.0000000e+00 2.7422137e-05 0.0000000e+00 
0.0000000e+00 1.2006852e-05 0.0000000e+00 
0.0000000e+00 -5.4937004e-06 0.0000000e+00 
0.0000000e+00 -2.4564484e-05 0.0000000e+00 
0.0000000e+00 -4.2251675e-05 0.0000000e+00 
0.0000000e+00 -5.3379834e-05 0.0000000e+00 
0.0000000e+00 -5.2604228e-05 0.0000000e+00 
0.0000000e+00 -3.6101454e-05 0.0000000e+00 
0.0000000e+00 -2.3287525e-06 0.0000000e+00 
0.0000000e+00 4.4775090e-05 0.0000000e+00 
0.0000000e+00 9.9125136e-05 0.0000000e+00 
0.0000000e+00 1.5342198e-04 0.0000000e+00 
0.0000000e+00 2.0050706e-04 0.0000000e+00 
0.0000000e+00 2.3171783e-04 0.0000000e+00 
0.0000000e+00 2.3305816e-04 0.0000000e+00 
0.0000000e+00 1.7723598e-04 0.0000000e+00 
0.0000000e+00 2.3610670e-05 0.0000000e+00 
0.0000000e+00 -2.7502581e-04 0.0000000e+00 
0.0000000e+00 -7.7762624e-04 0.0000000e+00 
0.0000000e+00 -1.5283959e-03 0.0000000e+00 
0.0000000e+00 -2.5124846e-03 0.0000000e+00 
0.0000000e+00 -3.5502308e-03 0.0000000e+00 
0.0000000e+00 -4.2117815e-03 0.0000000e+00 
0.0000000e+00 -4.1480497e-03 0.0000000e+00 
0.0000000e+00 -3.9799870e-03 0.0000000e+00 
0.0000000e+00 -4.0425663e-03 0.0000000e+00 
0.0000000e+00 -4.3007345e-03 0.0000000e+00 
0.0000000e+00 -4.2122421e-03 0.0000000e+00 
0.0000000e+00 -3.3788283e-03 0.0000000e+00 
0.0000000e+00 -2.3233187e-03 0.0000000e+00 
0.0000000e+00 -1.4081621e-03 0.0000000e+00 
0.0000000e+00 -7.2875118e-04 0.0000000e+00 
0.0000000e+00 -2.8663481e-04 0.0000000e+00 
0.0000000e+00 -2.5915524e-05 0.0000000e+00 
0.0000000e+00 1.1270894e-04 0.0000000e+00 
0.0000000e+00 1.7289084e-04 0.0000000e+00 
0.0000000e+00 1.8342314e-04 0.0000000e+00 
0.0000000e+00 1.6476359e-04 0.0000000e+00 
0.0000000e+00 1.3011075e-04 0.0000000e+00 
0.0000000e+00 8.4506290e-05 0.0000000e+00 
0.0000000e+00 3.3166059e-05 0.0000000e+00 
0.0000000e+00 -1.8444436e-05 0.0000000e+00 
0.0000000e+00 -6.4169108e-05 0.0000000e+00 
0.0000000e+00 -9.7771095e-05 0.0000000e+00 
0.0000000e+00 -1.1446261e-04 0.0000000e+00 
0.0000000e+00 -1.1228583e-04 0.0000000e+00 
0.0000000e+00 -9.2634371e-05 0.0000000e+00 
0.0000000e+00 -5.9812286e-05 0.0000000e+00 
0.0000000e+00 -2.0049436e-05 0.0000000e+00 
0.0000000e+00 1.9619591e-05 0.0000000e+00 
0.0000000e+00 5.2500047e-05 0.0000000e+00 
0.0000000e+00 7.3381510e-05 0.0000000e+00 
0.0000000e+00 7.9465470e-05 0.0000000e+00 
0.0000000e+00 7.0742557e-05 0.0000000e+00 
0.0000000e+00 4.9705857e-05 0.0000000e+00 
0.0000000e+00 2.0651210e-05 0.0000000e+00 
0.0000000e+00 -1.1068731e-05 0.0000000e+00 
0.0000000e+00 -3.9703042e-05 0.0000000e+00 
0.0000000e+00 -5.9813330e-05 0.0000000e+00 
0.0000000e+00 -6.7145949e-05 0.0000000e+00 
0.0000000e+00 -1.0355024e-03 0.0000000e+00 
2.3691475e-05 -4.4724460e-05 2.8768673e-07 
-1.0892921e-04 -6.5377943e-04 -1.5045193e-04 
0.0000000e+00 0.0000000e+00 0.0000000e+00 
0.0000000e+00 0.0000000e+00 0.0000000e+00 
0.0000000e+00 0.0000000e+00 0.0000000e+00 
0.0000000e+00 0.0000000e+00 0.0000000e+00 
0.0000000e+00 0.0000000e+00 0.0000000e+00 
0.0000000e+00 0.0000000e+00 0.0000000e+00 
0.0000000e+00 0.0000000e+00 0.0000000e+00 
0.0000000e+00 0.0000000e+00 0.0000000e+00 
0.0000000e+00 0.0000000e+00 0.0000000e+00 
0.0000000e+00 0.0000000e+00 0.0000000e+00 
0.0000000e+00 0.0000000e+00 0.0000000e+00 
0.0000000e+00 0.0000000e+00 0.0000000e+00 
0.0000000e+00 0.0000000e+00 0.0000000e+00 
0.0000000e+00 0.0000000e+00 0.0000000e+00 
0.0000000e+00 0.0000000e+00 0.0000000e+00 
0.0000000e+00 0.0000000e+00 0.0000000e+00 
0.0000000e+00 0.0000000e+00 0.0000000e+00 
0.0000000e+00 0.0000000e+00 0.0000000e+00 
0.0000000e+00 0.0000000e+00 0.0000000e+00 
0.0000000e+00 0.0000000e+00 0.0000000e+00 
0.0000000e+00 0.0000000e+00 0.0000000e+00 
0.0000000e+00 0.0000000e+00 0.0000000e+00 
0.0000000e+00 0.0000000e+00 0.0000000e+00 
0.0000000e+00 0.0000000e+00 0.0000000e+00 
0.0000000e+00 0.0000000e+00 0.0000000e+00 
0.0000000e+00 0.0000000e+00 0.0000000e+00 
0.0000000e+00 0.0000000e+00 0.0000000e+00 
0.0000000e+00 0.0000000e+00 0.0000000e+00 
0.0000000e+00 0.0000000e+00 0.0000000e+00 
0.0000000e+00 0.0000000e+00 0.0000000e+00 
0.0000000e+00 0.0000000e+00 0.0000000e+00 
0.0000000e+00 0.0000000e+00 0.0000000e+00 
0.0000000e+00 0.0000000e+00 0.0000000e+00 
0.0000000e+00 0.0000000e+00 0.0000000e+00 
0.0000000e+00 0.0000000e+00 0.0000000e+00 
0.0000000e+00 0.0000000e+00 0.0000000e+00 
0.0000000e+00 0.0000000e+00 0.0000000e+00 
0.0000000e+00 0.0000000e+00 0.0000000e+00 
0.0000000e+00 0.0000000e+00 0.0000000e+00 
0.0000000e+00 0.0000000e+00 0.0000000e+00 
0.0000000e+00 0.0000000e+00 0.0000000e+00 
0.0000000e+00 0.0000000e+00 0.0000000e+00 
-1.1876615e-06 1.3459338e-07 -6.6497381e-07 
-6.2740501e-06 3.1729437e-07 -4.4288031e-06 
-2.2178231e-06 3.1861487e-07 -9.7628090e-06 
8.1650005e-06 -1.1150055e-06 -9.0340345e-06 
3.0910167e-05 -5.2129640e-06 -1.1046161e-05 
5.2101834e-05 -6.3428743e-06 -8.1329183e-08 
4.5960969e-05 -5.5407882e-06 1.1974019e-05 
2.2904065e-05 -4.6577011e-06 7.5215216e-06 
8.8095931e-06 -1.3725250e-06 2.5814561e-06 
3.3742501e-06 -5.3948778e-08 1.8894746e-06 
-1.4324488e-06 -4.3860509e-06 4.4045396e-06 
-5.4951088e-06 -2.2546203e-06 1.3176781e-06 
-5.9650843e-06 4.3009541e-06 -1.0710518e-06 
5.7861862e-06 -7.4616588e-07 -7.9387837e-06 
3.2503089e-05 -9.6465728e-06 -1.0837374e-05 
5.4775555e-05 -9.8721321e-06 6.9415131e-07 
5.6629306e-05 -1.1332781e-05 1.3359298e-05 
2.2231248e-05 -7.2635339e-06 1.2879740e-05 
-5.8621131e-06 5.8921469e-06 -1.5565507e-07 
0.0000000e+00 1.2907632e-05 0.0000000e+00 
0.0000000e+00 2.1434940e-05 0.0000000e+00 
0.0000000e+00 5.7366142e-05 0.0000000e+00 
0.0000000e+00 3.7781359e-05 0.0000000e+00 
0.0000000e+00 -2.0049288e-04 0.0000000e+00 
0.0000000e+00 -5.7568244e-04 0.0000000e+00 
0.0000000e+00 -5.4285617e-04 0.0000000e+00 
0.0000000e+00 -1.8444435e-04 0.0000000e+00 
0.0000000e+00 5.8411879e-06 0.0000000e+00 
0.0000000e+00 7.6698761e-06 0.0000000e+00 
0.0000000e+00 -6.9750722e-06 0.0000000e+00 
0.0000000e+00 -1.6326227e-05 0.0000000e+00 
0.0000000e+00 5.5426179e-05 0.0000000e+00 
0.0000000e+00 4.0279123e-05 0.0000000e+00 
0.0000000e+00 -2.0909698e-04 0.0000000e+00 
0.0000000e+00 -5.5954902e-04 0.0000000e+00 
0.0000000e+00 -5.3681550e-04 0.0000000e+00 
0.0000000e+00 -1.6391856e-04 0.0000000e+00 
0.0000000e+00 4.0221992e-05 0.0000000e+00 
2.2098041e-06 -3.9670808e-06 -5.3461617e-06 
1.3837346e-06 -8.8653760e-06 -6.9887919e-06 
-3.4065679e-06 -1.9849506e-06 3.2170883e-06 
-8.8187016e-06 1.8231793e-05 -1.0009179e-05 
-1.2056483e-08 -9.0955479e-07 -2.1372343e-06 
-4.8324546e-06 6.5147788e-07 -6.1510773e-06 
2.0201401e-06 2.4771481e-07 -1.4383791e-05 
2.2565939e-05 -3.5857620e-06 -1.4891825e-05 
3.2902990e-05 -3.9390447e-06 -6.0641202e-07 
3.1859399e-05 -3.8598519e-06 6.5683289e-06 
1.7899401e-05 -9.2721359e-07 1.3110895e-05 
6.9885300e-06 -1.3151073e-07 -2.5349243e-07 
9.5594114e-06 -8.9126797e-07 -1.5865776e-06 
4.3056366e-06 -1.8101457e-06 3.8719800e-06 
-1.6095220e-06 -8.1035523e-06 6.6861135e-06 
-5.8628743e-06 -3.0023359e-06 -2.9735734e-06 
-1.5331728e-06 5.3807262e-06 -7.1838058e-06 
2.2981301e-05 -2.0532852e-06 -7.7127834e-06 
3.5537490e-05 -9.2577784e-06 -4.1813507e-07 
3.9776551e-05 -8.3294408e-06 6.9870675e-06 
3.1614807e-05 -8.4481444e-06 1.6280983e-05 
9.8428518e-06 -1.3572109e-06 -1.9693766e-07 
-5.5711625e-06 5.0295680e-06 -2.0258090e-06 
-3.0993778e-07 -9.7629281e-06 -1.0534583e-05 
0.0000000e+00 2.4425373e-05 0.0000000e+00 
0.0000000e+00 3.5247504e-05 0.0000000e+00 
0.0000000e+00 9.7906624e-05 0.0000000e+00 
0.0000000e+00 8.4287574e-05 0.0000000e+00 
0.0000000e+00 -4.2653171e-04 0.0000000e+00 
0.0000000e+00 -1.2650174e-03 0.0000000e+00 
0.0000000e+00 -1.1917717e-03 0.0000000e+00 
0.0000000e+00 -3.4674921e-04 0.0000000e+00 
0.0000000e+00 2.5190406e-05 0.0000000e+00 
0.0000000e+00 1.2132409e-05 0.0000000e+00 
0.0000000e+00 -1.0127257e-05 0.0000000e+00 
0.0000000e+00 -3.2826250e-05 0.0000000e+00 
0.0000000e+00 1.0577602e-04 0.0000000e+00 
0.0000000e+00 8.5560183e-05 0.0000000e+00 
0.0000000e+00 -4.5714679e-04 0.0000000e+00 
0.0000000e+00 -1.2345453e-03 0.0000000e+00 
0.0000000e+00 -1.1609447e-03 0.0000000e+00 
0.0000000e+00 -2.9781790e-04 0.0000000e+00 
0.0000000e+00 8.8004126e-05 0.0000000e+00 
-2.1092774e-06 3.6987938e-05 -1.8109360e-05 
-1.3629691e-05 1.9713556e-05 -2.2547410e-05 
1.8245573e-05 2.8995653e-05 -8.7595676e-05 
7.1529168e-05 9.4490657e-05 -3.2242551e-05 
5.5284559e-05 1.4890682e-04 1.1179095e-04 
-2.6932478e-04 -4.0375936e-04 3.7746213e-04 
-7.1670779e-04 -1.4118565e-03 1.8615036e-04 
-6.3461572e-04 -1.4780854e-03 -1.1271532e-04 
-1.6211435e-04 -3.0059833e-04 -2.6156538e-04 
1.6719923e-05 3.6196659e-05 -1.2483915e-04 
1.5468248e-05 2.2351993e-05 -2.6641965e-05 
-2.4349232e-05 -2.4791028e-05 1.3159131e-05 
-1.3785579e-05 -3.2614938e-05 -1.8381281e-06 
7.4640404e-05 7.3852148e-05 -9.7530690e-05 
5.7711120e-05 1.6149077e-04 8.0207064e-05 
-2.8168669e-04 -4.4094014e-04 3.6686729e-04 
-6.7368202e-04 -1.3387495e-03 1.3753684e-04 
-6.2241917e-04 -1.4427707e-03 -9.2447488e-05 
-1.4161575e-04 -2.9896805e-04 -2.4338489e-04 
9.3247118e-06 1.0112328e-04 -1.4307829e-04 
0.0000000e+00 3.8784354e-05 0.0000000e+00 
0.0000000e+00 4.2124666e-05 0.0000000e+00 
0.0000000e+00 1.3880443e-04 0.0000000e+00 
0.0000000e+00 1.7031950e-04 0.0000000e+00 
0.0000000e+00 -8.1168773e-04 0.0000000e+00 
0.0000000e+00 -2.4332723e-03 0.0000000e+00 
0.0000000e+00 -2.2342005e-03 0.0000000e+00 
0.0000000e+00 -5.7529949e-04 0.0000000e+00 
0.0000000e+00 6.8022069e-05 0.0000000e+00 
0.0000000e+00 2.0189604e-05 0.0000000e+00 
0.0000000e+00 -1.2932016e-05 0.0000000e+00 
0.0000000e+00 -5.5210650e-05 0.0000000e+00 
0.0000000e+00 1.5467028e-04 0.0000000e+00 
0.0000000e+00 1.6425154e-04 0.0000000e+00 
0.0000000e+00 -8.9400279e-04 0.0000000e+00 
0.0000000e+00 -2.3969924e-03 0.0000000e+00 
0.0000000e+00 -2.1898118e-03 0.0000000e+00 
0.0000000e+00 -4.5893920e-04 0.0000000e+00 
0.0000000e+00 1.5901172e-04 0.0000000e+00 
-6.7280216e-06 1.5827807e-06 -8.2944789e-06 
-3.6505460e-06 7.4763966e-06 -1.8575360e-05 
1.1340821e-05 2.4074679e-05 -6.4872520e-06 
2.5815452e-05 5.2449024e-05 2.1669688e-05 
5.5140867e-05 -3.9808438e-05 1.7524502e-05 
5.1731658e-05 -1.1142807e-04 6.5994191e-06 
3.9912109e-05 -1.2027068e-04 1.1247760e-05 
3.1648313e-05 -6.7622968e-05 -4.2307056e-06 
5.6938979e-06 8.1264716e-06 -2.6353133e-05 
3.2134943e-07 2.6639934e-06 -1.5744816e-05 
-1.6122069e-05 -6.6974089e-06 -1.0364846e-06 
-9.4773859e-06 -6.9178063e-06 -6.1275036e-06 
1.0231109e-05 1.9936229e-05 -8.2252518e-06 
1.7619685e-05 5.2706771e-05 1.2467583e-05 
5.9900176e-05 -4.2213229e-05 1.3873506e-05 
6.5639979e-05 -9.9865407e-05 8.8962679e-06 
4.9045702e-05 -1.1317156e-04 2.3695653e-05 
-6.9644543e-06 1.6020915e-05 -2.2953562e-05 
-3.1396357e-05 -2.3613547e-04 -1.1426989e-04 
0.0000000e+00 0.0000000e+00 0.0000000e+00 
0.0000000e+00 0.0000000e+00 0.0000000e+00 
0.0000000e+00 0.0000000e+00 0.0000000e+00 
0.0000000e+00 0.0000000e+00 0.0000000e+00 
0.0000000e+00 0.0000000e+00 0.0000000e+00 
0.0000000e+00 0.0000000e+00 0.0000000e+00 
0.0000000e+00 0.0000000e+00 0.0000000e+00 
0.0000000e+00 0.0000000e+00 0.0000000e+00 
0.0000000e+00 0.0000000e+00 0.0000000e+00 
0.0000000e+00 0.0000000e+00 0.0000000e+00 
0.0000000e+00 0.0000000e+00 0.0000000e+00 
0.0000000e+00 0.0000000e+00 0.0000000e+00 
0.0000000e+00 0.0000000e+00 0.0000000e+00 
0.0000000e+00 0.0000000e+00 0.0000000e+00 
0.0000000e+00 0.0000000e+00 0.0000000e+00 
0.0000000e+00 0.0000000e+00 0.0000000e+00 
0.0000000e+00 0.0000000e+00 0.0000000e+00 
0.0000000e+00 0.0000000e+00 0.0000000e+00 
0.0000000e+00 0.0000000e+00 0.0000000e+00 
0.0000000e+00 0.0000000e+00 0.0000000e+00 
0.0000000e+00 0.0000000e+00 0.0000000e+00 
0.0000000e+00 0.0000000e+00 0.0000000e+00 
0.0000000e+00 0.0000000e+00 0.0000000e+00 
0.0000000e+00 0.0000000e+00 0.0000000e+00 
0.0000000e+00 0.0000000e+00 0.0000000e+00 
0.0000000e+00 0.0000000e+00 0.0000000e+00 
0.0000000e+00 0.0000000e+00 0.0000000e+00 
0.0000000e+00 0.0000000e+00 0.0000000e+00 
0.0000000e+00 0.0000000e+00 0.0000000e+00 
0.0000000e+00 0.0000000e+00 0.0000000e+00 
0.0000000e+00 0.0000000e+00 0.0000000e+00 
0.0000000e+00 0.0000000e+00 0.0000000e+00 
0.0000000e+00 0.0000000e+00 0.0000000e+00 
0.0000000e+00 0.0000000e+00 0.0000000e+00 
0.0000000e+00 0.0000000e+00 0.0000000e+00 
0.0000000e+00 0.0000000e+00 0.0000000e+00 
0.0000000e+00 0.0000000e+00 0.0000000e+00 
0.0000000e+00 0.0000000e+00 0.0000000e+00 
0.0000000e+00 0.0000000e+00 0.0000000e+00 
0.0000000e+00 0.0000000e+00 0.0000000e+00 
0.0000000e+00 0.0000000e+00 0.0000000e+00 
0.0000000e+00 0.0000000e+00 0.0000000e+00 
1.2744599e-06 -1.0407807e-06 4.1146646e-07 
2.5624244e-05 -8.0861773e-06 4.0606606e-06 
2.2548229e-05 -9.9831923e-06 5.2007767e-06 
-2.2723282e-06 -1.5250395e-06 1.3146837e-06 
-3.5657617e-06 8.0476804e-07 7.9785644e-07 
-2.3426189e-06 2.2252339e-06 -1.1664505e-06 
7.3831634e-06 -7.0542997e-06 -6.5358490e-06 
2.6995553e-05 -1.0638979e-05 -2.3899811e-06 