# vtk DataFile Version 4.0
vtk output
ASCII
DATASET UNSTRUCTURED_GRID
POINTS 662 float
0.0000000e+00 0.0000000e+00 0.0000000e+00 
0.0000000e+00 0.0000000e+00 4.0000000e+01 
5.0000000e+00 0.0000000e+00 0.0000000e+00 
5.0000000e+00 0.0000000e+00 4.0000000e+01 
5.0000000e+00 1.0000000e+00 0.0000000e+00 
5.0000000e+00 1.0000000e+00 4.0000000e+01 
0.0000000e+00 1.0000000e+00 0.0000000e+00 
0.0000000e+00 1.0000000e+00 4.0000000e+01 
5.0000000e+00 2.0000000e+00 0.0000000e+00 
5.0000000e+00 2.0000000e+00 4.0000000e+01 
3.0000000e+00 2.0000000e+00 0.0000000e+00 
3.0000000e+00 2.0000000e+00 4.0000000e+01 
0.0000000e+00 2.0000000e+00 0.0000000e+00 
0.0000000e+00 2.0000000e+00 4.0000000e+01 
1.5000000e+00 3.0000000e+00 0.0000000e+00 
1.5000000e+00 3.0000000e+00 4.0000000e+01 
7.5000000e-01 3.0000000e+00 0.0000000e+00 
7.5000000e-01 3.0000000e+00 4.0000000e+01 
0.0000000e+00 3.0000000e+00 0.0000000e+00 
0.0000000e+00 3.0000000e+00 4.0000000e+01 
7.5000000e-01 3.0000000e+00 5.0000000e-01 
7.5000000e-01 3.0000000e+00 1.0000000e+00 
7.5000000e-01 3.0000000e+00 1.5000000e+00 
7.5000000e-01 3.0000000e+00 2.0000000e+00 
7.5000000e-01 3.0000000e+00 2.5000000e+00 
7.5000000e-01 3.0000000e+00 3.0000000e+00 
7.5000000e-01 3.0000000e+00 3.5000000e+00 
7.5000000e-01 3.0000000e+00 4.0000000e+00 
7.5000000e-01 3.0000000e+00 4.5000000e+00 
7.5000000e-01 3.0000000e+00 5.0000000e+00 
7.5000000e-01 3.0000000e+00 5.5000000e+00 
7.5000000e-01 3.0000000e+00 6.0000000e+00 
7.5000000e-01 3.0000000e+00 6.5000000e+00 
7.5000000e-01 3.0000000e+00 7.0000000e+00 
7.5000000e-01 3.0000000e+00 7.5000000e+00 
7.5000000e-01 3.0000000e+00 8.0000000e+00 
7.5000000e-01 3.0000000e+00 8.5000000e+00 
7.5000000e-01 3.0000000e+00 9.0000000e+00 
7.5000000e-01 3.0000000e+00 9.5000000e+00 
7.5000000e-01 3.0000000e+00 1.0000000e+01 
7.5000000e-01 3.0000000e+00 1.0500000e+01 
7.5000000e-01 3.0000000e+00 1.1000000e+01 
7.5000000e-01 3.0000000e+00 1.1500000e+01 
7.5000000e-01 3.0000000e+00 1.2000000e+01 
7.5000000e-01 3.0000000e+00 1.2500000e+01 
7.5000000e-01 3.0000000e+00 1.3000000e+01 
7.5000000e-01 3.0000000e+00 1.3500000e+01 
7.5000000e-01 3.0000000e+00 1.4000000e+01 
7.5000000e-01 3.0000000e+00 1.4500000e+01 
7.5000000e-01 3.0000000e+00 1.5000000e+01 
7.5000000e-01 3.0000000e+00 1.5500000e+01 
7.5000000e-01 3.0000000e+00 1.6000000e+01 
7.5000000e-01 3.0000000e+00 1.6500000e+01 
7.5000000e-01 3.0000000e+00 1.7000000e+01 
7.5000000e-01 3.0000000e+00 1.7500000e+01 
7.5000000e-01 3.0000000e+00 1.8000000e+01 
7.5000000e-01 3.0000000e+00 1.8500000e+01 
7.5000000e-01 3.0000000e+00 1.9000000e+01 
7.5000000e-01 3.0000000e+00 1.9500000e+01 
7.5000000e-01 3.0000000e+00 2.0000000e+01 
7.5000000e-01 3.0000000e+00 2.0500000e+01 
7.5000000e-01 3.0000000e+00 2.1000000e+01 
7.5000000e-01 3.0000000e+00 2.1500000e+01 
7.5000000e-01 3.0000000e+00 2.2000000e+01 
7.5000000e-01 3.0000000e+00 2.2500000e+01 
7.5000000e-01 3.0000000e+00 2.3000000e+01 
7.5000000e-01 3.0000000e+00 2.3500000e+01 
7.5000000e-01 3.0000000e+00 2.4000000e+01 
7.5000000e-01 3.0000000e+00 2.4500000e+01 
7.5000000e-01 3.0000000e+00 2.5000000e+01 
7.5000000e-01 3.0000000e+00 2.5500000e+01 
7.5000000e-01 3.0000000e+00 2.6000000e+01 
7.5000000e-01 3.0000000e+00 2.6500000e+01 
7.5000000e-01 3.0000000e+00 2.7000000e+01 
7.5000000e-01 3.0000000e+00 2.7500000e+01 
7.5000000e-01 3.0000000e+00 2.8000000e+01 
7.5000000e-01 3.0000000e+00 2.8500000e+01 
7.5000000e-01 3.0000000e+00 2.9000000e+01 
7.5000000e-01 3.0000000e+00 2.9500000e+01 
7.5000000e-01 3.0000000e+00 3.0000000e+01 
7.5000000e-01 3.0000000e+00 3.0500000e+01 
7.5000000e-01 3.0000000e+00 3.1000000e+01 
7.5000000e-01 3.0000000e+00 3.1500000e+01 
7.5000000e-01 3.0000000e+00 3.2000000e+01 
7.5000000e-01 3.0000000e+00 3.2500000e+01 
7.5000000e-01 3.0000000e+00 3.3000000e+01 
7.5000000e-01 3.0000000e+00 3.3500000e+01 
7.5000000e-01 3.0000000e+00 3.4000000e+01 
7.5000000e-01 3.0000000e+00 3.4500000e+01 
7.5000000e-01 3.0000000e+00 3.5000000e+01 
7.5000000e-01 3.0000000e+00 3.5500000e+01 
7.5000000e-01 3.0000000e+00 3.6000000e+01 
7.5000000e-01 3.0000000e+00 3.6500000e+01 
7.5000000e-01 3.0000000e+00 3.7000000e+01 
7.5000000e-01 3.0000000e+00 3.7500000e+01 
7.5000000e-01 3.0000000e+00 3.8000000e+01 
7.5000000e-01 3.0000000e+00 3.8500000e+01 
7.5000000e-01 3.0000000e+00 3.9000000e+01 
7.5000000e-01 3.0000000e+00 3.9500000e+01 
7.5000000e-01 3.0000000e+00 4.0500000e+01 
7.5000000e-01 3.0000000e+00 4.1000000e+01 
7.5000000e-01 3.0000000e+00 4.1500000e+01 
7.5000000e-01 3.0000000e+00 4.2000000e+01 
7.5000000e-01 3.0000000e+00 4.2500000e+01 
7.5000000e-01 3.0000000e+00 4.3000000e+01 
7.5000000e-01 3.0000000e+00 4.3500000e+01 
7.5000000e-01 3.0000000e+00 4.4000000e+01 
7.5000000e-01 3.0000000e+00 4.4500000e+01 
7.5000000e-01 3.0000000e+00 4.5000000e+01 
7.5000000e-01 3.0000000e+00 4.5500000e+01 
7.5000000e-01 3.0000000e+00 4.6000000e+01 
7.5000000e-01 3.0000000e+00 4.6500000e+01 
7.5000000e-01 3.0000000e+00 4.7000000e+01 
7.5000000e-01 3.0000000e+00 4.7500000e+01 
7.5000000e-01 3.0000000e+00 4.8000000e+01 
7.5000000e-01 3.0000000e+00 4.8500000e+01 
7.5000000e-01 3.0000000e+00 4.9000000e+01 
7.5000000e-01 3.0000000e+00 4.9500000e+01 
7.5000000e-01 3.0000000e+00 5.0000000e+01 
7.5000000e-01 3.0250001e+00 0.0000000e+00 
7.5000000e-01 3.0250001e+00 5.0000000e-01 
7.5000000e-01 3.0250001e+00 1.0000000e+00 
7.5000000e-01 3.0250001e+00 1.5000000e+00 
7.5000000e-01 3.0250001e+00 2.0000000e+00 
7.5000000e-01 3.0250001e+00 2.5000000e+00 
7.5000000e-01 3.0250001e+00 3.0000000e+00 
7.5000000e-01 3.0250001e+00 3.5000000e+00 
7.5000000e-01 3.0250001e+00 4.0000000e+00 
7.5000000e-01 3.0250001e+00 4.5000000e+00 
7.5000000e-01 3.0250001e+00 5.0000000e+00 
7.5000000e-01 3.0250001e+00 5.5000000e+00 
7.5000000e-01 3.0250001e+00 6.0000000e+00 
7.5000000e-01 3.0250001e+00 6.5000000e+00 
7.5000000e-01 3.0250001e+00 7.0000000e+00 
7.5000000e-01 3.0250001e+00 7.5000000e+00 
7.5000000e-01 3.0250001e+00 8.0000000e+00 
7.5000000e-01 3.0250001e+00 8.5000000e+00 
7.5000000e-01 3.0250001e+00 9.0000000e+00 
7.5000000e-01 3.0250001e+00 9.5000000e+00 
7.5000000e-01 3.0250001e+00 1.0000000e+01 
7.5000000e-01 3.0250001e+00 1.0500000e+01 
7.5000000e-01 3.0250001e+00 1.1000000e+01 
7.5000000e-01 3.0250001e+00 1.1500000e+01 
7.5000000e-01 3.0250001e+00 1.2000000e+01 
7.5000000e-01 3.0250001e+00 1.2500000e+01 
7.5000000e-01 3.0250001e+00 1.3000000e+01 
7.5000000e-01 3.0250001e+00 1.3500000e+01 
7.5000000e-01 3.0250001e+00 1.4000000e+01 
7.5000000e-01 3.0250001e+00 1.4500000e+01 
7.5000000e-01 3.0250001e+00 1.5000000e+01 
7.5000000e-01 3.0250001e+00 1.5500000e+01 
7.5000000e-01 3.0250001e+00 1.6000000e+01 
7.5000000e-01 3.0250001e+00 1.6500000e+01 
7.5000000e-01 3.0250001e+00 1.7000000e+01 
7.5000000e-01 3.0250001e+00 1.7500000e+01 
7.5000000e-01 3.0250001e+00 1.8000000e+01 
7.5000000e-01 3.0250001e+00 1.8500000e+01 
7.5000000e-01 3.0250001e+00 1.9000000e+01 
7.5000000e-01 3.0250001e+00 1.9500000e+01 
7.5000000e-01 3.0250001e+00 2.0000000e+01 
7.5000000e-01 3.0250001e+00 2.0500000e+01 
7.5000000e-01 3.0250001e+00 2.1000000e+01 
7.5000000e-01 3.0250001e+00 2.1500000e+01 
7.5000000e-01 3.0250001e+00 2.2000000e+01 
7.5000000e-01 3.0250001e+00 2.2500000e+01 
7.5000000e-01 3.0250001e+00 2.3000000e+01 
7.5000000e-01 3.0250001e+00 2.3500000e+01 
7.5000000e-01 3.0250001e+00 2.4000000e+01 
7.5000000e-01 3.0250001e+00 2.4500000e+01 
7.5000000e-01 3.0250001e+00 2.5000000e+01 
7.5000000e-01 3.0250001e+00 2.5500000e+01 
7.5000000e-01 3.0250001e+00 2.6000000e+01 
7.5000000e-01 3.0250001e+00 2.6500000e+01 
7.5000000e-01 3.0250001e+00 2.7000000e+01 
7.5000000e-01 3.0250001e+00 2.7500000e+01 
7.5000000e-01 3.0250001e+00 2.8000000e+01 
7.5000000e-01 3.0250001e+00 2.8500000e+01 
7.5000000e-01 3.0250001e+00 2.9000000e+01 
7.5000000e-01 3.0250001e+00 2.9500000e+01 
7.5000000e-01 3.0250001e+00 3.0000000e+01 
7.5000000e-01 3.0250001e+00 3.0500000e+01 
7.5000000e-01 3.0250001e+00 3.1000000e+01 
7.5000000e-01 3.0250001e+00 3.1500000e+01 
7.5000000e-01 3.0250001e+00 3.2000000e+01 
7.5000000e-01 3.0250001e+00 3.2500000e+01 
7.5000000e-01 3.0250001e+00 3.3000000e+01 
7.5000000e-01 3.0250001e+00 3.3500000e+01 
7.5000000e-01 3.0250001e+00 3.4000000e+01 
7.5000000e-01 3.0250001e+00 3.4500000e+01 
7.5000000e-01 3.0250001e+00 3.5000000e+01 
7.5000000e-01 3.0250001e+00 3.5500000e+01 
7.5000000e-01 3.0250001e+00 3.6000000e+01 
7.5000000e-01 3.0250001e+00 3.6500000e+01 
7.5000000e-01 3.0250001e+00 3.7000000e+01 
7.5000000e-01 3.0250001e+00 3.7500000e+01 
7.5000000e-01 3.0250001e+00 3.8000000e+01 
7.5000000e-01 3.0250001e+00 3.8500000e+01 
7.5000000e-01 3.0250001e+00 3.9000000e+01 
7.5000000e-01 3.0250001e+00 3.9500000e+01 
7.5000000e-01 3.0250001e+00 4.0000000e+01 
7.5000000e-01 3.0250001e+00 4.0500000e+01 
7.5000000e-01 3.0250001e+00 4.1000000e+01 
7.5000000e-01 3.0250001e+00 4.1500000e+01 
7.5000000e-01 3.0250001e+00 4.2000000e+01 
7.5000000e-01 3.0250001e+00 4.2500000e+01 
7.5000000e-01 3.0250001e+00 4.3000000e+01 
7.5000000e-01 3.0250001e+00 4.3500000e+01 
7.5000000e-01 3.0250001e+00 4.4000000e+01 
7.5000000e-01 3.0250001e+00 4.4500000e+01 
7.5000000e-01 3.0250001e+00 4.5000000e+01 
7.5000000e-01 3.0250001e+00 4.5500000e+01 
7.5000000e-01 3.0250001e+00 4.6000000e+01 
7.5000000e-01 3.0250001e+00 4.6500000e+01 
7.5000000e-01 3.0250001e+00 4.7000000e+01 
7.5000000e-01 3.0250001e+00 4.7500000e+01 
7.5000000e-01 3.0250001e+00 4.8000000e+01 
7.5000000e-01 3.0250001e+00 4.8500000e+01 
7.5000000e-01 3.0250001e+00 4.9000000e+01 
7.5000000e-01 3.0250001e+00 4.9500000e+01 
7.5000000e-01 3.0250001e+00 5.0000000e+01 
7.5000000e-01 3.0250001e+00 3.5750000e+01 
3.0000000e+00 2.0000000e+00 3.6000000e+01 
8.0487806e-01 3.0000000e+00 3.6000000e+01 
0.0000000e+00 0.0000000e+00 2.0000000e+00 
0.0000000e+00 0.0000000e+00 4.0000000e+00 
0.0000000e+00 0.0000000e+00 6.0000000e+00 
0.0000000e+00 0.0000000e+00 8.0000000e+00 
0.0000000e+00 0.0000000e+00 1.0000000e+01 
0.0000000e+00 0.0000000e+00 1.2000000e+01 
0.0000000e+00 0.0000000e+00 1.4000000e+01 
[...]
POINT_DATA 662
FIELD FieldData 3
DISPLACEMENT 3 662  float
0.0000000e+00 0.0000000e+00 0.0000000e+00 
0.0000000e+00 0.0000000e+00 0.0000000e+00 
0.0000000e+00 0.0000000e+00 0.0000000e+00 
0.0000000e+00 0.0000000e+00 0.0000000e+00 
2.8720749e-05 1.7895583e-05 -2.7120326e-05 
-8.5247379e-08 -1.3395380e-06 1.6377500e-07 
0.0000000e+00 1.2877706e-05 0.0000000e+00 
0.0000000e+00 -1.8214355e-06 0.0000000e+00 
5.7522553e-05 -2.6154282e-07 -4.1692849e-05 
-1.8047191e-07 -1.4818665e-06 1.1335804e-06 
5.4875695e-06 -4.1921739e-05 -9.1617934e-05 
-6.1596518e-07 -1.8394633e-06 7.6910345e-07 
0.0000000e+00 1.1320005e-04 0.0000000e+00 
0.0000000e+00 -3.1410320e-06 0.0000000e+00 
1.6338845e-04 6.9220478e-05 -6.3062187e-05 
-1.7790495e-07 -8.7698163e-06 -2.1907579e-06 
-4.4904551e-05 5.8431883e-04 8.3006067e-05 
6.2110399e-07 -8.9741125e-06 -7.7283374e-07 
0.0000000e+00 -8.4209067e-05 0.0000000e+00 
0.0000000e+00 -6.8396603e-06 0.0000000e+00 
1.8632761e-04 4.5926456e-04 1.0275106e-04 
6.9088346e-05 1.4472187e-04 1.0336165e-04 
-1.0606811e-04 -2.8807289e-04 3.2538961e-04 
-1.6887032e-04 -8.6000183e-04 3.3551324e-04 
6.3611878e-05 -1.6144890e-03 1.8213312e-04 
-5.4317178e-07 -2.5454343e-03 2.0234940e-04 
8.0226448e-05 -3.3801873e-03 1.8788484e-04 
-4.4162065e-05 -3.4927181e-03 1.7214705e-04 
-1.9980197e-04 -3.3876225e-03 1.4667526e-04 
-2.9384161e-04 -3.4549681e-03 1.2438769e-04 
-2.2300376e-04 -3.8545902e-03 1.0148703e-04 
-3.2524807e-05 -4.0584593e-03 1.5930884e-05 
-1.4753037e-04 -3.5058053e-03 -8.0449041e-05 
-2.5973888e-04 -2.5560306e-03 -1.1156657e-04 
-2.7190711e-04 -1.6853926e-03 -1.0951165e-04 
-7.6434313e-05 -1.0233298e-03 -9.3648297e-05 
-4.2879616e-05 -6.1305414e-04 -1.9431116e-04 
-5.7493853e-05 -3.6594807e-04 -1.9969702e-04 
-1.9868294e-05 -2.0453257e-04 -2.1071383e-04 
3.0630338e-06 -9.5015210e-05 -1.9426322e-04 
6.0413826e-05 -2.1578115e-05 -1.2141968e-04 
5.0789469e-05 3.6028323e-05 -5.1401148e-05 
3.4860423e-05 9.5762385e-05 2.0599451e-05 
9.8948240e-06 1.4389533e-04 7.9532343e-05 
-2.8175074e-05 1.5345616e-04 9.1303547e-05 
-8.0728996e-06 1.2069441e-04 7.3732095e-05 
-2.0319949e-05 5.3025477e-05 2.2108101e-05 
1.2313773e-05 -1.1142844e-05 -4.4087374e-05 
-1.9479021e-05 -3.5933390e-05 -7.1151393e-05 
-4.8023245e-05 -1.9948364e-05 -8.1981481e-05 
-2.0678617e-05 1.4279540e-05 -8.8423178e-05 
9.7216925e-06 6.1242965e-05 -7.2332841e-05 
7.2096496e-05 1.0848951e-04 -7.9985170e-05 
2.9711351e-05 1.5124289e-04 -6.7794725e-05 
1.5516041e-05 2.0311441e-04 -3.4022454e-05 
-7.8361217e-07 2.5109219e-04 -4.5127465e-05 
1.1897986e-04 3.0468614e-04 9.4808956e-07 
1.9283454e-04 3.8507840e-04 -1.2765769e-05 
-3.8793823e-05 4.9960415e-04 -2.4505338e-05 
-1.3169716e-04 5.5357668e-04 -2.4387521e-06 
2.0411343e-04 4.5270778e-04 5.7582100e-05 
3.4092832e-04 1.6696307e-04 6.2896695e-05 
1.3797944e-04 -3.2384458e-04 5.8028611e-05 
-2.8515307e-04 -9.8656036e-04 7.6613025e-05 
-1.5769120e-04 -1.8380451e-03 2.1035007e-04 
-8.8577235e-06 -2.7644048e-03 2.2744478e-04 
8.2435748e-05 -3.5168333e-03 1.9968998e-04 
-1.4394961e-04 -3.6043574e-03 2.5547933e-04 
-2.8815598e-04 -3.5520464e-03 2.1862620e-04 
-2.5827161e-04 -3.6583275e-03 1.7034977e-04 
-1.5132218e-04 -3.9867833e-03 1.0509357e-04 
-8.2094164e-05 -4.0182956e-03 5.3117645e-05 
-1.6533813e-04 -3.3496416e-03 -8.7954220e-05 
-2.5287227e-04 -2.3894866e-03 -1.5294112e-04 
-2.1305859e-04 -1.5811975e-03 -1.7568965e-04 
-6.9608330e-05 -9.7643072e-04 -1.4844014e-04 
-4.5686276e-05 -5.7165755e-04 -2.0742306e-04 
-3.3069224e-05 -3.1008400e-04 -1.9087800e-04 
-2.3850216e-05 -1.4849818e-04 -1.7036209e-04 
1.7132808e-05 -4.4471944e-05 -1.2388600e-04 
3.9562485e-05 3.2610238e-05 -8.2501567e-05 
4.5709370e-05 9.1556059e-05 -3.0020597e-05 
2.9928127e-05 1.2360852e-04 1.4459617e-05 
3.9128304e-06 1.2777717e-04 4.6005924e-05 
-4.0978371e-06 1.0984059e-04 5.5357472e-05 
-1.2710592e-05 7.9291996e-05 4.3485899e-05 
-1.1333074e-05 4.1089457e-05 2.5141464e-05 
-5.9247354e-06 3.1584984e-06 2.5070772e-06 
-4.9440901e-06 -2.4018429e-05 -8.0796071e-06 
-7.9745519e-08 -3.6673635e-05 -1.5531137e-05 
3.3474566e-06 -3.4997713e-05 -1.8575691e-05 
3.2958092e-06 -2.4000903e-05 -1.1317834e-05 
2.9929176e-06 -7.9888823e-06 -4.5986644e-06 
1.4872543e-06 8.0495702e-06 2.9902812e-06 
-1.0620022e-06 1.8099277e-05 7.0728879e-06 
-9.2439137e-07 1.8598636e-05 5.7773582e-06 
-3.5426197e-07 1.0021497e-05 2.5656848e-06 
-4.0026924e-07 -1.9010625e-06 -9.0149183e-07 
-9.8067368e-08 -9.1267375e-06 -3.0241351e-06 
0.0000000e+00 -4.1126382e-06 0.0000000e+00 
0.0000000e+00 1.0558542e-06 0.0000000e+00 
0.0000000e+00 3.3967301e-06 0.0000000e+00 
0.0000000e+00 2.9305738e-06 0.0000000e+00 
0.0000000e+00 1.6246369e-06 0.0000000e+00 
0.0000000e+00 9.9830334e-07 0.0000000e+00 
0.0000000e+00 9.5559631e-07 0.0000000e+00 
0.0000000e+00 5.6796102e-07 0.0000000e+00 
0.0000000e+00 -4.9955884e-07 0.0000000e+00 
0.0000000e+00 -1.5396541e-06 0.0000000e+00 
0.0000000e+00 -1.6189151e-06 0.0000000e+00 
0.0000000e+00 -6.0979454e-07 0.0000000e+00 
0.0000000e+00 6.5746042e-07 0.0000000e+00 
0.0000000e+00 1.1872373e-06 0.0000000e+00 
0.0000000e+00 6.9873505e-07 0.0000000e+00 
0.0000000e+00 -2.2402207e-07 0.0000000e+00 
0.0000000e+00 -7.4410053e-07 0.0000000e+00 
0.0000000e+00 -5.0496823e-07 0.0000000e+00 
0.0000000e+00 1.3910454e-07 0.0000000e+00 
0.0000000e+00 4.8780237e-07 0.0000000e+00 
0.0000000e+00 5.8022374e-04 0.0000000e+00 
0.0000000e+00 4.5948094e-04 0.0000000e+00 
0.0000000e+00 1.4988745e-04 0.0000000e+00 
0.0000000e+00 -2.8527918e-04 0.0000000e+00 
0.0000000e+00 -8.6082856e-04 0.0000000e+00 
0.0000000e+00 -1.6293708e-03 0.0000000e+00 
0.0000000e+00 -2.5844914e-03 0.0000000e+00 
0.0000000e+00 -3.4032529e-03 0.0000000e+00 
0.0000000e+00 -3.5178291e-03 0.0000000e+00 
0.0000000e+00 -3.3997302e-03 0.0000000e+00 
0.0000000e+00 -3.4887062e-03 0.0000000e+00 
0.0000000e+00 -3.8768435e-03 0.0000000e+00 
0.0000000e+00 -4.0900707e-03 0.0000000e+00 
0.0000000e+00 -3.5220208e-03 0.0000000e+00 
0.0000000e+00 -2.5743786e-03 0.0000000e+00 
0.0000000e+00 -1.6897891e-03 0.0000000e+00 
0.0000000e+00 -1.0288112e-03 0.0000000e+00 
0.0000000e+00 -6.1244972e-04 0.0000000e+00 
0.0000000e+00 -3.6377501e-04 0.0000000e+00 
0.0000000e+00 -2.0375042e-04 0.0000000e+00 
0.0000000e+00 -9.4977651e-05 0.0000000e+00 
0.0000000e+00 -2.1155340e-05 0.0000000e+00 
0.0000000e+00 3.7631296e-05 0.0000000e+00 
0.0000000e+00 9.6092837e-05 0.0000000e+00 
0.0000000e+00 1.4252593e-04 0.0000000e+00 
0.0000000e+00 1.5294741e-04 0.0000000e+00 
0.0000000e+00 1.1920644e-04 0.0000000e+00 
0.0000000e+00 5.3376731e-05 0.0000000e+00 
0.0000000e+00 -9.0343437e-06 0.0000000e+00 
0.0000000e+00 -3.4824170e-05 0.0000000e+00 
0.0000000e+00 -2.1122920e-05 0.0000000e+00 
0.0000000e+00 1.4213590e-05 0.0000000e+00 
0.0000000e+00 6.0592341e-05 0.0000000e+00 
0.0000000e+00 1.0786385e-04 0.0000000e+00 
0.0000000e+00 1.5328407e-04 0.0000000e+00 
0.0000000e+00 2.0188601e-04 0.0000000e+00 
0.0000000e+00 2.4960641e-04 0.0000000e+00 
0.0000000e+00 3.0530294e-04 0.0000000e+00 
0.0000000e+00 3.9039564e-04 0.0000000e+00 
0.0000000e+00 5.0081260e-04 0.0000000e+00 
0.0000000e+00 5.5152242e-04 0.0000000e+00 
0.0000000e+00 4.5197550e-04 0.0000000e+00 
0.0000000e+00 1.6339548e-04 0.0000000e+00 
0.0000000e+00 -3.2191814e-04 0.0000000e+00 
0.0000000e+00 -9.9172536e-04 0.0000000e+00 
0.0000000e+00 -1.8468840e-03 0.0000000e+00 
0.0000000e+00 -2.8019419e-03 0.0000000e+00 
0.0000000e+00 -3.5426544e-03 0.0000000e+00 
0.0000000e+00 -3.6348500e-03 0.0000000e+00 
0.0000000e+00 -3.5646940e-03 0.0000000e+00 
0.0000000e+00 -3.6881652e-03 0.0000000e+00 
0.0000000e+00 -4.0075867e-03 0.0000000e+00 
0.0000000e+00 -4.0531000e-03 0.0000000e+00 
0.0000000e+00 -3.3679535e-03 0.0000000e+00 
0.0000000e+00 -2.4083159e-03 0.0000000e+00 
0.0000000e+00 -1.5834416e-03 0.0000000e+00 
0.0000000e+00 -9.7845332e-04 0.0000000e+00 
0.0000000e+00 -5.7129341e-04 0.0000000e+00 
0.0000000e+00 -3.0996889e-04 0.0000000e+00 
0.0000000e+00 -1.4768011e-04 0.0000000e+00 
0.0000000e+00 -4.3206062e-05 0.0000000e+00 
0.0000000e+00 3.3319324e-05 0.0000000e+00 
0.0000000e+00 9.0953159e-05 0.0000000e+00 
0.0000000e+00 1.2332282e-04 0.0000000e+00 
0.0000000e+00 1.2789175e-04 0.0000000e+00 
0.0000000e+00 1.1013923e-04 0.0000000e+00 
0.0000000e+00 7.9013727e-05 0.0000000e+00 
0.0000000e+00 4.0921346e-05 0.0000000e+00 
0.0000000e+00 3.6259939e-06 0.0000000e+00 
0.0000000e+00 -2.3753209e-05 0.0000000e+00 
0.0000000e+00 -3.6515474e-05 0.0000000e+00 
0.0000000e+00 -3.5097790e-05 0.0000000e+00 
0.0000000e+00 -2.3958579e-05 0.0000000e+00 
0.0000000e+00 -7.9072333e-06 0.0000000e+00 
0.0000000e+00 7.8766625e-06 0.0000000e+00 
0.0000000e+00 1.7846127e-05 0.0000000e+00 
0.0000000e+00 1.8366734e-05 0.0000000e+00 
0.0000000e+00 1.0006774e-05 0.0000000e+00 
0.0000000e+00 -1.5680782e-06 0.0000000e+00 
0.0000000e+00 -8.8961015e-06 0.0000000e+00 
0.0000000e+00 -8.9656505e-06 0.0000000e+00 
0.0000000e+00 -4.2140300e-06 0.0000000e+00 
0.0000000e+00 9.2336677e-07 0.0000000e+00 
0.0000000e+00 3.3488438e-06 0.0000000e+00 
0.0000000e+00 2.9783132e-06 0.0000000e+00 
0.0000000e+00 1.6888466e-06 0.0000000e+00 
0.0000000e+00 1.0075894e-06 0.0000000e+00 
0.0000000e+00 9.1481559e-07 0.0000000e+00 
0.0000000e+00 5.3532659e-07 0.0000000e+00 
0.0000000e+00 -4.8508883e-07 0.0000000e+00 
0.0000000e+00 -1.4969254e-06 0.0000000e+00 
0.0000000e+00 -1.5954558e-06 0.0000000e+00 
0.0000000e+00 -6.2690464e-07 0.0000000e+00 
0.0000000e+00 6.2329343e-07 0.0000000e+00 
0.0000000e+00 1.1722205e-06 0.0000000e+00 
0.0000000e+00 7.1148156e-07 0.0000000e+00 
0.0000000e+00 -2.0523413e-07 0.0000000e+00 
0.0000000e+00 -7.3992913e-07 0.0000000e+00 
0.0000000e+00 -5.1236952e-07 0.0000000e+00 
0.0000000e+00 1.3504702e-07 0.0000000e+00 
0.0000000e+00 4.8921208e-07 0.0000000e+00 
0.0000000e+00 -3.0501422e-05 0.0000000e+00 
-2.2699585e-06 -6.9727935e-06 -4.2744770e-07 
4.1095802e-07 -2.7086910e-05 -1.4248701e-05 
0.0000000e+00 0.0000000e+00 0.0000000e+00 
0.0000000e+00 0.0000000e+00 0.0000000e+00 
0.0000000e+00 0.0000000e+00 0.0000000e+00 
0.0000000e+00 0.0000000e+00 0.0000000e+00 
0.0000000e+00 0.0000000e+00 0.0000000e+00 
0.0000000e+00 0.0000000e+00 0.0000000e+00 
0.0000000e+00 0.0000000e+00 0.0000000e+00 
0.0000000e+00 0.0000000e+00 0.0000000e+00 
0.0000000e+00 0.0000000e+00 0.0000000e+00 
0.0000000e+00 0.0000000e+00 0.0000000e+00 
0.0000000e+00 0.0000000e+00 0.0000000e+00 
0.0000000e+00 0.0000000e+00 0.0000000e+00 
0.0000000e+00 0.0000000e+00 0.0000000e+00 
0.0000000e+00 0.0000000e+00 0.0000000e+00 
0.0000000e+00 0.0000000e+00 0.0000000e+00 
0.0000000e+00 0.0000000e+00 0.0000000e+00 
0.0000000e+00 0.0000000e+00 0.0000000e+00 
0.0000000e+00 0.0000000e+00 0.0000000e+00 
0.0000000e+00 0.0000000e+00 0.0000000e+00 
0.0000000e+00 0.0000000e+00 0.0000000e+00 
0.0000000e+00 0.0000000e+00 0.0000000e+00 
0.0000000e+00 0.0000000e+00 0.0000000e+00 
0.0000000e+00 0.0000000e+00 0.0000000e+00 
0.0000000e+00 0.0000000e+00 0.0000000e+00 
0.0000000e+00 0.0000000e+00 0.0000000e+00 
0.0000000e+00 0.0000000e+00 0.0000000e+00 
0.0000000e+00 0.0000000e+00 0.0000000e+00 
0.0000000e+00 0.0000000e+00 0.0000000e+00 
0.0000000e+00 0.0000000e+00 0.0000000e+00 
0.0000000e+00 0.0000000e+00 0.0000000e+00 
0.0000000e+00 0.0000000e+00 0.0000000e+00 
0.0000000e+00 0.0000000e+00 0.0000000e+00 
0.0000000e+00 0.0000000e+00 0.0000000e+00 
0.0000000e+00 0.0000000e+00 0.0000000e+00 
0.0000000e+00 0.0000000e+00 0.0000000e+00 
0.0000000e+00 0.0000000e+00 0.0000000e+00 
0.0000000e+00 0.0000000e+00 0.0000000e+00 
0.0000000e+00 0.0000000e+00 0.0000000e+00 
0.0000000e+00 0.0000000e+00 0.0000000e+00 
0.0000000e+00 0.0000000e+00 0.0000000e+00 
0.0000000e+00 0.0000000e+00 0.0000000e+00 
0.0000000e+00 0.0000000e+00 0.0000000e+00 
3.4815304e-05 7.4278296e-06 -2.4948116e-05 
5.0135935e-05 2.6241341e-05 -2.2942932e-05 
4.5389930e-05 -1.7166107e-05 -2.0442692e-05 
-1.1870899e-05 -5.1587385e-06 -1.6174625e-05 
1.2719965e-05 -9.5987161e-06 8.4583089e-06 
-1.5358984e-06 6.4772403e-06 6.8549298e-06 
1.5064034e-06 5.0569606e-06 1.3225026e-05 
-6.6946745e-06 1.1090025e-05 4.9532564e-06 
-3.5934554e-06 2.0444020e-05 7.9199081e-06 
1.4559350e-05 7.9593719e-06 -3.4476034e-05 
3.9884802e-05 1.2580132e-05 2.5187126e-05 
4.4468110e-05 2.0994386e-05 -7.7857467e-06 
2.7775335e-05 7.6400538e-06 -1.6800599e-05 
1.3692216e-06 -1.5750325e-05 -1.4679439e-05 
9.7733509e-06 2.1712467e-06 1.3212271e-05 
1.1164340e-06 3.3193273e-06 1.2545306e-05 
1.5112606e-06 -8.0461831e-07 3.2281478e-06 
-1.3744075e-06 -3.1251438e-06 -2.6940143e-06 
4.6517243e-07 2.2051245e-06 1.0228560e-07 
0.0000000e+00 -2.5957159e-04 0.0000000e+00 
0.0000000e+00 -4.5246663e-04 0.0000000e+00 
0.0000000e+00 -4.5071397e-04 0.0000000e+00 
0.0000000e+00 -1.5867692e-04 0.0000000e+00 
0.0000000e+00 -6.0843842e-05 0.0000000e+00 
0.0000000e+00 4.8660029e-05 0.0000000e+00 
0.0000000e+00 3.5286605e-06 0.0000000e+00 
0.0000000e+00 1.1938255e-04 0.0000000e+00 
0.0000000e+00 -3.0959160e-05 0.0000000e+00 
0.0000000e+00 -1.7320555e-04 0.0000000e+00 
0.0000000e+00 -3.2193825e-04 0.0000000e+00 
0.0000000e+00 -5.3193438e-04 0.0000000e+00 
0.0000000e+00 -4.8629171e-04 0.0000000e+00 
0.0000000e+00 -1.7542014e-04 0.0000000e+00 
0.0000000e+00 -9.5739315e-06 0.0000000e+00 
0.0000000e+00 2.6572303e-05 0.0000000e+00 
0.0000000e+00 -2.9438143e-06 0.0000000e+00 
0.0000000e+00 -3.0962656e-06 0.0000000e+00 
0.0000000e+00 1.9139820e-06 0.0000000e+00 
2.1484500e-05 -7.7705110e-05 -3.6076330e-05 
6.7990099e-05 8.8042303e-05 -3.7581351e-05 
-2.8651738e-07 -1.0788559e-06 -1.2192075e-07 
-3.2908889e-07 -1.2651903e-06 -3.6325156e-07 
2.4754660e-05 6.3627231e-06 -3.1524520e-05 
5.6980851e-05 5.1971765e-05 -2.1749984e-05 
4.8969508e-05 -9.9107383e-06 -7.9223373e-06 
9.6279964e-06 -7.9100364e-06 -1.9303923e-05 
4.8611646e-06 -1.6027161e-05 2.0265547e-06 
-1.0876645e-05 7.3666602e-06 1.1684358e-05 
1.5333493e-05 5.3180433e-06 6.5561144e-06 
1.4573351e-05 1.0729887e-05 -5.1744432e-06 
2.8202820e-05 2.4120420e-05 3.5602532e-06 
-1.1223647e-05 3.3541419e-05 1.8690283e-06 
1.9501390e-06 4.3098564e-05 -1.0223476e-05 
6.6375353e-05 3.0232599e-05 -9.4531315e-06 
4.0355415e-05 1.2164430e-05 8.7295342e-07 
3.9668835e-06 -2.3146651e-05 -1.5071965e-06 
-3.4059401e-06 -6.2082114e-07 -1.7643142e-06 
3.7304437e-06 4.0889536e-06 1.5324749e-05 
4.6184182e-06 -5.0366054e-07 4.5515558e-06 
-6.0855780e-07 -2.6740745e-06 -3.7079200e-08 
-2.1595999e-07 1.8124779e-06 -9.1393053e-07 
-1.2175577e-05 1.1607563e-04 -4.2082807e-05 
0.0000000e+00 -4.8187294e-04 0.0000000e+00 
0.0000000e+00 -1.0251981e-03 0.0000000e+00 
0.0000000e+00 -1.0519387e-03 0.0000000e+00 
0.0000000e+00 -3.0082336e-04 0.0000000e+00 
0.0000000e+00 -1.1681663e-04 0.0000000e+00 
0.0000000e+00 1.1440676e-04 0.0000000e+00 
0.0000000e+00 -2.3527222e-05 0.0000000e+00 
0.0000000e+00 1.1854435e-04 0.0000000e+00 
0.0000000e+00 1.2426706e-04 0.0000000e+00 
0.0000000e+00 -1.5644981e-04 0.0000000e+00 
0.0000000e+00 -6.3001696e-04 0.0000000e+00 
0.0000000e+00 -1.0163143e-03 0.0000000e+00 
0.0000000e+00 -1.0921971e-03 0.0000000e+00 
0.0000000e+00 -3.4846383e-04 0.0000000e+00 
0.0000000e+00 -7.0728038e-06 0.0000000e+00 
0.0000000e+00 5.2798940e-05 0.0000000e+00 
0.0000000e+00 -8.2495617e-06 0.0000000e+00 
0.0000000e+00 -7.9611045e-06 0.0000000e+00 
0.0000000e+00 5.1443672e-06 0.0000000e+00 
-3.1952388e-07 -2.3045627e-06 -5.0033987e-07 
-2.9202478e-04 2.9421793e-05 2.6672863e-04 
-5.4086023e-04 -8.3580008e-04 2.0454527e-04 
-5.8258331e-04 -1.4264334e-03 -5.5097797e-05 
-1.7518732e-04 -2.4933496e-04 -2.4677566e-04 
-3.6927347e-06 -1.9380564e-04 -2.2221036e-04 
3.7232381e-05 1.5271005e-04 7.2428404e-05 
-6.4203168e-06 -1.7019242e-05 3.7108093e-05 
-4.6614723e-06 1.7000924e-05 -3.4209941e-05 
-1.0254347e-05 2.9466220e-04 -9.2843249e-05 
-3.4662666e-05 4.0903679e-04 4.8054702e-05 
-2.9166968e-04 5.8946101e-05 1.9675647e-04 
-6.8961177e-04 -7.6976523e-04 3.2149066e-04 
-6.2331214e-04 -1.2927519e-03 -1.6641148e-05 
-1.7721919e-04 -3.8509024e-04 -3.3325248e-04 
1.5348109e-05 -2.1035305e-05 -1.5949602e-04 
2.4068431e-05 5.3837721e-05 5.8745591e-05 
-1.2088723e-05 1.2831677e-05 3.0625139e-05 
7.1050528e-07 -2.1359767e-05 -1.8788816e-05 
7.4631430e-07 1.4556367e-05 8.3430732e-06 
0.0000000e+00 -5.1381363e-04 0.0000000e+00 
0.0000000e+00 -2.0043321e-03 0.0000000e+00 
0.0000000e+00 -2.2148213e-03 0.0000000e+00 
0.0000000e+00 -5.7468051e-04 0.0000000e+00 
0.0000000e+00 -1.2400390e-04 0.0000000e+00 
0.0000000e+00 1.8759082e-04 0.0000000e+00 
0.0000000e+00 -1.0387617e-04 0.0000000e+00 
0.0000000e+00 2.0139827e-04 0.0000000e+00 
0.0000000e+00 2.8005650e-04 0.0000000e+00 
0.0000000e+00 -1.0681745e-05 0.0000000e+00 
0.0000000e+00 -8.3558768e-04 0.0000000e+00 
0.0000000e+00 -1.8913755e-03 0.0000000e+00 
0.0000000e+00 -2.1287235e-03 0.0000000e+00 
0.0000000e+00 -6.2579376e-04 0.0000000e+00 
0.0000000e+00 -3.6271394e-06 0.0000000e+00 
0.0000000e+00 1.0611042e-04 0.0000000e+00 
0.0000000e+00 -1.2981443e-05 0.0000000e+00 
0.0000000e+00 -1.7544869e-05 0.0000000e+00 
0.0000000e+00 1.5086131e-05 0.0000000e+00 
3.1235442e-05 7.3421012e-05 -6.6374778e-05 
2.4582065e-05 -6.0842969e-05 -3.0563759e-05 
8.5351050e-05 -5.5180302e-05 4.7275465e-05 
1.4561645e-05 -6.3633357e-05 -5.0284430e-05 
-1.0909219e-05 -2.0277343e-05 -4.8875674e-05 
1.4103426e-05 2.7899357e-06 1.8635290e-05 
1.4493372e-07 2.0836498e-05 3.5590434e-05 
1.5824298e-05 -8.2598835e-06 -4.9656987e-06 
1.5866549e-06 3.2046464e-05 -1.5712027e-05 
2.8793491e-05 -1.7357490e-05 2.5134348e-05 
6.7923647e-05 -4.8021044e-05 -1.8571909e-05 
8.9030633e-05 1.5731326e-05 3.3445616e-05 
5.7107165e-05 -6.5659515e-05 1.6616812e-05 
1.1254621e-05 -5.9590478e-05 -4.0007020e-05 
-7.1284280e-06 -2.2798815e-05 -3.9470990e-05 
2.5713082e-06 1.3496211e-05 5.3467425e-06 
2.6937403e-06 8.0499467e-06 1.7610386e-05 
1.2904521e-06 3.7942459e-06 -1.6060687e-06 
1.8239750e-06 -1.7483839e-05 -1.0444322e-05 
0.0000000e+00 0.0000000e+00 0.0000000e+00 
0.0000000e+00 0.0000000e+00 0.0000000e+00 
0.0000000e+00 0.0000000e+00 0.0000000e+00 
0.0000000e+00 0.0000000e+00 0.0000000e+00 
0.0000000e+00 0.0000000e+00 0.0000000e+00 
0.0000000e+00 0.0000000e+00 0.0000000e+00 
0.0000000e+00 0.0000000e+00 0.0000000e+00 
0.0000000e+00 0.0000000e+00 0.0000000e+00 
0.0000000e+00 0.0000000e+00 0.0000000e+00 
0.0000000e+00 0.0000000e+00 0.0000000e+00 
0.0000000e+00 0.0000000e+00 0.0000000e+00 
0.0000000e+00 0.0000000e+00 0.0000000e+00 
0.0000000e+00 0.0000000e+00 0.0000000e+00 
0.0000000e+00 0.0000000e+00 0.0000000e+00 
0.0000000e+00 0.0000000e+00 0.0000000e+00 
0.0000000e+00 0.0000000e+00 0.0000000e+00 
0.0000000e+00 0.0000000e+00 0.0000000e+00 
0.0000000e+00 0.0000000e+00 0.0000000e+00 
0.0000000e+00 0.0000000e+00 0.0000000e+00 
0.0000000e+00 0.0000000e+00 0.0000000e+00 
0.0000000e+00 0.0000000e+00 0.0000000e+00 
0.0000000e+00 0.0000000e+00 0.0000000e+00 
0.0000000e+00 0.0000000e+00 0.0000000e+00 
0.0000000e+00 0.0000000e+00 0.0000000e+00 
0.0000000e+00 0.0000000e+00 0.0000000e+00 
0.0000000e+00 0.0000000e+00 0.0000000e+00 
0.0000000e+00 0.0000000e+00 0.0000000e+00 
0.0000000e+00 0.0000000e+00 0.0000000e+00 
0.0000000e+00 0.0000000e+00 0.0000000e+00 
0.0000000e+00 0.0000000e+00 0.0000000e+00 
0.0000000e+00 0.0000000e+00 0.0000000e+00 
0.0000000e+00 0.0000000e+00 0.0000000e+00 
0.0000000e+00 0.0000000e+00 0.0000000e+00 
0.0000000e+00 0.0000000e+00 0.0000000e+00 
0.0000000e+00 0.0000000e+00 0.0000000e+00 
0.0000000e+00 0.0000000e+00 0.0000000e+00 
0.0000000e+00 0.0000000e+00 0.0000000e+00 
0.0000000e+00 0.0000000e+00 0.0000000e+00 
0.0000000e+00 0.0000000e+00 0.0000000e+00 
0.0000000e+00 0.0000000e+00 0.0000000e+00 
0.0000000e+00 0.0000000e+00 0.0000000e+00 
0.0000000e+00 0.0000000e+00 0.0000000e+00 
1.0291291e-05 4.1584963e-06 -1.8614870e-05 
5.3558836e-07 4.2672782e-06 2.0828654e-06 
-6.3195539e-06 5.2512673e-06 4.7970525e-06 
3.1743610e-05 -3.9627912e-06 1.1207489e-05 
9.0677886e-06 5.5142573e-06 -1.3182679e-05 
4.8911852e-06 -4.6020987e-06 -1.3672940e-05 
4.1656763e-06 -6.2366661e-07 2.7853898e-06 
3.5850085e-06 1.5442163e-06 6.4570977e-06 