# vtk DataFile Version 4.0
vtk output
ASCII
DATASET UNSTRUCTURED_GRID
POINTS 662 float
0.0000000e+00 0.0000000e+00 0.0000000e+00 
0.0000000e+00 0.0000000e+00 4.0000000e+01 
5.0000000e+00 0.0000000e+00 0.0000000e+00 
5.0000000e+00 0.0000000e+00 4.0000000e+01 
5.0000000e+00 1.0000000e+00 0.0000000e+00 
5.0000000e+00 1.0000000e+00 4.0000000e+01 
0.0000000e+00 1.0000000e+00 0.0000000e+00 
0.0000000e+00 1.0000000e+00 4.0000000e+01 
5.0000000e+00 2.0000000e+00 0.0000000e+00 
5.0000000e+00 2.0000000e+00 4.0000000e+01 
3.0000000e+00 2.0000000e+00 0.0000000e+00 
3.0000000e+00 2.0000000e+00 4.0000000e+01 
0.0000000e+00 2.0000000e+00 0.0000000e+00 
0.0000000e+00 2.0000000e+00 4.0000000e+01 
1.5000000e+00 3.0000000e+00 0.0000000e+00 
1.5000000e+00 3.0000000e+00 4.0000000e+01 
7.5000000e-01 3.0000000e+00 0.0000000e+00 
7.5000000e-01 3.0000000e+00 4.0000000e+01 
0.0000000e+00 3.0000000e+00 0.0000000e+00 
0.0000000e+00 3.0000000e+00 4.0000000e+01 
7.5000000e-01 3.0000000e+00 5.0000000e-01 
7.5000000e-01 3.0000000e+00 1.0000000e+00 
7.5000000e-01 3.0000000e+00 1.5000000e+00 
7.5000000e-01 3.0000000e+00 2.0000000e+00 
7.5000000e-01 3.0000000e+00 2.5000000e+00 
7.5000000e-01 3.0000000e+00 3.0000000e+00 
7.5000000e-01 3.0000000e+00 3.5000000e+00 
7.5000000e-01 3.0000000e+00 4.0000000e+00 
7.5000000e-01 3.0000000e+00 4.5000000e+00 
7.5000000e-01 3.0000000e+00 5.0000000e+00 
7.5000000e-01 3.0000000e+00 5.5000000e+00 
7.5000000e-01 3.0000000e+00 6.0000000e+00 
7.5000000e-01 3.0000000e+00 6.5000000e+00 
7.5000000e-01 3.0000000e+00 7.0000000e+00 
7.5000000e-01 3.0000000e+00 7.5000000e+00 
7.5000000e-01 3.0000000e+00 8.0000000e+00 
7.5000000e-01 3.0000000e+00 8.5000000e+00 
7.5000000e-01 3.0000000e+00 9.0000000e+00 
7.5000000e-01 3.0000000e+00 9.5000000e+00 
7.5000000e-01 3.0000000e+00 1.0000000e+01 
7.5000000e-01 3.0000000e+00 1.0500000e+01 
7.5000000e-01 3.0000000e+00 1.1000000e+01 
7.5000000e-01 3.0000000e+00 1.1500000e+01 
7.5000000e-01 3.0000000e+00 1.2000000e+01 
7.5000000e-01 3.0000000e+00 1.2500000e+01 
7.5000000e-01 3.0000000e+00 1.3000000e+01 
7.5000000e-01 3.0000000e+00 1.3500000e+01 
7.5000000e-01 3.0000000e+00 1.4000000e+01 
7.5000000e-01 3.0000000e+00 1.4500000e+01 
7.5000000e-01 3.0000000e+00 1.5000000e+01 
7.5000000e-01 3.0000000e+00 1.5500000e+01 
7.5000000e-01 3.0000000e+00 1.6000000e+01 
7.5000000e-01 3.0000000e+00 1.6500000e+01 
7.5000000e-01 3.0000000e+00 1.7000000e+01 
7.5000000e-01 3.0000000e+00 1.7500000e+01 
7.5000000e-01 3.0000000e+00 1.8000000e+01 
7.5000000e-01 3.0000000e+00 1.8500000e+01 
7.5000000e-01 3.0000000e+00 1.9000000e+01 
7.5000000e-01 3.0000000e+00 1.9500000e+01 
7.5000000e-01 3.0000000e+00 2.0000000e+01 
7.5000000e-01 3.0000000e+00 2.0500000e+01 
7.5000000e-01 3.0000000e+00 2.1000000e+01 
7.5000000e-01 3.0000000e+00 2.1500000e+01 
7.5000000e-01 3.0000000e+00 2.2000000e+01 
7.5000000e-01 3.0000000e+00 2.2500000e+01 
7.5000000e-01 3.0000000e+00 2.3000000e+01 
7.5000000e-01 3.0000000e+00 2.3500000e+01 
7.5000000e-01 3.0000000e+00 2.4000000e+01 
7.5000000e-01 3.0000000e+00 2.4500000e+01 
7.5000000e-01 3.0000000e+00 2.5000000e+01 
7.5000000e-01 3.0000000e+00 2.5500000e+01 
7.5000000e-01 3.0000000e+00 2.6000000e+01 
7.5000000e-01 3.0000000e+00 2.6500000e+01 
7.5000000e-01 3.0000000e+00 2.7000000e+01 
7.5000000e-01 3.0000000e+00 2.7500000e+01 
7.5000000e-01 3.0000000e+00 2.8000000e+01 
7.5000000e-01 3.0000000e+00 2.8500000e+01 
7.5000000e-01 3.0000000e+00 2.9000000e+01 
7.5000000e-01 3.0000000e+00 2.9500000e+01 
7.5000000e-01 3.0000000e+00 3.0000000e+01 
7.5000000e-01 3.0000000e+00 3.0500000e+01 
7.5000000e-01 3.0000000e+00 3.1000000e+01 
7.5000000e-01 3.0000000e+00 3.1500000e+01 
7.5000000e-01 3.0000000e+00 3.2000000e+01 
7.5000000e-01 3.0000000e+00 3.2500000e+01 
7.5000000e-01 3.0000000e+00 3.3000000e+01 
7.5000000e-01 3.0000000e+00 3.3500000e+01 
7.5000000e-01 3.0000000e+00 3.4000000e+01 
7.5000000e-01 3.0000000e+00 3.4500000e+01 
7.5000000e-01 3.0000000e+00 3.5000000e+01 
7.5000000e-01 3.0000000e+00 3.5500000e+01 
7.5000000e-01 3.0000000e+00 3.6000000e+01 
7.5000000e-01 3.0000000e+00 3.6500000e+01 
7.5000000e-01 3.0000000e+00 3.7000000e+01 
7.5000000e-01 3.0000000e+00 3.7500000e+01 
7.5000000e-01 3.0000000e+00 3.8000000e+01 
7.5000000e-01 3.0000000e+00 3.8500000e+01 
7.5000000e-01 3.0000000e+00 3.9000000e+01 
7.5000000e-01 3.0000000e+00 3.9500000e+01 
7.5000000e-01 3.0000000e+00 4.0500000e+01 
7.5000000e-01 3.0000000e+00 4.1000000e+01 
7.5000000e-01 3.0000000e+00 4.1500000e+01 
7.5000000e-01 3.0000000e+00 4.2000000e+01 
7.5000000e-01 3.0000000e+00 4.2500000e+01 
7.5000000e-01 3.0000000e+00 4.3000000e+01 
7.5000000e-01 3.0000000e+00 4.3500000e+01 
7.5000000e-01 3.0000000e+00 4.4000000e+01 
7.5000000e-01 3.0000000e+00 4.4500000e+01 
7.5000000e-01 3.0000000e+00 4.5000000e+01 
7.5000000e-01 3.0000000e+00 4.5500000e+01 
7.5000000e-01 3.0000000e+00 4.6000000e+01 
7.5000000e-01 3.0000000e+00 4.6500000e+01 
7.5000000e-01 3.0000000e+00 4.7000000e+01 
7.5000000e-01 3.0000000e+00 4.7500000e+01 
7.5000000e-01 3.0000000e+00 4.8000000e+01 
7.5000000e-01 3.0000000e+00 4.8500000e+01 
7.5000000e-01 3.0000000e+00 4.9000000e+01 
7.5000000e-01 3.0000000e+00 4.9500000e+01 
7.5000000e-01 3.0000000e+00 5.0000000e+01 
7.5000000e-01 3.0250001e+00 0.0000000e+00 
7.5000000e-01 3.0250001e+00 5.0000000e-01 
7.5000000e-01 3.0250001e+00 1.0000000e+00 
7.5000000e-01 3.0250001e+00 1.5000000e+00 
7.5000000e-01 3.0250001e+00 2.0000000e+00 
7.5000000e-01 3.0250001e+00 2.5000000e+00 
7.5000000e-01 3.0250001e+00 3.0000000e+00 
7.5000000e-01 3.0250001e+00 3.5000000e+00 
7.5000000e-01 3.0250001e+00 4.0000000e+00 
7.5000000e-01 3.0250001e+00 4.5000000e+00 
7.5000000e-01 3.0250001e+00 5.0000000e+00 
7.5000000e-01 3.0250001e+00 5.5000000e+00 
7.5000000e-01 3.0250001e+00 6.0000000e+00 
7.5000000e-01 3.0250001e+00 6.5000000e+00 
7.5000000e-01 3.0250001e+00 7.0000000e+00 
7.5000000e-01 3.0250001e+00 7.5000000e+00 
7.5000000e-01 3.0250001e+00 8.0000000e+00 
7.5000000e-01 3.0250001e+00 8.5000000e+00 
7.5000000e-01 3.0250001e+00 9.0000000e+00 
7.5000000e-01 3.0250001e+00 9.5000000e+00 
7.5000000e-01 3.0250001e+00 1.0000000e+01 
7.5000000e-01 3.0250001e+00 1.0500000e+01 
7.5000000e-01 3.0250001e+00 1.1000000e+01 
7.5000000e-01 3.0250001e+00 1.1500000e+01 
7.5000000e-01 3.0250001e+00 1.2000000e+01 
7.5000000e-01 3.0250001e+00 1.2500000e+01 
7.5000000e-01 3.0250001e+00 1.3000000e+01 
7.5000000e-01 3.0250001e+00 1.3500000e+01 
7.5000000e-01 3.0250001e+00 1.4000000e+01 
7.5000000e-01 3.0250001e+00 1.4500000e+01 
7.5000000e-01 3.0250001e+00 1.5000000e+01 
7.5000000e-01 3.0250001e+00 1.5500000e+01 
7.5000000e-01 3.0250001e+00 1.6000000e+01 
7.5000000e-01 3.0250001e+00 1.6500000e+01 
7.5000000e-01 3.0250001e+00 1.7000000e+01 
7.5000000e-01 3.0250001e+00 1.7500000e+01 
7.5000000e-01 3.0250001e+00 1.8000000e+01 
7.5000000e-01 3.0250001e+00 1.8500000e+01 
7.5000000e-01 3.0250001e+00 1.9000000e+01 
7.5000000e-01 3.0250001e+00 1.9500000e+01 
7.5000000e-01 3.0250001e+00 2.0000000e+01 
7.5000000e-01 3.0250001e+00 2.0500000e+01 
7.5000000e-01 3.0250001e+00 2.1000000e+01 
7.5000000e-01 3.0250001e+00 2.1500000e+01 
7.5000000e-01 3.0250001e+00 2.2000000e+01 
7.5000000e-01 3.0250001e+00 2.2500000e+01 
7.5000000e-01 3.0250001e+00 2.3000000e+01 
7.5000000e-01 3.0250001e+00 2.3500000e+01 
7.5000000e-01 3.0250001e+00 2.4000000e+01 
7.5000000e-01 3.0250001e+00 2.4500000e+01 
7.5000000e-01 3.0250001e+00 2.5000000e+01 
7.5000000e-01 3.0250001e+00 2.5500000e+01 
7.5000000e-01 3.0250001e+00 2.6000000e+01 
7.5000000e-01 3.0250001e+00 2.6500000e+01 
7.5000000e-01 3.0250001e+00 2.7000000e+01 
7.5000000e-01 3.0250001e+00 2.7500000e+01 
7.5000000e-01 3.0250001e+00 2.8000000e+01 
7.5000000e-01 3.0250001e+00 2.8500000e+01 
7.5000000e-01 3.0250001e+00 2.9000000e+01 
7.5000000e-01 3.0250001e+00 2.9500000e+01 
7.5000000e-01 3.0250001e+00 3.0000000e+01 
7.5000000e-01 3.0250001e+00 3.0500000e+01 
7.5000000e-01 3.0250001e+00 3.1000000e+01 
7.5000000e-01 3.0250001e+00 3.1500000e+01 
7.5000000e-01 3.0250001e+00 3.2000000e+01 
7.5000000e-01 3.0250001e+00 3.2500000e+01 
7.5000000e-01 3.0250001e+00 3.3000000e+01 
7.5000000e-01 3.0250001e+00 3.3500000e+01 
7.5000000e-01 3.0250001e+00 3.4000000e+01 
7.5000000e-01 3.0250001e+00 3.4500000e+01 
7.5000000e-01 3.0250001e+00 3.5000000e+01 
7.5000000e-01 3.0250001e+00 3.5500000e+01 
7.5000000e-01 3.0250001e+00 3.6000000e+01 
7.5000000e-01 3.0250001e+00 3.6500000e+01 
7.5000000e-01 3.0250001e+00 3.7000000e+01 
7.5000000e-01 3.0250001e+00 3.7500000e+01 
7.5000000e-01 3.0250001e+00 3.8000000e+01 
7.5000000e-01 3.0250001e+00 3.8500000e+01 
7.5000000e-01 3.0250001e+00 3.9000000e+01 
7.5000000e-01 3.0250001e+00 3.9500000e+01 
7.5000000e-01 3.0250001e+00 4.0000000e+01 
7.5000000e-01 3.0250001e+00 4.0500000e+01 
7.5000000e-01 3.0250001e+00 4.1000000e+01 
7.5000000e-01 3.0250001e+00 4.1500000e+01 
7.5000000e-01 3.0250001e+00 4.2000000e+01 
7.5000000e-01 3.0250001e+00 4.2500000e+01 
7.5000000e-01 3.0250001e+00 4.3000000e+01 
7.5000000e-01 3.0250001e+00 4.3500000e+01 
7.5000000e-01 3.0250001e+00 4.4000000e+01 
7.5000000e-01 3.0250001e+00 4.4500000e+01 
7.5000000e-01 3.0250001e+00 4.5000000e+01 
7.5000000e-01 3.0250001e+00 4.5500000e+01 
7.5000000e-01 3.0250001e+00 4.6000000e+01 
7.5000000e-01 3.0250001e+00 4.6500000e+01 
7.5000000e-01 3.0250001e+00 4.7000000e+01 
7.5000000e-01 3.0250001e+00 4.7500000e+01 
7.5000000e-01 3.0250001e+00 4.8000000e+01 
7.5000000e-01 3.0250001e+00 4.8500000e+01 
7.5000000e-01 3.0250001e+00 4.9000000e+01 
7.5000000e-01 3.0250001e+00 4.9500000e+01 
7.5000000e-01 3.0250001e+00 5.0000000e+01 
7.5000000e-01 3.0250001e+00 3.5750000e+01 
3.0000000e+00 2.0000000e+00 3.6000000e+01 
8.0487806e-01 3.0000000e+00 3.6000000e+01 
0.0000000e+00 0.0000000e+00 2.0000000e+00 
0.0000000e+00 0.0000000e+00 4.0000000e+00 
0.0000000e+00 0.0000000e+00 6.0000000e+00 
0.0000000e+00 0.0000000e+00 8.0000000e+00 
0.0000000e+00 0.0000000e+00 1.0000000e+01 
0.0000000e+00 0.0000000e+00 1.2000000e+01 
0.0000000e+00 0.0000000e+00 1.4000000e+01 
[...]
POINT_DATA 662
FIELD FieldData 3
DISPLACEMENT 3 662  float
0.0000000e+00 0.0000000e+00 0.0000000e+00 
0.0000000e+00 0.0000000e+00 0.0000000e+00 
0.0000000e+00 0.0000000e+00 0.0000000e+00 
0.0000000e+00 0.0000000e+00 0.0000000e+00 
2.0133923e-05 -2.4104014e-05 -3.1878688e-05 
-1.6574468e-07 -7.0373500e-07 -2.8506392e-08 
0.0000000e+00 -9.3707975e-05 0.0000000e+00 
0.0000000e+00 -1.6222633e-06 0.0000000e+00 
2.5226131e-05 -3.2074753e-05 -5.6426237e-05 
-3.6132022e-07 -8.7929345e-07 9.0991477e-07 
6.0812017e-06 -2.8776460e-05 -3.9300139e-05 
-5.6017313e-07 -1.9436800e-06 3.2680197e-07 
0.0000000e+00 -1.1707121e-04 0.0000000e+00 
0.0000000e+00 -3.9893562e-06 0.0000000e+00 
3.4809800e-05 2.1883482e-06 7.5648139e-05 
-6.0486281e-07 -9.2634418e-06 -2.3208540e-06 
1.8561386e-05 3.5640249e-05 2.2667764e-04 
4.8150980e-07 -7.6768802e-06 -6.1989959e-07 
0.0000000e+00 -5.2180971e-05 0.0000000e+00 
0.0000000e+00 -6.4389742e-06 0.0000000e+00 
-4.2412419e-05 -4.5477744e-05 1.8708970e-04 
-6.7163717e-05 -2.8783819e-04 1.2513711e-04 
-8.9835303e-05 -7.1800611e-04 2.1335979e-04 
-1.0716137e-04 -1.3751338e-03 2.3867072e-04 
-1.8693958e-04 -2.2496935e-03 1.2617822e-04 
-2.2005485e-04 -3.2445828e-03 1.3498336e-04 
-1.1839385e-04 -4.0388349e-03 9.9936056e-05 
-8.5229520e-05 -4.0689413e-03 1.1846599e-04 
-2.2953744e-04 -3.9014677e-03 5.2811229e-05 
-3.0289713e-04 -3.9006707e-03 4.1443080e-05 
-2.0744873e-04 -4.1690860e-03 1.0224093e-05 
-6.4433501e-05 -4.2017088e-03 -4.9288305e-05 
-9.9736615e-05 -3.5075629e-03 -1.5902855e-04 
-2.0202291e-04 -2.4777034e-03 -1.9669152e-04 
-1.9409343e-04 -1.5870531e-03 -1.8799496e-04 
-7.2700539e-05 -9.1878162e-04 -1.1750573e-04 
-4.6267844e-05 -5.0481642e-04 -1.5469106e-04 
-4.0511077e-05 -2.7235868e-04 -1.3846951e-04 
-3.1240910e-05 -1.4956683e-04 -1.3516724e-04 
-3.5650148e-06 -7.6535543e-05 -1.2208470e-04 
1.8343733e-05 -1.5733200e-05 -8.8677138e-05 
3.1880205e-05 4.3858876e-05 -4.9593822e-05 
2.1654874e-05 9.9571051e-05 -1.5762183e-05 
4.7520052e-06 1.4029517e-04 1.5797305e-05 
8.3053180e-07 1.5507675e-04 1.7420811e-05 
-3.4499342e-06 1.4711225e-04 1.3567609e-05 
-3.4393020e-06 1.2372698e-04 -9.4202744e-07 
2.5817524e-06 9.3804301e-05 -2.5916042e-05 
4.6418074e-07 6.5768865e-05 -4.0720388e-05 
5.7915654e-06 4.0532115e-05 -4.2644508e-05 
6.7665724e-06 1.6898319e-05 -3.2558924e-05 
6.1158157e-06 -5.5730497e-06 -1.4606537e-05 
5.0187705e-06 -2.7882388e-05 1.3352350e-05 
9.0229169e-06 -4.9811573e-05 3.1923501e-05 
7.6321076e-06 -7.1551258e-05 4.6798104e-05 
-7.1159166e-06 -8.7840541e-05 6.0842409e-05 
-2.5013056e-05 -9.3234084e-05 4.9810686e-05 
-2.8969376e-05 -8.9089815e-05 3.8872120e-05 
-2.0324846e-05 -8.2133556e-05 2.8925804e-05 
-2.2640152e-06 -1.0343093e-04 1.3445153e-05 
-3.6707461e-05 -1.9880245e-04 3.1008702e-05 
-5.7902987e-05 -4.2142675e-04 5.5957757e-05 
-7.8517682e-05 -8.4284908e-04 9.2113565e-05 
-1.1868157e-04 -1.5023120e-03 4.2676475e-05 
-2.2827744e-04 -2.4080889e-03 1.5908755e-04 
-2.1802448e-04 -3.3478069e-03 1.6347997e-04 
-1.2636751e-04 -3.9650518e-03 1.3656788e-04 
-1.0876820e-04 -3.8631801e-03 1.8375124e-04 
-2.6062047e-04 -3.7094413e-03 1.1313123e-04 
-3.2162797e-04 -3.7791443e-03 9.4627896e-05 
-2.1274151e-04 -4.0950743e-03 4.3936932e-05 
-7.8276920e-05 -4.0583340e-03 -1.2866321e-05 
-1.0605103e-04 -3.3165538e-03 -1.4595861e-04 
-2.0151481e-04 -2.3356299e-03 -1.9884280e-04 
-1.8852895e-04 -1.5007517e-03 -2.1300826e-04 
-8.2699837e-05 -8.6925307e-04 -1.5683734e-04 
-4.7005018e-05 -4.6206795e-04 -1.8020773e-04 
-2.7504700e-05 -2.1750697e-04 -1.4395143e-04 
-1.7998656e-05 -7.9105041e-05 -1.2139627e-04 
9.5066807e-06 -8.7221559e-07 -9.4978539e-05 
2.4534022e-05 4.4528562e-05 -6.1864092e-05 
3.5948000e-05 7.3208779e-05 -2.4383386e-05 
2.3402798e-05 9.0753114e-05 8.5386209e-06 
6.4783449e-06 9.6234748e-05 3.3157310e-05 
-1.3686210e-06 8.5829961e-05 3.8753242e-05 
-8.0459931e-06 6.3002219e-05 3.2961332e-05 
-8.4673829e-06 3.4030134e-05 2.0105217e-05 
-5.1913676e-06 5.7559641e-06 3.4522643e-06 
-4.2195106e-06 -1.5109351e-05 -5.7336561e-06 
-2.2897898e-06 -2.7457261e-05 -1.2606931e-05 
2.3163566e-06 -2.9986331e-05 -1.5745592e-05 
1.1493395e-06 -2.3081293e-05 -1.0379250e-05 
1.7043635e-06 -8.7979497e-06 -3.9528818e-06 
1.7569582e-06 6.9385937e-06 2.4675037e-06 
-7.0298029e-07 1.6227033e-05 6.4541177e-06 
-5.2828221e-07 1.6289281e-05 5.3298832e-06 
-5.6673650e-07 8.9071573e-06 2.2426100e-06 
-3.9415193e-07 -8.1564684e-07 -1.2348502e-06 
2.0498147e-08 -6.9128150e-06 -2.8516877e-06 
0.0000000e+00 -4.5993124e-06 0.0000000e+00 
0.0000000e+00 -3.5060896e-07 0.0000000e+00 
0.0000000e+00 2.5407630e-06 0.0000000e+00 
0.0000000e+00 3.1909556e-06 0.0000000e+00 
0.0000000e+00 2.3627983e-06 0.0000000e+00 
0.0000000e+00 1.3359806e-06 0.0000000e+00 
0.0000000e+00 7.4590224e-07 0.0000000e+00 
0.0000000e+00 3.5665821e-07 0.0000000e+00 
0.0000000e+00 -2.7333326e-07 0.0000000e+00 
0.0000000e+00 -1.0913369e-06 0.0000000e+00 
0.0000000e+00 -1.5476836e-06 0.0000000e+00 
0.0000000e+00 -1.1989300e-06 0.0000000e+00 
0.0000000e+00 -2.1234443e-07 0.0000000e+00 
0.0000000e+00 7.5007284e-07 0.0000000e+00 
0.0000000e+00 1.1053244e-06 0.0000000e+00 
0.0000000e+00 7.9095679e-07 0.0000000e+00 
0.0000000e+00 1.9775743e-07 0.0000000e+00 
0.0000000e+00 -2.4829117e-07 0.0000000e+00 
0.0000000e+00 -4.1283559e-07 0.0000000e+00 
0.0000000e+00 -4.2791405e-07 0.0000000e+00 
0.0000000e+00 3.5660632e-05 0.0000000e+00 
0.0000000e+00 -4.3901706e-05 0.0000000e+00 
0.0000000e+00 -2.8715818e-04 0.0000000e+00 
0.0000000e+00 -7.2031486e-04 0.0000000e+00 
0.0000000e+00 -1.3789467e-03 0.0000000e+00 
0.0000000e+00 -2.2622882e-03 0.0000000e+00 
0.0000000e+00 -3.2773467e-03 0.0000000e+00 
0.0000000e+00 -4.0632575e-03 0.0000000e+00 
0.0000000e+00 -4.1001611e-03 0.0000000e+00 
0.0000000e+00 -3.9155539e-03 0.0000000e+00 
0.0000000e+00 -3.9311643e-03 0.0000000e+00 
0.0000000e+00 -4.1892142e-03 0.0000000e+00 
0.0000000e+00 -4.2369566e-03 0.0000000e+00 
0.0000000e+00 -3.5261002e-03 0.0000000e+00 
0.0000000e+00 -2.4967045e-03 0.0000000e+00 
0.0000000e+00 -1.5894719e-03 0.0000000e+00 
0.0000000e+00 -9.2328730e-04 0.0000000e+00 
0.0000000e+00 -5.0475047e-04 0.0000000e+00 
0.0000000e+00 -2.7145891e-04 0.0000000e+00 
0.0000000e+00 -1.4837708e-04 0.0000000e+00 
0.0000000e+00 -7.5224641e-05 0.0000000e+00 
0.0000000e+00 -1.5079215e-05 0.0000000e+00 
0.0000000e+00 4.4268541e-05 0.0000000e+00 
0.0000000e+00 9.9545803e-05 0.0000000e+00 
0.0000000e+00 1.3955396e-04 0.0000000e+00 
0.0000000e+00 1.5489224e-04 0.0000000e+00 
0.0000000e+00 1.4711500e-04 0.0000000e+00 
0.0000000e+00 1.2381934e-04 0.0000000e+00 
0.0000000e+00 9.4247276e-05 0.0000000e+00 
0.0000000e+00 6.5928514e-05 0.0000000e+00 
0.0000000e+00 4.0542021e-05 0.0000000e+00 
0.0000000e+00 1.6902355e-05 0.0000000e+00 
0.0000000e+00 -5.7229672e-06 0.0000000e+00 
0.0000000e+00 -2.7969862e-05 0.0000000e+00 
0.0000000e+00 -5.0159204e-05 0.0000000e+00 
0.0000000e+00 -7.1537281e-05 0.0000000e+00 
0.0000000e+00 -8.7436070e-05 0.0000000e+00 
0.0000000e+00 -9.2902330e-05 0.0000000e+00 
0.0000000e+00 -8.7865788e-05 0.0000000e+00 
0.0000000e+00 -8.1408114e-05 0.0000000e+00 
0.0000000e+00 -1.0299138e-04 0.0000000e+00 
0.0000000e+00 -1.9783447e-04 0.0000000e+00 
0.0000000e+00 -4.2275805e-04 0.0000000e+00 
0.0000000e+00 -8.4475678e-04 0.0000000e+00 
0.0000000e+00 -1.5129527e-03 0.0000000e+00 
0.0000000e+00 -2.4169770e-03 0.0000000e+00 
0.0000000e+00 -3.3829990e-03 0.0000000e+00 
0.0000000e+00 -3.9891074e-03 0.0000000e+00 
0.0000000e+00 -3.8934296e-03 0.0000000e+00 
0.0000000e+00 -3.7230286e-03 0.0000000e+00 
0.0000000e+00 -3.8107613e-03 0.0000000e+00 
0.0000000e+00 -4.1163675e-03 0.0000000e+00 
0.0000000e+00 -4.0920484e-03 0.0000000e+00 
0.0000000e+00 -3.3327187e-03 0.0000000e+00 
0.0000000e+00 -2.3513678e-03 0.0000000e+00 
0.0000000e+00 -1.5024683e-03 0.0000000e+00 
0.0000000e+00 -8.7278389e-04 0.0000000e+00 
0.0000000e+00 -4.6180966e-04 0.0000000e+00 
0.0000000e+00 -2.1673623e-04 0.0000000e+00 
0.0000000e+00 -7.8108307e-05 0.0000000e+00 
0.0000000e+00 -2.5999825e-07 0.0000000e+00 
0.0000000e+00 4.5052075e-05 0.0000000e+00 
0.0000000e+00 7.3513402e-05 0.0000000e+00 
0.0000000e+00 9.0865775e-05 0.0000000e+00 
0.0000000e+00 9.5866722e-05 0.0000000e+00 
0.0000000e+00 8.5730178e-05 0.0000000e+00 
0.0000000e+00 6.3034888e-05 0.0000000e+00 
0.0000000e+00 3.4055720e-05 0.0000000e+00 
0.0000000e+00 6.0144762e-06 0.0000000e+00 
0.0000000e+00 -1.5117448e-05 0.0000000e+00 
0.0000000e+00 -2.7338161e-05 0.0000000e+00 
0.0000000e+00 -2.9905004e-05 0.0000000e+00 
0.0000000e+00 -2.2919339e-05 0.0000000e+00 
0.0000000e+00 -8.7332337e-06 0.0000000e+00 
0.0000000e+00 6.6223706e-06 0.0000000e+00 
0.0000000e+00 1.5995707e-05 0.0000000e+00 
0.0000000e+00 1.6167469e-05 0.0000000e+00 
0.0000000e+00 8.9225441e-06 0.0000000e+00 
0.0000000e+00 -5.6979439e-07 0.0000000e+00 
0.0000000e+00 -6.7697811e-06 0.0000000e+00 
0.0000000e+00 -7.6597325e-06 0.0000000e+00 
0.0000000e+00 -4.6331120e-06 0.0000000e+00 
0.0000000e+00 -4.2990314e-07 0.0000000e+00 
0.0000000e+00 2.4807712e-06 0.0000000e+00 
0.0000000e+00 3.1871441e-06 0.0000000e+00 
0.0000000e+00 2.3984483e-06 0.0000000e+00 
0.0000000e+00 1.3658349e-06 0.0000000e+00 
0.0000000e+00 7.4294974e-07 0.0000000e+00 
0.0000000e+00 3.3347766e-07 0.0000000e+00 
0.0000000e+00 -2.8548882e-07 0.0000000e+00 
0.0000000e+00 -1.0782311e-06 0.0000000e+00 
0.0000000e+00 -1.5239794e-06 0.0000000e+00 
0.0000000e+00 -1.1881705e-06 0.0000000e+00 
0.0000000e+00 -2.2167012e-07 0.0000000e+00 
0.0000000e+00 7.3312520e-07 0.0000000e+00 
0.0000000e+00 1.0957014e-06 0.0000000e+00 
0.0000000e+00 7.9173992e-07 0.0000000e+00 
0.0000000e+00 2.0250290e-07 0.0000000e+00 
0.0000000e+00 -2.4505590e-07 0.0000000e+00 
0.0000000e+00 -4.1143753e-07 0.0000000e+00 
0.0000000e+00 -4.2693242e-07 0.0000000e+00 
0.0000000e+00 -2.7606382e-05 0.0000000e+00 
-1.2446857e-06 -4.0702398e-06 -7.6933418e-07 
9.2547293e-07 -2.4753197e-05 -1.1220235e-05 
0.0000000e+00 0.0000000e+00 0.0000000e+00 
0.0000000e+00 0.0000000e+00 0.0000000e+00 
0.0000000e+00 0.0000000e+00 0.0000000e+00 
0.0000000e+00 0.0000000e+00 0.0000000e+00 
0.0000000e+00 0.0000000e+00 0.0000000e+00 
0.0000000e+00 0.0000000e+00 0.0000000e+00 
0.0000000e+00 0.0000000e+00 0.0000000e+00 
0.0000000e+00 0.0000000e+00 0.0000000e+00 
0.0000000e+00 0.0000000e+00 0.0000000e+00 
0.0000000e+00 0.0000000e+00 0.0000000e+00 
0.0000000e+00 0.0000000e+00 0.0000000e+00 
0.0000000e+00 0.0000000e+00 0.0000000e+00 
0.0000000e+00 0.0000000e+00 0.0000000e+00 
0.0000000e+00 0.0000000e+00 0.0000000e+00 
0.0000000e+00 0.0000000e+00 0.0000000e+00 
0.0000000e+00 0.0000000e+00 0.0000000e+00 
0.0000000e+00 0.0000000e+00 0.0000000e+00 
0.0000000e+00 0.0000000e+00 0.0000000e+00 
0.0000000e+00 0.0000000e+00 0.0000000e+00 
0.0000000e+00 0.0000000e+00 0.0000000e+00 
0.0000000e+00 0.0000000e+00 0.0000000e+00 
0.0000000e+00 0.0000000e+00 0.0000000e+00 
0.0000000e+00 0.0000000e+00 0.0000000e+00 
0.0000000e+00 0.0000000e+00 0.0000000e+00 
0.0000000e+00 0.0000000e+00 0.0000000e+00 
0.0000000e+00 0.0000000e+00 0.0000000e+00 
0.0000000e+00 0.0000000e+00 0.0000000e+00 
0.0000000e+00 0.0000000e+00 0.0000000e+00 
0.0000000e+00 0.0000000e+00 0.0000000e+00 
0.0000000e+00 0.0000000e+00 0.0000000e+00 
0.0000000e+00 0.0000000e+00 0.0000000e+00 
0.0000000e+00 0.0000000e+00 0.0000000e+00 
0.0000000e+00 0.0000000e+00 0.0000000e+00 
0.0000000e+00 0.0000000e+00 0.0000000e+00 
0.0000000e+00 0.0000000e+00 0.0000000e+00 
0.0000000e+00 0.0000000e+00 0.0000000e+00 
0.0000000e+00 0.0000000e+00 0.0000000e+00 
0.0000000e+00 0.0000000e+00 0.0000000e+00 
0.0000000e+00 0.0000000e+00 0.0000000e+00 
0.0000000e+00 0.0000000e+00 0.0000000e+00 
0.0000000e+00 0.0000000e+00 0.0000000e+00 
0.0000000e+00 0.0000000e+00 0.0000000e+00 
3.1889926e-05 -9.6966096e-07 -2.4287887e-05 
5.9233858e-05 -4.8314646e-06 -1.4613065e-05 
3.9710427e-05 -8.0100554e-06 -1.7381808e-07 
1.0901741e-05 -9.6295371e-06 6.8633983e-07 
4.1358994e-06 -8.3166869e-06 1.1341201e-05 
-7.2274293e-07 4.4141957e-06 8.6528908e-06 
8.0159889e-06 6.3511948e-06 -6.4584492e-06 
3.4061941e-06 -2.8642439e-06 -1.2790108e-05 
1.4587122e-06 -6.0818807e-06 -3.5045539e-06 
1.2462493e-05 -1.0022104e-05 -4.3712339e-06 
3.4317356e-05 -2.1436015e-06 -3.8889575e-06 
4.8332262e-05 -1.0676840e-06 5.2356279e-07 
3.6769045e-05 -7.0652623e-06 1.6912451e-06 
1.1801413e-05 -1.4454353e-05 2.7687663e-06 
6.7975561e-06 -9.2689436e-07 8.3429977e-06 
2.2600627e-06 3.4652210e-06 9.3075214e-06 
1.6190678e-07 -1.1566058e-06 1.6562732e-06 
-6.1986083e-07 -1.7109743e-06 -1.3267908e-06 
3.4422621e-07 1.0453597e-06 3.0658231e-07 
0.0000000e+00 -2.1467640e-04 0.0000000e+00 
0.0000000e+00 -4.8755275e-04 0.0000000e+00 
0.0000000e+00 -5.1077735e-04 0.0000000e+00 
0.0000000e+00 -1.8421796e-04 0.0000000e+00 
0.0000000e+00 -2.7411617e-05 0.0000000e+00 
0.0000000e+00 3.8336373e-05 0.0000000e+00 
0.0000000e+00 1.6276266e-05 0.0000000e+00 
0.0000000e+00 3.0353616e-05 0.0000000e+00 
0.0000000e+00 -2.4347015e-05 0.0000000e+00 
0.0000000e+00 -3.7122325e-05 0.0000000e+00 
0.0000000e+00 -1.9874262e-04 0.0000000e+00 
0.0000000e+00 -4.6997622e-04 0.0000000e+00 
0.0000000e+00 -5.2469777e-04 0.0000000e+00 
0.0000000e+00 -1.8926001e-04 0.0000000e+00 
0.0000000e+00 -3.2393204e-06 0.0000000e+00 
0.0000000e+00 3.0793297e-05 0.0000000e+00 
0.0000000e+00 -4.4526823e-06 0.0000000e+00 
0.0000000e+00 -2.8977374e-06 0.0000000e+00 
0.0000000e+00 1.4679981e-06 0.0000000e+00 
2.5403791e-05 -1.9337494e-05 -2.7593707e-05 
2.4376361e-05 -5.7597706e-05 -4.6221310e-05 
-2.1275886e-07 -8.2360174e-07 -2.3598018e-07 
-2.1560301e-07 -1.3641572e-06 -4.7170417e-07 
3.1187843e-05 4.7458043e-06 -3.5111600e-05 
5.3659605e-05 6.8410691e-06 -1.3203141e-05 
3.3720244e-05 -1.4688136e-06 -2.0651073e-07 
4.5591810e-06 -6.3102225e-06 -7.2299247e-07 
3.8635588e-07 -1.3554022e-05 6.6868506e-06 
3.6499712e-06 7.4980640e-06 2.7461508e-06 
1.3701273e-05 1.0971254e-05 -2.1709743e-06 
-1.1589607e-06 -5.0840326e-06 -7.2547359e-06 
-6.2203135e-06 -8.6111977e-06 -6.5098843e-06 
1.7883922e-05 -1.1810615e-05 -9.5161804e-06 
3.6175294e-05 4.8025134e-07 -4.0855184e-06 
4.7683461e-05 1.9785341e-06 2.9202390e-06 
2.6634356e-05 -3.2400033e-06 1.1209318e-05 
-6.0691161e-07 -1.7736986e-05 -2.0942315e-08 
1.8966902e-06 -3.0046356e-06 2.1962654e-07 
4.3432997e-06 4.1265625e-06 1.0141473e-05 
2.2527768e-06 -3.5707367e-07 4.1588405e-06 
-7.8564545e-07 -1.9326949e-06 -4.4677313e-07 
7.6634102e-08 1.0066534e-06 -4.9567302e-07 
7.8635530e-06 -8.7201879e-05 -4.2621185e-05 
0.0000000e+00 -4.6633699e-04 0.0000000e+00 
0.0000000e+00 -1.1083410e-03 0.0000000e+00 
0.0000000e+00 -1.1489181e-03 0.0000000e+00 
0.0000000e+00 -3.4901706e-04 0.0000000e+00 
0.0000000e+00 -5.1080511e-05 0.0000000e+00 
0.0000000e+00 8.0210928e-05 0.0000000e+00 
0.0000000e+00 3.4159519e-05 0.0000000e+00 
0.0000000e+00 4.3265620e-05 0.0000000e+00 
0.0000000e+00 -5.2560583e-05 0.0000000e+00 
0.0000000e+00 -6.3530089e-05 0.0000000e+00 
0.0000000e+00 -4.4619531e-04 0.0000000e+00 
0.0000000e+00 -1.0547150e-03 0.0000000e+00 
0.0000000e+00 -1.1430364e-03 0.0000000e+00 
0.0000000e+00 -3.5260883e-04 0.0000000e+00 
0.0000000e+00 -1.3931716e-06 0.0000000e+00 
0.0000000e+00 5.8963502e-05 0.0000000e+00 
0.0000000e+00 -9.4031557e-06 0.0000000e+00 
0.0000000e+00 -9.0816156e-06 0.0000000e+00 
0.0000000e+00 6.6541743e-06 0.0000000e+00 
-2.7963506e-07 -2.7175829e-06 -4.7190801e-07 
-3.2880224e-04 -4.3629334e-04 2.7138856e-04 
-6.2985468e-04 -1.3437066e-03 1.1572986e-04 
-6.0568401e-04 -1.3850876e-03 -1.0882157e-04 
-1.7498435e-04 -2.9847884e-04 -2.2292562e-04 
2.8301451e-06 -7.1262672e-05 -1.4336419e-04 
2.0390047e-05 8.9133915e-05 2.3079699e-06 
3.6553722e-06 7.3929274e-05 -8.1531025e-06 
5.6434906e-06 -2.6727379e-05 1.0059120e-05 
8.3475788e-06 -1.0061026e-04 6.1603765e-05 
-1.9039628e-06 -3.9643030e-05 3.4878634e-05 
-2.7640932e-04 -4.3750880e-04 2.1090388e-04 
-6.5253425e-04 -1.1451121e-03 1.5566537e-04 
-6.0513057e-04 -1.3303729e-03 -4.8363570e-05 
-1.6606261e-04 -3.2747551e-04 -2.7393681e-04 
1.4717508e-05 -1.0003111e-05 -1.3118832e-04 
1.7546381e-05 5.5764620e-05 4.5495337e-05 
-9.1816946e-06 8.0462451e-06 2.1824973e-05 
7.2101032e-09 -1.9996871e-05 -1.3850663e-05 
1.4200593e-06 1.3851155e-05 7.1583099e-06 
0.0000000e+00 -8.1574294e-04 0.0000000e+00 
0.0000000e+00 -2.2364783e-03 0.0000000e+00 
0.0000000e+00 -2.1808513e-03 0.0000000e+00 
0.0000000e+00 -5.8904581e-04 0.0000000e+00 
0.0000000e+00 -6.4809865e-05 0.0000000e+00 
0.0000000e+00 1.3166624e-04 0.0000000e+00 
0.0000000e+00 6.7562920e-05 0.0000000e+00 
0.0000000e+00 4.1057789e-05 0.0000000e+00 
0.0000000e+00 -1.0023883e-04 0.0000000e+00 
0.0000000e+00 -6.9746224e-05 0.0000000e+00 
0.0000000e+00 -8.7445881e-04 0.0000000e+00 
0.0000000e+00 -2.1277147e-03 0.0000000e+00 
0.0000000e+00 -2.1357005e-03 0.0000000e+00 
0.0000000e+00 -5.7546579e-04 0.0000000e+00 
0.0000000e+00 1.3590371e-05 0.0000000e+00 
0.0000000e+00 9.0219022e-05 0.0000000e+00 
0.0000000e+00 -1.0743858e-06 0.0000000e+00 
0.0000000e+00 -2.0053261e-05 0.0000000e+00 
0.0000000e+00 1.3119539e-05 0.0000000e+00 
3.1564443e-05 -1.8087192e-05 -1.4071745e-05 
7.1924609e-05 -1.1508488e-04 1.4314106e-05 
6.8634232e-05 -9.1394788e-05 1.0621044e-05 
2.5129057e-05 -5.7464345e-05 -1.1141904e-05 
-1.3483418e-05 -1.1675602e-05 -1.5448719e-05 
1.1878419e-05 2.1233494e-05 -4.3237119e-06 
9.0553976e-06 1.6856478e-05 -7.5680409e-06 
-4.3934501e-06 -2.0711090e-05 6.0155526e-07 
-7.4158438e-06 -3.8539434e-05 1.1687566e-05 
1.5547483e-05 -3.7615291e-06 6.5572267e-06 
5.9794711e-05 -3.0784136e-05 -1.3243338e-06 
7.6569246e-05 -3.9562383e-05 5.8615174e-06 
4.1414049e-05 -7.0996015e-05 1.7018967e-05 
2.1341801e-05 -6.6574059e-05 -1.6431142e-05 
-1.1024366e-05 -6.7104988e-06 -1.5911004e-05 
5.3385193e-06 1.3540303e-05 7.7457453e-06 
9.4249702e-07 2.8659010e-06 9.7330612e-06 
9.4241784e-07 3.0039535e-06 -9.2973079e-07 
2.1204473e-06 -1.4738594e-05 -7.7630302e-06 
0.0000000e+00 0.0000000e+00 0.0000000e+00 
0.0000000e+00 0.0000000e+00 0.0000000e+00 
0.0000000e+00 0.0000000e+00 0.0000000e+00 
0.0000000e+00 0.0000000e+00 0.0000000e+00 
0.0000000e+00 0.0000000e+00 0.0000000e+00 
0.0000000e+00 0.0000000e+00 0.0000000e+00 
0.0000000e+00 0.0000000e+00 0.0000000e+00 
0.0000000e+00 0.0000000e+00 0.0000000e+00 
0.0000000e+00 0.0000000e+00 0.0000000e+00 
0.0000000e+00 0.0000000e+00 0.0000000e+00 
0.0000000e+00 0.0000000e+00 0.0000000e+00 
0.0000000e+00 0.0000000e+00 0.0000000e+00 
0.0000000e+00 0.0000000e+00 0.0000000e+00 
0.0000000e+00 0.0000000e+00 0.0000000e+00 
0.0000000e+00 0.0000000e+00 0.0000000e+00 
0.0000000e+00 0.0000000e+00 0.0000000e+00 
0.0000000e+00 0.0000000e+00 0.0000000e+00 
0.0000000e+00 0.0000000e+00 0.0000000e+00 
0.0000000e+00 0.0000000e+00 0.0000000e+00 
0.0000000e+00 0.0000000e+00 0.0000000e+00 
0.0000000e+00 0.0000000e+00 0.0000000e+00 
0.0000000e+00 0.0000000e+00 0.0000000e+00 
0.0000000e+00 0.0000000e+00 0.0000000e+00 
0.0000000e+00 0.0000000e+00 0.0000000e+00 
0.0000000e+00 0.0000000e+00 0.0000000e+00 
0.0000000e+00 0.0000000e+00 0.0000000e+00 
0.0000000e+00 0.0000000e+00 0.0000000e+00 
0.0000000e+00 0.0000000e+00 0.0000000e+00 
0.0000000e+00 0.0000000e+00 0.0000000e+00 
0.0000000e+00 0.0000000e+00 0.0000000e+00 
0.0000000e+00 0.0000000e+00 0.0000000e+00 
0.0000000e+00 0.0000000e+00 0.0000000e+00 
0.0000000e+00 0.0000000e+00 0.0000000e+00 
0.0000000e+00 0.0000000e+00 0.0000000e+00 
0.0000000e+00 0.0000000e+00 0.0000000e+00 
0.0000000e+00 0.0000000e+00 0.0000000e+00 
0.0000000e+00 0.0000000e+00 0.0000000e+00 
0.0000000e+00 0.0000000e+00 0.0000000e+00 
0.0000000e+00 0.0000000e+00 0.0000000e+00 
0.0000000e+00 0.0000000e+00 0.0000000e+00 
0.0000000e+00 0.0000000e+00 0.0000000e+00 
0.0000000e+00 0.0000000e+00 0.0000000e+00 
1.4547046e-05 -9.1201073e-06 -1.2003149e-05 
1.2865584e-06 1.1835658e-06 1.0017252e-06 
3.0855804e-06 1.5378129e-07 -7.0802466e-06 
2.3347513e-05 -4.8970546e-06 -6.6068935e-08 
1.9344758e-05 -1.0696103e-05 7.3161050e-07 
1.5683381e-05 -1.0452030e-05 -5.0433420e-07 
5.2334826e-06 -4.5246970e-06 4.0884729e-06 