# vtk DataFile Version 4.0
vtk output
ASCII
DATASET UNSTRUCTURED_GRID
POINTS 662 float
0.0000000e+00 0.0000000e+00 0.0000000e+00 
0.0000000e+00 0.0000000e+00 4.0000000e+01 
5.0000000e+00 0.0000000e+00 0.0000000e+00 
5.0000000e+00 0.0000000e+00 4.0000000e+01 
5.0000000e+00 1.0000000e+00 0.0000000e+00 
5.0000000e+00 1.0000000e+00 4.0000000e+01 
0.0000000e+00 1.0000000e+00 0.0000000e+00 
0.0000000e+00 1.0000000e+00 4.0000000e+01 
5.0000000e+00 2.0000000e+00 0.0000000e+00 
5.0000000e+00 2.0000000e+00 4.0000000e+01 
3.0000000e+00 2.0000000e+00 0.0000000e+00 
3.0000000e+00 2.0000000e+00 4.0000000e+01 
0.0000000e+00 2.0000000e+00 0.0000000e+00 
0.0000000e+00 2.0000000e+00 4.0000000e+01 
1.5000000e+00 3.0000000e+00 0.0000000e+00 
1.5000000e+00 3.0000000e+00 4.0000000e+01 
7.5000000e-01 3.0000000e+00 0.0000000e+00 
7.5000000e-01 3.0000000e+00 4.0000000e+01 
0.0000000e+00 3.0000000e+00 0.0000000e+00 
0.0000000e+00 3.0000000e+00 4.0000000e+01 
7.5000000e-01 3.0000000e+00 5.0000000e-01 
7.5000000e-01 3.0000000e+00 1.0000000e+00 
7.5000000e-01 3.0000000e+00 1.5000000e+00 
7.5000000e-01 3.0000000e+00 2.0000000e+00 
7.5000000e-01 3.0000000e+00 2.5000000e+00 
7.5000000e-01 3.0000000e+00 3.0000000e+00 
7.5000000e-01 3.0000000e+00 3.5000000e+00 
7.5000000e-01 3.0000000e+00 4.0000000e+00 
7.5000000e-01 3.0000000e+00 4.5000000e+00 
7.5000000e-01 3.0000000e+00 5.0000000e+00 
7.5000000e-01 3.0000000e+00 5.5000000e+00 
7.5000000e-01 3.0000000e+00 6.0000000e+00 
7.5000000e-01 3.0000000e+00 6.5000000e+00 
7.5000000e-01 3.0000000e+00 7.0000000e+00 
7.5000000e-01 3.0000000e+00 7.5000000e+00 
7.5000000e-01 3.0000000e+00 8.0000000e+00 
7.5000000e-01 3.0000000e+00 8.5000000e+00 
7.5000000e-01 3.0000000e+00 9.0000000e+00 
7.5000000e-01 3.0000000e+00 9.5000000e+00 
7.5000000e-01 3.0000000e+00 1.0000000e+01 
7.5000000e-01 3.0000000e+00 1.0500000e+01 
7.5000000e-01 3.0000000e+00 1.1000000e+01 
7.5000000e-01 3.0000000e+00 1.1500000e+01 
7.5000000e-01 3.0000000e+00 1.2000000e+01 
7.5000000e-01 3.0000000e+00 1.2500000e+01 
7.5000000e-01 3.0000000e+00 1.3000000e+01 
7.5000000e-01 3.0000000e+00 1.3500000e+01 
7.5000000e-01 3.0000000e+00 1.4000000e+01 
7.5000000e-01 3.0000000e+00 1.4500000e+01 
7.5000000e-01 3.0000000e+00 1.5000000e+01 
7.5000000e-01 3.0000000e+00 1.5500000e+01 
7.5000000e-01 3.0000000e+00 1.6000000e+01 
7.5000000e-01 3.0000000e+00 1.6500000e+01 
7.5000000e-01 3.0000000e+00 1.7000000e+01 
7.5000000e-01 3.0000000e+00 1.7500000e+01 
7.5000000e-01 3.0000000e+00 1.8000000e+01 
7.5000000e-01 3.0000000e+00 1.8500000e+01 
7.5000000e-01 3.0000000e+00 1.9000000e+01 
7.5000000e-01 3.0000000e+00 1.9500000e+01 
7.5000000e-01 3.0000000e+00 2.0000000e+01 
7.5000000e-01 3.0000000e+00 2.0500000e+01 
7.5000000e-01 3.0000000e+00 2.1000000e+01 
7.5000000e-01 3.0000000e+00 2.1500000e+01 
7.5000000e-01 3.0000000e+00 2.2000000e+01 
7.5000000e-01 3.0000000e+00 2.2500000e+01 
7.5000000e-01 3.0000000e+00 2.3000000e+01 
7.5000000e-01 3.0000000e+00 2.3500000e+01 
7.5000000e-01 3.0000000e+00 2.4000000e+01 
7.5000000e-01 3.0000000e+00 2.4500000e+01 
7.5000000e-01 3.0000000e+00 2.5000000e+01 
7.5000000e-01 3.0000000e+00 2.5500000e+01 
7.5000000e-01 3.0000000e+00 2.6000000e+01 
7.5000000e-01 3.0000000e+00 2.6500000e+01 
7.5000000e-01 3.0000000e+00 2.7000000e+01 
7.5000000e-01 3.0000000e+00 2.7500000e+01 
7.5000000e-01 3.0000000e+00 2.8000000e+01 
7.5000000e-01 3.0000000e+00 2.8500000e+01 
7.5000000e-01 3.0000000e+00 2.9000000e+01 
7.5000000e-01 3.0000000e+00 2.9500000e+01 
7.5000000e-01 3.0000000e+00 3.0000000e+01 
7.5000000e-01 3.0000000e+00 3.0500000e+01 
7.5000000e-01 3.0000000e+00 3.1000000e+01 
7.5000000e-01 3.0000000e+00 3.1500000e+01 
7.5000000e-01 3.0000000e+00 3.2000000e+01 
7.5000000e-01 3.0000000e+00 3.2500000e+01 
7.5000000e-01 3.0000000e+00 3.3000000e+01 
7.5000000e-01 3.0000000e+00 3.3500000e+01 
7.5000000e-01 3.0000000e+00 3.4000000e+01 
7.5000000e-01 3.0000000e+00 3.4500000e+01 
7.5000000e-01 3.0000000e+00 3.5000000e+01 
7.5000000e-01 3.0000000e+00 3.5500000e+01 
7.5000000e-01 3.0000000e+00 3.6000000e+01 
7.5000000e-01 3.0000000e+00 3.6500000e+01 
7.5000000e-01 3.0000000e+00 3.7000000e+01 
7.5000000e-01 3.0000000e+00 3.7500000e+01 
7.5000000e-01 3.0000000e+00 3.8000000e+01 
7.5000000e-01 3.0000000e+00 3.8500000e+01 
7.5000000e-01 3.0000000e+00 3.9000000e+01 
7.5000000e-01 3.0000000e+00 3.9500000e+01 
7.5000000e-01 3.0000000e+00 4.0500000e+01 
7.5000000e-01 3.0000000e+00 4.1000000e+01 
7.5000000e-01 3.0000000e+00 4.1500000e+01 
7.5000000e-01 3.0000000e+00 4.2000000e+01 
7.5000000e-01 3.0000000e+00 4.2500000e+01 
7.5000000e-01 3.0000000e+00 4.3000000e+01 
7.5000000e-01 3.0000000e+00 4.3500000e+01 
7.5000000e-01 3.0000000e+00 4.4000000e+01 
7.5000000e-01 3.0000000e+00 4.4500000e+01 
7.5000000e-01 3.0000000e+00 4.5000000e+01 
7.5000000e-01 3.0000000e+00 4.5500000e+01 
7.5000000e-01 3.0000000e+00 4.6000000e+01 
7.5000000e-01 3.0000000e+00 4.6500000e+01 
7.5000000e-01 3.0000000e+00 4.7000000e+01 
7.5000000e-01 3.0000000e+00 4.7500000e+01 
7.5000000e-01 3.0000000e+00 4.8000000e+01 
7.5000000e-01 3.0000000e+00 4.8500000e+01 
7.5000000e-01 3.0000000e+00 4.9000000e+01 
7.5000000e-01 3.0000000e+00 4.9500000e+01 
7.5000000e-01 3.0000000e+00 5.0000000e+01 
7.5000000e-01 3.0250001e+00 0.0000000e+00 
7.5000000e-01 3.0250001e+00 5.0000000e-01 
7.5000000e-01 3.0250001e+00 1.0000000e+00 
7.5000000e-01 3.0250001e+00 1.5000000e+00 
7.5000000e-01 3.0250001e+00 2.0000000e+00 
7.5000000e-01 3.0250001e+00 2.5000000e+00 
7.5000000e-01 3.0250001e+00 3.0000000e+00 
7.5000000e-01 3.0250001e+00 3.5000000e+00 
7.5000000e-01 3.0250001e+00 4.0000000e+00 
7.5000000e-01 3.0250001e+00 4.5000000e+00 
7.5000000e-01 3.0250001e+00 5.0000000e+00 
7.5000000e-01 3.0250001e+00 5.5000000e+00 
7.5000000e-01 3.0250001e+00 6.0000000e+00 
7.5000000e-01 3.0250001e+00 6.5000000e+00 
7.5000000e-01 3.0250001e+00 7.0000000e+00 
7.5000000e-01 3.0250001e+00 7.5000000e+00 
7.5000000e-01 3.0250001e+00 8.0000000e+00 
7.5000000e-01 3.0250001e+00 8.5000000e+00 
7.5000000e-01 3.0250001e+00 9.0000000e+00 
7.5000000e-01 3.0250001e+00 9.5000000e+00 
7.5000000e-01 3.0250001e+00 1.0000000e+01 
7.5000000e-01 3.0250001e+00 1.0500000e+01 
7.5000000e-01 3.0250001e+00 1.1000000e+01 
7.5000000e-01 3.0250001e+00 1.1500000e+01 
7.5000000e-01 3.0250001e+00 1.2000000e+01 
7.5000000e-01 3.0250001e+00 1.2500000e+01 
7.5000000e-01 3.0250001e+00 1.3000000e+01 
7.5000000e-01 3.0250001e+00 1.3500000e+01 
7.5000000e-01 3.0250001e+00 1.4000000e+01 
7.5000000e-01 3.0250001e+00 1.4500000e+01 
7.5000000e-01 3.0250001e+00 1.5000000e+01 
7.5000000e-01 3.0250001e+00 1.5500000e+01 
7.5000000e-01 3.0250001e+00 1.6000000e+01 
7.5000000e-01 3.0250001e+00 1.6500000e+01 
7.5000000e-01 3.0250001e+00 1.7000000e+01 
7.5000000e-01 3.0250001e+00 1.7500000e+01 
7.5000000e-01 3.0250001e+00 1.8000000e+01 
7.5000000e-01 3.0250001e+00 1.8500000e+01 
7.5000000e-01 3.0250001e+00 1.9000000e+01 
7.5000000e-01 3.0250001e+00 1.9500000e+01 
7.5000000e-01 3.0250001e+00 2.0000000e+01 
7.5000000e-01 3.0250001e+00 2.0500000e+01 
7.5000000e-01 3.0250001e+00 2.1000000e+01 
7.5000000e-01 3.0250001e+00 2.1500000e+01 
7.5000000e-01 3.0250001e+00 2.2000000e+01 
7.5000000e-01 3.0250001e+00 2.2500000e+01 
7.5000000e-01 3.0250001e+00 2.3000000e+01 
7.5000000e-01 3.0250001e+00 2.3500000e+01 
7.5000000e-01 3.0250001e+00 2.4000000e+01 
7.5000000e-01 3.0250001e+00 2.4500000e+01 
7.5000000e-01 3.0250001e+00 2.5000000e+01 
7.5000000e-01 3.0250001e+00 2.5500000e+01 
7.5000000e-01 3.0250001e+00 2.6000000e+01 
7.5000000e-01 3.0250001e+00 2.6500000e+01 
7.5000000e-01 3.0250001e+00 2.7000000e+01 
7.5000000e-01 3.0250001e+00 2.7500000e+01 
7.5000000e-01 3.0250001e+00 2.8000000e+01 
7.5000000e-01 3.0250001e+00 2.8500000e+01 
7.5000000e-01 3.0250001e+00 2.9000000e+01 
7.5000000e-01 3.0250001e+00 2.9500000e+01 
7.5000000e-01 3.0250001e+00 3.0000000e+01 
7.5000000e-01 3.0250001e+00 3.0500000e+01 
7.5000000e-01 3.0250001e+00 3.1000000e+01 
7.5000000e-01 3.0250001e+00 3.1500000e+01 
7.5000000e-01 3.0250001e+00 3.2000000e+01 
7.5000000e-01 3.0250001e+00 3.2500000e+01 
7.5000000e-01 3.0250001e+00 3.3000000e+01 
7.5000000e-01 3.0250001e+00 3.3500000e+01 
7.5000000e-01 3.0250001e+00 3.4000000e+01 
7.5000000e-01 3.0250001e+00 3.4500000e+01 
7.5000000e-01 3.0250001e+00 3.5000000e+01 
7.5000000e-01 3.0250001e+00 3.5500000e+01 
7.5000000e-01 3.0250001e+00 3.6000000e+01 
7.5000000e-01 3.0250001e+00 3.6500000e+01 
7.5000000e-01 3.0250001e+00 3.7000000e+01 
7.5000000e-01 3.0250001e+00 3.7500000e+01 
7.5000000e-01 3.0250001e+00 3.8000000e+01 
7.5000000e-01 3.0250001e+00 3.8500000e+01 
7.5000000e-01 3.0250001e+00 3.9000000e+01 
7.5000000e-01 3.0250001e+00 3.9500000e+01 
7.5000000e-01 3.0250001e+00 4.0000000e+01 
7.5000000e-01 3.0250001e+00 4.0500000e+01 
7.5000000e-01 3.0250001e+00 4.1000000e+01 
7.5000000e-01 3.0250001e+00 4.1500000e+01 
7.5000000e-01 3.0250001e+00 4.2000000e+01 
7.5000000e-01 3.0250001e+00 4.2500000e+01 
7.5000000e-01 3.0250001e+00 4.3000000e+01 
7.5000000e-01 3.0250001e+00 4.3500000e+01 
7.5000000e-01 3.0250001e+00 4.4000000e+01 
7.5000000e-01 3.0250001e+00 4.4500000e+01 
7.5000000e-01 3.0250001e+00 4.5000000e+01 
7.5000000e-01 3.0250001e+00 4.5500000e+01 
7.5000000e-01 3.0250001e+00 4.6000000e+01 
7.5000000e-01 3.0250001e+00 4.6500000e+01 
7.5000000e-01 3.0250001e+00 4.7000000e+01 
7.5000000e-01 3.0250001e+00 4.7500000e+01 
7.5000000e-01 3.0250001e+00 4.8000000e+01 
7.5000000e-01 3.0250001e+00 4.8500000e+01 
7.5000000e-01 3.0250001e+00 4.9000000e+01 
7.5000000e-01 3.0250001e+00 4.9500000e+01 
7.5000000e-01 3.0250001e+00 5.0000000e+01 
7.5000000e-01 3.0250001e+00 3.5750000e+01 
3.0000000e+00 2.0000000e+00 3.6000000e+01 
8.0487806e-01 3.0000000e+00 3.6000000e+01 
0.0000000e+00 0.0000000e+00 2.0000000e+00 
0.0000000e+00 0.0000000e+00 4.0000000e+00 
0.0000000e+00 0.0000000e+00 6.0000000e+00 
0.0000000e+00 0.0000000e+00 8.0000000e+00 
0.0000000e+00 0.0000000e+00 1.0000000e+01 
0.0000000e+00 0.0000000e+00 1.2000000e+01 
0.0000000e+00 0.0000000e+00 1.4000000e+01 
[...]
POINT_DATA 662
FIELD FieldData 3
DISPLACEMENT 3 662  float
0.0000000e+00 0.0000000e+00 0.0000000e+00 
0.0000000e+00 0.0000000e+00 0.0000000e+00 
0.0000000e+00 0.0000000e+00 0.0000000e+00 
0.0000000e+00 0.0000000e+00 0.0000000e+00 
-2.0365615e-06 -1.5515009e-06 2.8505251e-06 
-1.4891863e-07 -2.8237457e-06 -2.8287063e-06 
0.0000000e+00 2.1980662e-05 0.0000000e+00 
0.0000000e+00 2.6569483e-05 0.0000000e+00 
2.8795225e-06 -5.4333673e-06 -1.0627616e-06 
1.5336330e-07 -7.2604917e-06 4.2518395e-06 
5.6798933e-07 5.8428022e-06 3.1320583e-06 
-3.2617095e-06 -7.7288865e-07 1.8438317e-06 
0.0000000e+00 4.5407873e-05 0.0000000e+00 
0.0000000e+00 4.8218044e-05 0.0000000e+00 
1.3057156e-05 4.8945960e-05 1.9587813e-05 
2.7083053e-05 3.7559763e-05 -8.4709482e-06 
3.1094150e-05 7.3430980e-05 3.2007825e-05 
2.7030976e-05 6.8578898e-05 6.7756205e-06 
0.0000000e+00 8.2269973e-05 0.0000000e+00 
0.0000000e+00 6.2331856e-05 0.0000000e+00 
-2.8504326e-06 7.2311319e-05 5.3707272e-06 
-9.8651481e-06 6.8637106e-05 -3.8613516e-06 
-1.2979433e-05 6.1829873e-05 -1.2696574e-06 
-1.4132194e-05 5.3268755e-05 -2.8658396e-05 
-2.4234905e-06 4.6735655e-05 -3.6903981e-05 
-1.3090903e-05 4.7816415e-05 -2.5285170e-05 
-2.3855623e-06 4.4324850e-05 -7.9398262e-05 
1.8762295e-05 6.0352460e-05 -5.6187833e-05 
3.3431283e-05 9.4748517e-05 -6.0256720e-05 
1.1778508e-05 1.2766040e-04 -5.8584865e-05 
6.4162101e-05 1.4581889e-04 -2.5105561e-05 
3.3465687e-05 1.6610029e-04 -2.5334239e-05 
7.1432143e-05 2.0869190e-04 -2.1109887e-05 
8.3342587e-05 2.6579102e-04 1.7298309e-05 
5.4792028e-05 3.1728161e-04 5.6465902e-05 
5.3749991e-05 2.7434013e-04 7.2109127e-05 
-3.0288973e-05 8.8592569e-05 1.4337701e-04 
2.0443955e-05 -2.1779454e-04 1.6365266e-04 
-7.2490591e-05 -6.6025410e-04 2.1006986e-04 
-8.2456332e-05 -1.2914353e-03 2.0174592e-04 
-2.3429103e-04 -2.1924258e-03 2.5320085e-04 
-2.9757989e-04 -3.2465020e-03 2.5628586e-04 
-1.8137376e-04 -4.1565383e-03 1.9847047e-04 
-1.9076745e-04 -4.2895065e-03 1.7436936e-04 
-3.1288780e-04 -4.1470760e-03 1.0545219e-04 
-4.0254593e-04 -4.1359458e-03 4.7086687e-05 
-2.7730718e-04 -4.4230875e-03 -2.0181877e-05 
-1.2826054e-04 -4.4875308e-03 -7.9064426e-05 
-1.4381278e-04 -3.7817603e-03 -1.8267227e-04 
-2.2800289e-04 -2.6877644e-03 -2.2582433e-04 
-2.0848139e-04 -1.7014461e-03 -2.3125096e-04 
-6.5580047e-05 -9.3848450e-04 -1.7286422e-04 
-2.4354098e-05 -4.3687876e-04 -1.9417825e-04 
-1.8521978e-06 -1.2011128e-04 -1.4917451e-04 
1.3485694e-06 6.5802553e-05 -1.0660474e-04 
1.6793321e-05 1.4825266e-04 -6.3250460e-05 
3.1088333e-05 1.4278258e-04 -3.9307150e-05 
2.3553288e-05 9.3109171e-05 8.5945925e-07 
1.1358320e-05 4.2603173e-05 4.7888816e-06 
-1.4277812e-06 7.1318073e-06 -1.2262203e-05 
-2.6024149e-05 -1.1294723e-05 -1.6205251e-05 
-5.4227394e-06 -2.2363174e-05 -3.4812474e-05 
-3.1963009e-05 -3.6174646e-05 -4.9885759e-05 
-9.9726813e-06 -4.9975897e-05 -3.0738538e-05 
-1.8258293e-05 -6.0852621e-05 7.3607293e-07 
-1.9075371e-05 -6.0440110e-05 -9.5775622e-06 
4.8945535e-06 -4.9818715e-05 9.8203000e-06 
-1.3897857e-05 -1.8063796e-05 2.3390599e-05 
4.0865074e-05 2.9703804e-05 -3.3857825e-05 
-2.6277874e-06 7.6238364e-05 -1.7517357e-05 
5.5227429e-05 1.2396531e-04 -1.3600172e-05 
3.2315696e-05 1.4939831e-04 -7.2620198e-05 
2.4773804e-05 1.6421653e-04 -3.7256123e-05 
8.4824729e-05 1.9218962e-04 -2.2952068e-05 
1.3863758e-05 2.3445253e-04 -2.1918549e-05 
3.9261442e-05 2.0605176e-04 4.3759785e-05 
-2.0886819e-05 1.5915221e-05 9.8142278e-05 
-3.5280591e-05 -3.5605661e-04 1.4869712e-04 
-6.6562861e-05 -9.3133224e-04 1.9978121e-04 
-1.2132143e-04 -1.6639391e-03 1.6036097e-04 
-2.4097454e-04 -2.5632856e-03 2.2198174e-04 
-3.1215692e-04 -3.5120086e-03 1.9917487e-04 
-1.6534897e-04 -4.2556012e-03 1.3006767e-04 
-1.5154040e-04 -4.2881873e-03 1.0370271e-04 
-2.8786054e-04 -4.1299914e-03 5.6205721e-05 
-3.2418864e-04 -4.0972354e-03 6.6002426e-06 
-2.1648541e-04 -4.2716893e-03 -3.1964355e-05 
-6.8624518e-05 -4.1536936e-03 -3.7961119e-05 
-1.0848391e-04 -3.3534782e-03 -1.5118399e-04 
-2.0377499e-04 -2.2772467e-03 -1.8547138e-04 
-2.1080897e-04 -1.3686866e-03 -1.8652022e-04 
-1.3210210e-04 -6.9187302e-04 -1.5148128e-04 
-5.3260734e-05 -2.5807862e-04 -1.4755421e-04 
-3.2603311e-05 -2.2348588e-06 -1.2180124e-04 
-2.6564321e-05 1.2378654e-04 -1.1093228e-04 
-2.2458207e-06 1.6157578e-04 -9.6289252e-05 
1.0750302e-05 1.5409428e-04 -6.9920243e-05 
2.3752063e-05 1.3275980e-04 -4.2664476e-05 
2.3463794e-05 1.0691500e-04 -2.9382240e-05 
0.0000000e+00 2.2793780e-05 0.0000000e+00 
0.0000000e+00 -2.0882038e-05 0.0000000e+00 
0.0000000e+00 -5.4763696e-05 0.0000000e+00 
0.0000000e+00 -7.7866949e-05 0.0000000e+00 
0.0000000e+00 -9.1535432e-05 0.0000000e+00 
0.0000000e+00 -9.3800249e-05 0.0000000e+00 
0.0000000e+00 -8.0517726e-05 0.0000000e+00 
0.0000000e+00 -5.1824656e-05 0.0000000e+00 
0.0000000e+00 -1.5437137e-05 0.0000000e+00 
0.0000000e+00 1.7727823e-05 0.0000000e+00 
0.0000000e+00 4.0861276e-05 0.0000000e+00 
0.0000000e+00 5.3680709e-05 0.0000000e+00 
0.0000000e+00 5.8385991e-05 0.0000000e+00 
0.0000000e+00 5.4983855e-05 0.0000000e+00 
0.0000000e+00 4.1619227e-05 0.0000000e+00 
0.0000000e+00 1.8813031e-05 0.0000000e+00 
0.0000000e+00 -8.1522176e-06 0.0000000e+00 
0.0000000e+00 -3.1772943e-05 0.0000000e+00 
0.0000000e+00 -4.6795853e-05 0.0000000e+00 
0.0000000e+00 -5.1751853e-05 0.0000000e+00 
0.0000000e+00 7.3771400e-05 0.0000000e+00 
0.0000000e+00 7.2444578e-05 0.0000000e+00 
0.0000000e+00 6.8263915e-05 0.0000000e+00 
0.0000000e+00 6.1471183e-05 0.0000000e+00 
0.0000000e+00 5.3324497e-05 0.0000000e+00 
0.0000000e+00 4.7740712e-05 0.0000000e+00 
0.0000000e+00 4.5895969e-05 0.0000000e+00 
0.0000000e+00 4.5613007e-05 0.0000000e+00 
0.0000000e+00 6.1514045e-05 0.0000000e+00 
0.0000000e+00 9.4402079e-05 0.0000000e+00 
0.0000000e+00 1.2639220e-04 0.0000000e+00 
0.0000000e+00 1.4517753e-04 0.0000000e+00 
0.0000000e+00 1.6685353e-04 0.0000000e+00 
0.0000000e+00 2.0973152e-04 0.0000000e+00 
0.0000000e+00 2.7025025e-04 0.0000000e+00 
0.0000000e+00 3.1585994e-04 0.0000000e+00 
0.0000000e+00 2.7038809e-04 0.0000000e+00 
0.0000000e+00 8.9655834e-05 0.0000000e+00 
0.0000000e+00 -2.1651582e-04 0.0000000e+00 
0.0000000e+00 -6.5830903e-04 0.0000000e+00 
0.0000000e+00 -1.2990483e-03 0.0000000e+00 
0.0000000e+00 -2.2021225e-03 0.0000000e+00 
0.0000000e+00 -3.2841533e-03 0.0000000e+00 
0.0000000e+00 -4.1785357e-03 0.0000000e+00 
0.0000000e+00 -4.3138429e-03 0.0000000e+00 
0.0000000e+00 -4.1600564e-03 0.0000000e+00 
0.0000000e+00 -4.1697687e-03 0.0000000e+00 
0.0000000e+00 -4.4456120e-03 0.0000000e+00 
0.0000000e+00 -4.5203054e-03 0.0000000e+00 
0.0000000e+00 -3.7985889e-03 0.0000000e+00 
0.0000000e+00 -2.7073033e-03 0.0000000e+00 
0.0000000e+00 -1.7052923e-03 0.0000000e+00 
0.0000000e+00 -9.4306044e-04 0.0000000e+00 
0.0000000e+00 -4.3579584e-04 0.0000000e+00 
0.0000000e+00 -1.1891735e-04 0.0000000e+00 
0.0000000e+00 6.6460278e-05 0.0000000e+00 
0.0000000e+00 1.4748173e-04 0.0000000e+00 
0.0000000e+00 1.4303169e-04 0.0000000e+00 
0.0000000e+00 9.4101197e-05 0.0000000e+00 
0.0000000e+00 4.3009986e-05 0.0000000e+00 
0.0000000e+00 7.9122501e-06 0.0000000e+00 
0.0000000e+00 -1.1018596e-05 0.0000000e+00 
0.0000000e+00 -2.3143919e-05 0.0000000e+00 
0.0000000e+00 -3.6246365e-05 0.0000000e+00 
0.0000000e+00 -5.0166294e-05 0.0000000e+00 
0.0000000e+00 -6.0457802e-05 0.0000000e+00 
0.0000000e+00 -6.1032697e-05 0.0000000e+00 
0.0000000e+00 -4.9278460e-05 0.0000000e+00 
0.0000000e+00 -1.7693263e-05 0.0000000e+00 
0.0000000e+00 2.9119619e-05 0.0000000e+00 
0.0000000e+00 7.8227466e-05 0.0000000e+00 
0.0000000e+00 1.2200255e-04 0.0000000e+00 
0.0000000e+00 1.4778822e-04 0.0000000e+00 
0.0000000e+00 1.6523432e-04 0.0000000e+00 
0.0000000e+00 1.9677776e-04 0.0000000e+00 
0.0000000e+00 2.3580730e-04 0.0000000e+00 
0.0000000e+00 2.0352790e-04 0.0000000e+00 
0.0000000e+00 1.5432995e-05 0.0000000e+00 
0.0000000e+00 -3.6056241e-04 0.0000000e+00 
0.0000000e+00 -9.2953414e-04 0.0000000e+00 
0.0000000e+00 -1.6691510e-03 0.0000000e+00 
0.0000000e+00 -2.5725395e-03 0.0000000e+00 
0.0000000e+00 -3.5503316e-03 0.0000000e+00 
0.0000000e+00 -4.2812712e-03 0.0000000e+00 
0.0000000e+00 -4.3176711e-03 0.0000000e+00 
0.0000000e+00 -4.1427957e-03 0.0000000e+00 
0.0000000e+00 -4.1271402e-03 0.0000000e+00 
0.0000000e+00 -4.2927898e-03 0.0000000e+00 
0.0000000e+00 -4.1894312e-03 0.0000000e+00 
0.0000000e+00 -3.3717852e-03 0.0000000e+00 
0.0000000e+00 -2.2956387e-03 0.0000000e+00 
0.0000000e+00 -1.3703275e-03 0.0000000e+00 
0.0000000e+00 -6.9465057e-04 0.0000000e+00 
0.0000000e+00 -2.5789178e-04 0.0000000e+00 
0.0000000e+00 -1.8595601e-06 0.0000000e+00 
0.0000000e+00 1.2407386e-04 0.0000000e+00 
0.0000000e+00 1.6242513e-04 0.0000000e+00 
0.0000000e+00 1.5516634e-04 0.0000000e+00 
0.0000000e+00 1.3340115e-04 0.0000000e+00 
0.0000000e+00 1.0626671e-04 0.0000000e+00 
0.0000000e+00 6.8495538e-05 0.0000000e+00 
0.0000000e+00 2.2986595e-05 0.0000000e+00 
0.0000000e+00 -2.0649610e-05 0.0000000e+00 
0.0000000e+00 -5.4779721e-05 0.0000000e+00 
0.0000000e+00 -7.8035198e-05 0.0000000e+00 
0.0000000e+00 -9.1541697e-05 0.0000000e+00 
0.0000000e+00 -9.3535185e-05 0.0000000e+00 
0.0000000e+00 -8.0213184e-05 0.0000000e+00 
0.0000000e+00 -5.1770181e-05 0.0000000e+00 
0.0000000e+00 -1.5652009e-05 0.0000000e+00 
0.0000000e+00 1.7485743e-05 0.0000000e+00 
0.0000000e+00 4.0801417e-05 0.0000000e+00 
0.0000000e+00 5.3766911e-05 0.0000000e+00 
0.0000000e+00 5.8426609e-05 0.0000000e+00 
0.0000000e+00 5.4875651e-05 0.0000000e+00 
0.0000000e+00 4.1451643e-05 0.0000000e+00 
0.0000000e+00 1.8743096e-05 0.0000000e+00 
0.0000000e+00 -8.0785840e-06 0.0000000e+00 
0.0000000e+00 -3.1649502e-05 0.0000000e+00 
0.0000000e+00 -4.6726829e-05 0.0000000e+00 
0.0000000e+00 -5.1728599e-05 0.0000000e+00 
0.0000000e+00 -9.9851401e-04 0.0000000e+00 
2.4641926e-05 -3.5331992e-05 4.7845115e-06 
-9.1880655e-05 -6.1243027e-04 -1.2224415e-04 
0.0000000e+00 0.0000000e+00 0.0000000e+00 
0.0000000e+00 0.0000000e+00 0.0000000e+00 
0.0000000e+00 0.0000000e+00 0.0000000e+00 
0.0000000e+00 0.0000000e+00 0.0000000e+00 
0.0000000e+00 0.0000000e+00 0.0000000e+00 
0.0000000e+00 0.0000000e+00 0.0000000e+00 
0.0000000e+00 0.0000000e+00 0.0000000e+00 
0.0000000e+00 0.0000000e+00 0.0000000e+00 
0.0000000e+00 0.0000000e+00 0.0000000e+00 
0.0000000e+00 0.0000000e+00 0.0000000e+00 
0.0000000e+00 0.0000000e+00 0.0000000e+00 
0.0000000e+00 0.0000000e+00 0.0000000e+00 
0.0000000e+00 0.0000000e+00 0.0000000e+00 
0.0000000e+00 0.0000000e+00 0.0000000e+00 
0.0000000e+00 0.0000000e+00 0.0000000e+00 
0.0000000e+00 0.0000000e+00 0.0000000e+00 
0.0000000e+00 0.0000000e+00 0.0000000e+00 
0.0000000e+00 0.0000000e+00 0.0000000e+00 
0.0000000e+00 0.0000000e+00 0.0000000e+00 
0.0000000e+00 0.0000000e+00 0.0000000e+00 
0.0000000e+00 0.0000000e+00 0.0000000e+00 
0.0000000e+00 0.0000000e+00 0.0000000e+00 
0.0000000e+00 0.0000000e+00 0.0000000e+00 
0.0000000e+00 0.0000000e+00 0.0000000e+00 
0.0000000e+00 0.0000000e+00 0.0000000e+00 
0.0000000e+00 0.0000000e+00 0.0000000e+00 
0.0000000e+00 0.0000000e+00 0.0000000e+00 
0.0000000e+00 0.0000000e+00 0.0000000e+00 
0.0000000e+00 0.0000000e+00 0.0000000e+00 
0.0000000e+00 0.0000000e+00 0.0000000e+00 
0.0000000e+00 0.0000000e+00 0.0000000e+00 
0.0000000e+00 0.0000000e+00 0.0000000e+00 
0.0000000e+00 0.0000000e+00 0.0000000e+00 
0.0000000e+00 0.0000000e+00 0.0000000e+00 
0.0000000e+00 0.0000000e+00 0.0000000e+00 
0.0000000e+00 0.0000000e+00 0.0000000e+00 
0.0000000e+00 0.0000000e+00 0.0000000e+00 
0.0000000e+00 0.0000000e+00 0.0000000e+00 
0.0000000e+00 0.0000000e+00 0.0000000e+00 
0.0000000e+00 0.0000000e+00 0.0000000e+00 
0.0000000e+00 0.0000000e+00 0.0000000e+00 
0.0000000e+00 0.0000000e+00 0.0000000e+00 
-3.7507718e-06 1.4640841e-07 4.6297532e-07 
-4.7063227e-06 -1.9188735e-06 -4.4190288e-06 
-1.4362315e-06 6.8206350e-07 -9.0205185e-06 
9.1623961e-06 -4.9719756e-07 -9.3428062e-06 
3.0458101e-05 -6.6201437e-06 -1.2814235e-05 
5.3196451e-05 -9.0740477e-06 -3.1345112e-06 
4.8583115e-05 -5.1318248e-06 1.0859120e-05 
2.1297008e-05 -2.4783383e-06 9.3600829e-06 
7.1000891e-06 -1.4150584e-06 4.9587479e-06 
3.7566567e-06 -1.6923912e-06 2.7288515e-06 
-2.3766595e-06 -3.4374909e-06 4.2919805e-06 
-5.8930204e-06 -7.5670255e-07 3.9601886e-07 
-5.3012755e-06 6.0508878e-06 -1.8690587e-06 
6.7617498e-06 -1.7008003e-07 -8.9217592e-06 
3.4229844e-05 -1.0875137e-05 -1.1203031e-05 
5.5400880e-05 -1.0658158e-05 1.0759672e-06 
5.5184548e-05 -1.0667651e-05 1.4429228e-05 
2.1482947e-05 -6.5339650e-06 1.2970148e-05 
-5.0457970e-06 4.9844207e-06 1.2951766e-07 
0.0000000e+00 1.9388181e-06 0.0000000e+00 
0.0000000e+00 4.5136327e-05 0.0000000e+00 
0.0000000e+00 6.7493158e-05 0.0000000e+00 
0.0000000e+00 2.6645454e-05 0.0000000e+00 
0.0000000e+00 -1.6786384e-04 0.0000000e+00 
0.0000000e+00 -5.8134348e-04 0.0000000e+00 
0.0000000e+00 -6.0778292e-04 0.0000000e+00 
0.0000000e+00 -1.8560089e-04 0.0000000e+00 
0.0000000e+00 3.0334111e-05 0.0000000e+00 
0.0000000e+00 -4.2780853e-06 0.0000000e+00 
0.0000000e+00 -1.0222648e-05 0.0000000e+00 
0.0000000e+00 6.3513307e-06 0.0000000e+00 
0.0000000e+00 2.4761717e-05 0.0000000e+00 
0.0000000e+00 2.3248189e-05 0.0000000e+00 
0.0000000e+00 -2.1039980e-04 0.0000000e+00 
0.0000000e+00 -5.9142313e-04 0.0000000e+00 
0.0000000e+00 -5.3363165e-04 0.0000000e+00 
0.0000000e+00 -1.4251489e-04 0.0000000e+00 
0.0000000e+00 3.0977568e-05 0.0000000e+00 
-2.7161411e-06 1.7116066e-06 -1.8514542e-07 
-1.5782866e-06 9.1019401e-06 3.1121372e-06 
-3.5562525e-06 -2.1500989e-06 2.1143169e-06 
-7.5402286e-06 1.4903788e-05 -9.3887484e-06 
-1.9729248e-06 3.3906438e-06 -1.2939495e-07 
-6.9823191e-06 1.5686413e-06 -5.0231724e-06 
1.2058414e-06 -1.6432600e-06 -1.2113960e-05 
2.0263051e-05 -4.4482294e-06 -1.3010622e-05 
3.1669410e-05 -4.9826326e-06 -8.3098229e-07 
3.1704658e-05 -8.5429510e-06 1.9944089e-06 
1.4527421e-05 -2.4316637e-07 1.0502338e-05 
6.2330132e-06 2.4358985e-06 -6.5556492e-07 
1.0660778e-05 3.2247595e-08 1.6840958e-06 
-6.6603860e-07 -2.2459892e-06 8.5010024e-06 
-4.7367171e-06 -8.4587455e-06 6.1018382e-06 
-2.4344181e-06 -3.7423135e-06 -4.8039651e-06 
5.7656905e-07 5.4163756e-06 -1.0169707e-05 
2.3431272e-05 2.1249321e-06 -7.3479550e-06 
3.2448508e-05 -8.3027098e-06 3.7605573e-06 
3.5121273e-05 -1.1086667e-05 2.7825829e-06 
3.1095289e-05 -7.5065764e-06 1.5161916e-05 
1.1082197e-05 -4.5189981e-07 1.7444493e-06 
-4.8268826e-06 4.1514777e-06 -1.6423617e-06 
-3.3589663e-06 1.8666344e-05 8.6184336e-06 
0.0000000e+00 3.4866818e-05 0.0000000e+00 
0.0000000e+00 1.0566114e-05 0.0000000e+00 
0.0000000e+00 1.2764023e-04 0.0000000e+00 
0.0000000e+00 1.5430183e-04 0.0000000e+00 
0.0000000e+00 -4.2624588e-04 0.0000000e+00 
0.0000000e+00 -1.3053257e-03 0.0000000e+00 
0.0000000e+00 -1.3096334e-03 0.0000000e+00 
0.0000000e+00 -3.4211299e-04 0.0000000e+00 
0.0000000e+00 6.6372544e-05 0.0000000e+00 
0.0000000e+00 -4.7993854e-06 0.0000000e+00 
0.0000000e+00 -5.0140185e-05 0.0000000e+00 
0.0000000e+00 -3.3555480e-05 0.0000000e+00 
0.0000000e+00 1.6310251e-04 0.0000000e+00 
0.0000000e+00 7.1167102e-05 0.0000000e+00 
0.0000000e+00 -5.4652989e-04 0.0000000e+00 
0.0000000e+00 -1.2803572e-03 0.0000000e+00 
0.0000000e+00 -1.1439179e-03 0.0000000e+00 
0.0000000e+00 -2.5699250e-04 0.0000000e+00 
0.0000000e+00 7.3766263e-05 0.0000000e+00 
-2.0530824e-06 2.9303787e-05 -1.8961648e-05 
-8.3865179e-06 2.3022538e-05 -6.5764252e-06 
1.7254033e-05 3.1275787e-05 -8.6726948e-05 
8.2350038e-05 1.1528437e-04 -3.9446291e-05 
6.5275919e-05 1.7761790e-04 1.2480724e-04 
-2.4417328e-04 -3.7600443e-04 4.0761297e-04 
-7.2618108e-04 -1.4298820e-03 2.2425086e-04 
-6.8965374e-04 -1.6088913e-03 -1.5761220e-04 
-1.5397882e-04 -2.9925845e-04 -3.2563123e-04 
3.1905696e-05 7.5279058e-05 -7.8643796e-05 
8.6552024e-07 6.5414129e-06 1.0754338e-05 
-2.8243037e-05 -4.5907294e-05 -1.8758519e-05 
-4.4601102e-06 -2.4506004e-05 -5.4605684e-06 
7.1279945e-05 8.6221138e-05 -7.9834499e-05 
3.7631387e-05 1.3690758e-04 8.7350178e-05 
-2.9127861e-04 -4.8017668e-04 3.7740113e-04 
-6.8219198e-04 -1.3963901e-03 1.1081017e-04 
-6.1587925e-04 -1.4247338e-03 -1.2855101e-04 
-1.2880443e-04 -2.5509892e-04 -2.1485882e-04 
7.0394854e-06 8.5966494e-05 -1.2478659e-04 
0.0000000e+00 2.9631760e-06 0.0000000e+00 
0.0000000e+00 -1.6037120e-05 0.0000000e+00 
0.0000000e+00 2.2434839e-04 0.0000000e+00 
0.0000000e+00 2.7356361e-04 0.0000000e+00 
0.0000000e+00 -8.0097554e-04 0.0000000e+00 
0.0000000e+00 -2.5085045e-03 0.0000000e+00 
0.0000000e+00 -2.4716128e-03 0.0000000e+00 
0.0000000e+00 -5.7709747e-04 0.0000000e+00 
0.0000000e+00 1.4925378e-04 0.0000000e+00 
0.0000000e+00 -2.2429092e-05 0.0000000e+00 
0.0000000e+00 -7.6939672e-05 0.0000000e+00 
0.0000000e+00 2.4453269e-05 0.0000000e+00 
0.0000000e+00 2.2293904e-04 0.0000000e+00 
0.0000000e+00 8.4272178e-05 0.0000000e+00 
0.0000000e+00 -1.0560551e-03 0.0000000e+00 
0.0000000e+00 -2.5074200e-03 0.0000000e+00 
0.0000000e+00 -2.1839628e-03 0.0000000e+00 
0.0000000e+00 -4.0126970e-04 0.0000000e+00 
0.0000000e+00 1.3973149e-04 0.0000000e+00 
-5.8530195e-06 -3.6379708e-06 -3.1145382e-06 
-2.7622893e-06 1.0979894e-05 -1.6574057e-05 
9.1665006e-06 3.6651316e-05 -4.0267246e-06 
3.0456322e-05 5.7226935e-05 2.8193183e-05 
5.4546577e-05 -4.4721131e-05 2.3104731e-05 
4.6207708e-05 -1.2416419e-04 4.4301141e-06 
3.7737875e-05 -1.3784641e-04 1.4733297e-06 
3.3961482e-05 -6.5794695e-05 -8.4042713e-06 
6.7451674e-06 1.7817516e-05 -1.9103039e-05 
-1.9245654e-07 -4.2894535e-06 -8.0747595e-06 
-1.5425798e-05 -1.1957011e-05 -3.0458218e-06 
-7.7409322e-06 -2.0029938e-07 -7.4611862e-06 
8.8781999e-06 1.7465154e-05 -5.7233260e-06 
1.4162863e-05 4.6657380e-05 1.1339434e-05 
5.6503661e-05 -4.9167222e-05 1.2259698e-05 
6.6623601e-05 -1.1121357e-04 6.1943551e-06 
5.1530646e-05 -1.0930498e-04 2.0894893e-05 
-6.4700816e-06 1.2961280e-05 -1.9732170e-05 
-2.3069013e-05 -2.0036887e-04 -9.8347846e-05 
0.0000000e+00 0.0000000e+00 0.0000000e+00 
0.0000000e+00 0.0000000e+00 0.0000000e+00 
0.0000000e+00 0.0000000e+00 0.0000000e+00 
0.0000000e+00 0.0000000e+00 0.0000000e+00 
0.0000000e+00 0.0000000e+00 0.0000000e+00 
0.0000000e+00 0.0000000e+00 0.0000000e+00 
0.0000000e+00 0.0000000e+00 0.0000000e+00 
0.0000000e+00 0.0000000e+00 0.0000000e+00 
0.0000000e+00 0.0000000e+00 0.0000000e+00 
0.0000000e+00 0.0000000e+00 0.0000000e+00 
0.0000000e+00 0.0000000e+00 0.0000000e+00 
0.0000000e+00 0.0000000e+00 0.0000000e+00 
0.0000000e+00 0.0000000e+00 0.0000000e+00 
0.0000000e+00 0.0000000e+00 0.0000000e+00 
0.0000000e+00 0.0000000e+00 0.0000000e+00 
0.0000000e+00 0.0000000e+00 0.0000000e+00 
0.0000000e+00 0.0000000e+00 0.0000000e+00 
0.0000000e+00 0.0000000e+00 0.0000000e+00 
0.0000000e+00 0.0000000e+00 0.0000000e+00 
0.0000000e+00 0.0000000e+00 0.0000000e+00 
0.0000000e+00 0.0000000e+00 0.0000000e+00 
0.0000000e+00 0.0000000e+00 0.0000000e+00 
0.0000000e+00 0.0000000e+00 0.0000000e+00 
0.0000000e+00 0.0000000e+00 0.0000000e+00 
0.0000000e+00 0.0000000e+00 0.0000000e+00 
0.0000000e+00 0.0000000e+00 0.0000000e+00 
0.0000000e+00 0.0000000e+00 0.0000000e+00 
0.0000000e+00 0.0000000e+00 0.0000000e+00 
0.0000000e+00 0.0000000e+00 0.0000000e+00 
0.0000000e+00 0.0000000e+00 0.0000000e+00 
0.0000000e+00 0.0000000e+00 0.0000000e+00 
0.0000000e+00 0.0000000e+00 0.0000000e+00 
0.0000000e+00 0.0000000e+00 0.0000000e+00 
0.0000000e+00 0.0000000e+00 0.0000000e+00 
0.0000000e+00 0.0000000e+00 0.0000000e+00 
0.0000000e+00 0.0000000e+00 0.0000000e+00 
0.0000000e+00 0.0000000e+00 0.0000000e+00 
0.0000000e+00 0.0000000e+00 0.0000000e+00 
0.0000000e+00 0.0000000e+00 0.0000000e+00 
0.0000000e+00 0.0000000e+00 0.0000000e+00 
0.0000000e+00 0.0000000e+00 0.0000000e+00 
0.0000000e+00 0.0000000e+00 0.0000000e+00 
3.4867375e-07 -4.4130445e-07 6.9536560e-07 
2.7794820e-05 -8.7816579e-06 3.7200139e-06 
2.3354705e-05 -9.7622969e-06 5.3169670e-06 
-2.6534872e-06 -1.1922575e-06 5.9814045e-07 
-3.8821104e-06 3.1565594e-06 1.1472407e-06 
-6.6517532e-07 1.7457658e-06 -2.0858283e-06 
8.4313469e-06 -8.2276601e-06 -7.2841895e-06 
2.7766468e-05 -1.0434326e-05 -2.6061291e-06 