# vtk DataFile Version 4.0
vtk output
ASCII
DATASET UNSTRUCTURED_GRID
POINTS 662 float
0.0000000e+00 0.0000000e+00 0.0000000e+00 
0.0000000e+00 0.0000000e+00 4.0000000e+01 
5.0000000e+00 0.0000000e+00 0.0000000e+00 
5.0000000e+00 0.0000000e+00 4.0000000e+01 
5.0000000e+00 1.0000000e+00 0.0000000e+00 
5.0000000e+00 1.0000000e+00 4.0000000e+01 
0.0000000e+00 1.0000000e+00 0.0000000e+00 
0.0000000e+00 1.0000000e+00 4.0000000e+01 
5.0000000e+00 2.0000000e+00 0.0000000e+00 
5.0000000e+00 2.0000000e+00 4.0000000e+01 
3.0000000e+00 2.0000000e+00 0.0000000e+00 
3.0000000e+00 2.0000000e+00 4.0000000e+01 
0.0000000e+00 2.0000000e+00 0.0000000e+00 
0.0000000e+00 2.0000000e+00 4.0000000e+01 
1.5000000e+00 3.0000000e+00 0.0000000e+00 
1.5000000e+00 3.0000000e+00 4.0000000e+01 
7.5000000e-01 3.0000000e+00 0.0000000e+00 
7.5000000e-01 3.0000000e+00 4.0000000e+01 
0.0000000e+00 3.0000000e+00 0.0000000e+00 
0.0000000e+00 3.0000000e+00 4.0000000e+01 
7.5000000e-01 3.0000000e+00 5.0000000e-01 
7.5000000e-01 3.0000000e+00 1.0000000e+00 
7.5000000e-01 3.0000000e+00 1.5000000e+00 
7.5000000e-01 3.0000000e+00 2.0000000e+00 
7.5000000e-01 3.0000000e+00 2.5000000e+00 
7.5000000e-01 3.0000000e+00 3.0000000e+00 
7.5000000e-01 3.0000000e+00 3.5000000e+00 
7.5000000e-01 3.0000000e+00 4.0000000e+00 
7.5000000e-01 3.0000000e+00 4.5000000e+00 
7.5000000e-01 3.0000000e+00 5.0000000e+00 
7.5000000e-01 3.0000000e+00 5.5000000e+00 
7.5000000e-01 3.0000000e+00 6.0000000e+00 
7.5000000e-01 3.0000000e+00 6.5000000e+00 
7.5000000e-01 3.0000000e+00 7.0000000e+00 
7.5000000e-01 3.0000000e+00 7.5000000e+00 
7.5000000e-01 3.0000000e+00 8.0000000e+00 
7.5000000e-01 3.0000000e+00 8.5000000e+00 
7.5000000e-01 3.0000000e+00 9.0000000e+00 
7.5000000e-01 3.0000000e+00 9.5000000e+00 
7.5000000e-01 3.0000000e+00 1.0000000e+01 
7.5000000e-01 3.0000000e+00 1.0500000e+01 
7.5000000e-01 3.0000000e+00 1.1000000e+01 
7.5000000e-01 3.0000000e+00 1.1500000e+01 
7.5000000e-01 3.0000000e+00 1.2000000e+01 
7.5000000e-01 3.0000000e+00 1.2500000e+01 
7.5000000e-01 3.0000000e+00 1.3000000e+01 
7.5000000e-01 3.0000000e+00 1.3500000e+01 
7.5000000e-01 3.0000000e+00 1.4000000e+01 
7.5000000e-01 3.0000000e+00 1.4500000e+01 
7.5000000e-01 3.0000000e+00 1.5000000e+01 
7.5000000e-01 3.0000000e+00 1.5500000e+01 
7.5000000e-01 3.0000000e+00 1.6000000e+01 
7.5000000e-01 3.0000000e+00 1.6500000e+01 
7.5000000e-01 3.0000000e+00 1.7000000e+01 
7.5000000e-01 3.0000000e+00 1.7500000e+01 
7.5000000e-01 3.0000000e+00 1.8000000e+01 
7.5000000e-01 3.0000000e+00 1.8500000e+01 
7.5000000e-01 3.0000000e+00 1.9000000e+01 
7.5000000e-01 3.0000000e+00 1.9500000e+01 
7.5000000e-01 3.0000000e+00 2.0000000e+01 
7.5000000e-01 3.0000000e+00 2.0500000e+01 
7.5000000e-01 3.0000000e+00 2.1000000e+01 
7.5000000e-01 3.0000000e+00 2.1500000e+01 
7.5000000e-01 3.0000000e+00 2.2000000e+01 
7.5000000e-01 3.0000000e+00 2.2500000e+01 
7.5000000e-01 3.0000000e+00 2.3000000e+01 
7.5000000e-01 3.0000000e+00 2.3500000e+01 
7.5000000e-01 3.0000000e+00 2.4000000e+01 
7.5000000e-01 3.0000000e+00 2.4500000e+01 
7.5000000e-01 3.0000000e+00 2.5000000e+01 
7.5000000e-01 3.0000000e+00 2.5500000e+01 
7.5000000e-01 3.0000000e+00 2.6000000e+01 
7.5000000e-01 3.0000000e+00 2.6500000e+01 
7.5000000e-01 3.0000000e+00 2.7000000e+01 
7.5000000e-01 3.0000000e+00 2.7500000e+01 
7.5000000e-01 3.0000000e+00 2.8000000e+01 
7.5000000e-01 3.0000000e+00 2.8500000e+01 
7.5000000e-01 3.0000000e+00 2.9000000e+01 
7.5000000e-01 3.0000000e+00 2.9500000e+01 
7.5000000e-01 3.0000000e+00 3.0000000e+01 
7.5000000e-01 3.0000000e+00 3.0500000e+01 
7.5000000e-01 3.0000000e+00 3.1000000e+01 
7.5000000e-01 3.0000000e+00 3.1500000e+01 
7.5000000e-01 3.0000000e+00 3.2000000e+01 
7.5000000e-01 3.0000000e+00 3.2500000e+01 
7.5000000e-01 3.0000000e+00 3.3000000e+01 
7.5000000e-01 3.0000000e+00 3.3500000e+01 
7.5000000e-01 3.0000000e+00 3.4000000e+01 
7.5000000e-01 3.0000000e+00 3.4500000e+01 
7.5000000e-01 3.0000000e+00 3.5000000e+01 
7.5000000e-01 3.0000000e+00 3.5500000e+01 
7.5000000e-01 3.0000000e+00 3.6000000e+01 
7.5000000e-01 3.0000000e+00 3.6500000e+01 
7.5000000e-01 3.0000000e+00 3.7000000e+01 
7.5000000e-01 3.0000000e+00 3.7500000e+01 
7.5000000e-01 3.0000000e+00 3.8000000e+01 
7.5000000e-01 3.0000000e+00 3.8500000e+01 
7.5000000e-01 3.0000000e+00 3.9000000e+01 
7.5000000e-01 3.0000000e+00 3.9500000e+01 
7.5000000e-01 3.0000000e+00 4.0500000e+01 
7.5000000e-01 3.0000000e+00 4.1000000e+01 
7.5000000e-01 3.0000000e+00 4.1500000e+01 
7.5000000e-01 3.0000000e+00 4.2000000e+01 
7.5000000e-01 3.0000000e+00 4.2500000e+01 
7.5000000e-01 3.0000000e+00 4.3000000e+01 
7.5000000e-01 3.0000000e+00 4.3500000e+01 
7.5000000e-01 3.0000000e+00 4.4000000e+01 
7.5000000e-01 3.0000000e+00 4.4500000e+01 
7.5000000e-01 3.0000000e+00 4.5000000e+01 
7.5000000e-01 3.0000000e+00 4.5500000e+01 
7.5000000e-01 3.0000000e+00 4.6000000e+01 
7.5000000e-01 3.0000000e+00 4.6500000e+01 
7.5000000e-01 3.0000000e+00 4.7000000e+01 
7.5000000e-01 3.0000000e+00 4.7500000e+01 
7.5000000e-01 3.0000000e+00 4.8000000e+01 
7.5000000e-01 3.0000000e+00 4.8500000e+01 
7.5000000e-01 3.0000000e+00 4.9000000e+01 
7.5000000e-01 3.0000000e+00 4.9500000e+01 
7.5000000e-01 3.0000000e+00 5.0000000e+01 
7.5000000e-01 3.0250001e+00 0.0000000e+00 
7.5000000e-01 3.0250001e+00 5.0000000e-01 
7.5000000e-01 3.0250001e+00 1.0000000e+00 
7.5000000e-01 3.0250001e+00 1.5000000e+00 
7.5000000e-01 3.0250001e+00 2.0000000e+00 
7.5000000e-01 3.0250001e+00 2.5000000e+00 
7.5000000e-01 3.0250001e+00 3.0000000e+00 
7.5000000e-01 3.0250001e+00 3.5000000e+00 
7.5000000e-01 3.0250001e+00 4.0000000e+00 
7.5000000e-01 3.0250001e+00 4.5000000e+00 
7.5000000e-01 3.0250001e+00 5.0000000e+00 
7.5000000e-01 3.0250001e+00 5.5000000e+00 
7.5000000e-01 3.0250001e+00 6.0000000e+00 
7.5000000e-01 3.0250001e+00 6.5000000e+00 
7.5000000e-01 3.0250001e+00 7.0000000e+00 
7.5000000e-01 3.0250001e+00 7.5000000e+00 
7.5000000e-01 3.0250001e+00 8.0000000e+00 
7.5000000e-01 3.0250001e+00 8.5000000e+00 
7.5000000e-01 3.0250001e+00 9.0000000e+00 
7.5000000e-01 3.0250001e+00 9.5000000e+00 
7.5000000e-01 3.0250001e+00 1.0000000e+01 
7.5000000e-01 3.0250001e+00 1.0500000e+01 
7.5000000e-01 3.0250001e+00 1.1000000e+01 
7.5000000e-01 3.0250001e+00 1.1500000e+01 
7.5000000e-01 3.0250001e+00 1.2000000e+01 
7.5000000e-01 3.0250001e+00 1.2500000e+01 
7.5000000e-01 3.0250001e+00 1.3000000e+01 
7.5000000e-01 3.0250001e+00 1.3500000e+01 
7.5000000e-01 3.0250001e+00 1.4000000e+01 
7.5000000e-01 3.0250001e+00 1.4500000e+01 
7.5000000e-01 3.0250001e+00 1.5000000e+01 
7.5000000e-01 3.0250001e+00 1.5500000e+01 
7.5000000e-01 3.0250001e+00 1.6000000e+01 
7.5000000e-01 3.0250001e+00 1.6500000e+01 
7.5000000e-01 3.0250001e+00 1.7000000e+01 
7.5000000e-01 3.0250001e+00 1.7500000e+01 
7.5000000e-01 3.0250001e+00 1.8000000e+01 
7.5000000e-01 3.0250001e+00 1.8500000e+01 
7.5000000e-01 3.0250001e+00 1.9000000e+01 
7.5000000e-01 3.0250001e+00 1.9500000e+01 
7.5000000e-01 3.0250001e+00 2.0000000e+01 
7.5000000e-01 3.0250001e+00 2.0500000e+01 
7.5000000e-01 3.0250001e+00 2.1000000e+01 
7.5000000e-01 3.0250001e+00 2.1500000e+01 
7.5000000e-01 3.0250001e+00 2.2000000e+01 
7.5000000e-01 3.0250001e+00 2.2500000e+01 
7.5000000e-01 3.0250001e+00 2.3000000e+01 
7.5000000e-01 3.0250001e+00 2.3500000e+01 
7.5000000e-01 3.0250001e+00 2.4000000e+01 
7.5000000e-01 3.0250001e+00 2.4500000e+01 
7.5000000e-01 3.0250001e+00 2.5000000e+01 
7.5000000e-01 3.0250001e+00 2.5500000e+01 
7.5000000e-01 3.0250001e+00 2.6000000e+01 
7.5000000e-01 3.0250001e+00 2.6500000e+01 
7.5000000e-01 3.0250001e+00 2.7000000e+01 
7.5000000e-01 3.0250001e+00 2.7500000e+01 
7.5000000e-01 3.0250001e+00 2.8000000e+01 
7.5000000e-01 3.0250001e+00 2.8500000e+01 
7.5000000e-01 3.0250001e+00 2.9000000e+01 
7.5000000e-01 3.0250001e+00 2.9500000e+01 
7.5000000e-01 3.0250001e+00 3.0000000e+01 
7.5000000e-01 3.0250001e+00 3.0500000e+01 
7.5000000e-01 3.0250001e+00 3.1000000e+01 
7.5000000e-01 3.0250001e+00 3.1500000e+01 
7.5000000e-01 3.0250001e+00 3.2000000e+01 
7.5000000e-01 3.0250001e+00 3.2500000e+01 
7.5000000e-01 3.0250001e+00 3.3000000e+01 
7.5000000e-01 3.0250001e+00 3.3500000e+01 
7.5000000e-01 3.0250001e+00 3.4000000e+01 
7.5000000e-01 3.0250001e+00 3.4500000e+01 
7.5000000e-01 3.0250001e+00 3.5000000e+01 
7.5000000e-01 3.0250001e+00 3.5500000e+01 
7.5000000e-01 3.0250001e+00 3.6000000e+01 
7.5000000e-01 3.0250001e+00 3.6500000e+01 
7.5000000e-01 3.0250001e+00 3.7000000e+01 
7.5000000e-01 3.0250001e+00 3.7500000e+01 
7.5000000e-01 3.0250001e+00 3.8000000e+01 
7.5000000e-01 3.0250001e+00 3.8500000e+01 
7.5000000e-01 3.0250001e+00 3.9000000e+01 
7.5000000e-01 3.0250001e+00 3.9500000e+01 
7.5000000e-01 3.0250001e+00 4.0000000e+01 
7.5000000e-01 3.0250001e+00 4.0500000e+01 
7.5000000e-01 3.0250001e+00 4.1000000e+01 
7.5000000e-01 3.0250001e+00 4.1500000e+01 
7.5000000e-01 3.0250001e+00 4.2000000e+01 
7.5000000e-01 3.0250001e+00 4.2500000e+01 
7.5000000e-01 3.0250001e+00 4.3000000e+01 
7.5000000e-01 3.0250001e+00 4.3500000e+01 
7.5000000e-01 3.0250001e+00 4.4000000e+01 
7.5000000e-01 3.0250001e+00 4.4500000e+01 
7.5000000e-01 3.0250001e+00 4.5000000e+01 
7.5000000e-01 3.0250001e+00 4.5500000e+01 
7.5000000e-01 3.0250001e+00 4.6000000e+01 
7.5000000e-01 3.0250001e+00 4.6500000e+01 
7.5000000e-01 3.0250001e+00 4.7000000e+01 
7.5000000e-01 3.0250001e+00 4.7500000e+01 
7.5000000e-01 3.0250001e+00 4.8000000e+01 
7.5000000e-01 3.0250001e+00 4.8500000e+01 
7.5000000e-01 3.0250001e+00 4.9000000e+01 
7.5000000e-01 3.0250001e+00 4.9500000e+01 
7.5000000e-01 3.0250001e+00 5.0000000e+01 
7.5000000e-01 3.0250001e+00 3.5750000e+01 
3.0000000e+00 2.0000000e+00 3.6000000e+01 
8.0487806e-01 3.0000000e+00 3.6000000e+01 
0.0000000e+00 0.0000000e+00 2.0000000e+00 
0.0000000e+00 0.0000000e+00 4.0000000e+00 
0.0000000e+00 0.0000000e+00 6.0000000e+00 
0.0000000e+00 0.0000000e+00 8.0000000e+00 
0.0000000e+00 0.0000000e+00 1.0000000e+01 
0.0000000e+00 0.0000000e+00 1.2000000e+01 
0.0000000e+00 0.0000000e+00 1.4000000e+01 
[...]
POINT_DATA 662
FIELD FieldData 3
DISPLACEMENT 3 662  float
0.0000000e+00 0.0000000e+00 0.0000000e+00 
0.0000000e+00 0.0000000e+00 0.0000000e+00 
0.0000000e+00 0.0000000e+00 0.0000000e+00 
0.0000000e+00 0.0000000e+00 0.0000000e+00 
3.3113446e-07 -1.4294750e-06 1.6065243e-06 
-2.4404656e-07 -2.8335699e-06 -2.5534805e-06 
0.0000000e+00 1.7150762e-05 0.0000000e+00 
0.0000000e+00 3.1279771e-05 0.0000000e+00 
2.7144795e-06 -3.3454737e-06 -3.3715517e-07 
1.0093277e-06 -7.8563971e-06 4.7650842e-06 
-3.4346726e-07 5.9178997e-06 3.8664039e-06 
-3.0039257e-06 2.4196968e-06 1.8203265e-06 
0.0000000e+00 3.2992852e-05 0.0000000e+00 
0.0000000e+00 6.1523016e-05 0.0000000e+00 
8.3929799e-06 3.8804083e-05 2.6673684e-05 
3.0151541e-05 5.3030806e-05 -7.6665410e-06 
3.1526484e-05 6.4835964e-05 3.4560220e-05 
3.0285486e-05 8.2228908e-05 1.0392442e-05 
0.0000000e+00 4.7158668e-05 0.0000000e+00 
0.0000000e+00 8.3306586e-05 0.0000000e+00 
-4.9267455e-06 6.2612737e-05 6.4122287e-06 
-1.3502533e-05 5.7656362e-05 -5.1302718e-06 
-1.5164667e-05 5.1674055e-05 -1.3606459e-05 
-1.3154836e-05 4.6107678e-05 -2.3542996e-05 
-7.5039575e-06 4.3042379e-05 -3.1047708e-05 
-4.1922017e-06 4.4058350e-05 -3.6066009e-05 
6.4207361e-06 5.0747014e-05 -5.0764655e-05 
1.8665469e-05 6.4471555e-05 -6.2279432e-05 
2.5894311e-05 8.6124819e-05 -5.7350913e-05 
3.2311524e-05 1.1352876e-04 -4.5008514e-05 
3.6545018e-05 1.4446281e-04 -3.5108242e-05 
4.6797886e-05 1.7686313e-04 -2.0305190e-05 
6.0373892e-05 2.0723857e-04 -4.2826077e-06 
6.5817439e-05 2.2799104e-04 1.6696795e-05 
5.1380193e-05 2.2560805e-04 4.9871709e-05 
2.7425833e-05 1.7129687e-04 8.4295702e-05 
-1.8911247e-05 2.2305634e-05 1.2696965e-04 
-3.2998076e-05 -2.6310235e-04 1.6710156e-04 
-6.2705985e-05 -7.4902311e-04 2.2660782e-04 
-1.2651640e-04 -1.4779823e-03 1.7784044e-04 
-2.8725658e-04 -2.4673711e-03 2.5691654e-04 
-3.0381052e-04 -3.5319235e-03 2.2559371e-04 
-1.9863914e-04 -4.3568327e-03 1.5246007e-04 
-1.7116508e-04 -4.3766969e-03 1.4657370e-04 
-3.0399591e-04 -4.1629616e-03 5.5368404e-05 
-3.7045826e-04 -4.0936065e-03 1.8065981e-05 
-2.5144816e-04 -4.2858203e-03 -3.0288496e-05 
-8.8770488e-05 -4.2511695e-03 -7.6615615e-05 
-1.0883436e-04 -3.5133169e-03 -1.7097348e-04 
-1.9681704e-04 -2.4513770e-03 -1.9176172e-04 
-1.8983369e-04 -1.5264305e-03 -1.8368952e-04 
-6.5399210e-05 -8.2119595e-04 -1.2152758e-04 
-3.0266292e-05 -3.7082692e-04 -1.5445001e-04 
-1.7976296e-05 -1.1132704e-04 -1.2148147e-04 
-1.3206552e-05 1.7226213e-05 -9.7694130e-05 
3.3192509e-06 6.5430591e-05 -7.2655632e-05 
1.3274829e-05 6.6303277e-05 -4.3502467e-05 
1.6831120e-05 4.6730627e-05 -2.2490965e-05 
1.0151618e-05 2.4805431e-05 -2.2564209e-05 
2.7327176e-06 7.3727369e-06 -3.3298307e-05 
-3.5472608e-06 -1.9433519e-06 -4.4744895e-05 
-4.3380924e-06 -7.5658545e-06 -4.9104736e-05 
-8.0439277e-06 -1.4293531e-05 -4.0770847e-05 
-1.5570318e-05 -2.3364088e-05 -2.3031034e-05 
-1.3626458e-05 -3.4352684e-05 -8.5330083e-07 
-1.2494430e-05 -4.2498461e-05 1.4597456e-05 
-1.1532715e-05 -4.2309181e-05 2.1613976e-05 
-7.7090881e-06 -2.9849354e-05 2.2010981e-05 
3.3013880e-06 -1.8178448e-06 1.7165424e-06 
7.5515973e-06 3.8180911e-05 -2.1158759e-05 
2.3049470e-05 8.5737978e-05 -4.7278845e-05 
4.2981199e-05 1.3387414e-04 -6.5248154e-05 
5.1492552e-05 1.7602787e-04 -6.0852220e-05 
5.8361071e-05 2.0259721e-04 -3.9469302e-05 
4.6855435e-05 1.9999043e-04 -1.0011092e-05 
2.6138234e-05 1.4156006e-04 2.5975212e-05 
-1.6823808e-05 -1.5964853e-05 8.4441403e-05 
-2.6738055e-05 -3.1462035e-04 1.3783779e-04 
-5.1025516e-05 -8.1855932e-04 1.9715652e-04 
-1.1222125e-04 -1.5620405e-03 1.4409152e-04 
-2.6417023e-04 -2.5464636e-03 2.2451916e-04 
-2.7778497e-04 -3.5509453e-03 1.9030087e-04 
-1.7388219e-04 -4.2065089e-03 1.1898669e-04 
-1.2725840e-04 -4.1093174e-03 1.2620827e-04 
-2.5942968e-04 -3.9237849e-03 5.1799227e-05 
-3.1549361e-04 -3.9348970e-03 3.3918652e-05 
-2.0343787e-04 -4.1758213e-03 1.2768276e-06 
-6.7289206e-05 -4.0628347e-03 -1.1442823e-05 
-1.0797379e-04 -3.2568045e-03 -1.3008948e-04 
-2.0804483e-04 -2.2241478e-03 -1.6782006e-04 
-2.1203549e-04 -1.3509728e-03 -1.7734199e-04 
-1.2836418e-04 -6.9681712e-04 -1.5246839e-04 
-5.7824858e-05 -2.8019099e-04 -1.5489930e-04 
-3.8276052e-05 -3.6767273e-05 -1.3367939e-04 
-2.8752769e-05 9.2359507e-05 -1.2549938e-04 
-2.3880957e-06 1.4935125e-04 -1.0977170e-04 
1.3193752e-05 1.6162061e-04 -7.9154684e-05 
2.6641710e-05 1.4819716e-04 -4.8621856e-05 
2.5134957e-05 1.2139665e-04 -3.0101835e-05 
0.0000000e+00 3.6161604e-05 0.0000000e+00 
0.0000000e+00 -1.2003403e-05 0.0000000e+00 
0.0000000e+00 -5.6095592e-05 0.0000000e+00 
0.0000000e+00 -8.9899462e-05 0.0000000e+00 
0.0000000e+00 -1.0837750e-04 0.0000000e+00 
0.0000000e+00 -1.0894905e-04 0.0000000e+00 
0.0000000e+00 -9.2213551e-05 0.0000000e+00 
0.0000000e+00 -6.1848288e-05 0.0000000e+00 
0.0000000e+00 -2.3788429e-05 0.0000000e+00 
0.0000000e+00 1.4991258e-05 0.0000000e+00 
0.0000000e+00 4.7784652e-05 0.0000000e+00 
0.0000000e+00 6.9324749e-05 0.0000000e+00 
0.0000000e+00 7.6624128e-05 0.0000000e+00 
0.0000000e+00 6.9333480e-05 0.0000000e+00 
0.0000000e+00 4.9592571e-05 0.0000000e+00 
0.0000000e+00 2.1508800e-05 0.0000000e+00 
0.0000000e+00 -9.5450478e-06 0.0000000e+00 
0.0000000e+00 -3.7711008e-05 0.0000000e+00 
0.0000000e+00 -5.7504651e-05 0.0000000e+00 
0.0000000e+00 -6.4717089e-05 0.0000000e+00 
0.0000000e+00 6.4762120e-05 0.0000000e+00 
0.0000000e+00 6.2655352e-05 0.0000000e+00 
0.0000000e+00 5.7684476e-05 0.0000000e+00 
0.0000000e+00 5.1636369e-05 0.0000000e+00 
0.0000000e+00 4.6117992e-05 0.0000000e+00 
0.0000000e+00 4.3037322e-05 0.0000000e+00 
0.0000000e+00 4.4069715e-05 0.0000000e+00 
0.0000000e+00 5.0781669e-05 0.0000000e+00 
0.0000000e+00 6.4636362e-05 0.0000000e+00 
0.0000000e+00 8.6140353e-05 0.0000000e+00 
0.0000000e+00 1.1352852e-04 0.0000000e+00 
0.0000000e+00 1.4454758e-04 0.0000000e+00 
0.0000000e+00 1.7707892e-04 0.0000000e+00 
0.0000000e+00 2.0758584e-04 0.0000000e+00 
0.0000000e+00 2.2888974e-04 0.0000000e+00 
0.0000000e+00 2.2638090e-04 0.0000000e+00 
0.0000000e+00 1.7137194e-04 0.0000000e+00 
0.0000000e+00 2.3520828e-05 0.0000000e+00 
0.0000000e+00 -2.6384505e-04 0.0000000e+00 
0.0000000e+00 -7.5059943e-04 0.0000000e+00 
0.0000000e+00 -1.4877273e-03 0.0000000e+00 
0.0000000e+00 -2.4752405e-03 0.0000000e+00 
0.0000000e+00 -3.5648046e-03 0.0000000e+00 
0.0000000e+00 -4.3815295e-03 0.0000000e+00 
0.0000000e+00 -4.4075879e-03 0.0000000e+00 
0.0000000e+00 -4.1770614e-03 0.0000000e+00 
0.0000000e+00 -4.1241334e-03 0.0000000e+00 
0.0000000e+00 -4.3055001e-03 0.0000000e+00 
0.0000000e+00 -4.2853048e-03 0.0000000e+00 
0.0000000e+00 -3.5312655e-03 0.0000000e+00 
0.0000000e+00 -2.4697203e-03 0.0000000e+00 
0.0000000e+00 -1.5286456e-03 0.0000000e+00 
0.0000000e+00 -8.2542124e-04 0.0000000e+00 
0.0000000e+00 -3.7059968e-04 0.0000000e+00 
0.0000000e+00 -1.1052381e-04 0.0000000e+00 
0.0000000e+00 1.8198234e-05 0.0000000e+00 
0.0000000e+00 6.5772962e-05 0.0000000e+00 
0.0000000e+00 6.6760287e-05 0.0000000e+00 
0.0000000e+00 4.7315119e-05 0.0000000e+00 
0.0000000e+00 2.4972540e-05 0.0000000e+00 
0.0000000e+00 7.7388213e-06 0.0000000e+00 
0.0000000e+00 -1.9431775e-06 0.0000000e+00 
0.0000000e+00 -7.7703953e-06 0.0000000e+00 
0.0000000e+00 -1.4374604e-05 0.0000000e+00 
0.0000000e+00 -2.3555755e-05 0.0000000e+00 
0.0000000e+00 -3.4388057e-05 0.0000000e+00 
0.0000000e+00 -4.2424570e-05 0.0000000e+00 
0.0000000e+00 -4.2282678e-05 0.0000000e+00 
0.0000000e+00 -2.9520823e-05 0.0000000e+00 
0.0000000e+00 -1.7709475e-06 0.0000000e+00 
0.0000000e+00 3.8303675e-05 0.0000000e+00 
0.0000000e+00 8.5730586e-05 0.0000000e+00 
0.0000000e+00 1.3401300e-04 0.0000000e+00 
0.0000000e+00 1.7625785e-04 0.0000000e+00 
0.0000000e+00 2.0334890e-04 0.0000000e+00 
0.0000000e+00 2.0088795e-04 0.0000000e+00 
0.0000000e+00 1.4168213e-04 0.0000000e+00 
0.0000000e+00 -1.4739867e-05 0.0000000e+00 
0.0000000e+00 -3.1578468e-04 0.0000000e+00 
0.0000000e+00 -8.2057941e-04 0.0000000e+00 
0.0000000e+00 -1.5727970e-03 0.0000000e+00 
0.0000000e+00 -2.5556048e-03 0.0000000e+00 
0.0000000e+00 -3.5860962e-03 0.0000000e+00 
0.0000000e+00 -4.2306618e-03 0.0000000e+00 
0.0000000e+00 -4.1390029e-03 0.0000000e+00 
0.0000000e+00 -3.9373259e-03 0.0000000e+00 
0.0000000e+00 -3.9663007e-03 0.0000000e+00 
0.0000000e+00 -4.1968860e-03 0.0000000e+00 
0.0000000e+00 -4.0963925e-03 0.0000000e+00 
0.0000000e+00 -3.2728692e-03 0.0000000e+00 
0.0000000e+00 -2.2401055e-03 0.0000000e+00 
0.0000000e+00 -1.3525260e-03 0.0000000e+00 
0.0000000e+00 -7.0001156e-04 0.0000000e+00 
0.0000000e+00 -2.8018700e-04 0.0000000e+00 
0.0000000e+00 -3.5653662e-05 0.0000000e+00 
0.0000000e+00 9.3197799e-05 0.0000000e+00 
0.0000000e+00 1.4977604e-04 0.0000000e+00 
0.0000000e+00 1.6201320e-04 0.0000000e+00 
0.0000000e+00 1.4879952e-04 0.0000000e+00 
0.0000000e+00 1.2118665e-04 0.0000000e+00 
0.0000000e+00 8.2247694e-05 0.0000000e+00 
0.0000000e+00 3.6110032e-05 0.0000000e+00 
0.0000000e+00 -1.2008893e-05 0.0000000e+00 
0.0000000e+00 -5.6040200e-05 0.0000000e+00 
0.0000000e+00 -8.9788133e-05 0.0000000e+00 
0.0000000e+00 -1.0823675e-04 0.0000000e+00 
0.0000000e+00 -1.0881486e-04 0.0000000e+00 
0.0000000e+00 -9.2116708e-05 0.0000000e+00 
0.0000000e+00 -6.1806757e-05 0.0000000e+00 
0.0000000e+00 -2.3806684e-05 0.0000000e+00 
0.0000000e+00 1.4920923e-05 0.0000000e+00 
0.0000000e+00 4.7680329e-05 0.0000000e+00 
0.0000000e+00 6.9210197e-05 0.0000000e+00 
0.0000000e+00 7.6520941e-05 0.0000000e+00 
0.0000000e+00 6.9254864e-05 0.0000000e+00 
0.0000000e+00 4.9543578e-05 0.0000000e+00 
0.0000000e+00 2.1491620e-05 0.0000000e+00 
0.0000000e+00 -9.5272444e-06 0.0000000e+00 
0.0000000e+00 -3.7656551e-05 0.0000000e+00 
0.0000000e+00 -5.7419929e-05 0.0000000e+00 
0.0000000e+00 -6.4620108e-05 0.0000000e+00 
0.0000000e+00 -9.9371362e-04 0.0000000e+00 
2.3250319e-05 -4.3210581e-05 3.2788466e-06 
-1.0543896e-04 -6.2755443e-04 -1.2910366e-04 
0.0000000e+00 0.0000000e+00 0.0000000e+00 
0.0000000e+00 0.0000000e+00 0.0000000e+00 
0.0000000e+00 0.0000000e+00 0.0000000e+00 
0.0000000e+00 0.0000000e+00 0.0000000e+00 
0.0000000e+00 0.0000000e+00 0.0000000e+00 
0.0000000e+00 0.0000000e+00 0.0000000e+00 
0.0000000e+00 0.0000000e+00 0.0000000e+00 
0.0000000e+00 0.0000000e+00 0.0000000e+00 
0.0000000e+00 0.0000000e+00 0.0000000e+00 
0.0000000e+00 0.0000000e+00 0.0000000e+00 
0.0000000e+00 0.0000000e+00 0.0000000e+00 
0.0000000e+00 0.0000000e+00 0.0000000e+00 
0.0000000e+00 0.0000000e+00 0.0000000e+00 
0.0000000e+00 0.0000000e+00 0.0000000e+00 
0.0000000e+00 0.0000000e+00 0.0000000e+00 
0.0000000e+00 0.0000000e+00 0.0000000e+00 
0.0000000e+00 0.0000000e+00 0.0000000e+00 
0.0000000e+00 0.0000000e+00 0.0000000e+00 
0.0000000e+00 0.0000000e+00 0.0000000e+00 
0.0000000e+00 0.0000000e+00 0.0000000e+00 
0.0000000e+00 0.0000000e+00 0.0000000e+00 
0.0000000e+00 0.0000000e+00 0.0000000e+00 
0.0000000e+00 0.0000000e+00 0.0000000e+00 
0.0000000e+00 0.0000000e+00 0.0000000e+00 
0.0000000e+00 0.0000000e+00 0.0000000e+00 
0.0000000e+00 0.0000000e+00 0.0000000e+00 
0.0000000e+00 0.0000000e+00 0.0000000e+00 
0.0000000e+00 0.0000000e+00 0.0000000e+00 
0.0000000e+00 0.0000000e+00 0.0000000e+00 
0.0000000e+00 0.0000000e+00 0.0000000e+00 
0.0000000e+00 0.0000000e+00 0.0000000e+00 
0.0000000e+00 0.0000000e+00 0.0000000e+00 
0.0000000e+00 0.0000000e+00 0.0000000e+00 
0.0000000e+00 0.0000000e+00 0.0000000e+00 
0.0000000e+00 0.0000000e+00 0.0000000e+00 
0.0000000e+00 0.0000000e+00 0.0000000e+00 
0.0000000e+00 0.0000000e+00 0.0000000e+00 
0.0000000e+00 0.0000000e+00 0.0000000e+00 
0.0000000e+00 0.0000000e+00 0.0000000e+00 
0.0000000e+00 0.0000000e+00 0.0000000e+00 
0.0000000e+00 0.0000000e+00 0.0000000e+00 
0.0000000e+00 0.0000000e+00 0.0000000e+00 
-3.3066037e-06 4.4381346e-07 2.6777340e-07 
-7.0967403e-06 3.8487030e-07 -4.0730533e-06 
-2.3166692e-06 5.1221230e-07 -1.0278994e-05 
8.9822825e-06 -1.1125381e-06 -1.0224892e-05 
3.2884112e-05 -6.2559297e-06 -1.2301325e-05 
5.3698852e-05 -7.0075130e-06 8.5083556e-08 
4.5714340e-05 -3.8072312e-06 1.3351416e-05 
2.1515021e-05 -3.4253587e-06 8.4041149e-06 
8.2055931e-06 -2.1628905e-06 2.7987203e-06 
2.6660505e-06 -4.4616195e-07 2.0665093e-06 
-3.1570557e-06 -3.3917781e-06 4.2245993e-06 
-6.4401656e-06 -1.5656068e-06 5.5727264e-07 
-5.6848312e-06 4.1056605e-06 -1.5495021e-06 
6.2221939e-06 -8.9779888e-07 -8.1816843e-06 
3.2545675e-05 -9.3123090e-06 -1.0206969e-05 
5.3436434e-05 -9.2154760e-06 1.8478821e-06 
5.4466425e-05 -1.0605481e-05 1.3679826e-05 
2.1710628e-05 -7.4181162e-06 1.2028643e-05 
-5.5621190e-06 4.9936207e-06 -5.0472249e-07 
0.0000000e+00 1.7612490e-05 0.0000000e+00 
0.0000000e+00 2.3964531e-05 0.0000000e+00 
0.0000000e+00 6.1713195e-05 0.0000000e+00 
0.0000000e+00 3.5642181e-05 0.0000000e+00 
0.0000000e+00 -2.2658399e-04 0.0000000e+00 
0.0000000e+00 -6.1164901e-04 0.0000000e+00 
0.0000000e+00 -5.3671806e-04 0.0000000e+00 
0.0000000e+00 -1.5723851e-04 0.0000000e+00 
0.0000000e+00 4.9642645e-06 0.0000000e+00 
0.0000000e+00 -5.6000235e-06 0.0000000e+00 
0.0000000e+00 -5.6344438e-06 0.0000000e+00 
0.0000000e+00 -1.3685639e-05 0.0000000e+00 
0.0000000e+00 4.8473412e-05 0.0000000e+00 
0.0000000e+00 2.9602739e-05 0.0000000e+00 
0.0000000e+00 -2.2119832e-04 0.0000000e+00 
0.0000000e+00 -5.5440341e-04 0.0000000e+00 
0.0000000e+00 -5.1011931e-04 0.0000000e+00 
0.0000000e+00 -1.5701173e-04 0.0000000e+00 
0.0000000e+00 3.1476080e-05 0.0000000e+00 
-2.6123346e-06 2.0568305e-06 4.1542545e-08 
-2.3006626e-06 1.0859709e-05 3.1368261e-06 
-3.4631564e-06 -9.9917793e-07 2.4071051e-06 
-8.0220225e-06 1.9020550e-05 -8.9671175e-06 
-1.9034272e-06 -4.2955958e-07 4.3491119e-07 
-5.4882471e-06 7.2229233e-07 -5.5143264e-06 
2.1883832e-06 5.1789567e-07 -1.4664884e-05 
2.2739769e-05 -3.8670360e-06 -1.5749254e-05 
3.1705385e-05 -4.7448152e-06 -1.4284170e-06 
3.0183772e-05 -4.0272248e-06 4.6560617e-06 
1.9465622e-05 6.5216085e-07 1.2440662e-05 
9.1059228e-06 7.4566123e-07 2.2865700e-06 
8.8160423e-06 -1.5451257e-06 7.3709242e-07 
1.5174522e-06 -1.7128792e-06 3.5218707e-06 
-4.1697563e-06 -6.7303104e-06 5.5065370e-06 
-7.0300189e-06 -2.1665717e-06 -3.3870717e-06 
-2.3587463e-06 5.3565191e-06 -7.0867304e-06 
2.1617572e-05 -2.1547139e-06 -8.0116315e-06 
3.4204168e-05 -8.8421393e-06 -6.1268940e-07 
3.9222959e-05 -7.4756372e-06 7.3367337e-06 
3.2323820e-05 -7.7992172e-06 1.6882250e-05 
1.0136292e-05 -1.8203084e-06 4.2758484e-07 
-5.9640629e-06 4.3657642e-06 -2.4745675e-06 
-1.3405751e-06 2.1470583e-05 6.9797634e-06 
0.0000000e+00 3.3445322e-05 0.0000000e+00 
0.0000000e+00 4.0503652e-05 0.0000000e+00 
0.0000000e+00 1.0569975e-04 0.0000000e+00 
0.0000000e+00 8.0871388e-05 0.0000000e+00 
0.0000000e+00 -4.7351728e-04 0.0000000e+00 
0.0000000e+00 -1.3375754e-03 0.0000000e+00 
0.0000000e+00 -1.1840089e-03 0.0000000e+00 
0.0000000e+00 -2.9472166e-04 0.0000000e+00 
0.0000000e+00 2.2760963e-05 0.0000000e+00 
0.0000000e+00 -1.3022738e-05 0.0000000e+00 
0.0000000e+00 -6.6474959e-06 0.0000000e+00 
0.0000000e+00 -2.7288919e-05 0.0000000e+00 
0.0000000e+00 9.2054783e-05 0.0000000e+00 
0.0000000e+00 6.5749024e-05 0.0000000e+00 
0.0000000e+00 -4.8092977e-04 0.0000000e+00 
0.0000000e+00 -1.2268897e-03 0.0000000e+00 
0.0000000e+00 -1.1067308e-03 0.0000000e+00 
0.0000000e+00 -2.8475648e-04 0.0000000e+00 
0.0000000e+00 7.1748247e-05 0.0000000e+00 
-2.3031564e-06 3.6827823e-05 -2.0305111e-05 
-9.5629639e-06 2.8049697e-05 -9.3616172e-06 
2.0077880e-05 3.4138531e-05 -8.7003835e-05 
7.2784707e-05 1.0294326e-04 -2.7989030e-05 
5.3917302e-05 1.4741498e-04 1.3288863e-04 
-2.9079241e-04 -4.5174480e-04 4.0127200e-04 
-7.4705441e-04 -1.4900365e-03 1.5284574e-04 
-6.3567318e-04 -1.4745500e-03 -1.6440421e-04 
-1.4073447e-04 -2.4394710e-04 -2.4549305e-04 
1.4144406e-05 3.3145247e-05 -8.3364546e-05 
4.5746651e-06 -3.8971375e-06 -2.9044520e-05 
-2.1744065e-05 -2.1516207e-05 -6.7793380e-06 
-1.1549415e-05 -2.7230451e-05 7.4375312e-06 
6.8382775e-05 6.0551556e-05 -8.9604102e-05 
4.8961945e-05 1.4007607e-04 7.5493299e-05 
-2.9256725e-04 -4.6573015e-04 3.5841341e-04 
-6.6771748e-04 -1.3322311e-03 1.1317680e-04 
-5.9688254e-04 -1.3821241e-03 -8.3519153e-05 
-1.3705836e-04 -2.8480831e-04 -2.1496137e-04 
4.8281140e-06 8.3130799e-05 -1.4535258e-04 
0.0000000e+00 5.1891329e-05 0.0000000e+00 
0.0000000e+00 5.0010669e-05 0.0000000e+00 
0.0000000e+00 1.5017185e-04 0.0000000e+00 
0.0000000e+00 1.6764289e-04 0.0000000e+00 
0.0000000e+00 -8.8074512e-04 0.0000000e+00 
0.0000000e+00 -2.5520388e-03 0.0000000e+00 
0.0000000e+00 -2.2344009e-03 0.0000000e+00 
0.0000000e+00 -4.9909658e-04 0.0000000e+00 
0.0000000e+00 6.4935455e-05 0.0000000e+00 
0.0000000e+00 -1.5820104e-05 0.0000000e+00 
0.0000000e+00 -7.8684579e-06 0.0000000e+00 
0.0000000e+00 -4.8535698e-05 0.0000000e+00 
0.0000000e+00 1.3590924e-04 0.0000000e+00 
0.0000000e+00 1.3622330e-04 0.0000000e+00 
0.0000000e+00 -9.3311752e-04 0.0000000e+00 
0.0000000e+00 -2.3891458e-03 0.0000000e+00 
0.0000000e+00 -2.1018528e-03 0.0000000e+00 
0.0000000e+00 -4.3793788e-04 0.0000000e+00 
0.0000000e+00 1.3460939e-04 0.0000000e+00 
-6.7845613e-06 2.7077745e-06 -2.9921912e-06 
-3.8237331e-06 8.3360610e-06 -1.6844184e-05 
1.0904016e-05 2.6003798e-05 -5.2950750e-06 
2.5162168e-05 5.2599360e-05 2.4494735e-05 
5.4686076e-05 -5.1637147e-05 1.7553735e-05 
5.2052372e-05 -1.2523525e-04 4.6197860e-07 
4.1309413e-05 -1.1294975e-04 6.0213611e-06 
3.3699838e-05 -5.4610889e-05 -1.1297046e-06 
5.4527859e-06 6.3644188e-06 -2.0649532e-05 
-1.0153123e-06 -3.6730271e-06 -1.5244926e-05 
-1.6954229e-05 -5.6677713e-06 -3.3687743e-06 
-9.7681150e-06 -5.0257236e-06 -5.9150766e-06 
9.9802592e-06 1.6609927e-05 -8.1275202e-06 
1.6309443e-05 4.7775877e-05 1.0893193e-05 
5.8943704e-05 -4.6444991e-05 1.2114851e-05 
6.6488261e-05 -9.8289151e-05 8.3079931e-06 
4.9454797e-05 -1.0335477e-04 2.5375241e-05 
-7.4194240e-06 1.1455541e-05 -2.2680200e-05 
-3.0572097e-05 -2.2571553e-04 -9.7274446e-05 
0.0000000e+00 0.0000000e+00 0.0000000e+00 
0.0000000e+00 0.0000000e+00 0.0000000e+00 
0.0000000e+00 0.0000000e+00 0.0000000e+00 
0.0000000e+00 0.0000000e+00 0.0000000e+00 
0.0000000e+00 0.0000000e+00 0.0000000e+00 
0.0000000e+00 0.0000000e+00 0.0000000e+00 
0.0000000e+00 0.0000000e+00 0.0000000e+00 
0.0000000e+00 0.0000000e+00 0.0000000e+00 
0.0000000e+00 0.0000000e+00 0.0000000e+00 
0.0000000e+00 0.0000000e+00 0.0000000e+00 
0.0000000e+00 0.0000000e+00 0.0000000e+00 
0.0000000e+00 0.0000000e+00 0.0000000e+00 
0.0000000e+00 0.0000000e+00 0.0000000e+00 
0.0000000e+00 0.0000000e+00 0.0000000e+00 
0.0000000e+00 0.0000000e+00 0.0000000e+00 
0.0000000e+00 0.0000000e+00 0.0000000e+00 
0.0000000e+00 0.0000000e+00 0.0000000e+00 
0.0000000e+00 0.0000000e+00 0.0000000e+00 
0.0000000e+00 0.0000000e+00 0.0000000e+00 
0.0000000e+00 0.0000000e+00 0.0000000e+00 
0.0000000e+00 0.0000000e+00 0.0000000e+00 
0.0000000e+00 0.0000000e+00 0.0000000e+00 
0.0000000e+00 0.0000000e+00 0.0000000e+00 
0.0000000e+00 0.0000000e+00 0.0000000e+00 
0.0000000e+00 0.0000000e+00 0.0000000e+00 
0.0000000e+00 0.0000000e+00 0.0000000e+00 
0.0000000e+00 0.0000000e+00 0.0000000e+00 
0.0000000e+00 0.0000000e+00 0.0000000e+00 
0.0000000e+00 0.0000000e+00 0.0000000e+00 
0.0000000e+00 0.0000000e+00 0.0000000e+00 
0.0000000e+00 0.0000000e+00 0.0000000e+00 
0.0000000e+00 0.0000000e+00 0.0000000e+00 
0.0000000e+00 0.0000000e+00 0.0000000e+00 
0.0000000e+00 0.0000000e+00 0.0000000e+00 
0.0000000e+00 0.0000000e+00 0.0000000e+00 
0.0000000e+00 0.0000000e+00 0.0000000e+00 
0.0000000e+00 0.0000000e+00 0.0000000e+00 
0.0000000e+00 0.0000000e+00 0.0000000e+00 
0.0000000e+00 0.0000000e+00 0.0000000e+00 
0.0000000e+00 0.0000000e+00 0.0000000e+00 
0.0000000e+00 0.0000000e+00 0.0000000e+00 
0.0000000e+00 0.0000000e+00 0.0000000e+00 
-1.1412491e-06 6.5250305e-08 7.1121070e-07 
2.5694371e-05 -7.7807654e-06 4.6897026e-06 
2.1398318e-05 -8.6414320e-06 5.6336553e-06 
-3.0958720e-06 -1.0151373e-06 1.0276673e-06 
-3.8001663e-06 9.3887797e-07 4.0243103e-07 
-1.9284173e-06 1.8924235e-06 -1.4145669e-06 
7.5996904e-06 -6.8530603e-06 -6.2401004e-06 
2.6753863e-05 -1.0429710e-05 -1.8903398e-06 