# vtk DataFile Version 4.0
vtk output
ASCII
DATASET UNSTRUCTURED_GRID
POINTS 662 float
0.0000000e+00 0.0000000e+00 0.0000000e+00 
0.0000000e+00 0.0000000e+00 4.0000000e+01 
5.0000000e+00 0.0000000e+00 0.0000000e+00 
5.0000000e+00 0.0000000e+00 4.0000000e+01 
5.0000000e+00 1.0000000e+00 0.0000000e+00 
5.0000000e+00 1.0000000e+00 4.0000000e+01 
0.0000000e+00 1.0000000e+00 0.0000000e+00 
0.0000000e+00 1.0000000e+00 4.0000000e+01 
5.0000000e+00 2.0000000e+00 0.0000000e+00 
5.0000000e+00 2.0000000e+00 4.0000000e+01 
3.0000000e+00 2.0000000e+00 0.0000000e+00 
3.0000000e+00 2.0000000e+00 4.0000000e+01 
0.0000000e+00 2.0000000e+00 0.0000000e+00 
0.0000000e+00 2.0000000e+00 4.0000000e+01 
1.5000000e+00 3.0000000e+00 0.0000000e+00 
1.5000000e+00 3.0000000e+00 4.0000000e+01 
7.5000000e-01 3.0000000e+00 0.0000000e+00 
7.5000000e-01 3.0000000e+00 4.0000000e+01 
0.0000000e+00 3.0000000e+00 0.0000000e+00 
0.0000000e+00 3.0000000e+00 4.0000000e+01 
7.5000000e-01 3.0000000e+00 5.0000000e-01 
7.5000000e-01 3.0000000e+00 1.0000000e+00 
7.5000000e-01 3.0000000e+00 1.5000000e+00 
7.5000000e-01 3.0000000e+00 2.0000000e+00 
7.5000000e-01 3.0000000e+00 2.5000000e+00 
7.5000000e-01 3.0000000e+00 3.0000000e+00 
7.5000000e-01 3.0000000e+00 3.5000000e+00 
7.5000000e-01 3.0000000e+00 4.0000000e+00 
7.5000000e-01 3.0000000e+00 4.5000000e+00 
7.5000000e-01 3.0000000e+00 5.0000000e+00 
7.5000000e-01 3.0000000e+00 5.5000000e+00 
7.5000000e-01 3.0000000e+00 6.0000000e+00 
7.5000000e-01 3.0000000e+00 6.5000000e+00 
7.5000000e-01 3.0000000e+00 7.0000000e+00 
7.5000000e-01 3.0000000e+00 7.5000000e+00 
7.5000000e-01 3.0000000e+00 8.0000000e+00 
7.5000000e-01 3.0000000e+00 8.5000000e+00 
7.5000000e-01 3.0000000e+00 9.0000000e+00 
7.5000000e-01 3.0000000e+00 9.5000000e+00 
7.5000000e-01 3.0000000e+00 1.0000000e+01 
7.5000000e-01 3.0000000e+00 1.0500000e+01 
7.5000000e-01 3.0000000e+00 1.1000000e+01 
7.5000000e-01 3.0000000e+00 1.1500000e+01 
7.5000000e-01 3.0000000e+00 1.2000000e+01 
7.5000000e-01 3.0000000e+00 1.2500000e+01 
7.5000000e-01 3.0000000e+00 1.3000000e+01 
7.5000000e-01 3.0000000e+00 1.3500000e+01 
7.5000000e-01 3.0000000e+00 1.4000000e+01 
7.5000000e-01 3.0000000e+00 1.4500000e+01 
7.5000000e-01 3.0000000e+00 1.5000000e+01 
7.5000000e-01 3.0000000e+00 1.5500000e+01 
7.5000000e-01 3.0000000e+00 1.6000000e+01 
7.5000000e-01 3.0000000e+00 1.6500000e+01 
7.5000000e-01 3.0000000e+00 1.7000000e+01 
7.5000000e-01 3.0000000e+00 1.7500000e+01 
7.5000000e-01 3.0000000e+00 1.8000000e+01 
7.5000000e-01 3.0000000e+00 1.8500000e+01 
7.5000000e-01 3.0000000e+00 1.9000000e+01 
7.5000000e-01 3.0000000e+00 1.9500000e+01 
7.5000000e-01 3.0000000e+00 2.0000000e+01 
7.5000000e-01 3.0000000e+00 2.0500000e+01 
7.5000000e-01 3.0000000e+00 2.1000000e+01 
7.5000000e-01 3.0000000e+00 2.1500000e+01 
7.5000000e-01 3.0000000e+00 2.2000000e+01 
7.5000000e-01 3.0000000e+00 2.2500000e+01 
7.5000000e-01 3.0000000e+00 2.3000000e+01 
7.5000000e-01 3.0000000e+00 2.3500000e+01 
7.5000000e-01 3.0000000e+00 2.4000000e+01 
7.5000000e-01 3.0000000e+00 2.4500000e+01 
7.5000000e-01 3.0000000e+00 2.5000000e+01 
7.5000000e-01 3.0000000e+00 2.5500000e+01 
7.5000000e-01 3.0000000e+00 2.6000000e+01 
7.5000000e-01 3.0000000e+00 2.6500000e+01 
7.5000000e-01 3.0000000e+00 2.7000000e+01 
7.5000000e-01 3.0000000e+00 2.7500000e+01 
7.5000000e-01 3.0000000e+00 2.8000000e+01 
7.5000000e-01 3.0000000e+00 2.8500000e+01 
7.5000000e-01 3.0000000e+00 2.9000000e+01 
7.5000000e-01 3.0000000e+00 2.9500000e+01 
7.5000000e-01 3.0000000e+00 3.0000000e+01 
7.5000000e-01 3.0000000e+00 3.0500000e+01 
7.5000000e-01 3.0000000e+00 3.1000000e+01 
7.5000000e-01 3.0000000e+00 3.1500000e+01 
7.5000000e-01 3.0000000e+00 3.2000000e+01 
7.5000000e-01 3.0000000e+00 3.2500000e+01 
7.5000000e-01 3.0000000e+00 3.3000000e+01 
7.5000000e-01 3.0000000e+00 3.3500000e+01 
7.5000000e-01 3.0000000e+00 3.4000000e+01 
7.5000000e-01 3.0000000e+00 3.4500000e+01 
7.5000000e-01 3.0000000e+00 3.5000000e+01 
7.5000000e-01 3.0000000e+00 3.5500000e+01 
7.5000000e-01 3.0000000e+00 3.6000000e+01 
7.5000000e-01 3.0000000e+00 3.6500000e+01 
7.5000000e-01 3.0000000e+00 3.7000000e+01 
7.5000000e-01 3.0000000e+00 3.7500000e+01 
7.5000000e-01 3.0000000e+00 3.8000000e+01 
7.5000000e-01 3.0000000e+00 3.8500000e+01 
7.5000000e-01 3.0000000e+00 3.9000000e+01 
7.5000000e-01 3.0000000e+00 3.9500000e+01 
7.5000000e-01 3.0000000e+00 4.0500000e+01 
7.5000000e-01 3.0000000e+00 4.1000000e+01 
7.5000000e-01 3.0000000e+00 4.1500000e+01 
7.5000000e-01 3.0000000e+00 4.2000000e+01 
7.5000000e-01 3.0000000e+00 4.2500000e+01 
7.5000000e-01 3.0000000e+00 4.3000000e+01 
7.5000000e-01 3.0000000e+00 4.3500000e+01 
7.5000000e-01 3.0000000e+00 4.4000000e+01 
7.5000000e-01 3.0000000e+00 4.4500000e+01 
7.5000000e-01 3.0000000e+00 4.5000000e+01 
7.5000000e-01 3.0000000e+00 4.5500000e+01 
7.5000000e-01 3.0000000e+00 4.6000000e+01 
7.5000000e-01 3.0000000e+00 4.6500000e+01 
7.5000000e-01 3.0000000e+00 4.7000000e+01 
7.5000000e-01 3.0000000e+00 4.7500000e+01 
7.5000000e-01 3.0000000e+00 4.8000000e+01 
7.5000000e-01 3.0000000e+00 4.8500000e+01 
7.5000000e-01 3.0000000e+00 4.9000000e+01 
7.5000000e-01 3.0000000e+00 4.9500000e+01 
7.5000000e-01 3.0000000e+00 5.0000000e+01 
7.5000000e-01 3.0250001e+00 0.0000000e+00 
7.5000000e-01 3.0250001e+00 5.0000000e-01 
7.5000000e-01 3.0250001e+00 1.0000000e+00 
7.5000000e-01 3.0250001e+00 1.5000000e+00 
7.5000000e-01 3.0250001e+00 2.0000000e+00 
7.5000000e-01 3.0250001e+00 2.5000000e+00 
7.5000000e-01 3.0250001e+00 3.0000000e+00 
7.5000000e-01 3.0250001e+00 3.5000000e+00 
7.5000000e-01 3.0250001e+00 4.0000000e+00 
7.5000000e-01 3.0250001e+00 4.5000000e+00 
7.5000000e-01 3.0250001e+00 5.0000000e+00 
7.5000000e-01 3.0250001e+00 5.5000000e+00 
7.5000000e-01 3.0250001e+00 6.0000000e+00 
7.5000000e-01 3.0250001e+00 6.5000000e+00 
7.5000000e-01 3.0250001e+00 7.0000000e+00 
7.5000000e-01 3.0250001e+00 7.5000000e+00 
7.5000000e-01 3.0250001e+00 8.0000000e+00 
7.5000000e-01 3.0250001e+00 8.5000000e+00 
7.5000000e-01 3.0250001e+00 9.0000000e+00 
7.5000000e-01 3.0250001e+00 9.5000000e+00 
7.5000000e-01 3.0250001e+00 1.0000000e+01 
7.5000000e-01 3.0250001e+00 1.0500000e+01 
7.5000000e-01 3.0250001e+00 1.1000000e+01 
7.5000000e-01 3.0250001e+00 1.1500000e+01 
7.5000000e-01 3.0250001e+00 1.2000000e+01 
7.5000000e-01 3.0250001e+00 1.2500000e+01 
7.5000000e-01 3.0250001e+00 1.3000000e+01 
7.5000000e-01 3.0250001e+00 1.3500000e+01 
7.5000000e-01 3.0250001e+00 1.4000000e+01 
7.5000000e-01 3.0250001e+00 1.4500000e+01 
7.5000000e-01 3.0250001e+00 1.5000000e+01 
7.5000000e-01 3.0250001e+00 1.5500000e+01 
7.5000000e-01 3.0250001e+00 1.6000000e+01 
7.5000000e-01 3.0250001e+00 1.6500000e+01 
7.5000000e-01 3.0250001e+00 1.7000000e+01 
7.5000000e-01 3.0250001e+00 1.7500000e+01 
7.5000000e-01 3.0250001e+00 1.8000000e+01 
7.5000000e-01 3.0250001e+00 1.8500000e+01 
7.5000000e-01 3.0250001e+00 1.9000000e+01 
7.5000000e-01 3.0250001e+00 1.9500000e+01 
7.5000000e-01 3.0250001e+00 2.0000000e+01 
7.5000000e-01 3.0250001e+00 2.0500000e+01 
7.5000000e-01 3.0250001e+00 2.1000000e+01 
7.5000000e-01 3.0250001e+00 2.1500000e+01 
7.5000000e-01 3.0250001e+00 2.2000000e+01 
7.5000000e-01 3.0250001e+00 2.2500000e+01 
7.5000000e-01 3.0250001e+00 2.3000000e+01 
7.5000000e-01 3.0250001e+00 2.3500000e+01 
7.5000000e-01 3.0250001e+00 2.4000000e+01 
7.5000000e-01 3.0250001e+00 2.4500000e+01 
7.5000000e-01 3.0250001e+00 2.5000000e+01 
7.5000000e-01 3.0250001e+00 2.5500000e+01 
7.5000000e-01 3.0250001e+00 2.6000000e+01 
7.5000000e-01 3.0250001e+00 2.6500000e+01 
7.5000000e-01 3.0250001e+00 2.7000000e+01 
7.5000000e-01 3.0250001e+00 2.7500000e+01 
7.5000000e-01 3.0250001e+00 2.8000000e+01 
7.5000000e-01 3.0250001e+00 2.8500000e+01 
7.5000000e-01 3.0250001e+00 2.9000000e+01 
7.5000000e-01 3.0250001e+00 2.9500000e+01 
7.5000000e-01 3.0250001e+00 3.0000000e+01 
7.5000000e-01 3.0250001e+00 3.0500000e+01 
7.5000000e-01 3.0250001e+00 3.1000000e+01 
7.5000000e-01 3.0250001e+00 3.1500000e+01 
7.5000000e-01 3.0250001e+00 3.2000000e+01 
7.5000000e-01 3.0250001e+00 3.2500000e+01 
7.5000000e-01 3.0250001e+00 3.3000000e+01 
7.5000000e-01 3.0250001e+00 3.3500000e+01 
7.5000000e-01 3.0250001e+00 3.4000000e+01 
7.5000000e-01 3.0250001e+00 3.4500000e+01 
7.5000000e-01 3.0250001e+00 3.5000000e+01 
7.5000000e-01 3.0250001e+00 3.5500000e+01 
7.5000000e-01 3.0250001e+00 3.6000000e+01 
7.5000000e-01 3.0250001e+00 3.6500000e+01 
7.5000000e-01 3.0250001e+00 3.7000000e+01 
7.5000000e-01 3.0250001e+00 3.7500000e+01 
7.5000000e-01 3.0250001e+00 3.8000000e+01 
7.5000000e-01 3.0250001e+00 3.8500000e+01 
7.5000000e-01 3.0250001e+00 3.9000000e+01 
7.5000000e-01 3.0250001e+00 3.9500000e+01 
7.5000000e-01 3.0250001e+00 4.0000000e+01 
7.5000000e-01 3.0250001e+00 4.0500000e+01 
7.5000000e-01 3.0250001e+00 4.1000000e+01 
7.5000000e-01 3.0250001e+00 4.1500000e+01 
7.5000000e-01 3.0250001e+00 4.2000000e+01 
7.5000000e-01 3.0250001e+00 4.2500000e+01 
7.5000000e-01 3.0250001e+00 4.3000000e+01 
7.5000000e-01 3.0250001e+00 4.3500000e+01 
7.5000000e-01 3.0250001e+00 4.4000000e+01 
7.5000000e-01 3.0250001e+00 4.4500000e+01 
7.5000000e-01 3.0250001e+00 4.5000000e+01 
7.5000000e-01 3.0250001e+00 4.5500000e+01 
7.5000000e-01 3.0250001e+00 4.6000000e+01 
7.5000000e-01 3.0250001e+00 4.6500000e+01 
7.5000000e-01 3.0250001e+00 4.7000000e+01 
7.5000000e-01 3.0250001e+00 4.7500000e+01 
7.5000000e-01 3.0250001e+00 4.8000000e+01 
7.5000000e-01 3.0250001e+00 4.8500000e+01 
7.5000000e-01 3.0250001e+00 4.9000000e+01 
7.5000000e-01 3.0250001e+00 4.9500000e+01 
7.5000000e-01 3.0250001e+00 5.0000000e+01 
7.5000000e-01 3.0250001e+00 3.5750000e+01 
3.0000000e+00 2.0000000e+00 3.6000000e+01 
8.0487806e-01 3.0000000e+00 3.6000000e+01 
0.0000000e+00 0.0000000e+00 2.0000000e+00 
0.0000000e+00 0.0000000e+00 4.0000000e+00 
0.0000000e+00 0.0000000e+00 6.0000000e+00 
0.0000000e+00 0.0000000e+00 8.0000000e+00 
0.0000000e+00 0.0000000e+00 1.0000000e+01 
0.0000000e+00 0.0000000e+00 1.2000000e+01 
0.0000000e+00 0.0000000e+00 1.4000000e+01 
[...]
POINT_DATA 662
FIELD FieldData 3
DISPLACEMENT 3 662  float
0.0000000e+00 0.0000000e+00 0.0000000e+00 
0.0000000e+00 0.0000000e+00 0.0000000e+00 
0.0000000e+00 0.0000000e+00 0.0000000e+00 
0.0000000e+00 0.0000000e+00 0.0000000e+00 
4.5509018e-06 -5.7068969e-06 -1.6882993e-06 
3.8860665e-07 8.9901255e-07 1.5639993e-06 
0.0000000e+00 -2.5567558e-06 0.0000000e+00 
0.0000000e+00 -1.1480520e-05 0.0000000e+00 
-1.2288832e-07 -5.8965265e-06 -4.3909686e-06 
-2.6965445e-06 2.4626313e-06 -1.4031020e-06 
-4.2764140e-07 -2.3478675e-05 -2.6529449e-05 
-1.4700242e-06 -3.0362858e-06 -6.3888456e-06 
0.0000000e+00 -3.7472373e-06 0.0000000e+00 
0.0000000e+00 -1.9436115e-05 0.0000000e+00 
-2.1697072e-06 -2.0647702e-05 -9.7878779e-05 
-1.2586885e-05 -1.6866066e-05 -2.8381459e-05 
-9.7307557e-06 3.8602895e-05 -5.1090457e-05 
3.1595221e-06 -3.3916531e-05 -4.0356917e-05 
0.0000000e+00 -7.6986234e-06 0.0000000e+00 
0.0000000e+00 -2.5698600e-05 0.0000000e+00 
2.2718752e-05 4.5408200e-05 -7.1108851e-05 
3.5665325e-05 6.3217616e-05 -5.6058470e-05 
4.2035037e-05 8.6074630e-05 -4.7805566e-05 
4.5957004e-05 1.1239279e-04 -3.1871285e-05 
4.8608181e-05 1.4034566e-04 -6.6496336e-06 
4.4559180e-05 1.6468766e-04 9.3082099e-06 
3.0685173e-05 1.7415777e-04 3.1195144e-05 
2.0272113e-05 1.3875513e-04 5.1237635e-05 
-1.2134652e-05 1.6734077e-05 8.8603316e-05 
-2.3138608e-05 -2.3206511e-04 1.2496473e-04 
-5.7211088e-05 -6.6812895e-04 1.7196339e-04 
-1.1336742e-04 -1.3328547e-03 1.1461668e-04 
-2.5013665e-04 -2.2440492e-03 1.9195925e-04 
-2.5145840e-04 -3.2311152e-03 1.7442608e-04 
-1.3603229e-04 -3.9998898e-03 1.0475106e-04 
-1.0075770e-04 -4.0159398e-03 1.0335047e-04 
-2.4352995e-04 -3.8424067e-03 3.4337580e-05 
-3.1531396e-04 -3.8383706e-03 1.2447406e-05 
-2.0271896e-04 -4.1067642e-03 -2.9043911e-05 
-4.7675734e-05 -4.1418076e-03 -7.8825193e-05 
-8.1853694e-05 -3.4512961e-03 -1.5864820e-04 
-1.8124402e-04 -2.4193584e-03 -1.7196411e-04 
-1.9042718e-04 -1.5158869e-03 -1.5004275e-04 
-8.0244674e-05 -8.2731177e-04 -7.9446305e-05 
-4.3985016e-05 -3.9182388e-04 -1.1186933e-04 
-3.0144240e-05 -1.4642476e-04 -7.9416772e-05 
-3.0008323e-05 -2.9991224e-05 -5.9188398e-05 
-2.0667350e-05 8.0975187e-06 -4.2188367e-05 
-1.2142681e-05 1.3659152e-06 -2.6486512e-05 
-4.0418845e-06 -2.5237312e-05 -1.6033931e-05 
-2.8439138e-06 -5.4415243e-05 -1.5324356e-05 
-9.6479453e-06 -7.9053636e-05 -1.2980670e-05 
-1.2831481e-05 -9.5423115e-05 6.7584647e-06 
-1.5114845e-05 -1.0541428e-04 2.6253445e-05 
-3.3380660e-05 -1.1238856e-04 5.8429447e-05 
-5.1629053e-05 -1.1633354e-04 8.3034276e-05 
-5.1583025e-05 -1.1594396e-04 6.1644932e-05 
-5.4791399e-05 -1.1073202e-04 2.8165383e-05 
-3.9037011e-05 -9.9123376e-05 -1.6060796e-05 
-1.6183993e-05 -7.9625665e-05 -6.1871222e-05 
3.2615378e-06 -4.9013117e-05 -7.6191915e-05 
1.7282318e-05 -1.0009653e-05 -7.6296761e-05 
3.2287524e-05 3.5952544e-05 -7.8525569e-05 
4.1778520e-05 8.4685016e-05 -6.7247325e-05 
5.0562154e-05 1.3118111e-04 -4.4404376e-05 
5.4366054e-05 1.6845102e-04 -1.8092413e-05 
4.2117139e-05 1.8351876e-04 9.8903956e-06 
3.0215915e-05 1.4685460e-04 3.7273890e-05 
-1.2278775e-05 1.3360715e-05 6.8678331e-05 
-2.1193362e-05 -2.6117705e-04 9.9872886e-05 
-3.5830490e-05 -7.4182614e-04 1.3693512e-04 
-8.3085397e-05 -1.4639474e-03 6.8870773e-05 
-2.2797495e-04 -2.4317063e-03 1.6864898e-04 
-2.3225449e-04 -3.4280219e-03 1.6797065e-04 
-1.3367503e-04 -4.0892176e-03 1.3717810e-04 
-1.0249454e-04 -4.0140976e-03 1.8554894e-04 
-2.5262136e-04 -3.8703070e-03 1.3058702e-04 
-3.2096150e-04 -3.9360137e-03 1.1271005e-04 
-2.1279448e-04 -4.2380984e-03 7.3688432e-05 
-7.6888922e-05 -4.1731154e-03 4.0945899e-05 
-1.2368674e-04 -3.3875827e-03 -1.0125559e-04 
-2.2995936e-04 -2.3589779e-03 -1.6182731e-04 
-2.2253540e-04 -1.4823580e-03 -1.8945652e-04 
-1.0250744e-04 -8.1689632e-04 -1.6620362e-04 
-5.5606666e-05 -3.8471445e-04 -2.1036895e-04 
-3.1117372e-05 -1.2561448e-04 -1.8227445e-04 
-1.9129957e-05 1.7067903e-05 -1.6854986e-04 
3.0161209e-06 8.7820597e-05 -1.4467479e-04 
2.5403229e-05 1.1357087e-04 -9.5531534e-05 
4.3054413e-05 1.1536755e-04 -4.5180717e-05 
3.5348130e-05 1.0485459e-04 -6.7202855e-06 
2.5263542e-05 8.6523440e-05 2.9790453e-05 
1.9518180e-05 6.2247869e-05 5.0534014e-05 
1.3676954e-05 3.5420551e-05 6.0233684e-05 
3.2368494e-06 9.3630388e-06 6.8743298e-05 
-7.8497696e-06 -1.1917362e-05 6.2215033e-05 
-9.2214577e-06 -2.6582686e-05 4.3940727e-05 
-1.3309018e-05 -3.4663437e-05 1.8838420e-05 
-9.6973736e-06 -3.6950543e-05 -6.4053265e-06 
0.0000000e+00 -2.6835200e-05 0.0000000e+00 
0.0000000e+00 -1.5463120e-05 0.0000000e+00 
0.0000000e+00 -1.1969915e-06 0.0000000e+00 
0.0000000e+00 1.3586702e-05 0.0000000e+00 
0.0000000e+00 2.6016542e-05 0.0000000e+00 
0.0000000e+00 3.3484779e-05 0.0000000e+00 
0.0000000e+00 3.4351866e-05 0.0000000e+00 
0.0000000e+00 2.8401822e-05 0.0000000e+00 
0.0000000e+00 1.6864000e-05 0.0000000e+00 
0.0000000e+00 2.0007251e-06 0.0000000e+00 
0.0000000e+00 -1.3478126e-05 0.0000000e+00 
0.0000000e+00 -2.6850619e-05 0.0000000e+00 
0.0000000e+00 -3.5594483e-05 0.0000000e+00 
0.0000000e+00 -3.7614955e-05 0.0000000e+00 
0.0000000e+00 -3.1746778e-05 0.0000000e+00 
0.0000000e+00 -1.8450062e-05 0.0000000e+00 
0.0000000e+00 -2.5465155e-07 0.0000000e+00 
0.0000000e+00 1.8507480e-05 0.0000000e+00 
0.0000000e+00 3.2764819e-05 0.0000000e+00 
0.0000000e+00 3.8177797e-05 0.0000000e+00 
0.0000000e+00 3.8812344e-05 0.0000000e+00 
0.0000000e+00 4.5576537e-05 0.0000000e+00 
0.0000000e+00 6.3001840e-05 0.0000000e+00 
0.0000000e+00 8.6053813e-05 0.0000000e+00 
0.0000000e+00 1.1252949e-04 0.0000000e+00 
0.0000000e+00 1.4067390e-04 0.0000000e+00 
0.0000000e+00 1.6574128e-04 0.0000000e+00 
0.0000000e+00 1.7482042e-04 0.0000000e+00 
0.0000000e+00 1.3879525e-04 0.0000000e+00 
0.0000000e+00 1.7848384e-05 0.0000000e+00 
0.0000000e+00 -2.3271856e-04 0.0000000e+00 
0.0000000e+00 -6.6959538e-04 0.0000000e+00 
0.0000000e+00 -1.3418751e-03 0.0000000e+00 
0.0000000e+00 -2.2515166e-03 0.0000000e+00 
0.0000000e+00 -3.2626903e-03 0.0000000e+00 
0.0000000e+00 -4.0237000e-03 0.0000000e+00 
0.0000000e+00 -4.0465030e-03 0.0000000e+00 
0.0000000e+00 -3.8561928e-03 0.0000000e+00 
0.0000000e+00 -3.8690264e-03 0.0000000e+00 
0.0000000e+00 -4.1267737e-03 0.0000000e+00 
0.0000000e+00 -4.1764546e-03 0.0000000e+00 
0.0000000e+00 -3.4694928e-03 0.0000000e+00 
0.0000000e+00 -2.4379606e-03 0.0000000e+00 
0.0000000e+00 -1.5181542e-03 0.0000000e+00 
0.0000000e+00 -8.3165138e-04 0.0000000e+00 
0.0000000e+00 -3.9168203e-04 0.0000000e+00 
0.0000000e+00 -1.4551693e-04 0.0000000e+00 
0.0000000e+00 -2.9027744e-05 0.0000000e+00 
0.0000000e+00 8.5071079e-06 0.0000000e+00 
0.0000000e+00 1.7387561e-06 0.0000000e+00 
0.0000000e+00 -2.4721507e-05 0.0000000e+00 
0.0000000e+00 -5.4237436e-05 0.0000000e+00 
0.0000000e+00 -7.8790756e-05 0.0000000e+00 
0.0000000e+00 -9.5364754e-05 0.0000000e+00 
0.0000000e+00 -1.0561035e-04 0.0000000e+00 
0.0000000e+00 -1.1248548e-04 0.0000000e+00 
0.0000000e+00 -1.1632668e-04 0.0000000e+00 
0.0000000e+00 -1.1602928e-04 0.0000000e+00 
0.0000000e+00 -1.1074227e-04 0.0000000e+00 
0.0000000e+00 -9.9188335e-05 0.0000000e+00 
0.0000000e+00 -7.9305290e-05 0.0000000e+00 
0.0000000e+00 -4.9065067e-05 0.0000000e+00 
0.0000000e+00 -9.8880282e-06 0.0000000e+00 
0.0000000e+00 3.5986213e-05 0.0000000e+00 
0.0000000e+00 8.4727581e-05 0.0000000e+00 
0.0000000e+00 1.3149875e-04 0.0000000e+00 
0.0000000e+00 1.6937728e-04 0.0000000e+00 
0.0000000e+00 1.8437252e-04 0.0000000e+00 
0.0000000e+00 1.4700805e-04 0.0000000e+00 
0.0000000e+00 1.4518880e-05 0.0000000e+00 
0.0000000e+00 -2.6235665e-04 0.0000000e+00 
0.0000000e+00 -7.4375892e-04 0.0000000e+00 
0.0000000e+00 -1.4746317e-03 0.0000000e+00 
0.0000000e+00 -2.4407436e-03 0.0000000e+00 
0.0000000e+00 -3.4632473e-03 0.0000000e+00 
0.0000000e+00 -4.1133235e-03 0.0000000e+00 
0.0000000e+00 -4.0442375e-03 0.0000000e+00 
0.0000000e+00 -3.8838550e-03 0.0000000e+00 
0.0000000e+00 -3.9681490e-03 0.0000000e+00 
0.0000000e+00 -4.2597130e-03 0.0000000e+00 
0.0000000e+00 -4.2071668e-03 0.0000000e+00 
0.0000000e+00 -3.4040257e-03 0.0000000e+00 
0.0000000e+00 -2.3751305e-03 0.0000000e+00 
0.0000000e+00 -1.4840679e-03 0.0000000e+00 
0.0000000e+00 -8.2035264e-04 0.0000000e+00 
0.0000000e+00 -3.8449152e-04 0.0000000e+00 
0.0000000e+00 -1.2470875e-04 0.0000000e+00 
0.0000000e+00 1.8030551e-05 0.0000000e+00 
0.0000000e+00 8.8155830e-05 0.0000000e+00 
0.0000000e+00 1.1407106e-04 0.0000000e+00 
0.0000000e+00 1.1574500e-04 0.0000000e+00 
0.0000000e+00 1.0497519e-04 0.0000000e+00 
0.0000000e+00 8.6436768e-05 0.0000000e+00 
0.0000000e+00 6.2240957e-05 0.0000000e+00 
0.0000000e+00 3.5415731e-05 0.0000000e+00 
0.0000000e+00 9.4945126e-06 0.0000000e+00 
0.0000000e+00 -1.1821839e-05 0.0000000e+00 
0.0000000e+00 -2.6563604e-05 0.0000000e+00 
0.0000000e+00 -3.4690231e-05 0.0000000e+00 
0.0000000e+00 -3.6935169e-05 0.0000000e+00 
0.0000000e+00 -3.4021381e-05 0.0000000e+00 
0.0000000e+00 -2.6770107e-05 0.0000000e+00 
0.0000000e+00 -1.5407772e-05 0.0000000e+00 
0.0000000e+00 -1.1675966e-06 0.0000000e+00 
0.0000000e+00 1.3578708e-05 0.0000000e+00 
0.0000000e+00 2.5970197e-05 0.0000000e+00 
0.0000000e+00 3.3414653e-05 0.0000000e+00 
0.0000000e+00 3.4284374e-05 0.0000000e+00 
0.0000000e+00 2.8360195e-05 0.0000000e+00 
0.0000000e+00 1.6853166e-05 0.0000000e+00 
0.0000000e+00 2.0074065e-06 0.0000000e+00 
0.0000000e+00 -1.3468638e-05 0.0000000e+00 
0.0000000e+00 -2.6837337e-05 0.0000000e+00 
0.0000000e+00 -3.5561130e-05 0.0000000e+00 
0.0000000e+00 -3.7548423e-05 0.0000000e+00 
0.0000000e+00 -3.1655982e-05 0.0000000e+00 
0.0000000e+00 -1.8367295e-05 0.0000000e+00 
0.0000000e+00 -2.1791737e-07 0.0000000e+00 
0.0000000e+00 1.8477076e-05 0.0000000e+00 
0.0000000e+00 3.2675514e-05 0.0000000e+00 
0.0000000e+00 3.8064769e-05 0.0000000e+00 
0.0000000e+00 9.6598807e-05 0.0000000e+00 
3.3592398e-06 2.6845219e-05 3.2849603e-06 
2.6003281e-05 8.7643493e-05 2.9848778e-05 
0.0000000e+00 0.0000000e+00 0.0000000e+00 
0.0000000e+00 0.0000000e+00 0.0000000e+00 
0.0000000e+00 0.0000000e+00 0.0000000e+00 
0.0000000e+00 0.0000000e+00 0.0000000e+00 
0.0000000e+00 0.0000000e+00 0.0000000e+00 
0.0000000e+00 0.0000000e+00 0.0000000e+00 
0.0000000e+00 0.0000000e+00 0.0000000e+00 
0.0000000e+00 0.0000000e+00 0.0000000e+00 
0.0000000e+00 0.0000000e+00 0.0000000e+00 
0.0000000e+00 0.0000000e+00 0.0000000e+00 
0.0000000e+00 0.0000000e+00 0.0000000e+00 
0.0000000e+00 0.0000000e+00 0.0000000e+00 
0.0000000e+00 0.0000000e+00 0.0000000e+00 
0.0000000e+00 0.0000000e+00 0.0000000e+00 
0.0000000e+00 0.0000000e+00 0.0000000e+00 
0.0000000e+00 0.0000000e+00 0.0000000e+00 
0.0000000e+00 0.0000000e+00 0.0000000e+00 
0.0000000e+00 0.0000000e+00 0.0000000e+00 
0.0000000e+00 0.0000000e+00 0.0000000e+00 
0.0000000e+00 0.0000000e+00 0.0000000e+00 
0.0000000e+00 0.0000000e+00 0.0000000e+00 
0.0000000e+00 0.0000000e+00 0.0000000e+00 
0.0000000e+00 0.0000000e+00 0.0000000e+00 
0.0000000e+00 0.0000000e+00 0.0000000e+00 
0.0000000e+00 0.0000000e+00 0.0000000e+00 
0.0000000e+00 0.0000000e+00 0.0000000e+00 
0.0000000e+00 0.0000000e+00 0.0000000e+00 
0.0000000e+00 0.0000000e+00 0.0000000e+00 
0.0000000e+00 0.0000000e+00 0.0000000e+00 
0.0000000e+00 0.0000000e+00 0.0000000e+00 
0.0000000e+00 0.0000000e+00 0.0000000e+00 
0.0000000e+00 0.0000000e+00 0.0000000e+00 
0.0000000e+00 0.0000000e+00 0.0000000e+00 
0.0000000e+00 0.0000000e+00 0.0000000e+00 
0.0000000e+00 0.0000000e+00 0.0000000e+00 
0.0000000e+00 0.0000000e+00 0.0000000e+00 
0.0000000e+00 0.0000000e+00 0.0000000e+00 
0.0000000e+00 0.0000000e+00 0.0000000e+00 
0.0000000e+00 0.0000000e+00 0.0000000e+00 
0.0000000e+00 0.0000000e+00 0.0000000e+00 
0.0000000e+00 0.0000000e+00 0.0000000e+00 
0.0000000e+00 0.0000000e+00 0.0000000e+00 
-2.2232866e-06 -2.8518980e-06 -4.9885016e-06 
7.6816759e-06 9.4394278e-07 -1.1164746e-05 
3.0735402e-05 -3.3081271e-06 -1.3976317e-05 
4.5435467e-05 -1.3700009e-05 -7.6024294e-06 
4.5242185e-05 -8.8658080e-06 1.8057824e-06 
1.8915427e-05 -7.8620201e-07 -2.0819950e-06 
5.3433951e-06 2.3866830e-06 4.1240701e-06 
5.6144513e-06 1.1332692e-06 7.7989425e-06 
2.8864392e-06 -5.6776571e-06 4.8854909e-06 
-2.0794662e-06 -5.0727635e-06 2.2577701e-06 
-4.6014284e-06 3.4528530e-06 -1.3253726e-06 
7.4074110e-06 -2.3640225e-06 -6.6472930e-06 
2.8131344e-05 -5.7131047e-06 -6.9616831e-06 
4.8684822e-05 -8.9183568e-06 -2.9824039e-06 
4.7350310e-05 -1.2643928e-05 3.7045709e-06 
2.1236185e-05 -5.5605565e-06 4.0786394e-06 
1.2990857e-06 6.3231082e-06 8.8703446e-06 
-2.8367892e-06 2.7140015e-06 4.6622959e-06 
2.0164075e-06 -4.7136891e-06 2.6538901e-06 
0.0000000e+00 4.2741412e-05 0.0000000e+00 
0.0000000e+00 3.2541160e-05 0.0000000e+00 
0.0000000e+00 -1.8722304e-04 0.0000000e+00 
0.0000000e+00 -5.1344599e-04 0.0000000e+00 
0.0000000e+00 -4.7666952e-04 0.0000000e+00 
0.0000000e+00 -1.6111815e-04 0.0000000e+00 
0.0000000e+00 -2.9415713e-05 0.0000000e+00 
0.0000000e+00 -3.2804361e-05 0.0000000e+00 
0.0000000e+00 -4.1083866e-05 0.0000000e+00 
0.0000000e+00 -3.9525301e-05 0.0000000e+00 
0.0000000e+00 3.0340118e-05 0.0000000e+00 
0.0000000e+00 3.2942979e-05 0.0000000e+00 
0.0000000e+00 -1.8571632e-04 0.0000000e+00 
0.0000000e+00 -4.9665081e-04 0.0000000e+00 
0.0000000e+00 -5.1071303e-04 0.0000000e+00 
0.0000000e+00 -1.8692388e-04 0.0000000e+00 
0.0000000e+00 1.0723990e-05 0.0000000e+00 
0.0000000e+00 3.7681079e-05 0.0000000e+00 
0.0000000e+00 -1.0167792e-05 0.0000000e+00 
6.9922862e-07 -1.2584936e-05 -6.7387818e-06 
-3.9636557e-06 -1.5435731e-05 -8.1329554e-06 
4.5076044e-07 -1.0548454e-06 -2.5018171e-06 
1.4555729e-06 -8.4230496e-06 1.4411343e-06 
3.8341495e-06 -2.5980121e-06 -1.0770080e-05 
2.0269505e-05 9.8462556e-07 -1.7893019e-05 
3.8349324e-05 9.0306077e-07 -6.0503480e-06 
4.9059265e-05 -2.3005271e-06 -5.0555009e-06 
3.3775865e-05 -8.5786924e-06 -1.1318631e-06 
1.1472261e-05 1.5329651e-06 -1.0564787e-05 
1.7856711e-06 3.5594655e-06 4.0996733e-06 
5.2425598e-06 -7.0384675e-07 1.2128986e-05 
-1.1969624e-06 -7.9362044e-06 9.2450809e-06 
-9.0527228e-06 -5.3024532e-06 -1.8518604e-06 
-2.0554080e-06 4.3188761e-06 -8.5970487e-06 
2.3745566e-05 -3.2157795e-06 -8.1896469e-06 
3.0942523e-05 -3.2912496e-06 -1.5805880e-07 
3.9950519e-05 -8.4484773e-06 4.6021746e-06 
2.5898275e-05 -1.0249766e-05 5.0313088e-06 
4.6336222e-06 -1.5355652e-06 -7.7198811e-06 
3.4684567e-06 6.7449664e-06 2.8672246e-06 
2.0689265e-06 6.4569866e-07 7.1246741e-06 
3.4997508e-06 -4.1647886e-06 5.0153844e-06 
1.2332052e-06 -1.3339068e-05 -3.0777916e-05 
0.0000000e+00 8.0853271e-05 0.0000000e+00 
0.0000000e+00 6.8700952e-05 0.0000000e+00 
0.0000000e+00 -4.0243074e-04 0.0000000e+00 
0.0000000e+00 -1.1435953e-03 0.0000000e+00 
0.0000000e+00 -1.0814333e-03 0.0000000e+00 
0.0000000e+00 -3.0214287e-04 0.0000000e+00 
0.0000000e+00 -3.6247457e-05 0.0000000e+00 
0.0000000e+00 -5.9476541e-05 0.0000000e+00 
0.0000000e+00 -7.1260503e-05 0.0000000e+00 
0.0000000e+00 -6.8738198e-05 0.0000000e+00 
0.0000000e+00 5.7895581e-05 0.0000000e+00 
0.0000000e+00 6.9270522e-05 0.0000000e+00 
0.0000000e+00 -4.1662762e-04 0.0000000e+00 
0.0000000e+00 -1.1260592e-03 0.0000000e+00 
0.0000000e+00 -1.1347627e-03 0.0000000e+00 
0.0000000e+00 -3.4071453e-04 0.0000000e+00 
0.0000000e+00 2.6832740e-05 0.0000000e+00 
0.0000000e+00 6.2897729e-05 0.0000000e+00 
0.0000000e+00 -1.5972057e-05 0.0000000e+00 
-3.0697890e-06 -1.3493094e-05 1.2481717e-06 
6.5758119e-05 7.4308089e-05 -2.8413318e-05 
4.9962789e-05 1.1906560e-04 6.9825379e-05 
-2.6101575e-04 -3.9175400e-04 3.2110783e-04 
-6.4233312e-04 -1.2916245e-03 1.0511623e-04 
-5.8017921e-04 -1.3983874e-03 -1.8005824e-04 
-1.7401189e-04 -2.3056241e-04 -2.0987552e-04 
2.4484868e-06 -1.5945421e-05 -4.9270788e-05 
-2.1367290e-05 -5.5087618e-05 -1.8839284e-05 
-7.1713825e-05 -8.2245409e-05 9.7757067e-05 
-2.2961311e-05 -5.9342634e-05 -9.6132688e-05 
5.8382266e-05 3.5673569e-05 -9.1229173e-05 
5.7800004e-05 1.5043344e-04 7.1848684e-05 
-2.4855533e-04 -4.0169471e-04 2.7335912e-04 
-6.4131321e-04 -1.2501265e-03 1.8099522e-04 
-6.1935803e-04 -1.4374105e-03 -3.8864884e-05 
-1.8175672e-04 -2.8234452e-04 -3.0478797e-04 
2.6500478e-05 4.8355239e-05 -1.7775540e-04 
3.1667227e-05 6.4087471e-05 4.0563824e-05 
-2.7219576e-06 -1.1570749e-05 7.5539305e-05 
0.0000000e+00 1.0483833e-04 0.0000000e+00 
0.0000000e+00 1.3268163e-04 0.0000000e+00 
0.0000000e+00 -7.7305711e-04 0.0000000e+00 
0.0000000e+00 -2.2515424e-03 0.0000000e+00 
0.0000000e+00 -2.1100300e-03 0.0000000e+00 
0.0000000e+00 -5.1085785e-04 0.0000000e+00 
0.0000000e+00 -4.0735468e-08 0.0000000e+00 
0.0000000e+00 -8.8009787e-05 0.0000000e+00 
0.0000000e+00 -8.3535677e-05 0.0000000e+00 
0.0000000e+00 -8.1904967e-05 0.0000000e+00 
0.0000000e+00 6.9731097e-05 0.0000000e+00 
0.0000000e+00 1.3557114e-04 0.0000000e+00 
0.0000000e+00 -8.4600219e-04 0.0000000e+00 
0.0000000e+00 -2.2731519e-03 0.0000000e+00 
0.0000000e+00 -2.1567852e-03 0.0000000e+00 
0.0000000e+00 -5.2900467e-04 0.0000000e+00 
0.0000000e+00 6.8453242e-05 0.0000000e+00 
0.0000000e+00 7.8894067e-05 0.0000000e+00 
0.0000000e+00 -1.7326438e-05 0.0000000e+00 
1.0165709e-05 1.9299579e-05 -1.5699861e-05 
2.9678326e-05 3.6519126e-05 2.9521539e-06 
5.1447947e-05 -2.5055215e-05 5.4340589e-06 
5.3419815e-05 -1.0323822e-04 -2.1300250e-05 
4.7383950e-05 -8.3407976e-05 -8.2083498e-06 
3.3515713e-05 -4.0893101e-05 -3.4319116e-06 
7.6998094e-06 -6.4200267e-06 -9.4328907e-06 
-6.6173661e-06 -4.0720993e-06 3.4822224e-06 
-1.7058755e-05 -1.7643260e-05 1.3504052e-05 
-7.3773854e-06 -2.3079683e-05 -1.2126731e-05 
3.5526325e-06 1.5291520e-05 -1.5233146e-05 
2.8134627e-05 4.5371420e-05 4.6534801e-06 
6.5323962e-05 -3.3865603e-05 4.7427884e-06 
6.1866245e-05 -7.8429774e-05 9.8278852e-06 
3.5138499e-05 -1.0989543e-04 2.1221849e-05 
2.5192510e-05 -7.2543568e-05 -1.4847026e-05 
1.0099765e-07 2.1649787e-05 -3.7707432e-05 
1.2858957e-06 -5.6792865e-06 1.4620467e-05 
2.0214673e-05 5.1913248e-05 2.4164938e-05 
0.0000000e+00 0.0000000e+00 0.0000000e+00 
0.0000000e+00 0.0000000e+00 0.0000000e+00 
0.0000000e+00 0.0000000e+00 0.0000000e+00 
0.0000000e+00 0.0000000e+00 0.0000000e+00 
0.0000000e+00 0.0000000e+00 0.0000000e+00 
0.0000000e+00 0.0000000e+00 0.0000000e+00 
0.0000000e+00 0.0000000e+00 0.0000000e+00 
0.0000000e+00 0.0000000e+00 0.0000000e+00 
0.0000000e+00 0.0000000e+00 0.0000000e+00 
0.0000000e+00 0.0000000e+00 0.0000000e+00 
0.0000000e+00 0.0000000e+00 0.0000000e+00 
0.0000000e+00 0.0000000e+00 0.0000000e+00 
0.0000000e+00 0.0000000e+00 0.0000000e+00 
0.0000000e+00 0.0000000e+00 0.0000000e+00 
0.0000000e+00 0.0000000e+00 0.0000000e+00 
0.0000000e+00 0.0000000e+00 0.0000000e+00 
0.0000000e+00 0.0000000e+00 0.0000000e+00 
0.0000000e+00 0.0000000e+00 0.0000000e+00 
0.0000000e+00 0.0000000e+00 0.0000000e+00 
0.0000000e+00 0.0000000e+00 0.0000000e+00 
0.0000000e+00 0.0000000e+00 0.0000000e+00 
0.0000000e+00 0.0000000e+00 0.0000000e+00 
0.0000000e+00 0.0000000e+00 0.0000000e+00 
0.0000000e+00 0.0000000e+00 0.0000000e+00 
0.0000000e+00 0.0000000e+00 0.0000000e+00 
0.0000000e+00 0.0000000e+00 0.0000000e+00 
0.0000000e+00 0.0000000e+00 0.0000000e+00 
0.0000000e+00 0.0000000e+00 0.0000000e+00 
0.0000000e+00 0.0000000e+00 0.0000000e+00 
0.0000000e+00 0.0000000e+00 0.0000000e+00 
0.0000000e+00 0.0000000e+00 0.0000000e+00 
0.0000000e+00 0.0000000e+00 0.0000000e+00 
0.0000000e+00 0.0000000e+00 0.0000000e+00 
0.0000000e+00 0.0000000e+00 0.0000000e+00 
0.0000000e+00 0.0000000e+00 0.0000000e+00 
0.0000000e+00 0.0000000e+00 0.0000000e+00 
0.0000000e+00 0.0000000e+00 0.0000000e+00 
0.0000000e+00 0.0000000e+00 0.0000000e+00 
0.0000000e+00 0.0000000e+00 0.0000000e+00 
0.0000000e+00 0.0000000e+00 0.0000000e+00 
0.0000000e+00 0.0000000e+00 0.0000000e+00 
0.0000000e+00 0.0000000e+00 0.0000000e+00 
3.0170014e-07 -1.5805468e-06 -9.7109125e-07 
3.9698721e-06 -7.8536937e-07 8.2466346e-07 
2.2942352e-06 4.0358057e-07 2.3514110e-06 
-8.0424974e-07 1.4464259e-06 -1.4452592e-06 
6.3896214e-06 -5.8801079e-06 -3.8344147e-06 
2.3689769e-05 -8.5502361e-06 -2.8219947e-06 
2.5803571e-05 -1.1713787e-05 -7.7096905e-07 