# vtk DataFile Version 4.0
vtk output
ASCII
DATASET UNSTRUCTURED_GRID
POINTS 662 float
0.0000000e+00 0.0000000e+00 0.0000000e+00 
0.0000000e+00 0.0000000e+00 4.0000000e+01 
5.0000000e+00 0.0000000e+00 0.0000000e+00 
5.0000000e+00 0.0000000e+00 4.0000000e+01 
5.0000000e+00 1.0000000e+00 0.0000000e+00 
5.0000000e+00 1.0000000e+00 4.0000000e+01 
0.0000000e+00 1.0000000e+00 0.0000000e+00 
0.0000000e+00 1.0000000e+00 4.0000000e+01 
5.0000000e+00 2.0000000e+00 0.0000000e+00 
5.0000000e+00 2.0000000e+00 4.0000000e+01 
3.0000000e+00 2.0000000e+00 0.0000000e+00 
3.0000000e+00 2.0000000e+00 4.0000000e+01 
0.0000000e+00 2.0000000e+00 0.0000000e+00 
0.0000000e+00 2.0000000e+00 4.0000000e+01 
1.5000000e+00 3.0000000e+00 0.0000000e+00 
1.5000000e+00 3.0000000e+00 4.0000000e+01 
7.5000000e-01 3.0000000e+00 0.0000000e+00 
7.5000000e-01 3.0000000e+00 4.0000000e+01 
0.0000000e+00 3.0000000e+00 0.0000000e+00 
0.0000000e+00 3.0000000e+00 4.0000000e+01 
7.5000000e-01 3.0000000e+00 5.0000000e-01 
7.5000000e-01 3.0000000e+00 1.0000000e+00 
7.5000000e-01 3.0000000e+00 1.5000000e+00 
7.5000000e-01 3.0000000e+00 2.0000000e+00 
7.5000000e-01 3.0000000e+00 2.5000000e+00 
7.5000000e-01 3.0000000e+00 3.0000000e+00 
7.5000000e-01 3.0000000e+00 3.5000000e+00 
7.5000000e-01 3.0000000e+00 4.0000000e+00 
7.5000000e-01 3.0000000e+00 4.5000000e+00 
7.5000000e-01 3.0000000e+00 5.0000000e+00 
7.5000000e-01 3.0000000e+00 5.5000000e+00 
7.5000000e-01 3.0000000e+00 6.0000000e+00 
7.5000000e-01 3.0000000e+00 6.5000000e+00 
7.5000000e-01 3.0000000e+00 7.0000000e+00 
7.5000000e-01 3.0000000e+00 7.5000000e+00 
7.5000000e-01 3.0000000e+00 8.0000000e+00 
7.5000000e-01 3.0000000e+00 8.5000000e+00 
7.5000000e-01 3.0000000e+00 9.0000000e+00 
7.5000000e-01 3.0000000e+00 9.5000000e+00 
7.5000000e-01 3.0000000e+00 1.0000000e+01 
7.5000000e-01 3.0000000e+00 1.0500000e+01 
7.5000000e-01 3.0000000e+00 1.1000000e+01 
7.5000000e-01 3.0000000e+00 1.1500000e+01 
7.5000000e-01 3.0000000e+00 1.2000000e+01 
7.5000000e-01 3.0000000e+00 1.2500000e+01 
7.5000000e-01 3.0000000e+00 1.3000000e+01 
7.5000000e-01 3.0000000e+00 1.3500000e+01 
7.5000000e-01 3.0000000e+00 1.4000000e+01 
7.5000000e-01 3.0000000e+00 1.4500000e+01 
7.5000000e-01 3.0000000e+00 1.5000000e+01 
7.5000000e-01 3.0000000e+00 1.5500000e+01 
7.5000000e-01 3.0000000e+00 1.6000000e+01 
7.5000000e-01 3.0000000e+00 1.6500000e+01 
7.5000000e-01 3.0000000e+00 1.7000000e+01 
7.5000000e-01 3.0000000e+00 1.7500000e+01 
7.5000000e-01 3.0000000e+00 1.8000000e+01 
7.5000000e-01 3.0000000e+00 1.8500000e+01 
7.5000000e-01 3.0000000e+00 1.9000000e+01 
7.5000000e-01 3.0000000e+00 1.9500000e+01 
7.5000000e-01 3.0000000e+00 2.0000000e+01 
7.5000000e-01 3.0000000e+00 2.0500000e+01 
7.5000000e-01 3.0000000e+00 2.1000000e+01 
7.5000000e-01 3.0000000e+00 2.1500000e+01 
7.5000000e-01 3.0000000e+00 2.2000000e+01 
7.5000000e-01 3.0000000e+00 2.2500000e+01 
7.5000000e-01 3.0000000e+00 2.3000000e+01 
7.5000000e-01 3.0000000e+00 2.3500000e+01 
7.5000000e-01 3.0000000e+00 2.4000000e+01 
7.5000000e-01 3.0000000e+00 2.4500000e+01 
7.5000000e-01 3.0000000e+00 2.5000000e+01 
7.5000000e-01 3.0000000e+00 2.5500000e+01 
7.5000000e-01 3.0000000e+00 2.6000000e+01 
7.5000000e-01 3.0000000e+00 2.6500000e+01 
7.5000000e-01 3.0000000e+00 2.7000000e+01 
7.5000000e-01 3.0000000e+00 2.7500000e+01 
7.5000000e-01 3.0000000e+00 2.8000000e+01 
7.5000000e-01 3.0000000e+00 2.8500000e+01 
7.5000000e-01 3.0000000e+00 2.9000000e+01 
7.5000000e-01 3.0000000e+00 2.9500000e+01 
7.5000000e-01 3.0000000e+00 3.0000000e+01 
7.5000000e-01 3.0000000e+00 3.0500000e+01 
7.5000000e-01 3.0000000e+00 3.1000000e+01 
7.5000000e-01 3.0000000e+00 3.1500000e+01 
7.5000000e-01 3.0000000e+00 3.2000000e+01 
7.5000000e-01 3.0000000e+00 3.2500000e+01 
7.5000000e-01 3.0000000e+00 3.3000000e+01 
7.5000000e-01 3.0000000e+00 3.3500000e+01 
7.5000000e-01 3.0000000e+00 3.4000000e+01 
7.5000000e-01 3.0000000e+00 3.4500000e+01 
7.5000000e-01 3.0000000e+00 3.5000000e+01 
7.5000000e-01 3.0000000e+00 3.5500000e+01 
7.5000000e-01 3.0000000e+00 3.6000000e+01 
7.5000000e-01 3.0000000e+00 3.6500000e+01 
7.5000000e-01 3.0000000e+00 3.7000000e+01 
7.5000000e-01 3.0000000e+00 3.7500000e+01 
7.5000000e-01 3.0000000e+00 3.8000000e+01 
7.5000000e-01 3.0000000e+00 3.8500000e+01 
7.5000000e-01 3.0000000e+00 3.9000000e+01 
7.5000000e-01 3.0000000e+00 3.9500000e+01 
7.5000000e-01 3.0000000e+00 4.0500000e+01 
7.5000000e-01 3.0000000e+00 4.1000000e+01 
7.5000000e-01 3.0000000e+00 4.1500000e+01 
7.5000000e-01 3.0000000e+00 4.2000000e+01 
7.5000000e-01 3.0000000e+00 4.2500000e+01 
7.5000000e-01 3.0000000e+00 4.3000000e+01 
7.5000000e-01 3.0000000e+00 4.3500000e+01 
7.5000000e-01 3.0000000e+00 4.4000000e+01 
7.5000000e-01 3.0000000e+00 4.4500000e+01 
7.5000000e-01 3.0000000e+00 4.5000000e+01 
7.5000000e-01 3.0000000e+00 4.5500000e+01 
7.5000000e-01 3.0000000e+00 4.6000000e+01 
7.5000000e-01 3.0000000e+00 4.6500000e+01 
7.5000000e-01 3.0000000e+00 4.7000000e+01 
7.5000000e-01 3.0000000e+00 4.7500000e+01 
7.5000000e-01 3.0000000e+00 4.8000000e+01 
7.5000000e-01 3.0000000e+00 4.8500000e+01 
7.5000000e-01 3.0000000e+00 4.9000000e+01 
7.5000000e-01 3.0000000e+00 4.9500000e+01 
7.5000000e-01 3.0000000e+00 5.0000000e+01 
7.5000000e-01 3.0250001e+00 0.0000000e+00 
7.5000000e-01 3.0250001e+00 5.0000000e-01 
7.5000000e-01 3.0250001e+00 1.0000000e+00 
7.5000000e-01 3.0250001e+00 1.5000000e+00 
7.5000000e-01 3.0250001e+00 2.0000000e+00 
7.5000000e-01 3.0250001e+00 2.5000000e+00 
7.5000000e-01 3.0250001e+00 3.0000000e+00 
7.5000000e-01 3.0250001e+00 3.5000000e+00 
7.5000000e-01 3.0250001e+00 4.0000000e+00 
7.5000000e-01 3.0250001e+00 4.5000000e+00 
7.5000000e-01 3.0250001e+00 5.0000000e+00 
7.5000000e-01 3.0250001e+00 5.5000000e+00 
7.5000000e-01 3.0250001e+00 6.0000000e+00 
7.5000000e-01 3.0250001e+00 6.5000000e+00 
7.5000000e-01 3.0250001e+00 7.0000000e+00 
7.5000000e-01 3.0250001e+00 7.5000000e+00 
7.5000000e-01 3.0250001e+00 8.0000000e+00 
7.5000000e-01 3.0250001e+00 8.5000000e+00 
7.5000000e-01 3.0250001e+00 9.0000000e+00 
7.5000000e-01 3.0250001e+00 9.5000000e+00 
7.5000000e-01 3.0250001e+00 1.0000000e+01 
7.5000000e-01 3.0250001e+00 1.0500000e+01 
7.5000000e-01 3.0250001e+00 1.1000000e+01 
7.5000000e-01 3.0250001e+00 1.1500000e+01 
7.5000000e-01 3.0250001e+00 1.2000000e+01 
7.5000000e-01 3.0250001e+00 1.2500000e+01 
7.5000000e-01 3.0250001e+00 1.3000000e+01 
7.5000000e-01 3.0250001e+00 1.3500000e+01 
7.5000000e-01 3.0250001e+00 1.4000000e+01 
7.5000000e-01 3.0250001e+00 1.4500000e+01 
7.5000000e-01 3.0250001e+00 1.5000000e+01 
7.5000000e-01 3.0250001e+00 1.5500000e+01 
7.5000000e-01 3.0250001e+00 1.6000000e+01 
7.5000000e-01 3.0250001e+00 1.6500000e+01 
7.5000000e-01 3.0250001e+00 1.7000000e+01 
7.5000000e-01 3.0250001e+00 1.7500000e+01 
7.5000000e-01 3.0250001e+00 1.8000000e+01 
7.5000000e-01 3.0250001e+00 1.8500000e+01 
7.5000000e-01 3.0250001e+00 1.9000000e+01 
7.5000000e-01 3.0250001e+00 1.9500000e+01 
7.5000000e-01 3.0250001e+00 2.0000000e+01 
7.5000000e-01 3.0250001e+00 2.0500000e+01 
7.5000000e-01 3.0250001e+00 2.1000000e+01 
7.5000000e-01 3.0250001e+00 2.1500000e+01 
7.5000000e-01 3.0250001e+00 2.2000000e+01 
7.5000000e-01 3.0250001e+00 2.2500000e+01 
7.5000000e-01 3.0250001e+00 2.3000000e+01 
7.5000000e-01 3.0250001e+00 2.3500000e+01 
7.5000000e-01 3.0250001e+00 2.4000000e+01 
7.5000000e-01 3.0250001e+00 2.4500000e+01 
7.5000000e-01 3.0250001e+00 2.5000000e+01 
7.5000000e-01 3.0250001e+00 2.5500000e+01 
7.5000000e-01 3.0250001e+00 2.6000000e+01 
7.5000000e-01 3.0250001e+00 2.6500000e+01 
7.5000000e-01 3.0250001e+00 2.7000000e+01 
7.5000000e-01 3.0250001e+00 2.7500000e+01 
7.5000000e-01 3.0250001e+00 2.8000000e+01 
7.5000000e-01 3.0250001e+00 2.8500000e+01 
7.5000000e-01 3.0250001e+00 2.9000000e+01 
7.5000000e-01 3.0250001e+00 2.9500000e+01 
7.5000000e-01 3.0250001e+00 3.0000000e+01 
7.5000000e-01 3.0250001e+00 3.0500000e+01 
7.5000000e-01 3.0250001e+00 3.1000000e+01 
7.5000000e-01 3.0250001e+00 3.1500000e+01 
7.5000000e-01 3.0250001e+00 3.2000000e+01 
7.5000000e-01 3.0250001e+00 3.2500000e+01 
7.5000000e-01 3.0250001e+00 3.3000000e+01 
7.5000000e-01 3.0250001e+00 3.3500000e+01 
7.5000000e-01 3.0250001e+00 3.4000000e+01 
7.5000000e-01 3.0250001e+00 3.4500000e+01 
7.5000000e-01 3.0250001e+00 3.5000000e+01 
7.5000000e-01 3.0250001e+00 3.5500000e+01 
7.5000000e-01 3.0250001e+00 3.6000000e+01 
7.5000000e-01 3.0250001e+00 3.6500000e+01 
7.5000000e-01 3.0250001e+00 3.7000000e+01 
7.5000000e-01 3.0250001e+00 3.7500000e+01 
7.5000000e-01 3.0250001e+00 3.8000000e+01 
7.5000000e-01 3.0250001e+00 3.8500000e+01 
7.5000000e-01 3.0250001e+00 3.9000000e+01 
7.5000000e-01 3.0250001e+00 3.9500000e+01 
7.5000000e-01 3.0250001e+00 4.0000000e+01 
7.5000000e-01 3.0250001e+00 4.0500000e+01 
7.5000000e-01 3.0250001e+00 4.1000000e+01 
7.5000000e-01 3.0250001e+00 4.1500000e+01 
7.5000000e-01 3.0250001e+00 4.2000000e+01 
7.5000000e-01 3.0250001e+00 4.2500000e+01 
7.5000000e-01 3.0250001e+00 4.3000000e+01 
7.5000000e-01 3.0250001e+00 4.3500000e+01 
7.5000000e-01 3.0250001e+00 4.4000000e+01 
7.5000000e-01 3.0250001e+00 4.4500000e+01 
7.5000000e-01 3.0250001e+00 4.5000000e+01 
7.5000000e-01 3.0250001e+00 4.5500000e+01 
7.5000000e-01 3.0250001e+00 4.6000000e+01 
7.5000000e-01 3.0250001e+00 4.6500000e+01 
7.5000000e-01 3.0250001e+00 4.7000000e+01 
7.5000000e-01 3.0250001e+00 4.7500000e+01 
7.5000000e-01 3.0250001e+00 4.8000000e+01 
7.5000000e-01 3.0250001e+00 4.8500000e+01 
7.5000000e-01 3.0250001e+00 4.9000000e+01 
7.5000000e-01 3.0250001e+00 4.9500000e+01 
7.5000000e-01 3.0250001e+00 5.0000000e+01 
7.5000000e-01 3.0250001e+00 3.5750000e+01 
3.0000000e+00 2.0000000e+00 3.6000000e+01 
8.0487806e-01 3.0000000e+00 3.6000000e+01 
0.0000000e+00 0.0000000e+00 2.0000000e+00 
0.0000000e+00 0.0000000e+00 4.0000000e+00 
0.0000000e+00 0.0000000e+00 6.0000000e+00 
0.0000000e+00 0.0000000e+00 8.0000000e+00 
0.0000000e+00 0.0000000e+00 1.0000000e+01 
0.0000000e+00 0.0000000e+00 1.2000000e+01 
0.0000000e+00 0.0000000e+00 1.4000000e+01 
[...]
POINT_DATA 662
FIELD FieldData 3
DISPLACEMENT 3 662  float
0.0000000e+00 0.0000000e+00 0.0000000e+00 
0.0000000e+00 0.0000000e+00 0.0000000e+00 
0.0000000e+00 0.0000000e+00 0.0000000e+00 
0.0000000e+00 0.0000000e+00 0.0000000e+00 
1.8998871e-05 -2.4561337e-05 -3.2064294e-05 
-1.6489939e-07 -7.0139941e-07 -2.7211248e-08 
0.0000000e+00 -8.1325845e-05 0.0000000e+00 
0.0000000e+00 -1.6204842e-06 0.0000000e+00 
2.4884856e-05 -3.3002161e-05 -5.7274032e-05 
-3.6085646e-07 -8.7329875e-07 9.0542943e-07 
5.9956319e-06 -2.6213129e-05 -3.8704300e-05 
-5.5866855e-07 -1.9457675e-06 3.2277580e-07 
0.0000000e+00 -9.6671676e-05 0.0000000e+00 
0.0000000e+00 -3.9795314e-06 0.0000000e+00 
4.1446699e-05 1.8416995e-05 7.2792551e-05 
-6.0050473e-07 -9.2336177e-06 -2.3183291e-06 
2.4701454e-05 6.4709566e-05 2.2461887e-04 
4.7922020e-07 -7.6402002e-06 -6.1657283e-07 
0.0000000e+00 -2.6329233e-05 0.0000000e+00 
0.0000000e+00 -6.4288192e-06 0.0000000e+00 
-3.6631278e-05 -1.2068334e-05 1.8417480e-04 
-5.9432918e-05 -2.4235512e-04 1.2281233e-04 
-8.2221020e-05 -6.5352855e-04 2.0863520e-04 
-9.8670993e-05 -1.2851781e-03 2.3586403e-04 
-1.7666114e-04 -2.1297776e-03 1.2907239e-04 
-2.0884449e-04 -3.0959691e-03 1.3956890e-04 
-1.1402700e-04 -3.8782025e-03 1.0943240e-04 
-8.5593289e-05 -3.9369427e-03 1.2783385e-04 
-2.3084885e-04 -3.8193299e-03 6.6074157e-05 
-3.0183070e-04 -3.8715149e-03 5.2761210e-05 
-2.0538039e-04 -4.1843755e-03 1.7407194e-05 
-6.6786670e-05 -4.2465390e-03 -4.8996877e-05 
-1.0261947e-04 -3.5614108e-03 -1.5991718e-04 
-2.0601191e-04 -2.5259964e-03 -1.9994321e-04 
-1.9654525e-04 -1.6230755e-03 -1.9205057e-04 
-7.2598727e-05 -9.4090228e-04 -1.1988375e-04 
-4.5696215e-05 -5.1481253e-04 -1.5717317e-04 
-3.9910108e-05 -2.7317891e-04 -1.3975948e-04 
-3.1507421e-05 -1.4525195e-04 -1.3524723e-04 
-3.5834196e-06 -7.0527043e-05 -1.2127947e-04 
1.8040568e-05 -1.0533688e-05 -8.8003428e-05 
3.1879976e-05 4.7263449e-05 -4.8909933e-05 
2.1887383e-05 1.0114216e-04 -1.5346437e-05 
4.8188936e-06 1.4021051e-04 1.5768701e-05 
1.1205275e-06 1.5380791e-04 1.7456037e-05 
-3.5979126e-06 1.4546038e-04 1.3449971e-05 
-3.4321160e-06 1.2269034e-04 -1.0691688e-06 
2.4341007e-06 9.3768198e-05 -2.5907464e-05 
3.0798066e-07 6.6377281e-05 -4.0801326e-05 
5.8623623e-06 4.1214593e-05 -4.2672498e-05 
6.6864541e-06 1.7303822e-05 -3.2521410e-05 
6.2762829e-06 -5.5765327e-06 -1.4819873e-05 
4.9098962e-06 -2.8138496e-05 1.3425797e-05 
9.1714746e-06 -4.9986029e-05 3.1935004e-05 
7.5133880e-06 -7.1419541e-05 4.6632726e-05 
-7.0566302e-06 -8.7221146e-05 6.1086314e-05 
-2.4659501e-05 -9.2259725e-05 4.9725812e-05 
-2.9251647e-05 -8.8150860e-05 3.8933569e-05 
-2.0007987e-05 -8.1579718e-05 2.9284371e-05 
-2.3971040e-06 -1.0315319e-04 1.3721900e-05 
-3.6914938e-05 -1.9852094e-04 3.1584877e-05 
-5.7797701e-05 -4.2144078e-04 5.6612869e-05 
-7.8970974e-05 -8.4424985e-04 9.3047885e-05 
-1.1932997e-04 -1.5070144e-03 4.3275038e-05 
-2.2970738e-04 -2.4179167e-03 1.6000442e-04 
-2.1924534e-04 -3.3632279e-03 1.6418446e-04 
-1.2757986e-04 -3.9855940e-03 1.3685256e-04 
-1.1019326e-04 -3.8881737e-03 1.8332826e-04 
-2.6312529e-04 -3.7400243e-03 1.1276378e-04 
-3.2423253e-04 -3.8167578e-03 9.4214411e-05 
-2.1323474e-04 -4.1397754e-03 4.2698684e-05 
-7.7254939e-05 -4.1024163e-03 -1.4253650e-05 
-1.0538618e-04 -3.3485154e-03 -1.4809116e-04 
-2.0193706e-04 -2.3525495e-03 -2.0062886e-04 
-1.8932846e-04 -1.5066430e-03 -2.1374934e-04 
-8.2299186e-05 -8.6834258e-04 -1.5616100e-04 
-4.6615347e-05 -4.5792761e-04 -1.7971474e-04 
-2.7199465e-05 -2.1277352e-04 -1.4327744e-04 
-1.7858198e-05 -7.5731637e-05 -1.2083527e-04 
9.3465678e-06 5.2495932e-07 -9.4680072e-05 
2.4333174e-05 4.4690049e-05 -6.1671803e-05 
3.5767796e-05 7.2872557e-05 -2.4362098e-05 
2.3321003e-05 9.0180110e-05 8.4435860e-06 
6.4698147e-06 9.5520016e-05 3.3018961e-05 
-1.3452186e-06 8.5259118e-05 3.8623060e-05 
-7.9988949e-06 6.2787833e-05 3.2868724e-05 
-8.4308404e-06 3.4078912e-05 2.0064615e-05 
-5.1656175e-06 5.8681358e-06 3.4639729e-06 
-4.2040833e-06 -1.5024618e-05 -5.7139500e-06 
-2.2930494e-06 -2.7356124e-05 -1.2569259e-05 
2.3162124e-06 -2.9848763e-05 -1.5700351e-05 
1.1872187e-06 -2.2982151e-05 -1.0343252e-05 
1.7041637e-06 -8.7920325e-06 -3.9380843e-06 
1.7441411e-06 6.8806376e-06 2.4623466e-06 
-6.9656659e-07 1.6183258e-05 6.4369692e-06 
-5.2714614e-07 1.6279648e-05 5.3175445e-06 
-5.6228185e-07 8.9016612e-06 2.2330198e-06 
-3.9407234e-07 -8.3041880e-07 -1.2307557e-06 
1.8544068e-08 -6.9097123e-06 -2.8424538e-06 
0.0000000e+00 -4.5549705e-06 0.0000000e+00 
0.0000000e+00 -3.3959262e-07 0.0000000e+00 
0.0000000e+00 2.5103081e-06 0.0000000e+00 
0.0000000e+00 3.1521836e-06 0.0000000e+00 
0.0000000e+00 2.3518851e-06 0.0000000e+00 
0.0000000e+00 1.3544311e-06 0.0000000e+00 
0.0000000e+00 7.6526902e-07 0.0000000e+00 
0.0000000e+00 3.5463708e-07 0.0000000e+00 
0.0000000e+00 -2.8988168e-07 0.0000000e+00 
0.0000000e+00 -1.0995573e-06 0.0000000e+00 
0.0000000e+00 -1.5373967e-06 0.0000000e+00 
0.0000000e+00 -1.1824819e-06 0.0000000e+00 
0.0000000e+00 -2.0789732e-07 0.0000000e+00 
0.0000000e+00 7.3917687e-07 0.0000000e+00 
0.0000000e+00 1.0921718e-06 0.0000000e+00 
0.0000000e+00 7.8901911e-07 0.0000000e+00 
0.0000000e+00 2.0688219e-07 0.0000000e+00 
0.0000000e+00 -2.3965282e-07 0.0000000e+00 
0.0000000e+00 -4.1374827e-07 0.0000000e+00 
0.0000000e+00 -4.3477371e-07 0.0000000e+00 
0.0000000e+00 6.4789754e-05 0.0000000e+00 
0.0000000e+00 -1.0506712e-05 0.0000000e+00 
0.0000000e+00 -2.4168935e-04 0.0000000e+00 
0.0000000e+00 -6.5576774e-04 0.0000000e+00 
0.0000000e+00 -1.2888201e-03 0.0000000e+00 
0.0000000e+00 -2.1418142e-03 0.0000000e+00 
0.0000000e+00 -3.1274913e-03 0.0000000e+00 
0.0000000e+00 -3.9017438e-03 0.0000000e+00 
0.0000000e+00 -3.9672791e-03 0.0000000e+00 
0.0000000e+00 -3.8330867e-03 0.0000000e+00 
0.0000000e+00 -3.9018029e-03 0.0000000e+00 
0.0000000e+00 -4.2046043e-03 0.0000000e+00 
0.0000000e+00 -4.2816545e-03 0.0000000e+00 
0.0000000e+00 -3.5800172e-03 0.0000000e+00 
0.0000000e+00 -2.5452026e-03 0.0000000e+00 
0.0000000e+00 -1.6255948e-03 0.0000000e+00 
0.0000000e+00 -9.4550115e-04 0.0000000e+00 
0.0000000e+00 -5.1475456e-04 0.0000000e+00 
0.0000000e+00 -2.7237603e-04 0.0000000e+00 
0.0000000e+00 -1.4407831e-04 0.0000000e+00 
0.0000000e+00 -6.9220652e-05 0.0000000e+00 
0.0000000e+00 -9.8448782e-06 0.0000000e+00 
0.0000000e+00 4.7699632e-05 0.0000000e+00 
0.0000000e+00 1.0111020e-04 0.0000000e+00 
0.0000000e+00 1.3947660e-04 0.0000000e+00 
0.0000000e+00 1.5363525e-04 0.0000000e+00 
0.0000000e+00 1.4549636e-04 0.0000000e+00 
0.0000000e+00 1.2278094e-04 0.0000000e+00 
0.0000000e+00 9.4184295e-05 0.0000000e+00 
0.0000000e+00 6.6521825e-05 0.0000000e+00 
0.0000000e+00 4.1228199e-05 0.0000000e+00 
0.0000000e+00 1.7302966e-05 0.0000000e+00 
0.0000000e+00 -5.7230191e-06 0.0000000e+00 
0.0000000e+00 -2.8212409e-05 0.0000000e+00 
0.0000000e+00 -5.0339073e-05 0.0000000e+00 
0.0000000e+00 -7.1392009e-05 0.0000000e+00 
0.0000000e+00 -8.6815693e-05 0.0000000e+00 
0.0000000e+00 -9.1938811e-05 0.0000000e+00 
0.0000000e+00 -8.6942979e-05 0.0000000e+00 
0.0000000e+00 -8.0850608e-05 0.0000000e+00 
0.0000000e+00 -1.0268886e-04 0.0000000e+00 
0.0000000e+00 -1.9753414e-04 0.0000000e+00 
0.0000000e+00 -4.2275144e-04 0.0000000e+00 
0.0000000e+00 -8.4619882e-04 0.0000000e+00 
0.0000000e+00 -1.5177329e-03 0.0000000e+00 
0.0000000e+00 -2.4268047e-03 0.0000000e+00 
0.0000000e+00 -3.3984331e-03 0.0000000e+00 
0.0000000e+00 -4.0096478e-03 0.0000000e+00 
0.0000000e+00 -3.9185244e-03 0.0000000e+00 
0.0000000e+00 -3.7537105e-03 0.0000000e+00 
0.0000000e+00 -3.8486926e-03 0.0000000e+00 
0.0000000e+00 -4.1613355e-03 0.0000000e+00 
0.0000000e+00 -4.1365740e-03 0.0000000e+00 
0.0000000e+00 -3.3649423e-03 0.0000000e+00 
0.0000000e+00 -2.3685866e-03 0.0000000e+00 
0.0000000e+00 -1.5083783e-03 0.0000000e+00 
0.0000000e+00 -8.7188341e-04 0.0000000e+00 
0.0000000e+00 -4.5766798e-04 0.0000000e+00 
0.0000000e+00 -2.1202741e-04 0.0000000e+00 
0.0000000e+00 -7.4722833e-05 0.0000000e+00 
0.0000000e+00 1.2080559e-06 0.0000000e+00 
0.0000000e+00 4.5229626e-05 0.0000000e+00 
0.0000000e+00 7.3153664e-05 0.0000000e+00 
0.0000000e+00 9.0278154e-05 0.0000000e+00 
0.0000000e+00 9.5171265e-05 0.0000000e+00 
0.0000000e+00 8.5169202e-05 0.0000000e+00 
0.0000000e+00 6.2804269e-05 0.0000000e+00 
0.0000000e+00 3.4093602e-05 0.0000000e+00 
0.0000000e+00 6.1305750e-06 0.0000000e+00 
0.0000000e+00 -1.5023844e-05 0.0000000e+00 
0.0000000e+00 -2.7236765e-05 0.0000000e+00 
0.0000000e+00 -2.9773964e-05 0.0000000e+00 
0.0000000e+00 -2.2821132e-05 0.0000000e+00 
0.0000000e+00 -8.7236604e-06 0.0000000e+00 
0.0000000e+00 6.5687946e-06 0.0000000e+00 
0.0000000e+00 1.5949725e-05 0.0000000e+00 
0.0000000e+00 1.6154781e-05 0.0000000e+00 
0.0000000e+00 8.9174473e-06 0.0000000e+00 
0.0000000e+00 -5.8177091e-07 0.0000000e+00 
0.0000000e+00 -6.7663223e-06 0.0000000e+00 
0.0000000e+00 -7.6249294e-06 0.0000000e+00 
0.0000000e+00 -4.5905126e-06 0.0000000e+00 
0.0000000e+00 -4.1837623e-07 0.0000000e+00 
0.0000000e+00 2.4523317e-06 0.0000000e+00 
0.0000000e+00 3.1494924e-06 0.0000000e+00 
0.0000000e+00 2.3866469e-06 0.0000000e+00 
0.0000000e+00 1.3826622e-06 0.0000000e+00 
0.0000000e+00 7.6184591e-07 0.0000000e+00 
0.0000000e+00 3.3244334e-07 0.0000000e+00 
0.0000000e+00 -3.0093776e-07 0.0000000e+00 
0.0000000e+00 -1.0864553e-06 0.0000000e+00 
0.0000000e+00 -1.5145852e-06 0.0000000e+00 
0.0000000e+00 -1.1723810e-06 0.0000000e+00 
0.0000000e+00 -2.1700919e-07 0.0000000e+00 
0.0000000e+00 7.2291033e-07 0.0000000e+00 
0.0000000e+00 1.0829181e-06 0.0000000e+00 
0.0000000e+00 7.8957856e-07 0.0000000e+00 
0.0000000e+00 2.1115571e-07 0.0000000e+00 
0.0000000e+00 -2.3666811e-07 0.0000000e+00 
0.0000000e+00 -4.1222253e-07 0.0000000e+00 
0.0000000e+00 -4.3348678e-07 0.0000000e+00 
0.0000000e+00 -2.7481221e-05 0.0000000e+00 
-1.2413154e-06 -4.0893801e-06 -7.6932929e-07 
8.3934844e-07 -2.4774812e-05 -1.1211002e-05 
0.0000000e+00 0.0000000e+00 0.0000000e+00 
0.0000000e+00 0.0000000e+00 0.0000000e+00 
0.0000000e+00 0.0000000e+00 0.0000000e+00 
0.0000000e+00 0.0000000e+00 0.0000000e+00 
0.0000000e+00 0.0000000e+00 0.0000000e+00 
0.0000000e+00 0.0000000e+00 0.0000000e+00 
0.0000000e+00 0.0000000e+00 0.0000000e+00 
0.0000000e+00 0.0000000e+00 0.0000000e+00 
0.0000000e+00 0.0000000e+00 0.0000000e+00 
0.0000000e+00 0.0000000e+00 0.0000000e+00 
0.0000000e+00 0.0000000e+00 0.0000000e+00 
0.0000000e+00 0.0000000e+00 0.0000000e+00 
0.0000000e+00 0.0000000e+00 0.0000000e+00 
0.0000000e+00 0.0000000e+00 0.0000000e+00 
0.0000000e+00 0.0000000e+00 0.0000000e+00 
0.0000000e+00 0.0000000e+00 0.0000000e+00 
0.0000000e+00 0.0000000e+00 0.0000000e+00 
0.0000000e+00 0.0000000e+00 0.0000000e+00 
0.0000000e+00 0.0000000e+00 0.0000000e+00 
0.0000000e+00 0.0000000e+00 0.0000000e+00 
0.0000000e+00 0.0000000e+00 0.0000000e+00 
0.0000000e+00 0.0000000e+00 0.0000000e+00 
0.0000000e+00 0.0000000e+00 0.0000000e+00 
0.0000000e+00 0.0000000e+00 0.0000000e+00 
0.0000000e+00 0.0000000e+00 0.0000000e+00 
0.0000000e+00 0.0000000e+00 0.0000000e+00 
0.0000000e+00 0.0000000e+00 0.0000000e+00 
0.0000000e+00 0.0000000e+00 0.0000000e+00 
0.0000000e+00 0.0000000e+00 0.0000000e+00 
0.0000000e+00 0.0000000e+00 0.0000000e+00 
0.0000000e+00 0.0000000e+00 0.0000000e+00 
0.0000000e+00 0.0000000e+00 0.0000000e+00 
0.0000000e+00 0.0000000e+00 0.0000000e+00 
0.0000000e+00 0.0000000e+00 0.0000000e+00 
0.0000000e+00 0.0000000e+00 0.0000000e+00 
0.0000000e+00 0.0000000e+00 0.0000000e+00 
0.0000000e+00 0.0000000e+00 0.0000000e+00 
0.0000000e+00 0.0000000e+00 0.0000000e+00 
0.0000000e+00 0.0000000e+00 0.0000000e+00 
0.0000000e+00 0.0000000e+00 0.0000000e+00 
0.0000000e+00 0.0000000e+00 0.0000000e+00 
0.0000000e+00 0.0000000e+00 0.0000000e+00 
3.0527219e-05 -5.9237840e-07 -2.4474310e-05 
5.8360445e-05 -4.4273761e-06 -1.5608986e-05 
3.9688006e-05 -7.8170824e-06 -1.0522155e-06 
1.0903739e-05 -9.7715692e-06 5.8438690e-07 
4.0706327e-06 -8.3909563e-06 1.1492596e-05 
-7.1792488e-07 4.4230223e-06 8.6927184e-06 
8.0012651e-06 6.3215448e-06 -6.4988212e-06 
3.4381385e-06 -2.8174711e-06 -1.2788637e-05 
1.4513034e-06 -6.1012715e-06 -3.5140620e-06 
1.2529207e-05 -1.0021906e-05 -4.4099666e-06 
3.4461482e-05 -2.1426299e-06 -3.9323004e-06 
4.8516009e-05 -1.0378717e-06 5.8085732e-07 
3.6766087e-05 -7.0120545e-06 1.7908039e-06 
1.1702989e-05 -1.4486802e-05 2.7149995e-06 
6.7873734e-06 -9.6582812e-07 8.3184268e-06 
2.2769038e-06 3.4932634e-06 9.3205826e-06 
1.4710081e-07 -1.1766989e-06 1.6389498e-06 
-6.1390756e-07 -1.6987329e-06 -1.3207515e-06 
3.4250368e-07 1.0417393e-06 3.0433293e-07 
0.0000000e+00 -1.9550092e-04 0.0000000e+00 
0.0000000e+00 -4.7119410e-04 0.0000000e+00 
0.0000000e+00 -5.2257464e-04 0.0000000e+00 
0.0000000e+00 -1.8752339e-04 0.0000000e+00 
0.0000000e+00 -2.5200192e-05 0.0000000e+00 
0.0000000e+00 3.7721518e-05 0.0000000e+00 
0.0000000e+00 1.6384576e-05 0.0000000e+00 
0.0000000e+00 3.0158082e-05 0.0000000e+00 
0.0000000e+00 -2.4089724e-05 0.0000000e+00 
0.0000000e+00 -3.6879344e-05 0.0000000e+00 
0.0000000e+00 -2.0033494e-04 0.0000000e+00 
0.0000000e+00 -4.7451133e-04 0.0000000e+00 
0.0000000e+00 -5.2820769e-04 0.0000000e+00 
0.0000000e+00 -1.8755306e-04 0.0000000e+00 
0.0000000e+00 -3.2181376e-06 0.0000000e+00 
0.0000000e+00 3.0574472e-05 0.0000000e+00 
0.0000000e+00 -4.3598079e-06 0.0000000e+00 
0.0000000e+00 -2.9203918e-06 0.0000000e+00 
0.0000000e+00 1.4811156e-06 0.0000000e+00 
2.3270839e-05 -1.8038432e-05 -2.6746631e-05 
2.1717737e-05 -5.0371080e-05 -4.2446343e-05 
-2.1164894e-07 -8.2244196e-07 -2.3652983e-07 
-2.1426186e-07 -1.3652406e-06 -4.6883744e-07 
3.0925206e-05 4.7076187e-06 -3.5836758e-05 
5.3017240e-05 6.9130347e-06 -1.4021163e-05 
3.3560766e-05 -9.2806482e-07 -9.2681330e-07 
4.9133141e-06 -6.4314231e-06 -9.3702693e-07 
5.2244133e-07 -1.3676537e-05 6.9239991e-06 
3.6251204e-06 7.5473654e-06 2.7309177e-06 
1.3722429e-05 1.0961518e-05 -2.1894384e-06 
-1.1565550e-06 -5.0261774e-06 -7.2574439e-06 
-6.2415306e-06 -8.6226501e-06 -6.5009967e-06 
1.7934371e-05 -1.1846243e-05 -9.5364558e-06 
3.6169105e-05 5.0690193e-07 -4.0908881e-06 
4.7654936e-05 2.1160367e-06 2.9003033e-06 
2.6814319e-05 -3.1808524e-06 1.1242591e-05 
-4.3704671e-07 -1.7816206e-05 2.3270806e-08 
1.8315284e-06 -3.0157196e-06 2.2104081e-07 
4.3419254e-06 4.1593908e-06 1.0131323e-05 
2.2625079e-06 -3.8306067e-07 4.1564222e-06 
-7.8794983e-07 -1.9190297e-06 -4.5209111e-07 
7.5966049e-08 1.0008465e-06 -4.9239969e-07 
8.0607297e-06 -7.3146752e-05 -3.9085324e-05 
0.0000000e+00 -4.2535830e-04 0.0000000e+00 
0.0000000e+00 -1.0689158e-03 0.0000000e+00 
0.0000000e+00 -1.1741386e-03 0.0000000e+00 
0.0000000e+00 -3.5643269e-04 0.0000000e+00 
0.0000000e+00 -4.6771664e-05 0.0000000e+00 
0.0000000e+00 7.8845194e-05 0.0000000e+00 
0.0000000e+00 3.4431385e-05 0.0000000e+00 
0.0000000e+00 4.3548131e-05 0.0000000e+00 
0.0000000e+00 -5.2967454e-05 0.0000000e+00 
0.0000000e+00 -6.3188076e-05 0.0000000e+00 
0.0000000e+00 -4.4815073e-04 0.0000000e+00 
0.0000000e+00 -1.0646950e-03 0.0000000e+00 
0.0000000e+00 -1.1518257e-03 0.0000000e+00 
0.0000000e+00 -3.4896916e-04 0.0000000e+00 
0.0000000e+00 -1.3402411e-06 0.0000000e+00 
0.0000000e+00 5.8525664e-05 0.0000000e+00 
0.0000000e+00 -9.2467208e-06 0.0000000e+00 
0.0000000e+00 -9.1173360e-06 0.0000000e+00 
0.0000000e+00 6.6408111e-06 0.0000000e+00 
-2.8016231e-07 -2.7118599e-06 -4.7106511e-07 
-3.0834609e-04 -3.9519710e-04 2.6716341e-04 
-6.1154872e-04 -1.2953362e-03 1.3474160e-04 
-6.1246823e-04 -1.4150747e-03 -1.0381352e-04 
-1.7855081e-04 -3.0604051e-04 -2.2976245e-04 
4.2711372e-06 -6.5744847e-05 -1.4210708e-04 
1.9955618e-05 8.7386223e-05 2.5565907e-06 
3.8320723e-06 7.4304618e-05 -8.4611293e-06 
5.6034296e-06 -2.6415877e-05 1.0087531e-05 
8.3925852e-06 -1.0091451e-04 6.1756968e-05 
-1.6505394e-06 -3.8899765e-05 3.5206245e-05 
-2.7778858e-04 -4.3963324e-04 2.1260208e-04 
-6.5673527e-04 -1.1543527e-03 1.5614434e-04 
-6.1055936e-04 -1.3421854e-03 -5.1463881e-05 
-1.6560993e-04 -3.2306169e-04 -2.7385767e-04 
1.4917575e-05 -1.0019255e-05 -1.3044986e-04 
1.7452687e-05 5.5351160e-05 4.5251767e-05 
-9.1453085e-06 8.1658518e-06 2.1826192e-05 
2.7056783e-08 -1.9974561e-05 -1.3837102e-05 
1.4141638e-06 1.3827485e-05 7.1506515e-06 
0.0000000e+00 -7.4842887e-04 0.0000000e+00 
0.0000000e+00 -2.1546145e-03 0.0000000e+00 
0.0000000e+00 -2.2237841e-03 0.0000000e+00 
0.0000000e+00 -6.0281623e-04 0.0000000e+00 
0.0000000e+00 -5.7919195e-05 0.0000000e+00 
0.0000000e+00 1.2991847e-04 0.0000000e+00 
0.0000000e+00 6.8291418e-05 0.0000000e+00 
0.0000000e+00 4.0480922e-05 0.0000000e+00 
0.0000000e+00 -1.0028274e-04 0.0000000e+00 
0.0000000e+00 -6.8536669e-05 0.0000000e+00 
0.0000000e+00 -8.7677350e-04 0.0000000e+00 
0.0000000e+00 -2.1454776e-03 0.0000000e+00 
0.0000000e+00 -2.1559622e-03 0.0000000e+00 
0.0000000e+00 -5.7033729e-04 0.0000000e+00 
0.0000000e+00 1.3790303e-05 0.0000000e+00 
0.0000000e+00 8.9542387e-05 0.0000000e+00 
0.0000000e+00 -8.7020658e-07 0.0000000e+00 
0.0000000e+00 -2.0071762e-05 0.0000000e+00 
0.0000000e+00 1.3095943e-05 0.0000000e+00 
3.1550189e-05 -1.2524096e-05 -1.2452503e-05 
7.0920483e-05 -1.1135013e-04 1.3764717e-05 
6.9117545e-05 -9.4937852e-05 9.7392958e-06 
2.5743700e-05 -5.7904890e-05 -1.1326900e-05 
-1.3303987e-05 -1.0826172e-05 -1.5259255e-05 
1.1736814e-05 2.1026863e-05 -4.2756869e-06 
9.0523008e-06 1.6938500e-05 -7.6203219e-06 
-4.3713922e-06 -2.0659058e-05 6.2399033e-07 
-7.4025584e-06 -3.8506685e-05 1.1665045e-05 
1.5580394e-05 -3.5639423e-06 6.6065982e-06 
5.9967424e-05 -3.1284657e-05 -1.4726575e-06 
7.7016273e-05 -4.0533920e-05 5.4967554e-06 
4.1912572e-05 -7.0599388e-05 1.7131790e-05 
2.1524604e-05 -6.5806700e-05 -1.6093103e-05 
-1.1047430e-05 -6.9084067e-06 -1.5906111e-05 
5.3327999e-06 1.3460442e-05 7.7143341e-06 
9.3874343e-07 2.9214532e-06 9.7198390e-06 
9.4183616e-07 3.0095523e-06 -9.2348353e-07 
2.1213232e-06 -1.4742136e-05 -7.7498817e-06 
0.0000000e+00 0.0000000e+00 0.0000000e+00 
0.0000000e+00 0.0000000e+00 0.0000000e+00 
0.0000000e+00 0.0000000e+00 0.0000000e+00 
0.0000000e+00 0.0000000e+00 0.0000000e+00 
0.0000000e+00 0.0000000e+00 0.0000000e+00 
0.0000000e+00 0.0000000e+00 0.0000000e+00 
0.0000000e+00 0.0000000e+00 0.0000000e+00 
0.0000000e+00 0.0000000e+00 0.0000000e+00 
0.0000000e+00 0.0000000e+00 0.0000000e+00 
0.0000000e+00 0.0000000e+00 0.0000000e+00 
0.0000000e+00 0.0000000e+00 0.0000000e+00 
0.0000000e+00 0.0000000e+00 0.0000000e+00 
0.0000000e+00 0.0000000e+00 0.0000000e+00 
0.0000000e+00 0.0000000e+00 0.0000000e+00 
0.0000000e+00 0.0000000e+00 0.0000000e+00 
0.0000000e+00 0.0000000e+00 0.0000000e+00 
0.0000000e+00 0.0000000e+00 0.0000000e+00 
0.0000000e+00 0.0000000e+00 0.0000000e+00 
0.0000000e+00 0.0000000e+00 0.0000000e+00 
0.0000000e+00 0.0000000e+00 0.0000000e+00 
0.0000000e+00 0.0000000e+00 0.0000000e+00 
0.0000000e+00 0.0000000e+00 0.0000000e+00 
0.0000000e+00 0.0000000e+00 0.0000000e+00 
0.0000000e+00 0.0000000e+00 0.0000000e+00 
0.0000000e+00 0.0000000e+00 0.0000000e+00 
0.0000000e+00 0.0000000e+00 0.0000000e+00 
0.0000000e+00 0.0000000e+00 0.0000000e+00 
0.0000000e+00 0.0000000e+00 0.0000000e+00 
0.0000000e+00 0.0000000e+00 0.0000000e+00 
0.0000000e+00 0.0000000e+00 0.0000000e+00 
0.0000000e+00 0.0000000e+00 0.0000000e+00 
0.0000000e+00 0.0000000e+00 0.0000000e+00 
0.0000000e+00 0.0000000e+00 0.0000000e+00 
0.0000000e+00 0.0000000e+00 0.0000000e+00 
0.0000000e+00 0.0000000e+00 0.0000000e+00 
0.0000000e+00 0.0000000e+00 0.0000000e+00 
0.0000000e+00 0.0000000e+00 0.0000000e+00 
0.0000000e+00 0.0000000e+00 0.0000000e+00 
0.0000000e+00 0.0000000e+00 0.0000000e+00 
0.0000000e+00 0.0000000e+00 0.0000000e+00 
0.0000000e+00 0.0000000e+00 0.0000000e+00 
0.0000000e+00 0.0000000e+00 0.0000000e+00 
1.3546255e-05 -8.8503039e-06 -1.1937114e-05 
1.2830125e-06 1.1722608e-06 9.9002921e-07 
3.1057989e-06 1.5765217e-07 -7.0664164e-06 
2.3509581e-05 -4.9619916e-06 -7.8917225e-08 
1.9324911e-05 -1.0726491e-05 7.5865739e-07 
1.5584223e-05 -1.0415318e-05 -4.9389070e-07 
5.2069149e-06 -4.5324205e-06 4.0644231e-06 