# vtk DataFile Version 4.0
vtk output
ASCII
DATASET UNSTRUCTURED_GRID
POINTS 662 float
0.0000000e+00 0.0000000e+00 0.0000000e+00 
0.0000000e+00 0.0000000e+00 4.0000000e+01 
5.0000000e+00 0.0000000e+00 0.0000000e+00 
5.0000000e+00 0.0000000e+00 4.0000000e+01 
5.0000000e+00 1.0000000e+00 0.0000000e+00 
5.0000000e+00 1.0000000e+00 4.0000000e+01 
0.0000000e+00 1.0000000e+00 0.0000000e+00 
0.0000000e+00 1.0000000e+00 4.0000000e+01 
5.0000000e+00 2.0000000e+00 0.0000000e+00 
5.0000000e+00 2.0000000e+00 4.0000000e+01 
3.0000000e+00 2.0000000e+00 0.0000000e+00 
3.0000000e+00 2.0000000e+00 4.0000000e+01 
0.0000000e+00 2.0000000e+00 0.0000000e+00 
0.0000000e+00 2.0000000e+00 4.0000000e+01 
1.5000000e+00 3.0000000e+00 0.0000000e+00 
1.5000000e+00 3.0000000e+00 4.0000000e+01 
7.5000000e-01 3.0000000e+00 0.0000000e+00 
7.5000000e-01 3.0000000e+00 4.0000000e+01 
0.0000000e+00 3.0000000e+00 0.0000000e+00 
0.0000000e+00 3.0000000e+00 4.0000000e+01 
7.5000000e-01 3.0000000e+00 5.0000000e-01 
7.5000000e-01 3.0000000e+00 1.0000000e+00 
7.5000000e-01 3.0000000e+00 1.5000000e+00 
7.5000000e-01 3.0000000e+00 2.0000000e+00 
7.5000000e-01 3.0000000e+00 2.5000000e+00 
7.5000000e-01 3.0000000e+00 3.0000000e+00 
7.5000000e-01 3.0000000e+00 3.5000000e+00 
7.5000000e-01 3.0000000e+00 4.0000000e+00 
7.5000000e-01 3.0000000e+00 4.5000000e+00 
7.5000000e-01 3.0000000e+00 5.0000000e+00 
7.5000000e-01 3.0000000e+00 5.5000000e+00 
7.5000000e-01 3.0000000e+00 6.0000000e+00 
7.5000000e-01 3.0000000e+00 6.5000000e+00 
7.5000000e-01 3.0000000e+00 7.0000000e+00 
7.5000000e-01 3.0000000e+00 7.5000000e+00 
7.5000000e-01 3.0000000e+00 8.0000000e+00 
7.5000000e-01 3.0000000e+00 8.5000000e+00 
7.5000000e-01 3.0000000e+00 9.0000000e+00 
7.5000000e-01 3.0000000e+00 9.5000000e+00 
7.5000000e-01 3.0000000e+00 1.0000000e+01 
7.5000000e-01 3.0000000e+00 1.0500000e+01 
7.5000000e-01 3.0000000e+00 1.1000000e+01 
7.5000000e-01 3.0000000e+00 1.1500000e+01 
7.5000000e-01 3.0000000e+00 1.2000000e+01 
7.5000000e-01 3.0000000e+00 1.2500000e+01 
7.5000000e-01 3.0000000e+00 1.3000000e+01 
7.5000000e-01 3.0000000e+00 1.3500000e+01 
7.5000000e-01 3.0000000e+00 1.4000000e+01 
7.5000000e-01 3.0000000e+00 1.4500000e+01 
7.5000000e-01 3.0000000e+00 1.5000000e+01 
7.5000000e-01 3.0000000e+00 1.5500000e+01 
7.5000000e-01 3.0000000e+00 1.6000000e+01 
7.5000000e-01 3.0000000e+00 1.6500000e+01 
7.5000000e-01 3.0000000e+00 1.7000000e+01 
7.5000000e-01 3.0000000e+00 1.7500000e+01 
7.5000000e-01 3.0000000e+00 1.8000000e+01 
7.5000000e-01 3.0000000e+00 1.8500000e+01 
7.5000000e-01 3.0000000e+00 1.9000000e+01 
7.5000000e-01 3.0000000e+00 1.9500000e+01 
7.5000000e-01 3.0000000e+00 2.0000000e+01 
7.5000000e-01 3.0000000e+00 2.0500000e+01 
7.5000000e-01 3.0000000e+00 2.1000000e+01 
7.5000000e-01 3.0000000e+00 2.1500000e+01 
7.5000000e-01 3.0000000e+00 2.2000000e+01 
7.5000000e-01 3.0000000e+00 2.2500000e+01 
7.5000000e-01 3.0000000e+00 2.3000000e+01 
7.5000000e-01 3.0000000e+00 2.3500000e+01 
7.5000000e-01 3.0000000e+00 2.4000000e+01 
7.5000000e-01 3.0000000e+00 2.4500000e+01 
7.5000000e-01 3.0000000e+00 2.5000000e+01 
7.5000000e-01 3.0000000e+00 2.5500000e+01 
7.5000000e-01 3.0000000e+00 2.6000000e+01 
7.5000000e-01 3.0000000e+00 2.6500000e+01 
7.5000000e-01 3.0000000e+00 2.7000000e+01 
7.5000000e-01 3.0000000e+00 2.7500000e+01 
7.5000000e-01 3.0000000e+00 2.8000000e+01 
7.5000000e-01 3.0000000e+00 2.8500000e+01 
7.5000000e-01 3.0000000e+00 2.9000000e+01 
7.5000000e-01 3.0000000e+00 2.9500000e+01 
7.5000000e-01 3.0000000e+00 3.0000000e+01 
7.5000000e-01 3.0000000e+00 3.0500000e+01 
7.5000000e-01 3.0000000e+00 3.1000000e+01 
7.5000000e-01 3.0000000e+00 3.1500000e+01 
7.5000000e-01 3.0000000e+00 3.2000000e+01 
7.5000000e-01 3.0000000e+00 3.2500000e+01 
7.5000000e-01 3.0000000e+00 3.3000000e+01 
7.5000000e-01 3.0000000e+00 3.3500000e+01 
7.5000000e-01 3.0000000e+00 3.4000000e+01 
7.5000000e-01 3.0000000e+00 3.4500000e+01 
7.5000000e-01 3.0000000e+00 3.5000000e+01 
7.5000000e-01 3.0000000e+00 3.5500000e+01 
7.5000000e-01 3.0000000e+00 3.6000000e+01 
7.5000000e-01 3.0000000e+00 3.6500000e+01 
7.5000000e-01 3.0000000e+00 3.7000000e+01 
7.5000000e-01 3.0000000e+00 3.7500000e+01 
7.5000000e-01 3.0000000e+00 3.8000000e+01 
7.5000000e-01 3.0000000e+00 3.8500000e+01 
7.5000000e-01 3.0000000e+00 3.9000000e+01 
7.5000000e-01 3.0000000e+00 3.9500000e+01 
7.5000000e-01 3.0000000e+00 4.0500000e+01 
7.5000000e-01 3.0000000e+00 4.1000000e+01 
7.5000000e-01 3.0000000e+00 4.1500000e+01 
7.5000000e-01 3.0000000e+00 4.2000000e+01 
7.5000000e-01 3.0000000e+00 4.2500000e+01 
7.5000000e-01 3.0000000e+00 4.3000000e+01 
7.5000000e-01 3.0000000e+00 4.3500000e+01 
7.5000000e-01 3.0000000e+00 4.4000000e+01 
7.5000000e-01 3.0000000e+00 4.4500000e+01 
7.5000000e-01 3.0000000e+00 4.5000000e+01 
7.5000000e-01 3.0000000e+00 4.5500000e+01 
7.5000000e-01 3.0000000e+00 4.6000000e+01 
7.5000000e-01 3.0000000e+00 4.6500000e+01 
7.5000000e-01 3.0000000e+00 4.7000000e+01 
7.5000000e-01 3.0000000e+00 4.7500000e+01 
7.5000000e-01 3.0000000e+00 4.8000000e+01 
7.5000000e-01 3.0000000e+00 4.8500000e+01 
7.5000000e-01 3.0000000e+00 4.9000000e+01 
7.5000000e-01 3.0000000e+00 4.9500000e+01 
7.5000000e-01 3.0000000e+00 5.0000000e+01 
7.5000000e-01 3.0250001e+00 0.0000000e+00 
7.5000000e-01 3.0250001e+00 5.0000000e-01 
7.5000000e-01 3.0250001e+00 1.0000000e+00 
7.5000000e-01 3.0250001e+00 1.5000000e+00 
7.5000000e-01 3.0250001e+00 2.0000000e+00 
7.5000000e-01 3.0250001e+00 2.5000000e+00 
7.5000000e-01 3.0250001e+00 3.0000000e+00 
7.5000000e-01 3.0250001e+00 3.5000000e+00 
7.5000000e-01 3.0250001e+00 4.0000000e+00 
7.5000000e-01 3.0250001e+00 4.5000000e+00 
7.5000000e-01 3.0250001e+00 5.0000000e+00 
7.5000000e-01 3.0250001e+00 5.5000000e+00 
7.5000000e-01 3.0250001e+00 6.0000000e+00 
7.5000000e-01 3.0250001e+00 6.5000000e+00 
7.5000000e-01 3.0250001e+00 7.0000000e+00 
7.5000000e-01 3.0250001e+00 7.5000000e+00 
7.5000000e-01 3.0250001e+00 8.0000000e+00 
7.5000000e-01 3.0250001e+00 8.5000000e+00 
7.5000000e-01 3.0250001e+00 9.0000000e+00 
7.5000000e-01 3.0250001e+00 9.5000000e+00 
7.5000000e-01 3.0250001e+00 1.0000000e+01 
7.5000000e-01 3.0250001e+00 1.0500000e+01 
7.5000000e-01 3.0250001e+00 1.1000000e+01 
7.5000000e-01 3.0250001e+00 1.1500000e+01 
7.5000000e-01 3.0250001e+00 1.2000000e+01 
7.5000000e-01 3.0250001e+00 1.2500000e+01 
7.5000000e-01 3.0250001e+00 1.3000000e+01 
7.5000000e-01 3.0250001e+00 1.3500000e+01 
7.5000000e-01 3.0250001e+00 1.4000000e+01 
7.5000000e-01 3.0250001e+00 1.4500000e+01 
7.5000000e-01 3.0250001e+00 1.5000000e+01 
7.5000000e-01 3.0250001e+00 1.5500000e+01 
7.5000000e-01 3.0250001e+00 1.6000000e+01 
7.5000000e-01 3.0250001e+00 1.6500000e+01 
7.5000000e-01 3.0250001e+00 1.7000000e+01 
7.5000000e-01 3.0250001e+00 1.7500000e+01 
7.5000000e-01 3.0250001e+00 1.8000000e+01 
7.5000000e-01 3.0250001e+00 1.8500000e+01 
7.5000000e-01 3.0250001e+00 1.9000000e+01 
7.5000000e-01 3.0250001e+00 1.9500000e+01 
7.5000000e-01 3.0250001e+00 2.0000000e+01 
7.5000000e-01 3.0250001e+00 2.0500000e+01 
7.5000000e-01 3.0250001e+00 2.1000000e+01 
7.5000000e-01 3.0250001e+00 2.1500000e+01 
7.5000000e-01 3.0250001e+00 2.2000000e+01 
7.5000000e-01 3.0250001e+00 2.2500000e+01 
7.5000000e-01 3.0250001e+00 2.3000000e+01 
7.5000000e-01 3.0250001e+00 2.3500000e+01 
7.5000000e-01 3.0250001e+00 2.4000000e+01 
7.5000000e-01 3.0250001e+00 2.4500000e+01 
7.5000000e-01 3.0250001e+00 2.5000000e+01 
7.5000000e-01 3.0250001e+00 2.5500000e+01 
7.5000000e-01 3.0250001e+00 2.6000000e+01 
7.5000000e-01 3.0250001e+00 2.6500000e+01 
7.5000000e-01 3.0250001e+00 2.7000000e+01 
7.5000000e-01 3.0250001e+00 2.7500000e+01 
7.5000000e-01 3.0250001e+00 2.8000000e+01 
7.5000000e-01 3.0250001e+00 2.8500000e+01 
7.5000000e-01 3.0250001e+00 2.9000000e+01 
7.5000000e-01 3.0250001e+00 2.9500000e+01 
7.5000000e-01 3.0250001e+00 3.0000000e+01 
7.5000000e-01 3.0250001e+00 3.0500000e+01 
7.5000000e-01 3.0250001e+00 3.1000000e+01 
7.5000000e-01 3.0250001e+00 3.1500000e+01 
7.5000000e-01 3.0250001e+00 3.2000000e+01 
7.5000000e-01 3.0250001e+00 3.2500000e+01 
7.5000000e-01 3.0250001e+00 3.3000000e+01 
7.5000000e-01 3.0250001e+00 3.3500000e+01 
7.5000000e-01 3.0250001e+00 3.4000000e+01 
7.5000000e-01 3.0250001e+00 3.4500000e+01 
7.5000000e-01 3.0250001e+00 3.5000000e+01 
7.5000000e-01 3.0250001e+00 3.5500000e+01 
7.5000000e-01 3.0250001e+00 3.6000000e+01 
7.5000000e-01 3.0250001e+00 3.6500000e+01 
7.5000000e-01 3.0250001e+00 3.7000000e+01 
7.5000000e-01 3.0250001e+00 3.7500000e+01 
7.5000000e-01 3.0250001e+00 3.8000000e+01 
7.5000000e-01 3.0250001e+00 3.8500000e+01 
7.5000000e-01 3.0250001e+00 3.9000000e+01 
7.5000000e-01 3.0250001e+00 3.9500000e+01 
7.5000000e-01 3.0250001e+00 4.0000000e+01 
7.5000000e-01 3.0250001e+00 4.0500000e+01 
7.5000000e-01 3.0250001e+00 4.1000000e+01 
7.5000000e-01 3.0250001e+00 4.1500000e+01 
7.5000000e-01 3.0250001e+00 4.2000000e+01 
7.5000000e-01 3.0250001e+00 4.2500000e+01 
7.5000000e-01 3.0250001e+00 4.3000000e+01 
7.5000000e-01 3.0250001e+00 4.3500000e+01 
7.5000000e-01 3.0250001e+00 4.4000000e+01 
7.5000000e-01 3.0250001e+00 4.4500000e+01 
7.5000000e-01 3.0250001e+00 4.5000000e+01 
7.5000000e-01 3.0250001e+00 4.5500000e+01 
7.5000000e-01 3.0250001e+00 4.6000000e+01 
7.5000000e-01 3.0250001e+00 4.6500000e+01 
7.5000000e-01 3.0250001e+00 4.7000000e+01 
7.5000000e-01 3.0250001e+00 4.7500000e+01 
7.5000000e-01 3.0250001e+00 4.8000000e+01 
7.5000000e-01 3.0250001e+00 4.8500000e+01 
7.5000000e-01 3.0250001e+00 4.9000000e+01 
7.5000000e-01 3.0250001e+00 4.9500000e+01 
7.5000000e-01 3.0250001e+00 5.0000000e+01 
7.5000000e-01 3.0250001e+00 3.5750000e+01 
3.0000000e+00 2.0000000e+00 3.6000000e+01 
8.0487806e-01 3.0000000e+00 3.6000000e+01 
0.0000000e+00 0.0000000e+00 2.0000000e+00 
0.0000000e+00 0.0000000e+00 4.0000000e+00 
0.0000000e+00 0.0000000e+00 6.0000000e+00 
0.0000000e+00 0.0000000e+00 8.0000000e+00 
0.0000000e+00 0.0000000e+00 1.0000000e+01 
0.0000000e+00 0.0000000e+00 1.2000000e+01 
0.0000000e+00 0.0000000e+00 1.4000000e+01 
[...]
POINT_DATA 662
FIELD FieldData 3
DISPLACEMENT 3 662  float
0.0000000e+00 0.0000000e+00 0.0000000e+00 
0.0000000e+00 0.0000000e+00 0.0000000e+00 
0.0000000e+00 0.0000000e+00 0.0000000e+00 
0.0000000e+00 0.0000000e+00 0.0000000e+00 
9.6035244e-08 -1.4966557e-06 2.7839217e-06 
6.5077489e-05 -2.2015443e-05 -1.6843430e-06 
0.0000000e+00 6.7871715e-06 0.0000000e+00 
0.0000000e+00 -1.1778942e-03 0.0000000e+00 
1.7580758e-06 -2.9978985e-06 2.8474659e-07 
2.5170873e-05 1.6499462e-05 1.4160913e-05 
5.1769121e-07 -6.6743468e-07 -1.4046652e-06 
1.7425873e-05 -3.4632947e-04 2.4212062e-04 
0.0000000e+00 1.1635524e-05 0.0000000e+00 
0.0000000e+00 -2.8885601e-03 0.0000000e+00 
-1.6539185e-06 1.0941705e-05 -2.6928352e-05 
-1.1336484e-03 -3.7574756e-03 1.1733203e-03 
-7.5927323e-06 4.4903471e-05 -2.1143365e-05 
-6.1081938e-04 -1.4829057e-02 2.8809784e-03 
0.0000000e+00 1.6360444e-05 0.0000000e+00 
0.0000000e+00 -6.7396997e-03 0.0000000e+00 
-6.3996431e-06 4.7201531e-05 -2.4270941e-05 
-4.1028256e-06 5.2792529e-05 -2.2585120e-05 
-8.4484424e-07 5.8740050e-05 -1.5930545e-05 
5.1327465e-06 6.2160478e-05 -3.9769980e-06 
8.4200701e-06 6.0627393e-05 9.1449947e-06 
1.3487974e-05 5.1930252e-05 2.1653081e-05 
1.1598185e-05 3.6034020e-05 3.0748528e-05 
9.4082889e-06 1.4387488e-05 3.4056087e-05 
7.3129877e-06 -1.0930161e-05 3.3216511e-05 
8.9997029e-06 -3.7180020e-05 3.1251420e-05 
1.2651080e-05 -6.1436396e-05 3.4216711e-05 
1.1307376e-05 -8.0612546e-05 3.8515205e-05 
1.8429910e-06 -9.2040114e-05 3.8945633e-05 
-9.1019365e-06 -9.4911928e-05 3.2128315e-05 
-1.3600404e-05 -8.8906483e-05 2.2905688e-05 
-1.4972789e-05 -7.5634278e-05 8.0262671e-06 
-1.7001163e-05 -5.5865563e-05 -1.0310685e-05 
-1.8227938e-05 -3.3774602e-05 -2.0939811e-05 
-1.8516124e-05 -1.2389161e-05 -2.1980941e-05 
-1.7983701e-05 6.4848819e-06 -1.5990021e-05 
-1.1976439e-05 2.0938609e-05 -7.8025405e-06 
-7.2286653e-06 3.0934141e-05 -1.0216220e-06 
-1.8821310e-06 3.6353042e-05 -2.6410705e-06 
6.8869608e-06 3.8091228e-05 -6.4772285e-06 
1.3990321e-05 3.6760124e-05 -4.9494656e-06 
2.0325217e-05 3.3806660e-05 -7.7610207e-07 
2.5180349e-05 3.0712286e-05 3.1033983e-06 
2.8556582e-05 2.9001734e-05 7.4095956e-06 
2.8630384e-05 2.9545779e-05 7.0602855e-06 
2.6490094e-05 2.8186822e-05 8.4870908e-06 
2.0683547e-05 1.5939671e-05 1.8176930e-05 
5.8197688e-06 -3.3191205e-05 3.0194318e-05 
-3.5676370e-05 -1.5797795e-04 6.1714600e-05 
-5.0894236e-05 -4.0080823e-04 9.1076960e-05 
-7.3819479e-05 -8.2539581e-04 1.2948120e-04 
-1.2703033e-04 -1.4776876e-03 7.0253031e-05 
-2.7204727e-04 -2.3798384e-03 1.4954554e-04 
-2.7717021e-04 -3.3581627e-03 1.3487099e-04 
-1.7091735e-04 -4.1110488e-03 7.8500445e-05 
-1.3710983e-04 -4.0865322e-03 1.0010837e-04 
-2.6401257e-04 -3.8690211e-03 4.5390050e-05 
-3.2370823e-04 -3.8320932e-03 4.3687123e-05 
-2.1492482e-04 -4.0867589e-03 2.2118922e-05 
-6.5898450e-05 -4.1268850e-03 -1.5269086e-05 
-9.7898708e-05 -3.4583858e-03 -1.0961050e-04 
-1.9405056e-04 -2.4544490e-03 -1.4237323e-04 
-1.8808870e-04 -1.5744468e-03 -1.4174689e-04 
-6.7642897e-05 -9.0007199e-04 -8.8804569e-05 
-3.4128265e-05 -4.6532165e-04 -1.2845533e-04 
-2.2573508e-05 -2.1007564e-04 -1.0336455e-04 
-1.7002802e-05 -7.6977580e-05 -8.4809282e-05 
-9.1655954e-07 -1.8824523e-05 -6.4338725e-05 
1.7053297e-06 -4.8154520e-06 -4.3299442e-05 
5.3874777e-07 -1.0687531e-05 -2.6793618e-05 
-6.8152453e-06 -2.0527646e-05 -2.0851543e-05 
-1.4931245e-05 -2.7137519e-05 -1.9474241e-05 
-1.5129038e-05 -2.6628441e-05 -1.7888731e-05 
-1.3416264e-05 -2.1639389e-05 -1.4494871e-05 
-1.5862361e-05 -1.6180700e-05 -1.1029285e-05 
-1.7371764e-05 -1.2078876e-05 -6.1353230e-06 
-1.5560130e-05 -1.0453648e-05 -5.5468936e-06 
-1.4121382e-05 -9.9561958e-06 -1.0399807e-05 
-3.2255002e-06 -7.9310939e-06 -2.5328180e-05 
9.3400622e-06 -1.7249255e-06 -3.7002741e-05 
2.4302908e-05 1.1863170e-05 -3.0017782e-05 
3.4198471e-05 3.4558496e-05 -1.7879329e-05 
3.9744882e-05 6.9270522e-05 -1.0362631e-05 
4.3991269e-05 1.1609052e-04 1.6377799e-06 
4.9999111e-05 1.7512150e-04 1.4208368e-05 
5.4858123e-05 2.4110643e-04 3.9195635e-05 
3.3327393e-05 3.0425980e-04 9.0985217e-05 
1.7502418e-05 3.3275204e-04 1.5410647e-04 
-3.2134936e-05 2.6890190e-04 2.2927507e-04 
-4.6436850e-05 2.9232851e-05 3.1476127e-04 
-1.4114070e-04 -5.1910453e-04 4.8495602e-04 
-2.9079514e-04 -1.5950592e-03 7.9617824e-04 
-3.8170326e-04 -3.3945066e-03 1.1120638e-03 
-2.8818124e-04 -6.0760188e-03 1.2375612e-03 
3.7568796e-06 -9.6840840e-03 5.8296137e-04 
0.0000000e+00 -2.0909782e-02 0.0000000e+00 
0.0000000e+00 -2.6924152e-02 0.0000000e+00 
0.0000000e+00 -3.1759243e-02 0.0000000e+00 
0.0000000e+00 -3.4260195e-02 0.0000000e+00 
0.0000000e+00 -3.3787932e-02 0.0000000e+00 
0.0000000e+00 -3.0941730e-02 0.0000000e+00 
0.0000000e+00 -2.6475910e-02 0.0000000e+00 
0.0000000e+00 -2.1089159e-02 0.0000000e+00 
0.0000000e+00 -1.5395257e-02 0.0000000e+00 
0.0000000e+00 -9.9003511e-03 0.0000000e+00 
0.0000000e+00 -4.9888128e-03 0.0000000e+00 
0.0000000e+00 -9.1589178e-04 0.0000000e+00 
0.0000000e+00 2.1935762e-03 0.0000000e+00 
0.0000000e+00 4.3377792e-03 0.0000000e+00 
0.0000000e+00 5.6190579e-03 0.0000000e+00 
0.0000000e+00 6.2145707e-03 0.0000000e+00 
0.0000000e+00 6.3414495e-03 0.0000000e+00 
0.0000000e+00 6.2219594e-03 0.0000000e+00 
0.0000000e+00 6.0520256e-03 0.0000000e+00 
0.0000000e+00 5.9749782e-03 0.0000000e+00 
0.0000000e+00 4.5005843e-05 0.0000000e+00 
0.0000000e+00 4.7287853e-05 0.0000000e+00 
0.0000000e+00 5.2796280e-05 0.0000000e+00 
0.0000000e+00 5.8726342e-05 0.0000000e+00 
0.0000000e+00 6.2159575e-05 0.0000000e+00 
0.0000000e+00 6.0525530e-05 0.0000000e+00 
0.0000000e+00 5.1871124e-05 0.0000000e+00 
0.0000000e+00 3.6019388e-05 0.0000000e+00 
0.0000000e+00 1.4358588e-05 0.0000000e+00 
0.0000000e+00 -1.0944909e-05 0.0000000e+00 
0.0000000e+00 -3.7202153e-05 0.0000000e+00 
0.0000000e+00 -6.1430008e-05 0.0000000e+00 
0.0000000e+00 -8.0542981e-05 0.0000000e+00 
0.0000000e+00 -9.2032577e-05 0.0000000e+00 
0.0000000e+00 -9.4846830e-05 0.0000000e+00 
0.0000000e+00 -8.8953493e-05 0.0000000e+00 
0.0000000e+00 -7.5459866e-05 0.0000000e+00 
0.0000000e+00 -5.5921704e-05 0.0000000e+00 
0.0000000e+00 -3.3855449e-05 0.0000000e+00 
0.0000000e+00 -1.2393129e-05 0.0000000e+00 
0.0000000e+00 6.3924545e-06 0.0000000e+00 
0.0000000e+00 2.0939848e-05 0.0000000e+00 
0.0000000e+00 3.0900632e-05 0.0000000e+00 
0.0000000e+00 3.6375543e-05 0.0000000e+00 
0.0000000e+00 3.8057598e-05 0.0000000e+00 
0.0000000e+00 3.6769434e-05 0.0000000e+00 
0.0000000e+00 3.3814780e-05 0.0000000e+00 
0.0000000e+00 3.0741568e-05 0.0000000e+00 
0.0000000e+00 2.9218021e-05 0.0000000e+00 
0.0000000e+00 2.9799601e-05 0.0000000e+00 
0.0000000e+00 2.9111241e-05 0.0000000e+00 
0.0000000e+00 1.6627837e-05 0.0000000e+00 
0.0000000e+00 -3.2909316e-05 0.0000000e+00 
0.0000000e+00 -1.5683923e-04 0.0000000e+00 
0.0000000e+00 -4.0142264e-04 0.0000000e+00 
0.0000000e+00 -8.2691759e-04 0.0000000e+00 
0.0000000e+00 -1.4870910e-03 0.0000000e+00 
0.0000000e+00 -2.3875749e-03 0.0000000e+00 
0.0000000e+00 -3.3908936e-03 0.0000000e+00 
0.0000000e+00 -4.1356343e-03 0.0000000e+00 
0.0000000e+00 -4.1181752e-03 0.0000000e+00 
0.0000000e+00 -3.8831539e-03 0.0000000e+00 
0.0000000e+00 -3.8631335e-03 0.0000000e+00 
0.0000000e+00 -4.1066827e-03 0.0000000e+00 
0.0000000e+00 -4.1613388e-03 0.0000000e+00 
0.0000000e+00 -3.4764120e-03 0.0000000e+00 
0.0000000e+00 -2.4728174e-03 0.0000000e+00 
0.0000000e+00 -1.5766955e-03 0.0000000e+00 
0.0000000e+00 -9.0406486e-04 0.0000000e+00 
0.0000000e+00 -4.6516335e-04 0.0000000e+00 
0.0000000e+00 -2.0925014e-04 0.0000000e+00 
0.0000000e+00 -7.6071716e-05 0.0000000e+00 
0.0000000e+00 -1.8486835e-05 0.0000000e+00 
0.0000000e+00 -4.4064532e-06 0.0000000e+00 
0.0000000e+00 -1.0259531e-05 0.0000000e+00 
0.0000000e+00 -2.0374437e-05 0.0000000e+00 
0.0000000e+00 -2.6829268e-05 0.0000000e+00 
0.0000000e+00 -2.6570142e-05 0.0000000e+00 
0.0000000e+00 -2.1765240e-05 0.0000000e+00 
0.0000000e+00 -1.6218670e-05 0.0000000e+00 
0.0000000e+00 -1.2196811e-05 0.0000000e+00 
0.0000000e+00 -1.0523617e-05 0.0000000e+00 
0.0000000e+00 -9.9515100e-06 0.0000000e+00 
0.0000000e+00 -7.9510837e-06 0.0000000e+00 
0.0000000e+00 -1.6529609e-06 0.0000000e+00 
0.0000000e+00 1.1820617e-05 0.0000000e+00 
0.0000000e+00 3.4695582e-05 0.0000000e+00 
0.0000000e+00 6.9282949e-05 0.0000000e+00 
0.0000000e+00 1.1632912e-04 0.0000000e+00 
0.0000000e+00 1.7536065e-04 0.0000000e+00 
0.0000000e+00 2.4220592e-04 0.0000000e+00 
0.0000000e+00 3.0571097e-04 0.0000000e+00 
0.0000000e+00 3.3415735e-04 0.0000000e+00 
0.0000000e+00 2.7177334e-04 0.0000000e+00 
0.0000000e+00 3.3792450e-05 0.0000000e+00 
0.0000000e+00 -5.2075810e-04 0.0000000e+00 
0.0000000e+00 -1.5976100e-03 0.0000000e+00 
0.0000000e+00 -3.3943811e-03 0.0000000e+00 
0.0000000e+00 -6.0790787e-03 0.0000000e+00 
0.0000000e+00 -9.8181730e-03 0.0000000e+00 
0.0000000e+00 -1.4865686e-02 0.0000000e+00 
0.0000000e+00 -2.0910108e-02 0.0000000e+00 
0.0000000e+00 -2.6924551e-02 0.0000000e+00 
0.0000000e+00 -3.1759251e-02 0.0000000e+00 
0.0000000e+00 -3.4259930e-02 0.0000000e+00 
0.0000000e+00 -3.3789091e-02 0.0000000e+00 
0.0000000e+00 -3.0944325e-02 0.0000000e+00 
0.0000000e+00 -2.6479777e-02 0.0000000e+00 
0.0000000e+00 -2.1093955e-02 0.0000000e+00 
0.0000000e+00 -1.5400621e-02 0.0000000e+00 
0.0000000e+00 -9.9060331e-03 0.0000000e+00 
0.0000000e+00 -4.9945535e-03 0.0000000e+00 
0.0000000e+00 -9.2127873e-04 0.0000000e+00 
0.0000000e+00 2.1890658e-03 0.0000000e+00 
0.0000000e+00 4.3345839e-03 0.0000000e+00 
0.0000000e+00 5.6173792e-03 0.0000000e+00 
0.0000000e+00 6.2143900e-03 0.0000000e+00 
0.0000000e+00 6.3426378e-03 0.0000000e+00 
0.0000000e+00 6.2243226e-03 0.0000000e+00 
0.0000000e+00 6.0552335e-03 0.0000000e+00 
0.0000000e+00 5.9785056e-03 0.0000000e+00 
0.0000000e+00 3.2781428e-04 0.0000000e+00 
1.3233755e-05 4.4875542e-05 3.2702032e-05 
5.1487987e-06 3.0181691e-04 1.6335993e-04 
0.0000000e+00 0.0000000e+00 0.0000000e+00 
0.0000000e+00 0.0000000e+00 0.0000000e+00 
0.0000000e+00 0.0000000e+00 0.0000000e+00 
0.0000000e+00 0.0000000e+00 0.0000000e+00 
0.0000000e+00 0.0000000e+00 0.0000000e+00 
0.0000000e+00 0.0000000e+00 0.0000000e+00 
0.0000000e+00 0.0000000e+00 0.0000000e+00 
0.0000000e+00 0.0000000e+00 0.0000000e+00 
0.0000000e+00 0.0000000e+00 0.0000000e+00 
0.0000000e+00 0.0000000e+00 0.0000000e+00 
0.0000000e+00 0.0000000e+00 0.0000000e+00 
0.0000000e+00 0.0000000e+00 0.0000000e+00 
0.0000000e+00 0.0000000e+00 0.0000000e+00 
0.0000000e+00 0.0000000e+00 0.0000000e+00 
0.0000000e+00 0.0000000e+00 0.0000000e+00 
0.0000000e+00 0.0000000e+00 0.0000000e+00 
0.0000000e+00 0.0000000e+00 0.0000000e+00 
0.0000000e+00 0.0000000e+00 0.0000000e+00 
0.0000000e+00 0.0000000e+00 0.0000000e+00 
0.0000000e+00 0.0000000e+00 0.0000000e+00 
0.0000000e+00 0.0000000e+00 0.0000000e+00 
0.0000000e+00 0.0000000e+00 0.0000000e+00 
0.0000000e+00 0.0000000e+00 0.0000000e+00 
0.0000000e+00 0.0000000e+00 0.0000000e+00 
0.0000000e+00 0.0000000e+00 0.0000000e+00 
0.0000000e+00 0.0000000e+00 0.0000000e+00 
0.0000000e+00 0.0000000e+00 0.0000000e+00 
0.0000000e+00 0.0000000e+00 0.0000000e+00 
0.0000000e+00 0.0000000e+00 0.0000000e+00 
0.0000000e+00 0.0000000e+00 0.0000000e+00 
0.0000000e+00 0.0000000e+00 0.0000000e+00 
0.0000000e+00 0.0000000e+00 0.0000000e+00 
0.0000000e+00 0.0000000e+00 0.0000000e+00 
0.0000000e+00 0.0000000e+00 0.0000000e+00 
0.0000000e+00 0.0000000e+00 0.0000000e+00 
0.0000000e+00 0.0000000e+00 0.0000000e+00 
0.0000000e+00 0.0000000e+00 0.0000000e+00 
0.0000000e+00 0.0000000e+00 0.0000000e+00 
0.0000000e+00 0.0000000e+00 0.0000000e+00 
0.0000000e+00 0.0000000e+00 0.0000000e+00 
0.0000000e+00 0.0000000e+00 0.0000000e+00 
0.0000000e+00 0.0000000e+00 0.0000000e+00 
-3.0531692e-06 2.4705371e-06 1.8054889e-06 
-2.7837380e-06 2.9315679e-06 -1.2332571e-06 
2.0666680e-06 -6.0171760e-07 1.4089788e-06 
4.0431737e-06 -2.7253329e-06 4.3126042e-06 
-2.1677356e-06 -2.2684608e-06 6.7433325e-06 
-7.6920915e-06 4.0866985e-07 1.1308922e-06 
-2.6209366e-06 -5.1796150e-07 -7.2236544e-06 
1.1186645e-05 -3.7273958e-06 -1.1455375e-05 
3.3701112e-05 -5.6878789e-06 -1.2043269e-05 
4.9184666e-05 -4.5560114e-06 -3.3507361e-06 
4.4197255e-05 -5.6727504e-06 7.6453071e-06 
2.4749334e-05 -4.8541838e-06 4.1920648e-06 
7.8972034e-06 -1.6986561e-06 3.0600854e-06 
4.2533324e-07 -7.5858202e-07 3.1190971e-06 
-4.0667323e-06 -7.5044539e-08 4.0078739e-06 
-9.7221473e-06 1.8924005e-06 2.5715588e-06 
-8.5713164e-06 8.0389810e-08 5.4330148e-06 
7.2573202e-06 4.7950307e-06 4.5475385e-06 
3.4500783e-05 2.2626780e-06 -5.3324165e-06 
0.0000000e+00 2.0917349e-05 0.0000000e+00 
0.0000000e+00 6.7911710e-06 0.0000000e+00 
0.0000000e+00 -2.2740667e-05 0.0000000e+00 
0.0000000e+00 -2.5998768e-05 0.0000000e+00 
0.0000000e+00 3.7617062e-06 0.0000000e+00 
0.0000000e+00 1.0720260e-05 0.0000000e+00 
0.0000000e+00 8.0073451e-06 0.0000000e+00 
0.0000000e+00 -2.8844608e-05 0.0000000e+00 
0.0000000e+00 -2.2727321e-04 0.0000000e+00 
0.0000000e+00 -5.1590486e-04 0.0000000e+00 
0.0000000e+00 -4.8778069e-04 0.0000000e+00 
0.0000000e+00 -1.8231751e-04 0.0000000e+00 
0.0000000e+00 -2.9095294e-05 0.0000000e+00 
0.0000000e+00 -3.4412731e-06 0.0000000e+00 
0.0000000e+00 -4.1104217e-06 0.0000000e+00 
0.0000000e+00 -7.3578585e-06 0.0000000e+00 
0.0000000e+00 2.7757491e-05 0.0000000e+00 
0.0000000e+00 5.5968700e-05 0.0000000e+00 
0.0000000e+00 -3.3806256e-04 0.0000000e+00 
-1.6059239e-06 -3.7582072e-07 2.7562808e-06 
-1.8161082e-06 3.6803772e-06 2.9775022e-06 
1.0099727e-04 -1.2391582e-04 6.4953732e-05 
2.4655537e-04 -7.6358055e-04 7.7997720e-05 
-6.8207959e-07 2.2449985e-06 1.1609133e-06 
-3.0845767e-06 2.9914265e-06 1.0214657e-06 
2.4260055e-07 -8.6042576e-08 4.4327899e-06 
1.8889432e-06 -3.3403014e-06 6.4255282e-06 
-2.4034446e-06 -4.6444702e-06 6.2022464e-06 
-7.0920178e-06 8.1819923e-07 6.6306916e-07 
-3.4824495e-06 1.0754670e-06 -9.5015985e-06 
1.8493613e-05 -3.4813345e-06 -1.5983995e-05 
3.3132252e-05 -3.8670014e-06 -9.1316488e-06 
3.8536855e-05 -3.3815584e-06 -1.9430811e-06 
2.8416202e-05 -3.4820657e-06 1.0748811e-05 
1.2596279e-05 -1.4792226e-06 4.0431466e-08 
4.7425151e-06 -8.4408379e-07 9.0274952e-08 
-1.5154513e-06 -2.5879676e-06 2.8888605e-06 
-4.5695820e-06 -2.3692965e-06 3.9760762e-06 
-1.2243182e-05 1.9778238e-06 3.7909231e-06 
-4.0686018e-06 -7.4639424e-08 1.8056638e-06 
1.8067032e-05 5.6051435e-06 6.1933724e-06 
1.7994687e-05 1.6189751e-05 2.6039992e-05 
-9.7071438e-07 1.0442750e-05 -3.2523421e-06 
0.0000000e+00 4.1285894e-05 0.0000000e+00 
0.0000000e+00 1.3455168e-05 0.0000000e+00 
0.0000000e+00 -4.3575172e-05 0.0000000e+00 
0.0000000e+00 -4.7651494e-05 0.0000000e+00 
0.0000000e+00 8.9419646e-06 0.0000000e+00 
0.0000000e+00 2.0301688e-05 0.0000000e+00 
0.0000000e+00 1.4858757e-05 0.0000000e+00 
0.0000000e+00 -4.3719381e-05 0.0000000e+00 
0.0000000e+00 -4.7764368e-04 0.0000000e+00 
0.0000000e+00 -1.1534707e-03 0.0000000e+00 
0.0000000e+00 -1.0957224e-03 0.0000000e+00 
0.0000000e+00 -3.4471659e-04 0.0000000e+00 
0.0000000e+00 -3.9005303e-05 0.0000000e+00 
0.0000000e+00 -8.5129368e-06 0.0000000e+00 
0.0000000e+00 -6.5234008e-06 0.0000000e+00 
0.0000000e+00 -1.1288467e-05 0.0000000e+00 
0.0000000e+00 5.4448359e-05 0.0000000e+00 
0.0000000e+00 1.3137485e-04 0.0000000e+00 
0.0000000e+00 -5.8196497e-04 0.0000000e+00 
2.6332086e-04 -1.6108264e-03 2.8417760e-04 
2.9404052e-06 4.9826212e-05 -8.7093777e-06 
1.0666764e-05 6.1441806e-06 4.9115133e-05 
1.0231833e-05 -6.5376305e-05 4.9627473e-05 
-2.2037744e-05 -5.5801764e-05 2.9900373e-06 
-2.2126927e-05 2.3546072e-06 -2.0147470e-05 
3.4991006e-06 3.2484215e-05 -2.3536844e-05 
4.4864963e-05 1.9105366e-06 1.2159077e-05 
1.8879695e-05 1.1088025e-05 5.4082306e-05 
-2.8937071e-04 -4.5434426e-04 2.4993962e-04 
-6.8781001e-04 -1.2899482e-03 8.8505047e-05 
-6.0973276e-04 -1.3874170e-03 -8.5625703e-05 
-1.4739342e-04 -3.0315778e-04 -2.1277783e-04 
7.0690057e-06 -2.4123696e-05 -7.3433286e-05 
-1.9148911e-05 -2.8453102e-05 -2.1375541e-05 
-2.1878364e-05 -1.0241066e-05 -1.0127361e-05 
3.3260885e-06 2.8581192e-06 -5.2193074e-05 
6.5515967e-05 5.3639495e-05 -2.1323458e-05 
4.9725357e-05 1.6609924e-04 1.7863198e-04 
-4.1145179e-04 -3.9463016e-04 8.2876364e-04 
0.0000000e+00 5.9034912e-05 0.0000000e+00 
0.0000000e+00 1.9504085e-05 0.0000000e+00 
0.0000000e+00 -7.4519558e-05 0.0000000e+00 
0.0000000e+00 -6.6275046e-05 0.0000000e+00 
0.0000000e+00 1.6476362e-05 0.0000000e+00 
0.0000000e+00 2.7776541e-05 0.0000000e+00 
0.0000000e+00 1.8917926e-05 0.0000000e+00 
0.0000000e+00 -2.4434770e-05 0.0000000e+00 
0.0000000e+00 -8.9494250e-04 0.0000000e+00 
0.0000000e+00 -2.2687044e-03 0.0000000e+00 
0.0000000e+00 -2.1108540e-03 0.0000000e+00 
0.0000000e+00 -5.7632150e-04 0.0000000e+00 
0.0000000e+00 -2.3954928e-05 0.0000000e+00 
0.0000000e+00 -1.2935410e-05 0.0000000e+00 
0.0000000e+00 -9.5987680e-06 0.0000000e+00 
0.0000000e+00 -1.4535722e-05 0.0000000e+00 
0.0000000e+00 6.0536880e-05 0.0000000e+00 
0.0000000e+00 2.8763074e-04 0.0000000e+00 
0.0000000e+00 -1.0428039e-03 0.0000000e+00 
-3.5295482e-06 1.2824281e-05 -2.8964441e-06 
-3.8201011e-07 2.4355356e-06 6.3793100e-06 
2.6777393e-06 -1.5699725e-05 1.3180803e-05 
-4.6720897e-06 -1.7544291e-05 6.5883492e-06 
-1.3685116e-05 -6.7422093e-07 2.5120826e-06 
-6.7310016e-06 8.9159348e-06 -4.0929876e-06 
1.0306735e-05 2.9378664e-06 -1.5996366e-06 
2.3517614e-05 1.8725765e-05 5.7394664e-06 
5.4325687e-05 -4.5955803e-05 -4.5387860e-06 
5.5286935e-05 -8.4498242e-05 -1.0162153e-05 
4.2040389e-05 -9.1083217e-05 7.6932820e-06 
3.8148446e-05 -6.2301020e-05 2.3324640e-06 
3.6718766e-06 -6.0676298e-06 -9.8782257e-06 
-1.0142346e-05 -7.3643819e-06 -8.3280429e-06 
-1.1834834e-05 -1.6131821e-06 -3.8478502e-06 
-1.0766631e-05 -3.0420817e-06 -4.0177255e-07 
7.7329150e-06 1.7579712e-05 6.3302100e-06 
5.6395835e-05 8.2078495e-06 5.6476765e-05 
3.2352073e-05 9.7957723e-05 1.2567993e-04 
0.0000000e+00 0.0000000e+00 0.0000000e+00 
0.0000000e+00 0.0000000e+00 0.0000000e+00 
0.0000000e+00 0.0000000e+00 0.0000000e+00 
0.0000000e+00 0.0000000e+00 0.0000000e+00 
0.0000000e+00 0.0000000e+00 0.0000000e+00 
0.0000000e+00 0.0000000e+00 0.0000000e+00 
0.0000000e+00 0.0000000e+00 0.0000000e+00 
0.0000000e+00 0.0000000e+00 0.0000000e+00 
0.0000000e+00 0.0000000e+00 0.0000000e+00 
0.0000000e+00 0.0000000e+00 0.0000000e+00 
0.0000000e+00 0.0000000e+00 0.0000000e+00 
0.0000000e+00 0.0000000e+00 0.0000000e+00 
0.0000000e+00 0.0000000e+00 0.0000000e+00 
0.0000000e+00 0.0000000e+00 0.0000000e+00 
0.0000000e+00 0.0000000e+00 0.0000000e+00 
0.0000000e+00 0.0000000e+00 0.0000000e+00 
0.0000000e+00 0.0000000e+00 0.0000000e+00 
0.0000000e+00 0.0000000e+00 0.0000000e+00 
0.0000000e+00 0.0000000e+00 0.0000000e+00 
0.0000000e+00 0.0000000e+00 0.0000000e+00 
0.0000000e+00 0.0000000e+00 0.0000000e+00 
0.0000000e+00 0.0000000e+00 0.0000000e+00 
0.0000000e+00 0.0000000e+00 0.0000000e+00 
0.0000000e+00 0.0000000e+00 0.0000000e+00 
0.0000000e+00 0.0000000e+00 0.0000000e+00 
0.0000000e+00 0.0000000e+00 0.0000000e+00 
0.0000000e+00 0.0000000e+00 0.0000000e+00 
0.0000000e+00 0.0000000e+00 0.0000000e+00 
0.0000000e+00 0.0000000e+00 0.0000000e+00 
0.0000000e+00 0.0000000e+00 0.0000000e+00 
0.0000000e+00 0.0000000e+00 0.0000000e+00 
0.0000000e+00 0.0000000e+00 0.0000000e+00 
0.0000000e+00 0.0000000e+00 0.0000000e+00 
0.0000000e+00 0.0000000e+00 0.0000000e+00 
0.0000000e+00 0.0000000e+00 0.0000000e+00 
0.0000000e+00 0.0000000e+00 0.0000000e+00 
0.0000000e+00 0.0000000e+00 0.0000000e+00 
0.0000000e+00 0.0000000e+00 0.0000000e+00 
0.0000000e+00 0.0000000e+00 0.0000000e+00 
0.0000000e+00 0.0000000e+00 0.0000000e+00 
0.0000000e+00 0.0000000e+00 0.0000000e+00 
0.0000000e+00 0.0000000e+00 0.0000000e+00 
-1.6656305e-06 7.9028058e-07 2.0475500e-06 
-2.7706585e-06 -5.2352300e-07 -1.7906622e-06 
2.3553557e-06 -1.4521376e-06 -3.3745644e-06 
2.1273925e-05 -8.9443365e-06 3.1577404e-06 
8.1186117e-06 -3.5201465e-06 1.4794199e-06 
2.0248738e-06 -1.0169689e-06 8.2824334e-07 
-5.6083121e-07 2.2857944e-07 3.0828369e-06 
-3.7048442e-06 9.0631528e-07 9.6058432e-07 