# vtk DataFile Version 4.0
vtk output
ASCII
DATASET UNSTRUCTURED_GRID
POINTS 662 float
0.0000000e+00 0.0000000e+00 0.0000000e+00 
0.0000000e+00 0.0000000e+00 4.0000000e+01 
5.0000000e+00 0.0000000e+00 0.0000000e+00 
5.0000000e+00 0.0000000e+00 4.0000000e+01 
5.0000000e+00 1.0000000e+00 0.0000000e+00 
5.0000000e+00 1.0000000e+00 4.0000000e+01 
0.0000000e+00 1.0000000e+00 0.0000000e+00 
0.0000000e+00 1.0000000e+00 4.0000000e+01 
5.0000000e+00 2.0000000e+00 0.0000000e+00 
5.0000000e+00 2.0000000e+00 4.0000000e+01 
3.0000000e+00 2.0000000e+00 0.0000000e+00 
3.0000000e+00 2.0000000e+00 4.0000000e+01 
0.0000000e+00 2.0000000e+00 0.0000000e+00 
0.0000000e+00 2.0000000e+00 4.0000000e+01 
1.5000000e+00 3.0000000e+00 0.0000000e+00 
1.5000000e+00 3.0000000e+00 4.0000000e+01 
7.5000000e-01 3.0000000e+00 0.0000000e+00 
7.5000000e-01 3.0000000e+00 4.0000000e+01 
0.0000000e+00 3.0000000e+00 0.0000000e+00 
0.0000000e+00 3.0000000e+00 4.0000000e+01 
7.5000000e-01 3.0000000e+00 5.0000000e-01 
7.5000000e-01 3.0000000e+00 1.0000000e+00 
7.5000000e-01 3.0000000e+00 1.5000000e+00 
7.5000000e-01 3.0000000e+00 2.0000000e+00 
7.5000000e-01 3.0000000e+00 2.5000000e+00 
7.5000000e-01 3.0000000e+00 3.0000000e+00 
7.5000000e-01 3.0000000e+00 3.5000000e+00 
7.5000000e-01 3.0000000e+00 4.0000000e+00 
7.5000000e-01 3.0000000e+00 4.5000000e+00 
7.5000000e-01 3.0000000e+00 5.0000000e+00 
7.5000000e-01 3.0000000e+00 5.5000000e+00 
7.5000000e-01 3.0000000e+00 6.0000000e+00 
7.5000000e-01 3.0000000e+00 6.5000000e+00 
7.5000000e-01 3.0000000e+00 7.0000000e+00 
7.5000000e-01 3.0000000e+00 7.5000000e+00 
7.5000000e-01 3.0000000e+00 8.0000000e+00 
7.5000000e-01 3.0000000e+00 8.5000000e+00 
7.5000000e-01 3.0000000e+00 9.0000000e+00 
7.5000000e-01 3.0000000e+00 9.5000000e+00 
7.5000000e-01 3.0000000e+00 1.0000000e+01 
7.5000000e-01 3.0000000e+00 1.0500000e+01 
7.5000000e-01 3.0000000e+00 1.1000000e+01 
7.5000000e-01 3.0000000e+00 1.1500000e+01 
7.5000000e-01 3.0000000e+00 1.2000000e+01 
7.5000000e-01 3.0000000e+00 1.2500000e+01 
7.5000000e-01 3.0000000e+00 1.3000000e+01 
7.5000000e-01 3.0000000e+00 1.3500000e+01 
7.5000000e-01 3.0000000e+00 1.4000000e+01 
7.5000000e-01 3.0000000e+00 1.4500000e+01 
7.5000000e-01 3.0000000e+00 1.5000000e+01 
7.5000000e-01 3.0000000e+00 1.5500000e+01 
7.5000000e-01 3.0000000e+00 1.6000000e+01 
7.5000000e-01 3.0000000e+00 1.6500000e+01 
7.5000000e-01 3.0000000e+00 1.7000000e+01 
7.5000000e-01 3.0000000e+00 1.7500000e+01 
7.5000000e-01 3.0000000e+00 1.8000000e+01 
7.5000000e-01 3.0000000e+00 1.8500000e+01 
7.5000000e-01 3.0000000e+00 1.9000000e+01 
7.5000000e-01 3.0000000e+00 1.9500000e+01 
7.5000000e-01 3.0000000e+00 2.0000000e+01 
7.5000000e-01 3.0000000e+00 2.0500000e+01 
7.5000000e-01 3.0000000e+00 2.1000000e+01 
7.5000000e-01 3.0000000e+00 2.1500000e+01 
7.5000000e-01 3.0000000e+00 2.2000000e+01 
7.5000000e-01 3.0000000e+00 2.2500000e+01 
7.5000000e-01 3.0000000e+00 2.3000000e+01 
7.5000000e-01 3.0000000e+00 2.3500000e+01 
7.5000000e-01 3.0000000e+00 2.4000000e+01 
7.5000000e-01 3.0000000e+00 2.4500000e+01 
7.5000000e-01 3.0000000e+00 2.5000000e+01 
7.5000000e-01 3.0000000e+00 2.5500000e+01 
7.5000000e-01 3.0000000e+00 2.6000000e+01 
7.5000000e-01 3.0000000e+00 2.6500000e+01 
7.5000000e-01 3.0000000e+00 2.7000000e+01 
7.5000000e-01 3.0000000e+00 2.7500000e+01 
7.5000000e-01 3.0000000e+00 2.8000000e+01 
7.5000000e-01 3.0000000e+00 2.8500000e+01 
7.5000000e-01 3.0000000e+00 2.9000000e+01 
7.5000000e-01 3.0000000e+00 2.9500000e+01 
7.5000000e-01 3.0000000e+00 3.0000000e+01 
7.5000000e-01 3.0000000e+00 3.0500000e+01 
7.5000000e-01 3.0000000e+00 3.1000000e+01 
7.5000000e-01 3.0000000e+00 3.1500000e+01 
7.5000000e-01 3.0000000e+00 3.2000000e+01 
7.5000000e-01 3.0000000e+00 3.2500000e+01 
7.5000000e-01 3.0000000e+00 3.3000000e+01 
7.5000000e-01 3.0000000e+00 3.3500000e+01 
7.5000000e-01 3.0000000e+00 3.4000000e+01 
7.5000000e-01 3.0000000e+00 3.4500000e+01 
7.5000000e-01 3.0000000e+00 3.5000000e+01 
7.5000000e-01 3.0000000e+00 3.5500000e+01 
7.5000000e-01 3.0000000e+00 3.6000000e+01 
7.5000000e-01 3.0000000e+00 3.6500000e+01 
7.5000000e-01 3.0000000e+00 3.7000000e+01 
7.5000000e-01 3.0000000e+00 3.7500000e+01 
7.5000000e-01 3.0000000e+00 3.8000000e+01 
7.5000000e-01 3.0000000e+00 3.8500000e+01 
7.5000000e-01 3.0000000e+00 3.9000000e+01 
7.5000000e-01 3.0000000e+00 3.9500000e+01 
7.5000000e-01 3.0000000e+00 4.0500000e+01 
7.5000000e-01 3.0000000e+00 4.1000000e+01 
7.5000000e-01 3.0000000e+00 4.1500000e+01 
7.5000000e-01 3.0000000e+00 4.2000000e+01 
7.5000000e-01 3.0000000e+00 4.2500000e+01 
7.5000000e-01 3.0000000e+00 4.3000000e+01 
7.5000000e-01 3.0000000e+00 4.3500000e+01 
7.5000000e-01 3.0000000e+00 4.4000000e+01 
7.5000000e-01 3.0000000e+00 4.4500000e+01 
7.5000000e-01 3.0000000e+00 4.5000000e+01 
7.5000000e-01 3.0000000e+00 4.5500000e+01 
7.5000000e-01 3.0000000e+00 4.6000000e+01 
7.5000000e-01 3.0000000e+00 4.6500000e+01 
7.5000000e-01 3.0000000e+00 4.7000000e+01 
7.5000000e-01 3.0000000e+00 4.7500000e+01 
7.5000000e-01 3.0000000e+00 4.8000000e+01 
7.5000000e-01 3.0000000e+00 4.8500000e+01 
7.5000000e-01 3.0000000e+00 4.9000000e+01 
7.5000000e-01 3.0000000e+00 4.9500000e+01 
7.5000000e-01 3.0000000e+00 5.0000000e+01 
7.5000000e-01 3.0250001e+00 0.0000000e+00 
7.5000000e-01 3.0250001e+00 5.0000000e-01 
7.5000000e-01 3.0250001e+00 1.0000000e+00 
7.5000000e-01 3.0250001e+00 1.5000000e+00 
7.5000000e-01 3.0250001e+00 2.0000000e+00 
7.5000000e-01 3.0250001e+00 2.5000000e+00 
7.5000000e-01 3.0250001e+00 3.0000000e+00 
7.5000000e-01 3.0250001e+00 3.5000000e+00 
7.5000000e-01 3.0250001e+00 4.0000000e+00 
7.5000000e-01 3.0250001e+00 4.5000000e+00 
7.5000000e-01 3.0250001e+00 5.0000000e+00 
7.5000000e-01 3.0250001e+00 5.5000000e+00 
7.5000000e-01 3.0250001e+00 6.0000000e+00 
7.5000000e-01 3.0250001e+00 6.5000000e+00 
7.5000000e-01 3.0250001e+00 7.0000000e+00 
7.5000000e-01 3.0250001e+00 7.5000000e+00 
7.5000000e-01 3.0250001e+00 8.0000000e+00 
7.5000000e-01 3.0250001e+00 8.5000000e+00 
7.5000000e-01 3.0250001e+00 9.0000000e+00 
7.5000000e-01 3.0250001e+00 9.5000000e+00 
7.5000000e-01 3.0250001e+00 1.0000000e+01 
7.5000000e-01 3.0250001e+00 1.0500000e+01 
7.5000000e-01 3.0250001e+00 1.1000000e+01 
7.5000000e-01 3.0250001e+00 1.1500000e+01 
7.5000000e-01 3.0250001e+00 1.2000000e+01 
7.5000000e-01 3.0250001e+00 1.2500000e+01 
7.5000000e-01 3.0250001e+00 1.3000000e+01 
7.5000000e-01 3.0250001e+00 1.3500000e+01 
7.5000000e-01 3.0250001e+00 1.4000000e+01 
7.5000000e-01 3.0250001e+00 1.4500000e+01 
7.5000000e-01 3.0250001e+00 1.5000000e+01 
7.5000000e-01 3.0250001e+00 1.5500000e+01 
7.5000000e-01 3.0250001e+00 1.6000000e+01 
7.5000000e-01 3.0250001e+00 1.6500000e+01 
7.5000000e-01 3.0250001e+00 1.7000000e+01 
7.5000000e-01 3.0250001e+00 1.7500000e+01 
7.5000000e-01 3.0250001e+00 1.8000000e+01 
7.5000000e-01 3.0250001e+00 1.8500000e+01 
7.5000000e-01 3.0250001e+00 1.9000000e+01 
7.5000000e-01 3.0250001e+00 1.9500000e+01 
7.5000000e-01 3.0250001e+00 2.0000000e+01 
7.5000000e-01 3.0250001e+00 2.0500000e+01 
7.5000000e-01 3.0250001e+00 2.1000000e+01 
7.5000000e-01 3.0250001e+00 2.1500000e+01 
7.5000000e-01 3.0250001e+00 2.2000000e+01 
7.5000000e-01 3.0250001e+00 2.2500000e+01 
7.5000000e-01 3.0250001e+00 2.3000000e+01 
7.5000000e-01 3.0250001e+00 2.3500000e+01 
7.5000000e-01 3.0250001e+00 2.4000000e+01 
7.5000000e-01 3.0250001e+00 2.4500000e+01 
7.5000000e-01 3.0250001e+00 2.5000000e+01 
7.5000000e-01 3.0250001e+00 2.5500000e+01 
7.5000000e-01 3.0250001e+00 2.6000000e+01 
7.5000000e-01 3.0250001e+00 2.6500000e+01 
7.5000000e-01 3.0250001e+00 2.7000000e+01 
7.5000000e-01 3.0250001e+00 2.7500000e+01 
7.5000000e-01 3.0250001e+00 2.8000000e+01 
7.5000000e-01 3.0250001e+00 2.8500000e+01 
7.5000000e-01 3.0250001e+00 2.9000000e+01 
7.5000000e-01 3.0250001e+00 2.9500000e+01 
7.5000000e-01 3.0250001e+00 3.0000000e+01 
7.5000000e-01 3.0250001e+00 3.0500000e+01 
7.5000000e-01 3.0250001e+00 3.1000000e+01 
7.5000000e-01 3.0250001e+00 3.1500000e+01 
7.5000000e-01 3.0250001e+00 3.2000000e+01 
7.5000000e-01 3.0250001e+00 3.2500000e+01 
7.5000000e-01 3.0250001e+00 3.3000000e+01 
7.5000000e-01 3.0250001e+00 3.3500000e+01 
7.5000000e-01 3.0250001e+00 3.4000000e+01 
7.5000000e-01 3.0250001e+00 3.4500000e+01 
7.5000000e-01 3.0250001e+00 3.5000000e+01 
7.5000000e-01 3.0250001e+00 3.5500000e+01 
7.5000000e-01 3.0250001e+00 3.6000000e+01 
7.5000000e-01 3.0250001e+00 3.6500000e+01 
7.5000000e-01 3.0250001e+00 3.7000000e+01 
7.5000000e-01 3.0250001e+00 3.7500000e+01 
7.5000000e-01 3.0250001e+00 3.8000000e+01 
7.5000000e-01 3.0250001e+00 3.8500000e+01 
7.5000000e-01 3.0250001e+00 3.9000000e+01 
7.5000000e-01 3.0250001e+00 3.9500000e+01 
7.5000000e-01 3.0250001e+00 4.0000000e+01 
7.5000000e-01 3.0250001e+00 4.0500000e+01 
7.5000000e-01 3.0250001e+00 4.1000000e+01 
7.5000000e-01 3.0250001e+00 4.1500000e+01 
7.5000000e-01 3.0250001e+00 4.2000000e+01 
7.5000000e-01 3.0250001e+00 4.2500000e+01 
7.5000000e-01 3.0250001e+00 4.3000000e+01 
7.5000000e-01 3.0250001e+00 4.3500000e+01 
7.5000000e-01 3.0250001e+00 4.4000000e+01 
7.5000000e-01 3.0250001e+00 4.4500000e+01 
7.5000000e-01 3.0250001e+00 4.5000000e+01 
7.5000000e-01 3.0250001e+00 4.5500000e+01 
7.5000000e-01 3.0250001e+00 4.6000000e+01 
7.5000000e-01 3.0250001e+00 4.6500000e+01 
7.5000000e-01 3.0250001e+00 4.7000000e+01 
7.5000000e-01 3.0250001e+00 4.7500000e+01 
7.5000000e-01 3.0250001e+00 4.8000000e+01 
7.5000000e-01 3.0250001e+00 4.8500000e+01 
7.5000000e-01 3.0250001e+00 4.9000000e+01 
7.5000000e-01 3.0250001e+00 4.9500000e+01 
7.5000000e-01 3.0250001e+00 5.0000000e+01 
7.5000000e-01 3.0250001e+00 3.5750000e+01 
3.0000000e+00 2.0000000e+00 3.6000000e+01 
8.0487806e-01 3.0000000e+00 3.6000000e+01 
0.0000000e+00 0.0000000e+00 2.0000000e+00 
0.0000000e+00 0.0000000e+00 4.0000000e+00 
0.0000000e+00 0.0000000e+00 6.0000000e+00 
0.0000000e+00 0.0000000e+00 8.0000000e+00 
0.0000000e+00 0.0000000e+00 1.0000000e+01 
0.0000000e+00 0.0000000e+00 1.2000000e+01 
0.0000000e+00 0.0000000e+00 1.4000000e+01 
[...]
POINT_DATA 662
FIELD FieldData 3
DISPLACEMENT 3 662  float
0.0000000e+00 0.0000000e+00 0.0000000e+00 
0.0000000e+00 0.0000000e+00 0.0000000e+00 
0.0000000e+00 0.0000000e+00 0.0000000e+00 
0.0000000e+00 0.0000000e+00 0.0000000e+00 
2.0067337e-05 -2.4105504e-05 -3.2081491e-05 
-1.6459877e-07 -6.9917536e-07 -2.7618327e-08 
0.0000000e+00 -9.2986542e-05 0.0000000e+00 
0.0000000e+00 -1.6170934e-06 0.0000000e+00 
2.5151134e-05 -3.2017004e-05 -5.6710265e-05 
-3.6042456e-07 -8.7252306e-07 9.0530756e-07 
6.2592508e-06 -2.8726481e-05 -3.9322942e-05 
-5.5810682e-07 -1.9409192e-06 3.2349021e-07 
0.0000000e+00 -1.1646628e-04 0.0000000e+00 
0.0000000e+00 -3.9730176e-06 0.0000000e+00 
3.5055298e-05 3.8621984e-06 7.6270953e-05 
-6.0023729e-07 -9.2228238e-06 -2.3154353e-06 
1.9612480e-05 3.5953351e-05 2.2657003e-04 
4.7891700e-07 -7.6342167e-06 -6.1647199e-07 
0.0000000e+00 -5.0501687e-05 0.0000000e+00 
0.0000000e+00 -6.4172664e-06 0.0000000e+00 
-4.3039418e-05 -4.4516884e-05 1.8801710e-04 
-6.7185370e-05 -2.8580407e-04 1.2497038e-04 
-9.0180103e-05 -7.1580365e-04 2.1265200e-04 
-1.0665786e-04 -1.3737414e-03 2.3878414e-04 
-1.8657495e-04 -2.2492397e-03 1.2620199e-04 
-2.1945895e-04 -3.2443060e-03 1.3528782e-04 
-1.1856456e-04 -4.0381239e-03 9.9971177e-05 
-8.5506595e-05 -4.0679332e-03 1.1974163e-04 
-2.2935345e-04 -3.9001752e-03 5.3569885e-05 
-3.0217113e-04 -3.8994704e-03 4.2213123e-05 
-2.0697332e-04 -4.1687600e-03 1.1306060e-05 
-6.4860789e-05 -4.2024888e-03 -4.8632814e-05 
-1.0004773e-04 -3.5089960e-03 -1.5862528e-04 
-2.0257806e-04 -2.4792564e-03 -1.9673217e-04 
-1.9394611e-04 -1.5889215e-03 -1.8850437e-04 
-7.2203889e-05 -9.2114520e-04 -1.1811320e-04 
-4.5962832e-05 -5.0715089e-04 -1.5526025e-04 
-4.0354604e-05 -2.7401396e-04 -1.3912740e-04 
-3.1591531e-05 -1.5038573e-04 -1.3573169e-04 
-3.9891356e-06 -7.6713215e-05 -1.2233685e-04 
1.7931119e-05 -1.5465026e-05 -8.8816596e-05 
3.1943313e-05 4.4557924e-05 -4.9341190e-05 
2.1889295e-05 1.0048890e-04 -1.5338828e-05 
5.0634412e-06 1.4092815e-04 1.6158285e-05 
1.1869979e-06 1.5493247e-04 1.7722112e-05 
-3.6386180e-06 1.4633707e-04 1.3640677e-05 
-3.4835723e-06 1.2304350e-04 -1.0260455e-06 
2.3094897e-06 9.3656789e-05 -2.6017851e-05 
2.5963152e-07 6.6091154e-05 -4.0922248e-05 
5.8451169e-06 4.1009822e-05 -4.2822241e-05 
6.7008600e-06 1.7342090e-05 -3.2688971e-05 
6.3375801e-06 -5.2765299e-06 -1.4977110e-05 
4.9569762e-06 -2.7670796e-05 1.3264156e-05 
9.2201290e-06 -4.9464059e-05 3.1809468e-05 
7.5527764e-06 -7.0949573e-05 4.6521447e-05 
-7.0103224e-06 -8.6876033e-05 6.0962477e-05 
-2.4582041e-05 -9.2081871e-05 4.9645878e-05 
-2.9144947e-05 -8.8135705e-05 3.8857641e-05 
-1.9876728e-05 -8.1660364e-05 2.9140798e-05 
-2.2289441e-06 -1.0311898e-04 1.3509774e-05 
-3.6563717e-05 -1.9795714e-04 3.1263626e-05 
-5.7376128e-05 -4.1973277e-04 5.6169283e-05 
-7.8359990e-05 -8.4049569e-04 9.2409464e-05 
-1.1837924e-04 -1.5001196e-03 4.2866337e-05 
-2.2807359e-04 -2.4066579e-03 1.5933067e-04 
-2.1751932e-04 -3.3468821e-03 1.6367155e-04 
-1.2633197e-04 -3.9641871e-03 1.3683984e-04 
-1.0897820e-04 -3.8625635e-03 1.8422649e-04 
-2.6089145e-04 -3.7094657e-03 1.1332762e-04 
-3.2211066e-04 -3.7804972e-03 9.4812851e-05 
-2.1287501e-04 -4.0981979e-03 4.3808875e-05 
-7.8428398e-05 -4.0623518e-03 -1.3379966e-05 
-1.0620222e-04 -3.3197824e-03 -1.4645912e-04 
-2.0167191e-04 -2.3377400e-03 -1.9946066e-04 
-1.8863240e-04 -1.5024472e-03 -2.1363432e-04 
-8.2630089e-05 -8.7063195e-04 -1.5725655e-04 
-4.6786496e-05 -4.6249942e-04 -1.8042346e-04 
-2.7228018e-05 -2.1692815e-04 -1.4390098e-04 
-1.7866460e-05 -7.8240497e-05 -1.2114526e-04 
9.5358337e-06 -1.8393173e-07 -9.4507450e-05 
2.4416462e-05 4.5178629e-05 -6.1519117e-05 
3.5782854e-05 7.3872245e-05 -2.4155910e-05 
2.3281103e-05 9.1096044e-05 8.6096697e-06 
6.4052574e-06 9.6059375e-05 3.3051692e-05 
-1.3850021e-06 8.5392639e-05 3.8623308e-05 
-8.0197333e-06 6.2630243e-05 3.2826512e-05 
-8.4207913e-06 3.3823417e-05 2.0004392e-05 
-5.1598663e-06 5.6507338e-06 3.4227492e-06 
-4.1955700e-06 -1.5137491e-05 -5.7296297e-06 
-2.2846864e-06 -2.7365400e-05 -1.2563028e-05 
2.3133900e-06 -2.9802952e-05 -1.5680260e-05 
1.1851215e-06 -2.2926579e-05 -1.0323713e-05 
1.7033649e-06 -8.7587659e-06 -3.9292167e-06 
1.7425749e-06 6.8835002e-06 2.4611679e-06 
-6.9529045e-07 1.6167534e-05 6.4288311e-06 
-5.2612802e-07 1.6260978e-05 5.3123617e-06 
-5.6214833e-07 8.8902225e-06 2.2306315e-06 
-3.9345912e-07 -8.3211501e-07 -1.2306334e-06 
1.8463300e-08 -6.9053908e-06 -2.8394415e-06 
0.0000000e+00 -4.5500183e-06 0.0000000e+00 
0.0000000e+00 -3.3697887e-07 0.0000000e+00 
0.0000000e+00 2.5103475e-06 0.0000000e+00 
0.0000000e+00 3.1501881e-06 0.0000000e+00 
0.0000000e+00 2.3490027e-06 0.0000000e+00 
0.0000000e+00 1.3520172e-06 0.0000000e+00 
0.0000000e+00 7.6425090e-07 0.0000000e+00 
0.0000000e+00 3.5507585e-07 0.0000000e+00 
0.0000000e+00 -2.8866299e-07 0.0000000e+00 
0.0000000e+00 -1.0984024e-06 0.0000000e+00 
0.0000000e+00 -1.5367909e-06 0.0000000e+00 
0.0000000e+00 -1.1824322e-06 0.0000000e+00 
0.0000000e+00 -2.0816103e-07 0.0000000e+00 
0.0000000e+00 7.3882467e-07 0.0000000e+00 
0.0000000e+00 1.0918448e-06 0.0000000e+00 
0.0000000e+00 7.8876985e-07 0.0000000e+00 
0.0000000e+00 2.0675911e-07 0.0000000e+00 
0.0000000e+00 -2.3961408e-07 0.0000000e+00 
0.0000000e+00 -4.1356472e-07 0.0000000e+00 
0.0000000e+00 -4.3453014e-07 0.0000000e+00 
0.0000000e+00 3.6031175e-05 0.0000000e+00 
0.0000000e+00 -4.2924941e-05 0.0000000e+00 
0.0000000e+00 -2.8518980e-04 0.0000000e+00 
0.0000000e+00 -7.1817148e-04 0.0000000e+00 
0.0000000e+00 -1.3775628e-03 0.0000000e+00 
0.0000000e+00 -2.2617769e-03 0.0000000e+00 
0.0000000e+00 -3.2770135e-03 0.0000000e+00 
0.0000000e+00 -4.0625096e-03 0.0000000e+00 
0.0000000e+00 -4.0991162e-03 0.0000000e+00 
0.0000000e+00 -3.9142757e-03 0.0000000e+00 
0.0000000e+00 -3.9300299e-03 0.0000000e+00 
0.0000000e+00 -4.1888896e-03 0.0000000e+00 
0.0000000e+00 -4.2376430e-03 0.0000000e+00 
0.0000000e+00 -3.5274993e-03 0.0000000e+00 
0.0000000e+00 -2.4983243e-03 0.0000000e+00 
0.0000000e+00 -1.5913717e-03 0.0000000e+00 
0.0000000e+00 -9.2559605e-04 0.0000000e+00 
0.0000000e+00 -5.0705345e-04 0.0000000e+00 
0.0000000e+00 -2.7314323e-04 0.0000000e+00 
0.0000000e+00 -1.4921803e-04 0.0000000e+00 
0.0000000e+00 -7.5395939e-05 0.0000000e+00 
0.0000000e+00 -1.4789418e-05 0.0000000e+00 
0.0000000e+00 4.4959776e-05 0.0000000e+00 
0.0000000e+00 1.0044514e-04 0.0000000e+00 
0.0000000e+00 1.4016684e-04 0.0000000e+00 
0.0000000e+00 1.5475742e-04 0.0000000e+00 
0.0000000e+00 1.4637769e-04 0.0000000e+00 
0.0000000e+00 1.2314015e-04 0.0000000e+00 
0.0000000e+00 9.4086019e-05 0.0000000e+00 
0.0000000e+00 6.6238361e-05 0.0000000e+00 
0.0000000e+00 4.1024770e-05 0.0000000e+00 
0.0000000e+00 1.7339273e-05 0.0000000e+00 
0.0000000e+00 -5.4278598e-06 0.0000000e+00 
0.0000000e+00 -2.7745833e-05 0.0000000e+00 
0.0000000e+00 -4.9817667e-05 0.0000000e+00 
0.0000000e+00 -7.0921502e-05 0.0000000e+00 
0.0000000e+00 -8.6471060e-05 0.0000000e+00 
0.0000000e+00 -9.1761853e-05 0.0000000e+00 
0.0000000e+00 -8.6932465e-05 0.0000000e+00 
0.0000000e+00 -8.0934544e-05 0.0000000e+00 
0.0000000e+00 -1.0265501e-04 0.0000000e+00 
0.0000000e+00 -1.9697506e-04 0.0000000e+00 
0.0000000e+00 -4.2103967e-04 0.0000000e+00 
0.0000000e+00 -8.4243977e-04 0.0000000e+00 
0.0000000e+00 -1.5108065e-03 0.0000000e+00 
0.0000000e+00 -2.4155281e-03 0.0000000e+00 
0.0000000e+00 -3.3820057e-03 0.0000000e+00 
0.0000000e+00 -3.9881817e-03 0.0000000e+00 
0.0000000e+00 -3.8928119e-03 0.0000000e+00 
0.0000000e+00 -3.7230866e-03 0.0000000e+00 
0.0000000e+00 -3.8121580e-03 0.0000000e+00 
0.0000000e+00 -4.1195140e-03 0.0000000e+00 
0.0000000e+00 -4.0960880e-03 0.0000000e+00 
0.0000000e+00 -3.3359961e-03 0.0000000e+00 
0.0000000e+00 -2.3535392e-03 0.0000000e+00 
0.0000000e+00 -1.5041521e-03 0.0000000e+00 
0.0000000e+00 -8.7410840e-04 0.0000000e+00 
0.0000000e+00 -4.6224520e-04 0.0000000e+00 
0.0000000e+00 -2.1620796e-04 0.0000000e+00 
0.0000000e+00 -7.7249664e-05 0.0000000e+00 
0.0000000e+00 4.6617660e-07 0.0000000e+00 
0.0000000e+00 4.5710061e-05 0.0000000e+00 
0.0000000e+00 7.4145253e-05 0.0000000e+00 
0.0000000e+00 9.1197180e-05 0.0000000e+00 
0.0000000e+00 9.5717798e-05 0.0000000e+00 
0.0000000e+00 8.5306296e-05 0.0000000e+00 
0.0000000e+00 6.2652936e-05 0.0000000e+00 
0.0000000e+00 3.3838278e-05 0.0000000e+00 
0.0000000e+00 5.9124231e-06 0.0000000e+00 
0.0000000e+00 -1.5137885e-05 0.0000000e+00 
0.0000000e+00 -2.7248616e-05 0.0000000e+00 
0.0000000e+00 -2.9728513e-05 0.0000000e+00 
0.0000000e+00 -2.2765813e-05 0.0000000e+00 
0.0000000e+00 -8.6901500e-06 0.0000000e+00 
0.0000000e+00 6.5725162e-06 0.0000000e+00 
0.0000000e+00 1.5934424e-05 0.0000000e+00 
0.0000000e+00 1.6136135e-05 0.0000000e+00 
0.0000000e+00 8.9058794e-06 0.0000000e+00 
0.0000000e+00 -5.8375167e-07 0.0000000e+00 
0.0000000e+00 -6.7620817e-06 0.0000000e+00 
0.0000000e+00 -7.6189085e-06 0.0000000e+00 
0.0000000e+00 -4.5855468e-06 0.0000000e+00 
0.0000000e+00 -4.1575572e-07 0.0000000e+00 
0.0000000e+00 2.4523806e-06 0.0000000e+00 
0.0000000e+00 3.1475208e-06 0.0000000e+00 
0.0000000e+00 2.3837940e-06 0.0000000e+00 
0.0000000e+00 1.3802611e-06 0.0000000e+00 
0.0000000e+00 7.6081409e-07 0.0000000e+00 
0.0000000e+00 3.3285497e-07 0.0000000e+00 
0.0000000e+00 -2.9973751e-07 0.0000000e+00 
0.0000000e+00 -1.0853004e-06 0.0000000e+00 
0.0000000e+00 -1.5139683e-06 0.0000000e+00 
0.0000000e+00 -1.1723220e-06 0.0000000e+00 
0.0000000e+00 -2.1727031e-07 0.0000000e+00 
0.0000000e+00 7.2255722e-07 0.0000000e+00 
0.0000000e+00 1.0825902e-06 0.0000000e+00 
0.0000000e+00 7.8932885e-07 0.0000000e+00 
0.0000000e+00 2.1103124e-07 0.0000000e+00 
0.0000000e+00 -2.3663098e-07 0.0000000e+00 
0.0000000e+00 -4.1203907e-07 0.0000000e+00 
0.0000000e+00 -4.3324209e-07 0.0000000e+00 
0.0000000e+00 -2.7425300e-05 0.0000000e+00 
-1.2350329e-06 -4.0556606e-06 -7.7003136e-07 
8.4132307e-07 -2.4710122e-05 -1.1187647e-05 
0.0000000e+00 0.0000000e+00 0.0000000e+00 
0.0000000e+00 0.0000000e+00 0.0000000e+00 
0.0000000e+00 0.0000000e+00 0.0000000e+00 
0.0000000e+00 0.0000000e+00 0.0000000e+00 
0.0000000e+00 0.0000000e+00 0.0000000e+00 
0.0000000e+00 0.0000000e+00 0.0000000e+00 
0.0000000e+00 0.0000000e+00 0.0000000e+00 
0.0000000e+00 0.0000000e+00 0.0000000e+00 
0.0000000e+00 0.0000000e+00 0.0000000e+00 
0.0000000e+00 0.0000000e+00 0.0000000e+00 
0.0000000e+00 0.0000000e+00 0.0000000e+00 
0.0000000e+00 0.0000000e+00 0.0000000e+00 
0.0000000e+00 0.0000000e+00 0.0000000e+00 
0.0000000e+00 0.0000000e+00 0.0000000e+00 
0.0000000e+00 0.0000000e+00 0.0000000e+00 
0.0000000e+00 0.0000000e+00 0.0000000e+00 
0.0000000e+00 0.0000000e+00 0.0000000e+00 
0.0000000e+00 0.0000000e+00 0.0000000e+00 
0.0000000e+00 0.0000000e+00 0.0000000e+00 
0.0000000e+00 0.0000000e+00 0.0000000e+00 
0.0000000e+00 0.0000000e+00 0.0000000e+00 
0.0000000e+00 0.0000000e+00 0.0000000e+00 
0.0000000e+00 0.0000000e+00 0.0000000e+00 
0.0000000e+00 0.0000000e+00 0.0000000e+00 
0.0000000e+00 0.0000000e+00 0.0000000e+00 
0.0000000e+00 0.0000000e+00 0.0000000e+00 
0.0000000e+00 0.0000000e+00 0.0000000e+00 
0.0000000e+00 0.0000000e+00 0.0000000e+00 
0.0000000e+00 0.0000000e+00 0.0000000e+00 
0.0000000e+00 0.0000000e+00 0.0000000e+00 
0.0000000e+00 0.0000000e+00 0.0000000e+00 
0.0000000e+00 0.0000000e+00 0.0000000e+00 
0.0000000e+00 0.0000000e+00 0.0000000e+00 
0.0000000e+00 0.0000000e+00 0.0000000e+00 
0.0000000e+00 0.0000000e+00 0.0000000e+00 
0.0000000e+00 0.0000000e+00 0.0000000e+00 
0.0000000e+00 0.0000000e+00 0.0000000e+00 
0.0000000e+00 0.0000000e+00 0.0000000e+00 
0.0000000e+00 0.0000000e+00 0.0000000e+00 
0.0000000e+00 0.0000000e+00 0.0000000e+00 
0.0000000e+00 0.0000000e+00 0.0000000e+00 
0.0000000e+00 0.0000000e+00 0.0000000e+00 
3.2095078e-05 -9.7155123e-07 -2.4346074e-05 
5.9416972e-05 -4.5963875e-06 -1.4574656e-05 
3.9538936e-05 -7.7906770e-06 -4.9737417e-07 
1.0812219e-05 -9.8667024e-06 3.6001660e-07 
4.2223287e-06 -8.2676252e-06 1.1575588e-05 
-7.2162828e-07 4.4643753e-06 8.7482204e-06 
7.9950214e-06 6.2566446e-06 -6.4973988e-06 
3.4166026e-06 -2.7885819e-06 -1.2770834e-05 
1.4240145e-06 -6.0879847e-06 -3.5013788e-06 
1.2453946e-05 -9.9897507e-06 -4.3657105e-06 
3.4288791e-05 -2.1161395e-06 -3.8961543e-06 
4.8310754e-05 -1.0789952e-06 4.9271392e-07 
3.6729485e-05 -7.1664622e-06 1.6185725e-06 
1.1802725e-05 -1.4485701e-05 2.7510566e-06 
6.8214395e-06 -8.7042935e-07 8.4199437e-06 
2.2695942e-06 3.4589027e-06 9.3159579e-06 
1.5425157e-07 -1.1723971e-06 1.6354420e-06 
-6.1264342e-07 -1.6928080e-06 -1.3173047e-06 
3.4125910e-07 1.0371085e-06 3.0442811e-07 
0.0000000e+00 -2.1411946e-04 0.0000000e+00 
0.0000000e+00 -4.8730019e-04 0.0000000e+00 
0.0000000e+00 -5.1132258e-04 0.0000000e+00 
0.0000000e+00 -1.8460810e-04 0.0000000e+00 
0.0000000e+00 -2.7284537e-05 0.0000000e+00 
0.0000000e+00 3.8375463e-05 0.0000000e+00 
0.0000000e+00 1.6190055e-05 0.0000000e+00 
0.0000000e+00 3.0283049e-05 0.0000000e+00 
0.0000000e+00 -2.3981351e-05 0.0000000e+00 
0.0000000e+00 -3.6754253e-05 0.0000000e+00 
0.0000000e+00 -1.9878762e-04 0.0000000e+00 
0.0000000e+00 -4.7007806e-04 0.0000000e+00 
0.0000000e+00 -5.2543491e-04 0.0000000e+00 
0.0000000e+00 -1.8937943e-04 0.0000000e+00 
0.0000000e+00 -3.0141682e-06 0.0000000e+00 
0.0000000e+00 3.0660307e-05 0.0000000e+00 
0.0000000e+00 -4.4309636e-06 0.0000000e+00 
0.0000000e+00 -2.8897928e-06 0.0000000e+00 
0.0000000e+00 1.4716228e-06 0.0000000e+00 
2.5549714e-05 -1.9249035e-05 -2.7567310e-05 
2.4265688e-05 -5.7479403e-05 -4.6038978e-05 
-2.1144692e-07 -8.2080851e-07 -2.3588960e-07 
-2.1413781e-07 -1.3634534e-06 -4.6892339e-07 
3.1309584e-05 4.9008199e-06 -3.5357381e-05 
5.3570860e-05 7.2749076e-06 -1.3161338e-05 
3.3598972e-05 -1.1387402e-06 -4.6088331e-07 
4.5815373e-06 -6.6793691e-06 -1.0865936e-06 
2.7516995e-07 -1.3522369e-05 6.7642236e-06 
3.7436448e-06 7.5719950e-06 2.8194777e-06 
1.3678227e-05 1.0913245e-05 -2.1614890e-06 
-1.1604062e-06 -4.9952564e-06 -7.2872854e-06 
-6.2307668e-06 -8.6034097e-06 -6.4751343e-06 
1.7876673e-05 -1.1807040e-05 -9.5095766e-06 
3.6174104e-05 5.0462262e-07 -4.0701789e-06 
4.7676302e-05 1.9784802e-06 2.9383220e-06 
2.6580168e-05 -3.3797962e-06 1.1150248e-05 
-6.2214900e-07 -1.7798591e-05 -7.7612704e-08 
1.9238203e-06 -2.9275238e-06 2.8250238e-07 
4.3660889e-06 4.1241624e-06 1.0187550e-05 
2.2344334e-06 -3.7340351e-07 4.1250069e-06 
-7.8397341e-07 -1.9147481e-06 -4.4995508e-07 
7.6302669e-08 9.9846898e-07 -4.9183018e-07 
7.9827287e-06 -8.6767206e-05 -4.2528372e-05 
0.0000000e+00 -4.6424737e-04 0.0000000e+00 
0.0000000e+00 -1.1074507e-03 0.0000000e+00 
0.0000000e+00 -1.1495006e-03 0.0000000e+00 
0.0000000e+00 -3.5027461e-04 0.0000000e+00 
0.0000000e+00 -5.0884137e-05 0.0000000e+00 
0.0000000e+00 8.0202997e-05 0.0000000e+00 
0.0000000e+00 3.4024219e-05 0.0000000e+00 
0.0000000e+00 4.3807333e-05 0.0000000e+00 
0.0000000e+00 -5.2751046e-05 0.0000000e+00 
0.0000000e+00 -6.3049440e-05 0.0000000e+00 
0.0000000e+00 -4.4529620e-04 0.0000000e+00 
0.0000000e+00 -1.0551185e-03 0.0000000e+00 
0.0000000e+00 -1.1443041e-03 0.0000000e+00 
0.0000000e+00 -3.5272937e-04 0.0000000e+00 
0.0000000e+00 -8.7731615e-07 0.0000000e+00 
0.0000000e+00 5.8691872e-05 0.0000000e+00 
0.0000000e+00 -9.3801846e-06 0.0000000e+00 
0.0000000e+00 -9.0641097e-06 0.0000000e+00 
0.0000000e+00 6.6233115e-06 0.0000000e+00 
-2.7972328e-07 -2.7079589e-06 -4.7074673e-07 
-3.2830771e-04 -4.3562244e-04 2.7090497e-04 
-6.2944187e-04 -1.3424499e-03 1.1640644e-04 
-6.0587953e-04 -1.3835818e-03 -1.0690728e-04 
-1.7541382e-04 -3.0062580e-04 -2.2403314e-04 
3.4531047e-06 -7.1040406e-05 -1.4419224e-04 
1.9950186e-05 8.9325324e-05 3.0678559e-06 
3.8758685e-06 7.3679352e-05 -8.5133815e-06 
5.6153249e-06 -2.6011861e-05 9.8535411e-06 
8.4664089e-06 -1.0063712e-04 6.1637365e-05 
-1.4973672e-06 -3.9002400e-05 3.4936143e-05 
-2.7619352e-04 -4.3669061e-04 2.1115348e-04 
-6.5259734e-04 -1.1444958e-03 1.5654355e-04 
-6.0572178e-04 -1.3320538e-03 -4.8636353e-05 
-1.6599985e-04 -3.2817235e-04 -2.7481906e-04 
1.4804811e-05 -9.2753871e-06 -1.3072285e-04 
1.7482353e-05 5.5614393e-05 4.5517980e-05 
-9.1580359e-06 7.9630445e-06 2.1688500e-05 
2.7864521e-08 -1.9890304e-05 -1.3798505e-05 
1.4128598e-06 1.3800114e-05 7.1376244e-06 
0.0000000e+00 -8.1329717e-04 0.0000000e+00 
0.0000000e+00 -2.2341290e-03 0.0000000e+00 
0.0000000e+00 -2.1809163e-03 0.0000000e+00 
0.0000000e+00 -5.9090735e-04 0.0000000e+00 
0.0000000e+00 -6.5115237e-05 0.0000000e+00 
0.0000000e+00 1.3203535e-04 0.0000000e+00 
0.0000000e+00 6.7632682e-05 0.0000000e+00 
0.0000000e+00 4.0917894e-05 0.0000000e+00 
0.0000000e+00 -9.9946883e-05 0.0000000e+00 
0.0000000e+00 -6.8602145e-05 0.0000000e+00 
0.0000000e+00 -8.7243051e-04 0.0000000e+00 
0.0000000e+00 -2.1274469e-03 0.0000000e+00 
0.0000000e+00 -2.1383089e-03 0.0000000e+00 
0.0000000e+00 -5.7601306e-04 0.0000000e+00 
0.0000000e+00 1.4472713e-05 0.0000000e+00 
0.0000000e+00 8.9809539e-05 0.0000000e+00 
0.0000000e+00 -1.0796979e-06 0.0000000e+00 
0.0000000e+00 -1.9992880e-05 0.0000000e+00 
0.0000000e+00 1.3071432e-05 0.0000000e+00 
3.1711032e-05 -1.8027415e-05 -1.3814923e-05 
7.2382936e-05 -1.1479494e-04 1.4423477e-05 
6.9005509e-05 -9.0883819e-05 1.0870838e-05 
2.4880726e-05 -5.7542169e-05 -1.1362040e-05 
-1.3384128e-05 -1.2092958e-05 -1.5685511e-05 
1.1897559e-05 2.1476242e-05 -4.1358435e-06 
9.0086542e-06 1.6793461e-05 -7.5875923e-06 
-4.3444752e-06 -2.0568290e-05 5.9295769e-07 
-7.3742713e-06 -3.8418264e-05 1.1660595e-05 
1.5604090e-05 -3.5645453e-06 6.6491330e-06 
5.9809976e-05 -3.0582221e-05 -1.3080447e-06 
7.6511053e-05 -3.9460207e-05 5.8349810e-06 
4.1314899e-05 -7.1166265e-05 1.6964046e-05 
2.1291789e-05 -6.6752007e-05 -1.6509179e-05 
-1.0953575e-05 -6.6438215e-06 -1.5855148e-05 
5.3477816e-06 1.3561124e-05 7.7957375e-06 
9.1921811e-07 2.8333454e-06 9.6984713e-06 
9.3936478e-07 2.9976768e-06 -9.2319522e-07 
2.1274418e-06 -1.4680491e-05 -7.7285349e-06 
0.0000000e+00 0.0000000e+00 0.0000000e+00 
0.0000000e+00 0.0000000e+00 0.0000000e+00 
0.0000000e+00 0.0000000e+00 0.0000000e+00 
0.0000000e+00 0.0000000e+00 0.0000000e+00 
0.0000000e+00 0.0000000e+00 0.0000000e+00 
0.0000000e+00 0.0000000e+00 0.0000000e+00 
0.0000000e+00 0.0000000e+00 0.0000000e+00 
0.0000000e+00 0.0000000e+00 0.0000000e+00 
0.0000000e+00 0.0000000e+00 0.0000000e+00 
0.0000000e+00 0.0000000e+00 0.0000000e+00 
0.0000000e+00 0.0000000e+00 0.0000000e+00 
0.0000000e+00 0.0000000e+00 0.0000000e+00 
0.0000000e+00 0.0000000e+00 0.0000000e+00 
0.0000000e+00 0.0000000e+00 0.0000000e+00 
0.0000000e+00 0.0000000e+00 0.0000000e+00 
0.0000000e+00 0.0000000e+00 0.0000000e+00 
0.0000000e+00 0.0000000e+00 0.0000000e+00 
0.0000000e+00 0.0000000e+00 0.0000000e+00 
0.0000000e+00 0.0000000e+00 0.0000000e+00 
0.0000000e+00 0.0000000e+00 0.0000000e+00 
0.0000000e+00 0.0000000e+00 0.0000000e+00 
0.0000000e+00 0.0000000e+00 0.0000000e+00 
0.0000000e+00 0.0000000e+00 0.0000000e+00 
0.0000000e+00 0.0000000e+00 0.0000000e+00 
0.0000000e+00 0.0000000e+00 0.0000000e+00 
0.0000000e+00 0.0000000e+00 0.0000000e+00 
0.0000000e+00 0.0000000e+00 0.0000000e+00 
0.0000000e+00 0.0000000e+00 0.0000000e+00 
0.0000000e+00 0.0000000e+00 0.0000000e+00 
0.0000000e+00 0.0000000e+00 0.0000000e+00 
0.0000000e+00 0.0000000e+00 0.0000000e+00 
0.0000000e+00 0.0000000e+00 0.0000000e+00 
0.0000000e+00 0.0000000e+00 0.0000000e+00 
0.0000000e+00 0.0000000e+00 0.0000000e+00 
0.0000000e+00 0.0000000e+00 0.0000000e+00 
0.0000000e+00 0.0000000e+00 0.0000000e+00 
0.0000000e+00 0.0000000e+00 0.0000000e+00 
0.0000000e+00 0.0000000e+00 0.0000000e+00 
0.0000000e+00 0.0000000e+00 0.0000000e+00 
0.0000000e+00 0.0000000e+00 0.0000000e+00 
0.0000000e+00 0.0000000e+00 0.0000000e+00 
0.0000000e+00 0.0000000e+00 0.0000000e+00 
1.4638540e-05 -9.1502534e-06 -1.2065606e-05 
1.2773198e-06 1.1534638e-06 9.9614203e-07 
3.1049972e-06 1.4888137e-07 -7.0470710e-06 
2.3345912e-05 -4.9025352e-06 -8.1846771e-08 
1.9332567e-05 -1.0744656e-05 6.9904689e-07 
1.5667361e-05 -1.0485505e-05 -5.2995534e-07 
5.2439364e-06 -4.5003799e-06 4.1146300e-06 