# vtk DataFile Version 4.0
vtk output
ASCII
DATASET UNSTRUCTURED_GRID
POINTS 662 float
0.0000000e+00 0.0000000e+00 0.0000000e+00 
0.0000000e+00 0.0000000e+00 4.0000000e+01 
5.0000000e+00 0.0000000e+00 0.0000000e+00 
5.0000000e+00 0.0000000e+00 4.0000000e+01 
5.0000000e+00 1.0000000e+00 0.0000000e+00 
5.0000000e+00 1.0000000e+00 4.0000000e+01 
0.0000000e+00 1.0000000e+00 0.0000000e+00 
0.0000000e+00 1.0000000e+00 4.0000000e+01 
5.0000000e+00 2.0000000e+00 0.0000000e+00 
5.0000000e+00 2.0000000e+00 4.0000000e+01 
3.0000000e+00 2.0000000e+00 0.0000000e+00 
3.0000000e+00 2.0000000e+00 4.0000000e+01 
0.0000000e+00 2.0000000e+00 0.0000000e+00 
0.0000000e+00 2.0000000e+00 4.0000000e+01 
1.5000000e+00 3.0000000e+00 0.0000000e+00 
1.5000000e+00 3.0000000e+00 4.0000000e+01 
7.5000000e-01 3.0000000e+00 0.0000000e+00 
7.5000000e-01 3.0000000e+00 4.0000000e+01 
0.0000000e+00 3.0000000e+00 0.0000000e+00 
0.0000000e+00 3.0000000e+00 4.0000000e+01 
7.5000000e-01 3.0000000e+00 5.0000000e-01 
7.5000000e-01 3.0000000e+00 1.0000000e+00 
7.5000000e-01 3.0000000e+00 1.5000000e+00 
7.5000000e-01 3.0000000e+00 2.0000000e+00 
7.5000000e-01 3.0000000e+00 2.5000000e+00 
7.5000000e-01 3.0000000e+00 3.0000000e+00 
7.5000000e-01 3.0000000e+00 3.5000000e+00 
7.5000000e-01 3.0000000e+00 4.0000000e+00 
7.5000000e-01 3.0000000e+00 4.5000000e+00 
7.5000000e-01 3.0000000e+00 5.0000000e+00 
7.5000000e-01 3.0000000e+00 5.5000000e+00 
7.5000000e-01 3.0000000e+00 6.0000000e+00 
7.5000000e-01 3.0000000e+00 6.5000000e+00 
7.5000000e-01 3.0000000e+00 7.0000000e+00 
7.5000000e-01 3.0000000e+00 7.5000000e+00 
7.5000000e-01 3.0000000e+00 8.0000000e+00 
7.5000000e-01 3.0000000e+00 8.5000000e+00 
7.5000000e-01 3.0000000e+00 9.0000000e+00 
7.5000000e-01 3.0000000e+00 9.5000000e+00 
7.5000000e-01 3.0000000e+00 1.0000000e+01 
7.5000000e-01 3.0000000e+00 1.0500000e+01 
7.5000000e-01 3.0000000e+00 1.1000000e+01 
7.5000000e-01 3.0000000e+00 1.1500000e+01 
7.5000000e-01 3.0000000e+00 1.2000000e+01 
7.5000000e-01 3.0000000e+00 1.2500000e+01 
7.5000000e-01 3.0000000e+00 1.3000000e+01 
7.5000000e-01 3.0000000e+00 1.3500000e+01 
7.5000000e-01 3.0000000e+00 1.4000000e+01 
7.5000000e-01 3.0000000e+00 1.4500000e+01 
7.5000000e-01 3.0000000e+00 1.5000000e+01 
7.5000000e-01 3.0000000e+00 1.5500000e+01 
7.5000000e-01 3.0000000e+00 1.6000000e+01 
7.5000000e-01 3.0000000e+00 1.6500000e+01 
7.5000000e-01 3.0000000e+00 1.7000000e+01 
7.5000000e-01 3.0000000e+00 1.7500000e+01 
7.5000000e-01 3.0000000e+00 1.8000000e+01 
7.5000000e-01 3.0000000e+00 1.8500000e+01 
7.5000000e-01 3.0000000e+00 1.9000000e+01 
7.5000000e-01 3.0000000e+00 1.9500000e+01 
7.5000000e-01 3.0000000e+00 2.0000000e+01 
7.5000000e-01 3.0000000e+00 2.0500000e+01 
7.5000000e-01 3.0000000e+00 2.1000000e+01 
7.5000000e-01 3.0000000e+00 2.1500000e+01 
7.5000000e-01 3.0000000e+00 2.2000000e+01 
7.5000000e-01 3.0000000e+00 2.2500000e+01 
7.5000000e-01 3.0000000e+00 2.3000000e+01 
7.5000000e-01 3.0000000e+00 2.3500000e+01 
7.5000000e-01 3.0000000e+00 2.4000000e+01 
7.5000000e-01 3.0000000e+00 2.4500000e+01 
7.5000000e-01 3.0000000e+00 2.5000000e+01 
7.5000000e-01 3.0000000e+00 2.5500000e+01 
7.5000000e-01 3.0000000e+00 2.6000000e+01 
7.5000000e-01 3.0000000e+00 2.6500000e+01 
7.5000000e-01 3.0000000e+00 2.7000000e+01 
7.5000000e-01 3.0000000e+00 2.7500000e+01 
7.5000000e-01 3.0000000e+00 2.8000000e+01 
7.5000000e-01 3.0000000e+00 2.8500000e+01 
7.5000000e-01 3.0000000e+00 2.9000000e+01 
7.5000000e-01 3.0000000e+00 2.9500000e+01 
7.5000000e-01 3.0000000e+00 3.0000000e+01 
7.5000000e-01 3.0000000e+00 3.0500000e+01 
7.5000000e-01 3.0000000e+00 3.1000000e+01 
7.5000000e-01 3.0000000e+00 3.1500000e+01 
7.5000000e-01 3.0000000e+00 3.2000000e+01 
7.5000000e-01 3.0000000e+00 3.2500000e+01 
7.5000000e-01 3.0000000e+00 3.3000000e+01 
7.5000000e-01 3.0000000e+00 3.3500000e+01 
7.5000000e-01 3.0000000e+00 3.4000000e+01 
7.5000000e-01 3.0000000e+00 3.4500000e+01 
7.5000000e-01 3.0000000e+00 3.5000000e+01 
7.5000000e-01 3.0000000e+00 3.5500000e+01 
7.5000000e-01 3.0000000e+00 3.6000000e+01 
7.5000000e-01 3.0000000e+00 3.6500000e+01 
7.5000000e-01 3.0000000e+00 3.7000000e+01 
7.5000000e-01 3.0000000e+00 3.7500000e+01 
7.5000000e-01 3.0000000e+00 3.8000000e+01 
7.5000000e-01 3.0000000e+00 3.8500000e+01 
7.5000000e-01 3.0000000e+00 3.9000000e+01 
7.5000000e-01 3.0000000e+00 3.9500000e+01 
7.5000000e-01 3.0000000e+00 4.0500000e+01 
7.5000000e-01 3.0000000e+00 4.1000000e+01 
7.5000000e-01 3.0000000e+00 4.1500000e+01 
7.5000000e-01 3.0000000e+00 4.2000000e+01 
7.5000000e-01 3.0000000e+00 4.2500000e+01 
7.5000000e-01 3.0000000e+00 4.3000000e+01 
7.5000000e-01 3.0000000e+00 4.3500000e+01 
7.5000000e-01 3.0000000e+00 4.4000000e+01 
7.5000000e-01 3.0000000e+00 4.4500000e+01 
7.5000000e-01 3.0000000e+00 4.5000000e+01 
7.5000000e-01 3.0000000e+00 4.5500000e+01 
7.5000000e-01 3.0000000e+00 4.6000000e+01 
7.5000000e-01 3.0000000e+00 4.6500000e+01 
7.5000000e-01 3.0000000e+00 4.7000000e+01 
7.5000000e-01 3.0000000e+00 4.7500000e+01 
7.5000000e-01 3.0000000e+00 4.8000000e+01 
7.5000000e-01 3.0000000e+00 4.8500000e+01 
7.5000000e-01 3.0000000e+00 4.9000000e+01 
7.5000000e-01 3.0000000e+00 4.9500000e+01 
7.5000000e-01 3.0000000e+00 5.0000000e+01 
7.5000000e-01 3.0250001e+00 0.0000000e+00 
7.5000000e-01 3.0250001e+00 5.0000000e-01 
7.5000000e-01 3.0250001e+00 1.0000000e+00 
7.5000000e-01 3.0250001e+00 1.5000000e+00 
7.5000000e-01 3.0250001e+00 2.0000000e+00 
7.5000000e-01 3.0250001e+00 2.5000000e+00 
7.5000000e-01 3.0250001e+00 3.0000000e+00 
7.5000000e-01 3.0250001e+00 3.5000000e+00 
7.5000000e-01 3.0250001e+00 4.0000000e+00 
7.5000000e-01 3.0250001e+00 4.5000000e+00 
7.5000000e-01 3.0250001e+00 5.0000000e+00 
7.5000000e-01 3.0250001e+00 5.5000000e+00 
7.5000000e-01 3.0250001e+00 6.0000000e+00 
7.5000000e-01 3.0250001e+00 6.5000000e+00 
7.5000000e-01 3.0250001e+00 7.0000000e+00 
7.5000000e-01 3.0250001e+00 7.5000000e+00 
7.5000000e-01 3.0250001e+00 8.0000000e+00 
7.5000000e-01 3.0250001e+00 8.5000000e+00 
7.5000000e-01 3.0250001e+00 9.0000000e+00 
7.5000000e-01 3.0250001e+00 9.5000000e+00 
7.5000000e-01 3.0250001e+00 1.0000000e+01 
7.5000000e-01 3.0250001e+00 1.0500000e+01 
7.5000000e-01 3.0250001e+00 1.1000000e+01 
7.5000000e-01 3.0250001e+00 1.1500000e+01 
7.5000000e-01 3.0250001e+00 1.2000000e+01 
7.5000000e-01 3.0250001e+00 1.2500000e+01 
7.5000000e-01 3.0250001e+00 1.3000000e+01 
7.5000000e-01 3.0250001e+00 1.3500000e+01 
7.5000000e-01 3.0250001e+00 1.4000000e+01 
7.5000000e-01 3.0250001e+00 1.4500000e+01 
7.5000000e-01 3.0250001e+00 1.5000000e+01 
7.5000000e-01 3.0250001e+00 1.5500000e+01 
7.5000000e-01 3.0250001e+00 1.6000000e+01 
7.5000000e-01 3.0250001e+00 1.6500000e+01 
7.5000000e-01 3.0250001e+00 1.7000000e+01 
7.5000000e-01 3.0250001e+00 1.7500000e+01 
7.5000000e-01 3.0250001e+00 1.8000000e+01 
7.5000000e-01 3.0250001e+00 1.8500000e+01 
7.5000000e-01 3.0250001e+00 1.9000000e+01 
7.5000000e-01 3.0250001e+00 1.9500000e+01 
7.5000000e-01 3.0250001e+00 2.0000000e+01 
7.5000000e-01 3.0250001e+00 2.0500000e+01 
7.5000000e-01 3.0250001e+00 2.1000000e+01 
7.5000000e-01 3.0250001e+00 2.1500000e+01 
7.5000000e-01 3.0250001e+00 2.2000000e+01 
7.5000000e-01 3.0250001e+00 2.2500000e+01 
7.5000000e-01 3.0250001e+00 2.3000000e+01 
7.5000000e-01 3.0250001e+00 2.3500000e+01 
7.5000000e-01 3.0250001e+00 2.4000000e+01 
7.5000000e-01 3.0250001e+00 2.4500000e+01 
7.5000000e-01 3.0250001e+00 2.5000000e+01 
7.5000000e-01 3.0250001e+00 2.5500000e+01 
7.5000000e-01 3.0250001e+00 2.6000000e+01 
7.5000000e-01 3.0250001e+00 2.6500000e+01 
7.5000000e-01 3.0250001e+00 2.7000000e+01 
7.5000000e-01 3.0250001e+00 2.7500000e+01 
7.5000000e-01 3.0250001e+00 2.8000000e+01 
7.5000000e-01 3.0250001e+00 2.8500000e+01 
7.5000000e-01 3.0250001e+00 2.9000000e+01 
7.5000000e-01 3.0250001e+00 2.9500000e+01 
7.5000000e-01 3.0250001e+00 3.0000000e+01 
7.5000000e-01 3.0250001e+00 3.0500000e+01 
7.5000000e-01 3.0250001e+00 3.1000000e+01 
7.5000000e-01 3.0250001e+00 3.1500000e+01 
7.5000000e-01 3.0250001e+00 3.2000000e+01 
7.5000000e-01 3.0250001e+00 3.2500000e+01 
7.5000000e-01 3.0250001e+00 3.3000000e+01 
7.5000000e-01 3.0250001e+00 3.3500000e+01 
7.5000000e-01 3.0250001e+00 3.4000000e+01 
7.5000000e-01 3.0250001e+00 3.4500000e+01 
7.5000000e-01 3.0250001e+00 3.5000000e+01 
7.5000000e-01 3.0250001e+00 3.5500000e+01 
7.5000000e-01 3.0250001e+00 3.6000000e+01 
7.5000000e-01 3.0250001e+00 3.6500000e+01 
7.5000000e-01 3.0250001e+00 3.7000000e+01 
7.5000000e-01 3.0250001e+00 3.7500000e+01 
7.5000000e-01 3.0250001e+00 3.8000000e+01 
7.5000000e-01 3.0250001e+00 3.8500000e+01 
7.5000000e-01 3.0250001e+00 3.9000000e+01 
7.5000000e-01 3.0250001e+00 3.9500000e+01 
7.5000000e-01 3.0250001e+00 4.0000000e+01 
7.5000000e-01 3.0250001e+00 4.0500000e+01 
7.5000000e-01 3.0250001e+00 4.1000000e+01 
7.5000000e-01 3.0250001e+00 4.1500000e+01 
7.5000000e-01 3.0250001e+00 4.2000000e+01 
7.5000000e-01 3.0250001e+00 4.2500000e+01 
7.5000000e-01 3.0250001e+00 4.3000000e+01 
7.5000000e-01 3.0250001e+00 4.3500000e+01 
7.5000000e-01 3.0250001e+00 4.4000000e+01 
7.5000000e-01 3.0250001e+00 4.4500000e+01 
7.5000000e-01 3.0250001e+00 4.5000000e+01 
7.5000000e-01 3.0250001e+00 4.5500000e+01 
7.5000000e-01 3.0250001e+00 4.6000000e+01 
7.5000000e-01 3.0250001e+00 4.6500000e+01 
7.5000000e-01 3.0250001e+00 4.7000000e+01 
7.5000000e-01 3.0250001e+00 4.7500000e+01 
7.5000000e-01 3.0250001e+00 4.8000000e+01 
7.5000000e-01 3.0250001e+00 4.8500000e+01 
7.5000000e-01 3.0250001e+00 4.9000000e+01 
7.5000000e-01 3.0250001e+00 4.9500000e+01 
7.5000000e-01 3.0250001e+00 5.0000000e+01 
7.5000000e-01 3.0250001e+00 3.5750000e+01 
3.0000000e+00 2.0000000e+00 3.6000000e+01 
8.0487806e-01 3.0000000e+00 3.6000000e+01 
0.0000000e+00 0.0000000e+00 2.0000000e+00 
0.0000000e+00 0.0000000e+00 4.0000000e+00 
0.0000000e+00 0.0000000e+00 6.0000000e+00 
0.0000000e+00 0.0000000e+00 8.0000000e+00 
0.0000000e+00 0.0000000e+00 1.0000000e+01 
0.0000000e+00 0.0000000e+00 1.2000000e+01 
0.0000000e+00 0.0000000e+00 1.4000000e+01 
[...]
POINT_DATA 662
FIELD FieldData 3
DISPLACEMENT 3 662  float
0.0000000e+00 0.0000000e+00 0.0000000e+00 
0.0000000e+00 0.0000000e+00 0.0000000e+00 
0.0000000e+00 0.0000000e+00 0.0000000e+00 
0.0000000e+00 0.0000000e+00 0.0000000e+00 
4.1210399e-07 -1.4949616e-06 2.2924751e-06 
6.6314860e-05 -1.9468402e-05 2.5765871e-06 
0.0000000e+00 1.5835301e-06 0.0000000e+00 
0.0000000e+00 -1.1857410e-03 0.0000000e+00 
2.0078769e-06 -2.7257206e-06 4.4091827e-08 
2.0495518e-05 1.6448717e-05 1.0907210e-05 
1.0616993e-06 -5.3055089e-07 -2.3344660e-06 
1.9994783e-05 -3.3588009e-04 2.3553343e-04 
0.0000000e+00 1.3675863e-05 0.0000000e+00 
0.0000000e+00 -2.9639401e-03 0.0000000e+00 
1.5819011e-06 1.0474140e-05 -2.5140191e-05 
-1.1375517e-03 -3.8057521e-03 1.1094376e-03 
-5.1387360e-06 5.3053460e-05 -1.9509740e-05 
-6.0817762e-04 -1.5003750e-02 2.8061329e-03 
0.0000000e+00 8.7869666e-06 0.0000000e+00 
0.0000000e+00 -6.8347361e-03 0.0000000e+00 
-5.4619782e-06 4.8745347e-05 -2.2836703e-05 
-4.7349104e-06 4.1541105e-05 -2.4288523e-05 
-7.1469037e-07 3.9002978e-05 -1.4607788e-05 
2.6337605e-06 4.5055644e-05 -8.1719490e-06 
7.4227451e-06 5.2394982e-05 3.8597977e-06 
8.1447733e-06 4.7983292e-05 1.5201306e-05 
9.9106837e-06 2.6904887e-05 2.9034618e-05 
5.7808206e-06 -1.9788426e-06 2.7986503e-05 
3.3230651e-07 -2.4593139e-05 3.6028578e-05 
9.9412819e-06 -3.5979596e-05 2.9863477e-05 
1.1359653e-05 -4.1571515e-05 2.7401189e-05 
1.2853613e-05 -5.2005023e-05 3.8190763e-05 
8.5643278e-06 -7.0945971e-05 3.3434451e-05 
-7.2109870e-06 -8.4977226e-05 2.5242680e-05 
1.1042016e-06 -7.8157253e-05 2.9924538e-05 
-1.3951086e-05 -5.5274733e-05 1.1771364e-05 
-1.3470122e-06 -2.7899039e-05 -2.3129252e-05 
-1.1939107e-05 -8.7868066e-06 -1.3372916e-05 
-1.8736206e-05 4.1843396e-06 -1.8849420e-05 
-7.5598923e-06 1.3644082e-05 -3.6362253e-05 
-2.8101931e-05 2.8141736e-05 -1.2452940e-08 
1.0395783e-06 5.1281968e-05 -2.0148645e-05 
-1.2385925e-05 7.1188450e-05 -4.2708558e-05 
9.5584655e-06 9.5283387e-05 -1.5675439e-05 
4.2569172e-05 1.1642019e-04 -3.4032415e-05 
4.6544787e-06 1.2383373e-04 -1.7558337e-05 
6.7469919e-05 1.1651993e-04 1.2251840e-05 
2.0344798e-05 1.1433302e-04 1.2967413e-05 
5.4086144e-05 1.3417864e-04 1.3418270e-05 
5.9001253e-05 1.6399210e-04 4.3040382e-05 
4.0619474e-05 1.8536513e-04 7.5910684e-05 
3.7612339e-05 1.1332379e-04 8.0035577e-05 
-4.7630423e-05 -9.1862021e-05 1.4479789e-04 
-8.5467218e-06 -4.0402455e-04 1.5419630e-04 
-9.8479439e-05 -8.3991024e-04 1.7956145e-04 
-1.0764015e-04 -1.4527473e-03 1.5225918e-04 
-2.5842874e-04 -2.3246766e-03 1.8889559e-04 
-3.1784998e-04 -3.3409521e-03 1.7835687e-04 
-1.9670719e-04 -4.2034197e-03 1.0188592e-04 
-1.9665490e-04 -4.2826696e-03 7.2714407e-05 
-3.0425354e-04 -4.0728464e-03 6.6860380e-06 
-3.8866772e-04 -3.9823498e-03 -3.6223602e-05 
-2.5921263e-04 -4.1858214e-03 -9.3504299e-05 
-1.0271650e-04 -4.1840645e-03 -1.4105489e-04 
-1.0251209e-04 -3.4498845e-03 -2.2411908e-04 
-1.7404307e-04 -2.3585588e-03 -2.3881676e-04 
-1.6106274e-04 -1.3974602e-03 -2.2303515e-04 
-2.1635718e-05 -6.7717268e-04 -1.4558672e-04 
1.9241335e-05 -2.3376456e-04 -1.4198580e-04 
4.7397170e-05 1.5416059e-05 -8.1723621e-05 
3.9227973e-05 1.3138333e-04 -2.2949489e-05 
3.7092843e-05 1.5107272e-04 2.6578877e-05 
2.4643130e-05 9.7758973e-05 3.7101614e-05 
-5.3802783e-06 1.3931633e-05 5.0256935e-05 
-1.8430708e-05 -5.9737711e-05 4.6334397e-05 
-4.2607830e-05 -1.0760866e-04 2.5300407e-05 
-6.2003353e-05 -1.2358988e-04 1.3710182e-05 
-3.8329425e-05 -1.1661310e-04 -1.0586702e-05 
-5.7070160e-05 -9.7695200e-05 -3.8706738e-05 
-1.7556527e-05 -7.4019561e-05 -4.2319542e-05 
-1.5595799e-05 -4.8812148e-05 -2.6693458e-05 
-3.2192506e-07 -1.5253172e-05 -4.3057669e-05 
2.2542063e-05 2.3761058e-05 -4.6121557e-05 
1.3011253e-05 6.9166912e-05 -3.2407079e-05 
7.0003567e-05 1.0519387e-04 -5.7171765e-05 
2.6194461e-05 1.2147529e-04 -7.8323519e-06 
7.6889475e-05 1.3083112e-04 4.1556985e-05 
4.4781460e-05 1.3320384e-04 2.9624125e-05 
1.6641345e-05 1.4882119e-04 5.9893184e-05 
7.8096782e-05 1.9386383e-04 8.9360663e-05 
-2.6403757e-05 2.6688917e-04 1.0197087e-04 
3.5583438e-05 2.7989657e-04 1.7740672e-04 
-4.6039357e-05 1.4941381e-04 2.3869476e-04 
-8.2869105e-05 -1.7496900e-04 2.9874005e-04 
-1.4626388e-04 -7.7876105e-04 4.4240372e-04 
-3.3379297e-04 -1.8318521e-03 8.1786991e-04 
-3.8434504e-04 -3.5740437e-03 1.0555544e-03 
-3.1900921e-04 -6.2262332e-03 1.1818649e-03 
-2.4677476e-05 -9.8679578e-03 5.7536375e-04 
0.0000000e+00 -2.0933235e-02 0.0000000e+00 
0.0000000e+00 -2.6737630e-02 0.0000000e+00 
0.0000000e+00 -3.1407762e-02 0.0000000e+00 
0.0000000e+00 -3.3885874e-02 0.0000000e+00 
0.0000000e+00 -3.3476632e-02 0.0000000e+00 
0.0000000e+00 -3.0711979e-02 0.0000000e+00 
0.0000000e+00 -2.6382573e-02 0.0000000e+00 
0.0000000e+00 -2.1184215e-02 0.0000000e+00 
0.0000000e+00 -1.5686721e-02 0.0000000e+00 
0.0000000e+00 -1.0343759e-02 0.0000000e+00 
0.0000000e+00 -5.5169277e-03 0.0000000e+00 
0.0000000e+00 -1.4706445e-03 0.0000000e+00 
0.0000000e+00 1.6598544e-03 0.0000000e+00 
0.0000000e+00 3.8822140e-03 0.0000000e+00 
0.0000000e+00 5.3117960e-03 0.0000000e+00 
0.0000000e+00 6.1097411e-03 0.0000000e+00 
0.0000000e+00 6.4421738e-03 0.0000000e+00 
0.0000000e+00 6.4773490e-03 0.0000000e+00 
0.0000000e+00 6.3898880e-03 0.0000000e+00 
0.0000000e+00 6.3357595e-03 0.0000000e+00 
0.0000000e+00 5.2803800e-05 0.0000000e+00 
0.0000000e+00 4.8730853e-05 0.0000000e+00 
0.0000000e+00 4.1639352e-05 0.0000000e+00 
0.0000000e+00 3.9529445e-05 0.0000000e+00 
0.0000000e+00 4.5379951e-05 0.0000000e+00 
0.0000000e+00 5.2060255e-05 0.0000000e+00 
0.0000000e+00 4.7397039e-05 0.0000000e+00 
0.0000000e+00 2.6554048e-05 0.0000000e+00 
0.0000000e+00 -1.7124740e-06 0.0000000e+00 
0.0000000e+00 -2.4079145e-05 0.0000000e+00 
0.0000000e+00 -3.5523299e-05 0.0000000e+00 
0.0000000e+00 -4.1795214e-05 0.0000000e+00 
0.0000000e+00 -5.2937539e-05 0.0000000e+00 
0.0000000e+00 -7.1264454e-05 0.0000000e+00 
0.0000000e+00 -8.4125830e-05 0.0000000e+00 
0.0000000e+00 -7.7743163e-05 0.0000000e+00 
0.0000000e+00 -5.4984615e-05 0.0000000e+00 
0.0000000e+00 -2.8518778e-05 0.0000000e+00 
0.0000000e+00 -9.0937410e-06 0.0000000e+00 
0.0000000e+00 3.8306321e-06 0.0000000e+00 
0.0000000e+00 1.4013303e-05 0.0000000e+00 
0.0000000e+00 2.8900511e-05 0.0000000e+00 
0.0000000e+00 5.0184928e-05 0.0000000e+00 
0.0000000e+00 7.1902527e-05 0.0000000e+00 
0.0000000e+00 9.5647258e-05 0.0000000e+00 
0.0000000e+00 1.1606574e-04 0.0000000e+00 
0.0000000e+00 1.2320063e-04 0.0000000e+00 
0.0000000e+00 1.1615508e-04 0.0000000e+00 
0.0000000e+00 1.1489508e-04 0.0000000e+00 
0.0000000e+00 1.3483934e-04 0.0000000e+00 
0.0000000e+00 1.6843301e-04 0.0000000e+00 
0.0000000e+00 1.8381323e-04 0.0000000e+00 
0.0000000e+00 1.0963121e-04 0.0000000e+00 
0.0000000e+00 -9.0618763e-05 0.0000000e+00 
0.0000000e+00 -4.0291317e-04 0.0000000e+00 
0.0000000e+00 -8.3805859e-04 0.0000000e+00 
0.0000000e+00 -1.4603634e-03 0.0000000e+00 
0.0000000e+00 -2.3344967e-03 0.0000000e+00 
0.0000000e+00 -3.3781738e-03 0.0000000e+00 
0.0000000e+00 -4.2251684e-03 0.0000000e+00 
0.0000000e+00 -4.3064454e-03 0.0000000e+00 
0.0000000e+00 -4.0855808e-03 0.0000000e+00 
0.0000000e+00 -4.0154574e-03 0.0000000e+00 
0.0000000e+00 -4.2079482e-03 0.0000000e+00 
0.0000000e+00 -4.2165597e-03 0.0000000e+00 
0.0000000e+00 -3.4663056e-03 0.0000000e+00 
0.0000000e+00 -2.3778351e-03 0.0000000e+00 
0.0000000e+00 -1.4010837e-03 0.0000000e+00 
0.0000000e+00 -6.8187551e-04 0.0000000e+00 
0.0000000e+00 -2.3266704e-04 0.0000000e+00 
0.0000000e+00 1.6517411e-05 0.0000000e+00 
0.0000000e+00 1.3211906e-04 0.0000000e+00 
0.0000000e+00 1.5071339e-04 0.0000000e+00 
0.0000000e+00 9.8065684e-05 0.0000000e+00 
0.0000000e+00 1.4800392e-05 0.0000000e+00 
0.0000000e+00 -5.9565347e-05 0.0000000e+00 
0.0000000e+00 -1.0671526e-04 0.0000000e+00 
0.0000000e+00 -1.2323266e-04 0.0000000e+00 
0.0000000e+00 -1.1690868e-04 0.0000000e+00 
0.0000000e+00 -9.7940487e-05 0.0000000e+00 
0.0000000e+00 -7.4543306e-05 0.0000000e+00 
0.0000000e+00 -4.8496466e-05 0.0000000e+00 
0.0000000e+00 -1.5491389e-05 0.0000000e+00 
0.0000000e+00 2.4480709e-05 0.0000000e+00 
0.0000000e+00 6.8912137e-05 0.0000000e+00 
0.0000000e+00 1.0436377e-04 0.0000000e+00 
0.0000000e+00 1.2258162e-04 0.0000000e+00 
0.0000000e+00 1.2955042e-04 0.0000000e+00 
0.0000000e+00 1.3255968e-04 0.0000000e+00 
0.0000000e+00 1.4969734e-04 0.0000000e+00 
0.0000000e+00 1.9831366e-04 0.0000000e+00 
0.0000000e+00 2.6794747e-04 0.0000000e+00 
0.0000000e+00 2.7907957e-04 0.0000000e+00 
0.0000000e+00 1.5059924e-04 0.0000000e+00 
0.0000000e+00 -1.7214805e-04 0.0000000e+00 
0.0000000e+00 -7.7604287e-04 0.0000000e+00 
0.0000000e+00 -1.8320682e-03 0.0000000e+00 
0.0000000e+00 -3.5756628e-03 0.0000000e+00 
0.0000000e+00 -6.2315986e-03 0.0000000e+00 
0.0000000e+00 -1.0003743e-02 0.0000000e+00 
0.0000000e+00 -1.5038568e-02 0.0000000e+00 
0.0000000e+00 -2.0932168e-02 0.0000000e+00 
0.0000000e+00 -2.6738668e-02 0.0000000e+00 
0.0000000e+00 -3.1409685e-02 0.0000000e+00 
0.0000000e+00 -3.3887360e-02 0.0000000e+00 
0.0000000e+00 -3.3479180e-02 0.0000000e+00 
0.0000000e+00 -3.0716354e-02 0.0000000e+00 
0.0000000e+00 -2.6387790e-02 0.0000000e+00 
0.0000000e+00 -2.1188842e-02 0.0000000e+00 
0.0000000e+00 -1.5690789e-02 0.0000000e+00 
0.0000000e+00 -1.0348522e-02 0.0000000e+00 
0.0000000e+00 -5.5229054e-03 0.0000000e+00 
0.0000000e+00 -1.4766558e-03 0.0000000e+00 
0.0000000e+00 1.6555769e-03 0.0000000e+00 
0.0000000e+00 3.8802654e-03 0.0000000e+00 
0.0000000e+00 5.3112502e-03 0.0000000e+00 
0.0000000e+00 6.1094724e-03 0.0000000e+00 
0.0000000e+00 6.4421827e-03 0.0000000e+00 
0.0000000e+00 6.4786039e-03 0.0000000e+00 
0.0000000e+00 6.3929544e-03 0.0000000e+00 
0.0000000e+00 6.3397437e-03 0.0000000e+00 
0.0000000e+00 2.8741107e-04 0.0000000e+00 
2.0506588e-05 1.5405887e-05 3.5202454e-05 
1.2718935e-05 2.6658195e-04 1.7183126e-04 
0.0000000e+00 0.0000000e+00 0.0000000e+00 
0.0000000e+00 0.0000000e+00 0.0000000e+00 
0.0000000e+00 0.0000000e+00 0.0000000e+00 
0.0000000e+00 0.0000000e+00 0.0000000e+00 
0.0000000e+00 0.0000000e+00 0.0000000e+00 
0.0000000e+00 0.0000000e+00 0.0000000e+00 
0.0000000e+00 0.0000000e+00 0.0000000e+00 
0.0000000e+00 0.0000000e+00 0.0000000e+00 
0.0000000e+00 0.0000000e+00 0.0000000e+00 
0.0000000e+00 0.0000000e+00 0.0000000e+00 
0.0000000e+00 0.0000000e+00 0.0000000e+00 
0.0000000e+00 0.0000000e+00 0.0000000e+00 
0.0000000e+00 0.0000000e+00 0.0000000e+00 
0.0000000e+00 0.0000000e+00 0.0000000e+00 
0.0000000e+00 0.0000000e+00 0.0000000e+00 
0.0000000e+00 0.0000000e+00 0.0000000e+00 
0.0000000e+00 0.0000000e+00 0.0000000e+00 
0.0000000e+00 0.0000000e+00 0.0000000e+00 
0.0000000e+00 0.0000000e+00 0.0000000e+00 
0.0000000e+00 0.0000000e+00 0.0000000e+00 
0.0000000e+00 0.0000000e+00 0.0000000e+00 
0.0000000e+00 0.0000000e+00 0.0000000e+00 
0.0000000e+00 0.0000000e+00 0.0000000e+00 
0.0000000e+00 0.0000000e+00 0.0000000e+00 
0.0000000e+00 0.0000000e+00 0.0000000e+00 
0.0000000e+00 0.0000000e+00 0.0000000e+00 
0.0000000e+00 0.0000000e+00 0.0000000e+00 
0.0000000e+00 0.0000000e+00 0.0000000e+00 
0.0000000e+00 0.0000000e+00 0.0000000e+00 
0.0000000e+00 0.0000000e+00 0.0000000e+00 
0.0000000e+00 0.0000000e+00 0.0000000e+00 
0.0000000e+00 0.0000000e+00 0.0000000e+00 
0.0000000e+00 0.0000000e+00 0.0000000e+00 
0.0000000e+00 0.0000000e+00 0.0000000e+00 
0.0000000e+00 0.0000000e+00 0.0000000e+00 
0.0000000e+00 0.0000000e+00 0.0000000e+00 
0.0000000e+00 0.0000000e+00 0.0000000e+00 
0.0000000e+00 0.0000000e+00 0.0000000e+00 
0.0000000e+00 0.0000000e+00 0.0000000e+00 
0.0000000e+00 0.0000000e+00 0.0000000e+00 
0.0000000e+00 0.0000000e+00 0.0000000e+00 
0.0000000e+00 0.0000000e+00 0.0000000e+00 
-2.4669100e-06 2.1310727e-06 1.3203176e-06 
-3.6425783e-06 3.4833922e-06 -6.7616747e-07 
1.5058899e-06 -4.7385106e-07 1.7006624e-06 
3.1873731e-06 -8.7609754e-07 5.3037893e-06 
-2.2966015e-06 -8.9120846e-07 6.9929574e-06 
-1.0114856e-05 1.9339248e-06 2.6812716e-06 
-4.2067495e-06 1.1744137e-06 -5.8770784e-06 
1.3135111e-05 -2.4647341e-06 -1.0301192e-05 
3.5989964e-05 -1.0213055e-05 -1.6411062e-05 
5.1634725e-05 -1.0007028e-05 -6.2678423e-06 
4.3863853e-05 -3.0495933e-06 7.2063444e-06 
1.7531396e-05 1.8049312e-06 5.2693367e-06 
3.8326102e-06 -3.0297890e-06 5.7010038e-06 
3.0517228e-06 -4.8804181e-06 2.4745393e-06 
-1.4680234e-06 9.2478382e-07 5.8183673e-06 
-1.1388913e-05 4.9961000e-06 3.1928907e-06 
-6.3052503e-06 3.9596707e-06 6.1839905e-06 
9.0032900e-06 8.5125640e-07 2.2253166e-06 
3.7581467e-05 -5.1058083e-07 -5.5997766e-06 
0.0000000e+00 2.0945541e-05 0.0000000e+00 
0.0000000e+00 4.8551346e-06 0.0000000e+00 
0.0000000e+00 -1.6042863e-05 0.0000000e+00 
0.0000000e+00 -2.0662137e-05 0.0000000e+00 
0.0000000e+00 -8.2065480e-07 0.0000000e+00 
0.0000000e+00 4.2170341e-05 0.0000000e+00 
0.0000000e+00 4.5893146e-05 0.0000000e+00 
0.0000000e+00 -2.3727916e-05 0.0000000e+00 
0.0000000e+00 -2.2743629e-04 0.0000000e+00 
0.0000000e+00 -5.8388425e-04 0.0000000e+00 
0.0000000e+00 -5.2759814e-04 0.0000000e+00 
0.0000000e+00 -1.0794456e-04 0.0000000e+00 
0.0000000e+00 3.4101344e-05 0.0000000e+00 
0.0000000e+00 -4.0165571e-05 0.0000000e+00 
0.0000000e+00 -2.1021429e-05 0.0000000e+00 
0.0000000e+00 3.4730736e-05 0.0000000e+00 
0.0000000e+00 2.3728884e-05 0.0000000e+00 
0.0000000e+00 8.9792811e-06 0.0000000e+00 
0.0000000e+00 -3.7677144e-04 0.0000000e+00 
-9.2332408e-07 -2.3975997e-07 1.7436861e-06 
-1.6846924e-06 4.3950818e-06 2.2591441e-06 
1.0447881e-04 -1.1865830e-04 6.3256972e-05 
2.5508221e-04 -7.7878474e-04 8.2566912e-05 
-1.4014080e-06 7.5189604e-07 1.1755019e-06 
-3.3194810e-06 2.5655413e-06 1.4042025e-06 
-1.1264505e-06 1.4521911e-06 3.4430159e-06 
4.2498618e-07 -4.4037970e-06 5.9058912e-06 
-2.1315161e-06 -4.5761135e-06 5.8943924e-06 
2.0627633e-06 2.5071540e-06 2.6345774e-06 
-1.5327938e-06 3.3618123e-06 -6.0115631e-06 
1.6061895e-05 -1.0983340e-06 -1.4553649e-05 
3.0368523e-05 -7.2001812e-06 -6.6815346e-06 
3.1020587e-05 -1.0041687e-05 -8.6921364e-06 
2.3145058e-05 -8.8031351e-07 1.9131560e-06 
1.3563411e-05 4.9927553e-06 -5.3890437e-07 
9.5010428e-06 -3.0090730e-06 7.8187059e-06 
-5.5892383e-06 -5.3148560e-06 7.9496658e-06 
-6.3093212e-06 -1.1179503e-06 1.6344306e-06 
-8.9941950e-06 1.8915205e-06 3.9152137e-06 
4.3299488e-07 -3.8373701e-06 5.4368047e-07 
2.1555921e-05 5.5030182e-06 7.4588306e-06 
1.8241893e-05 1.4022447e-05 2.5159497e-05 
-1.2621894e-07 8.8162024e-06 -4.5775528e-06 
0.0000000e+00 2.9101133e-05 0.0000000e+00 
0.0000000e+00 8.0862164e-06 0.0000000e+00 
0.0000000e+00 -3.9055139e-05 0.0000000e+00 
0.0000000e+00 -2.9459654e-05 0.0000000e+00 
0.0000000e+00 2.5002504e-05 0.0000000e+00 
0.0000000e+00 2.4719160e-05 0.0000000e+00 
0.0000000e+00 1.0159353e-04 0.0000000e+00 
0.0000000e+00 6.4719898e-05 0.0000000e+00 
0.0000000e+00 -5.3778960e-04 0.0000000e+00 
0.0000000e+00 -1.3069870e-03 0.0000000e+00 
0.0000000e+00 -1.1540713e-03 0.0000000e+00 
0.0000000e+00 -1.9215012e-04 0.0000000e+00 
0.0000000e+00 6.5350243e-05 0.0000000e+00 
0.0000000e+00 -7.0749993e-05 0.0000000e+00 
0.0000000e+00 -6.5003966e-05 0.0000000e+00 
0.0000000e+00 2.5388632e-05 0.0000000e+00 
0.0000000e+00 1.1091285e-04 0.0000000e+00 
0.0000000e+00 7.2050316e-05 0.0000000e+00 
0.0000000e+00 -6.9346523e-04 0.0000000e+00 
2.6467934e-04 -1.6211506e-03 2.6649504e-04 
-2.3325693e-07 3.6951780e-05 -1.0361302e-05 
6.2413865e-06 2.3705807e-06 4.2550615e-05 
1.1565918e-05 -5.7440480e-05 4.4606670e-05 
-1.5281697e-05 -4.6023728e-05 5.6186077e-06 
-1.2529110e-05 1.3448776e-05 -2.9052404e-05 
7.9335041e-06 6.2539984e-05 -5.1284675e-05 
7.1216287e-05 8.5801039e-05 1.1576230e-05 
3.8416685e-05 8.2130784e-05 1.2769319e-04 
-2.8089594e-04 -4.8469810e-04 3.4101840e-04 
-7.3136267e-04 -1.4315508e-03 8.6721266e-05 
-6.4679631e-04 -1.4338096e-03 -2.6846261e-04 
-7.8352852e-05 -1.4255228e-04 -2.8410050e-04 
5.1924137e-05 6.8584734e-05 5.0004164e-05 
-4.3787360e-05 -8.6967579e-05 4.3286211e-05 
-4.5458895e-05 -4.4972159e-05 -6.4770618e-05 
2.4582585e-05 3.6742076e-05 -6.7182358e-05 
7.5663018e-05 8.2457751e-05 3.5683144e-05 
2.8955159e-05 7.0888782e-05 2.0400804e-04 
-4.5170044e-04 -4.9227016e-04 8.0223975e-04 
0.0000000e+00 4.4947334e-05 0.0000000e+00 
0.0000000e+00 7.3200440e-06 0.0000000e+00 
0.0000000e+00 -3.8248767e-05 0.0000000e+00 
0.0000000e+00 -6.4746519e-06 0.0000000e+00 
0.0000000e+00 -4.6089253e-06 0.0000000e+00 
0.0000000e+00 1.6654601e-05 0.0000000e+00 
0.0000000e+00 1.7551496e-04 0.0000000e+00 
0.0000000e+00 1.2401484e-04 0.0000000e+00 
0.0000000e+00 -9.6635765e-04 0.0000000e+00 
0.0000000e+00 -2.5103509e-03 0.0000000e+00 
0.0000000e+00 -2.2264856e-03 0.0000000e+00 
0.0000000e+00 -3.4724624e-04 0.0000000e+00 
0.0000000e+00 1.4053193e-04 0.0000000e+00 
0.0000000e+00 -1.1770690e-04 0.0000000e+00 
0.0000000e+00 -8.5313564e-05 0.0000000e+00 
0.0000000e+00 8.7118002e-05 0.0000000e+00 
0.0000000e+00 1.9132403e-04 0.0000000e+00 
0.0000000e+00 1.7482882e-04 0.0000000e+00 
0.0000000e+00 -1.2834341e-03 0.0000000e+00 
-3.0746814e-06 1.0756730e-05 -3.2021203e-06 
-2.0001994e-06 2.0694763e-07 4.9954760e-06 
2.9579437e-06 -1.0825121e-05 1.2639073e-05 
-1.6530897e-06 -1.5262809e-05 7.9923338e-06 
-1.1363793e-05 -6.4585365e-06 3.1333107e-06 
-8.5315160e-06 1.9316187e-05 -7.0447268e-06 
8.3286723e-06 3.1746695e-05 3.7397729e-06 
2.7024265e-05 3.4780329e-05 2.1012258e-05 
5.4468048e-05 -6.8362271e-05 7.1439131e-06 
4.5389261e-05 -1.2793750e-04 -1.9385503e-05 
3.3569948e-05 -9.8235847e-05 -1.9352043e-05 
4.0557297e-05 -3.1686013e-05 -6.9416760e-06 
8.8218767e-06 1.6805430e-05 3.4714822e-06 
-8.7692788e-06 -2.1375374e-05 3.0090530e-06 
-1.2262439e-05 -1.0071062e-05 -4.1534081e-06 
-6.2936992e-06 9.5288078e-06 -1.5017157e-06 
6.5824465e-06 1.7670043e-05 1.1920451e-05 
5.2855183e-05 -7.8494631e-06 4.9026643e-05 
-4.1540711e-06 1.2538899e-05 1.3355598e-04 
0.0000000e+00 0.0000000e+00 0.0000000e+00 
0.0000000e+00 0.0000000e+00 0.0000000e+00 
0.0000000e+00 0.0000000e+00 0.0000000e+00 
0.0000000e+00 0.0000000e+00 0.0000000e+00 
0.0000000e+00 0.0000000e+00 0.0000000e+00 
0.0000000e+00 0.0000000e+00 0.0000000e+00 
0.0000000e+00 0.0000000e+00 0.0000000e+00 
0.0000000e+00 0.0000000e+00 0.0000000e+00 
0.0000000e+00 0.0000000e+00 0.0000000e+00 
0.0000000e+00 0.0000000e+00 0.0000000e+00 
0.0000000e+00 0.0000000e+00 0.0000000e+00 
0.0000000e+00 0.0000000e+00 0.0000000e+00 
0.0000000e+00 0.0000000e+00 0.0000000e+00 
0.0000000e+00 0.0000000e+00 0.0000000e+00 
0.0000000e+00 0.0000000e+00 0.0000000e+00 
0.0000000e+00 0.0000000e+00 0.0000000e+00 
0.0000000e+00 0.0000000e+00 0.0000000e+00 
0.0000000e+00 0.0000000e+00 0.0000000e+00 
0.0000000e+00 0.0000000e+00 0.0000000e+00 
0.0000000e+00 0.0000000e+00 0.0000000e+00 
0.0000000e+00 0.0000000e+00 0.0000000e+00 
0.0000000e+00 0.0000000e+00 0.0000000e+00 
0.0000000e+00 0.0000000e+00 0.0000000e+00 
0.0000000e+00 0.0000000e+00 0.0000000e+00 
0.0000000e+00 0.0000000e+00 0.0000000e+00 
0.0000000e+00 0.0000000e+00 0.0000000e+00 
0.0000000e+00 0.0000000e+00 0.0000000e+00 
0.0000000e+00 0.0000000e+00 0.0000000e+00 
0.0000000e+00 0.0000000e+00 0.0000000e+00 
0.0000000e+00 0.0000000e+00 0.0000000e+00 
0.0000000e+00 0.0000000e+00 0.0000000e+00 
0.0000000e+00 0.0000000e+00 0.0000000e+00 
0.0000000e+00 0.0000000e+00 0.0000000e+00 
0.0000000e+00 0.0000000e+00 0.0000000e+00 
0.0000000e+00 0.0000000e+00 0.0000000e+00 
0.0000000e+00 0.0000000e+00 0.0000000e+00 
0.0000000e+00 0.0000000e+00 0.0000000e+00 
0.0000000e+00 0.0000000e+00 0.0000000e+00 
0.0000000e+00 0.0000000e+00 0.0000000e+00 
0.0000000e+00 0.0000000e+00 0.0000000e+00 
0.0000000e+00 0.0000000e+00 0.0000000e+00 
0.0000000e+00 0.0000000e+00 0.0000000e+00 
-1.7454573e-06 7.4869564e-07 1.7408962e-06 
-2.8979671e-06 6.5915964e-07 -1.3770125e-06 
1.2129082e-06 1.3948713e-06 -2.2744973e-06 
1.8474424e-05 -5.7263524e-06 2.8830057e-06 
3.4724078e-06 -2.4437713e-06 1.8200560e-06 
1.5936929e-07 -2.0237908e-06 1.8741857e-06 
1.3361497e-06 -7.4297799e-07 3.2767966e-06 
-3.5550272e-06 1.1454873e-06 1.2341625e-06 
-5.6245017e-06 5.0749532e-06 2.8396469e-06 