# vtk DataFile Version 4.0
vtk output
ASCII
DATASET UNSTRUCTURED_GRID
POINTS 662 float
0.0000000e+00 0.0000000e+00 0.0000000e+00 
0.0000000e+00 0.0000000e+00 4.0000000e+01 
5.0000000e+00 0.0000000e+00 0.0000000e+00 
5.0000000e+00 0.0000000e+00 4.0000000e+01 
5.0000000e+00 1.0000000e+00 0.0000000e+00 
5.0000000e+00 1.0000000e+00 4.0000000e+01 
0.0000000e+00 1.0000000e+00 0.0000000e+00 
0.0000000e+00 1.0000000e+00 4.0000000e+01 
5.0000000e+00 2.0000000e+00 0.0000000e+00 
5.0000000e+00 2.0000000e+00 4.0000000e+01 
3.0000000e+00 2.0000000e+00 0.0000000e+00 
3.0000000e+00 2.0000000e+00 4.0000000e+01 
0.0000000e+00 2.0000000e+00 0.0000000e+00 
0.0000000e+00 2.0000000e+00 4.0000000e+01 
1.5000000e+00 3.0000000e+00 0.0000000e+00 
1.5000000e+00 3.0000000e+00 4.0000000e+01 
7.5000000e-01 3.0000000e+00 0.0000000e+00 
7.5000000e-01 3.0000000e+00 4.0000000e+01 
0.0000000e+00 3.0000000e+00 0.0000000e+00 
0.0000000e+00 3.0000000e+00 4.0000000e+01 
7.5000000e-01 3.0000000e+00 5.0000000e-01 
7.5000000e-01 3.0000000e+00 1.0000000e+00 
7.5000000e-01 3.0000000e+00 1.5000000e+00 
7.5000000e-01 3.0000000e+00 2.0000000e+00 
7.5000000e-01 3.0000000e+00 2.5000000e+00 
7.5000000e-01 3.0000000e+00 3.0000000e+00 
7.5000000e-01 3.0000000e+00 3.5000000e+00 
7.5000000e-01 3.0000000e+00 4.0000000e+00 
7.5000000e-01 3.0000000e+00 4.5000000e+00 
7.5000000e-01 3.0000000e+00 5.0000000e+00 
7.5000000e-01 3.0000000e+00 5.5000000e+00 
7.5000000e-01 3.0000000e+00 6.0000000e+00 
7.5000000e-01 3.0000000e+00 6.5000000e+00 
7.5000000e-01 3.0000000e+00 7.0000000e+00 
7.5000000e-01 3.0000000e+00 7.5000000e+00 
7.5000000e-01 3.0000000e+00 8.0000000e+00 
7.5000000e-01 3.0000000e+00 8.5000000e+00 
7.5000000e-01 3.0000000e+00 9.0000000e+00 
7.5000000e-01 3.0000000e+00 9.5000000e+00 
7.5000000e-01 3.0000000e+00 1.0000000e+01 
7.5000000e-01 3.0000000e+00 1.0500000e+01 
7.5000000e-01 3.0000000e+00 1.1000000e+01 
7.5000000e-01 3.0000000e+00 1.1500000e+01 
7.5000000e-01 3.0000000e+00 1.2000000e+01 
7.5000000e-01 3.0000000e+00 1.2500000e+01 
7.5000000e-01 3.0000000e+00 1.3000000e+01 
7.5000000e-01 3.0000000e+00 1.3500000e+01 
7.5000000e-01 3.0000000e+00 1.4000000e+01 
7.5000000e-01 3.0000000e+00 1.4500000e+01 
7.5000000e-01 3.0000000e+00 1.5000000e+01 
7.5000000e-01 3.0000000e+00 1.5500000e+01 
7.5000000e-01 3.0000000e+00 1.6000000e+01 
7.5000000e-01 3.0000000e+00 1.6500000e+01 
7.5000000e-01 3.0000000e+00 1.7000000e+01 
7.5000000e-01 3.0000000e+00 1.7500000e+01 
7.5000000e-01 3.0000000e+00 1.8000000e+01 
7.5000000e-01 3.0000000e+00 1.8500000e+01 
7.5000000e-01 3.0000000e+00 1.9000000e+01 
7.5000000e-01 3.0000000e+00 1.9500000e+01 
7.5000000e-01 3.0000000e+00 2.0000000e+01 
7.5000000e-01 3.0000000e+00 2.0500000e+01 
7.5000000e-01 3.0000000e+00 2.1000000e+01 
7.5000000e-01 3.0000000e+00 2.1500000e+01 
7.5000000e-01 3.0000000e+00 2.2000000e+01 
7.5000000e-01 3.0000000e+00 2.2500000e+01 
7.5000000e-01 3.0000000e+00 2.3000000e+01 
7.5000000e-01 3.0000000e+00 2.3500000e+01 
7.5000000e-01 3.0000000e+00 2.4000000e+01 
7.5000000e-01 3.0000000e+00 2.4500000e+01 
7.5000000e-01 3.0000000e+00 2.5000000e+01 
7.5000000e-01 3.0000000e+00 2.5500000e+01 
7.5000000e-01 3.0000000e+00 2.6000000e+01 
7.5000000e-01 3.0000000e+00 2.6500000e+01 
7.5000000e-01 3.0000000e+00 2.7000000e+01 
7.5000000e-01 3.0000000e+00 2.7500000e+01 
7.5000000e-01 3.0000000e+00 2.8000000e+01 
7.5000000e-01 3.0000000e+00 2.8500000e+01 
7.5000000e-01 3.0000000e+00 2.9000000e+01 
7.5000000e-01 3.0000000e+00 2.9500000e+01 
7.5000000e-01 3.0000000e+00 3.0000000e+01 
7.5000000e-01 3.0000000e+00 3.0500000e+01 
7.5000000e-01 3.0000000e+00 3.1000000e+01 
7.5000000e-01 3.0000000e+00 3.1500000e+01 
7.5000000e-01 3.0000000e+00 3.2000000e+01 
7.5000000e-01 3.0000000e+00 3.2500000e+01 
7.5000000e-01 3.0000000e+00 3.3000000e+01 
7.5000000e-01 3.0000000e+00 3.3500000e+01 
7.5000000e-01 3.0000000e+00 3.4000000e+01 
7.5000000e-01 3.0000000e+00 3.4500000e+01 
7.5000000e-01 3.0000000e+00 3.5000000e+01 
7.5000000e-01 3.0000000e+00 3.5500000e+01 
7.5000000e-01 3.0000000e+00 3.6000000e+01 
7.5000000e-01 3.0000000e+00 3.6500000e+01 
7.5000000e-01 3.0000000e+00 3.7000000e+01 
7.5000000e-01 3.0000000e+00 3.7500000e+01 
7.5000000e-01 3.0000000e+00 3.8000000e+01 
7.5000000e-01 3.0000000e+00 3.8500000e+01 
7.5000000e-01 3.0000000e+00 3.9000000e+01 
7.5000000e-01 3.0000000e+00 3.9500000e+01 
7.5000000e-01 3.0000000e+00 4.0500000e+01 
7.5000000e-01 3.0000000e+00 4.1000000e+01 
7.5000000e-01 3.0000000e+00 4.1500000e+01 
7.5000000e-01 3.0000000e+00 4.2000000e+01 
7.5000000e-01 3.0000000e+00 4.2500000e+01 
7.5000000e-01 3.0000000e+00 4.3000000e+01 
7.5000000e-01 3.0000000e+00 4.3500000e+01 
7.5000000e-01 3.0000000e+00 4.4000000e+01 
7.5000000e-01 3.0000000e+00 4.4500000e+01 
7.5000000e-01 3.0000000e+00 4.5000000e+01 
7.5000000e-01 3.0000000e+00 4.5500000e+01 
7.5000000e-01 3.0000000e+00 4.6000000e+01 
7.5000000e-01 3.0000000e+00 4.6500000e+01 
7.5000000e-01 3.0000000e+00 4.7000000e+01 
7.5000000e-01 3.0000000e+00 4.7500000e+01 
7.5000000e-01 3.0000000e+00 4.8000000e+01 
7.5000000e-01 3.0000000e+00 4.8500000e+01 
7.5000000e-01 3.0000000e+00 4.9000000e+01 
7.5000000e-01 3.0000000e+00 4.9500000e+01 
7.5000000e-01 3.0000000e+00 5.0000000e+01 
7.5000000e-01 3.0250001e+00 0.0000000e+00 
7.5000000e-01 3.0250001e+00 5.0000000e-01 
7.5000000e-01 3.0250001e+00 1.0000000e+00 
7.5000000e-01 3.0250001e+00 1.5000000e+00 
7.5000000e-01 3.0250001e+00 2.0000000e+00 
7.5000000e-01 3.0250001e+00 2.5000000e+00 
7.5000000e-01 3.0250001e+00 3.0000000e+00 
7.5000000e-01 3.0250001e+00 3.5000000e+00 
7.5000000e-01 3.0250001e+00 4.0000000e+00 
7.5000000e-01 3.0250001e+00 4.5000000e+00 
7.5000000e-01 3.0250001e+00 5.0000000e+00 
7.5000000e-01 3.0250001e+00 5.5000000e+00 
7.5000000e-01 3.0250001e+00 6.0000000e+00 
7.5000000e-01 3.0250001e+00 6.5000000e+00 
7.5000000e-01 3.0250001e+00 7.0000000e+00 
7.5000000e-01 3.0250001e+00 7.5000000e+00 
7.5000000e-01 3.0250001e+00 8.0000000e+00 
7.5000000e-01 3.0250001e+00 8.5000000e+00 
7.5000000e-01 3.0250001e+00 9.0000000e+00 
7.5000000e-01 3.0250001e+00 9.5000000e+00 
7.5000000e-01 3.0250001e+00 1.0000000e+01 
7.5000000e-01 3.0250001e+00 1.0500000e+01 
7.5000000e-01 3.0250001e+00 1.1000000e+01 
7.5000000e-01 3.0250001e+00 1.1500000e+01 
7.5000000e-01 3.0250001e+00 1.2000000e+01 
7.5000000e-01 3.0250001e+00 1.2500000e+01 
7.5000000e-01 3.0250001e+00 1.3000000e+01 
7.5000000e-01 3.0250001e+00 1.3500000e+01 
7.5000000e-01 3.0250001e+00 1.4000000e+01 
7.5000000e-01 3.0250001e+00 1.4500000e+01 
7.5000000e-01 3.0250001e+00 1.5000000e+01 
7.5000000e-01 3.0250001e+00 1.5500000e+01 
7.5000000e-01 3.0250001e+00 1.6000000e+01 
7.5000000e-01 3.0250001e+00 1.6500000e+01 
7.5000000e-01 3.0250001e+00 1.7000000e+01 
7.5000000e-01 3.0250001e+00 1.7500000e+01 
7.5000000e-01 3.0250001e+00 1.8000000e+01 
7.5000000e-01 3.0250001e+00 1.8500000e+01 
7.5000000e-01 3.0250001e+00 1.9000000e+01 
7.5000000e-01 3.0250001e+00 1.9500000e+01 
7.5000000e-01 3.0250001e+00 2.0000000e+01 
7.5000000e-01 3.0250001e+00 2.0500000e+01 
7.5000000e-01 3.0250001e+00 2.1000000e+01 
7.5000000e-01 3.0250001e+00 2.1500000e+01 
7.5000000e-01 3.0250001e+00 2.2000000e+01 
7.5000000e-01 3.0250001e+00 2.2500000e+01 
7.5000000e-01 3.0250001e+00 2.3000000e+01 
7.5000000e-01 3.0250001e+00 2.3500000e+01 
7.5000000e-01 3.0250001e+00 2.4000000e+01 
7.5000000e-01 3.0250001e+00 2.4500000e+01 
7.5000000e-01 3.0250001e+00 2.5000000e+01 
7.5000000e-01 3.0250001e+00 2.5500000e+01 
7.5000000e-01 3.0250001e+00 2.6000000e+01 
7.5000000e-01 3.0250001e+00 2.6500000e+01 
7.5000000e-01 3.0250001e+00 2.7000000e+01 
7.5000000e-01 3.0250001e+00 2.7500000e+01 
7.5000000e-01 3.0250001e+00 2.8000000e+01 
7.5000000e-01 3.0250001e+00 2.8500000e+01 
7.5000000e-01 3.0250001e+00 2.9000000e+01 
7.5000000e-01 3.0250001e+00 2.9500000e+01 
7.5000000e-01 3.0250001e+00 3.0000000e+01 
7.5000000e-01 3.0250001e+00 3.0500000e+01 
7.5000000e-01 3.0250001e+00 3.1000000e+01 
7.5000000e-01 3.0250001e+00 3.1500000e+01 
7.5000000e-01 3.0250001e+00 3.2000000e+01 
7.5000000e-01 3.0250001e+00 3.2500000e+01 
7.5000000e-01 3.0250001e+00 3.3000000e+01 
7.5000000e-01 3.0250001e+00 3.3500000e+01 
7.5000000e-01 3.0250001e+00 3.4000000e+01 
7.5000000e-01 3.0250001e+00 3.4500000e+01 
7.5000000e-01 3.0250001e+00 3.5000000e+01 
7.5000000e-01 3.0250001e+00 3.5500000e+01 
7.5000000e-01 3.0250001e+00 3.6000000e+01 
7.5000000e-01 3.0250001e+00 3.6500000e+01 
7.5000000e-01 3.0250001e+00 3.7000000e+01 
7.5000000e-01 3.0250001e+00 3.7500000e+01 
7.5000000e-01 3.0250001e+00 3.8000000e+01 
7.5000000e-01 3.0250001e+00 3.8500000e+01 
7.5000000e-01 3.0250001e+00 3.9000000e+01 
7.5000000e-01 3.0250001e+00 3.9500000e+01 
7.5000000e-01 3.0250001e+00 4.0000000e+01 
7.5000000e-01 3.0250001e+00 4.0500000e+01 
7.5000000e-01 3.0250001e+00 4.1000000e+01 
7.5000000e-01 3.0250001e+00 4.1500000e+01 
7.5000000e-01 3.0250001e+00 4.2000000e+01 
7.5000000e-01 3.0250001e+00 4.2500000e+01 
7.5000000e-01 3.0250001e+00 4.3000000e+01 
7.5000000e-01 3.0250001e+00 4.3500000e+01 
7.5000000e-01 3.0250001e+00 4.4000000e+01 
7.5000000e-01 3.0250001e+00 4.4500000e+01 
7.5000000e-01 3.0250001e+00 4.5000000e+01 
7.5000000e-01 3.0250001e+00 4.5500000e+01 
7.5000000e-01 3.0250001e+00 4.6000000e+01 
7.5000000e-01 3.0250001e+00 4.6500000e+01 
7.5000000e-01 3.0250001e+00 4.7000000e+01 
7.5000000e-01 3.0250001e+00 4.7500000e+01 
7.5000000e-01 3.0250001e+00 4.8000000e+01 
7.5000000e-01 3.0250001e+00 4.8500000e+01 
7.5000000e-01 3.0250001e+00 4.9000000e+01 
7.5000000e-01 3.0250001e+00 4.9500000e+01 
7.5000000e-01 3.0250001e+00 5.0000000e+01 
7.5000000e-01 3.0250001e+00 3.5750000e+01 
3.0000000e+00 2.0000000e+00 3.6000000e+01 
8.0487806e-01 3.0000000e+00 3.6000000e+01 
0.0000000e+00 0.0000000e+00 2.0000000e+00 
0.0000000e+00 0.0000000e+00 4.0000000e+00 
0.0000000e+00 0.0000000e+00 6.0000000e+00 
0.0000000e+00 0.0000000e+00 8.0000000e+00 
0.0000000e+00 0.0000000e+00 1.0000000e+01 
0.0000000e+00 0.0000000e+00 1.2000000e+01 
0.0000000e+00 0.0000000e+00 1.4000000e+01 
[...]
POINT_DATA 662
FIELD FieldData 3
DISPLACEMENT 3 662  float
0.0000000e+00 0.0000000e+00 0.0000000e+00 
0.0000000e+00 0.0000000e+00 0.0000000e+00 
0.0000000e+00 0.0000000e+00 0.0000000e+00 
0.0000000e+00 0.0000000e+00 0.0000000e+00 
1.3228064e-05 -2.0034495e-05 -3.0355115e-05 
-1.8035024e-07 -7.4498445e-07 4.7935330e-08 
0.0000000e+00 -8.7389861e-05 0.0000000e+00 
0.0000000e+00 -1.4912604e-06 0.0000000e+00 
1.4785604e-05 -2.3675288e-05 -4.4715100e-05 
-3.2137621e-07 -8.2490243e-07 7.2853612e-07 
3.7429784e-06 -1.5998523e-05 -2.4175484e-05 
-5.3802563e-07 -1.9757579e-06 1.2984084e-07 
0.0000000e+00 -1.0928479e-05 0.0000000e+00 
0.0000000e+00 -3.1307557e-06 0.0000000e+00 
5.2602612e-05 2.3418826e-05 1.1038219e-04 
-3.8653866e-07 -7.6077595e-06 -2.3102575e-06 
2.7630698e-05 2.1084331e-04 2.4660534e-04 
3.7671333e-07 -6.5896847e-06 -4.2958831e-07 
0.0000000e+00 3.9089788e-05 0.0000000e+00 
0.0000000e+00 -4.9675468e-06 0.0000000e+00 
-4.8474762e-05 7.3642390e-05 1.9389113e-04 
-4.7421792e-05 -2.6583060e-04 1.2917713e-04 
-7.2779352e-05 -7.1898510e-04 2.4903213e-04 
-1.0253134e-04 -1.3023339e-03 2.2209794e-04 
-1.4570028e-04 -2.0665450e-03 1.3768861e-04 
-2.3888754e-04 -3.0092394e-03 1.3026698e-04 
-9.0533329e-05 -3.8498391e-03 1.2499704e-04 
-9.1560381e-05 -3.9543435e-03 1.1688273e-04 
-2.1365378e-04 -3.8086146e-03 7.2681956e-05 
-3.0030039e-04 -3.8006301e-03 4.8037411e-05 
-2.1904180e-04 -4.0953583e-03 1.2353705e-05 
-7.1716728e-05 -4.1792216e-03 -3.5169807e-05 
-1.1943159e-04 -3.5234420e-03 -1.4395098e-04 
-2.0193726e-04 -2.5076035e-03 -1.9307437e-04 
-2.0342213e-04 -1.6154731e-03 -1.8913201e-04 
-7.4716590e-05 -9.5535803e-04 -1.1822049e-04 
-3.7110331e-05 -5.4915273e-04 -1.6053714e-04 
-4.9979943e-05 -3.0298746e-04 -1.4191920e-04 
-1.8412982e-05 -1.4651124e-04 -1.3828333e-04 
-1.5623480e-06 -5.1152445e-05 -1.1907220e-04 
2.8088725e-05 -2.3208511e-06 -8.4935142e-05 
3.3355409e-05 3.0221487e-05 -4.8732749e-05 
2.0151914e-05 7.3871925e-05 -9.5239839e-06 
1.3603150e-06 1.2240905e-04 1.6615471e-05 
-1.7330798e-05 1.5337554e-04 2.0513669e-05 
4.2545425e-06 1.5592285e-04 1.5691261e-05 
-2.1623458e-05 1.2931772e-04 -1.5080452e-06 
8.7200415e-06 9.1859707e-05 -2.9517883e-05 
7.5234520e-06 6.1265091e-05 -3.8683214e-05 
-6.2804820e-06 4.3703534e-05 -4.6400004e-05 
2.1676251e-05 2.7927663e-05 -5.0187900e-05 
7.0672712e-07 2.0349558e-05 -1.6687771e-05 
2.8037313e-05 1.1015608e-05 -1.1235683e-05 
3.1373654e-06 -1.1315747e-05 2.1632728e-05 
3.5058103e-05 -3.9013110e-05 6.4121763e-05 
-7.0972228e-06 -7.9851772e-05 5.0696548e-05 
-5.7847104e-05 -1.0948489e-04 6.3023959e-05 
2.7409044e-06 -9.8675177e-05 4.6403169e-05 
-5.2001229e-05 -4.2073949e-05 2.7817825e-05 
1.5587448e-05 -3.2058542e-05 2.6450916e-05 
-3.3163302e-05 -1.6170538e-04 4.4000015e-05 
-6.7768757e-05 -4.5890134e-04 7.6422373e-05 
-8.4939573e-05 -9.4710960e-04 9.1597227e-05 
-1.2582011e-04 -1.5861805e-03 5.8914819e-05 
-2.0032695e-04 -2.3952266e-03 1.6362091e-04 
-2.4168905e-04 -3.2671599e-03 1.7432093e-04 
-1.0741308e-04 -3.9593736e-03 1.4768921e-04 
-1.2414453e-04 -3.9740447e-03 1.7049699e-04 
-2.7689410e-04 -3.8374676e-03 1.2232011e-04 
-3.1854652e-04 -3.8617470e-03 7.4515905e-05 
-2.1887748e-04 -4.1200188e-03 2.5565687e-05 
-8.1918857e-05 -4.0958407e-03 -2.2151888e-05 
-1.1032146e-04 -3.3830970e-03 -1.4941188e-04 
-2.0176548e-04 -2.3833036e-03 -2.0387636e-04 
-1.9057137e-04 -1.5364256e-03 -2.1325574e-04 
-8.2089398e-05 -8.9735142e-04 -1.5820930e-04 
-4.5391520e-05 -4.7155342e-04 -1.8174874e-04 
-2.4189199e-05 -2.0805918e-04 -1.4202415e-04 
-1.6659327e-05 -6.8162895e-05 -1.2108879e-04 
1.0874227e-05 8.3499333e-07 -9.1776914e-05 
2.4067698e-05 4.4256474e-05 -6.0467231e-05 
3.3732740e-05 7.8485726e-05 -2.1717953e-05 
2.1320693e-05 9.8102719e-05 1.1773576e-05 
4.8922548e-06 9.8876248e-05 3.5105299e-05 
-2.5988268e-06 8.3427214e-05 3.8959257e-05 
-8.7538556e-06 5.9761463e-05 3.1276901e-05 
-7.4685640e-06 3.1750162e-05 1.7641867e-05 
-4.6260379e-06 3.1325574e-06 -5.2011732e-08 
-3.2109078e-06 -1.8897354e-05 -7.1337090e-06 
-1.4752860e-06 -3.0158142e-05 -1.2539970e-05 
2.3256252e-06 -2.8981962e-05 -1.4220553e-05 
2.1802900e-06 -1.9395831e-05 -7.7583045e-06 
1.5932785e-06 -5.4146003e-06 -2.4165763e-06 
1.0762299e-06 8.2037113e-06 2.8686500e-06 
-6.6077149e-07 1.5863936e-05 5.7555908e-06 
-7.5537656e-07 1.5254094e-05 4.6771297e-06 
-3.9861951e-07 7.3910610e-06 1.5460173e-06 
-3.0639711e-07 -2.4344058e-06 -1.3821780e-06 
6.6046645e-08 -7.5216226e-06 -2.4965882e-06 
0.0000000e+00 -2.5590589e-06 0.0000000e+00 
0.0000000e+00 1.0132843e-06 0.0000000e+00 
0.0000000e+00 2.3191362e-06 0.0000000e+00 
0.0000000e+00 2.0143279e-06 0.0000000e+00 
0.0000000e+00 1.5630550e-06 0.0000000e+00 
0.0000000e+00 1.4908031e-06 0.0000000e+00 
0.0000000e+00 1.2496123e-06 0.0000000e+00 
0.0000000e+00 3.4568444e-07 0.0000000e+00 
0.0000000e+00 -8.6006725e-07 0.0000000e+00 
0.0000000e+00 -1.5308671e-06 0.0000000e+00 
0.0000000e+00 -1.2700117e-06 0.0000000e+00 
0.0000000e+00 -4.6056505e-07 0.0000000e+00 
0.0000000e+00 2.3568806e-07 0.0000000e+00 
0.0000000e+00 5.2057851e-07 0.0000000e+00 
0.0000000e+00 5.4621472e-07 0.0000000e+00 
0.0000000e+00 5.1643923e-07 0.0000000e+00 
0.0000000e+00 3.9719814e-07 0.0000000e+00 
0.0000000e+00 6.5207182e-08 0.0000000e+00 
0.0000000e+00 -3.8200344e-07 0.0000000e+00 
0.0000000e+00 -6.0688211e-07 0.0000000e+00 
0.0000000e+00 2.0590909e-04 0.0000000e+00 
0.0000000e+00 7.3553456e-05 0.0000000e+00 
0.0000000e+00 -2.6030210e-04 0.0000000e+00 
0.0000000e+00 -7.1581348e-04 0.0000000e+00 
0.0000000e+00 -1.3034052e-03 0.0000000e+00 
0.0000000e+00 -2.0819420e-03 0.0000000e+00 
0.0000000e+00 -3.0481634e-03 0.0000000e+00 
0.0000000e+00 -3.8726986e-03 0.0000000e+00 
0.0000000e+00 -3.9785872e-03 0.0000000e+00 
0.0000000e+00 -3.8206067e-03 0.0000000e+00 
0.0000000e+00 -3.8342013e-03 0.0000000e+00 
0.0000000e+00 -4.1172206e-03 0.0000000e+00 
0.0000000e+00 -4.2123483e-03 0.0000000e+00 
0.0000000e+00 -3.5404922e-03 0.0000000e+00 
0.0000000e+00 -2.5269985e-03 0.0000000e+00 
0.0000000e+00 -1.6196937e-03 0.0000000e+00 
0.0000000e+00 -9.5994829e-04 0.0000000e+00 
0.0000000e+00 -5.4799684e-04 0.0000000e+00 
0.0000000e+00 -3.0101999e-04 0.0000000e+00 
0.0000000e+00 -1.4591555e-04 0.0000000e+00 
0.0000000e+00 -5.1508490e-05 0.0000000e+00 
0.0000000e+00 -1.9415124e-06 0.0000000e+00 
0.0000000e+00 3.1620046e-05 0.0000000e+00 
0.0000000e+00 7.4377131e-05 0.0000000e+00 
0.0000000e+00 1.2194023e-04 0.0000000e+00 
0.0000000e+00 1.5311371e-04 0.0000000e+00 
0.0000000e+00 1.5491685e-04 0.0000000e+00 
0.0000000e+00 1.2936864e-04 0.0000000e+00 
0.0000000e+00 9.2594899e-05 0.0000000e+00 
0.0000000e+00 6.2111139e-05 0.0000000e+00 
0.0000000e+00 4.2911590e-05 0.0000000e+00 
0.0000000e+00 2.8494631e-05 0.0000000e+00 
0.0000000e+00 2.0140684e-05 0.0000000e+00 
0.0000000e+00 1.0310354e-05 0.0000000e+00 
0.0000000e+00 -9.9756244e-06 0.0000000e+00 
0.0000000e+00 -4.0794097e-05 0.0000000e+00 
0.0000000e+00 -8.0927821e-05 0.0000000e+00 
0.0000000e+00 -1.0837568e-04 0.0000000e+00 
0.0000000e+00 -9.3725670e-05 0.0000000e+00 
0.0000000e+00 -4.1076062e-05 0.0000000e+00 
0.0000000e+00 -3.4344393e-05 0.0000000e+00 
0.0000000e+00 -1.6248958e-04 0.0000000e+00 
0.0000000e+00 -4.6329424e-04 0.0000000e+00 
0.0000000e+00 -9.4510696e-04 0.0000000e+00 
0.0000000e+00 -1.5913310e-03 0.0000000e+00 
0.0000000e+00 -2.4043198e-03 0.0000000e+00 
0.0000000e+00 -3.3054273e-03 0.0000000e+00 
0.0000000e+00 -3.9847395e-03 0.0000000e+00 
0.0000000e+00 -4.0039113e-03 0.0000000e+00 
0.0000000e+00 -3.8504526e-03 0.0000000e+00 
0.0000000e+00 -3.8920098e-03 0.0000000e+00 
0.0000000e+00 -4.1410248e-03 0.0000000e+00 
0.0000000e+00 -4.1306554e-03 0.0000000e+00 
0.0000000e+00 -3.4011221e-03 0.0000000e+00 
0.0000000e+00 -2.4016481e-03 0.0000000e+00 
0.0000000e+00 -1.5383771e-03 0.0000000e+00 
0.0000000e+00 -8.9958822e-04 0.0000000e+00 
0.0000000e+00 -4.7126567e-04 0.0000000e+00 
0.0000000e+00 -2.0863384e-04 0.0000000e+00 
0.0000000e+00 -6.7480003e-05 0.0000000e+00 
0.0000000e+00 2.5905672e-06 0.0000000e+00 
0.0000000e+00 4.5204019e-05 0.0000000e+00 
0.0000000e+00 7.8111399e-05 0.0000000e+00 
0.0000000e+00 9.7760865e-05 0.0000000e+00 
0.0000000e+00 9.8877776e-05 0.0000000e+00 
0.0000000e+00 8.3704021e-05 0.0000000e+00 
0.0000000e+00 5.9629881e-05 0.0000000e+00 
0.0000000e+00 3.1527197e-05 0.0000000e+00 
0.0000000e+00 3.3939539e-06 0.0000000e+00 
0.0000000e+00 -1.8694787e-05 0.0000000e+00 
0.0000000e+00 -2.9912278e-05 0.0000000e+00 
0.0000000e+00 -2.9040202e-05 0.0000000e+00 
0.0000000e+00 -1.9366104e-05 0.0000000e+00 
0.0000000e+00 -5.3530612e-06 0.0000000e+00 
0.0000000e+00 7.9936335e-06 0.0000000e+00 
0.0000000e+00 1.5655258e-05 0.0000000e+00 
0.0000000e+00 1.5079298e-05 0.0000000e+00 
0.0000000e+00 7.4130480e-06 0.0000000e+00 
0.0000000e+00 -2.1192172e-06 0.0000000e+00 
0.0000000e+00 -7.3574111e-06 0.0000000e+00 
0.0000000e+00 -6.6228663e-06 0.0000000e+00 
0.0000000e+00 -2.6623900e-06 0.0000000e+00 
0.0000000e+00 9.2406128e-07 0.0000000e+00 
0.0000000e+00 2.3162750e-06 0.0000000e+00 
0.0000000e+00 2.0667947e-06 0.0000000e+00 
0.0000000e+00 1.5935931e-06 0.0000000e+00 
0.0000000e+00 1.4682909e-06 0.0000000e+00 
0.0000000e+00 1.2116602e-06 0.0000000e+00 
0.0000000e+00 3.4172916e-07 0.0000000e+00 
0.0000000e+00 -8.2715871e-07 0.0000000e+00 
0.0000000e+00 -1.5003816e-06 0.0000000e+00 
0.0000000e+00 -1.2728059e-06 0.0000000e+00 
0.0000000e+00 -4.8639413e-07 0.0000000e+00 
0.0000000e+00 2.1992726e-07 0.0000000e+00 
0.0000000e+00 5.3013946e-07 0.0000000e+00 
0.0000000e+00 5.6392406e-07 0.0000000e+00 
0.0000000e+00 5.1694701e-07 0.0000000e+00 
0.0000000e+00 3.7808132e-07 0.0000000e+00 
0.0000000e+00 4.8786063e-08 0.0000000e+00 
0.0000000e+00 -3.7638222e-07 0.0000000e+00 
0.0000000e+00 -5.8752744e-07 0.0000000e+00 
0.0000000e+00 -2.5089041e-05 0.0000000e+00 
-1.3932620e-06 -4.0891609e-06 -8.7456198e-07 
-9.7818520e-07 -2.2518409e-05 -9.6894755e-06 
0.0000000e+00 0.0000000e+00 0.0000000e+00 
0.0000000e+00 0.0000000e+00 0.0000000e+00 
0.0000000e+00 0.0000000e+00 0.0000000e+00 
0.0000000e+00 0.0000000e+00 0.0000000e+00 
0.0000000e+00 0.0000000e+00 0.0000000e+00 
0.0000000e+00 0.0000000e+00 0.0000000e+00 
0.0000000e+00 0.0000000e+00 0.0000000e+00 
0.0000000e+00 0.0000000e+00 0.0000000e+00 
0.0000000e+00 0.0000000e+00 0.0000000e+00 
0.0000000e+00 0.0000000e+00 0.0000000e+00 
0.0000000e+00 0.0000000e+00 0.0000000e+00 
0.0000000e+00 0.0000000e+00 0.0000000e+00 
0.0000000e+00 0.0000000e+00 0.0000000e+00 
0.0000000e+00 0.0000000e+00 0.0000000e+00 
0.0000000e+00 0.0000000e+00 0.0000000e+00 
0.0000000e+00 0.0000000e+00 0.0000000e+00 
0.0000000e+00 0.0000000e+00 0.0000000e+00 
0.0000000e+00 0.0000000e+00 0.0000000e+00 
0.0000000e+00 0.0000000e+00 0.0000000e+00 
0.0000000e+00 0.0000000e+00 0.0000000e+00 
0.0000000e+00 0.0000000e+00 0.0000000e+00 
0.0000000e+00 0.0000000e+00 0.0000000e+00 
0.0000000e+00 0.0000000e+00 0.0000000e+00 
0.0000000e+00 0.0000000e+00 0.0000000e+00 
0.0000000e+00 0.0000000e+00 0.0000000e+00 
0.0000000e+00 0.0000000e+00 0.0000000e+00 
0.0000000e+00 0.0000000e+00 0.0000000e+00 
0.0000000e+00 0.0000000e+00 0.0000000e+00 
0.0000000e+00 0.0000000e+00 0.0000000e+00 
0.0000000e+00 0.0000000e+00 0.0000000e+00 
0.0000000e+00 0.0000000e+00 0.0000000e+00 
0.0000000e+00 0.0000000e+00 0.0000000e+00 
0.0000000e+00 0.0000000e+00 0.0000000e+00 
0.0000000e+00 0.0000000e+00 0.0000000e+00 
0.0000000e+00 0.0000000e+00 0.0000000e+00 
0.0000000e+00 0.0000000e+00 0.0000000e+00 
0.0000000e+00 0.0000000e+00 0.0000000e+00 
0.0000000e+00 0.0000000e+00 0.0000000e+00 
0.0000000e+00 0.0000000e+00 0.0000000e+00 
0.0000000e+00 0.0000000e+00 0.0000000e+00 
0.0000000e+00 0.0000000e+00 0.0000000e+00 
0.0000000e+00 0.0000000e+00 0.0000000e+00 
2.5406356e-05 4.2097754e-06 -2.3901177e-05 
5.4929777e-05 -1.2366244e-06 -1.2998304e-05 
3.8475020e-05 -8.0400732e-06 -3.4175139e-07 
1.1652564e-05 -8.7532171e-06 4.1331884e-07 
3.8806793e-06 -9.3034851e-06 1.0625478e-05 
-1.6041103e-06 2.7989920e-06 1.0009668e-05 
8.0243126e-06 7.8630910e-06 -5.3995300e-06 
2.7689862e-06 -6.4017627e-07 -1.3567884e-05 
1.4998101e-06 -2.4583242e-06 -2.9430919e-06 
1.0707327e-05 -8.5156680e-06 -4.2857923e-06 
3.3291955e-05 -2.1557532e-06 -4.5059328e-06 
4.6621910e-05 -2.9118905e-06 1.8431597e-07 
3.5961115e-05 -8.8753850e-06 6.7934383e-07 
1.1645065e-05 -1.5083723e-05 2.8847794e-06 
7.8928670e-06 8.5232479e-08 9.4559837e-06 
2.1973110e-06 3.4324792e-06 9.5338419e-06 
1.4032794e-07 -1.4617150e-06 1.1952565e-06 
-6.2782368e-07 -1.4895325e-06 -1.2248328e-06 
4.1294518e-07 1.0949522e-06 2.1079114e-07 
0.0000000e+00 -1.9304611e-04 0.0000000e+00 
0.0000000e+00 -4.2518813e-04 0.0000000e+00 
0.0000000e+00 -5.3649652e-04 0.0000000e+00 
0.0000000e+00 -1.9468654e-04 0.0000000e+00 
0.0000000e+00 -2.2273340e-05 0.0000000e+00 
0.0000000e+00 3.3679800e-05 0.0000000e+00 
0.0000000e+00 1.3370952e-05 0.0000000e+00 
0.0000000e+00 6.0172060e-05 0.0000000e+00 
0.0000000e+00 -3.6514281e-05 0.0000000e+00 
0.0000000e+00 -5.1032337e-05 0.0000000e+00 
0.0000000e+00 -1.7532721e-04 0.0000000e+00 
0.0000000e+00 -4.9424043e-04 0.0000000e+00 
0.0000000e+00 -5.4211583e-04 0.0000000e+00 
0.0000000e+00 -1.8564756e-04 0.0000000e+00 
0.0000000e+00 -3.0963154e-06 0.0000000e+00 
0.0000000e+00 3.1310050e-05 0.0000000e+00 
0.0000000e+00 -5.8208861e-06 0.0000000e+00 
0.0000000e+00 -1.9162931e-06 0.0000000e+00 
0.0000000e+00 1.3054132e-06 0.0000000e+00 
1.9346211e-05 -1.2920323e-05 -2.2407685e-05 
2.4787099e-05 -2.4654481e-05 -3.4008819e-05 
-2.0957749e-07 -8.3314325e-07 -2.7441754e-07 
-1.6998379e-07 -1.2737851e-06 -2.5052682e-07 
2.4538069e-05 -4.0973495e-07 -3.5004061e-05 
5.2873253e-05 9.1903985e-06 -1.5353036e-05 
3.7129234e-05 1.4558364e-07 2.4018730e-06 
5.2868550e-06 -4.2311126e-06 -1.7974629e-06 
2.4123849e-06 -1.3616198e-05 7.3183419e-06 
-3.9096165e-07 4.7890630e-06 4.9129844e-06 
1.2325655e-05 1.0520268e-05 -1.0543354e-06 
1.0882953e-06 -1.5775934e-06 -9.6844542e-06 
-3.3779118e-06 -5.1492930e-06 -8.2387351e-06 
1.7331698e-05 -6.8991635e-06 -8.5939892e-06 
3.2769836e-05 2.8032055e-06 -5.3914584e-07 
4.2321677e-05 -3.3177671e-06 -2.7264065e-07 
2.4602637e-05 -6.4121036e-06 9.1410075e-06 
-2.4416713e-07 -1.8338582e-05 1.3919633e-07 
2.6259611e-06 -1.7371968e-06 6.4505628e-07 
4.4223907e-06 4.4697927e-06 1.0866795e-05 
2.3244143e-06 -8.2096079e-07 3.4432994e-06 
-9.1116834e-07 -1.6725515e-06 -5.6489080e-07 
8.6274765e-09 9.7392171e-07 -3.7617110e-07 
6.7838632e-06 -5.7120073e-05 -2.2482987e-05 
0.0000000e+00 -4.4405850e-04 0.0000000e+00 
0.0000000e+00 -1.0816008e-03 0.0000000e+00 
0.0000000e+00 -1.1338060e-03 0.0000000e+00 
0.0000000e+00 -3.5545958e-04 0.0000000e+00 
0.0000000e+00 -5.8649963e-05 0.0000000e+00 
0.0000000e+00 8.6120861e-05 0.0000000e+00 
0.0000000e+00 1.4644949e-05 0.0000000e+00 
0.0000000e+00 2.9360064e-05 0.0000000e+00 
0.0000000e+00 2.5113524e-05 0.0000000e+00 
0.0000000e+00 -4.8264887e-05 0.0000000e+00 
0.0000000e+00 -5.0304021e-04 0.0000000e+00 
0.0000000e+00 -1.0730348e-03 0.0000000e+00 
0.0000000e+00 -1.1656005e-03 0.0000000e+00 
0.0000000e+00 -3.4769971e-04 0.0000000e+00 
0.0000000e+00 6.9995799e-08 0.0000000e+00 
0.0000000e+00 5.7900354e-05 0.0000000e+00 
0.0000000e+00 -1.2398760e-05 0.0000000e+00 
0.0000000e+00 -6.5929244e-06 0.0000000e+00 
0.0000000e+00 4.7380213e-06 0.0000000e+00 
-2.8649688e-07 -2.3661928e-06 -4.0572013e-07 
-3.1047084e-04 -4.2560796e-04 2.7362403e-04 
-6.0330919e-04 -1.2742436e-03 1.3407903e-04 
-5.9632293e-04 -1.3840300e-03 -9.7541255e-05 
-1.8031150e-04 -3.0198615e-04 -2.2705394e-04 
-4.5222309e-06 -8.1818522e-05 -1.4077827e-04 
2.7323256e-05 8.9494497e-05 6.5080362e-06 
-2.0644845e-06 7.7577453e-05 -1.5483987e-05 
1.0165943e-05 -1.9444095e-05 -2.6427956e-06 
1.7336450e-05 -7.7808487e-05 6.1637991e-05 
-1.6025198e-05 -5.2482530e-05 4.6307676e-05 
-2.6470303e-04 -4.2939521e-04 2.2076562e-04 
-6.5143465e-04 -1.1686711e-03 1.5996248e-04 
-6.1306992e-04 -1.3552385e-03 -6.5431821e-05 
-1.6542099e-04 -3.3073762e-04 -2.8168346e-04 
1.3195673e-05 -9.7332013e-06 -1.2838322e-04 
1.8430012e-05 6.0023165e-05 4.8322152e-05 
-9.7488892e-06 2.3934012e-06 1.8132316e-05 
1.4473161e-06 -1.5414107e-05 -1.2820173e-05 
1.0647051e-06 1.1781854e-05 7.0551364e-06 
0.0000000e+00 -7.8708393e-04 0.0000000e+00 
0.0000000e+00 -2.2085735e-03 0.0000000e+00 
0.0000000e+00 -2.2530383e-03 0.0000000e+00 
0.0000000e+00 -5.8632222e-04 0.0000000e+00 
0.0000000e+00 -4.2453677e-05 0.0000000e+00 
0.0000000e+00 1.1480113e-04 0.0000000e+00 
0.0000000e+00 2.5359683e-05 0.0000000e+00 
0.0000000e+00 1.1021271e-04 0.0000000e+00 
0.0000000e+00 -1.9492098e-05 0.0000000e+00 
0.0000000e+00 -1.1300202e-04 0.0000000e+00 
0.0000000e+00 -9.6866989e-04 0.0000000e+00 
0.0000000e+00 -2.1965497e-03 0.0000000e+00 
0.0000000e+00 -2.1889010e-03 0.0000000e+00 
0.0000000e+00 -5.7326327e-04 0.0000000e+00 
0.0000000e+00 1.4856117e-05 0.0000000e+00 
0.0000000e+00 9.1965507e-05 0.0000000e+00 
0.0000000e+00 -8.6628788e-06 0.0000000e+00 
0.0000000e+00 -1.4601346e-05 0.0000000e+00 
0.0000000e+00 1.0060752e-05 0.0000000e+00 
3.2291126e-05 -6.4800770e-07 -9.1076017e-06 
5.9437487e-05 -1.0739489e-04 1.6011294e-05 
6.7208486e-05 -9.3585346e-05 1.1619853e-05 
2.4814102e-05 -5.7560334e-05 -1.1846431e-05 
-1.3443557e-05 -7.9555693e-06 -1.4189889e-05 
9.9693543e-06 1.4914875e-05 -3.5938176e-06 
1.2066190e-05 1.8225768e-05 -7.2317330e-06 
-5.0952286e-07 -1.3173566e-05 -3.7424445e-06 
-9.0471367e-06 -3.8554361e-05 1.0827057e-05 
1.4810887e-05 -4.9848863e-06 8.6907512e-06 
5.6698114e-05 -3.0515468e-05 1.6558969e-06 
7.5907155e-05 -4.2990443e-05 5.9835888e-06 
3.9723171e-05 -7.6731238e-05 1.3511684e-05 
2.0326677e-05 -6.8848487e-05 -1.4950559e-05 
-9.1218380e-06 -6.3781154e-06 -1.4678991e-05 
4.7332119e-06 1.3863502e-05 8.0709315e-06 
1.0502071e-06 2.7756519e-06 9.1584679e-06 
1.0809354e-06 3.0862063e-06 -6.7547990e-07 
2.6522548e-06 -1.2271450e-05 -6.9002504e-06 
0.0000000e+00 0.0000000e+00 0.0000000e+00 
0.0000000e+00 0.0000000e+00 0.0000000e+00 
0.0000000e+00 0.0000000e+00 0.0000000e+00 
0.0000000e+00 0.0000000e+00 0.0000000e+00 
0.0000000e+00 0.0000000e+00 0.0000000e+00 
0.0000000e+00 0.0000000e+00 0.0000000e+00 
0.0000000e+00 0.0000000e+00 0.0000000e+00 
0.0000000e+00 0.0000000e+00 0.0000000e+00 
0.0000000e+00 0.0000000e+00 0.0000000e+00 
0.0000000e+00 0.0000000e+00 0.0000000e+00 
0.0000000e+00 0.0000000e+00 0.0000000e+00 
0.0000000e+00 0.0000000e+00 0.0000000e+00 
0.0000000e+00 0.0000000e+00 0.0000000e+00 
0.0000000e+00 0.0000000e+00 0.0000000e+00 
0.0000000e+00 0.0000000e+00 0.0000000e+00 
0.0000000e+00 0.0000000e+00 0.0000000e+00 
0.0000000e+00 0.0000000e+00 0.0000000e+00 
0.0000000e+00 0.0000000e+00 0.0000000e+00 
0.0000000e+00 0.0000000e+00 0.0000000e+00 
0.0000000e+00 0.0000000e+00 0.0000000e+00 
0.0000000e+00 0.0000000e+00 0.0000000e+00 
0.0000000e+00 0.0000000e+00 0.0000000e+00 
0.0000000e+00 0.0000000e+00 0.0000000e+00 
0.0000000e+00 0.0000000e+00 0.0000000e+00 
0.0000000e+00 0.0000000e+00 0.0000000e+00 
0.0000000e+00 0.0000000e+00 0.0000000e+00 
0.0000000e+00 0.0000000e+00 0.0000000e+00 
0.0000000e+00 0.0000000e+00 0.0000000e+00 
0.0000000e+00 0.0000000e+00 0.0000000e+00 
0.0000000e+00 0.0000000e+00 0.0000000e+00 
0.0000000e+00 0.0000000e+00 0.0000000e+00 
0.0000000e+00 0.0000000e+00 0.0000000e+00 
0.0000000e+00 0.0000000e+00 0.0000000e+00 
0.0000000e+00 0.0000000e+00 0.0000000e+00 
0.0000000e+00 0.0000000e+00 0.0000000e+00 
0.0000000e+00 0.0000000e+00 0.0000000e+00 
0.0000000e+00 0.0000000e+00 0.0000000e+00 
0.0000000e+00 0.0000000e+00 0.0000000e+00 
0.0000000e+00 0.0000000e+00 0.0000000e+00 
0.0000000e+00 0.0000000e+00 0.0000000e+00 
0.0000000e+00 0.0000000e+00 0.0000000e+00 
0.0000000e+00 0.0000000e+00 0.0000000e+00 
6.6141888e-06 -4.6462415e-06 -9.2934779e-06 
6.5769302e-07 1.4344114e-06 1.8675006e-06 
2.8580630e-06 7.7588277e-07 -8.0533400e-06 
2.3133016e-05 -4.1225308e-06 3.1197735e-07 
1.8254026e-05 -1.1390073e-05 2.5778297e-07 
1.5667219e-05 -1.1163264e-05 -5.4931559e-07 
5.6167373e-06 -4.1820836e-06 4.4039471e-06 
2.8508905e-06 1.2019908e-06 4.7378549e-06 