# vtk DataFile Version 4.0
vtk output
ASCII
DATASET UNSTRUCTURED_GRID
POINTS 662 float
0.0000000e+00 0.0000000e+00 0.0000000e+00 
0.0000000e+00 0.0000000e+00 4.0000000e+01 
5.0000000e+00 0.0000000e+00 0.0000000e+00 
5.0000000e+00 0.0000000e+00 4.0000000e+01 
5.0000000e+00 1.0000000e+00 0.0000000e+00 
5.0000000e+00 1.0000000e+00 4.0000000e+01 
0.0000000e+00 1.0000000e+00 0.0000000e+00 
0.0000000e+00 1.0000000e+00 4.0000000e+01 
5.0000000e+00 2.0000000e+00 0.0000000e+00 
5.0000000e+00 2.0000000e+00 4.0000000e+01 
3.0000000e+00 2.0000000e+00 0.0000000e+00 
3.0000000e+00 2.0000000e+00 4.0000000e+01 
0.0000000e+00 2.0000000e+00 0.0000000e+00 
0.0000000e+00 2.0000000e+00 4.0000000e+01 
1.5000000e+00 3.0000000e+00 0.0000000e+00 
1.5000000e+00 3.0000000e+00 4.0000000e+01 
7.5000000e-01 3.0000000e+00 0.0000000e+00 
7.5000000e-01 3.0000000e+00 4.0000000e+01 
0.0000000e+00 3.0000000e+00 0.0000000e+00 
0.0000000e+00 3.0000000e+00 4.0000000e+01 
7.5000000e-01 3.0000000e+00 5.0000000e-01 
7.5000000e-01 3.0000000e+00 1.0000000e+00 
7.5000000e-01 3.0000000e+00 1.5000000e+00 
7.5000000e-01 3.0000000e+00 2.0000000e+00 
7.5000000e-01 3.0000000e+00 2.5000000e+00 
7.5000000e-01 3.0000000e+00 3.0000000e+00 
7.5000000e-01 3.0000000e+00 3.5000000e+00 
7.5000000e-01 3.0000000e+00 4.0000000e+00 
7.5000000e-01 3.0000000e+00 4.5000000e+00 
7.5000000e-01 3.0000000e+00 5.0000000e+00 
7.5000000e-01 3.0000000e+00 5.5000000e+00 
7.5000000e-01 3.0000000e+00 6.0000000e+00 
7.5000000e-01 3.0000000e+00 6.5000000e+00 
7.5000000e-01 3.0000000e+00 7.0000000e+00 
7.5000000e-01 3.0000000e+00 7.5000000e+00 
7.5000000e-01 3.0000000e+00 8.0000000e+00 
7.5000000e-01 3.0000000e+00 8.5000000e+00 
7.5000000e-01 3.0000000e+00 9.0000000e+00 
7.5000000e-01 3.0000000e+00 9.5000000e+00 
7.5000000e-01 3.0000000e+00 1.0000000e+01 
7.5000000e-01 3.0000000e+00 1.0500000e+01 
7.5000000e-01 3.0000000e+00 1.1000000e+01 
7.5000000e-01 3.0000000e+00 1.1500000e+01 
7.5000000e-01 3.0000000e+00 1.2000000e+01 
7.5000000e-01 3.0000000e+00 1.2500000e+01 
7.5000000e-01 3.0000000e+00 1.3000000e+01 
7.5000000e-01 3.0000000e+00 1.3500000e+01 
7.5000000e-01 3.0000000e+00 1.4000000e+01 
7.5000000e-01 3.0000000e+00 1.4500000e+01 
7.5000000e-01 3.0000000e+00 1.5000000e+01 
7.5000000e-01 3.0000000e+00 1.5500000e+01 
7.5000000e-01 3.0000000e+00 1.6000000e+01 
7.5000000e-01 3.0000000e+00 1.6500000e+01 
7.5000000e-01 3.0000000e+00 1.7000000e+01 
7.5000000e-01 3.0000000e+00 1.7500000e+01 
7.5000000e-01 3.0000000e+00 1.8000000e+01 
7.5000000e-01 3.0000000e+00 1.8500000e+01 
7.5000000e-01 3.0000000e+00 1.9000000e+01 
7.5000000e-01 3.0000000e+00 1.9500000e+01 
7.5000000e-01 3.0000000e+00 2.0000000e+01 
7.5000000e-01 3.0000000e+00 2.0500000e+01 
7.5000000e-01 3.0000000e+00 2.1000000e+01 
7.5000000e-01 3.0000000e+00 2.1500000e+01 
7.5000000e-01 3.0000000e+00 2.2000000e+01 
7.5000000e-01 3.0000000e+00 2.2500000e+01 
7.5000000e-01 3.0000000e+00 2.3000000e+01 
7.5000000e-01 3.0000000e+00 2.3500000e+01 
7.5000000e-01 3.0000000e+00 2.4000000e+01 
7.5000000e-01 3.0000000e+00 2.4500000e+01 
7.5000000e-01 3.0000000e+00 2.5000000e+01 
7.5000000e-01 3.0000000e+00 2.5500000e+01 
7.5000000e-01 3.0000000e+00 2.6000000e+01 
7.5000000e-01 3.0000000e+00 2.6500000e+01 
7.5000000e-01 3.0000000e+00 2.7000000e+01 
7.5000000e-01 3.0000000e+00 2.7500000e+01 
7.5000000e-01 3.0000000e+00 2.8000000e+01 
7.5000000e-01 3.0000000e+00 2.8500000e+01 
7.5000000e-01 3.0000000e+00 2.9000000e+01 
7.5000000e-01 3.0000000e+00 2.9500000e+01 
7.5000000e-01 3.0000000e+00 3.0000000e+01 
7.5000000e-01 3.0000000e+00 3.0500000e+01 
7.5000000e-01 3.0000000e+00 3.1000000e+01 
7.5000000e-01 3.0000000e+00 3.1500000e+01 
7.5000000e-01 3.0000000e+00 3.2000000e+01 
7.5000000e-01 3.0000000e+00 3.2500000e+01 
7.5000000e-01 3.0000000e+00 3.3000000e+01 
7.5000000e-01 3.0000000e+00 3.3500000e+01 
7.5000000e-01 3.0000000e+00 3.4000000e+01 
7.5000000e-01 3.0000000e+00 3.4500000e+01 
7.5000000e-01 3.0000000e+00 3.5000000e+01 
7.5000000e-01 3.0000000e+00 3.5500000e+01 
7.5000000e-01 3.0000000e+00 3.6000000e+01 
7.5000000e-01 3.0000000e+00 3.6500000e+01 
7.5000000e-01 3.0000000e+00 3.7000000e+01 
7.5000000e-01 3.0000000e+00 3.7500000e+01 
7.5000000e-01 3.0000000e+00 3.8000000e+01 
7.5000000e-01 3.0000000e+00 3.8500000e+01 
7.5000000e-01 3.0000000e+00 3.9000000e+01 
7.5000000e-01 3.0000000e+00 3.9500000e+01 
7.5000000e-01 3.0000000e+00 4.0500000e+01 
7.5000000e-01 3.0000000e+00 4.1000000e+01 
7.5000000e-01 3.0000000e+00 4.1500000e+01 
7.5000000e-01 3.0000000e+00 4.2000000e+01 
7.5000000e-01 3.0000000e+00 4.2500000e+01 
7.5000000e-01 3.0000000e+00 4.3000000e+01 
7.5000000e-01 3.0000000e+00 4.3500000e+01 
7.5000000e-01 3.0000000e+00 4.4000000e+01 
7.5000000e-01 3.0000000e+00 4.4500000e+01 
7.5000000e-01 3.0000000e+00 4.5000000e+01 
7.5000000e-01 3.0000000e+00 4.5500000e+01 
7.5000000e-01 3.0000000e+00 4.6000000e+01 
7.5000000e-01 3.0000000e+00 4.6500000e+01 
7.5000000e-01 3.0000000e+00 4.7000000e+01 
7.5000000e-01 3.0000000e+00 4.7500000e+01 
7.5000000e-01 3.0000000e+00 4.8000000e+01 
7.5000000e-01 3.0000000e+00 4.8500000e+01 
7.5000000e-01 3.0000000e+00 4.9000000e+01 
7.5000000e-01 3.0000000e+00 4.9500000e+01 
7.5000000e-01 3.0000000e+00 5.0000000e+01 
7.5000000e-01 3.0250001e+00 0.0000000e+00 
7.5000000e-01 3.0250001e+00 5.0000000e-01 
7.5000000e-01 3.0250001e+00 1.0000000e+00 
7.5000000e-01 3.0250001e+00 1.5000000e+00 
7.5000000e-01 3.0250001e+00 2.0000000e+00 
7.5000000e-01 3.0250001e+00 2.5000000e+00 
7.5000000e-01 3.0250001e+00 3.0000000e+00 
7.5000000e-01 3.0250001e+00 3.5000000e+00 
7.5000000e-01 3.0250001e+00 4.0000000e+00 
7.5000000e-01 3.0250001e+00 4.5000000e+00 
7.5000000e-01 3.0250001e+00 5.0000000e+00 
7.5000000e-01 3.0250001e+00 5.5000000e+00 
7.5000000e-01 3.0250001e+00 6.0000000e+00 
7.5000000e-01 3.0250001e+00 6.5000000e+00 
7.5000000e-01 3.0250001e+00 7.0000000e+00 
7.5000000e-01 3.0250001e+00 7.5000000e+00 
7.5000000e-01 3.0250001e+00 8.0000000e+00 
7.5000000e-01 3.0250001e+00 8.5000000e+00 
7.5000000e-01 3.0250001e+00 9.0000000e+00 
7.5000000e-01 3.0250001e+00 9.5000000e+00 
7.5000000e-01 3.0250001e+00 1.0000000e+01 
7.5000000e-01 3.0250001e+00 1.0500000e+01 
7.5000000e-01 3.0250001e+00 1.1000000e+01 
7.5000000e-01 3.0250001e+00 1.1500000e+01 
7.5000000e-01 3.0250001e+00 1.2000000e+01 
7.5000000e-01 3.0250001e+00 1.2500000e+01 
7.5000000e-01 3.0250001e+00 1.3000000e+01 
7.5000000e-01 3.0250001e+00 1.3500000e+01 
7.5000000e-01 3.0250001e+00 1.4000000e+01 
7.5000000e-01 3.0250001e+00 1.4500000e+01 
7.5000000e-01 3.0250001e+00 1.5000000e+01 
7.5000000e-01 3.0250001e+00 1.5500000e+01 
7.5000000e-01 3.0250001e+00 1.6000000e+01 
7.5000000e-01 3.0250001e+00 1.6500000e+01 
7.5000000e-01 3.0250001e+00 1.7000000e+01 
7.5000000e-01 3.0250001e+00 1.7500000e+01 
7.5000000e-01 3.0250001e+00 1.8000000e+01 
7.5000000e-01 3.0250001e+00 1.8500000e+01 
7.5000000e-01 3.0250001e+00 1.9000000e+01 
7.5000000e-01 3.0250001e+00 1.9500000e+01 
7.5000000e-01 3.0250001e+00 2.0000000e+01 
7.5000000e-01 3.0250001e+00 2.0500000e+01 
7.5000000e-01 3.0250001e+00 2.1000000e+01 
7.5000000e-01 3.0250001e+00 2.1500000e+01 
7.5000000e-01 3.0250001e+00 2.2000000e+01 
7.5000000e-01 3.0250001e+00 2.2500000e+01 
7.5000000e-01 3.0250001e+00 2.3000000e+01 
7.5000000e-01 3.0250001e+00 2.3500000e+01 
7.5000000e-01 3.0250001e+00 2.4000000e+01 
7.5000000e-01 3.0250001e+00 2.4500000e+01 
7.5000000e-01 3.0250001e+00 2.5000000e+01 
7.5000000e-01 3.0250001e+00 2.5500000e+01 
7.5000000e-01 3.0250001e+00 2.6000000e+01 
7.5000000e-01 3.0250001e+00 2.6500000e+01 
7.5000000e-01 3.0250001e+00 2.7000000e+01 
7.5000000e-01 3.0250001e+00 2.7500000e+01 
7.5000000e-01 3.0250001e+00 2.8000000e+01 
7.5000000e-01 3.0250001e+00 2.8500000e+01 
7.5000000e-01 3.0250001e+00 2.9000000e+01 
7.5000000e-01 3.0250001e+00 2.9500000e+01 
7.5000000e-01 3.0250001e+00 3.0000000e+01 
7.5000000e-01 3.0250001e+00 3.0500000e+01 
7.5000000e-01 3.0250001e+00 3.1000000e+01 
7.5000000e-01 3.0250001e+00 3.1500000e+01 
7.5000000e-01 3.0250001e+00 3.2000000e+01 
7.5000000e-01 3.0250001e+00 3.2500000e+01 
7.5000000e-01 3.0250001e+00 3.3000000e+01 
7.5000000e-01 3.0250001e+00 3.3500000e+01 
7.5000000e-01 3.0250001e+00 3.4000000e+01 
7.5000000e-01 3.0250001e+00 3.4500000e+01 
7.5000000e-01 3.0250001e+00 3.5000000e+01 
7.5000000e-01 3.0250001e+00 3.5500000e+01 
7.5000000e-01 3.0250001e+00 3.6000000e+01 
7.5000000e-01 3.0250001e+00 3.6500000e+01 
7.5000000e-01 3.0250001e+00 3.7000000e+01 
7.5000000e-01 3.0250001e+00 3.7500000e+01 
7.5000000e-01 3.0250001e+00 3.8000000e+01 
7.5000000e-01 3.0250001e+00 3.8500000e+01 
7.5000000e-01 3.0250001e+00 3.9000000e+01 
7.5000000e-01 3.0250001e+00 3.9500000e+01 
7.5000000e-01 3.0250001e+00 4.0000000e+01 
7.5000000e-01 3.0250001e+00 4.0500000e+01 
7.5000000e-01 3.0250001e+00 4.1000000e+01 
7.5000000e-01 3.0250001e+00 4.1500000e+01 
7.5000000e-01 3.0250001e+00 4.2000000e+01 
7.5000000e-01 3.0250001e+00 4.2500000e+01 
7.5000000e-01 3.0250001e+00 4.3000000e+01 
7.5000000e-01 3.0250001e+00 4.3500000e+01 
7.5000000e-01 3.0250001e+00 4.4000000e+01 
7.5000000e-01 3.0250001e+00 4.4500000e+01 
7.5000000e-01 3.0250001e+00 4.5000000e+01 
7.5000000e-01 3.0250001e+00 4.5500000e+01 
7.5000000e-01 3.0250001e+00 4.6000000e+01 
7.5000000e-01 3.0250001e+00 4.6500000e+01 
7.5000000e-01 3.0250001e+00 4.7000000e+01 
7.5000000e-01 3.0250001e+00 4.7500000e+01 
7.5000000e-01 3.0250001e+00 4.8000000e+01 
7.5000000e-01 3.0250001e+00 4.8500000e+01 
7.5000000e-01 3.0250001e+00 4.9000000e+01 
7.5000000e-01 3.0250001e+00 4.9500000e+01 
7.5000000e-01 3.0250001e+00 5.0000000e+01 
7.5000000e-01 3.0250001e+00 3.5750000e+01 
3.0000000e+00 2.0000000e+00 3.6000000e+01 
8.0487806e-01 3.0000000e+00 3.6000000e+01 
0.0000000e+00 0.0000000e+00 2.0000000e+00 
0.0000000e+00 0.0000000e+00 4.0000000e+00 
0.0000000e+00 0.0000000e+00 6.0000000e+00 
0.0000000e+00 0.0000000e+00 8.0000000e+00 
0.0000000e+00 0.0000000e+00 1.0000000e+01 
0.0000000e+00 0.0000000e+00 1.2000000e+01 
0.0000000e+00 0.0000000e+00 1.4000000e+01 
[...]
POINT_DATA 662
FIELD FieldData 3
DISPLACEMENT 3 662  float
0.0000000e+00 0.0000000e+00 0.0000000e+00 
0.0000000e+00 0.0000000e+00 0.0000000e+00 
0.0000000e+00 0.0000000e+00 0.0000000e+00 
0.0000000e+00 0.0000000e+00 0.0000000e+00 
-1.7276644e-06 -4.2914803e-06 -1.1036509e-07 
5.4811210e-07 9.7071813e-07 1.7459691e-06 
0.0000000e+00 2.9381583e-05 0.0000000e+00 
0.0000000e+00 -1.1238442e-05 0.0000000e+00 
-4.2025217e-06 -3.5670698e-09 -4.3003365e-06 
-2.4687440e-06 2.5655718e-06 -8.3617039e-07 
-4.7775470e-06 -1.2227698e-05 -7.7338309e-06 
-1.0961071e-06 -3.4465102e-06 -6.2679346e-06 
0.0000000e+00 9.8926457e-06 0.0000000e+00 
0.0000000e+00 -1.8488945e-05 0.0000000e+00 
1.4604050e-05 2.3653389e-05 -4.5191558e-05 
-1.2782216e-05 -1.4573068e-05 -2.9153864e-05 
1.4028332e-05 9.6197422e-05 -1.5767811e-05 
5.4379884e-06 -2.9128718e-05 -4.4927005e-05 
0.0000000e+00 -3.7984014e-06 0.0000000e+00 
0.0000000e+00 -2.3588873e-05 0.0000000e+00 
3.5307861e-05 9.4422307e-05 -5.3605960e-05 
3.2912736e-05 9.3550043e-05 -4.0327457e-05 
4.7566315e-05 9.5383177e-05 -3.9562114e-05 
5.4149361e-05 1.1777620e-04 -2.4733163e-05 
3.5332483e-05 1.6462963e-04 4.3720524e-06 
7.9358731e-05 2.1632916e-04 -5.4219868e-06 
2.9320314e-05 2.6696711e-04 7.1726754e-05 
3.0902327e-05 2.2032292e-04 4.2911368e-05 
-1.2385565e-05 3.7594822e-05 9.7744305e-05 
4.7220078e-06 -2.5313196e-04 1.4331483e-04 
-7.1541610e-05 -6.6796958e-04 1.6712937e-04 
-8.8169683e-05 -1.2702384e-03 1.4328402e-04 
-2.2475146e-04 -2.1493691e-03 2.0709707e-04 
-2.7066609e-04 -3.1851686e-03 2.1402995e-04 
-1.4288799e-04 -4.0698573e-03 1.4008951e-04 
-1.3432224e-04 -4.1650957e-03 1.1938195e-04 
-2.5722513e-04 -3.9862213e-03 4.9240185e-05 
-3.5379917e-04 -3.9523174e-03 3.7525142e-06 
-2.2520221e-04 -4.2370367e-03 -5.4947850e-05 
-7.3791525e-05 -4.3132943e-03 -1.1599551e-04 
-9.5634321e-05 -3.6233207e-03 -1.9019099e-04 
-1.9127704e-04 -2.5460997e-03 -2.1023047e-04 
-1.9089457e-04 -1.5824772e-03 -1.8862425e-04 
-6.4475753e-05 -8.4853626e-04 -1.1382307e-04 
-3.0089659e-05 -3.8421465e-04 -1.3374035e-04 
-6.9198550e-06 -1.0857075e-04 -8.8162589e-05 
-1.5313459e-05 4.1219955e-05 -4.8520909e-05 
-1.1999222e-05 9.5343232e-05 -1.5289623e-05 
-2.8016666e-07 7.2497518e-05 -1.3194775e-05 
-6.5828885e-06 1.2981394e-05 9.6926769e-06 
-3.5470680e-06 -4.2884840e-05 4.6226937e-06 
-1.2672549e-05 -8.1648024e-05 -8.6158307e-06 
-3.0672105e-05 -1.0203667e-04 2.0595500e-05 
-1.1147849e-05 -1.1216706e-04 2.6218357e-05 
-5.2644249e-05 -1.2261583e-04 4.1802785e-05 
-4.2527561e-05 -1.3017301e-04 7.8692530e-05 
-5.7643570e-05 -1.3300483e-04 7.0514165e-05 
-6.0224927e-05 -1.2609169e-04 1.7969209e-05 
-2.5655241e-05 -1.1273297e-04 -1.0387049e-05 
-2.8091221e-05 -8.2958657e-05 -4.5908604e-05 
3.4046341e-05 -3.9475279e-05 -1.0290174e-04 
-1.8062615e-06 2.6981875e-06 -7.1247436e-05 
6.0295148e-05 4.8913484e-05 -5.0671253e-05 
2.9539289e-05 7.6503908e-05 -8.4423475e-05 
2.4404339e-05 9.6419251e-05 -2.8933615e-05 
8.1690341e-05 1.3561228e-04 -9.6895237e-06 
8.5737702e-06 1.9820633e-04 -9.3032641e-06 
4.3133368e-05 1.9913909e-04 4.9220293e-05 
-1.8087683e-05 4.6541598e-05 7.3835043e-05 
-2.6225634e-05 -2.8329290e-04 1.0112325e-04 
-4.7471960e-05 -8.1191328e-04 1.2926447e-04 
-8.5550040e-05 -1.4930790e-03 7.8459430e-05 
-1.9214282e-04 -2.3373854e-03 1.5727000e-04 
-2.5112537e-04 -3.2363015e-03 1.7072748e-04 
-1.1092833e-04 -3.9484897e-03 1.4442338e-04 
-1.1231169e-04 -3.9848331e-03 1.6083482e-04 
-2.5602672e-04 -3.8519583e-03 1.3604823e-04 
-3.0383939e-04 -3.8564384e-03 9.0662485e-05 
-2.1000503e-04 -4.0766909e-03 5.2258150e-05 
-7.2928669e-05 -4.0153032e-03 3.1480271e-05 
-1.1901827e-04 -3.2827442e-03 -1.0197307e-04 
-2.1734748e-04 -2.2770050e-03 -1.6325018e-04 
-2.1368379e-04 -1.4305295e-03 -1.8417709e-04 
-9.7981414e-05 -7.9348573e-04 -1.5779781e-04 
-5.4413922e-05 -3.6766508e-04 -2.0085780e-04 
-2.8988370e-05 -1.0470421e-04 -1.7007164e-04 
-1.8027014e-05 3.0269601e-05 -1.5590139e-04 
2.6477369e-06 8.3456915e-05 -1.3368680e-04 
2.4322509e-05 9.9165576e-05 -8.8539826e-05 
3.8718688e-05 1.0219728e-04 -4.1881984e-05 
3.3811688e-05 9.5225863e-05 -8.0938162e-06 
2.5255198e-05 7.6518416e-05 2.5988109e-05 
1.9785344e-05 5.1842522e-05 4.7279234e-05 
1.3794962e-05 2.9294370e-05 5.8298097e-05 
3.6792476e-06 1.0050459e-05 6.8227760e-05 
-8.0103082e-06 -7.6902897e-06 6.3067513e-05 
-1.0390671e-05 -2.2604903e-05 4.4716344e-05 
-1.4749913e-05 -3.1156731e-05 1.9174402e-05 
-1.0960310e-05 -3.2319786e-05 -6.9788175e-06 
0.0000000e+00 -2.4740424e-05 0.0000000e+00 
0.0000000e+00 -1.7676146e-05 0.0000000e+00 
0.0000000e+00 -6.1544592e-06 0.0000000e+00 
0.0000000e+00 8.9926261e-06 0.0000000e+00 
0.0000000e+00 2.3523793e-05 0.0000000e+00 
0.0000000e+00 3.2642380e-05 0.0000000e+00 
0.0000000e+00 3.4143679e-05 0.0000000e+00 
0.0000000e+00 2.8759376e-05 0.0000000e+00 
0.0000000e+00 1.8260111e-05 0.0000000e+00 
0.0000000e+00 4.1655958e-06 0.0000000e+00 
0.0000000e+00 -1.1681474e-05 0.0000000e+00 
0.0000000e+00 -2.6227315e-05 0.0000000e+00 
0.0000000e+00 -3.5813417e-05 0.0000000e+00 
0.0000000e+00 -3.7868736e-05 0.0000000e+00 
0.0000000e+00 -3.1869520e-05 0.0000000e+00 
0.0000000e+00 -1.8930605e-05 0.0000000e+00 
0.0000000e+00 -1.2259890e-06 0.0000000e+00 
0.0000000e+00 1.7755268e-05 0.0000000e+00 
0.0000000e+00 3.2949923e-05 0.0000000e+00 
0.0000000e+00 3.8945665e-05 0.0000000e+00 
0.0000000e+00 9.6427713e-05 0.0000000e+00 
0.0000000e+00 9.4710362e-05 0.0000000e+00 
0.0000000e+00 9.2490787e-05 0.0000000e+00 
0.0000000e+00 9.5285730e-05 0.0000000e+00 
0.0000000e+00 1.1822230e-04 0.0000000e+00 
0.0000000e+00 1.6446973e-04 0.0000000e+00 
0.0000000e+00 2.2188901e-04 0.0000000e+00 
0.0000000e+00 2.6489468e-04 0.0000000e+00 
0.0000000e+00 2.1649477e-04 0.0000000e+00 
0.0000000e+00 3.8934431e-05 0.0000000e+00 
0.0000000e+00 -2.5142462e-04 0.0000000e+00 
0.0000000e+00 -6.6629681e-04 0.0000000e+00 
0.0000000e+00 -1.2784693e-03 0.0000000e+00 
0.0000000e+00 -2.1592886e-03 0.0000000e+00 
0.0000000e+00 -3.2226385e-03 0.0000000e+00 
0.0000000e+00 -4.0916954e-03 0.0000000e+00 
0.0000000e+00 -4.1897455e-03 0.0000000e+00 
0.0000000e+00 -3.9995615e-03 0.0000000e+00 
0.0000000e+00 -3.9867964e-03 0.0000000e+00 
0.0000000e+00 -4.2599374e-03 0.0000000e+00 
0.0000000e+00 -4.3463586e-03 0.0000000e+00 
0.0000000e+00 -3.6399129e-03 0.0000000e+00 
0.0000000e+00 -2.5658843e-03 0.0000000e+00 
0.0000000e+00 -1.5863318e-03 0.0000000e+00 
0.0000000e+00 -8.5344666e-04 0.0000000e+00 
0.0000000e+00 -3.8326619e-04 0.0000000e+00 
0.0000000e+00 -1.0695618e-04 0.0000000e+00 
0.0000000e+00 4.1928222e-05 0.0000000e+00 
0.0000000e+00 9.4803763e-05 0.0000000e+00 
0.0000000e+00 7.2642892e-05 0.0000000e+00 
0.0000000e+00 1.3883950e-05 0.0000000e+00 
0.0000000e+00 -4.2557916e-05 0.0000000e+00 
0.0000000e+00 -8.0907732e-05 0.0000000e+00 
0.0000000e+00 -1.0161620e-04 0.0000000e+00 
0.0000000e+00 -1.1299629e-04 0.0000000e+00 
0.0000000e+00 -1.2268740e-04 0.0000000e+00 
0.0000000e+00 -1.3035219e-04 0.0000000e+00 
0.0000000e+00 -1.3269832e-04 0.0000000e+00 
0.0000000e+00 -1.2670919e-04 0.0000000e+00 
0.0000000e+00 -1.1227885e-04 0.0000000e+00 
0.0000000e+00 -8.2535909e-05 0.0000000e+00 
0.0000000e+00 -4.0144278e-05 0.0000000e+00 
0.0000000e+00 4.7118688e-06 0.0000000e+00 
0.0000000e+00 4.7012785e-05 0.0000000e+00 
0.0000000e+00 7.4731608e-05 0.0000000e+00 
0.0000000e+00 9.7449447e-05 0.0000000e+00 
0.0000000e+00 1.4029637e-04 0.0000000e+00 
0.0000000e+00 1.9955974e-04 0.0000000e+00 
0.0000000e+00 1.9676247e-04 0.0000000e+00 
0.0000000e+00 4.5893470e-05 0.0000000e+00 
0.0000000e+00 -2.8784669e-04 0.0000000e+00 
0.0000000e+00 -8.0999947e-04 0.0000000e+00 
0.0000000e+00 -1.4978608e-03 0.0000000e+00 
0.0000000e+00 -2.3462952e-03 0.0000000e+00 
0.0000000e+00 -3.2735828e-03 0.0000000e+00 
0.0000000e+00 -3.9731283e-03 0.0000000e+00 
0.0000000e+00 -4.0134024e-03 0.0000000e+00 
0.0000000e+00 -3.8643363e-03 0.0000000e+00 
0.0000000e+00 -3.8860461e-03 0.0000000e+00 
0.0000000e+00 -4.0972224e-03 0.0000000e+00 
0.0000000e+00 -4.0492639e-03 0.0000000e+00 
0.0000000e+00 -3.3004694e-03 0.0000000e+00 
0.0000000e+00 -2.2951555e-03 0.0000000e+00 
0.0000000e+00 -1.4323762e-03 0.0000000e+00 
0.0000000e+00 -7.9542183e-04 0.0000000e+00 
0.0000000e+00 -3.6727826e-04 0.0000000e+00 
0.0000000e+00 -1.0507242e-04 0.0000000e+00 
0.0000000e+00 3.0702806e-05 0.0000000e+00 
0.0000000e+00 8.4682535e-05 0.0000000e+00 
0.0000000e+00 1.0015253e-04 0.0000000e+00 
0.0000000e+00 1.0220605e-04 0.0000000e+00 
0.0000000e+00 9.4903480e-05 0.0000000e+00 
0.0000000e+00 7.6568722e-05 0.0000000e+00 
0.0000000e+00 5.2203617e-05 0.0000000e+00 
0.0000000e+00 2.9325643e-05 0.0000000e+00 
0.0000000e+00 9.8530336e-06 0.0000000e+00 
0.0000000e+00 -7.7064433e-06 0.0000000e+00 
0.0000000e+00 -2.2405924e-05 0.0000000e+00 
0.0000000e+00 -3.1013151e-05 0.0000000e+00 
0.0000000e+00 -3.2411488e-05 0.0000000e+00 
0.0000000e+00 -2.9382665e-05 0.0000000e+00 
0.0000000e+00 -2.4708321e-05 0.0000000e+00 
0.0000000e+00 -1.7504917e-05 0.0000000e+00 
0.0000000e+00 -6.0096131e-06 0.0000000e+00 
0.0000000e+00 8.9738014e-06 0.0000000e+00 
0.0000000e+00 2.3384084e-05 0.0000000e+00 
0.0000000e+00 3.2529122e-05 0.0000000e+00 
0.0000000e+00 3.4126919e-05 0.0000000e+00 
0.0000000e+00 2.8775828e-05 0.0000000e+00 
0.0000000e+00 1.8228617e-05 0.0000000e+00 
0.0000000e+00 4.1023154e-06 0.0000000e+00 
0.0000000e+00 -1.1694554e-05 0.0000000e+00 
0.0000000e+00 -2.6159965e-05 0.0000000e+00 
0.0000000e+00 -3.5724814e-05 0.0000000e+00 
0.0000000e+00 -3.7821064e-05 0.0000000e+00 
0.0000000e+00 -3.1844866e-05 0.0000000e+00 
0.0000000e+00 -1.8869097e-05 0.0000000e+00 
0.0000000e+00 -1.1323635e-06 0.0000000e+00 
0.0000000e+00 1.7788936e-05 0.0000000e+00 
0.0000000e+00 3.2851240e-05 0.0000000e+00 
0.0000000e+00 3.8772429e-05 0.0000000e+00 
0.0000000e+00 8.7034176e-05 0.0000000e+00 
2.8542997e-06 2.4656272e-05 3.6591114e-06 
2.2621623e-05 7.2253752e-05 2.6772928e-05 
0.0000000e+00 0.0000000e+00 0.0000000e+00 
0.0000000e+00 0.0000000e+00 0.0000000e+00 
0.0000000e+00 0.0000000e+00 0.0000000e+00 
0.0000000e+00 0.0000000e+00 0.0000000e+00 
0.0000000e+00 0.0000000e+00 0.0000000e+00 
0.0000000e+00 0.0000000e+00 0.0000000e+00 
0.0000000e+00 0.0000000e+00 0.0000000e+00 
0.0000000e+00 0.0000000e+00 0.0000000e+00 
0.0000000e+00 0.0000000e+00 0.0000000e+00 
0.0000000e+00 0.0000000e+00 0.0000000e+00 
0.0000000e+00 0.0000000e+00 0.0000000e+00 
0.0000000e+00 0.0000000e+00 0.0000000e+00 
0.0000000e+00 0.0000000e+00 0.0000000e+00 
0.0000000e+00 0.0000000e+00 0.0000000e+00 
0.0000000e+00 0.0000000e+00 0.0000000e+00 
0.0000000e+00 0.0000000e+00 0.0000000e+00 
0.0000000e+00 0.0000000e+00 0.0000000e+00 
0.0000000e+00 0.0000000e+00 0.0000000e+00 
0.0000000e+00 0.0000000e+00 0.0000000e+00 
0.0000000e+00 0.0000000e+00 0.0000000e+00 
0.0000000e+00 0.0000000e+00 0.0000000e+00 
0.0000000e+00 0.0000000e+00 0.0000000e+00 
0.0000000e+00 0.0000000e+00 0.0000000e+00 
0.0000000e+00 0.0000000e+00 0.0000000e+00 
0.0000000e+00 0.0000000e+00 0.0000000e+00 
0.0000000e+00 0.0000000e+00 0.0000000e+00 
0.0000000e+00 0.0000000e+00 0.0000000e+00 
0.0000000e+00 0.0000000e+00 0.0000000e+00 
0.0000000e+00 0.0000000e+00 0.0000000e+00 
0.0000000e+00 0.0000000e+00 0.0000000e+00 
0.0000000e+00 0.0000000e+00 0.0000000e+00 
0.0000000e+00 0.0000000e+00 0.0000000e+00 
0.0000000e+00 0.0000000e+00 0.0000000e+00 
0.0000000e+00 0.0000000e+00 0.0000000e+00 
0.0000000e+00 0.0000000e+00 0.0000000e+00 
0.0000000e+00 0.0000000e+00 0.0000000e+00 
0.0000000e+00 0.0000000e+00 0.0000000e+00 
0.0000000e+00 0.0000000e+00 0.0000000e+00 
0.0000000e+00 0.0000000e+00 0.0000000e+00 
0.0000000e+00 0.0000000e+00 0.0000000e+00 
0.0000000e+00 0.0000000e+00 0.0000000e+00 
0.0000000e+00 0.0000000e+00 0.0000000e+00 
-4.2038605e-06 -3.2498572e-06 -3.3495135e-06 
4.7494291e-06 -6.5538148e-07 -1.2350734e-05 
2.9211573e-05 -2.4498613e-06 -1.3898053e-05 
4.6504065e-05 -1.5396736e-05 -9.3071685e-06 
4.6857047e-05 -9.7357661e-06 3.3450181e-06 
1.7761657e-05 2.6845714e-07 -1.1137290e-06 
4.4771173e-06 2.2980244e-06 3.9992356e-06 
5.3133863e-06 -6.3324489e-07 7.1974673e-06 
3.2019868e-06 -4.3190062e-06 5.6754843e-06 
-3.0248084e-06 -4.1559115e-06 1.8987906e-06 
-5.4474185e-06 5.6317131e-06 -1.1399461e-06 
5.8047171e-06 -7.4380466e-07 -5.9633348e-06 
2.7464705e-05 -6.3036741e-06 -7.4941127e-06 
4.7805082e-05 -9.8997452e-06 -3.0035924e-06 
4.6099736e-05 -1.2393783e-05 3.3413733e-06 
2.0168854e-05 -4.7873764e-06 4.0931509e-06 
1.4676144e-06 6.1899254e-06 9.0055028e-06 
-2.7487902e-06 2.0830298e-06 4.3278542e-06 
1.8254888e-06 -4.4004373e-06 2.3659086e-06 
0.0000000e+00 7.4319054e-05 0.0000000e+00 
0.0000000e+00 5.3104741e-06 0.0000000e+00 
0.0000000e+00 -1.5765280e-04 0.0000000e+00 
0.0000000e+00 -5.3318247e-04 0.0000000e+00 
0.0000000e+00 -5.2080076e-04 0.0000000e+00 
0.0000000e+00 -1.6123211e-04 0.0000000e+00 
0.0000000e+00 -7.4504351e-06 0.0000000e+00 
0.0000000e+00 -3.3763714e-05 0.0000000e+00 
0.0000000e+00 -3.8580343e-05 0.0000000e+00 
0.0000000e+00 -2.5646692e-05 0.0000000e+00 
0.0000000e+00 -1.3405391e-07 0.0000000e+00 
0.0000000e+00 2.6226377e-05 0.0000000e+00 
0.0000000e+00 -1.5829719e-04 0.0000000e+00 
0.0000000e+00 -4.9601262e-04 0.0000000e+00 
0.0000000e+00 -4.9710681e-04 0.0000000e+00 
0.0000000e+00 -1.7528392e-04 0.0000000e+00 
0.0000000e+00 8.7232656e-06 0.0000000e+00 
0.0000000e+00 3.4844525e-05 0.0000000e+00 
0.0000000e+00 -9.1689426e-06 0.0000000e+00 
-4.7927297e-06 -4.6503492e-06 1.0965437e-07 
-1.0027374e-05 6.1445962e-06 2.3073355e-06 
6.2934549e-07 -1.2040182e-06 -2.2773477e-06 
1.4749754e-06 -8.2192737e-06 8.1426231e-07 
7.6398169e-07 -4.7337389e-06 -2.7978372e-06 
2.0579211e-05 1.4558406e-06 -1.6617258e-05 
3.5900030e-05 4.0107366e-06 -6.6877519e-06 
4.6938414e-05 -1.4503297e-06 -6.2120334e-06 
3.1762556e-05 -9.9617273e-06 -1.8099236e-07 
1.0958783e-05 2.4973499e-06 -1.1169725e-05 
3.2544492e-06 4.4294093e-06 2.0060179e-06 
1.9591378e-06 -1.8885470e-06 1.5747573e-05 
-2.1120063e-06 -8.7757016e-06 1.0146478e-05 
-7.2856556e-06 -6.3311550e-06 -2.6937594e-06 
-1.3725853e-06 4.7666554e-06 -1.1416056e-05 
2.2048782e-05 2.2195115e-06 -6.5053478e-06 
2.7952336e-05 -1.9608958e-06 4.7357407e-06 
3.5772970e-05 -1.1873954e-05 6.1837090e-07 
2.4684823e-05 -9.9083254e-06 3.2893554e-06 
5.5122314e-06 -4.6618223e-07 -6.2956055e-06 
3.8879466e-06 6.4556639e-06 3.9111596e-06 
1.8933115e-06 5.0887770e-09 6.8766453e-06 
3.0692770e-06 -3.8173785e-06 4.4067774e-06 
5.0599560e-06 3.4206438e-05 -1.7631779e-05 
0.0000000e+00 1.1326581e-04 0.0000000e+00 
0.0000000e+00 1.4256196e-04 0.0000000e+00 
0.0000000e+00 -4.3327187e-04 0.0000000e+00 
0.0000000e+00 -1.1912180e-03 0.0000000e+00 
0.0000000e+00 -1.1701757e-03 0.0000000e+00 
0.0000000e+00 -2.9255965e-04 0.0000000e+00 
0.0000000e+00 4.6812588e-06 0.0000000e+00 
0.0000000e+00 -6.1955121e-05 0.0000000e+00 
0.0000000e+00 -1.0214529e-04 0.0000000e+00 
0.0000000e+00 -8.2996630e-05 0.0000000e+00 
0.0000000e+00 1.1459837e-04 0.0000000e+00 
0.0000000e+00 7.2927745e-05 0.0000000e+00 
0.0000000e+00 -4.4766167e-04 0.0000000e+00 
0.0000000e+00 -1.1034624e-03 0.0000000e+00 
0.0000000e+00 -1.0911557e-03 0.0000000e+00 
0.0000000e+00 -3.1496261e-04 0.0000000e+00 
0.0000000e+00 2.4219049e-05 0.0000000e+00 
0.0000000e+00 5.6304019e-05 0.0000000e+00 
0.0000000e+00 -1.5182545e-05 0.0000000e+00 
-2.7811082e-06 -1.2984003e-05 5.6931702e-07 
7.6112228e-05 1.0672768e-04 -2.3286690e-05 
5.4397209e-05 1.4184702e-04 7.5671836e-05 
-2.5042793e-04 -3.7695345e-04 3.5005363e-04 
-6.6129363e-04 -1.3327886e-03 1.4480905e-04 
-6.1172998e-04 -1.4861479e-03 -2.2481933e-04 
-1.6338732e-04 -2.2861952e-04 -2.6501802e-04 
1.6101354e-05 2.7434342e-05 -1.9296949e-05 
-2.6962287e-05 -5.0416613e-05 -7.3149790e-06 
-7.1104892e-05 -9.1669121e-05 9.1386901e-05 
-2.2325790e-05 -7.1541952e-05 -8.8638924e-05 
5.7648929e-05 4.9395923e-05 -9.2263661e-05 
4.3433625e-05 1.3945112e-04 7.5261742e-05 
-2.3287212e-04 -3.9245820e-04 2.7129700e-04 
-6.1466714e-04 -1.2354815e-03 1.6948310e-04 
-6.0228823e-04 -1.3842579e-03 -5.5416647e-05 
-1.7088030e-04 -2.5551749e-04 -2.9080204e-04 
2.3460458e-05 4.2097705e-05 -1.6318166e-04 
3.0167790e-05 5.7590991e-05 3.6478774e-05 
-2.7701815e-06 -9.4165980e-06 7.4479838e-05 
0.0000000e+00 2.3678220e-04 0.0000000e+00 
0.0000000e+00 2.6731970e-04 0.0000000e+00 
0.0000000e+00 -7.7687862e-04 0.0000000e+00 
0.0000000e+00 -2.3771836e-03 0.0000000e+00 
0.0000000e+00 -2.2768446e-03 0.0000000e+00 
0.0000000e+00 -5.0036574e-04 0.0000000e+00 
0.0000000e+00 8.3132363e-05 0.0000000e+00 
0.0000000e+00 -1.0265956e-04 0.0000000e+00 
0.0000000e+00 -1.3610903e-04 0.0000000e+00 
0.0000000e+00 -2.4591653e-05 0.0000000e+00 
0.0000000e+00 1.3552536e-04 0.0000000e+00 
0.0000000e+00 7.6519675e-05 0.0000000e+00 
0.0000000e+00 -9.1373082e-04 0.0000000e+00 
0.0000000e+00 -2.2569660e-03 0.0000000e+00 
0.0000000e+00 -2.0888681e-03 0.0000000e+00 
0.0000000e+00 -4.9484853e-04 0.0000000e+00 
0.0000000e+00 6.6323395e-05 0.0000000e+00 
0.0000000e+00 6.9673741e-05 0.0000000e+00 
0.0000000e+00 -1.6159614e-05 0.0000000e+00 
1.0994605e-05 2.0245639e-05 -9.4743191e-06 
3.2028747e-05 3.2636530e-05 2.6738667e-06 
5.0521066e-05 -2.9062980e-05 1.0340292e-05 
4.9880531e-05 -1.1912907e-04 -2.1106607e-05 
4.5613502e-05 -9.7258286e-05 -1.5561522e-05 
3.5374895e-05 -3.8653503e-05 -8.5460051e-06 
9.9127910e-06 2.7937590e-06 -5.8692631e-06 
-5.4534617e-06 -6.8125173e-06 6.8648042e-06 
-1.6239399e-05 -2.1091331e-05 1.2284620e-05 
-6.1758201e-06 -1.9295347e-05 -1.1479635e-05 
-2.4407424e-07 1.2002124e-05 -1.3338185e-05 
2.5687588e-05 4.2095431e-05 3.3413830e-06 
5.9736038e-05 -3.0521620e-05 5.9390491e-06 
5.9733458e-05 -8.1703889e-05 9.9326244e-06 
3.5044621e-05 -1.0756208e-04 1.7896871e-05 
2.5122499e-05 -6.6231092e-05 -1.4183065e-05 
1.1784817e-06 2.1179358e-05 -3.4362594e-05 
1.1324406e-06 -5.6189106e-06 1.3529248e-05 
1.9848736e-05 4.6789130e-05 2.1784766e-05 
0.0000000e+00 0.0000000e+00 0.0000000e+00 
0.0000000e+00 0.0000000e+00 0.0000000e+00 
0.0000000e+00 0.0000000e+00 0.0000000e+00 
0.0000000e+00 0.0000000e+00 0.0000000e+00 
0.0000000e+00 0.0000000e+00 0.0000000e+00 
0.0000000e+00 0.0000000e+00 0.0000000e+00 
0.0000000e+00 0.0000000e+00 0.0000000e+00 
0.0000000e+00 0.0000000e+00 0.0000000e+00 
0.0000000e+00 0.0000000e+00 0.0000000e+00 
0.0000000e+00 0.0000000e+00 0.0000000e+00 
0.0000000e+00 0.0000000e+00 0.0000000e+00 
0.0000000e+00 0.0000000e+00 0.0000000e+00 
0.0000000e+00 0.0000000e+00 0.0000000e+00 
0.0000000e+00 0.0000000e+00 0.0000000e+00 
0.0000000e+00 0.0000000e+00 0.0000000e+00 
0.0000000e+00 0.0000000e+00 0.0000000e+00 
0.0000000e+00 0.0000000e+00 0.0000000e+00 
0.0000000e+00 0.0000000e+00 0.0000000e+00 
0.0000000e+00 0.0000000e+00 0.0000000e+00 
0.0000000e+00 0.0000000e+00 0.0000000e+00 
0.0000000e+00 0.0000000e+00 0.0000000e+00 
0.0000000e+00 0.0000000e+00 0.0000000e+00 
0.0000000e+00 0.0000000e+00 0.0000000e+00 
0.0000000e+00 0.0000000e+00 0.0000000e+00 
0.0000000e+00 0.0000000e+00 0.0000000e+00 
0.0000000e+00 0.0000000e+00 0.0000000e+00 
0.0000000e+00 0.0000000e+00 0.0000000e+00 
0.0000000e+00 0.0000000e+00 0.0000000e+00 
0.0000000e+00 0.0000000e+00 0.0000000e+00 
0.0000000e+00 0.0000000e+00 0.0000000e+00 
0.0000000e+00 0.0000000e+00 0.0000000e+00 
0.0000000e+00 0.0000000e+00 0.0000000e+00 
0.0000000e+00 0.0000000e+00 0.0000000e+00 
0.0000000e+00 0.0000000e+00 0.0000000e+00 
0.0000000e+00 0.0000000e+00 0.0000000e+00 
0.0000000e+00 0.0000000e+00 0.0000000e+00 
0.0000000e+00 0.0000000e+00 0.0000000e+00 
0.0000000e+00 0.0000000e+00 0.0000000e+00 
0.0000000e+00 0.0000000e+00 0.0000000e+00 
0.0000000e+00 0.0000000e+00 0.0000000e+00 
0.0000000e+00 0.0000000e+00 0.0000000e+00 
0.0000000e+00 0.0000000e+00 0.0000000e+00 
-2.2022728e-06 -1.8570761e-06 -3.8791691e-07 
2.6617495e-06 -1.0755361e-06 7.8507242e-07 
8.5323433e-07 3.0553301e-07 2.3997966e-06 
-1.0836465e-07 1.5474440e-06 -1.4916584e-06 
5.9983272e-06 -6.5271065e-06 -4.7418403e-06 
2.2881466e-05 -7.5264602e-06 -3.2438709e-06 
2.5622399e-05 -1.1376293e-05 -6.2484719e-07 
2.1668768e-05 -1.1249601e-05 2.9008509e-06 