# vtk DataFile Version 4.0
vtk output
ASCII
DATASET UNSTRUCTURED_GRID
POINTS 1919 float
0.0000000e+00 0.0000000e+00 0.0000000e+00 
0.0000000e+00 0.0000000e+00 5.0000000e+01 
5.0000000e+00 0.0000000e+00 0.0000000e+00 
5.0000000e+00 0.0000000e+00 5.0000000e+01 
5.0000000e+00 1.0000000e+00 0.0000000e+00 
5.0000000e+00 1.0000000e+00 5.0000000e+01 
0.0000000e+00 1.0000000e+00 0.0000000e+00 
0.0000000e+00 1.0000000e+00 5.0000000e+01 
5.0000000e+00 2.0000000e+00 0.0000000e+00 
5.0000000e+00 2.0000000e+00 5.0000000e+01 
3.0000000e+00 2.0000000e+00 0.0000000e+00 
3.0000000e+00 2.0000000e+00 5.0000000e+01 
0.0000000e+00 2.0000000e+00 0.0000000e+00 
0.0000000e+00 2.0000000e+00 5.0000000e+01 
1.5000000e+00 3.0000000e+00 0.0000000e+00 
1.5000000e+00 3.0000000e+00 5.0000000e+01 
7.5000000e-01 3.0000000e+00 0.0000000e+00 
7.5000000e-01 3.0000000e+00 5.0000000e+01 
0.0000000e+00 3.0000000e+00 0.0000000e+00 
0.0000000e+00 3.0000000e+00 5.0000000e+01 
7.5000000e-01 3.0000000e+00 5.0000000e-01 
7.5000000e-01 3.0000000e+00 1.0000000e+00 
7.5000000e-01 3.0000000e+00 1.5000000e+00 
7.5000000e-01 3.0000000e+00 2.0000000e+00 
7.5000000e-01 3.0000000e+00 2.5000000e+00 
7.5000000e-01 3.0000000e+00 3.0000000e+00 
7.5000000e-01 3.0000000e+00 3.5000000e+00 
7.5000000e-01 3.0000000e+00 4.0000000e+00 
7.5000000e-01 3.0000000e+00 4.5000000e+00 
7.5000000e-01 3.0000000e+00 5.0000000e+00 
7.5000000e-01 3.0000000e+00 5.5000000e+00 
7.5000000e-01 3.0000000e+00 6.0000000e+00 
7.5000000e-01 3.0000000e+00 6.5000000e+00 
7.5000000e-01 3.0000000e+00 7.0000000e+00 
7.5000000e-01 3.0000000e+00 7.5000000e+00 
7.5000000e-01 3.0000000e+00 8.0000000e+00 
7.5000000e-01 3.0000000e+00 8.5000000e+00 
7.5000000e-01 3.0000000e+00 9.0000000e+00 
7.5000000e-01 3.0000000e+00 9.5000000e+00 
7.5000000e-01 3.0000000e+00 1.0000000e+01 
7.5000000e-01 3.0000000e+00 1.0500000e+01 
7.5000000e-01 3.0000000e+00 1.1000000e+01 
7.5000000e-01 3.0000000e+00 1.1500000e+01 
7.5000000e-01 3.0000000e+00 1.2000000e+01 
7.5000000e-01 3.0000000e+00 1.2500000e+01 
7.5000000e-01 3.0000000e+00 1.3000000e+01 
7.5000000e-01 3.0000000e+00 1.3500000e+01 
7.5000000e-01 3.0000000e+00 1.4000000e+01 
7.5000000e-01 3.0000000e+00 1.4500000e+01 
7.5000000e-01 3.0000000e+00 1.5000000e+01 
7.5000000e-01 3.0000000e+00 1.5500000e+01 
7.5000000e-01 3.0000000e+00 1.6000000e+01 
7.5000000e-01 3.0000000e+00 1.6500000e+01 
7.5000000e-01 3.0000000e+00 1.7000000e+01 
7.5000000e-01 3.0000000e+00 1.7500000e+01 
7.5000000e-01 3.0000000e+00 1.8000000e+01 
7.5000000e-01 3.0000000e+00 1.8500000e+01 
7.5000000e-01 3.0000000e+00 1.9000000e+01 
7.5000000e-01 3.0000000e+00 1.9500000e+01 
7.5000000e-01 3.0000000e+00 2.0000000e+01 
7.5000000e-01 3.0000000e+00 2.0500000e+01 
7.5000000e-01 3.0000000e+00 2.1000000e+01 
7.5000000e-01 3.0000000e+00 2.1500000e+01 
7.5000000e-01 3.0000000e+00 2.2000000e+01 
7.5000000e-01 3.0000000e+00 2.2500000e+01 
7.5000000e-01 3.0000000e+00 2.3000000e+01 
7.5000000e-01 3.0000000e+00 2.3500000e+01 
7.5000000e-01 3.0000000e+00 2.4000000e+01 
7.5000000e-01 3.0000000e+00 2.4500000e+01 
7.5000000e-01 3.0000000e+00 2.5000000e+01 
7.5000000e-01 3.0000000e+00 2.5500000e+01 
7.5000000e-01 3.0000000e+00 2.6000000e+01 
7.5000000e-01 3.0000000e+00 2.6500000e+01 
7.5000000e-01 3.0000000e+00 2.7000000e+01 
7.5000000e-01 3.0000000e+00 2.7500000e+01 
7.5000000e-01 3.0000000e+00 2.8000000e+01 
7.5000000e-01 3.0000000e+00 2.8500000e+01 
7.5000000e-01 3.0000000e+00 2.9000000e+01 
7.5000000e-01 3.0000000e+00 2.9500000e+01 
7.5000000e-01 3.0000000e+00 3.0000000e+01 
7.5000000e-01 3.0000000e+00 3.0500000e+01 
7.5000000e-01 3.0000000e+00 3.1000000e+01 
7.5000000e-01 3.0000000e+00 3.1500000e+01 
7.5000000e-01 3.0000000e+00 3.2000000e+01 
7.5000000e-01 3.0000000e+00 3.2500000e+01 
7.5000000e-01 3.0000000e+00 3.3000000e+01 
7.5000000e-01 3.0000000e+00 3.3500000e+01 
7.5000000e-01 3.0000000e+00 3.4000000e+01 
7.5000000e-01 3.0000000e+00 3.4500000e+01 
7.5000000e-01 3.0000000e+00 3.5000000e+01 
7.5000000e-01 3.0000000e+00 3.5500000e+01 
7.5000000e-01 3.0000000e+00 3.6000000e+01 
7.5000000e-01 3.0000000e+00 3.6500000e+01 
7.5000000e-01 3.0000000e+00 3.7000000e+01 
7.5000000e-01 3.0000000e+00 3.7500000e+01 
7.5000000e-01 3.0000000e+00 3.8000000e+01 
7.5000000e-01 3.0000000e+00 3.8500000e+01 
7.5000000e-01 3.0000000e+00 3.9000000e+01 
7.5000000e-01 3.0000000e+00 3.9500000e+01 
7.5000000e-01 3.0000000e+00 4.0000000e+01 
7.5000000e-01 3.0000000e+00 4.0500000e+01 
7.5000000e-01 3.0000000e+00 4.1000000e+01 
7.5000000e-01 3.0000000e+00 4.1500000e+01 
7.5000000e-01 3.0000000e+00 4.2000000e+01 
7.5000000e-01 3.0000000e+00 4.2500000e+01 
7.5000000e-01 3.0000000e+00 4.3000000e+01 
7.5000000e-01 3.0000000e+00 4.3500000e+01 
7.5000000e-01 3.0000000e+00 4.4000000e+01 
7.5000000e-01 3.0000000e+00 4.4500000e+01 
7.5000000e-01 3.0000000e+00 4.5000000e+01 
7.5000000e-01 3.0000000e+00 4.5500000e+01 
7.5000000e-01 3.0000000e+00 4.6000000e+01 
7.5000000e-01 3.0000000e+00 4.6500000e+01 
7.5000000e-01 3.0000000e+00 4.7000000e+01 
7.5000000e-01 3.0000000e+00 4.7500000e+01 
7.5000000e-01 3.0000000e+00 4.8000000e+01 
7.5000000e-01 3.0000000e+00 4.8500000e+01 
7.5000000e-01 3.0000000e+00 4.9000000e+01 
7.5000000e-01 3.0000000e+00 4.9500000e+01 
7.5000000e-01 3.0250001e+00 0.0000000e+00 
7.5000000e-01 3.0250001e+00 5.0000000e-01 
7.5000000e-01 3.0250001e+00 1.0000000e+00 
7.5000000e-01 3.0250001e+00 1.5000000e+00 
7.5000000e-01 3.0250001e+00 2.0000000e+00 
7.5000000e-01 3.0250001e+00 2.5000000e+00 
7.5000000e-01 3.0250001e+00 3.0000000e+00 
7.5000000e-01 3.0250001e+00 3.5000000e+00 
7.5000000e-01 3.0250001e+00 4.0000000e+00 
7.5000000e-01 3.0250001e+00 4.5000000e+00 
7.5000000e-01 3.0250001e+00 5.0000000e+00 
7.5000000e-01 3.0250001e+00 5.5000000e+00 
7.5000000e-01 3.0250001e+00 6.0000000e+00 
7.5000000e-01 3.0250001e+00 6.5000000e+00 
7.5000000e-01 3.0250001e+00 7.0000000e+00 
7.5000000e-01 3.0250001e+00 7.5000000e+00 
7.5000000e-01 3.0250001e+00 8.0000000e+00 
7.5000000e-01 3.0250001e+00 8.5000000e+00 
7.5000000e-01 3.0250001e+00 9.0000000e+00 
7.5000000e-01 3.0250001e+00 9.5000000e+00 
7.5000000e-01 3.0250001e+00 1.0000000e+01 
7.5000000e-01 3.0250001e+00 1.0500000e+01 
7.5000000e-01 3.0250001e+00 1.1000000e+01 
7.5000000e-01 3.0250001e+00 1.1500000e+01 
7.5000000e-01 3.0250001e+00 1.2000000e+01 
7.5000000e-01 3.0250001e+00 1.2500000e+01 
7.5000000e-01 3.0250001e+00 1.3000000e+01 
7.5000000e-01 3.0250001e+00 1.3500000e+01 
7.5000000e-01 3.0250001e+00 1.4000000e+01 
7.5000000e-01 3.0250001e+00 1.4500000e+01 
7.5000000e-01 3.0250001e+00 1.5000000e+01 
7.5000000e-01 3.0250001e+00 1.5500000e+01 
7.5000000e-01 3.0250001e+00 1.6000000e+01 
7.5000000e-01 3.0250001e+00 1.6500000e+01 
7.5000000e-01 3.0250001e+00 1.7000000e+01 
7.5000000e-01 3.0250001e+00 1.7500000e+01 
7.5000000e-01 3.0250001e+00 1.8000000e+01 
7.5000000e-01 3.0250001e+00 1.8500000e+01 
7.5000000e-01 3.0250001e+00 1.9000000e+01 
7.5000000e-01 3.0250001e+00 1.9500000e+01 
7.5000000e-01 3.0250001e+00 2.0000000e+01 
7.5000000e-01 3.0250001e+00 2.0500000e+01 
7.5000000e-01 3.0250001e+00 2.1000000e+01 
7.5000000e-01 3.0250001e+00 2.1500000e+01 
7.5000000e-01 3.0250001e+00 2.2000000e+01 
7.5000000e-01 3.0250001e+00 2.2500000e+01 
7.5000000e-01 3.0250001e+00 2.3000000e+01 
7.5000000e-01 3.0250001e+00 2.3500000e+01 
7.5000000e-01 3.0250001e+00 2.4000000e+01 
7.5000000e-01 3.0250001e+00 2.4500000e+01 
7.5000000e-01 3.0250001e+00 2.5000000e+01 
7.5000000e-01 3.0250001e+00 2.5500000e+01 
7.5000000e-01 3.0250001e+00 2.6000000e+01 
7.5000000e-01 3.0250001e+00 2.6500000e+01 
7.5000000e-01 3.0250001e+00 2.7000000e+01 
7.5000000e-01 3.0250001e+00 2.7500000e+01 
7.5000000e-01 3.0250001e+00 2.8000000e+01 
7.5000000e-01 3.0250001e+00 2.8500000e+01 
7.5000000e-01 3.0250001e+00 2.9000000e+01 
7.5000000e-01 3.0250001e+00 2.9500000e+01 
7.5000000e-01 3.0250001e+00 3.0000000e+01 
7.5000000e-01 3.0250001e+00 3.0500000e+01 
7.5000000e-01 3.0250001e+00 3.1000000e+01 
7.5000000e-01 3.0250001e+00 3.1500000e+01 
7.5000000e-01 3.0250001e+00 3.2000000e+01 
7.5000000e-01 3.0250001e+00 3.2500000e+01 
7.5000000e-01 3.0250001e+00 3.3000000e+01 
7.5000000e-01 3.0250001e+00 3.3500000e+01 
7.5000000e-01 3.0250001e+00 3.4000000e+01 
7.5000000e-01 3.0250001e+00 3.4500000e+01 
7.5000000e-01 3.0250001e+00 3.5000000e+01 
7.5000000e-01 3.0250001e+00 3.5500000e+01 
7.5000000e-01 3.0250001e+00 3.6000000e+01 
7.5000000e-01 3.0250001e+00 3.6500000e+01 
7.5000000e-01 3.0250001e+00 3.7000000e+01 
7.5000000e-01 3.0250001e+00 3.7500000e+01 
7.5000000e-01 3.0250001e+00 3.8000000e+01 
7.5000000e-01 3.0250001e+00 3.8500000e+01 
7.5000000e-01 3.0250001e+00 3.9000000e+01 
7.5000000e-01 3.0250001e+00 3.9500000e+01 
7.5000000e-01 3.0250001e+00 4.0000000e+01 
7.5000000e-01 3.0250001e+00 4.0500000e+01 
7.5000000e-01 3.0250001e+00 4.1000000e+01 
7.5000000e-01 3.0250001e+00 4.1500000e+01 
7.5000000e-01 3.0250001e+00 4.2000000e+01 
7.5000000e-01 3.0250001e+00 4.2500000e+01 
7.5000000e-01 3.0250001e+00 4.3000000e+01 
7.5000000e-01 3.0250001e+00 4.3500000e+01 
7.5000000e-01 3.0250001e+00 4.4000000e+01 
7.5000000e-01 3.0250001e+00 4.4500000e+01 
7.5000000e-01 3.0250001e+00 4.5000000e+01 
7.5000000e-01 3.0250001e+00 4.5500000e+01 
7.5000000e-01 3.0250001e+00 4.6000000e+01 
7.5000000e-01 3.0250001e+00 4.6500000e+01 
7.5000000e-01 3.0250001e+00 4.7000000e+01 
7.5000000e-01 3.0250001e+00 4.7500000e+01 
7.5000000e-01 3.0250001e+00 4.8000000e+01 
7.5000000e-01 3.0250001e+00 4.8500000e+01 
7.5000000e-01 3.0250001e+00 4.9000000e+01 
7.5000000e-01 3.0250001e+00 4.9500000e+01 
7.5000000e-01 3.0250001e+00 5.0000000e+01 
3.0000000e+00 2.0000000e+00 3.6000000e+01 
8.0487806e-01 3.0000000e+00 3.6000000e+01 
0.0000000e+00 0.0000000e+00 1.0000000e+00 
0.0000000e+00 0.0000000e+00 2.0000000e+00 
0.0000000e+00 0.0000000e+00 3.0000000e+00 
0.0000000e+00 0.0000000e+00 4.0000000e+00 
0.0000000e+00 0.0000000e+00 5.0000000e+00 
0.0000000e+00 0.0000000e+00 6.0000000e+00 
0.0000000e+00 0.0000000e+00 7.0000000e+00 
0.0000000e+00 0.0000000e+00 8.0000000e+00 
[...]
POINT_DATA 1919
FIELD FieldData 3
DISPLACEMENT 3 1919  float
0.0000000e+00 0.0000000e+00 0.0000000e+00 
0.0000000e+00 0.0000000e+00 0.0000000e+00 
0.0000000e+00 0.0000000e+00 0.0000000e+00 
0.0000000e+00 0.0000000e+00 0.0000000e+00 
-3.0489934e-07 1.1825330e-07 5.1781160e-07 
2.5009344e-06 -2.4100787e-06 2.7184292e-06 
0.0000000e+00 -8.4619360e-06 0.0000000e+00 
0.0000000e+00 8.7957342e-06 0.0000000e+00 
-7.4104224e-07 -5.5612622e-07 1.9481877e-07 
2.0221548e-06 -2.7863073e-06 3.6313279e-06 
-7.8031354e-07 -4.9552324e-07 1.2816786e-06 
-1.6161658e-06 -6.7411383e-06 2.4417234e-06 
0.0000000e+00 -1.3140739e-05 0.0000000e+00 
0.0000000e+00 1.5440348e-05 0.0000000e+00 
-4.9179384e-06 -8.6196469e-06 1.0047936e-05 
6.7839524e-06 1.7390842e-06 -1.8286852e-05 
4.0332338e-06 -2.8029644e-05 1.2017715e-05 
5.0480678e-05 -5.4331067e-05 -1.8608853e-05 
0.0000000e+00 -1.6790549e-05 0.0000000e+00 
0.0000000e+00 3.5708799e-05 0.0000000e+00 
-1.0025866e-05 -2.8069588e-05 5.5880173e-07 
-1.2003734e-05 -2.7538412e-05 -5.3364283e-06 
-1.0278924e-05 -2.5996684e-05 -5.5734890e-06 
-7.7109926e-06 -2.3525885e-05 -7.1197661e-07 
-8.2967199e-06 -2.0057305e-05 -2.2323065e-06 
-2.4832498e-06 -1.5408792e-05 -9.2646142e-06 
-2.8542740e-06 -9.9398885e-06 -1.6804228e-05 
-2.1498531e-06 -7.4740424e-06 -1.5878482e-05 
-3.7751718e-06 -9.9652480e-06 -1.5812604e-05 
1.1280416e-06 -1.7331609e-05 -1.1773190e-05 
-3.0241219e-07 -2.5994363e-05 -6.1822670e-06 
1.2841413e-06 -3.0732532e-05 -2.2121869e-06 
-8.3541499e-06 -2.9618614e-05 -4.2878687e-06 
-6.6908792e-06 -2.5297048e-05 -1.3724486e-05 
-2.7959716e-06 -2.1082533e-05 -1.6354563e-05 
2.9270024e-07 -2.1290831e-05 -1.6659196e-05 
1.7487168e-06 -2.3375531e-05 -2.1050328e-05 
1.2948935e-06 -1.9202540e-05 -1.2334403e-05 
4.9224127e-06 -4.4954750e-06 -5.8604319e-06 
8.7000117e-06 1.7843462e-05 3.5247474e-06 
8.5323582e-06 3.5984438e-05 1.5790678e-05 
1.0244131e-05 3.7449961e-05 2.5290001e-05 
1.5358424e-05 2.3019835e-05 2.9014767e-05 
1.1961787e-05 8.2893948e-06 3.0549618e-05 
5.6573535e-06 6.5723652e-06 4.0945768e-05 
-4.2852982e-08 2.0287145e-05 4.6265253e-05 
7.9110523e-06 3.7560611e-05 5.5644199e-05 
8.7708504e-06 4.1018953e-05 5.9665188e-05 
1.0054491e-05 2.6916519e-05 5.7556423e-05 
6.9890405e-07 1.0389109e-05 7.0161921e-05 
-1.9880161e-05 1.0052322e-05 7.5840697e-05 
-1.4572688e-05 2.9418716e-05 7.2234696e-05 
-2.0245614e-05 1.6301390e-05 1.0462746e-04 
-3.5614848e-05 -1.5256823e-04 1.0271468e-04 
-6.5776643e-05 -5.8296142e-04 1.8044095e-04 
-9.5750809e-05 -1.3102029e-03 1.6083129e-04 
-1.4433455e-04 -2.2974936e-03 2.6094413e-04 
-1.8023075e-04 -3.3913432e-03 9.8180397e-05 
-2.1360935e-04 -4.3412359e-03 1.9861831e-04 
-2.3135015e-04 -4.7377804e-03 5.9207137e-05 
-2.3162655e-04 -4.6485541e-03 3.0567731e-05 
-2.3733237e-04 -4.5562470e-03 3.6832658e-05 
-2.1719304e-04 -4.7138031e-03 6.5722030e-05 
-2.4267290e-04 -4.8437361e-03 -3.6211099e-05 
-2.5451189e-04 -4.4715842e-03 -1.1321748e-04 
-2.2810636e-04 -3.4766374e-03 -9.7521603e-05 
-2.0805009e-04 -2.3606732e-03 -2.4344736e-04 
-1.5436739e-04 -1.4244030e-03 -1.6470495e-04 
-1.0751952e-04 -7.5781794e-04 -2.1488323e-04 
-6.6572815e-05 -3.3719579e-04 -1.5663609e-04 
-4.4787619e-05 -1.0843162e-04 -1.6725496e-04 
-2.5937472e-05 -9.6982103e-06 -1.3008159e-04 
-1.7806329e-05 1.9571597e-05 -1.1297414e-04 
-7.2763423e-06 2.3418732e-05 -9.9416597e-05 
-7.0869951e-06 2.3977678e-05 -9.6748969e-05 
1.7057123e-06 1.9072671e-05 -9.6679389e-05 
5.1454499e-06 8.8744673e-06 -9.6507938e-05 
7.4292325e-06 3.9456967e-07 -7.6332704e-05 
9.8617738e-06 1.0832137e-05 -6.2327323e-05 
2.2970660e-05 5.0666498e-05 -4.2968459e-05 
4.1066105e-05 1.0471544e-04 -3.0401967e-05 
4.4698882e-05 1.4289041e-04 -2.0989781e-05 
5.0706134e-05 1.4359473e-04 -7.1964819e-06 
4.1173691e-05 1.1031287e-04 1.5217179e-05 
2.8209628e-05 7.6370678e-05 2.4820978e-05 
1.8394372e-05 7.7800440e-05 4.4587567e-05 
1.8305424e-05 1.1467719e-04 7.2829534e-05 
1.6126613e-05 1.6225835e-04 8.5164742e-05 
-7.5427265e-06 1.8903133e-04 9.5425232e-05 
-2.8615741e-05 1.7798865e-04 8.7310378e-05 
-2.4725143e-05 1.4560811e-04 4.1283864e-05 
-1.6119317e-05 1.1264181e-04 3.9204413e-05 
-9.5531150e-06 6.4573418e-05 6.6086373e-05 
-5.7380457e-06 -9.6342417e-05 9.7807300e-05 
-2.2319879e-05 -5.0091179e-04 2.1504621e-04 
-4.8289705e-05 -1.2399623e-03 2.2645677e-04 
-9.1495182e-05 -2.3074944e-03 3.5963094e-04 
-1.4847270e-04 -3.4887549e-03 2.0743163e-04 
-2.1220437e-04 -4.4074683e-03 2.7214427e-04 
-2.4206599e-04 -4.6219737e-03 1.1684228e-04 
-2.4724213e-04 -4.5083477e-03 6.1098639e-05 
-2.5770365e-04 -4.5282017e-03 6.9309885e-06 
-2.4532463e-04 -4.7877706e-03 1.6191957e-06 
-2.6418423e-04 -4.8656152e-03 -1.1356524e-04 
-2.4645083e-04 -4.2571197e-03 -2.2553168e-04 
-1.9215925e-04 -3.1426016e-03 -1.8477622e-04 
-1.6105542e-04 -2.0037747e-03 -2.8598247e-04 
-1.5124680e-04 -1.0679245e-03 -3.3762428e-04 
-3.2745476e-05 -4.0130442e-04 -1.7593040e-04 
-2.5685447e-06 -8.2458282e-06 -1.0440372e-04 
2.1358194e-06 1.6506488e-04 -6.8276677e-05 
-4.3170780e-06 1.9560842e-04 -2.6991300e-05 
-1.2416080e-05 1.5653727e-04 -8.1688822e-06 
-1.3843057e-05 9.5466989e-05 -1.9893689e-05 
-1.4111471e-05 3.6894013e-05 -3.0291456e-05 
-1.0438202e-05 -1.1808867e-05 -4.8706675e-05 
-1.0503621e-05 -4.3966720e-05 -5.5270903e-05 
-6.5166823e-06 -5.7139914e-05 -5.6430126e-05 
7.5849048e-06 -5.6694334e-05 -4.6750498e-05 
0.0000000e+00 -2.8039456e-05 0.0000000e+00 
0.0000000e+00 -2.8042235e-05 0.0000000e+00 
0.0000000e+00 -2.7536145e-05 0.0000000e+00 
0.0000000e+00 -2.6039290e-05 0.0000000e+00 
0.0000000e+00 -2.3552633e-05 0.0000000e+00 
0.0000000e+00 -1.9997146e-05 0.0000000e+00 
0.0000000e+00 -1.5165898e-05 0.0000000e+00 
0.0000000e+00 -9.9570589e-06 0.0000000e+00 
0.0000000e+00 -7.5339826e-06 0.0000000e+00 
0.0000000e+00 -1.0154745e-05 0.0000000e+00 
0.0000000e+00 -1.7470627e-05 0.0000000e+00 
0.0000000e+00 -2.5849553e-05 0.0000000e+00 
0.0000000e+00 -3.0464460e-05 0.0000000e+00 
0.0000000e+00 -2.9483183e-05 0.0000000e+00 
0.0000000e+00 -2.5190529e-05 0.0000000e+00 
0.0000000e+00 -2.1432776e-05 0.0000000e+00 
0.0000000e+00 -2.1593209e-05 0.0000000e+00 
0.0000000e+00 -2.3301569e-05 0.0000000e+00 
0.0000000e+00 -1.8962723e-05 0.0000000e+00 
0.0000000e+00 -3.9570109e-06 0.0000000e+00 
0.0000000e+00 1.8093377e-05 0.0000000e+00 
0.0000000e+00 3.5443049e-05 0.0000000e+00 
0.0000000e+00 3.6600723e-05 0.0000000e+00 
0.0000000e+00 2.2812712e-05 0.0000000e+00 
0.0000000e+00 8.6248128e-06 0.0000000e+00 
0.0000000e+00 7.4646532e-06 0.0000000e+00 
0.0000000e+00 2.0932248e-05 0.0000000e+00 
0.0000000e+00 3.7101960e-05 0.0000000e+00 
0.0000000e+00 4.0082468e-05 0.0000000e+00 
0.0000000e+00 2.6437276e-05 0.0000000e+00 
0.0000000e+00 1.0669573e-05 0.0000000e+00 
0.0000000e+00 1.2683236e-05 0.0000000e+00 
0.0000000e+00 3.3431854e-05 0.0000000e+00 
0.0000000e+00 1.6594873e-05 0.0000000e+00 
0.0000000e+00 -1.5520891e-04 0.0000000e+00 
0.0000000e+00 -5.8740820e-04 0.0000000e+00 
0.0000000e+00 -1.3176207e-03 0.0000000e+00 
0.0000000e+00 -2.3037586e-03 0.0000000e+00 
0.0000000e+00 -3.4083724e-03 0.0000000e+00 
0.0000000e+00 -4.3638404e-03 0.0000000e+00 
0.0000000e+00 -4.7710887e-03 0.0000000e+00 
0.0000000e+00 -4.6730586e-03 0.0000000e+00 
0.0000000e+00 -4.5834742e-03 0.0000000e+00 
0.0000000e+00 -4.7334745e-03 0.0000000e+00 
0.0000000e+00 -4.8717787e-03 0.0000000e+00 
0.0000000e+00 -4.4941311e-03 0.0000000e+00 
0.0000000e+00 -3.4976713e-03 0.0000000e+00 
0.0000000e+00 -2.3706525e-03 0.0000000e+00 
0.0000000e+00 -1.4291416e-03 0.0000000e+00 
0.0000000e+00 -7.5913756e-04 0.0000000e+00 
0.0000000e+00 -3.3771290e-04 0.0000000e+00 
0.0000000e+00 -1.0840302e-04 0.0000000e+00 
0.0000000e+00 -8.6708178e-06 0.0000000e+00 
0.0000000e+00 2.0904079e-05 0.0000000e+00 
0.0000000e+00 2.4698282e-05 0.0000000e+00 
0.0000000e+00 2.3901261e-05 0.0000000e+00 
0.0000000e+00 1.8714602e-05 0.0000000e+00 
0.0000000e+00 8.3209434e-06 0.0000000e+00 
0.0000000e+00 6.8423003e-07 0.0000000e+00 
0.0000000e+00 1.2015441e-05 0.0000000e+00 
0.0000000e+00 5.1320578e-05 0.0000000e+00 
0.0000000e+00 1.0457357e-04 0.0000000e+00 
0.0000000e+00 1.4207061e-04 0.0000000e+00 
0.0000000e+00 1.4209718e-04 0.0000000e+00 
0.0000000e+00 1.0977928e-04 0.0000000e+00 
0.0000000e+00 7.7734221e-05 0.0000000e+00 
0.0000000e+00 7.8986828e-05 0.0000000e+00 
0.0000000e+00 1.1555593e-04 0.0000000e+00 
0.0000000e+00 1.6218616e-04 0.0000000e+00 
0.0000000e+00 1.8754622e-04 0.0000000e+00 
0.0000000e+00 1.7738268e-04 0.0000000e+00 
0.0000000e+00 1.4676711e-04 0.0000000e+00 
0.0000000e+00 1.1648041e-04 0.0000000e+00 
0.0000000e+00 6.6830631e-05 0.0000000e+00 
0.0000000e+00 -9.6985183e-05 0.0000000e+00 
0.0000000e+00 -5.0506851e-04 0.0000000e+00 
0.0000000e+00 -1.2510857e-03 0.0000000e+00 
0.0000000e+00 -2.3181953e-03 0.0000000e+00 
0.0000000e+00 -3.5080793e-03 0.0000000e+00 
0.0000000e+00 -4.4278330e-03 0.0000000e+00 
0.0000000e+00 -4.6514678e-03 0.0000000e+00 
0.0000000e+00 -4.5321099e-03 0.0000000e+00 
0.0000000e+00 -4.5561315e-03 0.0000000e+00 
0.0000000e+00 -4.8086890e-03 0.0000000e+00 
0.0000000e+00 -4.8941369e-03 0.0000000e+00 
0.0000000e+00 -4.2779725e-03 0.0000000e+00 
0.0000000e+00 -3.1600809e-03 0.0000000e+00 
0.0000000e+00 -2.0114921e-03 0.0000000e+00 
0.0000000e+00 -1.0708997e-03 0.0000000e+00 
0.0000000e+00 -4.0432595e-04 0.0000000e+00 
0.0000000e+00 -9.2175078e-06 0.0000000e+00 
0.0000000e+00 1.6576928e-04 0.0000000e+00 
0.0000000e+00 1.9722013e-04 0.0000000e+00 
0.0000000e+00 1.5772811e-04 0.0000000e+00 
0.0000000e+00 9.6181531e-05 0.0000000e+00 
0.0000000e+00 3.6843179e-05 0.0000000e+00 
0.0000000e+00 -1.1591797e-05 0.0000000e+00 
0.0000000e+00 -4.3505297e-05 0.0000000e+00 
0.0000000e+00 -5.6814304e-05 0.0000000e+00 
0.0000000e+00 -5.6945741e-05 0.0000000e+00 
0.0000000e+00 -5.4810418e-05 0.0000000e+00 
8.9956893e-06 8.0634409e-06 7.4615950e-06 
-1.5295553e-05 6.6182256e-05 3.8602549e-05 
0.0000000e+00 0.0000000e+00 0.0000000e+00 
0.0000000e+00 0.0000000e+00 0.0000000e+00 
0.0000000e+00 0.0000000e+00 0.0000000e+00 
0.0000000e+00 0.0000000e+00 0.0000000e+00 
0.0000000e+00 0.0000000e+00 0.0000000e+00 
0.0000000e+00 0.0000000e+00 0.0000000e+00 
0.0000000e+00 0.0000000e+00 0.0000000e+00 
0.0000000e+00 0.0000000e+00 0.0000000e+00 
0.0000000e+00 0.0000000e+00 0.0000000e+00 
0.0000000e+00 0.0000000e+00 0.0000000e+00 
0.0000000e+00 0.0000000e+00 0.0000000e+00 
0.0000000e+00 0.0000000e+00 0.0000000e+00 
0.0000000e+00 0.0000000e+00 0.0000000e+00 
0.0000000e+00 0.0000000e+00 0.0000000e+00 
0.0000000e+00 0.0000000e+00 0.0000000e+00 
0.0000000e+00 0.0000000e+00 0.0000000e+00 
0.0000000e+00 0.0000000e+00 0.0000000e+00 
0.0000000e+00 0.0000000e+00 0.0000000e+00 
0.0000000e+00 0.0000000e+00 0.0000000e+00 
0.0000000e+00 0.0000000e+00 0.0000000e+00 
0.0000000e+00 0.0000000e+00 0.0000000e+00 
0.0000000e+00 0.0000000e+00 0.0000000e+00 
0.0000000e+00 0.0000000e+00 0.0000000e+00 
0.0000000e+00 0.0000000e+00 0.0000000e+00 
0.0000000e+00 0.0000000e+00 0.0000000e+00 
0.0000000e+00 0.0000000e+00 0.0000000e+00 
0.0000000e+00 0.0000000e+00 0.0000000e+00 
0.0000000e+00 0.0000000e+00 0.0000000e+00 
0.0000000e+00 0.0000000e+00 0.0000000e+00 
0.0000000e+00 0.0000000e+00 0.0000000e+00 
0.0000000e+00 0.0000000e+00 0.0000000e+00 
0.0000000e+00 0.0000000e+00 0.0000000e+00 
0.0000000e+00 0.0000000e+00 0.0000000e+00 
0.0000000e+00 0.0000000e+00 0.0000000e+00 
0.0000000e+00 0.0000000e+00 0.0000000e+00 
0.0000000e+00 0.0000000e+00 0.0000000e+00 
0.0000000e+00 0.0000000e+00 0.0000000e+00 
0.0000000e+00 0.0000000e+00 0.0000000e+00 
0.0000000e+00 0.0000000e+00 0.0000000e+00 
0.0000000e+00 0.0000000e+00 0.0000000e+00 
0.0000000e+00 0.0000000e+00 0.0000000e+00 
0.0000000e+00 0.0000000e+00 0.0000000e+00 
0.0000000e+00 0.0000000e+00 0.0000000e+00 
0.0000000e+00 0.0000000e+00 0.0000000e+00 
0.0000000e+00 0.0000000e+00 0.0000000e+00 
0.0000000e+00 0.0000000e+00 0.0000000e+00 
0.0000000e+00 0.0000000e+00 0.0000000e+00 
0.0000000e+00 0.0000000e+00 0.0000000e+00 
0.0000000e+00 0.0000000e+00 0.0000000e+00 
0.0000000e+00 0.0000000e+00 0.0000000e+00 
0.0000000e+00 0.0000000e+00 0.0000000e+00 
0.0000000e+00 0.0000000e+00 0.0000000e+00 
0.0000000e+00 0.0000000e+00 0.0000000e+00 
0.0000000e+00 0.0000000e+00 0.0000000e+00 
0.0000000e+00 0.0000000e+00 0.0000000e+00 
0.0000000e+00 0.0000000e+00 0.0000000e+00 
0.0000000e+00 0.0000000e+00 0.0000000e+00 
0.0000000e+00 0.0000000e+00 0.0000000e+00 
0.0000000e+00 0.0000000e+00 0.0000000e+00 
0.0000000e+00 0.0000000e+00 0.0000000e+00 
0.0000000e+00 0.0000000e+00 0.0000000e+00 
0.0000000e+00 0.0000000e+00 0.0000000e+00 
0.0000000e+00 0.0000000e+00 0.0000000e+00 
0.0000000e+00 0.0000000e+00 0.0000000e+00 
0.0000000e+00 0.0000000e+00 0.0000000e+00 
0.0000000e+00 0.0000000e+00 0.0000000e+00 
0.0000000e+00 0.0000000e+00 0.0000000e+00 
0.0000000e+00 0.0000000e+00 0.0000000e+00 
0.0000000e+00 0.0000000e+00 0.0000000e+00 
0.0000000e+00 0.0000000e+00 0.0000000e+00 
0.0000000e+00 0.0000000e+00 0.0000000e+00 
0.0000000e+00 0.0000000e+00 0.0000000e+00 
0.0000000e+00 0.0000000e+00 0.0000000e+00 
0.0000000e+00 0.0000000e+00 0.0000000e+00 
0.0000000e+00 0.0000000e+00 0.0000000e+00 
0.0000000e+00 0.0000000e+00 0.0000000e+00 
0.0000000e+00 0.0000000e+00 0.0000000e+00 
0.0000000e+00 0.0000000e+00 0.0000000e+00 
0.0000000e+00 0.0000000e+00 0.0000000e+00 
0.0000000e+00 0.0000000e+00 0.0000000e+00 
0.0000000e+00 0.0000000e+00 0.0000000e+00 
0.0000000e+00 0.0000000e+00 0.0000000e+00 
0.0000000e+00 0.0000000e+00 0.0000000e+00 
0.0000000e+00 0.0000000e+00 0.0000000e+00 
0.0000000e+00 0.0000000e+00 0.0000000e+00 
0.0000000e+00 0.0000000e+00 0.0000000e+00 
0.0000000e+00 0.0000000e+00 0.0000000e+00 
0.0000000e+00 0.0000000e+00 0.0000000e+00 
0.0000000e+00 0.0000000e+00 0.0000000e+00 
0.0000000e+00 0.0000000e+00 0.0000000e+00 
0.0000000e+00 0.0000000e+00 0.0000000e+00 
0.0000000e+00 0.0000000e+00 0.0000000e+00 
0.0000000e+00 0.0000000e+00 0.0000000e+00 
0.0000000e+00 0.0000000e+00 0.0000000e+00 
0.0000000e+00 0.0000000e+00 0.0000000e+00 
0.0000000e+00 0.0000000e+00 0.0000000e+00 
0.0000000e+00 0.0000000e+00 0.0000000e+00 
0.0000000e+00 0.0000000e+00 0.0000000e+00 
0.0000000e+00 0.0000000e+00 0.0000000e+00 
0.0000000e+00 0.0000000e+00 0.0000000e+00 
0.0000000e+00 0.0000000e+00 0.0000000e+00 
0.0000000e+00 0.0000000e+00 0.0000000e+00 
0.0000000e+00 0.0000000e+00 0.0000000e+00 
0.0000000e+00 0.0000000e+00 0.0000000e+00 
0.0000000e+00 0.0000000e+00 0.0000000e+00 
0.0000000e+00 0.0000000e+00 0.0000000e+00 
1.0283592e-06 -3.8206406e-07 -6.9871425e-07 
1.1775908e-06 -1.7907071e-07 -7.3533997e-08 
3.9251168e-07 -9.4287901e-07 9.5909900e-07 
3.8040599e-07 -5.2732724e-07 3.1535990e-07 
-3.2286636e-07 7.2371654e-07 4.6894306e-07 
-1.4639656e-06 1.9938304e-06 2.8385787e-06 
-1.6832458e-06 2.8024335e-06 1.1579326e-06 
5.2371870e-08 5.6791362e-07 2.0753414e-06 
-3.6815409e-06 1.8600073e-06 4.2433935e-06 
-4.7261178e-06 -1.1067121e-06 2.2664251e-06 
1.7448862e-06 -2.0382968e-06 1.8980069e-06 
-6.4494509e-07 -4.1692616e-07 1.1397927e-06 
6.0764694e-07 -2.6112748e-06 -1.1414838e-06 
5.7866100e-06 -1.3788903e-05 -4.2381835e-06 
8.4806579e-06 -1.4011449e-06 -6.6842376e-06 
1.6133350e-05 -3.4391867e-06 -1.5593365e-05 
2.2888054e-05 -1.0957737e-05 -1.5153335e-05 
3.4181732e-05 -7.2193234e-06 -1.4806786e-05 
4.2576918e-05 -1.6098518e-05 -1.2695025e-05 
4.7952417e-05 -1.6529080e-05 -8.5015818e-06 
4.9804177e-05 -1.6947370e-05 -3.6778818e-06 
4.5012974e-05 -1.7572132e-05 2.5417742e-06 
3.4802473e-05 -1.0467657e-05 1.2053064e-05 
2.6675631e-05 -9.8104674e-06 9.7824704e-06 
1.5078153e-05 -2.0965526e-06 8.2306251e-06 
4.3098657e-06 2.2037136e-06 7.7569966e-06 
-7.8726725e-07 2.1769076e-06 4.6110804e-06 
-4.5589659e-06 2.5698645e-07 2.0653347e-06 
-7.2436060e-06 2.4228089e-07 4.1620128e-06 
-6.0294842e-06 -6.7101979e-07 5.6468803e-06 
-1.2967993e-06 -3.7697009e-06 5.7551947e-06 
-1.4315858e-06 -4.1477986e-07 4.0040063e-06 
1.9739798e-06 3.3543422e-06 1.6532393e-06 
5.1806892e-06 -6.9343200e-06 -7.3538087e-07 
6.9632542e-06 -2.0066109e-06 -3.3496613e-06 
1.5332174e-05 5.2709277e-07 -8.1969474e-06 
2.5400232e-05 -5.2544369e-06 -1.0158956e-05 
3.4898196e-05 -1.4148982e-05 -1.0976698e-05 
4.4840912e-05 -1.3637829e-05 -8.1275102e-06 
4.8367576e-05 -2.0039257e-05 -4.3693099e-06 
4.6764504e-05 -1.8955367e-05 1.7453556e-06 
4.0541065e-05 -1.4397287e-05 7.0258702e-06 
2.9196801e-05 -9.1179045e-06 1.0179528e-05 
1.8451708e-05 -2.3178093e-06 1.0777574e-05 
7.9041101e-06 7.5519614e-07 5.9752138e-06 
3.6023707e-06 1.2000854e-06 2.9016908e-06 
-1.3392354e-06 5.6003756e-07 5.4941989e-07 
-9.4722583e-07 -1.3954859e-07 4.7847925e-07 
4.6343089e-07 -1.0995658e-06 1.9829120e-06 
0.0000000e+00 -1.8416351e-05 0.0000000e+00 
0.0000000e+00 -3.2113196e-05 0.0000000e+00 
0.0000000e+00 -3.2374090e-05 0.0000000e+00 
0.0000000e+00 -3.9842176e-05 0.0000000e+00 
0.0000000e+00 -4.3598538e-05 0.0000000e+00 
0.0000000e+00 -3.6177822e-05 0.0000000e+00 
0.0000000e+00 -1.3682461e-05 0.0000000e+00 
0.0000000e+00 -1.9467610e-05 0.0000000e+00 
0.0000000e+00 4.4381327e-06 0.0000000e+00 
0.0000000e+00 2.0717407e-06 0.0000000e+00 
0.0000000e+00 7.9304709e-06 0.0000000e+00 
0.0000000e+00 -8.0713207e-06 0.0000000e+00 
0.0000000e+00 2.0580506e-05 0.0000000e+00 
0.0000000e+00 -2.1408778e-05 0.0000000e+00 
0.0000000e+00 -6.5852226e-05 0.0000000e+00 
0.0000000e+00 -2.5411486e-05 0.0000000e+00 
0.0000000e+00 -1.2648065e-04 0.0000000e+00 
0.0000000e+00 -2.8242049e-04 0.0000000e+00 
0.0000000e+00 -4.1455802e-04 0.0000000e+00 
0.0000000e+00 -5.0541054e-04 0.0000000e+00 
0.0000000e+00 -5.3860468e-04 0.0000000e+00 
0.0000000e+00 -5.1565474e-04 0.0000000e+00 
0.0000000e+00 -4.0651654e-04 0.0000000e+00 
0.0000000e+00 -2.9487070e-04 0.0000000e+00 
0.0000000e+00 -1.4131361e-04 0.0000000e+00 
0.0000000e+00 -7.2538271e-05 0.0000000e+00 
0.0000000e+00 -2.7538112e-05 0.0000000e+00 
0.0000000e+00 -3.1164142e-05 0.0000000e+00 
0.0000000e+00 -2.9438845e-05 0.0000000e+00 
0.0000000e+00 5.8835408e-06 0.0000000e+00 
0.0000000e+00 4.6132442e-05 0.0000000e+00 
0.0000000e+00 3.3470977e-05 0.0000000e+00 
0.0000000e+00 2.6645645e-05 0.0000000e+00 
0.0000000e+00 4.9505317e-05 0.0000000e+00 
0.0000000e+00 3.2271550e-05 0.0000000e+00 
0.0000000e+00 2.3003671e-05 0.0000000e+00 
0.0000000e+00 -6.2510699e-05 0.0000000e+00 
0.0000000e+00 -1.8073333e-04 0.0000000e+00 
0.0000000e+00 -4.0473160e-04 0.0000000e+00 
0.0000000e+00 -4.8214043e-04 0.0000000e+00 
0.0000000e+00 -5.7359261e-04 0.0000000e+00 
0.0000000e+00 -5.0217943e-04 0.0000000e+00 
0.0000000e+00 -3.5514147e-04 0.0000000e+00 
0.0000000e+00 -1.8122229e-04 0.0000000e+00 
0.0000000e+00 -4.1807325e-05 0.0000000e+00 
0.0000000e+00 9.8185074e-06 0.0000000e+00 
0.0000000e+00 -7.0814174e-08 0.0000000e+00 
0.0000000e+00 -1.3334715e-05 0.0000000e+00 
0.0000000e+00 -1.3297555e-05 0.0000000e+00 
1.6950343e-06 -8.6887462e-07 -9.2566705e-07 
1.8097743e-06 -6.4765584e-07 -1.5076562e-06 
2.7742581e-06 -1.1452943e-06 -3.0807557e-06 
1.9790193e-06 -5.1009606e-06 -4.1945827e-06 
1.8013884e-06 -2.5973779e-06 3.7926961e-06 
-3.3405382e-07 -2.7213571e-06 4.4366429e-06 
-8.5944237e-07 -7.3374758e-07 3.8625863e-06 
-1.1438103e-06 5.4978823e-06 2.2876754e-06 
-4.5578577e-08 1.8775391e-07 7.6685001e-07 
-2.8966323e-07 -9.2508913e-07 1.4796641e-06 
-1.4331494e-06 -1.9090706e-07 1.0573970e-06 
-2.1295486e-06 1.9152421e-07 -2.2795682e-07 
-2.8060083e-06 -3.0648343e-07 1.2502308e-06 
-1.9040034e-06 2.2381719e-06 2.8090317e-06 
-6.8332838e-06 3.5053572e-06 3.2634655e-06 
-5.6620852e-06 5.5661104e-07 4.4163162e-06 
-3.5925104e-06 2.9275832e-06 3.5844159e-06 
-1.8939206e-06 -2.3317252e-06 7.4329901e-06 
-2.7520148e-06 -6.5600475e-06 4.7059366e-06 
-1.6650463e-07 -1.8238119e-06 3.7138953e-08 
3.5414016e-06 -1.5726916e-07 -1.2440493e-06 
1.1742463e-05 -1.3860331e-05 -5.7228372e-06 
8.3674604e-06 4.2308807e-06 -9.6678514e-06 
1.3167632e-05 -3.1445777e-06 -1.3886548e-05 
2.2428943e-05 -1.2551462e-05 -1.7871940e-05 
3.2596250e-05 -2.6846701e-06 -1.8812636e-05 
4.1136209e-05 -1.3281933e-05 -1.2170767e-05 
4.3552394e-05 -1.3253851e-05 -8.2619672e-06 