# vtk DataFile Version 4.0
vtk output
ASCII
DATASET UNSTRUCTURED_GRID
POINTS 766 float
0.0000000e+00 0.0000000e+00 0.0000000e+00 
0.0000000e+00 0.0000000e+00 5.0000000e+01 
5.0000000e+00 0.0000000e+00 0.0000000e+00 
5.0000000e+00 0.0000000e+00 5.0000000e+01 
5.0000000e+00 1.0000000e+00 0.0000000e+00 
5.0000000e+00 1.0000000e+00 5.0000000e+01 
0.0000000e+00 1.0000000e+00 0.0000000e+00 
0.0000000e+00 1.0000000e+00 5.0000000e+01 
5.0000000e+00 2.0000000e+00 0.0000000e+00 
5.0000000e+00 2.0000000e+00 5.0000000e+01 
3.0000000e+00 2.0000000e+00 0.0000000e+00 
3.0000000e+00 2.0000000e+00 5.0000000e+01 
0.0000000e+00 2.0000000e+00 0.0000000e+00 
0.0000000e+00 2.0000000e+00 5.0000000e+01 
1.5000000e+00 3.0000000e+00 0.0000000e+00 
1.5000000e+00 3.0000000e+00 5.0000000e+01 
7.5000000e-01 3.0000000e+00 0.0000000e+00 
7.5000000e-01 3.0000000e+00 5.0000000e+01 
0.0000000e+00 3.0000000e+00 0.0000000e+00 
0.0000000e+00 3.0000000e+00 5.0000000e+01 
7.5000000e-01 3.0000000e+00 5.0000000e-01 
7.5000000e-01 3.0000000e+00 1.0000000e+00 
7.5000000e-01 3.0000000e+00 1.5000000e+00 
7.5000000e-01 3.0000000e+00 2.0000000e+00 
7.5000000e-01 3.0000000e+00 2.5000000e+00 
7.5000000e-01 3.0000000e+00 3.0000000e+00 
7.5000000e-01 3.0000000e+00 3.5000000e+00 
7.5000000e-01 3.0000000e+00 4.0000000e+00 
7.5000000e-01 3.0000000e+00 4.5000000e+00 
7.5000000e-01 3.0000000e+00 5.0000000e+00 
7.5000000e-01 3.0000000e+00 5.5000000e+00 
7.5000000e-01 3.0000000e+00 6.0000000e+00 
7.5000000e-01 3.0000000e+00 6.5000000e+00 
7.5000000e-01 3.0000000e+00 7.0000000e+00 
7.5000000e-01 3.0000000e+00 7.5000000e+00 
7.5000000e-01 3.0000000e+00 8.0000000e+00 
7.5000000e-01 3.0000000e+00 8.5000000e+00 
7.5000000e-01 3.0000000e+00 9.0000000e+00 
7.5000000e-01 3.0000000e+00 9.5000000e+00 
7.5000000e-01 3.0000000e+00 1.0000000e+01 
7.5000000e-01 3.0000000e+00 1.0500000e+01 
7.5000000e-01 3.0000000e+00 1.1000000e+01 
7.5000000e-01 3.0000000e+00 1.1500000e+01 
7.5000000e-01 3.0000000e+00 1.2000000e+01 
7.5000000e-01 3.0000000e+00 1.2500000e+01 
7.5000000e-01 3.0000000e+00 1.3000000e+01 
7.5000000e-01 3.0000000e+00 1.3500000e+01 
7.5000000e-01 3.0000000e+00 1.4000000e+01 
7.5000000e-01 3.0000000e+00 1.4500000e+01 
7.5000000e-01 3.0000000e+00 1.5000000e+01 
7.5000000e-01 3.0000000e+00 1.5500000e+01 
7.5000000e-01 3.0000000e+00 1.6000000e+01 
7.5000000e-01 3.0000000e+00 1.6500000e+01 
7.5000000e-01 3.0000000e+00 1.7000000e+01 
7.5000000e-01 3.0000000e+00 1.7500000e+01 
7.5000000e-01 3.0000000e+00 1.8000000e+01 
7.5000000e-01 3.0000000e+00 1.8500000e+01 
7.5000000e-01 3.0000000e+00 1.9000000e+01 
7.5000000e-01 3.0000000e+00 1.9500000e+01 
7.5000000e-01 3.0000000e+00 2.0000000e+01 
7.5000000e-01 3.0000000e+00 2.0500000e+01 
7.5000000e-01 3.0000000e+00 2.1000000e+01 
7.5000000e-01 3.0000000e+00 2.1500000e+01 
7.5000000e-01 3.0000000e+00 2.2000000e+01 
7.5000000e-01 3.0000000e+00 2.2500000e+01 
7.5000000e-01 3.0000000e+00 2.3000000e+01 
7.5000000e-01 3.0000000e+00 2.3500000e+01 
7.5000000e-01 3.0000000e+00 2.4000000e+01 
7.5000000e-01 3.0000000e+00 2.4500000e+01 
7.5000000e-01 3.0000000e+00 2.5000000e+01 
7.5000000e-01 3.0000000e+00 2.5500000e+01 
7.5000000e-01 3.0000000e+00 2.6000000e+01 
7.5000000e-01 3.0000000e+00 2.6500000e+01 
7.5000000e-01 3.0000000e+00 2.7000000e+01 
7.5000000e-01 3.0000000e+00 2.7500000e+01 
7.5000000e-01 3.0000000e+00 2.8000000e+01 
7.5000000e-01 3.0000000e+00 2.8500000e+01 
7.5000000e-01 3.0000000e+00 2.9000000e+01 
7.5000000e-01 3.0000000e+00 2.9500000e+01 
7.5000000e-01 3.0000000e+00 3.0000000e+01 
7.5000000e-01 3.0000000e+00 3.0500000e+01 
7.5000000e-01 3.0000000e+00 3.1000000e+01 
7.5000000e-01 3.0000000e+00 3.1500000e+01 
7.5000000e-01 3.0000000e+00 3.2000000e+01 
7.5000000e-01 3.0000000e+00 3.2500000e+01 
7.5000000e-01 3.0000000e+00 3.3000000e+01 
7.5000000e-01 3.0000000e+00 3.3500000e+01 
7.5000000e-01 3.0000000e+00 3.4000000e+01 
7.5000000e-01 3.0000000e+00 3.4500000e+01 
7.5000000e-01 3.0000000e+00 3.5000000e+01 
7.5000000e-01 3.0000000e+00 3.5500000e+01 
7.5000000e-01 3.0000000e+00 3.6000000e+01 
7.5000000e-01 3.0000000e+00 3.6500000e+01 
7.5000000e-01 3.0000000e+00 3.7000000e+01 
7.5000000e-01 3.0000000e+00 3.7500000e+01 
7.5000000e-01 3.0000000e+00 3.8000000e+01 
7.5000000e-01 3.0000000e+00 3.8500000e+01 
7.5000000e-01 3.0000000e+00 3.9000000e+01 
7.5000000e-01 3.0000000e+00 3.9500000e+01 
7.5000000e-01 3.0000000e+00 4.0000000e+01 
7.5000000e-01 3.0000000e+00 4.0500000e+01 
7.5000000e-01 3.0000000e+00 4.1000000e+01 
7.5000000e-01 3.0000000e+00 4.1500000e+01 
7.5000000e-01 3.0000000e+00 4.2000000e+01 
7.5000000e-01 3.0000000e+00 4.2500000e+01 
7.5000000e-01 3.0000000e+00 4.3000000e+01 
7.5000000e-01 3.0000000e+00 4.3500000e+01 
7.5000000e-01 3.0000000e+00 4.4000000e+01 
7.5000000e-01 3.0000000e+00 4.4500000e+01 
7.5000000e-01 3.0000000e+00 4.5000000e+01 
7.5000000e-01 3.0000000e+00 4.5500000e+01 
7.5000000e-01 3.0000000e+00 4.6000000e+01 
7.5000000e-01 3.0000000e+00 4.6500000e+01 
7.5000000e-01 3.0000000e+00 4.7000000e+01 
7.5000000e-01 3.0000000e+00 4.7500000e+01 
7.5000000e-01 3.0000000e+00 4.8000000e+01 
7.5000000e-01 3.0000000e+00 4.8500000e+01 
7.5000000e-01 3.0000000e+00 4.9000000e+01 
7.5000000e-01 3.0000000e+00 4.9500000e+01 
7.5000000e-01 3.0250001e+00 0.0000000e+00 
7.5000000e-01 3.0250001e+00 5.0000000e-01 
7.5000000e-01 3.0250001e+00 1.0000000e+00 
7.5000000e-01 3.0250001e+00 1.5000000e+00 
7.5000000e-01 3.0250001e+00 2.0000000e+00 
7.5000000e-01 3.0250001e+00 2.5000000e+00 
7.5000000e-01 3.0250001e+00 3.0000000e+00 
7.5000000e-01 3.0250001e+00 3.5000000e+00 
7.5000000e-01 3.0250001e+00 4.0000000e+00 
7.5000000e-01 3.0250001e+00 4.5000000e+00 
7.5000000e-01 3.0250001e+00 5.0000000e+00 
7.5000000e-01 3.0250001e+00 5.5000000e+00 
7.5000000e-01 3.0250001e+00 6.0000000e+00 
7.5000000e-01 3.0250001e+00 6.5000000e+00 
7.5000000e-01 3.0250001e+00 7.0000000e+00 
7.5000000e-01 3.0250001e+00 7.5000000e+00 
7.5000000e-01 3.0250001e+00 8.0000000e+00 
7.5000000e-01 3.0250001e+00 8.5000000e+00 
7.5000000e-01 3.0250001e+00 9.0000000e+00 
7.5000000e-01 3.0250001e+00 9.5000000e+00 
7.5000000e-01 3.0250001e+00 1.0000000e+01 
7.5000000e-01 3.0250001e+00 1.0500000e+01 
7.5000000e-01 3.0250001e+00 1.1000000e+01 
7.5000000e-01 3.0250001e+00 1.1500000e+01 
7.5000000e-01 3.0250001e+00 1.2000000e+01 
7.5000000e-01 3.0250001e+00 1.2500000e+01 
7.5000000e-01 3.0250001e+00 1.3000000e+01 
7.5000000e-01 3.0250001e+00 1.3500000e+01 
7.5000000e-01 3.0250001e+00 1.4000000e+01 
7.5000000e-01 3.0250001e+00 1.4500000e+01 
7.5000000e-01 3.0250001e+00 1.5000000e+01 
7.5000000e-01 3.0250001e+00 1.5500000e+01 
7.5000000e-01 3.0250001e+00 1.6000000e+01 
7.5000000e-01 3.0250001e+00 1.6500000e+01 
7.5000000e-01 3.0250001e+00 1.7000000e+01 
7.5000000e-01 3.0250001e+00 1.7500000e+01 
7.5000000e-01 3.0250001e+00 1.8000000e+01 
7.5000000e-01 3.0250001e+00 1.8500000e+01 
7.5000000e-01 3.0250001e+00 1.9000000e+01 
7.5000000e-01 3.0250001e+00 1.9500000e+01 
7.5000000e-01 3.0250001e+00 2.0000000e+01 
7.5000000e-01 3.0250001e+00 2.0500000e+01 
7.5000000e-01 3.0250001e+00 2.1000000e+01 
7.5000000e-01 3.0250001e+00 2.1500000e+01 
7.5000000e-01 3.0250001e+00 2.2000000e+01 
7.5000000e-01 3.0250001e+00 2.2500000e+01 
7.5000000e-01 3.0250001e+00 2.3000000e+01 
7.5000000e-01 3.0250001e+00 2.3500000e+01 
7.5000000e-01 3.0250001e+00 2.4000000e+01 
7.5000000e-01 3.0250001e+00 2.4500000e+01 
7.5000000e-01 3.0250001e+00 2.5000000e+01 
7.5000000e-01 3.0250001e+00 2.5500000e+01 
7.5000000e-01 3.0250001e+00 2.6000000e+01 
7.5000000e-01 3.0250001e+00 2.6500000e+01 
7.5000000e-01 3.0250001e+00 2.7000000e+01 
7.5000000e-01 3.0250001e+00 2.7500000e+01 
7.5000000e-01 3.0250001e+00 2.8000000e+01 
7.5000000e-01 3.0250001e+00 2.8500000e+01 
7.5000000e-01 3.0250001e+00 2.9000000e+01 
7.5000000e-01 3.0250001e+00 2.9500000e+01 
7.5000000e-01 3.0250001e+00 3.0000000e+01 
7.5000000e-01 3.0250001e+00 3.0500000e+01 
7.5000000e-01 3.0250001e+00 3.1000000e+01 
7.5000000e-01 3.0250001e+00 3.1500000e+01 
7.5000000e-01 3.0250001e+00 3.2000000e+01 
7.5000000e-01 3.0250001e+00 3.2500000e+01 
7.5000000e-01 3.0250001e+00 3.3000000e+01 
7.5000000e-01 3.0250001e+00 3.3500000e+01 
7.5000000e-01 3.0250001e+00 3.4000000e+01 
7.5000000e-01 3.0250001e+00 3.4500000e+01 
7.5000000e-01 3.0250001e+00 3.5000000e+01 
7.5000000e-01 3.0250001e+00 3.5500000e+01 
7.5000000e-01 3.0250001e+00 3.6000000e+01 
7.5000000e-01 3.0250001e+00 3.6500000e+01 
7.5000000e-01 3.0250001e+00 3.7000000e+01 
7.5000000e-01 3.0250001e+00 3.7500000e+01 
7.5000000e-01 3.0250001e+00 3.8000000e+01 
7.5000000e-01 3.0250001e+00 3.8500000e+01 
7.5000000e-01 3.0250001e+00 3.9000000e+01 
7.5000000e-01 3.0250001e+00 3.9500000e+01 
7.5000000e-01 3.0250001e+00 4.0000000e+01 
7.5000000e-01 3.0250001e+00 4.0500000e+01 
7.5000000e-01 3.0250001e+00 4.1000000e+01 
7.5000000e-01 3.0250001e+00 4.1500000e+01 
7.5000000e-01 3.0250001e+00 4.2000000e+01 
7.5000000e-01 3.0250001e+00 4.2500000e+01 
7.5000000e-01 3.0250001e+00 4.3000000e+01 
7.5000000e-01 3.0250001e+00 4.3500000e+01 
7.5000000e-01 3.0250001e+00 4.4000000e+01 
7.5000000e-01 3.0250001e+00 4.4500000e+01 
7.5000000e-01 3.0250001e+00 4.5000000e+01 
7.5000000e-01 3.0250001e+00 4.5500000e+01 
7.5000000e-01 3.0250001e+00 4.6000000e+01 
7.5000000e-01 3.0250001e+00 4.6500000e+01 
7.5000000e-01 3.0250001e+00 4.7000000e+01 
7.5000000e-01 3.0250001e+00 4.7500000e+01 
7.5000000e-01 3.0250001e+00 4.8000000e+01 
7.5000000e-01 3.0250001e+00 4.8500000e+01 
7.5000000e-01 3.0250001e+00 4.9000000e+01 
7.5000000e-01 3.0250001e+00 4.9500000e+01 
7.5000000e-01 3.0250001e+00 5.0000000e+01 
3.0000000e+00 2.0000000e+00 3.6000000e+01 
8.0487806e-01 3.0000000e+00 3.6000000e+01 
0.0000000e+00 0.0000000e+00 2.0000000e+00 
0.0000000e+00 0.0000000e+00 4.0000000e+00 
0.0000000e+00 0.0000000e+00 6.0000000e+00 
0.0000000e+00 0.0000000e+00 8.0000000e+00 
0.0000000e+00 0.0000000e+00 1.0000000e+01 
0.0000000e+00 0.0000000e+00 1.2000000e+01 
0.0000000e+00 0.0000000e+00 1.4000000e+01 
0.0000000e+00 0.0000000e+00 1.6000000e+01 
[...]
POINT_DATA 766
FIELD FieldData 3
DISPLACEMENT 3 766  float
0.0000000e+00 0.0000000e+00 0.0000000e+00 
0.0000000e+00 0.0000000e+00 0.0000000e+00 
0.0000000e+00 0.0000000e+00 0.0000000e+00 
0.0000000e+00 0.0000000e+00 0.0000000e+00 
5.0926116e-07 -2.6379973e-06 2.2945346e-06 
1.1191463e-06 -1.3756062e-07 -1.5354771e-06 
0.0000000e+00 -2.6621431e-06 0.0000000e+00 
0.0000000e+00 -1.0545349e-05 0.0000000e+00 
7.1400677e-06 -6.7173823e-06 -1.9850374e-06 
-6.6438247e-07 2.3591242e-07 -3.5599714e-06 
-4.9187129e-06 1.1647006e-05 4.8970242e-06 
-3.1179806e-07 -6.2868689e-06 8.7374377e-07 
0.0000000e+00 -6.4043179e-06 0.0000000e+00 
0.0000000e+00 -2.4842859e-05 0.0000000e+00 
2.6528707e-05 4.8468093e-05 -4.3931350e-06 
-5.1152570e-06 -3.7588616e-05 1.5219047e-05 
-1.1306000e-05 1.1916830e-04 9.7952443e-07 
-9.1973825e-06 -3.8784063e-05 1.4652142e-05 
0.0000000e+00 2.8645993e-05 0.0000000e+00 
0.0000000e+00 -4.6317324e-05 0.0000000e+00 
-5.6371287e-06 1.0197501e-04 7.9918971e-07 
2.2592543e-05 6.8601592e-05 9.6346539e-06 
-6.1165406e-06 5.3758340e-05 1.4872656e-05 
-9.0902558e-06 5.5395634e-05 1.9548846e-05 
-3.4166253e-05 6.3808446e-05 3.2591619e-05 
2.0338533e-05 6.4158456e-05 1.4485671e-06 
-3.0676136e-05 6.0937859e-05 1.3967894e-05 
2.6912143e-05 5.6165652e-05 -1.1306151e-05 
1.1957636e-05 5.8296126e-05 4.6572627e-06 
1.3451576e-05 6.6565044e-05 -1.0042942e-05 
2.6778260e-05 6.7341403e-05 -3.8874299e-05 
3.3731907e-05 9.9673685e-05 -3.0054953e-06 
7.0317263e-05 1.7030233e-04 -2.5954110e-05 
5.0918545e-05 2.3823787e-04 -2.6563985e-05 
8.7087188e-05 2.7092765e-04 3.8112357e-05 
2.6824378e-05 2.1236410e-04 3.8500755e-05 
-3.0777130e-05 4.6411460e-05 6.4490952e-05 
-7.1009970e-07 -2.1424612e-04 9.9028322e-05 
-6.2360130e-05 -6.0395460e-04 1.4533589e-04 
-6.8001740e-05 -1.2275658e-03 1.0181023e-04 
-2.1798254e-04 -2.1747621e-03 1.9188314e-04 
-2.3540911e-04 -3.2759751e-03 1.9982130e-04 
-1.5458631e-04 -4.1788598e-03 1.5300901e-04 
-1.4534069e-04 -4.2427522e-03 1.7580013e-04 
-2.4707289e-04 -4.0010889e-03 9.8251439e-05 
-3.4650459e-04 -3.8942585e-03 7.5555450e-05 
-2.1232848e-04 -4.1094846e-03 2.2718730e-05 
-5.2122501e-05 -4.1538151e-03 -4.1105064e-05 
-8.0657417e-05 -3.5125080e-03 -9.5385818e-05 
-1.9117311e-04 -2.5032687e-03 -1.1704824e-04 
-1.8904428e-04 -1.5754518e-03 -1.3182998e-04 
-5.8458361e-05 -8.3897164e-04 -8.7776498e-05 
-2.3273466e-05 -3.5945818e-04 -1.5021373e-04 
-2.3746445e-05 -7.5926473e-05 -1.4598850e-04 
-9.9645895e-06 7.4808355e-05 -1.4372478e-04 
8.9382556e-06 1.3076946e-04 -1.3812595e-04 
4.2554657e-05 1.1366287e-04 -8.8394685e-05 
5.6696310e-05 6.8987909e-05 -5.2916515e-05 
3.1645581e-05 4.1501928e-05 -1.3754785e-05 
-1.9813066e-05 2.7700858e-05 1.4019064e-06 
-1.6434640e-05 1.3740932e-05 -2.9852699e-05 
-1.6822976e-05 -1.2018153e-05 -3.2616179e-05 
-3.8755734e-05 -3.7740938e-05 -3.2595210e-05 
-4.7972699e-05 -5.7956298e-05 -5.1440948e-05 
-2.0120613e-05 -6.7179775e-05 -8.9726836e-06 
1.1876186e-05 -7.3457246e-05 1.5542830e-05 
-6.4042215e-06 -8.7364962e-05 -8.5677029e-06 
-8.8341477e-07 -7.2394330e-05 2.1833081e-05 
1.5971022e-05 -5.9024137e-06 1.3837444e-05 
7.0792762e-06 8.5675805e-05 -2.9665671e-05 
6.4870554e-05 1.6337908e-04 -4.8031037e-05 
5.3757714e-05 2.1794891e-04 -4.8440255e-05 
6.1117316e-05 2.6000571e-04 -8.4239749e-05 
7.6616998e-05 3.0266427e-04 -6.1492901e-05 
6.2306295e-05 3.4824255e-04 -9.0588201e-06 
5.0249477e-05 2.9600391e-04 -9.0104850e-06 
-4.5730221e-06 8.1099679e-05 5.5044398e-05 
2.2215327e-05 -2.7701110e-04 1.1487609e-04 
-6.7535388e-05 -7.8391121e-04 1.7678160e-04 
-9.8161821e-05 -1.4536898e-03 1.7681209e-04 
-2.2661430e-04 -2.3430972e-03 2.5594200e-04 
-2.8229636e-04 -3.3329059e-03 2.3193256e-04 
-1.3345211e-04 -4.1368161e-03 1.6606139e-04 
-1.1196641e-04 -4.1563106e-03 1.6091723e-04 
-2.2141641e-04 -3.9226101e-03 1.0541191e-04 
-2.8146897e-04 -3.8203576e-03 7.1881157e-05 
-1.7690480e-04 -3.9914055e-03 5.2258845e-05 
-4.5474844e-05 -3.9387727e-03 6.4569409e-05 
-4.9948863e-05 -3.1909111e-03 -3.6736557e-05 
-1.2160282e-04 -2.1543950e-03 -7.8784688e-05 
-1.6641074e-04 -1.3484120e-03 -8.2914499e-05 
-1.5064694e-04 -7.8555004e-04 -7.5380260e-05 
-1.2459997e-04 -4.2721754e-04 -1.3318798e-04 
-1.1569215e-04 -1.8819355e-04 -1.5934120e-04 
-7.3640789e-05 -2.2319984e-05 -1.8198973e-04 
-2.5280431e-05 8.2984443e-05 -1.9295255e-04 
8.0309073e-06 1.3622087e-04 -1.6516082e-04 
3.2672211e-05 1.5972261e-04 -1.2390017e-04 
3.8513681e-05 1.6618222e-04 -9.9385899e-05 
4.0716568e-05 1.5400701e-04 -7.3344941e-05 
3.5641933e-05 1.1723197e-04 -2.8888287e-05 
3.6915400e-05 6.6388704e-05 1.3024326e-05 
1.9340230e-05 1.3601384e-05 5.3621123e-05 
-4.6198153e-07 -3.2621421e-05 8.2347782e-05 
-1.0967854e-05 -6.8948124e-05 8.5249914e-05 
-2.0869689e-05 -9.3424926e-05 7.1969225e-05 
-2.2756845e-05 -1.0101229e-04 6.1185972e-05 
-2.1850377e-05 -8.9794819e-05 4.5140448e-05 
-1.6842037e-05 -5.9457700e-05 1.6232038e-05 
-1.4948949e-05 -2.1541706e-05 -8.6188693e-06 
-4.8571355e-06 1.3847955e-05 -2.9262621e-05 
7.3543424e-06 4.1220712e-05 -4.1710347e-05 
9.4519191e-06 5.7022502e-05 -3.7964852e-05 
1.3196623e-05 6.0622380e-05 -2.5664307e-05 
9.2844075e-06 5.0819559e-05 -1.3428429e-05 
7.6080210e-06 3.0141644e-05 1.5529708e-06 
4.6655937e-06 4.9957121e-06 1.3202478e-05 
2.1624039e-06 -1.7660861e-05 1.8436680e-05 
-6.4140011e-07 -3.3189452e-05 1.7381233e-05 
0.0000000e+00 1.1794325e-04 0.0000000e+00 
0.0000000e+00 1.0144014e-04 0.0000000e+00 
0.0000000e+00 7.0642600e-05 0.0000000e+00 
0.0000000e+00 5.4376073e-05 0.0000000e+00 
0.0000000e+00 5.5674838e-05 0.0000000e+00 
0.0000000e+00 6.2855273e-05 0.0000000e+00 
0.0000000e+00 6.3829008e-05 0.0000000e+00 
0.0000000e+00 6.0779101e-05 0.0000000e+00 
0.0000000e+00 5.7159621e-05 0.0000000e+00 
0.0000000e+00 5.9054113e-05 0.0000000e+00 
0.0000000e+00 6.3799132e-05 0.0000000e+00 
0.0000000e+00 6.8374560e-05 0.0000000e+00 
0.0000000e+00 1.0167280e-04 0.0000000e+00 
0.0000000e+00 1.7052429e-04 0.0000000e+00 
0.0000000e+00 2.4082111e-04 0.0000000e+00 
0.0000000e+00 2.6902978e-04 0.0000000e+00 
0.0000000e+00 2.0985147e-04 0.0000000e+00 
0.0000000e+00 4.8280068e-05 0.0000000e+00 
0.0000000e+00 -2.1063427e-04 0.0000000e+00 
0.0000000e+00 -6.0402259e-04 0.0000000e+00 
0.0000000e+00 -1.2384891e-03 0.0000000e+00 
0.0000000e+00 -2.1847598e-03 0.0000000e+00 
0.0000000e+00 -3.3121610e-03 0.0000000e+00 
0.0000000e+00 -4.2007254e-03 0.0000000e+00 
0.0000000e+00 -4.2689363e-03 0.0000000e+00 
0.0000000e+00 -4.0151724e-03 0.0000000e+00 
0.0000000e+00 -3.9281808e-03 0.0000000e+00 
0.0000000e+00 -4.1313604e-03 0.0000000e+00 
0.0000000e+00 -4.1871839e-03 0.0000000e+00 
0.0000000e+00 -3.5285966e-03 0.0000000e+00 
0.0000000e+00 -2.5215084e-03 0.0000000e+00 
0.0000000e+00 -1.5783514e-03 0.0000000e+00 
0.0000000e+00 -8.4425882e-04 0.0000000e+00 
0.0000000e+00 -3.5885817e-04 0.0000000e+00 
0.0000000e+00 -7.3928175e-05 0.0000000e+00 
0.0000000e+00 7.5408119e-05 0.0000000e+00 
0.0000000e+00 1.2904209e-04 0.0000000e+00 
0.0000000e+00 1.1383843e-04 0.0000000e+00 
0.0000000e+00 7.2039395e-05 0.0000000e+00 
0.0000000e+00 4.2246756e-05 0.0000000e+00 
0.0000000e+00 2.7271197e-05 0.0000000e+00 
0.0000000e+00 1.2472638e-05 0.0000000e+00 
0.0000000e+00 -1.1759947e-05 0.0000000e+00 
0.0000000e+00 -3.7583817e-05 0.0000000e+00 
0.0000000e+00 -5.7136131e-05 0.0000000e+00 
0.0000000e+00 -6.7114699e-05 0.0000000e+00 
0.0000000e+00 -7.5983015e-05 0.0000000e+00 
0.0000000e+00 -8.6611515e-05 0.0000000e+00 
0.0000000e+00 -6.9763693e-05 0.0000000e+00 
0.0000000e+00 -5.2284358e-06 0.0000000e+00 
0.0000000e+00 8.4677806e-05 0.0000000e+00 
0.0000000e+00 1.6213425e-04 0.0000000e+00 
0.0000000e+00 2.1703090e-04 0.0000000e+00 
0.0000000e+00 2.6064907e-04 0.0000000e+00 
0.0000000e+00 3.0859001e-04 0.0000000e+00 
0.0000000e+00 3.4743754e-04 0.0000000e+00 
0.0000000e+00 2.9216995e-04 0.0000000e+00 
0.0000000e+00 8.1702878e-05 0.0000000e+00 
0.0000000e+00 -2.7774528e-04 0.0000000e+00 
0.0000000e+00 -7.8208314e-04 0.0000000e+00 
0.0000000e+00 -1.4606380e-03 0.0000000e+00 
0.0000000e+00 -2.3526819e-03 0.0000000e+00 
0.0000000e+00 -3.3716098e-03 0.0000000e+00 
0.0000000e+00 -4.1610911e-03 0.0000000e+00 
0.0000000e+00 -4.1837185e-03 0.0000000e+00 
0.0000000e+00 -3.9356914e-03 0.0000000e+00 
0.0000000e+00 -3.8521660e-03 0.0000000e+00 
0.0000000e+00 -4.0124543e-03 0.0000000e+00 
0.0000000e+00 -3.9702295e-03 0.0000000e+00 
0.0000000e+00 -3.2063688e-03 0.0000000e+00 
0.0000000e+00 -2.1799884e-03 0.0000000e+00 
0.0000000e+00 -1.3507756e-03 0.0000000e+00 
0.0000000e+00 -7.8630052e-04 0.0000000e+00 
0.0000000e+00 -4.2511034e-04 0.0000000e+00 
0.0000000e+00 -1.8661797e-04 0.0000000e+00 
0.0000000e+00 -2.2190323e-05 0.0000000e+00 
0.0000000e+00 8.2525228e-05 0.0000000e+00 
0.0000000e+00 1.3687213e-04 0.0000000e+00 
0.0000000e+00 1.6040784e-04 0.0000000e+00 
0.0000000e+00 1.6626816e-04 0.0000000e+00 
0.0000000e+00 1.5319226e-04 0.0000000e+00 
0.0000000e+00 1.1726878e-04 0.0000000e+00 
0.0000000e+00 6.6679400e-05 0.0000000e+00 
0.0000000e+00 1.3806055e-05 0.0000000e+00 
0.0000000e+00 -3.2673044e-05 0.0000000e+00 
0.0000000e+00 -6.9098387e-05 0.0000000e+00 
0.0000000e+00 -9.3193165e-05 0.0000000e+00 
0.0000000e+00 -1.0092031e-04 0.0000000e+00 
0.0000000e+00 -8.9330075e-05 0.0000000e+00 
0.0000000e+00 -5.9589525e-05 0.0000000e+00 
0.0000000e+00 -2.1741784e-05 0.0000000e+00 
0.0000000e+00 1.3797793e-05 0.0000000e+00 
0.0000000e+00 4.1054438e-05 0.0000000e+00 
0.0000000e+00 5.7016012e-05 0.0000000e+00 
0.0000000e+00 6.0459333e-05 0.0000000e+00 
0.0000000e+00 5.0691917e-05 0.0000000e+00 
0.0000000e+00 3.0163204e-05 0.0000000e+00 
0.0000000e+00 5.0971812e-06 0.0000000e+00 
0.0000000e+00 -1.7615101e-05 0.0000000e+00 
0.0000000e+00 -3.3147830e-05 0.0000000e+00 
0.0000000e+00 -3.8702281e-05 0.0000000e+00 
3.2229909e-05 -5.7343696e-05 4.3958539e-06 
-1.5835400e-04 -7.8577094e-04 -5.5514774e-05 
0.0000000e+00 0.0000000e+00 0.0000000e+00 
0.0000000e+00 0.0000000e+00 0.0000000e+00 
0.0000000e+00 0.0000000e+00 0.0000000e+00 
0.0000000e+00 0.0000000e+00 0.0000000e+00 
0.0000000e+00 0.0000000e+00 0.0000000e+00 
0.0000000e+00 0.0000000e+00 0.0000000e+00 
0.0000000e+00 0.0000000e+00 0.0000000e+00 
0.0000000e+00 0.0000000e+00 0.0000000e+00 
0.0000000e+00 0.0000000e+00 0.0000000e+00 
0.0000000e+00 0.0000000e+00 0.0000000e+00 
0.0000000e+00 0.0000000e+00 0.0000000e+00 
0.0000000e+00 0.0000000e+00 0.0000000e+00 
0.0000000e+00 0.0000000e+00 0.0000000e+00 
0.0000000e+00 0.0000000e+00 0.0000000e+00 
0.0000000e+00 0.0000000e+00 0.0000000e+00 
0.0000000e+00 0.0000000e+00 0.0000000e+00 
0.0000000e+00 0.0000000e+00 0.0000000e+00 
0.0000000e+00 0.0000000e+00 0.0000000e+00 
0.0000000e+00 0.0000000e+00 0.0000000e+00 
0.0000000e+00 0.0000000e+00 0.0000000e+00 
0.0000000e+00 0.0000000e+00 0.0000000e+00 
0.0000000e+00 0.0000000e+00 0.0000000e+00 
0.0000000e+00 0.0000000e+00 0.0000000e+00 
0.0000000e+00 0.0000000e+00 0.0000000e+00 
0.0000000e+00 0.0000000e+00 0.0000000e+00 
0.0000000e+00 0.0000000e+00 0.0000000e+00 
0.0000000e+00 0.0000000e+00 0.0000000e+00 
0.0000000e+00 0.0000000e+00 0.0000000e+00 
0.0000000e+00 0.0000000e+00 0.0000000e+00 
0.0000000e+00 0.0000000e+00 0.0000000e+00 
0.0000000e+00 0.0000000e+00 0.0000000e+00 
0.0000000e+00 0.0000000e+00 0.0000000e+00 
0.0000000e+00 0.0000000e+00 0.0000000e+00 
0.0000000e+00 0.0000000e+00 0.0000000e+00 
0.0000000e+00 0.0000000e+00 0.0000000e+00 
0.0000000e+00 0.0000000e+00 0.0000000e+00 
0.0000000e+00 0.0000000e+00 0.0000000e+00 
0.0000000e+00 0.0000000e+00 0.0000000e+00 
0.0000000e+00 0.0000000e+00 0.0000000e+00 
0.0000000e+00 0.0000000e+00 0.0000000e+00 
0.0000000e+00 0.0000000e+00 0.0000000e+00 
0.0000000e+00 0.0000000e+00 0.0000000e+00 
0.0000000e+00 0.0000000e+00 0.0000000e+00 
0.0000000e+00 0.0000000e+00 0.0000000e+00 
0.0000000e+00 0.0000000e+00 0.0000000e+00 
0.0000000e+00 0.0000000e+00 0.0000000e+00 
0.0000000e+00 0.0000000e+00 0.0000000e+00 
0.0000000e+00 0.0000000e+00 0.0000000e+00 
0.0000000e+00 0.0000000e+00 0.0000000e+00 
0.0000000e+00 0.0000000e+00 0.0000000e+00 
0.0000000e+00 0.0000000e+00 0.0000000e+00 
0.0000000e+00 0.0000000e+00 0.0000000e+00 
-8.4900330e-06 1.1798405e-06 3.6689328e-06 
-1.3485919e-05 -2.5256186e-06 4.7981134e-06 
8.1069636e-08 -1.1245133e-06 2.3873204e-06 
1.4563777e-05 -7.2263283e-06 -3.7346404e-06 
3.4225945e-05 -7.3420929e-06 -7.8071143e-06 
4.9111011e-05 -1.2708785e-05 -6.1925675e-06 
4.2527194e-05 -1.4898013e-05 4.0674536e-06 
1.5854217e-05 -7.8643379e-06 -4.3773612e-06 
-6.9147022e-06 -1.0722484e-05 -4.8818229e-06 
-1.1786595e-05 -2.4628312e-06 3.5871788e-06 
-1.2738113e-05 -4.4090243e-06 4.1244144e-07 
-1.8622188e-05 -1.4029953e-05 6.4240794e-06 
-1.2493950e-05 2.2761162e-06 8.0069749e-06 
1.7159016e-07 -9.4523848e-06 -8.3446139e-07 
3.1028085e-05 -1.4799636e-05 -8.5267402e-06 
5.2270079e-05 -1.1000423e-05 5.1427096e-06 
4.9359991e-05 -1.1019853e-05 1.1682195e-05 
2.4166311e-05 -2.7969222e-06 1.8315878e-06 
-9.5478242e-07 6.6055004e-06 -6.1729075e-08 
-6.6615175e-06 2.5345216e-06 -2.9522014e-06 
1.5234973e-07 -1.5574072e-06 5.8917266e-07 
3.3979018e-06 -2.2092854e-06 6.1433393e-06 
-6.4231739e-07 2.0564946e-06 4.9798664e-06 
-2.1469050e-06 -5.2797952e-07 -2.7376598e-06 
0.0000000e+00 -2.6984400e-05 0.0000000e+00 
0.0000000e+00 -2.8181192e-05 0.0000000e+00 
0.0000000e+00 3.2559812e-05 0.0000000e+00 
0.0000000e+00 -1.7620361e-05 0.0000000e+00 
0.0000000e+00 -1.7348994e-04 0.0000000e+00 
0.0000000e+00 -5.1361683e-04 0.0000000e+00 
0.0000000e+00 -5.0409627e-04 0.0000000e+00 
0.0000000e+00 -2.0905353e-04 0.0000000e+00 
0.0000000e+00 -5.5167522e-05 0.0000000e+00 
0.0000000e+00 -4.5167122e-05 0.0000000e+00 
0.0000000e+00 -5.6234265e-05 0.0000000e+00 
0.0000000e+00 -6.0780367e-05 0.0000000e+00 
0.0000000e+00 3.2582750e-05 0.0000000e+00 
0.0000000e+00 -1.3134473e-05 0.0000000e+00 
0.0000000e+00 -1.6623826e-04 0.0000000e+00 
0.0000000e+00 -5.0241628e-04 0.0000000e+00 
0.0000000e+00 -4.7829360e-04 0.0000000e+00 
0.0000000e+00 -1.8258898e-04 0.0000000e+00 
0.0000000e+00 -4.4978783e-06 0.0000000e+00 
0.0000000e+00 5.5937653e-05 0.0000000e+00 
0.0000000e+00 -7.7842224e-06 0.0000000e+00 
0.0000000e+00 -3.0290152e-05 0.0000000e+00 
0.0000000e+00 1.2973433e-05 0.0000000e+00 
0.0000000e+00 1.2046617e-05 0.0000000e+00 
-5.5475211e-06 6.4226147e-06 4.5853483e-07 
1.3783978e-06 1.1909101e-05 7.0329162e-07 
1.7575206e-07 -2.1230321e-06 -2.5067015e-06 
7.8318965e-07 -7.5700723e-06 -1.3803860e-07 
-7.1437689e-06 -6.2032757e-07 6.6698458e-06 
-9.9600211e-06 9.7252280e-07 6.3232205e-06 
-3.7789180e-06 4.5816923e-06 3.3796439e-06 
2.4531417e-05 -1.1914010e-05 -1.6623130e-06 
3.5874338e-05 -7.3326019e-06 -1.9877646e-06 
3.3031374e-05 -1.3553557e-05 2.8794982e-06 
1.9487028e-05 -1.2700034e-05 -3.2867165e-06 
8.4845933e-06 -3.9830411e-06 -1.6468124e-05 
-2.1708088e-07 -1.6512591e-05 -9.0680369e-06 
4.5971597e-06 -1.0864250e-05 -4.9612399e-06 
-3.6659401e-07 -1.2711584e-05 1.4895207e-05 
-8.5778129e-06 -1.6357995e-05 -1.4277908e-06 
3.6250091e-07 4.2582692e-06 9.7944139e-06 
1.4013222e-05 -1.3945318e-05 3.6436427e-06 
3.2409349e-05 -1.5487562e-05 -2.5246088e-06 
4.1266107e-05 -1.3302632e-05 1.2631446e-05 
2.8155984e-05 -6.2331260e-06 9.0460426e-06 
1.1835805e-05 4.4176400e-06 -9.9927793e-06 
2.7373594e-06 8.2860988e-06 -6.9896564e-06 
9.7485997e-07 -2.9596535e-08 6.6454973e-08 
1.0729701e-06 -2.6309688e-06 1.9122099e-06 
3.3211509e-06 -1.6593883e-06 5.5359515e-06 
1.2421355e-06 3.2510052e-06 4.0540049e-06 
5.1972717e-07 -6.0662461e-07 -9.5844155e-07 
-1.0257910e-06 3.4226923e-05 8.0530353e-06 
0.0000000e+00 -1.1886807e-05 0.0000000e+00 
0.0000000e+00 -1.7003009e-05 0.0000000e+00 
0.0000000e+00 -4.2713375e-05 0.0000000e+00 
0.0000000e+00 1.2471784e-04 0.0000000e+00 
0.0000000e+00 -4.0864034e-04 0.0000000e+00 
0.0000000e+00 -1.2005846e-03 0.0000000e+00 
0.0000000e+00 -1.1203651e-03 0.0000000e+00 
0.0000000e+00 -3.9619431e-04 0.0000000e+00 
0.0000000e+00 -3.9238370e-05 0.0000000e+00 
0.0000000e+00 -4.8639155e-05 0.0000000e+00 
0.0000000e+00 -2.5959811e-05 0.0000000e+00 
0.0000000e+00 -1.6509955e-04 0.0000000e+00 
0.0000000e+00 9.4251038e-05 0.0000000e+00 
0.0000000e+00 1.2843939e-04 0.0000000e+00 
0.0000000e+00 -4.8664759e-04 0.0000000e+00 
0.0000000e+00 -1.1486753e-03 0.0000000e+00 
0.0000000e+00 -1.0451062e-03 0.0000000e+00 
0.0000000e+00 -3.5311733e-04 0.0000000e+00 
0.0000000e+00 1.8969868e-06 0.0000000e+00 
0.0000000e+00 1.0428746e-04 0.0000000e+00 
0.0000000e+00 -1.4999495e-05 0.0000000e+00 
0.0000000e+00 -5.6087065e-05 0.0000000e+00 
0.0000000e+00 2.7534736e-05 0.0000000e+00 
0.0000000e+00 2.1960632e-05 0.0000000e+00 
4.3594494e-07 -1.3588636e-05 1.8766444e-06 
1.5670856e-05 4.1468364e-05 4.4478387e-05 
2.1418988e-05 4.1892697e-05 -9.6845752e-06 
3.5074958e-05 7.4115254e-05 -1.3157790e-05 
6.6501634e-05 1.7047486e-04 8.8043867e-05 
-2.6067940e-04 -3.3667352e-04 3.3595198e-04 
-7.1457354e-04 -1.3444457e-03 1.7428925e-04 
-5.8029609e-04 -1.4082891e-03 -1.9120566e-04 
-1.5727022e-04 -2.0238466e-04 -2.4401232e-04 
1.4888834e-05 8.3816885e-05 -1.5081234e-04 
2.6658425e-05 -7.2486786e-05 2.3223347e-05 
-1.5271757e-05 -7.9758356e-05 -3.6984162e-05 
-3.3337906e-06 -7.4309544e-05 -2.5242307e-06 
8.6734195e-05 1.8089479e-04 -8.1427424e-05 
4.7232945e-05 1.9863948e-04 1.0399673e-04 
-2.8455362e-04 -3.7812747e-04 4.4379459e-04 
-6.2878127e-04 -1.3031183e-03 1.6303200e-04 
-5.2501855e-04 -1.4964204e-03 7.4736072e-06 
-1.9284307e-04 -4.7003751e-04 -2.2802954e-04 
-1.2622539e-05 9.9589241e-05 -2.3477526e-04 
5.3306678e-05 1.0441057e-04 -6.5560700e-05 
-6.3234970e-06 -2.8145692e-05 1.0510522e-04 
-2.7007134e-05 -7.1462295e-05 3.3540782e-05 
1.0118001e-05 4.2074356e-05 -5.0399871e-05 
5.8758292e-06 2.1456091e-05 1.0588903e-05 
0.0000000e+00 2.8466628e-05 0.0000000e+00 
0.0000000e+00 -7.1250863e-05 0.0000000e+00 
0.0000000e+00 3.2385706e-05 0.0000000e+00 
0.0000000e+00 2.4424298e-04 0.0000000e+00 
0.0000000e+00 -7.3047861e-04 0.0000000e+00 
0.0000000e+00 -2.3600466e-03 0.0000000e+00 
0.0000000e+00 -2.2042578e-03 0.0000000e+00 
0.0000000e+00 -5.8961910e-04 0.0000000e+00 
0.0000000e+00 8.3341467e-05 0.0000000e+00 
0.0000000e+00 1.6114431e-05 0.0000000e+00 
0.0000000e+00 -5.0182112e-05 0.0000000e+00 
0.0000000e+00 -2.1013674e-04 0.0000000e+00 
0.0000000e+00 2.4903729e-04 0.0000000e+00 
0.0000000e+00 2.1260377e-04 0.0000000e+00 
0.0000000e+00 -9.1111771e-04 0.0000000e+00 
0.0000000e+00 -2.3388332e-03 0.0000000e+00 
0.0000000e+00 -2.0476198e-03 0.0000000e+00 
0.0000000e+00 -5.1536062e-04 0.0000000e+00 
0.0000000e+00 5.0473118e-05 0.0000000e+00 
0.0000000e+00 1.4606415e-04 0.0000000e+00 
0.0000000e+00 -3.6983150e-05 0.0000000e+00 
0.0000000e+00 -8.1489932e-05 0.0000000e+00 
0.0000000e+00 4.9073227e-05 0.0000000e+00 
0.0000000e+00 2.6994661e-05 0.0000000e+00 
-1.3481301e-05 6.5946410e-06 4.3593686e-06 
5.2574217e-07 1.2923768e-05 2.9386706e-06 
1.3546074e-05 2.8434084e-05 5.0889807e-06 
3.1907479e-05 4.1844531e-05 1.5505853e-05 
5.2656644e-05 -4.5128098e-05 8.9825762e-06 
4.6958907e-05 -1.1155978e-04 -2.8870313e-06 
4.1419171e-05 -1.1273059e-04 2.5035083e-06 
4.2837946e-05 -4.0611703e-05 -3.4386267e-06 
-4.6760015e-06 2.4364273e-05 -4.0009010e-05 
3.8813737e-06 2.7302847e-05 -2.4779203e-05 
-1.3685100e-05 9.9202134e-06 4.1156381e-06 
-1.8457522e-05 2.3837636e-06 -5.2984083e-06 
1.7659249e-05 5.8559861e-05 -8.5435568e-06 
1.2332956e-05 5.8538360e-05 2.9087141e-05 
5.2824067e-05 -5.1478528e-05 2.6139658e-05 
6.3603497e-05 -1.0316244e-04 1.6456579e-05 
4.2977779e-05 -1.0718560e-04 5.1373845e-05 
4.9498103e-06 2.7878878e-05 -4.2833315e-05 
-2.9024379e-06 3.0541101e-05 -1.9824913e-05 
-2.3585853e-06 -7.6735032e-06 1.0514263e-05 
1.8463558e-06 -1.4258645e-05 9.9989302e-06 
3.3179640e-06 9.0610583e-06 1.0890245e-06 
-2.1605730e-07 1.0246072e-05 1.3056886e-06 
-3.6804315e-05 -2.8620253e-04 -5.9289319e-05 
0.0000000e+00 0.0000000e+00 0.0000000e+00 
0.0000000e+00 0.0000000e+00 0.0000000e+00 
0.0000000e+00 0.0000000e+00 0.0000000e+00 
0.0000000e+00 0.0000000e+00 0.0000000e+00 
0.0000000e+00 0.0000000e+00 0.0000000e+00 