# vtk DataFile Version 4.0
vtk output
ASCII
DATASET UNSTRUCTURED_GRID
POINTS 1919 float
0.0000000e+00 0.0000000e+00 0.0000000e+00 
0.0000000e+00 0.0000000e+00 5.0000000e+01 
5.0000000e+00 0.0000000e+00 0.0000000e+00 
5.0000000e+00 0.0000000e+00 5.0000000e+01 
5.0000000e+00 1.0000000e+00 0.0000000e+00 
5.0000000e+00 1.0000000e+00 5.0000000e+01 
0.0000000e+00 1.0000000e+00 0.0000000e+00 
0.0000000e+00 1.0000000e+00 5.0000000e+01 
5.0000000e+00 2.0000000e+00 0.0000000e+00 
5.0000000e+00 2.0000000e+00 5.0000000e+01 
3.0000000e+00 2.0000000e+00 0.0000000e+00 
3.0000000e+00 2.0000000e+00 5.0000000e+01 
0.0000000e+00 2.0000000e+00 0.0000000e+00 
0.0000000e+00 2.0000000e+00 5.0000000e+01 
1.5000000e+00 3.0000000e+00 0.0000000e+00 
1.5000000e+00 3.0000000e+00 5.0000000e+01 
7.5000000e-01 3.0000000e+00 0.0000000e+00 
7.5000000e-01 3.0000000e+00 5.0000000e+01 
0.0000000e+00 3.0000000e+00 0.0000000e+00 
0.0000000e+00 3.0000000e+00 5.0000000e+01 
7.5000000e-01 3.0000000e+00 5.0000000e-01 
7.5000000e-01 3.0000000e+00 1.0000000e+00 
7.5000000e-01 3.0000000e+00 1.5000000e+00 
7.5000000e-01 3.0000000e+00 2.0000000e+00 
7.5000000e-01 3.0000000e+00 2.5000000e+00 
7.5000000e-01 3.0000000e+00 3.0000000e+00 
7.5000000e-01 3.0000000e+00 3.5000000e+00 
7.5000000e-01 3.0000000e+00 4.0000000e+00 
7.5000000e-01 3.0000000e+00 4.5000000e+00 
7.5000000e-01 3.0000000e+00 5.0000000e+00 
7.5000000e-01 3.0000000e+00 5.5000000e+00 
7.5000000e-01 3.0000000e+00 6.0000000e+00 
7.5000000e-01 3.0000000e+00 6.5000000e+00 
7.5000000e-01 3.0000000e+00 7.0000000e+00 
7.5000000e-01 3.0000000e+00 7.5000000e+00 
7.5000000e-01 3.0000000e+00 8.0000000e+00 
7.5000000e-01 3.0000000e+00 8.5000000e+00 
7.5000000e-01 3.0000000e+00 9.0000000e+00 
7.5000000e-01 3.0000000e+00 9.5000000e+00 
7.5000000e-01 3.0000000e+00 1.0000000e+01 
7.5000000e-01 3.0000000e+00 1.0500000e+01 
7.5000000e-01 3.0000000e+00 1.1000000e+01 
7.5000000e-01 3.0000000e+00 1.1500000e+01 
7.5000000e-01 3.0000000e+00 1.2000000e+01 
7.5000000e-01 3.0000000e+00 1.2500000e+01 
7.5000000e-01 3.0000000e+00 1.3000000e+01 
7.5000000e-01 3.0000000e+00 1.3500000e+01 
7.5000000e-01 3.0000000e+00 1.4000000e+01 
7.5000000e-01 3.0000000e+00 1.4500000e+01 
7.5000000e-01 3.0000000e+00 1.5000000e+01 
7.5000000e-01 3.0000000e+00 1.5500000e+01 
7.5000000e-01 3.0000000e+00 1.6000000e+01 
7.5000000e-01 3.0000000e+00 1.6500000e+01 
7.5000000e-01 3.0000000e+00 1.7000000e+01 
7.5000000e-01 3.0000000e+00 1.7500000e+01 
7.5000000e-01 3.0000000e+00 1.8000000e+01 
7.5000000e-01 3.0000000e+00 1.8500000e+01 
7.5000000e-01 3.0000000e+00 1.9000000e+01 
7.5000000e-01 3.0000000e+00 1.9500000e+01 
7.5000000e-01 3.0000000e+00 2.0000000e+01 
7.5000000e-01 3.0000000e+00 2.0500000e+01 
7.5000000e-01 3.0000000e+00 2.1000000e+01 
7.5000000e-01 3.0000000e+00 2.1500000e+01 
7.5000000e-01 3.0000000e+00 2.2000000e+01 
7.5000000e-01 3.0000000e+00 2.2500000e+01 
7.5000000e-01 3.0000000e+00 2.3000000e+01 
7.5000000e-01 3.0000000e+00 2.3500000e+01 
7.5000000e-01 3.0000000e+00 2.4000000e+01 
7.5000000e-01 3.0000000e+00 2.4500000e+01 
7.5000000e-01 3.0000000e+00 2.5000000e+01 
7.5000000e-01 3.0000000e+00 2.5500000e+01 
7.5000000e-01 3.0000000e+00 2.6000000e+01 
7.5000000e-01 3.0000000e+00 2.6500000e+01 
7.5000000e-01 3.0000000e+00 2.7000000e+01 
7.5000000e-01 3.0000000e+00 2.7500000e+01 
7.5000000e-01 3.0000000e+00 2.8000000e+01 
7.5000000e-01 3.0000000e+00 2.8500000e+01 
7.5000000e-01 3.0000000e+00 2.9000000e+01 
7.5000000e-01 3.0000000e+00 2.9500000e+01 
7.5000000e-01 3.0000000e+00 3.0000000e+01 
7.5000000e-01 3.0000000e+00 3.0500000e+01 
7.5000000e-01 3.0000000e+00 3.1000000e+01 
7.5000000e-01 3.0000000e+00 3.1500000e+01 
7.5000000e-01 3.0000000e+00 3.2000000e+01 
7.5000000e-01 3.0000000e+00 3.2500000e+01 
7.5000000e-01 3.0000000e+00 3.3000000e+01 
7.5000000e-01 3.0000000e+00 3.3500000e+01 
7.5000000e-01 3.0000000e+00 3.4000000e+01 
7.5000000e-01 3.0000000e+00 3.4500000e+01 
7.5000000e-01 3.0000000e+00 3.5000000e+01 
7.5000000e-01 3.0000000e+00 3.5500000e+01 
7.5000000e-01 3.0000000e+00 3.6000000e+01 
7.5000000e-01 3.0000000e+00 3.6500000e+01 
7.5000000e-01 3.0000000e+00 3.7000000e+01 
7.5000000e-01 3.0000000e+00 3.7500000e+01 
7.5000000e-01 3.0000000e+00 3.8000000e+01 
7.5000000e-01 3.0000000e+00 3.8500000e+01 
7.5000000e-01 3.0000000e+00 3.9000000e+01 
7.5000000e-01 3.0000000e+00 3.9500000e+01 
7.5000000e-01 3.0000000e+00 4.0000000e+01 
7.5000000e-01 3.0000000e+00 4.0500000e+01 
7.5000000e-01 3.0000000e+00 4.1000000e+01 
7.5000000e-01 3.0000000e+00 4.1500000e+01 
7.5000000e-01 3.0000000e+00 4.2000000e+01 
7.5000000e-01 3.0000000e+00 4.2500000e+01 
7.5000000e-01 3.0000000e+00 4.3000000e+01 
7.5000000e-01 3.0000000e+00 4.3500000e+01 
7.5000000e-01 3.0000000e+00 4.4000000e+01 
7.5000000e-01 3.0000000e+00 4.4500000e+01 
7.5000000e-01 3.0000000e+00 4.5000000e+01 
7.5000000e-01 3.0000000e+00 4.5500000e+01 
7.5000000e-01 3.0000000e+00 4.6000000e+01 
7.5000000e-01 3.0000000e+00 4.6500000e+01 
7.5000000e-01 3.0000000e+00 4.7000000e+01 
7.5000000e-01 3.0000000e+00 4.7500000e+01 
7.5000000e-01 3.0000000e+00 4.8000000e+01 
7.5000000e-01 3.0000000e+00 4.8500000e+01 
7.5000000e-01 3.0000000e+00 4.9000000e+01 
7.5000000e-01 3.0000000e+00 4.9500000e+01 
7.5000000e-01 3.0250001e+00 0.0000000e+00 
7.5000000e-01 3.0250001e+00 5.0000000e-01 
7.5000000e-01 3.0250001e+00 1.0000000e+00 
7.5000000e-01 3.0250001e+00 1.5000000e+00 
7.5000000e-01 3.0250001e+00 2.0000000e+00 
7.5000000e-01 3.0250001e+00 2.5000000e+00 
7.5000000e-01 3.0250001e+00 3.0000000e+00 
7.5000000e-01 3.0250001e+00 3.5000000e+00 
7.5000000e-01 3.0250001e+00 4.0000000e+00 
7.5000000e-01 3.0250001e+00 4.5000000e+00 
7.5000000e-01 3.0250001e+00 5.0000000e+00 
7.5000000e-01 3.0250001e+00 5.5000000e+00 
7.5000000e-01 3.0250001e+00 6.0000000e+00 
7.5000000e-01 3.0250001e+00 6.5000000e+00 
7.5000000e-01 3.0250001e+00 7.0000000e+00 
7.5000000e-01 3.0250001e+00 7.5000000e+00 
7.5000000e-01 3.0250001e+00 8.0000000e+00 
7.5000000e-01 3.0250001e+00 8.5000000e+00 
7.5000000e-01 3.0250001e+00 9.0000000e+00 
7.5000000e-01 3.0250001e+00 9.5000000e+00 
7.5000000e-01 3.0250001e+00 1.0000000e+01 
7.5000000e-01 3.0250001e+00 1.0500000e+01 
7.5000000e-01 3.0250001e+00 1.1000000e+01 
7.5000000e-01 3.0250001e+00 1.1500000e+01 
7.5000000e-01 3.0250001e+00 1.2000000e+01 
7.5000000e-01 3.0250001e+00 1.2500000e+01 
7.5000000e-01 3.0250001e+00 1.3000000e+01 
7.5000000e-01 3.0250001e+00 1.3500000e+01 
7.5000000e-01 3.0250001e+00 1.4000000e+01 
7.5000000e-01 3.0250001e+00 1.4500000e+01 
7.5000000e-01 3.0250001e+00 1.5000000e+01 
7.5000000e-01 3.0250001e+00 1.5500000e+01 
7.5000000e-01 3.0250001e+00 1.6000000e+01 
7.5000000e-01 3.0250001e+00 1.6500000e+01 
7.5000000e-01 3.0250001e+00 1.7000000e+01 
7.5000000e-01 3.0250001e+00 1.7500000e+01 
7.5000000e-01 3.0250001e+00 1.8000000e+01 
7.5000000e-01 3.0250001e+00 1.8500000e+01 
7.5000000e-01 3.0250001e+00 1.9000000e+01 
7.5000000e-01 3.0250001e+00 1.9500000e+01 
7.5000000e-01 3.0250001e+00 2.0000000e+01 
7.5000000e-01 3.0250001e+00 2.0500000e+01 
7.5000000e-01 3.0250001e+00 2.1000000e+01 
7.5000000e-01 3.0250001e+00 2.1500000e+01 
7.5000000e-01 3.0250001e+00 2.2000000e+01 
7.5000000e-01 3.0250001e+00 2.2500000e+01 
7.5000000e-01 3.0250001e+00 2.3000000e+01 
7.5000000e-01 3.0250001e+00 2.3500000e+01 
7.5000000e-01 3.0250001e+00 2.4000000e+01 
7.5000000e-01 3.0250001e+00 2.4500000e+01 
7.5000000e-01 3.0250001e+00 2.5000000e+01 
7.5000000e-01 3.0250001e+00 2.5500000e+01 
7.5000000e-01 3.0250001e+00 2.6000000e+01 
7.5000000e-01 3.0250001e+00 2.6500000e+01 
7.5000000e-01 3.0250001e+00 2.7000000e+01 
7.5000000e-01 3.0250001e+00 2.7500000e+01 
7.5000000e-01 3.0250001e+00 2.8000000e+01 
7.5000000e-01 3.0250001e+00 2.8500000e+01 
7.5000000e-01 3.0250001e+00 2.9000000e+01 
7.5000000e-01 3.0250001e+00 2.9500000e+01 
7.5000000e-01 3.0250001e+00 3.0000000e+01 
7.5000000e-01 3.0250001e+00 3.0500000e+01 
7.5000000e-01 3.0250001e+00 3.1000000e+01 
7.5000000e-01 3.0250001e+00 3.1500000e+01 
7.5000000e-01 3.0250001e+00 3.2000000e+01 
7.5000000e-01 3.0250001e+00 3.2500000e+01 
7.5000000e-01 3.0250001e+00 3.3000000e+01 
7.5000000e-01 3.0250001e+00 3.3500000e+01 
7.5000000e-01 3.0250001e+00 3.4000000e+01 
7.5000000e-01 3.0250001e+00 3.4500000e+01 
7.5000000e-01 3.0250001e+00 3.5000000e+01 
7.5000000e-01 3.0250001e+00 3.5500000e+01 
7.5000000e-01 3.0250001e+00 3.6000000e+01 
7.5000000e-01 3.0250001e+00 3.6500000e+01 
7.5000000e-01 3.0250001e+00 3.7000000e+01 
7.5000000e-01 3.0250001e+00 3.7500000e+01 
7.5000000e-01 3.0250001e+00 3.8000000e+01 
7.5000000e-01 3.0250001e+00 3.8500000e+01 
7.5000000e-01 3.0250001e+00 3.9000000e+01 
7.5000000e-01 3.0250001e+00 3.9500000e+01 
7.5000000e-01 3.0250001e+00 4.0000000e+01 
7.5000000e-01 3.0250001e+00 4.0500000e+01 
7.5000000e-01 3.0250001e+00 4.1000000e+01 
7.5000000e-01 3.0250001e+00 4.1500000e+01 
7.5000000e-01 3.0250001e+00 4.2000000e+01 
7.5000000e-01 3.0250001e+00 4.2500000e+01 
7.5000000e-01 3.0250001e+00 4.3000000e+01 
7.5000000e-01 3.0250001e+00 4.3500000e+01 
7.5000000e-01 3.0250001e+00 4.4000000e+01 
7.5000000e-01 3.0250001e+00 4.4500000e+01 
7.5000000e-01 3.0250001e+00 4.5000000e+01 
7.5000000e-01 3.0250001e+00 4.5500000e+01 
7.5000000e-01 3.0250001e+00 4.6000000e+01 
7.5000000e-01 3.0250001e+00 4.6500000e+01 
7.5000000e-01 3.0250001e+00 4.7000000e+01 
7.5000000e-01 3.0250001e+00 4.7500000e+01 
7.5000000e-01 3.0250001e+00 4.8000000e+01 
7.5000000e-01 3.0250001e+00 4.8500000e+01 
7.5000000e-01 3.0250001e+00 4.9000000e+01 
7.5000000e-01 3.0250001e+00 4.9500000e+01 
7.5000000e-01 3.0250001e+00 5.0000000e+01 
3.0000000e+00 2.0000000e+00 3.6000000e+01 
8.0487806e-01 3.0000000e+00 3.6000000e+01 
0.0000000e+00 0.0000000e+00 1.0000000e+00 
0.0000000e+00 0.0000000e+00 2.0000000e+00 
0.0000000e+00 0.0000000e+00 3.0000000e+00 
0.0000000e+00 0.0000000e+00 4.0000000e+00 
0.0000000e+00 0.0000000e+00 5.0000000e+00 
0.0000000e+00 0.0000000e+00 6.0000000e+00 
0.0000000e+00 0.0000000e+00 7.0000000e+00 
0.0000000e+00 0.0000000e+00 8.0000000e+00 
[...]
POINT_DATA 1919
FIELD FieldData 3
DISPLACEMENT 3 1919  float
0.0000000e+00 0.0000000e+00 0.0000000e+00 
0.0000000e+00 0.0000000e+00 0.0000000e+00 
0.0000000e+00 0.0000000e+00 0.0000000e+00 
0.0000000e+00 0.0000000e+00 0.0000000e+00 
-7.7092801e-07 1.2923801e-06 -9.2053313e-07 
1.7641499e-08 -7.3171338e-07 1.0289607e-06 
0.0000000e+00 -3.1728348e-05 0.0000000e+00 
0.0000000e+00 1.3178625e-06 0.0000000e+00 
-5.0689522e-07 -1.4502455e-06 -2.2542888e-06 
8.4583183e-07 -1.5164536e-06 3.1256179e-06 
-3.8257376e-06 -7.9599804e-06 -9.4955396e-07 
2.5825777e-06 3.8393674e-07 2.6747596e-06 
0.0000000e+00 -3.5583671e-05 0.0000000e+00 
0.0000000e+00 1.6532995e-06 0.0000000e+00 
-1.0289709e-05 -1.7541524e-05 5.4168058e-06 
1.9147637e-06 -1.7658564e-06 2.5456147e-05 
-9.8627279e-06 -6.2039879e-05 1.8197787e-05 
-1.3350609e-05 4.2001669e-05 1.1175932e-05 
0.0000000e+00 -4.5439625e-05 0.0000000e+00 
0.0000000e+00 -2.3188077e-06 0.0000000e+00 
-1.2418463e-05 -5.1317813e-05 -7.0214505e-06 
-5.3129743e-06 -2.7096714e-05 -1.5346815e-05 
4.1522635e-06 -6.0897200e-06 -1.5352538e-05 
1.9868053e-06 1.5050658e-06 -4.6273035e-06 
-2.6007550e-07 -2.1504932e-06 -1.7508400e-07 
5.9235998e-07 -3.1613833e-06 3.8808098e-06 
9.0678241e-06 8.2453553e-06 -1.3107892e-06 
2.8504451e-06 2.3654011e-05 -7.5621222e-07 
-3.7443021e-06 2.4392089e-05 5.0339859e-06 
2.2276281e-07 -3.1267630e-06 1.9386885e-05 
1.3288721e-06 -5.4374555e-05 2.6119258e-05 
-1.1446444e-05 -1.0269142e-04 2.7023443e-05 
-3.4619399e-05 -1.2529154e-04 1.7560043e-05 
-3.2155192e-05 -1.1914093e-04 -5.0725589e-06 
-3.1823405e-05 -9.9740675e-05 -1.2289313e-05 
-2.3768871e-05 -9.1647562e-05 -1.2494173e-05 
-2.2164742e-05 -9.2836788e-05 -4.0129562e-05 
-2.4052535e-05 -8.0564299e-05 -4.2326294e-05 
-3.0866096e-05 -2.9748908e-05 -5.8913847e-05 
-1.5528969e-05 5.6003566e-05 -5.8229238e-05 
4.0776049e-06 1.1052988e-04 -2.0584819e-05 
1.5952128e-05 9.7353559e-06 -1.0504850e-05 
2.2999257e-06 -3.5422537e-04 6.1562685e-05 
-3.8400831e-05 -1.0187551e-03 4.5450310e-05 
-7.5706899e-05 -1.9533292e-03 1.5821969e-04 
-1.2868503e-04 -3.0084106e-03 5.8292506e-05 
-1.8721962e-04 -3.9565545e-03 1.8268141e-04 
-2.1179310e-04 -4.4040214e-03 8.2142280e-05 
-2.0764896e-04 -4.4142716e-03 8.5947046e-05 
-2.4249702e-04 -4.4347192e-03 8.4140440e-05 
-2.6653035e-04 -4.6843858e-03 1.0908960e-04 
-2.8981970e-04 -4.8659556e-03 -2.5341382e-05 
-2.6303009e-04 -4.4918898e-03 -1.2710851e-04 
-2.0105849e-04 -3.4506582e-03 -1.2396008e-04 
-1.5372780e-04 -2.2716026e-03 -2.4982446e-04 
-9.9808014e-05 -1.2753239e-03 -1.3783506e-04 
-4.8035748e-05 -5.6488690e-04 -1.4777925e-04 
-2.0423477e-05 -1.1863859e-04 -5.9841484e-05 
-3.4420398e-06 1.1412109e-04 -4.3494339e-05 
-1.0563449e-05 1.9921405e-04 -1.2769098e-05 
-8.7201961e-06 2.0501556e-04 4.2919819e-06 
-4.9265850e-06 1.8596102e-04 8.5405227e-06 
1.7495924e-05 1.6985628e-04 1.9417306e-05 
1.9968318e-05 1.5837570e-04 2.3708648e-05 
2.9840103e-05 1.4548640e-04 4.0217379e-05 
2.4464785e-05 1.2900576e-04 5.4760963e-05 
1.9481578e-05 1.1019521e-04 4.6073150e-05 
-4.0694758e-06 9.0184083e-05 3.6027868e-05 
-2.1499523e-05 6.0855309e-05 4.4819099e-05 
-2.8023289e-05 1.0522083e-05 5.0320883e-05 
-3.1544227e-05 -6.1326202e-05 5.6013079e-05 
-3.5284043e-05 -1.3587651e-04 4.1639923e-05 
-3.5888086e-05 -1.8326657e-04 2.3773653e-05 
-2.8254221e-05 -1.8069662e-04 7.8968887e-06 
-1.0323456e-05 -1.3426031e-04 -1.0374755e-05 
-1.3309472e-06 -7.5520082e-05 -6.3487291e-06 
-6.5433719e-06 -2.9593275e-05 -1.8386705e-06 
-3.8088690e-06 -7.7442692e-06 1.8996674e-05 
-2.1936734e-05 4.6264863e-06 8.3642090e-06 
-2.8920675e-05 1.4373275e-05 -8.6259206e-06 
-4.3274504e-05 -1.2806500e-05 4.4379076e-06 
-4.2348911e-05 -1.6485897e-04 -1.1047522e-05 
-4.9970848e-05 -5.6491961e-04 5.6150508e-05 
-9.3261304e-05 -1.3201992e-03 2.0708383e-05 
-1.5083200e-04 -2.4248853e-03 1.2163509e-04 
-2.5186644e-04 -3.6522814e-03 5.8546345e-07 
-2.9611986e-04 -4.6242243e-03 1.0047419e-04 
-3.2647562e-04 -4.8683775e-03 -1.9075342e-05 
-3.2440017e-04 -4.7874730e-03 -1.1214863e-04 
-5.3639618e-05 -4.8389509e-03 7.2213229e-06 
-2.0755296e-04 -5.0434559e-03 7.7422068e-05 
-2.1192861e-04 -5.0655836e-03 -5.4650089e-05 
-2.1119215e-04 -4.3978002e-03 -1.5194203e-04 
-9.1208560e-05 -3.2276895e-03 -9.5221149e-05 
-1.4896897e-04 -2.0752298e-03 -2.2551019e-04 
-8.3684994e-05 -1.1397435e-03 -9.7856355e-05 
-2.5488522e-05 -4.9644883e-04 -9.4250565e-05 
-7.3677990e-07 -1.1662363e-04 -3.3139481e-06 
1.0462599e-05 6.4572232e-05 1.8772862e-05 
6.9172820e-06 1.2720765e-04 3.2616925e-05 
-4.4602621e-06 1.4054695e-04 1.6493572e-05 
2.2753605e-07 1.3947698e-04 3.7686769e-07 
1.0290691e-05 1.3537261e-04 -2.6703729e-06 
1.0123148e-05 1.2543672e-04 -4.5986335e-06 
5.4597331e-06 1.0705176e-04 -1.0434901e-05 
-2.6904677e-06 8.3664061e-05 -2.1774562e-05 
-1.2397108e-05 5.8898866e-05 -3.2235614e-05 
-1.9208032e-05 3.2767541e-05 -3.7834776e-05 
-4.1613266e-06 4.1461699e-06 -1.8438375e-05 
-4.4990948e-06 -2.5821510e-05 -8.6427763e-06 
-6.6055886e-06 -5.1129795e-05 -6.6714938e-07 
-4.2359093e-06 -6.4382315e-05 -3.9172569e-06 
-4.2577822e-06 -6.1711420e-05 -1.0548400e-05 
1.5274339e-06 -4.6140860e-05 -1.3612140e-05 
9.4995967e-06 -2.3070363e-05 -1.3549993e-05 
9.2323335e-06 6.6488275e-07 -1.7451534e-06 
1.0361060e-05 1.9807405e-05 1.1766509e-05 
8.5226011e-06 3.2839667e-05 2.2014279e-05 
2.2106765e-06 3.9820905e-05 2.2205268e-05 
0.0000000e+00 -6.1559687e-05 0.0000000e+00 
0.0000000e+00 -5.0972769e-05 0.0000000e+00 
0.0000000e+00 -2.7437720e-05 0.0000000e+00 
0.0000000e+00 -6.7296646e-06 0.0000000e+00 
0.0000000e+00 9.1845897e-07 0.0000000e+00 
0.0000000e+00 -1.9874544e-06 0.0000000e+00 
0.0000000e+00 -2.2988563e-06 0.0000000e+00 
0.0000000e+00 8.8129791e-06 0.0000000e+00 
0.0000000e+00 2.3547262e-05 0.0000000e+00 
0.0000000e+00 2.3597464e-05 0.0000000e+00 
0.0000000e+00 -4.2622196e-06 0.0000000e+00 
0.0000000e+00 -5.4499444e-05 0.0000000e+00 
0.0000000e+00 -1.0197487e-04 0.0000000e+00 
0.0000000e+00 -1.2423418e-04 0.0000000e+00 
0.0000000e+00 -1.1841235e-04 0.0000000e+00 
0.0000000e+00 -1.0078398e-04 0.0000000e+00 
0.0000000e+00 -9.2600952e-05 0.0000000e+00 
0.0000000e+00 -9.3352304e-05 0.0000000e+00 
0.0000000e+00 -7.9689831e-05 0.0000000e+00 
0.0000000e+00 -2.6806063e-05 0.0000000e+00 
0.0000000e+00 5.9333848e-05 0.0000000e+00 
0.0000000e+00 1.1086519e-04 0.0000000e+00 
0.0000000e+00 7.1196264e-06 0.0000000e+00 
0.0000000e+00 -3.5849880e-04 0.0000000e+00 
0.0000000e+00 -1.0261819e-03 0.0000000e+00 
0.0000000e+00 -1.9585048e-03 0.0000000e+00 
0.0000000e+00 -3.0253513e-03 0.0000000e+00 
0.0000000e+00 -3.9783567e-03 0.0000000e+00 
0.0000000e+00 -4.4366489e-03 0.0000000e+00 
0.0000000e+00 -4.4381171e-03 0.0000000e+00 
0.0000000e+00 -4.4612596e-03 0.0000000e+00 
0.0000000e+00 -4.7040218e-03 0.0000000e+00 
0.0000000e+00 -4.8938291e-03 0.0000000e+00 
0.0000000e+00 -4.5144986e-03 0.0000000e+00 
0.0000000e+00 -3.4722169e-03 0.0000000e+00 
0.0000000e+00 -2.2819275e-03 0.0000000e+00 
0.0000000e+00 -1.2806797e-03 0.0000000e+00 
0.0000000e+00 -5.6624936e-04 0.0000000e+00 
0.0000000e+00 -1.1949989e-04 0.0000000e+00 
0.0000000e+00 1.1404830e-04 0.0000000e+00 
0.0000000e+00 2.0019553e-04 0.0000000e+00 
0.0000000e+00 2.0657131e-04 0.0000000e+00 
0.0000000e+00 1.8728180e-04 0.0000000e+00 
0.0000000e+00 1.7014633e-04 0.0000000e+00 
0.0000000e+00 1.5808830e-04 0.0000000e+00 
0.0000000e+00 1.4521269e-04 0.0000000e+00 
0.0000000e+00 1.2895631e-04 0.0000000e+00 
0.0000000e+00 1.1059225e-04 0.0000000e+00 
0.0000000e+00 9.0302143e-05 0.0000000e+00 
0.0000000e+00 6.0483988e-05 0.0000000e+00 
0.0000000e+00 9.8671981e-06 0.0000000e+00 
0.0000000e+00 -6.1953790e-05 0.0000000e+00 
0.0000000e+00 -1.3594620e-04 0.0000000e+00 
0.0000000e+00 -1.8219736e-04 0.0000000e+00 
0.0000000e+00 -1.7933564e-04 0.0000000e+00 
0.0000000e+00 -1.3404163e-04 0.0000000e+00 
0.0000000e+00 -7.5882432e-05 0.0000000e+00 
0.0000000e+00 -3.0984640e-05 0.0000000e+00 
0.0000000e+00 -7.7741297e-06 0.0000000e+00 
0.0000000e+00 6.1830192e-06 0.0000000e+00 
0.0000000e+00 1.6881262e-05 0.0000000e+00 
0.0000000e+00 -1.0368326e-05 0.0000000e+00 
0.0000000e+00 -1.6441687e-04 0.0000000e+00 
0.0000000e+00 -5.7001784e-04 0.0000000e+00 
0.0000000e+00 -1.3318197e-03 0.0000000e+00 
0.0000000e+00 -2.4350749e-03 0.0000000e+00 
0.0000000e+00 -3.6731672e-03 0.0000000e+00 
0.0000000e+00 -4.6429164e-03 0.0000000e+00 
0.0000000e+00 -4.9009831e-03 0.0000000e+00 
0.0000000e+00 -4.8153005e-03 0.0000000e+00 
0.0000000e+00 -4.8577320e-03 0.0000000e+00 
0.0000000e+00 -5.0692586e-03 0.0000000e+00 
0.0000000e+00 -5.0964658e-03 0.0000000e+00 
0.0000000e+00 -4.4184122e-03 0.0000000e+00 
0.0000000e+00 -3.2485039e-03 0.0000000e+00 
0.0000000e+00 -2.0813842e-03 0.0000000e+00 
0.0000000e+00 -1.1447739e-03 0.0000000e+00 
0.0000000e+00 -4.9836782e-04 0.0000000e+00 
0.0000000e+00 -1.1693179e-04 0.0000000e+00 
0.0000000e+00 6.5584580e-05 0.0000000e+00 
0.0000000e+00 1.2916907e-04 0.0000000e+00 
0.0000000e+00 1.4170412e-04 0.0000000e+00 
0.0000000e+00 1.4000120e-04 0.0000000e+00 
0.0000000e+00 1.3528194e-04 0.0000000e+00 
0.0000000e+00 1.2521156e-04 0.0000000e+00 
0.0000000e+00 1.0717018e-04 0.0000000e+00 
0.0000000e+00 8.3870706e-05 0.0000000e+00 
0.0000000e+00 5.8879890e-05 0.0000000e+00 
0.0000000e+00 3.2608976e-05 0.0000000e+00 
0.0000000e+00 3.9434167e-06 0.0000000e+00 
0.0000000e+00 -2.5839125e-05 0.0000000e+00 
0.0000000e+00 -5.0948285e-05 0.0000000e+00 
0.0000000e+00 -6.4079788e-05 0.0000000e+00 
0.0000000e+00 -6.1625658e-05 0.0000000e+00 
0.0000000e+00 -4.6073157e-05 0.0000000e+00 
0.0000000e+00 -2.3139060e-05 0.0000000e+00 
0.0000000e+00 4.5426398e-07 0.0000000e+00 
0.0000000e+00 1.9688594e-05 0.0000000e+00 
0.0000000e+00 3.2773281e-05 0.0000000e+00 
0.0000000e+00 3.9890972e-05 0.0000000e+00 
0.0000000e+00 4.2079155e-05 0.0000000e+00 
5.5859848e-05 -8.0864200e-05 -1.7008203e-06 
-2.3613327e-04 -4.5848596e-03 -5.3336760e-05 
0.0000000e+00 0.0000000e+00 0.0000000e+00 
0.0000000e+00 0.0000000e+00 0.0000000e+00 
0.0000000e+00 0.0000000e+00 0.0000000e+00 
0.0000000e+00 0.0000000e+00 0.0000000e+00 
0.0000000e+00 0.0000000e+00 0.0000000e+00 
0.0000000e+00 0.0000000e+00 0.0000000e+00 
0.0000000e+00 0.0000000e+00 0.0000000e+00 
0.0000000e+00 0.0000000e+00 0.0000000e+00 
0.0000000e+00 0.0000000e+00 0.0000000e+00 
0.0000000e+00 0.0000000e+00 0.0000000e+00 
0.0000000e+00 0.0000000e+00 0.0000000e+00 
0.0000000e+00 0.0000000e+00 0.0000000e+00 
0.0000000e+00 0.0000000e+00 0.0000000e+00 
0.0000000e+00 0.0000000e+00 0.0000000e+00 
0.0000000e+00 0.0000000e+00 0.0000000e+00 
0.0000000e+00 0.0000000e+00 0.0000000e+00 
0.0000000e+00 0.0000000e+00 0.0000000e+00 
0.0000000e+00 0.0000000e+00 0.0000000e+00 
0.0000000e+00 0.0000000e+00 0.0000000e+00 
0.0000000e+00 0.0000000e+00 0.0000000e+00 
0.0000000e+00 0.0000000e+00 0.0000000e+00 
0.0000000e+00 0.0000000e+00 0.0000000e+00 
0.0000000e+00 0.0000000e+00 0.0000000e+00 
0.0000000e+00 0.0000000e+00 0.0000000e+00 
0.0000000e+00 0.0000000e+00 0.0000000e+00 
0.0000000e+00 0.0000000e+00 0.0000000e+00 
0.0000000e+00 0.0000000e+00 0.0000000e+00 
0.0000000e+00 0.0000000e+00 0.0000000e+00 
0.0000000e+00 0.0000000e+00 0.0000000e+00 
0.0000000e+00 0.0000000e+00 0.0000000e+00 
0.0000000e+00 0.0000000e+00 0.0000000e+00 
0.0000000e+00 0.0000000e+00 0.0000000e+00 
0.0000000e+00 0.0000000e+00 0.0000000e+00 
0.0000000e+00 0.0000000e+00 0.0000000e+00 
0.0000000e+00 0.0000000e+00 0.0000000e+00 
0.0000000e+00 0.0000000e+00 0.0000000e+00 
0.0000000e+00 0.0000000e+00 0.0000000e+00 
0.0000000e+00 0.0000000e+00 0.0000000e+00 
0.0000000e+00 0.0000000e+00 0.0000000e+00 
0.0000000e+00 0.0000000e+00 0.0000000e+00 
0.0000000e+00 0.0000000e+00 0.0000000e+00 
0.0000000e+00 0.0000000e+00 0.0000000e+00 
0.0000000e+00 0.0000000e+00 0.0000000e+00 
0.0000000e+00 0.0000000e+00 0.0000000e+00 
0.0000000e+00 0.0000000e+00 0.0000000e+00 
0.0000000e+00 0.0000000e+00 0.0000000e+00 
0.0000000e+00 0.0000000e+00 0.0000000e+00 
0.0000000e+00 0.0000000e+00 0.0000000e+00 
0.0000000e+00 0.0000000e+00 0.0000000e+00 
0.0000000e+00 0.0000000e+00 0.0000000e+00 
0.0000000e+00 0.0000000e+00 0.0000000e+00 
0.0000000e+00 0.0000000e+00 0.0000000e+00 
0.0000000e+00 0.0000000e+00 0.0000000e+00 
0.0000000e+00 0.0000000e+00 0.0000000e+00 
0.0000000e+00 0.0000000e+00 0.0000000e+00 
0.0000000e+00 0.0000000e+00 0.0000000e+00 
0.0000000e+00 0.0000000e+00 0.0000000e+00 
0.0000000e+00 0.0000000e+00 0.0000000e+00 
0.0000000e+00 0.0000000e+00 0.0000000e+00 
0.0000000e+00 0.0000000e+00 0.0000000e+00 
0.0000000e+00 0.0000000e+00 0.0000000e+00 
0.0000000e+00 0.0000000e+00 0.0000000e+00 
0.0000000e+00 0.0000000e+00 0.0000000e+00 
0.0000000e+00 0.0000000e+00 0.0000000e+00 
0.0000000e+00 0.0000000e+00 0.0000000e+00 
0.0000000e+00 0.0000000e+00 0.0000000e+00 
0.0000000e+00 0.0000000e+00 0.0000000e+00 
0.0000000e+00 0.0000000e+00 0.0000000e+00 
0.0000000e+00 0.0000000e+00 0.0000000e+00 
0.0000000e+00 0.0000000e+00 0.0000000e+00 
0.0000000e+00 0.0000000e+00 0.0000000e+00 
0.0000000e+00 0.0000000e+00 0.0000000e+00 
0.0000000e+00 0.0000000e+00 0.0000000e+00 
0.0000000e+00 0.0000000e+00 0.0000000e+00 
0.0000000e+00 0.0000000e+00 0.0000000e+00 
0.0000000e+00 0.0000000e+00 0.0000000e+00 
0.0000000e+00 0.0000000e+00 0.0000000e+00 
0.0000000e+00 0.0000000e+00 0.0000000e+00 
0.0000000e+00 0.0000000e+00 0.0000000e+00 
0.0000000e+00 0.0000000e+00 0.0000000e+00 
0.0000000e+00 0.0000000e+00 0.0000000e+00 
0.0000000e+00 0.0000000e+00 0.0000000e+00 
0.0000000e+00 0.0000000e+00 0.0000000e+00 
0.0000000e+00 0.0000000e+00 0.0000000e+00 
0.0000000e+00 0.0000000e+00 0.0000000e+00 
0.0000000e+00 0.0000000e+00 0.0000000e+00 
0.0000000e+00 0.0000000e+00 0.0000000e+00 
0.0000000e+00 0.0000000e+00 0.0000000e+00 
0.0000000e+00 0.0000000e+00 0.0000000e+00 
0.0000000e+00 0.0000000e+00 0.0000000e+00 
0.0000000e+00 0.0000000e+00 0.0000000e+00 
0.0000000e+00 0.0000000e+00 0.0000000e+00 
0.0000000e+00 0.0000000e+00 0.0000000e+00 
0.0000000e+00 0.0000000e+00 0.0000000e+00 
0.0000000e+00 0.0000000e+00 0.0000000e+00 
0.0000000e+00 0.0000000e+00 0.0000000e+00 
0.0000000e+00 0.0000000e+00 0.0000000e+00 
0.0000000e+00 0.0000000e+00 0.0000000e+00 
0.0000000e+00 0.0000000e+00 0.0000000e+00 
0.0000000e+00 0.0000000e+00 0.0000000e+00 
0.0000000e+00 0.0000000e+00 0.0000000e+00 
0.0000000e+00 0.0000000e+00 0.0000000e+00 
0.0000000e+00 0.0000000e+00 0.0000000e+00 
0.0000000e+00 0.0000000e+00 0.0000000e+00 
0.0000000e+00 0.0000000e+00 0.0000000e+00 
0.0000000e+00 0.0000000e+00 0.0000000e+00 
8.4978006e-07 -4.0639210e-07 -3.9114116e-06 
1.8673701e-06 -6.0785368e-07 -1.3349713e-06 
5.2810947e-07 -1.2234478e-06 9.3656831e-07 
9.6300403e-07 -1.8469491e-06 -3.1161608e-06 
1.9145425e-06 -5.7449156e-06 -2.4949795e-06 
4.4709932e-06 7.7671115e-07 -8.4792242e-07 
7.6419838e-06 3.2684873e-06 -2.1068990e-06 
5.3402468e-06 -7.2103880e-06 -2.7628323e-06 
4.5160323e-06 7.1132035e-07 -4.9395558e-06 
1.0672712e-05 -6.3629710e-07 -6.6843800e-06 
1.4374285e-05 -6.1718179e-06 -1.1813589e-05 
2.2801480e-05 -5.1600732e-06 -1.0394507e-05 
3.0792162e-05 -1.1955109e-05 -9.4935467e-06 
3.8325252e-05 -1.6447615e-05 -5.4186794e-06 
4.7459100e-05 -1.1589813e-05 5.6884937e-06 
4.5817305e-05 -1.3364762e-05 8.5780612e-06 
3.7332549e-05 -1.1333330e-05 1.7042237e-05 
2.6617732e-05 -6.1732894e-06 2.2946633e-05 
1.3387570e-05 -5.0953518e-06 2.0997222e-05 
3.2254572e-06 -7.3349594e-07 1.7253637e-05 
-4.4119179e-07 -9.3724850e-07 1.0308084e-05 
-4.0142075e-07 -6.5256359e-06 5.0486176e-07 
3.9290385e-06 -3.6270958e-06 -3.4018331e-06 
4.7595777e-06 3.1700602e-06 -3.3693957e-06 
8.9214518e-06 -2.4917006e-06 -6.3765729e-06 
7.6303513e-06 -1.7818743e-07 -4.4525586e-06 
1.0849789e-05 -1.1793690e-08 -5.4463339e-06 
1.0568482e-05 -1.2868283e-06 -8.2774732e-06 
7.8753346e-06 -1.7932862e-06 -1.0747955e-05 
9.8726277e-06 -1.7670721e-06 -1.2141534e-05 
1.7584593e-05 -7.6800088e-06 -1.4797874e-05 
2.1163665e-05 -9.1263582e-06 -1.7316555e-05 
3.4189485e-05 -1.0869544e-05 -1.4059369e-05 
4.1326755e-05 -1.7773946e-05 -9.8896589e-06 
4.4649943e-05 -1.6193018e-05 -1.2049829e-06 
4.4359022e-05 -1.3000435e-05 1.0607892e-05 
3.4592154e-05 -9.6217191e-06 2.0407324e-05 
2.8421260e-05 -8.6733507e-06 2.2413979e-05 
1.3402481e-05 -5.3845165e-06 2.0112981e-05 
6.8780801e-06 -3.7879599e-06 1.4869757e-05 
2.0837222e-06 -2.7345206e-06 8.6543814e-06 
6.7321480e-08 -8.8867586e-07 3.0816050e-06 
-6.4662925e-07 3.2778900e-07 -7.6637474e-07 
-6.5030724e-07 8.1826113e-07 -1.9329448e-06 
-5.8886445e-07 1.6116046e-06 -2.4097819e-06 
-5.3069630e-07 6.1863801e-07 -2.2723088e-06 
-5.4038696e-07 -3.9661813e-07 -1.6286555e-06 
-2.8490300e-07 -6.4749088e-08 -9.1819396e-07 
-6.1816650e-08 7.2000103e-07 -2.8920354e-07 
0.0000000e+00 1.0030086e-05 0.0000000e+00 
0.0000000e+00 5.8979549e-06 0.0000000e+00 
0.0000000e+00 1.1616679e-05 0.0000000e+00 
0.0000000e+00 2.5565019e-05 0.0000000e+00 
0.0000000e+00 -6.1893334e-06 0.0000000e+00 
0.0000000e+00 -4.0102772e-05 0.0000000e+00 
0.0000000e+00 -1.7588765e-05 0.0000000e+00 
0.0000000e+00 -6.7202323e-05 0.0000000e+00 
0.0000000e+00 -5.1048028e-05 0.0000000e+00 
0.0000000e+00 -4.4572473e-05 0.0000000e+00 
0.0000000e+00 -5.2168027e-05 0.0000000e+00 
0.0000000e+00 -1.9920712e-04 0.0000000e+00 
0.0000000e+00 -3.2664655e-04 0.0000000e+00 
0.0000000e+00 -4.5527180e-04 0.0000000e+00 
0.0000000e+00 -5.3213781e-04 0.0000000e+00 
0.0000000e+00 -5.2787922e-04 0.0000000e+00 
0.0000000e+00 -4.2141325e-04 0.0000000e+00 
0.0000000e+00 -1.8009734e-04 0.0000000e+00 
0.0000000e+00 1.0661616e-05 0.0000000e+00 
0.0000000e+00 9.2001937e-05 0.0000000e+00 
0.0000000e+00 1.1425636e-04 0.0000000e+00 
0.0000000e+00 1.1508040e-04 0.0000000e+00 
0.0000000e+00 1.0059286e-04 0.0000000e+00 
0.0000000e+00 8.7062435e-05 0.0000000e+00 
0.0000000e+00 3.0542447e-05 0.0000000e+00 
0.0000000e+00 -2.5291813e-05 0.0000000e+00 
0.0000000e+00 -3.0938561e-05 0.0000000e+00 
0.0000000e+00 -3.8635742e-05 0.0000000e+00 
0.0000000e+00 -9.2177281e-05 0.0000000e+00 
0.0000000e+00 -4.3465676e-05 0.0000000e+00 
0.0000000e+00 -9.0219241e-05 0.0000000e+00 
0.0000000e+00 -2.4434726e-04 0.0000000e+00 
0.0000000e+00 -4.2259318e-04 0.0000000e+00 
0.0000000e+00 -4.8870587e-04 0.0000000e+00 
0.0000000e+00 -5.5119983e-04 0.0000000e+00 
0.0000000e+00 -4.8599736e-04 0.0000000e+00 
0.0000000e+00 -3.4340646e-04 0.0000000e+00 
0.0000000e+00 -2.0867026e-04 0.0000000e+00 
0.0000000e+00 -6.0202932e-05 0.0000000e+00 
0.0000000e+00 -2.5009667e-05 0.0000000e+00 
0.0000000e+00 1.4085863e-05 0.0000000e+00 
0.0000000e+00 3.2340009e-05 0.0000000e+00 
0.0000000e+00 2.3301307e-05 0.0000000e+00 
0.0000000e+00 1.2727025e-05 0.0000000e+00 
0.0000000e+00 -2.1940414e-06 0.0000000e+00 
0.0000000e+00 -1.9736188e-05 0.0000000e+00 
0.0000000e+00 -1.6210415e-05 0.0000000e+00 
0.0000000e+00 2.8177071e-06 0.0000000e+00 
0.0000000e+00 9.8251021e-06 0.0000000e+00 
2.0667242e-06 -2.4564310e-06 -2.5939278e-06 
3.2517303e-06 -4.0505674e-06 -3.4430211e-06 
3.5217101e-06 -8.1633189e-06 -1.7493128e-06 
2.2674442e-06 -1.3740535e-05 -3.6884569e-06 
2.1324402e-07 -1.3991973e-07 1.0481314e-08 
4.4657534e-07 1.0254890e-06 -7.5742491e-07 
1.9723267e-07 2.5477218e-06 -1.2367257e-06 
2.3639913e-07 1.7584790e-06 -1.1287821e-06 
-6.9363858e-07 9.3726896e-07 -2.6728935e-06 
1.9099907e-06 -3.7419363e-06 1.6378128e-06 
-1.0791545e-06 -1.1129694e-06 -2.6780057e-07 
-3.3356657e-06 -3.3724564e-06 -1.4327026e-06 
-3.2969578e-07 -7.0430438e-06 -6.9887442e-08 
4.1049207e-06 2.6714927e-06 -9.0653202e-07 
-3.2681187e-06 2.0419161e-06 -7.4745850e-07 
1.8216339e-06 -8.6554755e-06 -5.4373363e-06 
6.3065881e-06 1.2167236e-05 -9.2640248e-06 
7.6285542e-06 -3.9899514e-06 -1.0723271e-05 
2.2369013e-05 -6.4544097e-06 -1.7124548e-05 
3.0200521e-05 1.9556142e-06 -8.0165173e-06 
3.3413628e-05 -1.0762393e-05 -4.6011232e-06 
4.3427732e-05 -1.6305397e-05 -4.4921049e-07 
4.0751293e-05 -1.0903594e-05 5.3822300e-06 
4.0560572e-05 -9.8848805e-06 1.2925891e-05 
3.3027831e-05 -1.1673005e-05 1.8607901e-05 
2.5623633e-05 -2.6067189e-06 2.1371205e-05 
1.7790024e-05 -2.3758812e-06 2.3195083e-05 