# vtk DataFile Version 4.0
vtk output
ASCII
DATASET UNSTRUCTURED_GRID
POINTS 1919 float
0.0000000e+00 0.0000000e+00 0.0000000e+00 
0.0000000e+00 0.0000000e+00 5.0000000e+01 
5.0000000e+00 0.0000000e+00 0.0000000e+00 
5.0000000e+00 0.0000000e+00 5.0000000e+01 
5.0000000e+00 1.0000000e+00 0.0000000e+00 
5.0000000e+00 1.0000000e+00 5.0000000e+01 
0.0000000e+00 1.0000000e+00 0.0000000e+00 
0.0000000e+00 1.0000000e+00 5.0000000e+01 
5.0000000e+00 2.0000000e+00 0.0000000e+00 
5.0000000e+00 2.0000000e+00 5.0000000e+01 
3.0000000e+00 2.0000000e+00 0.0000000e+00 
3.0000000e+00 2.0000000e+00 5.0000000e+01 
0.0000000e+00 2.0000000e+00 0.0000000e+00 
0.0000000e+00 2.0000000e+00 5.0000000e+01 
1.5000000e+00 3.0000000e+00 0.0000000e+00 
1.5000000e+00 3.0000000e+00 5.0000000e+01 
7.5000000e-01 3.0000000e+00 0.0000000e+00 
7.5000000e-01 3.0000000e+00 5.0000000e+01 
0.0000000e+00 3.0000000e+00 0.0000000e+00 
0.0000000e+00 3.0000000e+00 5.0000000e+01 
7.5000000e-01 3.0000000e+00 5.0000000e-01 
7.5000000e-01 3.0000000e+00 1.0000000e+00 
7.5000000e-01 3.0000000e+00 1.5000000e+00 
7.5000000e-01 3.0000000e+00 2.0000000e+00 
7.5000000e-01 3.0000000e+00 2.5000000e+00 
7.5000000e-01 3.0000000e+00 3.0000000e+00 
7.5000000e-01 3.0000000e+00 3.5000000e+00 
7.5000000e-01 3.0000000e+00 4.0000000e+00 
7.5000000e-01 3.0000000e+00 4.5000000e+00 
7.5000000e-01 3.0000000e+00 5.0000000e+00 
7.5000000e-01 3.0000000e+00 5.5000000e+00 
7.5000000e-01 3.0000000e+00 6.0000000e+00 
7.5000000e-01 3.0000000e+00 6.5000000e+00 
7.5000000e-01 3.0000000e+00 7.0000000e+00 
7.5000000e-01 3.0000000e+00 7.5000000e+00 
7.5000000e-01 3.0000000e+00 8.0000000e+00 
7.5000000e-01 3.0000000e+00 8.5000000e+00 
7.5000000e-01 3.0000000e+00 9.0000000e+00 
7.5000000e-01 3.0000000e+00 9.5000000e+00 
7.5000000e-01 3.0000000e+00 1.0000000e+01 
7.5000000e-01 3.0000000e+00 1.0500000e+01 
7.5000000e-01 3.0000000e+00 1.1000000e+01 
7.5000000e-01 3.0000000e+00 1.1500000e+01 
7.5000000e-01 3.0000000e+00 1.2000000e+01 
7.5000000e-01 3.0000000e+00 1.2500000e+01 
7.5000000e-01 3.0000000e+00 1.3000000e+01 
7.5000000e-01 3.0000000e+00 1.3500000e+01 
7.5000000e-01 3.0000000e+00 1.4000000e+01 
7.5000000e-01 3.0000000e+00 1.4500000e+01 
7.5000000e-01 3.0000000e+00 1.5000000e+01 
7.5000000e-01 3.0000000e+00 1.5500000e+01 
7.5000000e-01 3.0000000e+00 1.6000000e+01 
7.5000000e-01 3.0000000e+00 1.6500000e+01 
7.5000000e-01 3.0000000e+00 1.7000000e+01 
7.5000000e-01 3.0000000e+00 1.7500000e+01 
7.5000000e-01 3.0000000e+00 1.8000000e+01 
7.5000000e-01 3.0000000e+00 1.8500000e+01 
7.5000000e-01 3.0000000e+00 1.9000000e+01 
7.5000000e-01 3.0000000e+00 1.9500000e+01 
7.5000000e-01 3.0000000e+00 2.0000000e+01 
7.5000000e-01 3.0000000e+00 2.0500000e+01 
7.5000000e-01 3.0000000e+00 2.1000000e+01 
7.5000000e-01 3.0000000e+00 2.1500000e+01 
7.5000000e-01 3.0000000e+00 2.2000000e+01 
7.5000000e-01 3.0000000e+00 2.2500000e+01 
7.5000000e-01 3.0000000e+00 2.3000000e+01 
7.5000000e-01 3.0000000e+00 2.3500000e+01 
7.5000000e-01 3.0000000e+00 2.4000000e+01 
7.5000000e-01 3.0000000e+00 2.4500000e+01 
7.5000000e-01 3.0000000e+00 2.5000000e+01 
7.5000000e-01 3.0000000e+00 2.5500000e+01 
7.5000000e-01 3.0000000e+00 2.6000000e+01 
7.5000000e-01 3.0000000e+00 2.6500000e+01 
7.5000000e-01 3.0000000e+00 2.7000000e+01 
7.5000000e-01 3.0000000e+00 2.7500000e+01 
7.5000000e-01 3.0000000e+00 2.8000000e+01 
7.5000000e-01 3.0000000e+00 2.8500000e+01 
7.5000000e-01 3.0000000e+00 2.9000000e+01 
7.5000000e-01 3.0000000e+00 2.9500000e+01 
7.5000000e-01 3.0000000e+00 3.0000000e+01 
7.5000000e-01 3.0000000e+00 3.0500000e+01 
7.5000000e-01 3.0000000e+00 3.1000000e+01 
7.5000000e-01 3.0000000e+00 3.1500000e+01 
7.5000000e-01 3.0000000e+00 3.2000000e+01 
7.5000000e-01 3.0000000e+00 3.2500000e+01 
7.5000000e-01 3.0000000e+00 3.3000000e+01 
7.5000000e-01 3.0000000e+00 3.3500000e+01 
7.5000000e-01 3.0000000e+00 3.4000000e+01 
7.5000000e-01 3.0000000e+00 3.4500000e+01 
7.5000000e-01 3.0000000e+00 3.5000000e+01 
7.5000000e-01 3.0000000e+00 3.5500000e+01 
7.5000000e-01 3.0000000e+00 3.6000000e+01 
7.5000000e-01 3.0000000e+00 3.6500000e+01 
7.5000000e-01 3.0000000e+00 3.7000000e+01 
7.5000000e-01 3.0000000e+00 3.7500000e+01 
7.5000000e-01 3.0000000e+00 3.8000000e+01 
7.5000000e-01 3.0000000e+00 3.8500000e+01 
7.5000000e-01 3.0000000e+00 3.9000000e+01 
7.5000000e-01 3.0000000e+00 3.9500000e+01 
7.5000000e-01 3.0000000e+00 4.0000000e+01 
7.5000000e-01 3.0000000e+00 4.0500000e+01 
7.5000000e-01 3.0000000e+00 4.1000000e+01 
7.5000000e-01 3.0000000e+00 4.1500000e+01 
7.5000000e-01 3.0000000e+00 4.2000000e+01 
7.5000000e-01 3.0000000e+00 4.2500000e+01 
7.5000000e-01 3.0000000e+00 4.3000000e+01 
7.5000000e-01 3.0000000e+00 4.3500000e+01 
7.5000000e-01 3.0000000e+00 4.4000000e+01 
7.5000000e-01 3.0000000e+00 4.4500000e+01 
7.5000000e-01 3.0000000e+00 4.5000000e+01 
7.5000000e-01 3.0000000e+00 4.5500000e+01 
7.5000000e-01 3.0000000e+00 4.6000000e+01 
7.5000000e-01 3.0000000e+00 4.6500000e+01 
7.5000000e-01 3.0000000e+00 4.7000000e+01 
7.5000000e-01 3.0000000e+00 4.7500000e+01 
7.5000000e-01 3.0000000e+00 4.8000000e+01 
7.5000000e-01 3.0000000e+00 4.8500000e+01 
7.5000000e-01 3.0000000e+00 4.9000000e+01 
7.5000000e-01 3.0000000e+00 4.9500000e+01 
7.5000000e-01 3.0250001e+00 0.0000000e+00 
7.5000000e-01 3.0250001e+00 5.0000000e-01 
7.5000000e-01 3.0250001e+00 1.0000000e+00 
7.5000000e-01 3.0250001e+00 1.5000000e+00 
7.5000000e-01 3.0250001e+00 2.0000000e+00 
7.5000000e-01 3.0250001e+00 2.5000000e+00 
7.5000000e-01 3.0250001e+00 3.0000000e+00 
7.5000000e-01 3.0250001e+00 3.5000000e+00 
7.5000000e-01 3.0250001e+00 4.0000000e+00 
7.5000000e-01 3.0250001e+00 4.5000000e+00 
7.5000000e-01 3.0250001e+00 5.0000000e+00 
7.5000000e-01 3.0250001e+00 5.5000000e+00 
7.5000000e-01 3.0250001e+00 6.0000000e+00 
7.5000000e-01 3.0250001e+00 6.5000000e+00 
7.5000000e-01 3.0250001e+00 7.0000000e+00 
7.5000000e-01 3.0250001e+00 7.5000000e+00 
7.5000000e-01 3.0250001e+00 8.0000000e+00 
7.5000000e-01 3.0250001e+00 8.5000000e+00 
7.5000000e-01 3.0250001e+00 9.0000000e+00 
7.5000000e-01 3.0250001e+00 9.5000000e+00 
7.5000000e-01 3.0250001e+00 1.0000000e+01 
7.5000000e-01 3.0250001e+00 1.0500000e+01 
7.5000000e-01 3.0250001e+00 1.1000000e+01 
7.5000000e-01 3.0250001e+00 1.1500000e+01 
7.5000000e-01 3.0250001e+00 1.2000000e+01 
7.5000000e-01 3.0250001e+00 1.2500000e+01 
7.5000000e-01 3.0250001e+00 1.3000000e+01 
7.5000000e-01 3.0250001e+00 1.3500000e+01 
7.5000000e-01 3.0250001e+00 1.4000000e+01 
7.5000000e-01 3.0250001e+00 1.4500000e+01 
7.5000000e-01 3.0250001e+00 1.5000000e+01 
7.5000000e-01 3.0250001e+00 1.5500000e+01 
7.5000000e-01 3.0250001e+00 1.6000000e+01 
7.5000000e-01 3.0250001e+00 1.6500000e+01 
7.5000000e-01 3.0250001e+00 1.7000000e+01 
7.5000000e-01 3.0250001e+00 1.7500000e+01 
7.5000000e-01 3.0250001e+00 1.8000000e+01 
7.5000000e-01 3.0250001e+00 1.8500000e+01 
7.5000000e-01 3.0250001e+00 1.9000000e+01 
7.5000000e-01 3.0250001e+00 1.9500000e+01 
7.5000000e-01 3.0250001e+00 2.0000000e+01 
7.5000000e-01 3.0250001e+00 2.0500000e+01 
7.5000000e-01 3.0250001e+00 2.1000000e+01 
7.5000000e-01 3.0250001e+00 2.1500000e+01 
7.5000000e-01 3.0250001e+00 2.2000000e+01 
7.5000000e-01 3.0250001e+00 2.2500000e+01 
7.5000000e-01 3.0250001e+00 2.3000000e+01 
7.5000000e-01 3.0250001e+00 2.3500000e+01 
7.5000000e-01 3.0250001e+00 2.4000000e+01 
7.5000000e-01 3.0250001e+00 2.4500000e+01 
7.5000000e-01 3.0250001e+00 2.5000000e+01 
7.5000000e-01 3.0250001e+00 2.5500000e+01 
7.5000000e-01 3.0250001e+00 2.6000000e+01 
7.5000000e-01 3.0250001e+00 2.6500000e+01 
7.5000000e-01 3.0250001e+00 2.7000000e+01 
7.5000000e-01 3.0250001e+00 2.7500000e+01 
7.5000000e-01 3.0250001e+00 2.8000000e+01 
7.5000000e-01 3.0250001e+00 2.8500000e+01 
7.5000000e-01 3.0250001e+00 2.9000000e+01 
7.5000000e-01 3.0250001e+00 2.9500000e+01 
7.5000000e-01 3.0250001e+00 3.0000000e+01 
7.5000000e-01 3.0250001e+00 3.0500000e+01 
7.5000000e-01 3.0250001e+00 3.1000000e+01 
7.5000000e-01 3.0250001e+00 3.1500000e+01 
7.5000000e-01 3.0250001e+00 3.2000000e+01 
7.5000000e-01 3.0250001e+00 3.2500000e+01 
7.5000000e-01 3.0250001e+00 3.3000000e+01 
7.5000000e-01 3.0250001e+00 3.3500000e+01 
7.5000000e-01 3.0250001e+00 3.4000000e+01 
7.5000000e-01 3.0250001e+00 3.4500000e+01 
7.5000000e-01 3.0250001e+00 3.5000000e+01 
7.5000000e-01 3.0250001e+00 3.5500000e+01 
7.5000000e-01 3.0250001e+00 3.6000000e+01 
7.5000000e-01 3.0250001e+00 3.6500000e+01 
7.5000000e-01 3.0250001e+00 3.7000000e+01 
7.5000000e-01 3.0250001e+00 3.7500000e+01 
7.5000000e-01 3.0250001e+00 3.8000000e+01 
7.5000000e-01 3.0250001e+00 3.8500000e+01 
7.5000000e-01 3.0250001e+00 3.9000000e+01 
7.5000000e-01 3.0250001e+00 3.9500000e+01 
7.5000000e-01 3.0250001e+00 4.0000000e+01 
7.5000000e-01 3.0250001e+00 4.0500000e+01 
7.5000000e-01 3.0250001e+00 4.1000000e+01 
7.5000000e-01 3.0250001e+00 4.1500000e+01 
7.5000000e-01 3.0250001e+00 4.2000000e+01 
7.5000000e-01 3.0250001e+00 4.2500000e+01 
7.5000000e-01 3.0250001e+00 4.3000000e+01 
7.5000000e-01 3.0250001e+00 4.3500000e+01 
7.5000000e-01 3.0250001e+00 4.4000000e+01 
7.5000000e-01 3.0250001e+00 4.4500000e+01 
7.5000000e-01 3.0250001e+00 4.5000000e+01 
7.5000000e-01 3.0250001e+00 4.5500000e+01 
7.5000000e-01 3.0250001e+00 4.6000000e+01 
7.5000000e-01 3.0250001e+00 4.6500000e+01 
7.5000000e-01 3.0250001e+00 4.7000000e+01 
7.5000000e-01 3.0250001e+00 4.7500000e+01 
7.5000000e-01 3.0250001e+00 4.8000000e+01 
7.5000000e-01 3.0250001e+00 4.8500000e+01 
7.5000000e-01 3.0250001e+00 4.9000000e+01 
7.5000000e-01 3.0250001e+00 4.9500000e+01 
7.5000000e-01 3.0250001e+00 5.0000000e+01 
3.0000000e+00 2.0000000e+00 3.6000000e+01 
8.0487806e-01 3.0000000e+00 3.6000000e+01 
0.0000000e+00 0.0000000e+00 1.0000000e+00 
0.0000000e+00 0.0000000e+00 2.0000000e+00 
0.0000000e+00 0.0000000e+00 3.0000000e+00 
0.0000000e+00 0.0000000e+00 4.0000000e+00 
0.0000000e+00 0.0000000e+00 5.0000000e+00 
0.0000000e+00 0.0000000e+00 6.0000000e+00 
0.0000000e+00 0.0000000e+00 7.0000000e+00 
0.0000000e+00 0.0000000e+00 8.0000000e+00 
[...]
POINT_DATA 1919
FIELD FieldData 3
DISPLACEMENT 3 1919  float
0.0000000e+00 0.0000000e+00 0.0000000e+00 
0.0000000e+00 0.0000000e+00 0.0000000e+00 
0.0000000e+00 0.0000000e+00 0.0000000e+00 
0.0000000e+00 0.0000000e+00 0.0000000e+00 
-1.0008616e-06 -2.3589041e-06 -4.7935163e-07 
5.2105985e-08 4.8221576e-08 2.1632216e-07 
0.0000000e+00 3.5377172e-06 0.0000000e+00 
0.0000000e+00 6.8653554e-07 0.0000000e+00 
-1.8357082e-07 1.6161371e-07 -1.2509496e-06 
-2.8752567e-08 1.7601184e-07 8.2512130e-08 
-4.8585052e-06 -3.0356107e-06 -2.0110457e-07 
-5.2134368e-08 -2.7344487e-07 6.2827718e-07 
0.0000000e+00 -2.6783873e-05 0.0000000e+00 
0.0000000e+00 9.9131091e-07 0.0000000e+00 
-3.1539337e-05 -5.5174685e-05 6.0518742e-06 
-4.2892148e-07 1.0274662e-06 -1.7852445e-06 
-8.7457938e-06 -7.9809928e-05 -3.3872132e-06 
1.2290485e-06 -1.8732784e-06 -2.2162635e-06 
0.0000000e+00 -3.6542398e-05 0.0000000e+00 
0.0000000e+00 8.4405553e-07 0.0000000e+00 
-1.6017177e-05 -8.2805578e-05 9.8497740e-06 
-2.2679347e-05 -9.2064780e-05 2.0748515e-05 
-2.9325944e-05 -1.0183622e-04 2.2902541e-05 
-2.4367344e-05 -1.0210237e-04 2.0175343e-05 
-2.4833869e-05 -8.9136614e-05 8.8736115e-06 
-3.6498644e-05 -7.1408853e-05 -1.3861013e-05 
-2.8159058e-05 -6.3346568e-05 -1.7908307e-05 
-4.9963674e-06 -7.4218966e-05 -1.7856113e-05 
-2.1134800e-05 -9.1716349e-05 -4.0471700e-06 
-4.8486389e-05 -9.8279466e-05 1.4659849e-05 
-3.6233887e-05 -8.6311236e-05 5.3174126e-06 
-3.6841870e-05 -6.3881671e-05 -3.2574048e-06 
-4.0471728e-05 -8.8260284e-05 3.0483738e-05 
-4.3556636e-05 -2.7195405e-04 2.8773462e-05 
-3.7198392e-05 -7.0586265e-04 1.1217352e-04 
-8.9394758e-05 -1.4196866e-03 9.0394024e-05 
-1.5733443e-04 -2.3864941e-03 1.8393715e-04 
-2.1577154e-04 -3.4538538e-03 6.4538588e-05 
-2.6697136e-04 -4.3850038e-03 1.7448650e-04 
-2.8265905e-04 -4.7704889e-03 2.6194637e-05 
-2.9298404e-04 -4.6703811e-03 -3.6279656e-05 
-3.3289392e-04 -4.5654476e-03 -5.9959708e-05 
-3.1524306e-04 -4.7135316e-03 -6.3236985e-05 
-3.0895058e-04 -4.8214719e-03 -1.1861820e-04 
-2.5169639e-04 -4.4344817e-03 -1.8874434e-04 
-1.7455239e-04 -3.4103892e-03 -8.5666608e-05 
-1.5210087e-04 -2.2699195e-03 -1.8654384e-04 
-9.8752418e-05 -1.3148615e-03 -1.0286932e-04 
-6.6664856e-05 -6.3495169e-04 -1.4618068e-04 
-1.9348281e-05 -2.0547520e-04 -7.2996751e-05 
1.3570438e-05 2.1077134e-05 -7.2481154e-05 
-5.1110278e-06 1.0807707e-04 -2.2848655e-05 
1.2264778e-05 1.2532345e-04 2.1946658e-05 
2.7483074e-07 1.2666137e-04 5.5477623e-05 
-3.3611077e-06 1.3779306e-04 4.5967339e-05 
-7.0179735e-06 1.5386699e-04 7.6344586e-06 
9.7759266e-06 1.6427929e-04 -3.6417481e-05 
2.7892002e-05 1.6755790e-04 -5.5683176e-05 
5.1506835e-05 1.6911088e-04 -4.0425737e-05 
4.9150607e-05 1.7197560e-04 -3.9371007e-06 
5.2207681e-05 1.6720741e-04 4.0503473e-05 
5.2140691e-05 1.4084580e-04 6.0114759e-05 
3.0273690e-05 8.8576220e-05 8.3131636e-05 
2.0728839e-05 2.4563806e-05 8.4852785e-05 
-8.0416221e-06 -2.6032969e-05 6.9555965e-05 
-2.8941449e-06 -4.0760577e-05 4.4536486e-05 
-6.8472076e-07 -2.6238969e-05 5.1649724e-05 
-3.8708140e-06 -1.1831351e-05 5.5815475e-05 
1.6586464e-05 -1.9995605e-05 4.6527639e-05 
-5.7540802e-07 -5.8473939e-05 4.5564771e-05 
-3.2091724e-05 -1.0773171e-04 2.6542382e-05 
-2.7115975e-05 -1.4758673e-04 2.8468379e-05 
-3.4129051e-05 -2.0216679e-04 4.6574187e-05 
-6.4955020e-05 -3.5761378e-04 3.0764408e-05 
-9.1002868e-05 -7.4108475e-04 1.1623775e-04 
-1.4861015e-04 -1.4598923e-03 6.4742300e-05 
-2.2319783e-04 -2.5079555e-03 1.3332123e-04 
-3.1125051e-04 -3.6611045e-03 -2.9284212e-05 
-3.3301575e-04 -4.5453347e-03 2.5723883e-05 
-3.4967344e-04 -4.7080819e-03 -7.9176316e-05 
-3.4682435e-04 -4.5498922e-03 -1.3870648e-04 
-3.3357949e-04 -4.5188125e-03 -1.3346967e-04 
-3.0029743e-04 -4.7433791e-03 -1.3685899e-04 
-3.0684492e-04 -4.7937180e-03 -1.8182388e-04 
-2.6681513e-04 -4.1909711e-03 -2.6317121e-04 
-1.8153216e-04 -3.0860396e-03 -1.4182091e-04 
-1.2125762e-04 -1.9705531e-03 -2.1310231e-04 
-3.6055568e-05 -1.0573684e-03 -2.3430590e-05 
-1.7327415e-05 -4.3266488e-04 -2.1180883e-06 
-2.4695268e-05 -7.1493829e-05 2.6645161e-05 
-2.6719028e-05 8.2555329e-05 8.2917768e-06 
-2.2247534e-05 1.1291291e-04 4.8068719e-06 
-2.2982373e-05 9.9192956e-05 5.4042066e-06 
-2.7305930e-05 7.8730554e-05 7.2385460e-06 
-1.2087801e-05 6.2995248e-05 1.2220275e-07 
-7.6588685e-06 5.0304239e-05 -2.9604325e-05 
-1.2471332e-05 4.1809668e-05 -6.5488537e-05 
-4.4272615e-06 3.9267918e-05 -8.3796134e-05 
1.3437138e-05 4.1781255e-05 -6.9567286e-05 
2.0479534e-05 4.2029580e-05 -3.6163063e-05 
2.6669461e-05 3.1180934e-05 5.6348599e-06 
1.2791506e-05 1.0917893e-05 3.0218682e-05 
-3.4270238e-06 -1.1166482e-05 3.5474721e-05 
-7.4002064e-06 -2.6546548e-05 2.3021512e-05 
-1.1113497e-05 -3.0808264e-05 7.2725302e-06 
-7.5055905e-06 -2.6488571e-05 -5.3664439e-06 
-3.8651406e-06 -1.7430200e-05 -1.3640836e-05 
-2.8621421e-06 -7.5552161e-06 -1.3293969e-05 
3.8822081e-06 8.1945876e-07 -5.9670251e-06 
4.5962029e-06 6.0667617e-06 -1.0809875e-06 
4.6623045e-06 7.5722555e-06 2.1403482e-06 
3.5504538e-06 6.1846995e-06 3.2845057e-06 
1.9967406e-06 3.5039909e-06 4.5889592e-06 
4.3923365e-07 1.1851474e-06 5.4068701e-06 
-1.8979950e-06 2.4178375e-08 4.2371867e-06 
-2.1611204e-06 -3.2125041e-07 1.9170425e-06 
-1.8357712e-06 -4.8992695e-07 5.4710188e-07 
-1.4920587e-06 -9.2972323e-07 -7.2726823e-07 
-1.0477618e-06 -1.5558029e-06 -1.2246314e-06 
0.0000000e+00 -7.9349178e-05 0.0000000e+00 
0.0000000e+00 -8.2889303e-05 0.0000000e+00 
0.0000000e+00 -9.2617753e-05 0.0000000e+00 
0.0000000e+00 -1.0220498e-04 0.0000000e+00 
0.0000000e+00 -1.0202566e-04 0.0000000e+00 
0.0000000e+00 -8.8624038e-05 0.0000000e+00 
0.0000000e+00 -7.0924805e-05 0.0000000e+00 
0.0000000e+00 -6.3938431e-05 0.0000000e+00 
0.0000000e+00 -7.4623000e-05 0.0000000e+00 
0.0000000e+00 -9.1844158e-05 0.0000000e+00 
0.0000000e+00 -9.8235250e-05 0.0000000e+00 
0.0000000e+00 -8.4072046e-05 0.0000000e+00 
0.0000000e+00 -6.0494760e-05 0.0000000e+00 
0.0000000e+00 -8.8091118e-05 0.0000000e+00 
0.0000000e+00 -2.7423628e-04 0.0000000e+00 
0.0000000e+00 -7.0992246e-04 0.0000000e+00 
0.0000000e+00 -1.4277971e-03 0.0000000e+00 
0.0000000e+00 -2.3921037e-03 0.0000000e+00 
0.0000000e+00 -3.4713668e-03 0.0000000e+00 
0.0000000e+00 -4.4078482e-03 0.0000000e+00 
0.0000000e+00 -4.8034242e-03 0.0000000e+00 
0.0000000e+00 -4.6947403e-03 0.0000000e+00 
0.0000000e+00 -4.5936909e-03 0.0000000e+00 
0.0000000e+00 -4.7316412e-03 0.0000000e+00 
0.0000000e+00 -4.8516714e-03 0.0000000e+00 
0.0000000e+00 -4.4551855e-03 0.0000000e+00 
0.0000000e+00 -3.4320282e-03 0.0000000e+00 
0.0000000e+00 -2.2800600e-03 0.0000000e+00 
0.0000000e+00 -1.3197731e-03 0.0000000e+00 
0.0000000e+00 -6.3613348e-04 0.0000000e+00 
0.0000000e+00 -2.0650547e-04 0.0000000e+00 
0.0000000e+00 2.0755962e-05 0.0000000e+00 
0.0000000e+00 1.0918290e-04 0.0000000e+00 
0.0000000e+00 1.2698059e-04 0.0000000e+00 
0.0000000e+00 1.2817296e-04 0.0000000e+00 
0.0000000e+00 1.3797639e-04 0.0000000e+00 
0.0000000e+00 1.5332770e-04 0.0000000e+00 
0.0000000e+00 1.6392146e-04 0.0000000e+00 
0.0000000e+00 1.6772316e-04 0.0000000e+00 
0.0000000e+00 1.6968189e-04 0.0000000e+00 
0.0000000e+00 1.7218450e-04 0.0000000e+00 
0.0000000e+00 1.6693184e-04 0.0000000e+00 
0.0000000e+00 1.4025367e-04 0.0000000e+00 
0.0000000e+00 8.8053181e-05 0.0000000e+00 
0.0000000e+00 2.4428002e-05 0.0000000e+00 
0.0000000e+00 -2.4884481e-05 0.0000000e+00 
0.0000000e+00 -3.9603841e-05 0.0000000e+00 
0.0000000e+00 -2.6105574e-05 0.0000000e+00 
0.0000000e+00 -1.2128473e-05 0.0000000e+00 
0.0000000e+00 -2.1426087e-05 0.0000000e+00 
0.0000000e+00 -5.8943580e-05 0.0000000e+00 
0.0000000e+00 -1.0606323e-04 0.0000000e+00 
0.0000000e+00 -1.4476379e-04 0.0000000e+00 
0.0000000e+00 -1.9960156e-04 0.0000000e+00 
0.0000000e+00 -3.5759981e-04 0.0000000e+00 
0.0000000e+00 -7.4634951e-04 0.0000000e+00 
0.0000000e+00 -1.4713091e-03 0.0000000e+00 
0.0000000e+00 -2.5179370e-03 0.0000000e+00 
0.0000000e+00 -3.6805714e-03 0.0000000e+00 
0.0000000e+00 -4.5630150e-03 0.0000000e+00 
0.0000000e+00 -4.7391132e-03 0.0000000e+00 
0.0000000e+00 -4.5721345e-03 0.0000000e+00 
0.0000000e+00 -4.5479289e-03 0.0000000e+00 
0.0000000e+00 -4.7625634e-03 0.0000000e+00 
0.0000000e+00 -4.8245597e-03 0.0000000e+00 
0.0000000e+00 -4.2099231e-03 0.0000000e+00 
0.0000000e+00 -3.1044511e-03 0.0000000e+00 
0.0000000e+00 -1.9768332e-03 0.0000000e+00 
0.0000000e+00 -1.0628738e-03 0.0000000e+00 
0.0000000e+00 -4.3434426e-04 0.0000000e+00 
0.0000000e+00 -7.2318981e-05 0.0000000e+00 
0.0000000e+00 8.3360916e-05 0.0000000e+00 
0.0000000e+00 1.1526181e-04 0.0000000e+00 
0.0000000e+00 1.0039239e-04 0.0000000e+00 
0.0000000e+00 7.9112971e-05 0.0000000e+00 
0.0000000e+00 6.2826708e-05 0.0000000e+00 
0.0000000e+00 5.0466904e-05 0.0000000e+00 
0.0000000e+00 4.2084783e-05 0.0000000e+00 
0.0000000e+00 3.9509825e-05 0.0000000e+00 
0.0000000e+00 4.1694395e-05 0.0000000e+00 
0.0000000e+00 4.1439871e-05 0.0000000e+00 
0.0000000e+00 3.0956864e-05 0.0000000e+00 
0.0000000e+00 1.0990032e-05 0.0000000e+00 
0.0000000e+00 -1.0931440e-05 0.0000000e+00 
0.0000000e+00 -2.6243379e-05 0.0000000e+00 
0.0000000e+00 -3.0782867e-05 0.0000000e+00 
0.0000000e+00 -2.6500393e-05 0.0000000e+00 
0.0000000e+00 -1.7495258e-05 0.0000000e+00 
0.0000000e+00 -7.5924195e-06 0.0000000e+00 
0.0000000e+00 7.4222902e-07 0.0000000e+00 
0.0000000e+00 5.9735053e-06 0.0000000e+00 
0.0000000e+00 7.5463245e-06 0.0000000e+00 
0.0000000e+00 6.2119202e-06 0.0000000e+00 
0.0000000e+00 3.5612659e-06 0.0000000e+00 
0.0000000e+00 1.2308778e-06 0.0000000e+00 
0.0000000e+00 1.9567882e-08 0.0000000e+00 
0.0000000e+00 -3.3450704e-07 0.0000000e+00 
0.0000000e+00 -5.0179091e-07 0.0000000e+00 
0.0000000e+00 -9.3865560e-07 0.0000000e+00 
0.0000000e+00 -1.5544202e-06 0.0000000e+00 
0.0000000e+00 -1.8644346e-06 0.0000000e+00 
7.4689428e-06 -1.2388117e-05 3.7094418e-05 
-2.1702439e-05 7.9716992e-05 8.5429456e-06 
0.0000000e+00 0.0000000e+00 0.0000000e+00 
0.0000000e+00 0.0000000e+00 0.0000000e+00 
0.0000000e+00 0.0000000e+00 0.0000000e+00 
0.0000000e+00 0.0000000e+00 0.0000000e+00 
0.0000000e+00 0.0000000e+00 0.0000000e+00 
0.0000000e+00 0.0000000e+00 0.0000000e+00 
0.0000000e+00 0.0000000e+00 0.0000000e+00 
0.0000000e+00 0.0000000e+00 0.0000000e+00 
0.0000000e+00 0.0000000e+00 0.0000000e+00 
0.0000000e+00 0.0000000e+00 0.0000000e+00 
0.0000000e+00 0.0000000e+00 0.0000000e+00 
0.0000000e+00 0.0000000e+00 0.0000000e+00 
0.0000000e+00 0.0000000e+00 0.0000000e+00 
0.0000000e+00 0.0000000e+00 0.0000000e+00 
0.0000000e+00 0.0000000e+00 0.0000000e+00 
0.0000000e+00 0.0000000e+00 0.0000000e+00 
0.0000000e+00 0.0000000e+00 0.0000000e+00 
0.0000000e+00 0.0000000e+00 0.0000000e+00 
0.0000000e+00 0.0000000e+00 0.0000000e+00 
0.0000000e+00 0.0000000e+00 0.0000000e+00 
0.0000000e+00 0.0000000e+00 0.0000000e+00 
0.0000000e+00 0.0000000e+00 0.0000000e+00 
0.0000000e+00 0.0000000e+00 0.0000000e+00 
0.0000000e+00 0.0000000e+00 0.0000000e+00 
0.0000000e+00 0.0000000e+00 0.0000000e+00 
0.0000000e+00 0.0000000e+00 0.0000000e+00 
0.0000000e+00 0.0000000e+00 0.0000000e+00 
0.0000000e+00 0.0000000e+00 0.0000000e+00 
0.0000000e+00 0.0000000e+00 0.0000000e+00 
0.0000000e+00 0.0000000e+00 0.0000000e+00 
0.0000000e+00 0.0000000e+00 0.0000000e+00 
0.0000000e+00 0.0000000e+00 0.0000000e+00 
0.0000000e+00 0.0000000e+00 0.0000000e+00 
0.0000000e+00 0.0000000e+00 0.0000000e+00 
0.0000000e+00 0.0000000e+00 0.0000000e+00 
0.0000000e+00 0.0000000e+00 0.0000000e+00 
0.0000000e+00 0.0000000e+00 0.0000000e+00 
0.0000000e+00 0.0000000e+00 0.0000000e+00 
0.0000000e+00 0.0000000e+00 0.0000000e+00 
0.0000000e+00 0.0000000e+00 0.0000000e+00 
0.0000000e+00 0.0000000e+00 0.0000000e+00 
0.0000000e+00 0.0000000e+00 0.0000000e+00 
0.0000000e+00 0.0000000e+00 0.0000000e+00 
0.0000000e+00 0.0000000e+00 0.0000000e+00 
0.0000000e+00 0.0000000e+00 0.0000000e+00 
0.0000000e+00 0.0000000e+00 0.0000000e+00 
0.0000000e+00 0.0000000e+00 0.0000000e+00 
0.0000000e+00 0.0000000e+00 0.0000000e+00 
0.0000000e+00 0.0000000e+00 0.0000000e+00 
0.0000000e+00 0.0000000e+00 0.0000000e+00 
0.0000000e+00 0.0000000e+00 0.0000000e+00 
0.0000000e+00 0.0000000e+00 0.0000000e+00 
0.0000000e+00 0.0000000e+00 0.0000000e+00 
0.0000000e+00 0.0000000e+00 0.0000000e+00 
0.0000000e+00 0.0000000e+00 0.0000000e+00 
0.0000000e+00 0.0000000e+00 0.0000000e+00 
0.0000000e+00 0.0000000e+00 0.0000000e+00 
0.0000000e+00 0.0000000e+00 0.0000000e+00 
0.0000000e+00 0.0000000e+00 0.0000000e+00 
0.0000000e+00 0.0000000e+00 0.0000000e+00 
0.0000000e+00 0.0000000e+00 0.0000000e+00 
0.0000000e+00 0.0000000e+00 0.0000000e+00 
0.0000000e+00 0.0000000e+00 0.0000000e+00 
0.0000000e+00 0.0000000e+00 0.0000000e+00 
0.0000000e+00 0.0000000e+00 0.0000000e+00 
0.0000000e+00 0.0000000e+00 0.0000000e+00 
0.0000000e+00 0.0000000e+00 0.0000000e+00 
0.0000000e+00 0.0000000e+00 0.0000000e+00 
0.0000000e+00 0.0000000e+00 0.0000000e+00 
0.0000000e+00 0.0000000e+00 0.0000000e+00 
0.0000000e+00 0.0000000e+00 0.0000000e+00 
0.0000000e+00 0.0000000e+00 0.0000000e+00 
0.0000000e+00 0.0000000e+00 0.0000000e+00 
0.0000000e+00 0.0000000e+00 0.0000000e+00 
0.0000000e+00 0.0000000e+00 0.0000000e+00 
0.0000000e+00 0.0000000e+00 0.0000000e+00 
0.0000000e+00 0.0000000e+00 0.0000000e+00 
0.0000000e+00 0.0000000e+00 0.0000000e+00 
0.0000000e+00 0.0000000e+00 0.0000000e+00 
0.0000000e+00 0.0000000e+00 0.0000000e+00 
0.0000000e+00 0.0000000e+00 0.0000000e+00 
0.0000000e+00 0.0000000e+00 0.0000000e+00 
0.0000000e+00 0.0000000e+00 0.0000000e+00 
0.0000000e+00 0.0000000e+00 0.0000000e+00 
0.0000000e+00 0.0000000e+00 0.0000000e+00 
0.0000000e+00 0.0000000e+00 0.0000000e+00 
0.0000000e+00 0.0000000e+00 0.0000000e+00 
0.0000000e+00 0.0000000e+00 0.0000000e+00 
0.0000000e+00 0.0000000e+00 0.0000000e+00 
0.0000000e+00 0.0000000e+00 0.0000000e+00 
0.0000000e+00 0.0000000e+00 0.0000000e+00 
0.0000000e+00 0.0000000e+00 0.0000000e+00 
0.0000000e+00 0.0000000e+00 0.0000000e+00 
0.0000000e+00 0.0000000e+00 0.0000000e+00 
0.0000000e+00 0.0000000e+00 0.0000000e+00 
0.0000000e+00 0.0000000e+00 0.0000000e+00 
0.0000000e+00 0.0000000e+00 0.0000000e+00 
0.0000000e+00 0.0000000e+00 0.0000000e+00 
0.0000000e+00 0.0000000e+00 0.0000000e+00 
0.0000000e+00 0.0000000e+00 0.0000000e+00 
0.0000000e+00 0.0000000e+00 0.0000000e+00 
0.0000000e+00 0.0000000e+00 0.0000000e+00 
0.0000000e+00 0.0000000e+00 0.0000000e+00 
0.0000000e+00 0.0000000e+00 0.0000000e+00 
0.0000000e+00 0.0000000e+00 0.0000000e+00 
0.0000000e+00 0.0000000e+00 0.0000000e+00 
-6.0649012e-07 -8.2172852e-07 1.3893108e-06 
-3.3211099e-06 1.2193194e-06 1.8461509e-06 
-2.6407533e-06 -5.6464478e-06 -5.3796944e-06 
2.4577355e-07 -7.5534717e-06 -5.6505860e-06 
2.2507511e-06 -4.6343293e-06 -1.1560597e-05 
8.1320050e-06 -3.6620484e-06 -1.5427999e-05 
1.1745869e-05 -1.7212305e-05 -1.8886487e-05 
3.0635299e-05 -5.0772937e-06 -1.5351645e-05 
4.2116451e-05 -9.8399350e-06 -6.5583463e-06 
4.7336278e-05 -1.0579218e-05 -8.3840905e-07 
5.1626728e-05 -7.3446731e-06 1.0841244e-05 
4.6704892e-05 -7.0144988e-06 1.9017411e-05 
3.6145491e-05 -7.2546327e-06 2.3491546e-05 
2.3436865e-05 -8.4869062e-06 2.3165099e-05 
1.2437849e-05 -1.2617140e-05 1.8770645e-05 
7.3524502e-06 -7.3736778e-06 1.6963177e-05 
4.3215714e-06 -4.8148067e-06 1.2470125e-05 
1.3009948e-06 -3.5909261e-06 7.4281988e-06 
-7.6188785e-06 -2.9966247e-06 1.8922734e-06 
-1.1123680e-05 7.3280114e-07 -6.5515128e-06 
-6.2833142e-06 -7.5038129e-06 -8.2405595e-06 
-6.8081857e-07 -4.9337714e-06 -4.1303351e-06 
2.7099347e-06 -2.6285106e-06 -4.8839274e-06 
5.1531742e-06 -1.2753940e-05 -1.0297710e-05 
2.1072301e-06 -7.1152472e-06 -1.3807610e-05 
9.8937680e-06 -4.6704304e-06 -1.8995259e-05 
1.8788171e-05 -1.3534378e-05 -2.1500971e-05 
3.3962515e-05 -7.4510835e-06 -2.1466771e-05 
3.8782371e-05 -3.1981197e-06 -1.4454143e-05 
4.5401368e-05 -4.3976779e-06 -5.3149924e-06 
4.0684183e-05 -8.7690032e-06 5.2150408e-06 
3.8845959e-05 -9.1948696e-06 1.4383459e-05 
3.0633753e-05 -1.1694836e-05 2.3853187e-05 
2.4086259e-05 -1.0885693e-05 2.4103683e-05 
1.7396624e-05 -1.1847293e-05 2.0749701e-05 
1.0768027e-05 -5.3292979e-06 1.4298808e-05 
4.3987743e-06 -2.1242349e-07 7.0129836e-06 
-3.4719017e-07 1.3872798e-06 1.7006795e-06 
-3.4373832e-06 2.1263136e-06 -2.4533479e-06 
-3.0923950e-06 5.2297889e-07 -3.7569760e-06 
-9.2087265e-07 -8.9732458e-07 -2.6367368e-06 
1.4230674e-06 -3.7240375e-07 -4.1358689e-07 
1.6252544e-06 -2.9794728e-07 1.7970405e-06 
5.7517570e-07 -7.4188534e-08 1.3014435e-06 
-5.4146341e-07 1.1905794e-07 -2.5535215e-07 
-5.3400845e-07 2.5148495e-07 -7.4200346e-07 
-1.4597143e-07 2.7917008e-07 -5.2507301e-07 
1.5996774e-07 -1.3985388e-07 7.2662552e-08 
8.2102666e-08 -2.4679269e-07 3.5152704e-07 
0.0000000e+00 -2.3034821e-05 0.0000000e+00 
0.0000000e+00 -4.7988946e-05 0.0000000e+00 
0.0000000e+00 -2.0769739e-05 0.0000000e+00 
0.0000000e+00 -6.2438950e-05 0.0000000e+00 
0.0000000e+00 -4.8926824e-05 0.0000000e+00 
0.0000000e+00 -2.1170939e-05 0.0000000e+00 
0.0000000e+00 -5.5229397e-05 0.0000000e+00 
0.0000000e+00 -2.1745764e-04 0.0000000e+00 
0.0000000e+00 -3.5687812e-04 0.0000000e+00 
0.0000000e+00 -5.1622232e-04 0.0000000e+00 
0.0000000e+00 -5.5957882e-04 0.0000000e+00 
0.0000000e+00 -5.2307884e-04 0.0000000e+00 
0.0000000e+00 -3.6060397e-04 0.0000000e+00 
0.0000000e+00 -1.6683832e-04 0.0000000e+00 
0.0000000e+00 -4.6404957e-06 0.0000000e+00 
0.0000000e+00 6.4289139e-05 0.0000000e+00 
0.0000000e+00 4.8815622e-05 0.0000000e+00 
0.0000000e+00 1.2666581e-05 0.0000000e+00 
0.0000000e+00 1.7532766e-05 0.0000000e+00 
0.0000000e+00 1.1502569e-05 0.0000000e+00 
0.0000000e+00 -1.4322000e-05 0.0000000e+00 
0.0000000e+00 -7.7540302e-05 0.0000000e+00 
0.0000000e+00 -4.3575823e-05 0.0000000e+00 
0.0000000e+00 -5.4068725e-05 0.0000000e+00 
0.0000000e+00 -6.9812500e-05 0.0000000e+00 
0.0000000e+00 -8.5427200e-05 0.0000000e+00 
0.0000000e+00 -7.5996315e-05 0.0000000e+00 
0.0000000e+00 -2.7372868e-04 0.0000000e+00 
0.0000000e+00 -4.0422627e-04 0.0000000e+00 
0.0000000e+00 -4.9450534e-04 0.0000000e+00 
0.0000000e+00 -4.9454824e-04 0.0000000e+00 
0.0000000e+00 -4.5039796e-04 0.0000000e+00 
0.0000000e+00 -3.0764809e-04 0.0000000e+00 
0.0000000e+00 -1.5770544e-04 0.0000000e+00 
0.0000000e+00 -5.4186428e-05 0.0000000e+00 
0.0000000e+00 -2.4095058e-05 0.0000000e+00 
0.0000000e+00 -3.1497771e-06 0.0000000e+00 
0.0000000e+00 9.7997126e-06 0.0000000e+00 
0.0000000e+00 1.6596547e-05 0.0000000e+00 
0.0000000e+00 1.6795657e-05 0.0000000e+00 
0.0000000e+00 6.0336210e-06 0.0000000e+00 
0.0000000e+00 -1.0128790e-05 0.0000000e+00 
0.0000000e+00 -9.3581384e-06 0.0000000e+00 
0.0000000e+00 -1.1094163e-06 0.0000000e+00 
0.0000000e+00 5.3740469e-06 0.0000000e+00 
0.0000000e+00 2.8555223e-06 0.0000000e+00 
0.0000000e+00 -1.6683379e-06 0.0000000e+00 
0.0000000e+00 -1.7520700e-06 0.0000000e+00 
0.0000000e+00 -3.6543537e-07 0.0000000e+00 
2.4626167e-06 2.0375744e-06 1.1217098e-07 
1.7848780e-07 -1.9021574e-07 1.3023378e-06 
2.4948959e-06 -5.6059130e-06 -4.9662403e-06 
-2.8971767e-06 -5.7784155e-06 -8.0800801e-06 
-5.1185918e-09 -1.4345338e-07 2.6782274e-07 
-1.8751685e-07 -2.4941428e-07 3.1486150e-07 
-4.2559191e-07 -1.8188747e-07 3.7207531e-07 
-2.9615100e-07 3.9811795e-07 1.8655861e-07 
-1.2547753e-06 -2.3158636e-06 4.8751695e-06 
-3.8838361e-06 4.5660631e-06 -1.0177096e-06 
-3.8067014e-07 -1.2772989e-05 -5.1813909e-06 
3.6591664e-06 -1.3243681e-05 -9.3798808e-06 
1.4371393e-05 -2.4235344e-06 -1.0039970e-05 
6.4121377e-06 -1.1470665e-05 -1.6426357e-05 
9.3907993e-06 -2.3326900e-05 -2.4260609e-05 
1.5156839e-05 -9.9224426e-06 -2.0575024e-05 
2.7027378e-05 -1.6731561e-05 -1.7024937e-05 
4.1807154e-05 2.5650554e-06 -2.5378970e-06 
4.6165398e-05 4.9337081e-07 1.5029861e-05 
4.2343869e-05 -4.0140674e-07 2.1019914e-05 
3.4602315e-05 -2.1640733e-06 3.1058426e-05 
1.9801424e-05 -5.8355599e-06 3.4639503e-05 
6.2562708e-06 -1.6241447e-05 2.9797133e-05 
5.4446477e-06 -1.0874553e-05 1.7812003e-05 
8.4279282e-06 -7.1397417e-06 1.0134357e-05 
8.9612749e-06 -2.2529375e-06 5.9592430e-06 
2.5616707e-06 -1.7712938e-07 -1.3900293e-06 