# vtk DataFile Version 4.0
vtk output
ASCII
DATASET UNSTRUCTURED_GRID
POINTS 766 float
0.0000000e+00 0.0000000e+00 0.0000000e+00 
0.0000000e+00 0.0000000e+00 5.0000000e+01 
5.0000000e+00 0.0000000e+00 0.0000000e+00 
5.0000000e+00 0.0000000e+00 5.0000000e+01 
5.0000000e+00 1.0000000e+00 0.0000000e+00 
5.0000000e+00 1.0000000e+00 5.0000000e+01 
0.0000000e+00 1.0000000e+00 0.0000000e+00 
0.0000000e+00 1.0000000e+00 5.0000000e+01 
5.0000000e+00 2.0000000e+00 0.0000000e+00 
5.0000000e+00 2.0000000e+00 5.0000000e+01 
3.0000000e+00 2.0000000e+00 0.0000000e+00 
3.0000000e+00 2.0000000e+00 5.0000000e+01 
0.0000000e+00 2.0000000e+00 0.0000000e+00 
0.0000000e+00 2.0000000e+00 5.0000000e+01 
1.5000000e+00 3.0000000e+00 0.0000000e+00 
1.5000000e+00 3.0000000e+00 5.0000000e+01 
7.5000000e-01 3.0000000e+00 0.0000000e+00 
7.5000000e-01 3.0000000e+00 5.0000000e+01 
0.0000000e+00 3.0000000e+00 0.0000000e+00 
0.0000000e+00 3.0000000e+00 5.0000000e+01 
7.5000000e-01 3.0000000e+00 5.0000000e-01 
7.5000000e-01 3.0000000e+00 1.0000000e+00 
7.5000000e-01 3.0000000e+00 1.5000000e+00 
7.5000000e-01 3.0000000e+00 2.0000000e+00 
7.5000000e-01 3.0000000e+00 2.5000000e+00 
7.5000000e-01 3.0000000e+00 3.0000000e+00 
7.5000000e-01 3.0000000e+00 3.5000000e+00 
7.5000000e-01 3.0000000e+00 4.0000000e+00 
7.5000000e-01 3.0000000e+00 4.5000000e+00 
7.5000000e-01 3.0000000e+00 5.0000000e+00 
7.5000000e-01 3.0000000e+00 5.5000000e+00 
7.5000000e-01 3.0000000e+00 6.0000000e+00 
7.5000000e-01 3.0000000e+00 6.5000000e+00 
7.5000000e-01 3.0000000e+00 7.0000000e+00 
7.5000000e-01 3.0000000e+00 7.5000000e+00 
7.5000000e-01 3.0000000e+00 8.0000000e+00 
7.5000000e-01 3.0000000e+00 8.5000000e+00 
7.5000000e-01 3.0000000e+00 9.0000000e+00 
7.5000000e-01 3.0000000e+00 9.5000000e+00 
7.5000000e-01 3.0000000e+00 1.0000000e+01 
7.5000000e-01 3.0000000e+00 1.0500000e+01 
7.5000000e-01 3.0000000e+00 1.1000000e+01 
7.5000000e-01 3.0000000e+00 1.1500000e+01 
7.5000000e-01 3.0000000e+00 1.2000000e+01 
7.5000000e-01 3.0000000e+00 1.2500000e+01 
7.5000000e-01 3.0000000e+00 1.3000000e+01 
7.5000000e-01 3.0000000e+00 1.3500000e+01 
7.5000000e-01 3.0000000e+00 1.4000000e+01 
7.5000000e-01 3.0000000e+00 1.4500000e+01 
7.5000000e-01 3.0000000e+00 1.5000000e+01 
7.5000000e-01 3.0000000e+00 1.5500000e+01 
7.5000000e-01 3.0000000e+00 1.6000000e+01 
7.5000000e-01 3.0000000e+00 1.6500000e+01 
7.5000000e-01 3.0000000e+00 1.7000000e+01 
7.5000000e-01 3.0000000e+00 1.7500000e+01 
7.5000000e-01 3.0000000e+00 1.8000000e+01 
7.5000000e-01 3.0000000e+00 1.8500000e+01 
7.5000000e-01 3.0000000e+00 1.9000000e+01 
7.5000000e-01 3.0000000e+00 1.9500000e+01 
7.5000000e-01 3.0000000e+00 2.0000000e+01 
7.5000000e-01 3.0000000e+00 2.0500000e+01 
7.5000000e-01 3.0000000e+00 2.1000000e+01 
7.5000000e-01 3.0000000e+00 2.1500000e+01 
7.5000000e-01 3.0000000e+00 2.2000000e+01 
7.5000000e-01 3.0000000e+00 2.2500000e+01 
7.5000000e-01 3.0000000e+00 2.3000000e+01 
7.5000000e-01 3.0000000e+00 2.3500000e+01 
7.5000000e-01 3.0000000e+00 2.4000000e+01 
7.5000000e-01 3.0000000e+00 2.4500000e+01 
7.5000000e-01 3.0000000e+00 2.5000000e+01 
7.5000000e-01 3.0000000e+00 2.5500000e+01 
7.5000000e-01 3.0000000e+00 2.6000000e+01 
7.5000000e-01 3.0000000e+00 2.6500000e+01 
7.5000000e-01 3.0000000e+00 2.7000000e+01 
7.5000000e-01 3.0000000e+00 2.7500000e+01 
7.5000000e-01 3.0000000e+00 2.8000000e+01 
7.5000000e-01 3.0000000e+00 2.8500000e+01 
7.5000000e-01 3.0000000e+00 2.9000000e+01 
7.5000000e-01 3.0000000e+00 2.9500000e+01 
7.5000000e-01 3.0000000e+00 3.0000000e+01 
7.5000000e-01 3.0000000e+00 3.0500000e+01 
7.5000000e-01 3.0000000e+00 3.1000000e+01 
7.5000000e-01 3.0000000e+00 3.1500000e+01 
7.5000000e-01 3.0000000e+00 3.2000000e+01 
7.5000000e-01 3.0000000e+00 3.2500000e+01 
7.5000000e-01 3.0000000e+00 3.3000000e+01 
7.5000000e-01 3.0000000e+00 3.3500000e+01 
7.5000000e-01 3.0000000e+00 3.4000000e+01 
7.5000000e-01 3.0000000e+00 3.4500000e+01 
7.5000000e-01 3.0000000e+00 3.5000000e+01 
7.5000000e-01 3.0000000e+00 3.5500000e+01 
7.5000000e-01 3.0000000e+00 3.6000000e+01 
7.5000000e-01 3.0000000e+00 3.6500000e+01 
7.5000000e-01 3.0000000e+00 3.7000000e+01 
7.5000000e-01 3.0000000e+00 3.7500000e+01 
7.5000000e-01 3.0000000e+00 3.8000000e+01 
7.5000000e-01 3.0000000e+00 3.8500000e+01 
7.5000000e-01 3.0000000e+00 3.9000000e+01 
7.5000000e-01 3.0000000e+00 3.9500000e+01 
7.5000000e-01 3.0000000e+00 4.0000000e+01 
7.5000000e-01 3.0000000e+00 4.0500000e+01 
7.5000000e-01 3.0000000e+00 4.1000000e+01 
7.5000000e-01 3.0000000e+00 4.1500000e+01 
7.5000000e-01 3.0000000e+00 4.2000000e+01 
7.5000000e-01 3.0000000e+00 4.2500000e+01 
7.5000000e-01 3.0000000e+00 4.3000000e+01 
7.5000000e-01 3.0000000e+00 4.3500000e+01 
7.5000000e-01 3.0000000e+00 4.4000000e+01 
7.5000000e-01 3.0000000e+00 4.4500000e+01 
7.5000000e-01 3.0000000e+00 4.5000000e+01 
7.5000000e-01 3.0000000e+00 4.5500000e+01 
7.5000000e-01 3.0000000e+00 4.6000000e+01 
7.5000000e-01 3.0000000e+00 4.6500000e+01 
7.5000000e-01 3.0000000e+00 4.7000000e+01 
7.5000000e-01 3.0000000e+00 4.7500000e+01 
7.5000000e-01 3.0000000e+00 4.8000000e+01 
7.5000000e-01 3.0000000e+00 4.8500000e+01 
7.5000000e-01 3.0000000e+00 4.9000000e+01 
7.5000000e-01 3.0000000e+00 4.9500000e+01 
7.5000000e-01 3.0250001e+00 0.0000000e+00 
7.5000000e-01 3.0250001e+00 5.0000000e-01 
7.5000000e-01 3.0250001e+00 1.0000000e+00 
7.5000000e-01 3.0250001e+00 1.5000000e+00 
7.5000000e-01 3.0250001e+00 2.0000000e+00 
7.5000000e-01 3.0250001e+00 2.5000000e+00 
7.5000000e-01 3.0250001e+00 3.0000000e+00 
7.5000000e-01 3.0250001e+00 3.5000000e+00 
7.5000000e-01 3.0250001e+00 4.0000000e+00 
7.5000000e-01 3.0250001e+00 4.5000000e+00 
7.5000000e-01 3.0250001e+00 5.0000000e+00 
7.5000000e-01 3.0250001e+00 5.5000000e+00 
7.5000000e-01 3.0250001e+00 6.0000000e+00 
7.5000000e-01 3.0250001e+00 6.5000000e+00 
7.5000000e-01 3.0250001e+00 7.0000000e+00 
7.5000000e-01 3.0250001e+00 7.5000000e+00 
7.5000000e-01 3.0250001e+00 8.0000000e+00 
7.5000000e-01 3.0250001e+00 8.5000000e+00 
7.5000000e-01 3.0250001e+00 9.0000000e+00 
7.5000000e-01 3.0250001e+00 9.5000000e+00 
7.5000000e-01 3.0250001e+00 1.0000000e+01 
7.5000000e-01 3.0250001e+00 1.0500000e+01 
7.5000000e-01 3.0250001e+00 1.1000000e+01 
7.5000000e-01 3.0250001e+00 1.1500000e+01 
7.5000000e-01 3.0250001e+00 1.2000000e+01 
7.5000000e-01 3.0250001e+00 1.2500000e+01 
7.5000000e-01 3.0250001e+00 1.3000000e+01 
7.5000000e-01 3.0250001e+00 1.3500000e+01 
7.5000000e-01 3.0250001e+00 1.4000000e+01 
7.5000000e-01 3.0250001e+00 1.4500000e+01 
7.5000000e-01 3.0250001e+00 1.5000000e+01 
7.5000000e-01 3.0250001e+00 1.5500000e+01 
7.5000000e-01 3.0250001e+00 1.6000000e+01 
7.5000000e-01 3.0250001e+00 1.6500000e+01 
7.5000000e-01 3.0250001e+00 1.7000000e+01 
7.5000000e-01 3.0250001e+00 1.7500000e+01 
7.5000000e-01 3.0250001e+00 1.8000000e+01 
7.5000000e-01 3.0250001e+00 1.8500000e+01 
7.5000000e-01 3.0250001e+00 1.9000000e+01 
7.5000000e-01 3.0250001e+00 1.9500000e+01 
7.5000000e-01 3.0250001e+00 2.0000000e+01 
7.5000000e-01 3.0250001e+00 2.0500000e+01 
7.5000000e-01 3.0250001e+00 2.1000000e+01 
7.5000000e-01 3.0250001e+00 2.1500000e+01 
7.5000000e-01 3.0250001e+00 2.2000000e+01 
7.5000000e-01 3.0250001e+00 2.2500000e+01 
7.5000000e-01 3.0250001e+00 2.3000000e+01 
7.5000000e-01 3.0250001e+00 2.3500000e+01 
7.5000000e-01 3.0250001e+00 2.4000000e+01 
7.5000000e-01 3.0250001e+00 2.4500000e+01 
7.5000000e-01 3.0250001e+00 2.5000000e+01 
7.5000000e-01 3.0250001e+00 2.5500000e+01 
7.5000000e-01 3.0250001e+00 2.6000000e+01 
7.5000000e-01 3.0250001e+00 2.6500000e+01 
7.5000000e-01 3.0250001e+00 2.7000000e+01 
7.5000000e-01 3.0250001e+00 2.7500000e+01 
7.5000000e-01 3.0250001e+00 2.8000000e+01 
7.5000000e-01 3.0250001e+00 2.8500000e+01 
7.5000000e-01 3.0250001e+00 2.9000000e+01 
7.5000000e-01 3.0250001e+00 2.9500000e+01 
7.5000000e-01 3.0250001e+00 3.0000000e+01 
7.5000000e-01 3.0250001e+00 3.0500000e+01 
7.5000000e-01 3.0250001e+00 3.1000000e+01 
7.5000000e-01 3.0250001e+00 3.1500000e+01 
7.5000000e-01 3.0250001e+00 3.2000000e+01 
7.5000000e-01 3.0250001e+00 3.2500000e+01 
7.5000000e-01 3.0250001e+00 3.3000000e+01 
7.5000000e-01 3.0250001e+00 3.3500000e+01 
7.5000000e-01 3.0250001e+00 3.4000000e+01 
7.5000000e-01 3.0250001e+00 3.4500000e+01 
7.5000000e-01 3.0250001e+00 3.5000000e+01 
7.5000000e-01 3.0250001e+00 3.5500000e+01 
7.5000000e-01 3.0250001e+00 3.6000000e+01 
7.5000000e-01 3.0250001e+00 3.6500000e+01 
7.5000000e-01 3.0250001e+00 3.7000000e+01 
7.5000000e-01 3.0250001e+00 3.7500000e+01 
7.5000000e-01 3.0250001e+00 3.8000000e+01 
7.5000000e-01 3.0250001e+00 3.8500000e+01 
7.5000000e-01 3.0250001e+00 3.9000000e+01 
7.5000000e-01 3.0250001e+00 3.9500000e+01 
7.5000000e-01 3.0250001e+00 4.0000000e+01 
7.5000000e-01 3.0250001e+00 4.0500000e+01 
7.5000000e-01 3.0250001e+00 4.1000000e+01 
7.5000000e-01 3.0250001e+00 4.1500000e+01 
7.5000000e-01 3.0250001e+00 4.2000000e+01 
7.5000000e-01 3.0250001e+00 4.2500000e+01 
7.5000000e-01 3.0250001e+00 4.3000000e+01 
7.5000000e-01 3.0250001e+00 4.3500000e+01 
7.5000000e-01 3.0250001e+00 4.4000000e+01 
7.5000000e-01 3.0250001e+00 4.4500000e+01 
7.5000000e-01 3.0250001e+00 4.5000000e+01 
7.5000000e-01 3.0250001e+00 4.5500000e+01 
7.5000000e-01 3.0250001e+00 4.6000000e+01 
7.5000000e-01 3.0250001e+00 4.6500000e+01 
7.5000000e-01 3.0250001e+00 4.7000000e+01 
7.5000000e-01 3.0250001e+00 4.7500000e+01 
7.5000000e-01 3.0250001e+00 4.8000000e+01 
7.5000000e-01 3.0250001e+00 4.8500000e+01 
7.5000000e-01 3.0250001e+00 4.9000000e+01 
7.5000000e-01 3.0250001e+00 4.9500000e+01 
7.5000000e-01 3.0250001e+00 5.0000000e+01 
3.0000000e+00 2.0000000e+00 3.6000000e+01 
8.0487806e-01 3.0000000e+00 3.6000000e+01 
0.0000000e+00 0.0000000e+00 2.0000000e+00 
0.0000000e+00 0.0000000e+00 4.0000000e+00 
0.0000000e+00 0.0000000e+00 6.0000000e+00 
0.0000000e+00 0.0000000e+00 8.0000000e+00 
0.0000000e+00 0.0000000e+00 1.0000000e+01 
0.0000000e+00 0.0000000e+00 1.2000000e+01 
0.0000000e+00 0.0000000e+00 1.4000000e+01 
0.0000000e+00 0.0000000e+00 1.6000000e+01 
[...]
POINT_DATA 766
FIELD FieldData 3
DISPLACEMENT 3 766  float
0.0000000e+00 0.0000000e+00 0.0000000e+00 
0.0000000e+00 0.0000000e+00 0.0000000e+00 
0.0000000e+00 0.0000000e+00 0.0000000e+00 
0.0000000e+00 0.0000000e+00 0.0000000e+00 
-1.5862676e-06 7.4738023e-07 3.7619458e-08 
2.2623137e-06 3.2064480e-07 2.4187218e-06 
0.0000000e+00 1.6229746e-05 0.0000000e+00 
0.0000000e+00 2.5221954e-05 0.0000000e+00 
-2.8859670e-06 1.6820968e-06 5.3651053e-07 
3.6210215e-06 -4.8765764e-07 -1.5735084e-06 
-5.7742216e-07 2.2572701e-06 6.7006945e-06 
1.2118830e-06 6.6941548e-06 5.0990097e-06 
0.0000000e+00 2.3139411e-05 0.0000000e+00 
0.0000000e+00 5.7796773e-05 0.0000000e+00 
6.7317842e-06 1.1588252e-05 2.5877947e-05 
2.2091668e-05 5.2330812e-05 -2.0696094e-05 
2.4179624e-05 -2.9288803e-05 2.1997583e-05 
2.6702035e-05 2.1584077e-05 -7.9014326e-06 
0.0000000e+00 2.3313461e-05 0.0000000e+00 
0.0000000e+00 1.0409104e-04 0.0000000e+00 
1.4663031e-05 -3.0318741e-05 2.8627319e-05 
-4.1596495e-06 -3.7142432e-05 2.5609283e-05 
4.3614045e-06 -5.7285892e-05 3.2386146e-05 
-2.0079967e-06 -7.8715835e-05 3.2222673e-05 
5.0410786e-06 -9.0592424e-05 1.9367861e-05 
-1.5190249e-05 -8.6516447e-05 1.2467383e-05 
2.6291486e-06 -7.4679476e-05 -1.4196006e-05 
-1.0801704e-05 -6.5354012e-05 -2.6203847e-05 
-9.5914647e-06 -6.2111038e-05 -3.5530578e-05 
-2.0184680e-05 -5.6175049e-05 -3.3947723e-05 
-1.4773469e-05 -3.2465043e-05 -2.6181811e-05 
-2.0618256e-05 -7.2714251e-06 -3.8335282e-05 
-2.5652549e-05 8.2482193e-06 -4.5131303e-05 
-6.5064678e-06 1.5553978e-05 -2.3170902e-05 
-3.3016207e-05 2.2343680e-05 -3.4239853e-05 
6.4711776e-06 3.4242970e-05 -3.4927933e-05 
1.1280355e-05 4.8826252e-05 1.1607078e-06 
2.0999863e-05 5.5541339e-05 -1.4990231e-05 
3.4251836e-05 3.7302339e-05 -3.1177486e-05 
3.1590891e-05 3.9807244e-05 1.0686631e-05 
4.6575220e-05 8.0652593e-05 -1.1267404e-05 
1.9942685e-05 1.2275479e-04 -1.1323050e-05 
4.8918340e-05 1.2725724e-04 5.5519511e-05 
-1.3659127e-06 3.7926988e-05 5.0382841e-05 
-5.1998228e-05 -1.6115101e-04 9.8224642e-05 
-1.3189626e-05 -4.5003658e-04 1.4491368e-04 
-8.6903434e-05 -8.5418054e-04 1.9000360e-04 
-1.1237231e-04 -1.4716197e-03 1.4639938e-04 
-2.8327949e-04 -2.3947698e-03 2.1679832e-04 
-3.1353696e-04 -3.4671037e-03 2.1539602e-04 
-2.1087634e-04 -4.3423269e-03 1.4430321e-04 
-1.6498056e-04 -4.3723509e-03 1.4043399e-04 
-2.7301727e-04 -4.0941932e-03 6.6268964e-05 
-3.7208828e-04 -3.9521516e-03 6.0349455e-05 
-2.5292477e-04 -4.1379677e-03 3.2708405e-05 
-9.3722047e-05 -4.1674403e-03 -1.0918100e-05 
-1.2796700e-04 -3.5362968e-03 -1.0137505e-04 
-2.2681910e-04 -2.5555587e-03 -1.5101090e-04 
-2.0313398e-04 -1.6649842e-03 -1.6093816e-04 
-5.9344529e-05 -9.7146514e-04 -1.0073549e-04 
-3.2680167e-05 -5.3633726e-04 -1.3123394e-04 
-3.9205093e-05 -2.8685830e-04 -1.0659011e-04 
-2.8024162e-05 -1.5059035e-04 -8.6266664e-05 
-2.1870410e-05 -8.7266097e-05 -6.7653447e-05 
-3.1839332e-05 -7.7461278e-05 -5.7807800e-05 
-3.6239639e-05 -8.4064261e-05 -6.0758823e-05 
-3.0033043e-05 -7.3835203e-05 -5.5504221e-05 
-2.8071177e-05 -6.2359803e-05 -6.3052132e-05 
-3.5143428e-05 -7.5222124e-05 -7.8253055e-05 
-3.7017791e-05 -1.1382315e-04 -4.8583297e-05 
-4.2288626e-05 -1.5127762e-04 -3.2620632e-05 
-2.6886784e-05 -1.7005569e-04 -5.3087493e-05 
-4.5343379e-05 -1.5950596e-04 -4.0183520e-05 
-4.1871888e-05 -1.3469066e-04 -4.7003919e-05 
-4.3180687e-05 -1.2011392e-04 -8.5017287e-05 
5.7072298e-06 -9.1103670e-05 -6.0816030e-05 
2.5308969e-05 -3.4991757e-05 -3.8994120e-05 
1.5973728e-05 2.9306611e-05 -4.7435442e-05 
6.0815004e-05 7.1535542e-05 -3.0736795e-05 
3.8497215e-05 1.0132664e-04 3.6501465e-06 
6.1834093e-05 1.4268330e-04 -7.0762635e-06 
7.6415374e-05 2.0542291e-04 2.7437547e-05 
5.5965887e-05 2.8037356e-04 7.4202013e-05 
4.3076539e-05 2.5952779e-04 6.0951454e-05 
-2.5490903e-05 7.6458120e-05 9.8516801e-05 
-1.2203063e-05 -2.4747587e-04 1.2455785e-04 
-1.0023256e-04 -7.2042010e-04 1.5132179e-04 
-1.2643111e-04 -1.3565138e-03 1.1946526e-04 
-2.0745002e-04 -2.2037697e-03 1.9665663e-04 
-2.2387273e-04 -3.1587956e-03 2.0486742e-04 
-1.1146526e-04 -3.9759856e-03 9.9786426e-05 
-3.8446166e-04 -4.0436760e-03 1.3269213e-04 
-2.2061345e-04 -3.7941088e-03 1.6125277e-04 
-2.7556685e-04 -3.6944859e-03 8.2086197e-05 
-1.7271868e-04 -3.9326744e-03 3.4482120e-05 
-2.1983315e-05 -3.9656698e-03 8.5660458e-06 
-7.4130963e-05 -3.3008757e-03 -1.0017337e-04 
-1.6213015e-04 -2.3159401e-03 -1.4480062e-04 
-1.6700085e-04 -1.4647638e-03 -1.3831828e-04 
-7.0290524e-05 -8.2184502e-04 -7.9513768e-05 
-3.9065741e-05 -3.9834424e-04 -1.2040803e-04 
-3.5537232e-05 -1.2504746e-04 -9.7139688e-05 
-2.7753180e-05 4.4160435e-05 -8.7686873e-05 
-9.0889216e-06 1.3568316e-04 -8.0474951e-05 
2.4021472e-06 1.6889173e-04 -7.3067422e-05 
1.1711144e-05 1.7479068e-04 -6.3902895e-05 
1.7752149e-05 1.7218693e-04 -6.7551700e-05 
2.5891504e-05 1.5679646e-04 -7.1781345e-05 
2.6940797e-05 1.1769044e-04 -4.7108384e-05 
3.0151732e-05 6.2977393e-05 -2.1835742e-05 
1.6275599e-05 6.2057361e-06 1.5864912e-06 
-4.4223798e-06 -4.4602177e-05 1.8946594e-05 
-1.1627282e-05 -8.7076631e-05 2.6528016e-05 
-1.7612027e-05 -1.1735235e-04 2.1658347e-05 
-1.5410851e-05 -1.2581234e-04 1.2083589e-05 
-1.1368344e-05 -1.0673303e-04 -1.8263316e-06 
-4.2701417e-06 -6.8042929e-05 -1.3568584e-05 
1.9714878e-06 -2.4755556e-05 -1.9453169e-05 
8.9096193e-06 9.2570526e-06 -1.9918878e-05 
0.0000000e+00 -2.8783244e-05 0.0000000e+00 
0.0000000e+00 -3.0132533e-05 0.0000000e+00 
0.0000000e+00 -3.8359030e-05 0.0000000e+00 
0.0000000e+00 -5.7638044e-05 0.0000000e+00 
0.0000000e+00 -7.8681522e-05 0.0000000e+00 
0.0000000e+00 -8.9721412e-05 0.0000000e+00 
0.0000000e+00 -8.5986430e-05 0.0000000e+00 
0.0000000e+00 -7.4879557e-05 0.0000000e+00 
0.0000000e+00 -6.6283312e-05 0.0000000e+00 
0.0000000e+00 -6.2666986e-05 0.0000000e+00 
0.0000000e+00 -5.4596243e-05 0.0000000e+00 
0.0000000e+00 -3.2606571e-05 0.0000000e+00 
0.0000000e+00 -7.7157692e-06 0.0000000e+00 
0.0000000e+00 8.0233422e-06 0.0000000e+00 
0.0000000e+00 1.5247873e-05 0.0000000e+00 
0.0000000e+00 2.2800901e-05 0.0000000e+00 
0.0000000e+00 3.5099700e-05 0.0000000e+00 
0.0000000e+00 4.9203882e-05 0.0000000e+00 
0.0000000e+00 5.2265870e-05 0.0000000e+00 
0.0000000e+00 3.8223727e-05 0.0000000e+00 
0.0000000e+00 4.2259024e-05 0.0000000e+00 
0.0000000e+00 8.1229497e-05 0.0000000e+00 
0.0000000e+00 1.2476713e-04 0.0000000e+00 
0.0000000e+00 1.2517185e-04 0.0000000e+00 
0.0000000e+00 3.5146459e-05 0.0000000e+00 
0.0000000e+00 -1.5931345e-04 0.0000000e+00 
0.0000000e+00 -4.4637450e-04 0.0000000e+00 
0.0000000e+00 -8.5386878e-04 0.0000000e+00 
0.0000000e+00 -1.4821914e-03 0.0000000e+00 
0.0000000e+00 -2.4052348e-03 0.0000000e+00 
0.0000000e+00 -3.5042285e-03 0.0000000e+00 
0.0000000e+00 -4.3648309e-03 0.0000000e+00 
0.0000000e+00 -4.3987837e-03 0.0000000e+00 
0.0000000e+00 -4.1082194e-03 0.0000000e+00 
0.0000000e+00 -3.9858818e-03 0.0000000e+00 
0.0000000e+00 -4.1594571e-03 0.0000000e+00 
0.0000000e+00 -4.2004087e-03 0.0000000e+00 
0.0000000e+00 -3.5521546e-03 0.0000000e+00 
0.0000000e+00 -2.5734839e-03 0.0000000e+00 
0.0000000e+00 -1.6679664e-03 0.0000000e+00 
0.0000000e+00 -9.7718893e-04 0.0000000e+00 
0.0000000e+00 -5.3570996e-04 0.0000000e+00 
0.0000000e+00 -2.8460709e-04 0.0000000e+00 
0.0000000e+00 -1.4983598e-04 0.0000000e+00 
0.0000000e+00 -8.8754998e-05 0.0000000e+00 
0.0000000e+00 -7.7249038e-05 0.0000000e+00 
0.0000000e+00 -8.1124694e-05 0.0000000e+00 
0.0000000e+00 -7.3159703e-05 0.0000000e+00 
0.0000000e+00 -6.3863117e-05 0.0000000e+00 
0.0000000e+00 -7.6791308e-05 0.0000000e+00 
0.0000000e+00 -1.1352066e-04 0.0000000e+00 
0.0000000e+00 -1.5080569e-04 0.0000000e+00 
0.0000000e+00 -1.6854377e-04 0.0000000e+00 
0.0000000e+00 -1.5910360e-04 0.0000000e+00 
0.0000000e+00 -1.3746771e-04 0.0000000e+00 
0.0000000e+00 -1.1961567e-04 0.0000000e+00 
0.0000000e+00 -8.9428519e-05 0.0000000e+00 
0.0000000e+00 -3.4440025e-05 0.0000000e+00 
0.0000000e+00 2.7771788e-05 0.0000000e+00 
0.0000000e+00 7.0511851e-05 0.0000000e+00 
0.0000000e+00 1.0122868e-04 0.0000000e+00 
0.0000000e+00 1.4372067e-04 0.0000000e+00 
0.0000000e+00 2.1114535e-04 0.0000000e+00 
0.0000000e+00 2.7915675e-04 0.0000000e+00 
0.0000000e+00 2.5525104e-04 0.0000000e+00 
0.0000000e+00 7.7179444e-05 0.0000000e+00 
0.0000000e+00 -2.4818970e-04 0.0000000e+00 
0.0000000e+00 -7.1871345e-04 0.0000000e+00 
0.0000000e+00 -1.3617708e-03 0.0000000e+00 
0.0000000e+00 -2.2121298e-03 0.0000000e+00 
0.0000000e+00 -3.2016346e-03 0.0000000e+00 
0.0000000e+00 -4.0049390e-03 0.0000000e+00 
0.0000000e+00 -4.0609241e-03 0.0000000e+00 
0.0000000e+00 -3.8088916e-03 0.0000000e+00 
0.0000000e+00 -3.7321413e-03 0.0000000e+00 
0.0000000e+00 -3.9529968e-03 0.0000000e+00 
0.0000000e+00 -3.9984845e-03 0.0000000e+00 
0.0000000e+00 -3.3180788e-03 0.0000000e+00 
0.0000000e+00 -2.3348893e-03 0.0000000e+00 
0.0000000e+00 -1.4676265e-03 0.0000000e+00 
0.0000000e+00 -8.2464807e-04 0.0000000e+00 
0.0000000e+00 -3.9719397e-04 0.0000000e+00 
0.0000000e+00 -1.2424400e-04 0.0000000e+00 
0.0000000e+00 4.4422792e-05 0.0000000e+00 
0.0000000e+00 1.3546871e-04 0.0000000e+00 
0.0000000e+00 1.6975348e-04 0.0000000e+00 
0.0000000e+00 1.7589347e-04 0.0000000e+00 
0.0000000e+00 1.7234570e-04 0.0000000e+00 
0.0000000e+00 1.5580571e-04 0.0000000e+00 
0.0000000e+00 1.1754249e-04 0.0000000e+00 
0.0000000e+00 6.3394189e-05 0.0000000e+00 
0.0000000e+00 6.4654664e-06 0.0000000e+00 
0.0000000e+00 -4.4804019e-05 0.0000000e+00 
0.0000000e+00 -8.7407985e-05 0.0000000e+00 
0.0000000e+00 -1.1707405e-04 0.0000000e+00 
0.0000000e+00 -1.2508637e-04 0.0000000e+00 
0.0000000e+00 -1.0644077e-04 0.0000000e+00 
0.0000000e+00 -6.8165093e-05 0.0000000e+00 
0.0000000e+00 -2.4848898e-05 0.0000000e+00 
0.0000000e+00 8.8267125e-06 0.0000000e+00 
0.0000000e+00 2.1381518e-05 0.0000000e+00 
8.4318526e-05 -9.2719143e-05 6.5549630e-06 
-2.3310269e-04 -3.6971092e-03 1.6198526e-04 
0.0000000e+00 0.0000000e+00 0.0000000e+00 
0.0000000e+00 0.0000000e+00 0.0000000e+00 
0.0000000e+00 0.0000000e+00 0.0000000e+00 
0.0000000e+00 0.0000000e+00 0.0000000e+00 
0.0000000e+00 0.0000000e+00 0.0000000e+00 
0.0000000e+00 0.0000000e+00 0.0000000e+00 
0.0000000e+00 0.0000000e+00 0.0000000e+00 
0.0000000e+00 0.0000000e+00 0.0000000e+00 
0.0000000e+00 0.0000000e+00 0.0000000e+00 
0.0000000e+00 0.0000000e+00 0.0000000e+00 
0.0000000e+00 0.0000000e+00 0.0000000e+00 
0.0000000e+00 0.0000000e+00 0.0000000e+00 
0.0000000e+00 0.0000000e+00 0.0000000e+00 
0.0000000e+00 0.0000000e+00 0.0000000e+00 
0.0000000e+00 0.0000000e+00 0.0000000e+00 
0.0000000e+00 0.0000000e+00 0.0000000e+00 
0.0000000e+00 0.0000000e+00 0.0000000e+00 
0.0000000e+00 0.0000000e+00 0.0000000e+00 
0.0000000e+00 0.0000000e+00 0.0000000e+00 
0.0000000e+00 0.0000000e+00 0.0000000e+00 
0.0000000e+00 0.0000000e+00 0.0000000e+00 
0.0000000e+00 0.0000000e+00 0.0000000e+00 
0.0000000e+00 0.0000000e+00 0.0000000e+00 
0.0000000e+00 0.0000000e+00 0.0000000e+00 
0.0000000e+00 0.0000000e+00 0.0000000e+00 
0.0000000e+00 0.0000000e+00 0.0000000e+00 
0.0000000e+00 0.0000000e+00 0.0000000e+00 
0.0000000e+00 0.0000000e+00 0.0000000e+00 
0.0000000e+00 0.0000000e+00 0.0000000e+00 
0.0000000e+00 0.0000000e+00 0.0000000e+00 
0.0000000e+00 0.0000000e+00 0.0000000e+00 
0.0000000e+00 0.0000000e+00 0.0000000e+00 
0.0000000e+00 0.0000000e+00 0.0000000e+00 
0.0000000e+00 0.0000000e+00 0.0000000e+00 
0.0000000e+00 0.0000000e+00 0.0000000e+00 
0.0000000e+00 0.0000000e+00 0.0000000e+00 
0.0000000e+00 0.0000000e+00 0.0000000e+00 
0.0000000e+00 0.0000000e+00 0.0000000e+00 
0.0000000e+00 0.0000000e+00 0.0000000e+00 
0.0000000e+00 0.0000000e+00 0.0000000e+00 
0.0000000e+00 0.0000000e+00 0.0000000e+00 
0.0000000e+00 0.0000000e+00 0.0000000e+00 
0.0000000e+00 0.0000000e+00 0.0000000e+00 
0.0000000e+00 0.0000000e+00 0.0000000e+00 
0.0000000e+00 0.0000000e+00 0.0000000e+00 
0.0000000e+00 0.0000000e+00 0.0000000e+00 
0.0000000e+00 0.0000000e+00 0.0000000e+00 
0.0000000e+00 0.0000000e+00 0.0000000e+00 
0.0000000e+00 0.0000000e+00 0.0000000e+00 
0.0000000e+00 0.0000000e+00 0.0000000e+00 
0.0000000e+00 0.0000000e+00 0.0000000e+00 
0.0000000e+00 0.0000000e+00 0.0000000e+00 
3.4438517e-06 -1.9132717e-06 -2.5889501e-06 
1.6919113e-06 -5.4309899e-06 -1.0487212e-06 
-6.7696928e-06 -1.2308509e-06 4.2410102e-06 
-5.6035797e-06 2.9498528e-06 2.4749707e-07 
-1.6795538e-07 4.6632913e-06 -5.0016988e-06 
1.7776178e-05 4.7869939e-06 -7.5355820e-06 
4.2124062e-05 -1.4975917e-06 -1.2259996e-05 
5.7183799e-05 -5.2831574e-06 -8.1522958e-06 
4.8327245e-05 -6.4951978e-06 8.2067681e-06 
2.2989419e-05 -8.5580878e-06 4.2758334e-06 
9.3140025e-06 -6.5677282e-06 -2.4244155e-06 
3.7977309e-06 -1.5467259e-07 -2.8841490e-07 
-6.1454483e-07 -7.8050596e-07 8.6295595e-06 
-6.2582203e-06 4.3179548e-06 4.8226898e-06 
-2.0724631e-06 7.3228584e-06 4.4710323e-06 
1.2129040e-05 2.3116527e-06 2.4238579e-06 
3.2330310e-05 -1.0022208e-05 -1.2174327e-05 
5.2599891e-05 -1.5299169e-05 -2.2921019e-07 
4.6257650e-05 -1.2180225e-05 1.6935104e-05 
1.9576677e-05 -3.7500149e-06 8.3064151e-06 
2.2125066e-06 2.3780251e-06 -2.6622695e-06 
-1.8933578e-06 2.1225560e-06 -5.2780474e-06 
-2.2118536e-07 -1.0545914e-06 -6.0792196e-08 
8.6458527e-07 -3.7908942e-06 5.0824597e-06 
0.0000000e+00 -1.1857638e-05 0.0000000e+00 
0.0000000e+00 -2.1018815e-05 0.0000000e+00 
0.0000000e+00 -4.0418927e-05 0.0000000e+00 
0.0000000e+00 3.2880137e-06 0.0000000e+00 
0.0000000e+00 7.7696241e-05 0.0000000e+00 
0.0000000e+00 -6.7386732e-06 0.0000000e+00 
0.0000000e+00 -2.1810173e-04 0.0000000e+00 
0.0000000e+00 -5.6291744e-04 0.0000000e+00 
0.0000000e+00 -5.5378472e-04 0.0000000e+00 
0.0000000e+00 -1.9023244e-04 0.0000000e+00 
0.0000000e+00 -6.1379673e-05 0.0000000e+00 
0.0000000e+00 -4.4518183e-05 0.0000000e+00 
0.0000000e+00 -8.0083708e-05 0.0000000e+00 
0.0000000e+00 3.2120413e-05 0.0000000e+00 
0.0000000e+00 7.5870914e-05 0.0000000e+00 
0.0000000e+00 -3.6769720e-07 0.0000000e+00 
0.0000000e+00 -1.7230127e-04 0.0000000e+00 
0.0000000e+00 -5.8218639e-04 0.0000000e+00 
0.0000000e+00 -4.9675145e-04 0.0000000e+00 
0.0000000e+00 -1.5909501e-04 0.0000000e+00 
0.0000000e+00 2.5510515e-05 0.0000000e+00 
0.0000000e+00 4.9225149e-05 0.0000000e+00 
0.0000000e+00 -1.8324348e-05 0.0000000e+00 
0.0000000e+00 -4.0693492e-05 0.0000000e+00 
-1.2142932e-06 1.2298408e-06 7.2262839e-07 
-3.9286415e-06 7.0880606e-06 -1.7602720e-07 
1.1063483e-06 -1.0805530e-07 8.6604678e-06 
-3.5809810e-06 1.1495547e-05 1.2283705e-05 
1.1136211e-06 -1.5793938e-06 6.2712553e-07 
-1.6460974e-06 -8.3168943e-06 -8.6202743e-07 
-1.0068286e-05 -4.0934306e-06 5.6960147e-07 
-7.3240608e-06 8.2018551e-06 1.2645281e-06 
1.3018579e-06 8.0221525e-06 -8.0734480e-06 
2.2550137e-05 4.6179071e-06 -1.0482293e-05 
3.9170529e-05 3.0441987e-07 -1.6884793e-06 
3.2732209e-05 -3.0137476e-06 2.4670896e-07 
1.7423461e-05 -1.5345269e-06 7.9422462e-06 
-1.1396353e-06 -2.5709282e-06 2.6169496e-06 
-3.5699286e-06 -6.2366998e-06 -1.0703942e-05 
-9.8215760e-06 -2.2772549e-06 -2.6968280e-06 
-1.4140104e-05 -3.1932068e-06 8.6174332e-06 
-6.6691409e-06 9.0559070e-06 -1.4903871e-06 
-2.1428511e-07 1.2381877e-05 2.7225033e-06 
2.0406575e-05 8.0027058e-07 1.4369671e-06 
3.4806879e-05 -8.4399226e-06 -2.1948667e-06 
4.5925124e-05 -1.5617627e-05 7.1412805e-06 
2.8462870e-05 -9.8125147e-06 1.8575594e-05 
6.1771584e-06 2.3258547e-06 2.8792678e-07 
3.1388008e-06 3.5102005e-06 -5.0406175e-06 
-1.2173194e-06 5.6920226e-07 -3.1727971e-06 
-4.5135439e-06 -2.6500620e-06 3.9485608e-06 
-3.4676127e-06 -3.9867255e-06 3.9430915e-06 
-3.1225500e-07 6.4327382e-06 5.7036495e-06 
0.0000000e+00 -3.5745645e-05 0.0000000e+00 
0.0000000e+00 -5.6062214e-05 0.0000000e+00 
0.0000000e+00 -1.2542775e-05 0.0000000e+00 
0.0000000e+00 2.7108640e-06 0.0000000e+00 
0.0000000e+00 1.9034456e-05 0.0000000e+00 
0.0000000e+00 1.0904446e-04 0.0000000e+00 
0.0000000e+00 -4.8871647e-04 0.0000000e+00 
0.0000000e+00 -1.3002745e-03 0.0000000e+00 
0.0000000e+00 -1.1949145e-03 0.0000000e+00 
0.0000000e+00 -3.8864231e-04 0.0000000e+00 
0.0000000e+00 -1.0565779e-04 0.0000000e+00 
0.0000000e+00 -5.8864618e-05 0.0000000e+00 
0.0000000e+00 -9.6296259e-05 0.0000000e+00 
0.0000000e+00 -3.6249934e-05 0.0000000e+00 
0.0000000e+00 1.2582666e-04 0.0000000e+00 
0.0000000e+00 1.4800509e-04 0.0000000e+00 
0.0000000e+00 -4.6875727e-04 0.0000000e+00 
0.0000000e+00 -1.2793004e-03 0.0000000e+00 
0.0000000e+00 -1.0789911e-03 0.0000000e+00 
0.0000000e+00 -3.0962794e-04 0.0000000e+00 
0.0000000e+00 5.3036016e-05 0.0000000e+00 
0.0000000e+00 9.4685616e-05 0.0000000e+00 
0.0000000e+00 -3.0701791e-05 0.0000000e+00 
0.0000000e+00 -7.9098863e-05 0.0000000e+00 
-4.3743066e-06 1.6933904e-05 1.0045156e-05 
-6.0514062e-06 -5.6423225e-05 2.3760986e-05 
-1.9900568e-05 -4.4512133e-05 -4.2500193e-05 
-1.8557064e-05 1.5637566e-05 -3.9659004e-05 
-4.2476463e-06 3.2900414e-05 -2.8915350e-05 
5.2896685e-05 2.4951871e-05 2.2228998e-05 
2.1305128e-05 2.4415993e-05 1.1204071e-04 
-3.0187951e-04 -5.2519626e-04 3.2699114e-04 
-7.3527696e-04 -1.4153842e-03 1.1925715e-04 
-6.0985464e-04 -1.4089892e-03 -8.4587497e-05 
-1.4879656e-04 -2.9381513e-04 -2.0529977e-04 
-2.1691258e-05 -4.2846132e-05 -7.8999699e-05 
-3.6811329e-05 -2.5286085e-05 -5.1782041e-05 
-4.5544177e-05 -7.6460266e-05 -1.2409184e-05 
-1.1281021e-05 -3.8991555e-05 -7.2789859e-05 
8.1617967e-05 4.8636994e-05 -3.9764433e-05 
5.4180502e-05 1.5537937e-04 1.0741819e-04 
-2.7902672e-04 -6.4995605e-04 3.1714950e-04 
-6.5481861e-04 -2.0340006e-03 1.7507290e-04 
-5.3576729e-04 -1.5060444e-03 -7.5545926e-05 
-1.4498325e-04 -2.6062501e-04 -1.9420436e-04 
3.6068318e-06 7.4686686e-05 -1.1332532e-04 
4.5026052e-05 9.8645098e-05 -7.6688848e-05 
-1.0995456e-05 -3.6009154e-05 5.1638926e-05 
-1.9821338e-05 -8.6174798e-05 2.8751128e-06 
0.0000000e+00 -7.5584780e-05 0.0000000e+00 
0.0000000e+00 -3.7199276e-05 0.0000000e+00 
0.0000000e+00 -2.8529514e-05 0.0000000e+00 
0.0000000e+00 -6.6151981e-05 0.0000000e+00 
0.0000000e+00 6.7131135e-05 0.0000000e+00 
0.0000000e+00 1.8452056e-04 0.0000000e+00 
0.0000000e+00 -8.8951160e-04 0.0000000e+00 
0.0000000e+00 -2.4705091e-03 0.0000000e+00 
0.0000000e+00 -2.2837445e-03 0.0000000e+00 
0.0000000e+00 -6.5835880e-04 0.0000000e+00 
0.0000000e+00 -1.2361624e-04 0.0000000e+00 
0.0000000e+00 -2.5078656e-05 0.0000000e+00 
0.0000000e+00 -2.1163079e-04 0.0000000e+00 
0.0000000e+00 -1.1628416e-04 0.0000000e+00 
0.0000000e+00 1.9125863e-04 0.0000000e+00 
0.0000000e+00 2.3550655e-04 0.0000000e+00 
0.0000000e+00 -8.2928903e-04 0.0000000e+00 
0.0000000e+00 -2.3904270e-03 0.0000000e+00 
0.0000000e+00 -2.0676889e-03 0.0000000e+00 
0.0000000e+00 -5.1429344e-04 0.0000000e+00 
0.0000000e+00 1.1754702e-04 0.0000000e+00 
0.0000000e+00 1.4293360e-04 0.0000000e+00 
0.0000000e+00 -5.0712566e-05 0.0000000e+00 
0.0000000e+00 -1.2051491e-04 0.0000000e+00 
4.8915376e-06 -1.6440104e-05 -1.3606092e-07 
-5.1136612e-06 -1.9345587e-05 -2.4357928e-06 
-1.0830446e-05 -2.8597199e-06 -4.1892554e-06 
-6.0849948e-06 3.4681673e-06 -1.1241291e-05 
1.0370204e-05 1.6550151e-05 -1.0095368e-07 
2.7278968e-05 2.8494673e-05 2.1288322e-05 
5.4971952e-05 -6.7412308e-05 1.4617768e-05 
4.4628829e-05 -1.2611179e-04 3.3491069e-06 
4.0658484e-05 -1.2956202e-04 1.6353864e-05 
3.1329888e-05 -8.2592291e-05 9.9201297e-06 
-8.5976544e-06 -2.7240283e-05 -2.1967879e-05 
-1.0953573e-05 -3.0706495e-05 -2.0650492e-05 
-2.1162456e-05 -3.5746067e-05 -1.0788925e-05 
-1.1430016e-05 -7.7561344e-06 -1.3141958e-05 
9.8637565e-06 2.7294282e-05 5.1151319e-06 
1.5162944e-05 4.0775576e-05 3.5894413e-05 
3.8866077e-05 -4.9324553e-05 2.4776464e-05 
4.1203053e-05 -9.4534829e-05 2.2953651e-05 
3.2029864e-05 -6.0365768e-05 1.6286034e-05 
5.0753016e-07 1.9601826e-05 -2.3720593e-05 
-1.3459988e-06 1.8093568e-05 -2.1727083e-05 
-5.6719414e-06 -1.1384326e-05 -2.9490188e-06 
-7.1637833e-06 -2.3934768e-05 9.4712814e-06 
-9.9124387e-05 -1.1954618e-03 6.8070156e-05 
0.0000000e+00 0.0000000e+00 0.0000000e+00 
0.0000000e+00 0.0000000e+00 0.0000000e+00 
0.0000000e+00 0.0000000e+00 0.0000000e+00 
0.0000000e+00 0.0000000e+00 0.0000000e+00 