# vtk DataFile Version 4.0
vtk output
ASCII
DATASET UNSTRUCTURED_GRID
POINTS 1919 float
0.0000000e+00 0.0000000e+00 0.0000000e+00 
0.0000000e+00 0.0000000e+00 5.0000000e+01 
5.0000000e+00 0.0000000e+00 0.0000000e+00 
5.0000000e+00 0.0000000e+00 5.0000000e+01 
5.0000000e+00 1.0000000e+00 0.0000000e+00 
5.0000000e+00 1.0000000e+00 5.0000000e+01 
0.0000000e+00 1.0000000e+00 0.0000000e+00 
0.0000000e+00 1.0000000e+00 5.0000000e+01 
5.0000000e+00 2.0000000e+00 0.0000000e+00 
5.0000000e+00 2.0000000e+00 5.0000000e+01 
3.0000000e+00 2.0000000e+00 0.0000000e+00 
3.0000000e+00 2.0000000e+00 5.0000000e+01 
0.0000000e+00 2.0000000e+00 0.0000000e+00 
0.0000000e+00 2.0000000e+00 5.0000000e+01 
1.5000000e+00 3.0000000e+00 0.0000000e+00 
1.5000000e+00 3.0000000e+00 5.0000000e+01 
7.5000000e-01 3.0000000e+00 0.0000000e+00 
7.5000000e-01 3.0000000e+00 5.0000000e+01 
0.0000000e+00 3.0000000e+00 0.0000000e+00 
0.0000000e+00 3.0000000e+00 5.0000000e+01 
7.5000000e-01 3.0000000e+00 5.0000000e-01 
7.5000000e-01 3.0000000e+00 1.0000000e+00 
7.5000000e-01 3.0000000e+00 1.5000000e+00 
7.5000000e-01 3.0000000e+00 2.0000000e+00 
7.5000000e-01 3.0000000e+00 2.5000000e+00 
7.5000000e-01 3.0000000e+00 3.0000000e+00 
7.5000000e-01 3.0000000e+00 3.5000000e+00 
7.5000000e-01 3.0000000e+00 4.0000000e+00 
7.5000000e-01 3.0000000e+00 4.5000000e+00 
7.5000000e-01 3.0000000e+00 5.0000000e+00 
7.5000000e-01 3.0000000e+00 5.5000000e+00 
7.5000000e-01 3.0000000e+00 6.0000000e+00 
7.5000000e-01 3.0000000e+00 6.5000000e+00 
7.5000000e-01 3.0000000e+00 7.0000000e+00 
7.5000000e-01 3.0000000e+00 7.5000000e+00 
7.5000000e-01 3.0000000e+00 8.0000000e+00 
7.5000000e-01 3.0000000e+00 8.5000000e+00 
7.5000000e-01 3.0000000e+00 9.0000000e+00 
7.5000000e-01 3.0000000e+00 9.5000000e+00 
7.5000000e-01 3.0000000e+00 1.0000000e+01 
7.5000000e-01 3.0000000e+00 1.0500000e+01 
7.5000000e-01 3.0000000e+00 1.1000000e+01 
7.5000000e-01 3.0000000e+00 1.1500000e+01 
7.5000000e-01 3.0000000e+00 1.2000000e+01 
7.5000000e-01 3.0000000e+00 1.2500000e+01 
7.5000000e-01 3.0000000e+00 1.3000000e+01 
7.5000000e-01 3.0000000e+00 1.3500000e+01 
7.5000000e-01 3.0000000e+00 1.4000000e+01 
7.5000000e-01 3.0000000e+00 1.4500000e+01 
7.5000000e-01 3.0000000e+00 1.5000000e+01 
7.5000000e-01 3.0000000e+00 1.5500000e+01 
7.5000000e-01 3.0000000e+00 1.6000000e+01 
7.5000000e-01 3.0000000e+00 1.6500000e+01 
7.5000000e-01 3.0000000e+00 1.7000000e+01 
7.5000000e-01 3.0000000e+00 1.7500000e+01 
7.5000000e-01 3.0000000e+00 1.8000000e+01 
7.5000000e-01 3.0000000e+00 1.8500000e+01 
7.5000000e-01 3.0000000e+00 1.9000000e+01 
7.5000000e-01 3.0000000e+00 1.9500000e+01 
7.5000000e-01 3.0000000e+00 2.0000000e+01 
7.5000000e-01 3.0000000e+00 2.0500000e+01 
7.5000000e-01 3.0000000e+00 2.1000000e+01 
7.5000000e-01 3.0000000e+00 2.1500000e+01 
7.5000000e-01 3.0000000e+00 2.2000000e+01 
7.5000000e-01 3.0000000e+00 2.2500000e+01 
7.5000000e-01 3.0000000e+00 2.3000000e+01 
7.5000000e-01 3.0000000e+00 2.3500000e+01 
7.5000000e-01 3.0000000e+00 2.4000000e+01 
7.5000000e-01 3.0000000e+00 2.4500000e+01 
7.5000000e-01 3.0000000e+00 2.5000000e+01 
7.5000000e-01 3.0000000e+00 2.5500000e+01 
7.5000000e-01 3.0000000e+00 2.6000000e+01 
7.5000000e-01 3.0000000e+00 2.6500000e+01 
7.5000000e-01 3.0000000e+00 2.7000000e+01 
7.5000000e-01 3.0000000e+00 2.7500000e+01 
7.5000000e-01 3.0000000e+00 2.8000000e+01 
7.5000000e-01 3.0000000e+00 2.8500000e+01 
7.5000000e-01 3.0000000e+00 2.9000000e+01 
7.5000000e-01 3.0000000e+00 2.9500000e+01 
7.5000000e-01 3.0000000e+00 3.0000000e+01 
7.5000000e-01 3.0000000e+00 3.0500000e+01 
7.5000000e-01 3.0000000e+00 3.1000000e+01 
7.5000000e-01 3.0000000e+00 3.1500000e+01 
7.5000000e-01 3.0000000e+00 3.2000000e+01 
7.5000000e-01 3.0000000e+00 3.2500000e+01 
7.5000000e-01 3.0000000e+00 3.3000000e+01 
7.5000000e-01 3.0000000e+00 3.3500000e+01 
7.5000000e-01 3.0000000e+00 3.4000000e+01 
7.5000000e-01 3.0000000e+00 3.4500000e+01 
7.5000000e-01 3.0000000e+00 3.5000000e+01 
7.5000000e-01 3.0000000e+00 3.5500000e+01 
7.5000000e-01 3.0000000e+00 3.6000000e+01 
7.5000000e-01 3.0000000e+00 3.6500000e+01 
7.5000000e-01 3.0000000e+00 3.7000000e+01 
7.5000000e-01 3.0000000e+00 3.7500000e+01 
7.5000000e-01 3.0000000e+00 3.8000000e+01 
7.5000000e-01 3.0000000e+00 3.8500000e+01 
7.5000000e-01 3.0000000e+00 3.9000000e+01 
7.5000000e-01 3.0000000e+00 3.9500000e+01 
7.5000000e-01 3.0000000e+00 4.0000000e+01 
7.5000000e-01 3.0000000e+00 4.0500000e+01 
7.5000000e-01 3.0000000e+00 4.1000000e+01 
7.5000000e-01 3.0000000e+00 4.1500000e+01 
7.5000000e-01 3.0000000e+00 4.2000000e+01 
7.5000000e-01 3.0000000e+00 4.2500000e+01 
7.5000000e-01 3.0000000e+00 4.3000000e+01 
7.5000000e-01 3.0000000e+00 4.3500000e+01 
7.5000000e-01 3.0000000e+00 4.4000000e+01 
7.5000000e-01 3.0000000e+00 4.4500000e+01 
7.5000000e-01 3.0000000e+00 4.5000000e+01 
7.5000000e-01 3.0000000e+00 4.5500000e+01 
7.5000000e-01 3.0000000e+00 4.6000000e+01 
7.5000000e-01 3.0000000e+00 4.6500000e+01 
7.5000000e-01 3.0000000e+00 4.7000000e+01 
7.5000000e-01 3.0000000e+00 4.7500000e+01 
7.5000000e-01 3.0000000e+00 4.8000000e+01 
7.5000000e-01 3.0000000e+00 4.8500000e+01 
7.5000000e-01 3.0000000e+00 4.9000000e+01 
7.5000000e-01 3.0000000e+00 4.9500000e+01 
7.5000000e-01 3.0250001e+00 0.0000000e+00 
7.5000000e-01 3.0250001e+00 5.0000000e-01 
7.5000000e-01 3.0250001e+00 1.0000000e+00 
7.5000000e-01 3.0250001e+00 1.5000000e+00 
7.5000000e-01 3.0250001e+00 2.0000000e+00 
7.5000000e-01 3.0250001e+00 2.5000000e+00 
7.5000000e-01 3.0250001e+00 3.0000000e+00 
7.5000000e-01 3.0250001e+00 3.5000000e+00 
7.5000000e-01 3.0250001e+00 4.0000000e+00 
7.5000000e-01 3.0250001e+00 4.5000000e+00 
7.5000000e-01 3.0250001e+00 5.0000000e+00 
7.5000000e-01 3.0250001e+00 5.5000000e+00 
7.5000000e-01 3.0250001e+00 6.0000000e+00 
7.5000000e-01 3.0250001e+00 6.5000000e+00 
7.5000000e-01 3.0250001e+00 7.0000000e+00 
7.5000000e-01 3.0250001e+00 7.5000000e+00 
7.5000000e-01 3.0250001e+00 8.0000000e+00 
7.5000000e-01 3.0250001e+00 8.5000000e+00 
7.5000000e-01 3.0250001e+00 9.0000000e+00 
7.5000000e-01 3.0250001e+00 9.5000000e+00 
7.5000000e-01 3.0250001e+00 1.0000000e+01 
7.5000000e-01 3.0250001e+00 1.0500000e+01 
7.5000000e-01 3.0250001e+00 1.1000000e+01 
7.5000000e-01 3.0250001e+00 1.1500000e+01 
7.5000000e-01 3.0250001e+00 1.2000000e+01 
7.5000000e-01 3.0250001e+00 1.2500000e+01 
7.5000000e-01 3.0250001e+00 1.3000000e+01 
7.5000000e-01 3.0250001e+00 1.3500000e+01 
7.5000000e-01 3.0250001e+00 1.4000000e+01 
7.5000000e-01 3.0250001e+00 1.4500000e+01 
7.5000000e-01 3.0250001e+00 1.5000000e+01 
7.5000000e-01 3.0250001e+00 1.5500000e+01 
7.5000000e-01 3.0250001e+00 1.6000000e+01 
7.5000000e-01 3.0250001e+00 1.6500000e+01 
7.5000000e-01 3.0250001e+00 1.7000000e+01 
7.5000000e-01 3.0250001e+00 1.7500000e+01 
7.5000000e-01 3.0250001e+00 1.8000000e+01 
7.5000000e-01 3.0250001e+00 1.8500000e+01 
7.5000000e-01 3.0250001e+00 1.9000000e+01 
7.5000000e-01 3.0250001e+00 1.9500000e+01 
7.5000000e-01 3.0250001e+00 2.0000000e+01 
7.5000000e-01 3.0250001e+00 2.0500000e+01 
7.5000000e-01 3.0250001e+00 2.1000000e+01 
7.5000000e-01 3.0250001e+00 2.1500000e+01 
7.5000000e-01 3.0250001e+00 2.2000000e+01 
7.5000000e-01 3.0250001e+00 2.2500000e+01 
7.5000000e-01 3.0250001e+00 2.3000000e+01 
7.5000000e-01 3.0250001e+00 2.3500000e+01 
7.5000000e-01 3.0250001e+00 2.4000000e+01 
7.5000000e-01 3.0250001e+00 2.4500000e+01 
7.5000000e-01 3.0250001e+00 2.5000000e+01 
7.5000000e-01 3.0250001e+00 2.5500000e+01 
7.5000000e-01 3.0250001e+00 2.6000000e+01 
7.5000000e-01 3.0250001e+00 2.6500000e+01 
7.5000000e-01 3.0250001e+00 2.7000000e+01 
7.5000000e-01 3.0250001e+00 2.7500000e+01 
7.5000000e-01 3.0250001e+00 2.8000000e+01 
7.5000000e-01 3.0250001e+00 2.8500000e+01 
7.5000000e-01 3.0250001e+00 2.9000000e+01 
7.5000000e-01 3.0250001e+00 2.9500000e+01 
7.5000000e-01 3.0250001e+00 3.0000000e+01 
7.5000000e-01 3.0250001e+00 3.0500000e+01 
7.5000000e-01 3.0250001e+00 3.1000000e+01 
7.5000000e-01 3.0250001e+00 3.1500000e+01 
7.5000000e-01 3.0250001e+00 3.2000000e+01 
7.5000000e-01 3.0250001e+00 3.2500000e+01 
7.5000000e-01 3.0250001e+00 3.3000000e+01 
7.5000000e-01 3.0250001e+00 3.3500000e+01 
7.5000000e-01 3.0250001e+00 3.4000000e+01 
7.5000000e-01 3.0250001e+00 3.4500000e+01 
7.5000000e-01 3.0250001e+00 3.5000000e+01 
7.5000000e-01 3.0250001e+00 3.5500000e+01 
7.5000000e-01 3.0250001e+00 3.6000000e+01 
7.5000000e-01 3.0250001e+00 3.6500000e+01 
7.5000000e-01 3.0250001e+00 3.7000000e+01 
7.5000000e-01 3.0250001e+00 3.7500000e+01 
7.5000000e-01 3.0250001e+00 3.8000000e+01 
7.5000000e-01 3.0250001e+00 3.8500000e+01 
7.5000000e-01 3.0250001e+00 3.9000000e+01 
7.5000000e-01 3.0250001e+00 3.9500000e+01 
7.5000000e-01 3.0250001e+00 4.0000000e+01 
7.5000000e-01 3.0250001e+00 4.0500000e+01 
7.5000000e-01 3.0250001e+00 4.1000000e+01 
7.5000000e-01 3.0250001e+00 4.1500000e+01 
7.5000000e-01 3.0250001e+00 4.2000000e+01 
7.5000000e-01 3.0250001e+00 4.2500000e+01 
7.5000000e-01 3.0250001e+00 4.3000000e+01 
7.5000000e-01 3.0250001e+00 4.3500000e+01 
7.5000000e-01 3.0250001e+00 4.4000000e+01 
7.5000000e-01 3.0250001e+00 4.4500000e+01 
7.5000000e-01 3.0250001e+00 4.5000000e+01 
7.5000000e-01 3.0250001e+00 4.5500000e+01 
7.5000000e-01 3.0250001e+00 4.6000000e+01 
7.5000000e-01 3.0250001e+00 4.6500000e+01 
7.5000000e-01 3.0250001e+00 4.7000000e+01 
7.5000000e-01 3.0250001e+00 4.7500000e+01 
7.5000000e-01 3.0250001e+00 4.8000000e+01 
7.5000000e-01 3.0250001e+00 4.8500000e+01 
7.5000000e-01 3.0250001e+00 4.9000000e+01 
7.5000000e-01 3.0250001e+00 4.9500000e+01 
7.5000000e-01 3.0250001e+00 5.0000000e+01 
3.0000000e+00 2.0000000e+00 3.6000000e+01 
8.0487806e-01 3.0000000e+00 3.6000000e+01 
0.0000000e+00 0.0000000e+00 1.0000000e+00 
0.0000000e+00 0.0000000e+00 2.0000000e+00 
0.0000000e+00 0.0000000e+00 3.0000000e+00 
0.0000000e+00 0.0000000e+00 4.0000000e+00 
0.0000000e+00 0.0000000e+00 5.0000000e+00 
0.0000000e+00 0.0000000e+00 6.0000000e+00 
0.0000000e+00 0.0000000e+00 7.0000000e+00 
0.0000000e+00 0.0000000e+00 8.0000000e+00 
[...]
POINT_DATA 1919
FIELD FieldData 3
DISPLACEMENT 3 1919  float
0.0000000e+00 0.0000000e+00 0.0000000e+00 
0.0000000e+00 0.0000000e+00 0.0000000e+00 
0.0000000e+00 0.0000000e+00 0.0000000e+00 
0.0000000e+00 0.0000000e+00 0.0000000e+00 
5.3296022e-05 -5.5268188e-06 -7.5216722e-06 
-3.5646255e-13 -2.2895571e-11 4.8689216e-11 
0.0000000e+00 -6.1203481e-04 0.0000000e+00 
0.0000000e+00 1.4994673e-12 0.0000000e+00 
3.6343426e-05 1.1873371e-05 -1.4742517e-05 
-3.2029518e-12 -2.5358474e-11 7.6322608e-11 
8.9885732e-05 1.1962693e-06 -8.9188579e-05 
-1.1261783e-11 -2.5190700e-11 6.5886824e-11 
0.0000000e+00 -1.3440093e-03 0.0000000e+00 
0.0000000e+00 8.1519173e-11 0.0000000e+00 
-8.7135041e-04 -2.3654203e-03 -7.5575500e-04 
-3.6982393e-11 -3.7024002e-11 4.5994299e-11 
-5.2654074e-04 -3.6402838e-03 -9.4720785e-04 
-1.6504017e-11 1.0395039e-09 5.9345036e-11 
0.0000000e+00 -2.7697943e-03 0.0000000e+00 
0.0000000e+00 1.0758695e-10 0.0000000e+00 
-3.7633980e-04 -3.8317153e-03 -7.0728082e-04 
-4.0217090e-04 -4.4014715e-03 -2.6048205e-04 
-5.0095515e-04 -5.0925701e-03 -1.1054867e-04 
-5.1275990e-04 -5.4237014e-03 -1.1035662e-04 
-6.1335834e-04 -5.3146868e-03 -2.0788220e-04 
-4.2363210e-04 -5.1349844e-03 -1.9356502e-04 
-5.1715475e-04 -5.1501887e-03 -1.7814388e-04 
-4.8002612e-04 -5.1210821e-03 -2.4637580e-04 
-4.5974852e-04 -4.6436260e-03 -3.6794360e-04 
-2.6990985e-04 -3.5542529e-03 -2.6786415e-04 
-1.6986734e-04 -2.3247169e-03 -3.8113989e-04 
-6.8844216e-05 -1.2343725e-03 -1.6741829e-04 
7.2304096e-07 -4.1282031e-04 -1.2863069e-04 
1.6516529e-05 1.0658890e-04 -1.9795076e-05 
3.3539029e-05 3.2579163e-04 -6.3795488e-07 
2.3148057e-05 3.3058177e-04 1.1213823e-05 
1.4033198e-05 2.3992598e-04 1.6228716e-05 
3.9219340e-06 1.4610554e-04 9.0824633e-06 
-1.9163701e-06 8.8826746e-05 6.0074285e-06 
-6.1063679e-07 5.0130278e-05 -3.5351861e-06 
-8.6387871e-07 6.5177605e-06 -7.6166157e-07 
-8.7519771e-07 -3.7433208e-05 -1.1531583e-06 
-2.8316762e-07 -5.7115794e-05 1.4871034e-06 
1.0133325e-07 -3.6201011e-05 -3.7234759e-06 
3.2099058e-06 1.2433998e-05 -9.5296252e-07 
4.1255689e-06 4.6913268e-05 1.3325383e-06 
3.0846370e-06 3.4096523e-05 -8.0692917e-06 
2.4405433e-06 -1.6362508e-05 5.5672313e-06 
-1.0269343e-06 -6.2041356e-05 8.2297902e-06 
-2.2515412e-06 -6.0684361e-05 5.7268289e-06 
-3.0222941e-06 -1.0869924e-05 3.2888995e-05 
-1.6052632e-05 4.7274767e-05 3.2303582e-05 
-2.4343259e-05 7.7322104e-05 2.8552740e-05 
-4.2377469e-05 6.7363966e-05 3.7802361e-05 
-5.6114874e-05 3.5043526e-05 2.8244300e-05 
-8.0419246e-05 -3.9090564e-06 6.9143862e-05 
-1.0499506e-04 -7.7045646e-05 1.4712397e-04 
-1.1875641e-04 -2.8277506e-04 1.6304936e-04 
-2.6015821e-04 -7.5383001e-04 2.4502000e-04 
-2.5602549e-04 -1.5924451e-03 1.9602617e-04 
-4.0615842e-04 -2.7797634e-03 2.9143234e-04 
-3.7854517e-04 -4.0754569e-03 1.1889315e-04 
-5.3362129e-04 -5.0686747e-03 1.2050276e-04 
-4.2878703e-04 -5.2889497e-03 -2.3465116e-05 
-5.2189099e-04 -5.1086862e-03 -5.4111191e-05 
-4.0405930e-04 -5.0119879e-03 -6.9287256e-05 
-4.0365863e-04 -5.1365616e-03 -2.3181454e-05 
-3.4919888e-04 -5.0898567e-03 -1.1723102e-04 
-3.3497903e-04 -4.3784259e-03 -2.5266540e-04 
-2.4116732e-04 -3.1774379e-03 -1.9937853e-04 
-1.6452801e-04 -1.9664299e-03 -3.2565405e-04 
-5.4728072e-05 -9.6792943e-04 -1.5641315e-04 
-3.8553044e-06 -2.7256511e-04 -1.3383203e-04 
1.5420677e-05 1.3160742e-04 -1.5482316e-05 
3.1094292e-05 2.8959167e-04 9.6131416e-06 
2.3441913e-05 2.8957691e-04 1.5419804e-05 
1.3498793e-05 2.1833942e-04 1.5166451e-05 
3.8160506e-06 1.3424977e-04 6.0809225e-06 
-1.1174759e-06 6.6869114e-05 5.0597750e-06 
-1.0730688e-06 1.9454510e-05 -7.9627267e-07 
-1.5839233e-06 -9.2357777e-06 2.3045127e-06 
-5.4332389e-07 -2.1384751e-05 -2.2265704e-06 
2.0174778e-07 -1.9326113e-05 1.8096624e-06 
-1.7204312e-07 -1.1766894e-05 1.0692199e-08 
2.3550746e-07 -8.7488597e-06 -1.5245915e-06 
-2.8547712e-08 -9.8707387e-06 1.1807526e-06 
-3.3117968e-07 -8.2633851e-06 -1.3517579e-06 
-1.6987092e-07 -1.0955521e-06 2.0977211e-07 
-1.8944570e-07 7.9131796e-06 6.5278886e-07 
-5.4217440e-07 1.2255584e-05 3.1597787e-07 
2.9728668e-07 8.6159662e-06 2.0617907e-07 
-7.7397530e-08 5.2045925e-07 2.6511441e-07 
-4.0312720e-08 -4.9067253e-06 -3.4565369e-07 
3.0332266e-08 -4.9393470e-06 1.2089885e-07 
-1.6873555e-08 -1.3481279e-06 -1.1464185e-08 
3.3704531e-08 1.9575778e-06 -7.1968337e-08 
2.6928834e-08 2.4692886e-06 9.5274601e-08 
2.7438990e-08 1.0324219e-06 1.1084918e-08 
-1.1709836e-08 -3.9436716e-07 -2.8391820e-08 
-1.9877778e-08 -8.7274987e-07 1.6103801e-08 
-2.7304727e-09 -5.3853893e-07 -1.0646414e-08 
7.4069578e-10 -1.6801204e-09 -7.6384392e-09 
3.9296020e-09 2.8017874e-07 1.3050064e-08 
4.9701749e-09 2.4706449e-07 2.2200188e-09 
-2.0020028e-09 5.0044537e-08 -2.0373945e-09 
-3.9330832e-09 -1.0806035e-07 1.1685549e-09 
-4.4038093e-10 -1.0883817e-07 4.7386295e-10 
2.4667834e-09 -1.4165069e-08 7.1632306e-10 
1.9172108e-09 5.5056422e-08 1.1425771e-09 
-1.1830395e-10 4.0296847e-08 1.1555312e-10 
-2.9015518e-10 -6.4828956e-09 -3.1034830e-10 
-3.6617689e-10 -2.4654671e-08 3.3405365e-10 
8.3985867e-11 -8.3477776e-09 1.8638377e-10 
1.9476053e-10 8.7505541e-09 -6.2411354e-11 
-4.1517775e-11 7.3224973e-09 5.6923088e-11 
-1.2604871e-10 -1.3892876e-09 1.0511560e-10 
1.0415570e-13 -3.7229597e-09 1.3287922e-11 
-5.2841533e-12 -1.0333914e-09 3.8609553e-11 
5.2676557e-12 8.6321467e-10 1.8664978e-11 
0.0000000e+00 -3.6425947e-03 0.0000000e+00 
0.0000000e+00 -3.8454391e-03 0.0000000e+00 
0.0000000e+00 -4.4210404e-03 0.0000000e+00 
0.0000000e+00 -5.1182625e-03 0.0000000e+00 
0.0000000e+00 -5.4556387e-03 0.0000000e+00 
0.0000000e+00 -5.3336392e-03 0.0000000e+00 
0.0000000e+00 -5.1617743e-03 0.0000000e+00 
0.0000000e+00 -5.1694172e-03 0.0000000e+00 
0.0000000e+00 -5.1548984e-03 0.0000000e+00 
0.0000000e+00 -4.6650688e-03 0.0000000e+00 
0.0000000e+00 -3.5735755e-03 0.0000000e+00 
0.0000000e+00 -2.3317155e-03 0.0000000e+00 
0.0000000e+00 -1.2391648e-03 0.0000000e+00 
0.0000000e+00 -4.1535404e-04 0.0000000e+00 
0.0000000e+00 1.0222679e-04 0.0000000e+00 
0.0000000e+00 3.2475108e-04 0.0000000e+00 
0.0000000e+00 3.3294255e-04 0.0000000e+00 
0.0000000e+00 2.4293810e-04 0.0000000e+00 
0.0000000e+00 1.4867549e-04 0.0000000e+00 
0.0000000e+00 8.8769506e-05 0.0000000e+00 
0.0000000e+00 4.8609436e-05 0.0000000e+00 
0.0000000e+00 5.5983810e-06 0.0000000e+00 
0.0000000e+00 -3.6950390e-05 0.0000000e+00 
0.0000000e+00 -5.5776796e-05 0.0000000e+00 
0.0000000e+00 -3.4950252e-05 0.0000000e+00 
0.0000000e+00 1.2210514e-05 0.0000000e+00 
0.0000000e+00 4.5278739e-05 0.0000000e+00 
0.0000000e+00 3.2528442e-05 0.0000000e+00 
0.0000000e+00 -1.6852871e-05 0.0000000e+00 
0.0000000e+00 -6.0575348e-05 0.0000000e+00 
0.0000000e+00 -5.8745947e-05 0.0000000e+00 
0.0000000e+00 -1.0437678e-05 0.0000000e+00 
0.0000000e+00 4.6854562e-05 0.0000000e+00 
0.0000000e+00 7.5974152e-05 0.0000000e+00 
0.0000000e+00 6.6886198e-05 0.0000000e+00 
0.0000000e+00 3.6438683e-05 0.0000000e+00 
0.0000000e+00 -7.3073312e-07 0.0000000e+00 
0.0000000e+00 -7.4687545e-05 0.0000000e+00 
0.0000000e+00 -2.8295888e-04 0.0000000e+00 
0.0000000e+00 -7.5938390e-04 0.0000000e+00 
0.0000000e+00 -1.6042371e-03 0.0000000e+00 
0.0000000e+00 -2.7910070e-03 0.0000000e+00 
0.0000000e+00 -4.0948619e-03 0.0000000e+00 
0.0000000e+00 -5.0888364e-03 0.0000000e+00 
0.0000000e+00 -5.3178743e-03 0.0000000e+00 
0.0000000e+00 -5.1323865e-03 0.0000000e+00 
0.0000000e+00 -5.0402149e-03 0.0000000e+00 
0.0000000e+00 -5.1583471e-03 0.0000000e+00 
0.0000000e+00 -5.1187840e-03 0.0000000e+00 
0.0000000e+00 -4.3989178e-03 0.0000000e+00 
0.0000000e+00 -3.1947629e-03 0.0000000e+00 
0.0000000e+00 -1.9728094e-03 0.0000000e+00 
0.0000000e+00 -9.7301416e-04 0.0000000e+00 
0.0000000e+00 -2.7441050e-04 0.0000000e+00 
0.0000000e+00 1.2980439e-04 0.0000000e+00 
0.0000000e+00 2.9012421e-04 0.0000000e+00 
0.0000000e+00 2.9144005e-04 0.0000000e+00 
0.0000000e+00 2.1983861e-04 0.0000000e+00 
0.0000000e+00 1.3532281e-04 0.0000000e+00 
0.0000000e+00 6.6988039e-05 0.0000000e+00 
0.0000000e+00 1.9615742e-05 0.0000000e+00 
0.0000000e+00 -9.1018001e-06 0.0000000e+00 
0.0000000e+00 -2.1150841e-05 0.0000000e+00 
0.0000000e+00 -1.9410751e-05 0.0000000e+00 
0.0000000e+00 -1.2337588e-05 0.0000000e+00 
0.0000000e+00 -8.9847945e-06 0.0000000e+00 
0.0000000e+00 -9.5329488e-06 0.0000000e+00 
0.0000000e+00 -7.9367355e-06 0.0000000e+00 
0.0000000e+00 -1.1018819e-06 0.0000000e+00 
0.0000000e+00 7.6670076e-06 0.0000000e+00 
0.0000000e+00 1.1962559e-05 0.0000000e+00 
0.0000000e+00 8.5682204e-06 0.0000000e+00 
0.0000000e+00 8.2394359e-07 0.0000000e+00 
0.0000000e+00 -4.7083035e-06 0.0000000e+00 
0.0000000e+00 -4.9285709e-06 0.0000000e+00 
0.0000000e+00 -1.4566684e-06 0.0000000e+00 
0.0000000e+00 1.8198551e-06 0.0000000e+00 
0.0000000e+00 2.4524174e-06 0.0000000e+00 
0.0000000e+00 1.0987817e-06 0.0000000e+00 
0.0000000e+00 -3.4990470e-07 0.0000000e+00 
0.0000000e+00 -8.6346569e-07 0.0000000e+00 
0.0000000e+00 -5.5135240e-07 0.0000000e+00 
0.0000000e+00 -2.0745084e-08 0.0000000e+00 
0.0000000e+00 2.7229072e-07 0.0000000e+00 
0.0000000e+00 2.4837584e-07 0.0000000e+00 
0.0000000e+00 5.6436992e-08 0.0000000e+00 
0.0000000e+00 -1.0041626e-07 0.0000000e+00 
0.0000000e+00 -1.0871391e-07 0.0000000e+00 
0.0000000e+00 -1.8542801e-08 0.0000000e+00 
0.0000000e+00 5.1011739e-08 0.0000000e+00 
0.0000000e+00 4.1666389e-08 0.0000000e+00 
0.0000000e+00 -3.6966061e-09 0.0000000e+00 
0.0000000e+00 -2.3864137e-08 0.0000000e+00 
0.0000000e+00 -9.5506980e-09 0.0000000e+00 
0.0000000e+00 7.6877740e-09 0.0000000e+00 
0.0000000e+00 7.6068396e-09 0.0000000e+00 
0.0000000e+00 -7.1886891e-10 0.0000000e+00 
0.0000000e+00 -3.7103480e-09 0.0000000e+00 
0.0000000e+00 -1.3311456e-09 0.0000000e+00 
0.0000000e+00 7.9356949e-10 0.0000000e+00 
0.0000000e+00 1.1692530e-09 0.0000000e+00 
-2.9385696e-08 -1.2479204e-07 4.7423701e-08 
-7.2759704e-08 -2.6944945e-06 2.8797157e-07 
0.0000000e+00 0.0000000e+00 0.0000000e+00 
0.0000000e+00 0.0000000e+00 0.0000000e+00 
0.0000000e+00 0.0000000e+00 0.0000000e+00 
0.0000000e+00 0.0000000e+00 0.0000000e+00 
0.0000000e+00 0.0000000e+00 0.0000000e+00 
0.0000000e+00 0.0000000e+00 0.0000000e+00 
0.0000000e+00 0.0000000e+00 0.0000000e+00 
0.0000000e+00 0.0000000e+00 0.0000000e+00 
0.0000000e+00 0.0000000e+00 0.0000000e+00 
0.0000000e+00 0.0000000e+00 0.0000000e+00 
0.0000000e+00 0.0000000e+00 0.0000000e+00 
0.0000000e+00 0.0000000e+00 0.0000000e+00 
0.0000000e+00 0.0000000e+00 0.0000000e+00 
0.0000000e+00 0.0000000e+00 0.0000000e+00 
0.0000000e+00 0.0000000e+00 0.0000000e+00 
0.0000000e+00 0.0000000e+00 0.0000000e+00 
0.0000000e+00 0.0000000e+00 0.0000000e+00 
0.0000000e+00 0.0000000e+00 0.0000000e+00 
0.0000000e+00 0.0000000e+00 0.0000000e+00 
0.0000000e+00 0.0000000e+00 0.0000000e+00 
0.0000000e+00 0.0000000e+00 0.0000000e+00 
0.0000000e+00 0.0000000e+00 0.0000000e+00 
0.0000000e+00 0.0000000e+00 0.0000000e+00 
0.0000000e+00 0.0000000e+00 0.0000000e+00 
0.0000000e+00 0.0000000e+00 0.0000000e+00 
0.0000000e+00 0.0000000e+00 0.0000000e+00 
0.0000000e+00 0.0000000e+00 0.0000000e+00 
0.0000000e+00 0.0000000e+00 0.0000000e+00 
0.0000000e+00 0.0000000e+00 0.0000000e+00 
0.0000000e+00 0.0000000e+00 0.0000000e+00 
0.0000000e+00 0.0000000e+00 0.0000000e+00 
0.0000000e+00 0.0000000e+00 0.0000000e+00 
0.0000000e+00 0.0000000e+00 0.0000000e+00 
0.0000000e+00 0.0000000e+00 0.0000000e+00 
0.0000000e+00 0.0000000e+00 0.0000000e+00 
0.0000000e+00 0.0000000e+00 0.0000000e+00 
0.0000000e+00 0.0000000e+00 0.0000000e+00 
0.0000000e+00 0.0000000e+00 0.0000000e+00 
0.0000000e+00 0.0000000e+00 0.0000000e+00 
0.0000000e+00 0.0000000e+00 0.0000000e+00 
0.0000000e+00 0.0000000e+00 0.0000000e+00 
0.0000000e+00 0.0000000e+00 0.0000000e+00 
0.0000000e+00 0.0000000e+00 0.0000000e+00 
0.0000000e+00 0.0000000e+00 0.0000000e+00 
0.0000000e+00 0.0000000e+00 0.0000000e+00 
0.0000000e+00 0.0000000e+00 0.0000000e+00 
0.0000000e+00 0.0000000e+00 0.0000000e+00 
0.0000000e+00 0.0000000e+00 0.0000000e+00 
0.0000000e+00 0.0000000e+00 0.0000000e+00 
0.0000000e+00 0.0000000e+00 0.0000000e+00 
0.0000000e+00 0.0000000e+00 0.0000000e+00 
0.0000000e+00 0.0000000e+00 0.0000000e+00 
0.0000000e+00 0.0000000e+00 0.0000000e+00 
0.0000000e+00 0.0000000e+00 0.0000000e+00 
0.0000000e+00 0.0000000e+00 0.0000000e+00 
0.0000000e+00 0.0000000e+00 0.0000000e+00 
0.0000000e+00 0.0000000e+00 0.0000000e+00 
0.0000000e+00 0.0000000e+00 0.0000000e+00 
0.0000000e+00 0.0000000e+00 0.0000000e+00 
0.0000000e+00 0.0000000e+00 0.0000000e+00 
0.0000000e+00 0.0000000e+00 0.0000000e+00 
0.0000000e+00 0.0000000e+00 0.0000000e+00 
0.0000000e+00 0.0000000e+00 0.0000000e+00 
0.0000000e+00 0.0000000e+00 0.0000000e+00 
0.0000000e+00 0.0000000e+00 0.0000000e+00 
0.0000000e+00 0.0000000e+00 0.0000000e+00 
0.0000000e+00 0.0000000e+00 0.0000000e+00 
0.0000000e+00 0.0000000e+00 0.0000000e+00 
0.0000000e+00 0.0000000e+00 0.0000000e+00 
0.0000000e+00 0.0000000e+00 0.0000000e+00 
0.0000000e+00 0.0000000e+00 0.0000000e+00 
0.0000000e+00 0.0000000e+00 0.0000000e+00 
0.0000000e+00 0.0000000e+00 0.0000000e+00 
0.0000000e+00 0.0000000e+00 0.0000000e+00 
0.0000000e+00 0.0000000e+00 0.0000000e+00 
0.0000000e+00 0.0000000e+00 0.0000000e+00 
0.0000000e+00 0.0000000e+00 0.0000000e+00 
0.0000000e+00 0.0000000e+00 0.0000000e+00 
0.0000000e+00 0.0000000e+00 0.0000000e+00 
0.0000000e+00 0.0000000e+00 0.0000000e+00 
0.0000000e+00 0.0000000e+00 0.0000000e+00 
0.0000000e+00 0.0000000e+00 0.0000000e+00 
0.0000000e+00 0.0000000e+00 0.0000000e+00 
0.0000000e+00 0.0000000e+00 0.0000000e+00 
0.0000000e+00 0.0000000e+00 0.0000000e+00 
0.0000000e+00 0.0000000e+00 0.0000000e+00 
0.0000000e+00 0.0000000e+00 0.0000000e+00 
0.0000000e+00 0.0000000e+00 0.0000000e+00 
0.0000000e+00 0.0000000e+00 0.0000000e+00 
0.0000000e+00 0.0000000e+00 0.0000000e+00 
0.0000000e+00 0.0000000e+00 0.0000000e+00 
0.0000000e+00 0.0000000e+00 0.0000000e+00 
0.0000000e+00 0.0000000e+00 0.0000000e+00 
0.0000000e+00 0.0000000e+00 0.0000000e+00 
0.0000000e+00 0.0000000e+00 0.0000000e+00 
0.0000000e+00 0.0000000e+00 0.0000000e+00 
0.0000000e+00 0.0000000e+00 0.0000000e+00 
0.0000000e+00 0.0000000e+00 0.0000000e+00 
0.0000000e+00 0.0000000e+00 0.0000000e+00 
0.0000000e+00 0.0000000e+00 0.0000000e+00 
0.0000000e+00 0.0000000e+00 0.0000000e+00 
0.0000000e+00 0.0000000e+00 0.0000000e+00 
0.0000000e+00 0.0000000e+00 0.0000000e+00 
0.0000000e+00 0.0000000e+00 0.0000000e+00 
0.0000000e+00 0.0000000e+00 0.0000000e+00 
0.0000000e+00 0.0000000e+00 0.0000000e+00 
6.1234256e-05 -1.5519821e-05 -1.3715833e-05 
6.2757535e-05 -1.5198214e-05 -1.2267539e-05 
4.8460650e-05 -1.7158103e-05 -1.2393616e-06 
2.1617367e-05 -2.3768014e-06 6.6213674e-06 
8.6230220e-06 -4.9369476e-07 -6.7371425e-06 
3.4618238e-06 -4.7814851e-06 -1.4542991e-06 
6.9321868e-07 -2.4604071e-06 -1.0277719e-06 
-1.7739484e-06 7.8182285e-07 8.1407632e-07 
-2.6246303e-07 5.1716489e-07 7.3200488e-07 
3.1356177e-07 -9.9877241e-07 6.8462265e-07 
3.1648423e-07 1.4248803e-07 -2.4154440e-07 
1.9052341e-07 4.1189914e-08 -9.4859649e-07 
-7.5043260e-09 -4.1087921e-07 -1.7629969e-06 
-1.9594569e-07 3.3696367e-07 -2.0783557e-06 
2.6287569e-06 -1.4635605e-06 -3.8699391e-06 
6.3925868e-06 -3.6997576e-06 -4.8094576e-06 
1.3230375e-05 -1.0046182e-06 -5.4200277e-06 
1.9558331e-05 -8.8418841e-07 -4.9236146e-06 
2.8182349e-05 -5.9396502e-06 -3.8055921e-06 
4.3204091e-05 -7.2155713e-06 -4.8979550e-06 
5.2136867e-05 -1.1681268e-05 -1.1337629e-06 
4.6820318e-05 -1.1762059e-05 4.4031954e-06 
3.8597151e-05 -7.3952751e-06 3.3731708e-06 
3.2909709e-05 -7.6890237e-06 5.8871533e-06 
1.8147002e-05 -3.1295006e-06 9.8277433e-06 
8.5275760e-06 -4.3379946e-06 6.6005950e-06 
2.0876450e-06 -1.2173211e-06 2.4678759e-06 
5.9741859e-07 7.9438087e-07 1.5760762e-06 
4.9156142e-07 -4.4197284e-07 1.4969751e-06 
-3.4448146e-07 -5.0931840e-07 1.0461553e-06 
1.9845889e-07 1.2191218e-07 1.0826903e-06 
1.8253301e-07 -1.0335886e-07 6.1870543e-07 
4.7187104e-08 -2.1928165e-07 1.4991980e-07 
-3.0087128e-09 -5.0849334e-09 5.7830412e-08 
1.7822529e-09 1.6090686e-08 9.3667737e-08 
3.5331906e-09 -1.4247612e-08 4.4770051e-08 
2.5765086e-09 -4.5577835e-09 1.7711866e-08 
1.5333462e-09 -4.9038346e-10 1.4103968e-08 
6.0784661e-10 -1.8413026e-09 8.5317531e-09 
6.5058653e-10 -7.0810569e-10 4.7751412e-09 
3.9970238e-10 -2.4152000e-10 3.0632654e-09 
2.5599295e-10 -3.6580830e-10 1.7985223e-09 
1.3834117e-10 -1.3681206e-10 1.0213570e-09 
6.4871067e-11 -1.1608524e-10 5.7590305e-10 
4.8884983e-11 -5.9943862e-11 3.4580727e-10 
1.9758984e-11 -2.5704647e-11 2.1506405e-10 
1.3851179e-11 -1.6520644e-11 1.2676556e-10 
4.4688775e-12 -9.8909422e-12 8.1869719e-11 
1.7731018e-12 -8.2460306e-12 5.6102654e-11 
0.0000000e+00 -4.7284481e-04 0.0000000e+00 
0.0000000e+00 -5.2688533e-04 0.0000000e+00 
0.0000000e+00 -6.2271487e-04 0.0000000e+00 
0.0000000e+00 -5.4997578e-04 0.0000000e+00 
0.0000000e+00 -3.9669976e-04 0.0000000e+00 
0.0000000e+00 -1.2830239e-04 0.0000000e+00 
0.0000000e+00 5.6287106e-05 0.0000000e+00 
0.0000000e+00 5.0832572e-05 0.0000000e+00 
0.0000000e+00 2.3879577e-06 0.0000000e+00 
0.0000000e+00 -1.2570224e-05 0.0000000e+00 
0.0000000e+00 -6.0750299e-06 0.0000000e+00 
0.0000000e+00 1.0070546e-05 0.0000000e+00 
0.0000000e+00 7.9733127e-06 0.0000000e+00 
0.0000000e+00 -2.3281913e-05 0.0000000e+00 
0.0000000e+00 -9.9014869e-06 0.0000000e+00 
0.0000000e+00 2.1359760e-05 0.0000000e+00 
0.0000000e+00 2.4802446e-05 0.0000000e+00 
0.0000000e+00 9.1777591e-05 0.0000000e+00 
0.0000000e+00 -4.2310089e-06 0.0000000e+00 
0.0000000e+00 -1.8200399e-04 0.0000000e+00 
0.0000000e+00 -4.3866743e-04 0.0000000e+00 
0.0000000e+00 -6.3488074e-04 0.0000000e+00 
0.0000000e+00 -6.5011065e-04 0.0000000e+00 
0.0000000e+00 -5.9427344e-04 0.0000000e+00 
0.0000000e+00 -3.3159036e-04 0.0000000e+00 
0.0000000e+00 -1.2095953e-04 0.0000000e+00 
0.0000000e+00 5.8337642e-05 0.0000000e+00 
0.0000000e+00 4.6271169e-05 0.0000000e+00 
0.0000000e+00 2.1700185e-07 0.0000000e+00 
0.0000000e+00 -1.1364954e-05 0.0000000e+00 
0.0000000e+00 -7.4440727e-06 0.0000000e+00 
0.0000000e+00 4.2359329e-06 0.0000000e+00 
0.0000000e+00 3.3997142e-06 0.0000000e+00 
0.0000000e+00 -1.9047988e-06 0.0000000e+00 
0.0000000e+00 -6.9861790e-07 0.0000000e+00 
0.0000000e+00 1.2317795e-06 0.0000000e+00 
0.0000000e+00 -8.9152941e-08 0.0000000e+00 
0.0000000e+00 -2.5840495e-07 0.0000000e+00 
0.0000000e+00 1.1867966e-07 0.0000000e+00 
0.0000000e+00 -3.5033829e-09 0.0000000e+00 
0.0000000e+00 -2.8010842e-08 0.0000000e+00 
0.0000000e+00 1.8698723e-08 0.0000000e+00 
0.0000000e+00 -3.9521737e-09 0.0000000e+00 
0.0000000e+00 -1.2138535e-09 0.0000000e+00 
0.0000000e+00 1.2642212e-09 0.0000000e+00 
0.0000000e+00 -6.9500367e-10 0.0000000e+00 
0.0000000e+00 -2.0655463e-10 0.0000000e+00 
0.0000000e+00 1.2987021e-11 0.0000000e+00 
0.0000000e+00 -1.7924672e-11 0.0000000e+00 
1.0318148e-04 -6.2033592e-05 -3.2939668e-05 
1.8573580e-04 -4.9417435e-05 -6.2554813e-05 
2.4244445e-04 -2.9799130e-04 -1.2926236e-04 
1.3979904e-04 -5.9153081e-04 -1.9602712e-04 
-4.2416392e-12 -2.1222640e-11 4.8709130e-11 
-7.9984127e-12 -2.0049776e-11 4.3396623e-11 
-1.4205322e-11 -1.6731429e-11 2.8962770e-11 
-1.1660093e-11 -1.1623766e-11 2.3739089e-11 
7.7604476e-05 -8.1957287e-06 -2.1482490e-05 
8.8677843e-05 2.8307397e-06 -8.2241077e-06 
6.4124142e-05 -4.5374532e-06 4.9737037e-06 
2.8785375e-05 1.1371989e-05 7.8304547e-06 
1.5832080e-05 6.3633029e-06 -7.6171741e-06 
1.3406318e-05 -3.1852608e-06 -1.2648752e-06 
4.5514553e-06 -6.5952127e-06 1.4244924e-06 
-9.6075837e-07 1.0312048e-06 -2.2443435e-06 
-2.4173838e-07 1.0625955e-06 8.3821112e-07 
-3.6731731e-07 -1.3610911e-06 7.3954374e-07 
-5.5051072e-07 1.0770864e-07 -1.0157793e-06 
-2.8678375e-07 4.5454176e-08 -9.2020031e-07 
-6.5461700e-07 -2.0160640e-07 -5.9909809e-07 
-8.1082078e-07 7.6032865e-07 -1.1929673e-06 
6.8280428e-06 -5.2445125e-07 -3.9003198e-06 
1.4089430e-05 -1.3038918e-06 -7.2358798e-06 
2.5492089e-05 -1.5558588e-06 -1.1597056e-05 
4.3605571e-05 -3.5247310e-06 -1.6129528e-05 
6.2376814e-05 -8.8406341e-06 -1.5380851e-05 
7.1896706e-05 -7.1502991e-06 -1.1843568e-05 