# vtk DataFile Version 4.0
vtk output
ASCII
DATASET UNSTRUCTURED_GRID
POINTS 766 float
0.0000000e+00 0.0000000e+00 0.0000000e+00 
0.0000000e+00 0.0000000e+00 5.0000000e+01 
5.0000000e+00 0.0000000e+00 0.0000000e+00 
5.0000000e+00 0.0000000e+00 5.0000000e+01 
5.0000000e+00 1.0000000e+00 0.0000000e+00 
5.0000000e+00 1.0000000e+00 5.0000000e+01 
0.0000000e+00 1.0000000e+00 0.0000000e+00 
0.0000000e+00 1.0000000e+00 5.0000000e+01 
5.0000000e+00 2.0000000e+00 0.0000000e+00 
5.0000000e+00 2.0000000e+00 5.0000000e+01 
3.0000000e+00 2.0000000e+00 0.0000000e+00 
3.0000000e+00 2.0000000e+00 5.0000000e+01 
0.0000000e+00 2.0000000e+00 0.0000000e+00 
0.0000000e+00 2.0000000e+00 5.0000000e+01 
1.5000000e+00 3.0000000e+00 0.0000000e+00 
1.5000000e+00 3.0000000e+00 5.0000000e+01 
7.5000000e-01 3.0000000e+00 0.0000000e+00 
7.5000000e-01 3.0000000e+00 5.0000000e+01 
0.0000000e+00 3.0000000e+00 0.0000000e+00 
0.0000000e+00 3.0000000e+00 5.0000000e+01 
7.5000000e-01 3.0000000e+00 5.0000000e-01 
7.5000000e-01 3.0000000e+00 1.0000000e+00 
7.5000000e-01 3.0000000e+00 1.5000000e+00 
7.5000000e-01 3.0000000e+00 2.0000000e+00 
7.5000000e-01 3.0000000e+00 2.5000000e+00 
7.5000000e-01 3.0000000e+00 3.0000000e+00 
7.5000000e-01 3.0000000e+00 3.5000000e+00 
7.5000000e-01 3.0000000e+00 4.0000000e+00 
7.5000000e-01 3.0000000e+00 4.5000000e+00 
7.5000000e-01 3.0000000e+00 5.0000000e+00 
7.5000000e-01 3.0000000e+00 5.5000000e+00 
7.5000000e-01 3.0000000e+00 6.0000000e+00 
7.5000000e-01 3.0000000e+00 6.5000000e+00 
7.5000000e-01 3.0000000e+00 7.0000000e+00 
7.5000000e-01 3.0000000e+00 7.5000000e+00 
7.5000000e-01 3.0000000e+00 8.0000000e+00 
7.5000000e-01 3.0000000e+00 8.5000000e+00 
7.5000000e-01 3.0000000e+00 9.0000000e+00 
7.5000000e-01 3.0000000e+00 9.5000000e+00 
7.5000000e-01 3.0000000e+00 1.0000000e+01 
7.5000000e-01 3.0000000e+00 1.0500000e+01 
7.5000000e-01 3.0000000e+00 1.1000000e+01 
7.5000000e-01 3.0000000e+00 1.1500000e+01 
7.5000000e-01 3.0000000e+00 1.2000000e+01 
7.5000000e-01 3.0000000e+00 1.2500000e+01 
7.5000000e-01 3.0000000e+00 1.3000000e+01 
7.5000000e-01 3.0000000e+00 1.3500000e+01 
7.5000000e-01 3.0000000e+00 1.4000000e+01 
7.5000000e-01 3.0000000e+00 1.4500000e+01 
7.5000000e-01 3.0000000e+00 1.5000000e+01 
7.5000000e-01 3.0000000e+00 1.5500000e+01 
7.5000000e-01 3.0000000e+00 1.6000000e+01 
7.5000000e-01 3.0000000e+00 1.6500000e+01 
7.5000000e-01 3.0000000e+00 1.7000000e+01 
7.5000000e-01 3.0000000e+00 1.7500000e+01 
7.5000000e-01 3.0000000e+00 1.8000000e+01 
7.5000000e-01 3.0000000e+00 1.8500000e+01 
7.5000000e-01 3.0000000e+00 1.9000000e+01 
7.5000000e-01 3.0000000e+00 1.9500000e+01 
7.5000000e-01 3.0000000e+00 2.0000000e+01 
7.5000000e-01 3.0000000e+00 2.0500000e+01 
7.5000000e-01 3.0000000e+00 2.1000000e+01 
7.5000000e-01 3.0000000e+00 2.1500000e+01 
7.5000000e-01 3.0000000e+00 2.2000000e+01 
7.5000000e-01 3.0000000e+00 2.2500000e+01 
7.5000000e-01 3.0000000e+00 2.3000000e+01 
7.5000000e-01 3.0000000e+00 2.3500000e+01 
7.5000000e-01 3.0000000e+00 2.4000000e+01 
7.5000000e-01 3.0000000e+00 2.4500000e+01 
7.5000000e-01 3.0000000e+00 2.5000000e+01 
7.5000000e-01 3.0000000e+00 2.5500000e+01 
7.5000000e-01 3.0000000e+00 2.6000000e+01 
7.5000000e-01 3.0000000e+00 2.6500000e+01 
7.5000000e-01 3.0000000e+00 2.7000000e+01 
7.5000000e-01 3.0000000e+00 2.7500000e+01 
7.5000000e-01 3.0000000e+00 2.8000000e+01 
7.5000000e-01 3.0000000e+00 2.8500000e+01 
7.5000000e-01 3.0000000e+00 2.9000000e+01 
7.5000000e-01 3.0000000e+00 2.9500000e+01 
7.5000000e-01 3.0000000e+00 3.0000000e+01 
7.5000000e-01 3.0000000e+00 3.0500000e+01 
7.5000000e-01 3.0000000e+00 3.1000000e+01 
7.5000000e-01 3.0000000e+00 3.1500000e+01 
7.5000000e-01 3.0000000e+00 3.2000000e+01 
7.5000000e-01 3.0000000e+00 3.2500000e+01 
7.5000000e-01 3.0000000e+00 3.3000000e+01 
7.5000000e-01 3.0000000e+00 3.3500000e+01 
7.5000000e-01 3.0000000e+00 3.4000000e+01 
7.5000000e-01 3.0000000e+00 3.4500000e+01 
7.5000000e-01 3.0000000e+00 3.5000000e+01 
7.5000000e-01 3.0000000e+00 3.5500000e+01 
7.5000000e-01 3.0000000e+00 3.6000000e+01 
7.5000000e-01 3.0000000e+00 3.6500000e+01 
7.5000000e-01 3.0000000e+00 3.7000000e+01 
7.5000000e-01 3.0000000e+00 3.7500000e+01 
7.5000000e-01 3.0000000e+00 3.8000000e+01 
7.5000000e-01 3.0000000e+00 3.8500000e+01 
7.5000000e-01 3.0000000e+00 3.9000000e+01 
7.5000000e-01 3.0000000e+00 3.9500000e+01 
7.5000000e-01 3.0000000e+00 4.0000000e+01 
7.5000000e-01 3.0000000e+00 4.0500000e+01 
7.5000000e-01 3.0000000e+00 4.1000000e+01 
7.5000000e-01 3.0000000e+00 4.1500000e+01 
7.5000000e-01 3.0000000e+00 4.2000000e+01 
7.5000000e-01 3.0000000e+00 4.2500000e+01 
7.5000000e-01 3.0000000e+00 4.3000000e+01 
7.5000000e-01 3.0000000e+00 4.3500000e+01 
7.5000000e-01 3.0000000e+00 4.4000000e+01 
7.5000000e-01 3.0000000e+00 4.4500000e+01 
7.5000000e-01 3.0000000e+00 4.5000000e+01 
7.5000000e-01 3.0000000e+00 4.5500000e+01 
7.5000000e-01 3.0000000e+00 4.6000000e+01 
7.5000000e-01 3.0000000e+00 4.6500000e+01 
7.5000000e-01 3.0000000e+00 4.7000000e+01 
7.5000000e-01 3.0000000e+00 4.7500000e+01 
7.5000000e-01 3.0000000e+00 4.8000000e+01 
7.5000000e-01 3.0000000e+00 4.8500000e+01 
7.5000000e-01 3.0000000e+00 4.9000000e+01 
7.5000000e-01 3.0000000e+00 4.9500000e+01 
7.5000000e-01 3.0250001e+00 0.0000000e+00 
7.5000000e-01 3.0250001e+00 5.0000000e-01 
7.5000000e-01 3.0250001e+00 1.0000000e+00 
7.5000000e-01 3.0250001e+00 1.5000000e+00 
7.5000000e-01 3.0250001e+00 2.0000000e+00 
7.5000000e-01 3.0250001e+00 2.5000000e+00 
7.5000000e-01 3.0250001e+00 3.0000000e+00 
7.5000000e-01 3.0250001e+00 3.5000000e+00 
7.5000000e-01 3.0250001e+00 4.0000000e+00 
7.5000000e-01 3.0250001e+00 4.5000000e+00 
7.5000000e-01 3.0250001e+00 5.0000000e+00 
7.5000000e-01 3.0250001e+00 5.5000000e+00 
7.5000000e-01 3.0250001e+00 6.0000000e+00 
7.5000000e-01 3.0250001e+00 6.5000000e+00 
7.5000000e-01 3.0250001e+00 7.0000000e+00 
7.5000000e-01 3.0250001e+00 7.5000000e+00 
7.5000000e-01 3.0250001e+00 8.0000000e+00 
7.5000000e-01 3.0250001e+00 8.5000000e+00 
7.5000000e-01 3.0250001e+00 9.0000000e+00 
7.5000000e-01 3.0250001e+00 9.5000000e+00 
7.5000000e-01 3.0250001e+00 1.0000000e+01 
7.5000000e-01 3.0250001e+00 1.0500000e+01 
7.5000000e-01 3.0250001e+00 1.1000000e+01 
7.5000000e-01 3.0250001e+00 1.1500000e+01 
7.5000000e-01 3.0250001e+00 1.2000000e+01 
7.5000000e-01 3.0250001e+00 1.2500000e+01 
7.5000000e-01 3.0250001e+00 1.3000000e+01 
7.5000000e-01 3.0250001e+00 1.3500000e+01 
7.5000000e-01 3.0250001e+00 1.4000000e+01 
7.5000000e-01 3.0250001e+00 1.4500000e+01 
7.5000000e-01 3.0250001e+00 1.5000000e+01 
7.5000000e-01 3.0250001e+00 1.5500000e+01 
7.5000000e-01 3.0250001e+00 1.6000000e+01 
7.5000000e-01 3.0250001e+00 1.6500000e+01 
7.5000000e-01 3.0250001e+00 1.7000000e+01 
7.5000000e-01 3.0250001e+00 1.7500000e+01 
7.5000000e-01 3.0250001e+00 1.8000000e+01 
7.5000000e-01 3.0250001e+00 1.8500000e+01 
7.5000000e-01 3.0250001e+00 1.9000000e+01 
7.5000000e-01 3.0250001e+00 1.9500000e+01 
7.5000000e-01 3.0250001e+00 2.0000000e+01 
7.5000000e-01 3.0250001e+00 2.0500000e+01 
7.5000000e-01 3.0250001e+00 2.1000000e+01 
7.5000000e-01 3.0250001e+00 2.1500000e+01 
7.5000000e-01 3.0250001e+00 2.2000000e+01 
7.5000000e-01 3.0250001e+00 2.2500000e+01 
7.5000000e-01 3.0250001e+00 2.3000000e+01 
7.5000000e-01 3.0250001e+00 2.3500000e+01 
7.5000000e-01 3.0250001e+00 2.4000000e+01 
7.5000000e-01 3.0250001e+00 2.4500000e+01 
7.5000000e-01 3.0250001e+00 2.5000000e+01 
7.5000000e-01 3.0250001e+00 2.5500000e+01 
7.5000000e-01 3.0250001e+00 2.6000000e+01 
7.5000000e-01 3.0250001e+00 2.6500000e+01 
7.5000000e-01 3.0250001e+00 2.7000000e+01 
7.5000000e-01 3.0250001e+00 2.7500000e+01 
7.5000000e-01 3.0250001e+00 2.8000000e+01 
7.5000000e-01 3.0250001e+00 2.8500000e+01 
7.5000000e-01 3.0250001e+00 2.9000000e+01 
7.5000000e-01 3.0250001e+00 2.9500000e+01 
7.5000000e-01 3.0250001e+00 3.0000000e+01 
7.5000000e-01 3.0250001e+00 3.0500000e+01 
7.5000000e-01 3.0250001e+00 3.1000000e+01 
7.5000000e-01 3.0250001e+00 3.1500000e+01 
7.5000000e-01 3.0250001e+00 3.2000000e+01 
7.5000000e-01 3.0250001e+00 3.2500000e+01 
7.5000000e-01 3.0250001e+00 3.3000000e+01 
7.5000000e-01 3.0250001e+00 3.3500000e+01 
7.5000000e-01 3.0250001e+00 3.4000000e+01 
7.5000000e-01 3.0250001e+00 3.4500000e+01 
7.5000000e-01 3.0250001e+00 3.5000000e+01 
7.5000000e-01 3.0250001e+00 3.5500000e+01 
7.5000000e-01 3.0250001e+00 3.6000000e+01 
7.5000000e-01 3.0250001e+00 3.6500000e+01 
7.5000000e-01 3.0250001e+00 3.7000000e+01 
7.5000000e-01 3.0250001e+00 3.7500000e+01 
7.5000000e-01 3.0250001e+00 3.8000000e+01 
7.5000000e-01 3.0250001e+00 3.8500000e+01 
7.5000000e-01 3.0250001e+00 3.9000000e+01 
7.5000000e-01 3.0250001e+00 3.9500000e+01 
7.5000000e-01 3.0250001e+00 4.0000000e+01 
7.5000000e-01 3.0250001e+00 4.0500000e+01 
7.5000000e-01 3.0250001e+00 4.1000000e+01 
7.5000000e-01 3.0250001e+00 4.1500000e+01 
7.5000000e-01 3.0250001e+00 4.2000000e+01 
7.5000000e-01 3.0250001e+00 4.2500000e+01 
7.5000000e-01 3.0250001e+00 4.3000000e+01 
7.5000000e-01 3.0250001e+00 4.3500000e+01 
7.5000000e-01 3.0250001e+00 4.4000000e+01 
7.5000000e-01 3.0250001e+00 4.4500000e+01 
7.5000000e-01 3.0250001e+00 4.5000000e+01 
7.5000000e-01 3.0250001e+00 4.5500000e+01 
7.5000000e-01 3.0250001e+00 4.6000000e+01 
7.5000000e-01 3.0250001e+00 4.6500000e+01 
7.5000000e-01 3.0250001e+00 4.7000000e+01 
7.5000000e-01 3.0250001e+00 4.7500000e+01 
7.5000000e-01 3.0250001e+00 4.8000000e+01 
7.5000000e-01 3.0250001e+00 4.8500000e+01 
7.5000000e-01 3.0250001e+00 4.9000000e+01 
7.5000000e-01 3.0250001e+00 4.9500000e+01 
7.5000000e-01 3.0250001e+00 5.0000000e+01 
3.0000000e+00 2.0000000e+00 3.6000000e+01 
8.0487806e-01 3.0000000e+00 3.6000000e+01 
0.0000000e+00 0.0000000e+00 2.0000000e+00 
0.0000000e+00 0.0000000e+00 4.0000000e+00 
0.0000000e+00 0.0000000e+00 6.0000000e+00 
0.0000000e+00 0.0000000e+00 8.0000000e+00 
0.0000000e+00 0.0000000e+00 1.0000000e+01 
0.0000000e+00 0.0000000e+00 1.2000000e+01 
0.0000000e+00 0.0000000e+00 1.4000000e+01 
0.0000000e+00 0.0000000e+00 1.6000000e+01 
[...]
POINT_DATA 766
FIELD FieldData 3
DISPLACEMENT 3 766  float
0.0000000e+00 0.0000000e+00 0.0000000e+00 
0.0000000e+00 0.0000000e+00 0.0000000e+00 
0.0000000e+00 0.0000000e+00 0.0000000e+00 
0.0000000e+00 0.0000000e+00 0.0000000e+00 
5.8717222e-07 5.6329833e-07 2.5012830e-06 
-2.7364783e-06 -3.7129126e-07 -2.9712308e-07 
0.0000000e+00 -1.0539361e-05 0.0000000e+00 
0.0000000e+00 -1.6384371e-05 0.0000000e+00 
1.0607673e-06 1.5512202e-07 3.3446081e-06 
-3.8441458e-06 1.0900946e-07 3.9991883e-06 
-1.8813514e-06 1.0180036e-06 5.0120557e-06 
3.1243369e-06 -3.7566756e-06 -6.9738649e-06 
0.0000000e+00 -2.1702841e-05 0.0000000e+00 
0.0000000e+00 -3.0682095e-05 0.0000000e+00 
-7.7033746e-06 -9.2528453e-06 1.2090141e-05 
-1.3762834e-05 -1.2370580e-05 3.3158260e-05 
-1.9853995e-05 -2.6378388e-05 2.2347626e-06 
-2.9876188e-05 1.8707819e-05 1.3030388e-05 
0.0000000e+00 -1.0263989e-05 0.0000000e+00 
0.0000000e+00 -4.1059975e-05 0.0000000e+00 
-1.6341297e-05 -2.5642952e-05 -1.1308465e-05 
-1.2166944e-05 -2.4430887e-05 -1.3988682e-05 
-1.7688160e-05 -2.3363373e-05 -1.7723487e-05 
-1.2837334e-05 -2.9756720e-05 -1.2592048e-05 
-1.6294525e-05 -4.3596352e-05 -4.7702206e-06 
-5.4529628e-06 -5.9499092e-05 -2.7270198e-06 
-1.1770529e-05 -7.2878174e-05 -2.0844741e-06 
-3.3043950e-06 -7.7772733e-05 3.3726290e-06 
-5.1330130e-06 -7.9437370e-05 -2.3843761e-06 
-8.3044915e-06 -8.9825109e-05 4.3225334e-08 
-9.2706341e-07 -1.1475867e-04 5.9243268e-07 
1.1783574e-06 -1.3809364e-04 -1.8057189e-06 
-6.3190687e-06 -1.4296612e-04 1.3067010e-05 
-1.6707219e-05 -1.2801099e-04 2.0348511e-06 
-1.7796679e-05 -1.0562805e-04 -9.7001621e-06 
-2.5505637e-05 -8.8138011e-05 -1.2149210e-05 
-2.1362073e-05 -7.9702266e-05 -3.0995405e-05 
-2.0376843e-05 -7.0545961e-05 -2.9159526e-05 
-1.7627506e-05 -4.4332159e-05 -1.1864427e-05 
-2.2056010e-05 -1.5829246e-05 -1.5559708e-05 
-1.8668645e-05 1.9910660e-06 -1.5371912e-05 
-1.9476904e-06 6.5229701e-06 1.2991632e-05 
-2.8025832e-05 4.0357254e-06 -3.4200430e-06 
-1.7788029e-06 1.7918009e-06 -1.0815720e-05 
-9.7818620e-06 1.7538758e-06 2.5794114e-05 
-2.1246913e-06 -4.6332634e-06 7.7229679e-06 
1.2425410e-05 -3.4869114e-05 -5.3299459e-06 
1.9305935e-05 -4.5529665e-05 4.4781009e-05 
3.6758083e-05 -2.1080632e-05 2.1097325e-05 
7.3951892e-06 5.0859849e-06 1.4894984e-05 
3.4889083e-05 1.6797048e-06 7.4272881e-05 
-2.1884243e-05 -8.5162792e-05 5.4961936e-05 
-8.0803402e-05 -2.6806595e-04 8.9366906e-05 
-4.8279417e-05 -5.3138827e-04 1.2669725e-04 
-1.1973562e-04 -9.0520951e-04 1.6664388e-04 
-1.3130026e-04 -1.4945581e-03 1.1928706e-04 
-2.8703280e-04 -2.3944562e-03 1.8784696e-04 
-3.0710505e-04 -3.4497406e-03 1.8571716e-04 
-2.1437304e-04 -4.3197535e-03 1.2241340e-04 
-1.7955770e-04 -4.3638851e-03 1.2858544e-04 
-2.7830707e-04 -4.1121757e-03 6.6078312e-05 
-3.7702714e-04 -4.0056119e-03 6.4261782e-05 
-2.6533971e-04 -4.2351102e-03 3.4989629e-05 
-1.2116523e-04 -4.3024300e-03 -1.6143698e-05 
-1.3889783e-04 -3.6879382e-03 -9.8134209e-05 
-2.2963226e-04 -2.7074576e-03 -1.4605743e-04 
-2.1021649e-04 -1.8087475e-03 -1.6274645e-04 
-7.9908401e-05 -1.0970790e-03 -1.0611989e-04 
-4.6255624e-05 -6.3324248e-04 -1.4692583e-04 
-4.4640536e-05 -3.5306890e-04 -1.2377712e-04 
-3.4510231e-05 -1.9243381e-04 -1.0079652e-04 
-2.6184089e-05 -1.1338024e-04 -7.8133409e-05 
-2.6448486e-05 -9.7373006e-05 -5.4836364e-05 
-2.4886398e-05 -1.0600698e-04 -4.6199111e-05 
-3.0390787e-05 -1.0317144e-04 -4.0644671e-05 
-4.1401807e-05 -9.1188092e-05 -4.9629867e-05 
-3.8344017e-05 -8.5757689e-05 -6.6733228e-05 
-4.2013369e-05 -9.3129798e-05 -4.8877606e-05 
-4.7244812e-05 -9.5916352e-05 -4.4944667e-05 
-3.7227026e-05 -8.3687606e-05 -6.8959409e-05 
-2.8443299e-05 -5.0652179e-05 -5.2623225e-05 
-1.4280793e-05 -1.3309416e-05 -5.4069526e-05 
-2.2079672e-05 4.1052926e-06 -9.6870346e-05 
1.4401584e-05 2.2661210e-05 -8.5300460e-05 
1.8251767e-05 5.7473389e-05 -6.5122214e-05 
2.3461154e-05 9.8777833e-05 -6.9468886e-05 
6.4416905e-05 1.2781002e-04 -4.9648857e-05 
2.3802431e-05 1.4973459e-04 -1.7165014e-06 
7.2905277e-05 1.7694719e-04 -1.1221772e-05 
5.0506715e-05 2.1515191e-04 2.7798420e-05 
3.3291235e-05 2.5664072e-04 1.1828521e-04 
5.7792065e-05 2.0380916e-04 1.0133364e-04 
-8.7712120e-05 1.7327025e-06 9.7587385e-05 
-1.4990337e-05 -3.4926250e-04 1.9507574e-04 
-8.1591810e-05 -8.6294272e-04 2.3700064e-04 
-1.3136737e-04 -1.5397924e-03 1.3378022e-04 
-2.3302651e-04 -2.4184952e-03 2.1492493e-04 
-3.2226750e-04 -3.3814185e-03 1.8301603e-04 
-1.8272192e-04 -4.1612689e-03 9.8240947e-05 
-1.8005850e-04 -4.1906307e-03 1.0715094e-04 
-2.9641850e-04 -3.9979159e-03 5.7437686e-05 
-3.4612688e-04 -3.9465097e-03 2.0324878e-05 
-2.2139674e-04 -4.1567320e-03 -2.8343491e-05 
-6.1379367e-05 -4.1303523e-03 -6.0946546e-05 
-7.4324766e-05 -3.3914868e-03 -1.5857353e-04 
-1.5654384e-04 -2.3277733e-03 -1.8224285e-04 
-1.5570207e-04 -1.4085810e-03 -1.5546102e-04 
-4.5752182e-05 -7.1983633e-04 -7.3041389e-05 
-2.1117126e-05 -2.8098084e-04 -1.0810242e-04 
-1.7593627e-05 -2.1645796e-05 -8.0380611e-05 
-1.9035453e-05 1.0911068e-04 -7.0014401e-05 
-8.8907191e-06 1.5376572e-04 -6.4475586e-05 
2.6350090e-06 1.4572483e-04 -4.3771237e-05 
1.1318519e-05 1.2045363e-04 -2.4098681e-05 
8.9281011e-06 1.0030599e-04 -8.5603006e-06 
5.9321992e-06 8.3422121e-05 1.8302708e-05 
1.1801332e-06 6.5600500e-05 3.5679110e-05 
-3.6625956e-06 4.5335000e-05 4.1387812e-05 
-9.7654638e-06 2.6366279e-05 4.8733640e-05 
0.0000000e+00 -2.6503676e-05 0.0000000e+00 
0.0000000e+00 -2.5700423e-05 0.0000000e+00 
0.0000000e+00 -2.3949679e-05 0.0000000e+00 
0.0000000e+00 -2.3522460e-05 0.0000000e+00 
0.0000000e+00 -2.9917461e-05 0.0000000e+00 
0.0000000e+00 -4.3685195e-05 0.0000000e+00 
0.0000000e+00 -5.9900693e-05 0.0000000e+00 
0.0000000e+00 -7.2397779e-05 0.0000000e+00 
0.0000000e+00 -7.7195109e-05 0.0000000e+00 
0.0000000e+00 -7.9602913e-05 0.0000000e+00 
0.0000000e+00 -9.0975860e-05 0.0000000e+00 
0.0000000e+00 -1.1502199e-04 0.0000000e+00 
0.0000000e+00 -1.3757944e-04 0.0000000e+00 
0.0000000e+00 -1.4229625e-04 0.0000000e+00 
0.0000000e+00 -1.2769739e-04 0.0000000e+00 
0.0000000e+00 -1.0596145e-04 0.0000000e+00 
0.0000000e+00 -8.9085443e-05 0.0000000e+00 
0.0000000e+00 -8.0190599e-05 0.0000000e+00 
0.0000000e+00 -6.8967151e-05 0.0000000e+00 
0.0000000e+00 -4.4316479e-05 0.0000000e+00 
0.0000000e+00 -1.6228030e-05 0.0000000e+00 
0.0000000e+00 1.6105613e-06 0.0000000e+00 
0.0000000e+00 6.0960833e-06 0.0000000e+00 
0.0000000e+00 4.4113667e-06 0.0000000e+00 
0.0000000e+00 2.8062066e-06 0.0000000e+00 
0.0000000e+00 2.2532677e-06 0.0000000e+00 
0.0000000e+00 -7.8221210e-06 0.0000000e+00 
0.0000000e+00 -3.3993521e-05 0.0000000e+00 
0.0000000e+00 -4.3394724e-05 0.0000000e+00 
0.0000000e+00 -2.0646059e-05 0.0000000e+00 
0.0000000e+00 7.4130926e-06 0.0000000e+00 
0.0000000e+00 -4.3119255e-07 0.0000000e+00 
0.0000000e+00 -8.7648317e-05 0.0000000e+00 
0.0000000e+00 -2.6623119e-04 0.0000000e+00 
0.0000000e+00 -5.2758539e-04 0.0000000e+00 
0.0000000e+00 -9.0508716e-04 0.0000000e+00 
0.0000000e+00 -1.5051836e-03 0.0000000e+00 
0.0000000e+00 -2.4047114e-03 0.0000000e+00 
0.0000000e+00 -3.4864666e-03 0.0000000e+00 
0.0000000e+00 -4.3416405e-03 0.0000000e+00 
0.0000000e+00 -4.3896916e-03 0.0000000e+00 
0.0000000e+00 -4.1260668e-03 0.0000000e+00 
0.0000000e+00 -4.0400648e-03 0.0000000e+00 
0.0000000e+00 -4.2571374e-03 0.0000000e+00 
0.0000000e+00 -4.3358603e-03 0.0000000e+00 
0.0000000e+00 -3.7041334e-03 0.0000000e+00 
0.0000000e+00 -2.7259693e-03 0.0000000e+00 
0.0000000e+00 -1.8117365e-03 0.0000000e+00 
0.0000000e+00 -1.1023268e-03 0.0000000e+00 
0.0000000e+00 -6.3262298e-04 0.0000000e+00 
0.0000000e+00 -3.5114287e-04 0.0000000e+00 
0.0000000e+00 -1.9178494e-04 0.0000000e+00 
0.0000000e+00 -1.1498215e-04 0.0000000e+00 
0.0000000e+00 -9.7264128e-05 0.0000000e+00 
0.0000000e+00 -1.0361640e-04 0.0000000e+00 
0.0000000e+00 -1.0233004e-04 0.0000000e+00 
0.0000000e+00 -9.1912349e-05 0.0000000e+00 
0.0000000e+00 -8.7063549e-05 0.0000000e+00 
0.0000000e+00 -9.2870243e-05 0.0000000e+00 
0.0000000e+00 -9.5612559e-05 0.0000000e+00 
0.0000000e+00 -8.2504826e-05 0.0000000e+00 
0.0000000e+00 -5.0335835e-05 0.0000000e+00 
0.0000000e+00 -1.5720800e-05 0.0000000e+00 
0.0000000e+00 4.5085330e-06 0.0000000e+00 
0.0000000e+00 2.4097124e-05 0.0000000e+00 
0.0000000e+00 5.7898538e-05 0.0000000e+00 
0.0000000e+00 9.7948505e-05 0.0000000e+00 
0.0000000e+00 1.2714806e-04 0.0000000e+00 
0.0000000e+00 1.4937288e-04 0.0000000e+00 
0.0000000e+00 1.7776032e-04 0.0000000e+00 
0.0000000e+00 2.2031722e-04 0.0000000e+00 
0.0000000e+00 2.5536871e-04 0.0000000e+00 
0.0000000e+00 2.0134643e-04 0.0000000e+00 
0.0000000e+00 1.8494633e-06 0.0000000e+00 
0.0000000e+00 -3.5119508e-04 0.0000000e+00 
0.0000000e+00 -8.6124497e-04 0.0000000e+00 
0.0000000e+00 -1.5457034e-03 0.0000000e+00 
0.0000000e+00 -2.4272448e-03 0.0000000e+00 
0.0000000e+00 -3.4189366e-03 0.0000000e+00 
0.0000000e+00 -4.1849311e-03 0.0000000e+00 
0.0000000e+00 -4.2183637e-03 0.0000000e+00 
0.0000000e+00 -4.0110461e-03 0.0000000e+00 
0.0000000e+00 -3.9773262e-03 0.0000000e+00 
0.0000000e+00 -4.1779848e-03 0.0000000e+00 
0.0000000e+00 -4.1633146e-03 0.0000000e+00 
0.0000000e+00 -3.4084925e-03 0.0000000e+00 
0.0000000e+00 -2.3470810e-03 0.0000000e+00 
0.0000000e+00 -1.4115520e-03 0.0000000e+00 
0.0000000e+00 -7.2286272e-04 0.0000000e+00 
0.0000000e+00 -2.7995359e-04 0.0000000e+00 
0.0000000e+00 -2.1522963e-05 0.0000000e+00 
0.0000000e+00 1.0942758e-04 0.0000000e+00 
0.0000000e+00 1.5417559e-04 0.0000000e+00 
0.0000000e+00 1.4681814e-04 0.0000000e+00 
0.0000000e+00 1.2158186e-04 0.0000000e+00 
0.0000000e+00 9.9987039e-05 0.0000000e+00 
0.0000000e+00 8.3121507e-05 0.0000000e+00 
0.0000000e+00 6.5593478e-05 0.0000000e+00 
0.0000000e+00 4.5294179e-05 0.0000000e+00 
0.0000000e+00 2.6642369e-05 0.0000000e+00 
0.0000000e+00 1.8779172e-05 0.0000000e+00 
1.9084431e-05 4.2233660e-05 3.1564341e-05 
3.7912072e-05 2.1060121e-04 9.7152559e-05 
0.0000000e+00 0.0000000e+00 0.0000000e+00 
0.0000000e+00 0.0000000e+00 0.0000000e+00 
0.0000000e+00 0.0000000e+00 0.0000000e+00 
0.0000000e+00 0.0000000e+00 0.0000000e+00 
0.0000000e+00 0.0000000e+00 0.0000000e+00 
0.0000000e+00 0.0000000e+00 0.0000000e+00 
0.0000000e+00 0.0000000e+00 0.0000000e+00 
0.0000000e+00 0.0000000e+00 0.0000000e+00 
0.0000000e+00 0.0000000e+00 0.0000000e+00 
0.0000000e+00 0.0000000e+00 0.0000000e+00 
0.0000000e+00 0.0000000e+00 0.0000000e+00 
0.0000000e+00 0.0000000e+00 0.0000000e+00 
0.0000000e+00 0.0000000e+00 0.0000000e+00 
0.0000000e+00 0.0000000e+00 0.0000000e+00 
0.0000000e+00 0.0000000e+00 0.0000000e+00 
0.0000000e+00 0.0000000e+00 0.0000000e+00 
0.0000000e+00 0.0000000e+00 0.0000000e+00 
0.0000000e+00 0.0000000e+00 0.0000000e+00 
0.0000000e+00 0.0000000e+00 0.0000000e+00 
0.0000000e+00 0.0000000e+00 0.0000000e+00 
0.0000000e+00 0.0000000e+00 0.0000000e+00 
0.0000000e+00 0.0000000e+00 0.0000000e+00 
0.0000000e+00 0.0000000e+00 0.0000000e+00 
0.0000000e+00 0.0000000e+00 0.0000000e+00 
0.0000000e+00 0.0000000e+00 0.0000000e+00 
0.0000000e+00 0.0000000e+00 0.0000000e+00 
0.0000000e+00 0.0000000e+00 0.0000000e+00 
0.0000000e+00 0.0000000e+00 0.0000000e+00 
0.0000000e+00 0.0000000e+00 0.0000000e+00 
0.0000000e+00 0.0000000e+00 0.0000000e+00 
0.0000000e+00 0.0000000e+00 0.0000000e+00 
0.0000000e+00 0.0000000e+00 0.0000000e+00 
0.0000000e+00 0.0000000e+00 0.0000000e+00 
0.0000000e+00 0.0000000e+00 0.0000000e+00 
0.0000000e+00 0.0000000e+00 0.0000000e+00 
0.0000000e+00 0.0000000e+00 0.0000000e+00 
0.0000000e+00 0.0000000e+00 0.0000000e+00 
0.0000000e+00 0.0000000e+00 0.0000000e+00 
0.0000000e+00 0.0000000e+00 0.0000000e+00 
0.0000000e+00 0.0000000e+00 0.0000000e+00 
0.0000000e+00 0.0000000e+00 0.0000000e+00 
0.0000000e+00 0.0000000e+00 0.0000000e+00 
0.0000000e+00 0.0000000e+00 0.0000000e+00 
0.0000000e+00 0.0000000e+00 0.0000000e+00 
0.0000000e+00 0.0000000e+00 0.0000000e+00 
0.0000000e+00 0.0000000e+00 0.0000000e+00 
0.0000000e+00 0.0000000e+00 0.0000000e+00 
0.0000000e+00 0.0000000e+00 0.0000000e+00 
0.0000000e+00 0.0000000e+00 0.0000000e+00 
0.0000000e+00 0.0000000e+00 0.0000000e+00 
0.0000000e+00 0.0000000e+00 0.0000000e+00 
0.0000000e+00 0.0000000e+00 0.0000000e+00 
6.2081506e-07 9.7265013e-07 -1.2315459e-06 
3.3070432e-06 1.9803108e-06 -6.6967004e-06 
2.1548926e-06 -1.3604846e-06 -4.5135034e-06 
-8.6086322e-07 -1.6746461e-06 -3.5945428e-07 
-4.5852303e-06 -2.3454941e-06 2.2185250e-06 
-1.0382802e-05 2.2627833e-07 1.1073504e-06 
-2.7252499e-06 -3.4310492e-06 -1.0799505e-06 
1.4507274e-05 -2.2923246e-06 -4.2974930e-06 
3.7322847e-05 -1.5763522e-06 -8.3716477e-06 
5.6164674e-05 -1.8372857e-06 -3.2460632e-06 
5.1635245e-05 -2.8292259e-06 8.4767698e-06 
2.7943961e-05 -1.7102105e-06 5.1476927e-06 
9.0509429e-06 1.9600475e-06 6.0401902e-07 
2.2792947e-06 1.4022010e-06 -2.5783179e-06 
-1.9577853e-06 2.2771787e-06 -2.5158343e-07 
-8.2377946e-06 -1.7628653e-06 1.8262544e-06 
-4.0142459e-06 1.3339335e-06 2.8156562e-06 
1.0371597e-05 -2.2028630e-06 2.2558556e-06 
3.4486773e-05 -1.1811780e-05 -6.9676412e-06 
5.4236229e-05 -1.2043955e-05 -1.1673469e-06 
4.1151899e-05 -8.7376875e-06 1.5672973e-05 
1.9929563e-05 -1.2683093e-06 1.3813084e-05 
3.9940019e-06 2.0847151e-06 3.8361250e-06 
9.8255964e-07 3.1425757e-06 -4.8731663e-06 
0.0000000e+00 -1.3901817e-05 0.0000000e+00 
0.0000000e+00 4.6224113e-07 0.0000000e+00 
0.0000000e+00 -1.6634600e-05 0.0000000e+00 
0.0000000e+00 -2.6738480e-05 0.0000000e+00 
0.0000000e+00 -3.7695296e-05 0.0000000e+00 
0.0000000e+00 -2.5612251e-05 0.0000000e+00 
0.0000000e+00 1.6861066e-05 0.0000000e+00 
0.0000000e+00 -8.3662482e-05 0.0000000e+00 
0.0000000e+00 -2.3729206e-04 0.0000000e+00 
0.0000000e+00 -5.4215139e-04 0.0000000e+00 
0.0000000e+00 -5.4462592e-04 0.0000000e+00 
0.0000000e+00 -2.1842124e-04 0.0000000e+00 
0.0000000e+00 -4.8766462e-05 0.0000000e+00 
0.0000000e+00 -3.8322873e-05 0.0000000e+00 
0.0000000e+00 -5.4070053e-05 0.0000000e+00 
0.0000000e+00 2.0209131e-05 0.0000000e+00 
0.0000000e+00 5.2654806e-05 0.0000000e+00 
0.0000000e+00 6.0654406e-06 0.0000000e+00 
0.0000000e+00 -2.0282452e-04 0.0000000e+00 
0.0000000e+00 -5.5280019e-04 0.0000000e+00 
0.0000000e+00 -5.2854075e-04 0.0000000e+00 
0.0000000e+00 -1.1975507e-04 0.0000000e+00 
0.0000000e+00 2.8216735e-05 0.0000000e+00 
0.0000000e+00 2.9126033e-05 0.0000000e+00 
1.1801444e-06 -3.2498951e-07 1.2298169e-06 
3.3357783e-06 -7.6428041e-06 -2.3928014e-06 
2.9469504e-07 6.5897240e-08 -9.1874599e-06 
4.7969147e-06 -6.3620005e-06 -1.2639207e-05 
1.1723475e-07 3.7747434e-06 -1.7883550e-06 
-8.2010206e-07 5.0978306e-06 -6.0163934e-06 
-4.7359910e-07 -2.9629675e-06 -3.9940569e-06 
-4.0518859e-07 -2.1452474e-06 -3.3799367e-06 
-5.6424728e-06 -2.1822332e-06 2.3079856e-06 
-1.0011720e-05 1.4598810e-06 6.8680816e-07 
-5.2338983e-06 -5.3370104e-07 -9.8075066e-07 
1.7639597e-05 -3.6329620e-06 -9.0948906e-06 
3.5680987e-05 -1.2320702e-06 -3.2243315e-06 
3.8766135e-05 -1.4885064e-06 1.2815848e-06 
2.6355701e-05 3.4540514e-07 9.4745083e-06 
8.9655532e-06 3.9571451e-06 7.0406509e-07 
4.6794212e-06 1.8449235e-06 -4.5321322e-06 
2.2938241e-07 -1.9925558e-06 -6.1929491e-06 
-5.8860865e-06 -6.3734007e-07 3.3426581e-06 
-1.9657443e-06 1.5900041e-06 -3.1568052e-06 
3.9770675e-06 4.3192417e-06 3.8335447e-06 
2.2502756e-05 -4.7010308e-06 2.3832629e-06 
2.8233091e-05 -9.6328940e-06 5.9725562e-06 
3.4808803e-05 -1.3489994e-05 -8.9161887e-07 
3.5717083e-05 3.6495792e-06 1.1779047e-05 
2.0903157e-05 1.8686954e-06 7.0015553e-06 
9.5287523e-06 4.3655855e-06 2.6916066e-06 
6.4190608e-06 2.8009440e-06 -3.9401411e-06 
-4.4488188e-06 -1.2456340e-05 -2.8035595e-07 
0.0000000e+00 -1.2531942e-05 0.0000000e+00 
0.0000000e+00 -8.3964551e-06 0.0000000e+00 
0.0000000e+00 -4.7701735e-05 0.0000000e+00 
0.0000000e+00 -6.0217735e-05 0.0000000e+00 
0.0000000e+00 -1.9533509e-06 0.0000000e+00 
0.0000000e+00 -4.3847780e-05 0.0000000e+00 
0.0000000e+00 -7.9433601e-05 0.0000000e+00 
0.0000000e+00 -1.3392142e-05 0.0000000e+00 
0.0000000e+00 -5.2172545e-04 0.0000000e+00 
0.0000000e+00 -1.2639111e-03 0.0000000e+00 
0.0000000e+00 -1.1920257e-03 0.0000000e+00 
0.0000000e+00 -4.3916958e-04 0.0000000e+00 
0.0000000e+00 -7.2347000e-05 0.0000000e+00 
0.0000000e+00 -6.0494123e-05 0.0000000e+00 
0.0000000e+00 -3.6048998e-05 0.0000000e+00 
0.0000000e+00 -4.4262160e-05 0.0000000e+00 
0.0000000e+00 1.1255686e-04 0.0000000e+00 
0.0000000e+00 1.3791431e-04 0.0000000e+00 
0.0000000e+00 -5.4152968e-04 0.0000000e+00 
0.0000000e+00 -1.2191681e-03 0.0000000e+00 
0.0000000e+00 -1.1523198e-03 0.0000000e+00 
0.0000000e+00 -2.3220664e-04 0.0000000e+00 
0.0000000e+00 5.2837582e-05 0.0000000e+00 
0.0000000e+00 5.5602046e-05 0.0000000e+00 
5.8207052e-06 -6.3853222e-06 -5.5666919e-06 
-2.6789421e-05 -1.9611502e-05 -5.4955754e-06 
-2.9877385e-06 -6.3761596e-05 1.4351604e-05 
2.7081478e-06 -9.4764080e-05 -4.0887498e-06 
-3.5022174e-05 -7.7570679e-05 -4.0482850e-05 
-2.8709441e-05 -8.1833077e-06 -3.8751266e-05 
-6.5382806e-06 9.2450473e-06 -2.7737983e-06 
3.6595386e-05 -2.0915848e-05 6.2307110e-05 
-1.5591202e-06 -5.6146990e-05 1.0637898e-04 
-3.1868907e-04 -5.5140309e-04 3.1379325e-04 
-7.3294219e-04 -1.4711838e-03 1.3283698e-04 
-6.5676920e-04 -1.5180886e-03 -9.8524288e-05 
-1.6883908e-04 -4.3024000e-04 -2.3608215e-04 
-1.5928079e-05 -1.0795268e-04 -1.0292600e-04 
-4.9592567e-05 -8.6817985e-05 -8.4174651e-05 
-4.0063471e-05 -4.6918496e-05 -1.0052195e-04 
4.5344273e-06 1.9674360e-05 -1.1061903e-04 
8.3374383e-05 1.4167065e-04 -3.2095297e-05 
5.8245285e-05 1.1043710e-04 1.4045282e-04 
-2.9422407e-04 -4.8015692e-04 3.4737177e-04 
-7.0705981e-04 -1.3536218e-03 9.0228859e-05 
-5.8775488e-04 -1.4429712e-03 -1.6178683e-04 
-1.1354633e-04 -1.9724900e-04 -1.8563092e-04 
9.5251207e-06 8.1679413e-05 -6.4304819e-05 
1.1967955e-05 6.0308310e-05 5.0572880e-06 
0.0000000e+00 -2.9416518e-05 0.0000000e+00 
0.0000000e+00 -3.9666767e-05 0.0000000e+00 
0.0000000e+00 -1.0276291e-04 0.0000000e+00 
0.0000000e+00 -5.3622691e-05 0.0000000e+00 
0.0000000e+00 -6.0142706e-06 0.0000000e+00 
0.0000000e+00 -1.2121256e-04 0.0000000e+00 
0.0000000e+00 -5.0790928e-05 0.0000000e+00 
0.0000000e+00 3.6615074e-05 0.0000000e+00 
0.0000000e+00 -9.1136253e-04 0.0000000e+00 
0.0000000e+00 -2.4344050e-03 0.0000000e+00 
0.0000000e+00 -2.3025516e-03 0.0000000e+00 
0.0000000e+00 -7.2536420e-04 0.0000000e+00 
0.0000000e+00 -5.7526340e-05 0.0000000e+00 
0.0000000e+00 -4.6815476e-05 0.0000000e+00 
0.0000000e+00 -1.0204875e-04 0.0000000e+00 
0.0000000e+00 -6.8087007e-05 0.0000000e+00 
0.0000000e+00 1.8299199e-04 0.0000000e+00 
0.0000000e+00 2.1545032e-04 0.0000000e+00 
0.0000000e+00 -1.0046840e-03 0.0000000e+00 
0.0000000e+00 -2.3961435e-03 0.0000000e+00 
0.0000000e+00 -2.2070154e-03 0.0000000e+00 
0.0000000e+00 -3.9174067e-04 0.0000000e+00 
0.0000000e+00 1.1697481e-04 0.0000000e+00 
0.0000000e+00 7.3804928e-05 0.0000000e+00 
-6.7477986e-06 -3.0316252e-07 -7.3065039e-06 
2.0533207e-06 -1.1129529e-05 -7.6123342e-06 
4.1909036e-07 -2.2739203e-05 -5.4508864e-06 
-7.2528665e-06 -1.0774199e-05 -5.2160626e-06 
-1.5693751e-05 1.4538374e-06 -5.4866468e-06 
-8.7026419e-06 8.2713304e-06 8.2362840e-07 
8.1799617e-06 1.2107427e-05 1.0562240e-05 
2.5098085e-05 1.2927371e-05 1.9603223e-05 
5.3265470e-05 -6.7031928e-05 1.3784323e-05 
4.2919033e-05 -1.1946325e-04 3.1464449e-06 
3.7675978e-05 -1.2283229e-04 1.1677078e-05 
4.1005140e-05 -8.2365434e-05 -9.1705368e-07 
1.0802215e-06 -1.2328750e-05 -1.8493389e-05 
-9.0740286e-06 -8.6021955e-06 -2.1990090e-05 
-1.1367543e-05 -1.0742086e-05 -2.3227540e-05 
-4.5166666e-06 1.0074566e-05 -2.2122211e-05 
7.9119154e-06 4.0090123e-05 9.2178931e-07 
4.1259507e-05 -6.9807422e-05 2.2260652e-05 
4.9687584e-05 -1.1810648e-04 -5.4901438e-06 
3.7651487e-05 -1.1238022e-04 1.4063911e-05 
3.4068275e-05 -2.7072332e-05 1.0422276e-05 
7.4312711e-06 1.8105982e-05 -6.2475046e-06 
2.9485020e-06 1.9272191e-05 -1.0776736e-05 
4.5291501e-05 1.0488913e-04 8.7845976e-05 
0.0000000e+00 0.0000000e+00 0.0000000e+00 
0.0000000e+00 0.0000000e+00 0.0000000e+00 
0.0000000e+00 0.0000000e+00 0.0000000e+00 