# vtk DataFile Version 4.0
vtk output
ASCII
DATASET UNSTRUCTURED_GRID
POINTS 1919 float
0.0000000e+00 0.0000000e+00 0.0000000e+00 
0.0000000e+00 0.0000000e+00 5.0000000e+01 
5.0000000e+00 0.0000000e+00 0.0000000e+00 
5.0000000e+00 0.0000000e+00 5.0000000e+01 
5.0000000e+00 1.0000000e+00 0.0000000e+00 
5.0000000e+00 1.0000000e+00 5.0000000e+01 
0.0000000e+00 1.0000000e+00 0.0000000e+00 
0.0000000e+00 1.0000000e+00 5.0000000e+01 
5.0000000e+00 2.0000000e+00 0.0000000e+00 
5.0000000e+00 2.0000000e+00 5.0000000e+01 
3.0000000e+00 2.0000000e+00 0.0000000e+00 
3.0000000e+00 2.0000000e+00 5.0000000e+01 
0.0000000e+00 2.0000000e+00 0.0000000e+00 
0.0000000e+00 2.0000000e+00 5.0000000e+01 
1.5000000e+00 3.0000000e+00 0.0000000e+00 
1.5000000e+00 3.0000000e+00 5.0000000e+01 
7.5000000e-01 3.0000000e+00 0.0000000e+00 
7.5000000e-01 3.0000000e+00 5.0000000e+01 
0.0000000e+00 3.0000000e+00 0.0000000e+00 
0.0000000e+00 3.0000000e+00 5.0000000e+01 
7.5000000e-01 3.0000000e+00 5.0000000e-01 
7.5000000e-01 3.0000000e+00 1.0000000e+00 
7.5000000e-01 3.0000000e+00 1.5000000e+00 
7.5000000e-01 3.0000000e+00 2.0000000e+00 
7.5000000e-01 3.0000000e+00 2.5000000e+00 
7.5000000e-01 3.0000000e+00 3.0000000e+00 
7.5000000e-01 3.0000000e+00 3.5000000e+00 
7.5000000e-01 3.0000000e+00 4.0000000e+00 
7.5000000e-01 3.0000000e+00 4.5000000e+00 
7.5000000e-01 3.0000000e+00 5.0000000e+00 
7.5000000e-01 3.0000000e+00 5.5000000e+00 
7.5000000e-01 3.0000000e+00 6.0000000e+00 
7.5000000e-01 3.0000000e+00 6.5000000e+00 
7.5000000e-01 3.0000000e+00 7.0000000e+00 
7.5000000e-01 3.0000000e+00 7.5000000e+00 
7.5000000e-01 3.0000000e+00 8.0000000e+00 
7.5000000e-01 3.0000000e+00 8.5000000e+00 
7.5000000e-01 3.0000000e+00 9.0000000e+00 
7.5000000e-01 3.0000000e+00 9.5000000e+00 
7.5000000e-01 3.0000000e+00 1.0000000e+01 
7.5000000e-01 3.0000000e+00 1.0500000e+01 
7.5000000e-01 3.0000000e+00 1.1000000e+01 
7.5000000e-01 3.0000000e+00 1.1500000e+01 
7.5000000e-01 3.0000000e+00 1.2000000e+01 
7.5000000e-01 3.0000000e+00 1.2500000e+01 
7.5000000e-01 3.0000000e+00 1.3000000e+01 
7.5000000e-01 3.0000000e+00 1.3500000e+01 
7.5000000e-01 3.0000000e+00 1.4000000e+01 
7.5000000e-01 3.0000000e+00 1.4500000e+01 
7.5000000e-01 3.0000000e+00 1.5000000e+01 
7.5000000e-01 3.0000000e+00 1.5500000e+01 
7.5000000e-01 3.0000000e+00 1.6000000e+01 
7.5000000e-01 3.0000000e+00 1.6500000e+01 
7.5000000e-01 3.0000000e+00 1.7000000e+01 
7.5000000e-01 3.0000000e+00 1.7500000e+01 
7.5000000e-01 3.0000000e+00 1.8000000e+01 
7.5000000e-01 3.0000000e+00 1.8500000e+01 
7.5000000e-01 3.0000000e+00 1.9000000e+01 
7.5000000e-01 3.0000000e+00 1.9500000e+01 
7.5000000e-01 3.0000000e+00 2.0000000e+01 
7.5000000e-01 3.0000000e+00 2.0500000e+01 
7.5000000e-01 3.0000000e+00 2.1000000e+01 
7.5000000e-01 3.0000000e+00 2.1500000e+01 
7.5000000e-01 3.0000000e+00 2.2000000e+01 
7.5000000e-01 3.0000000e+00 2.2500000e+01 
7.5000000e-01 3.0000000e+00 2.3000000e+01 
7.5000000e-01 3.0000000e+00 2.3500000e+01 
7.5000000e-01 3.0000000e+00 2.4000000e+01 
7.5000000e-01 3.0000000e+00 2.4500000e+01 
7.5000000e-01 3.0000000e+00 2.5000000e+01 
7.5000000e-01 3.0000000e+00 2.5500000e+01 
7.5000000e-01 3.0000000e+00 2.6000000e+01 
7.5000000e-01 3.0000000e+00 2.6500000e+01 
7.5000000e-01 3.0000000e+00 2.7000000e+01 
7.5000000e-01 3.0000000e+00 2.7500000e+01 
7.5000000e-01 3.0000000e+00 2.8000000e+01 
7.5000000e-01 3.0000000e+00 2.8500000e+01 
7.5000000e-01 3.0000000e+00 2.9000000e+01 
7.5000000e-01 3.0000000e+00 2.9500000e+01 
7.5000000e-01 3.0000000e+00 3.0000000e+01 
7.5000000e-01 3.0000000e+00 3.0500000e+01 
7.5000000e-01 3.0000000e+00 3.1000000e+01 
7.5000000e-01 3.0000000e+00 3.1500000e+01 
7.5000000e-01 3.0000000e+00 3.2000000e+01 
7.5000000e-01 3.0000000e+00 3.2500000e+01 
7.5000000e-01 3.0000000e+00 3.3000000e+01 
7.5000000e-01 3.0000000e+00 3.3500000e+01 
7.5000000e-01 3.0000000e+00 3.4000000e+01 
7.5000000e-01 3.0000000e+00 3.4500000e+01 
7.5000000e-01 3.0000000e+00 3.5000000e+01 
7.5000000e-01 3.0000000e+00 3.5500000e+01 
7.5000000e-01 3.0000000e+00 3.6000000e+01 
7.5000000e-01 3.0000000e+00 3.6500000e+01 
7.5000000e-01 3.0000000e+00 3.7000000e+01 
7.5000000e-01 3.0000000e+00 3.7500000e+01 
7.5000000e-01 3.0000000e+00 3.8000000e+01 
7.5000000e-01 3.0000000e+00 3.8500000e+01 
7.5000000e-01 3.0000000e+00 3.9000000e+01 
7.5000000e-01 3.0000000e+00 3.9500000e+01 
7.5000000e-01 3.0000000e+00 4.0000000e+01 
7.5000000e-01 3.0000000e+00 4.0500000e+01 
7.5000000e-01 3.0000000e+00 4.1000000e+01 
7.5000000e-01 3.0000000e+00 4.1500000e+01 
7.5000000e-01 3.0000000e+00 4.2000000e+01 
7.5000000e-01 3.0000000e+00 4.2500000e+01 
7.5000000e-01 3.0000000e+00 4.3000000e+01 
7.5000000e-01 3.0000000e+00 4.3500000e+01 
7.5000000e-01 3.0000000e+00 4.4000000e+01 
7.5000000e-01 3.0000000e+00 4.4500000e+01 
7.5000000e-01 3.0000000e+00 4.5000000e+01 
7.5000000e-01 3.0000000e+00 4.5500000e+01 
7.5000000e-01 3.0000000e+00 4.6000000e+01 
7.5000000e-01 3.0000000e+00 4.6500000e+01 
7.5000000e-01 3.0000000e+00 4.7000000e+01 
7.5000000e-01 3.0000000e+00 4.7500000e+01 
7.5000000e-01 3.0000000e+00 4.8000000e+01 
7.5000000e-01 3.0000000e+00 4.8500000e+01 
7.5000000e-01 3.0000000e+00 4.9000000e+01 
7.5000000e-01 3.0000000e+00 4.9500000e+01 
7.5000000e-01 3.0250001e+00 0.0000000e+00 
7.5000000e-01 3.0250001e+00 5.0000000e-01 
7.5000000e-01 3.0250001e+00 1.0000000e+00 
7.5000000e-01 3.0250001e+00 1.5000000e+00 
7.5000000e-01 3.0250001e+00 2.0000000e+00 
7.5000000e-01 3.0250001e+00 2.5000000e+00 
7.5000000e-01 3.0250001e+00 3.0000000e+00 
7.5000000e-01 3.0250001e+00 3.5000000e+00 
7.5000000e-01 3.0250001e+00 4.0000000e+00 
7.5000000e-01 3.0250001e+00 4.5000000e+00 
7.5000000e-01 3.0250001e+00 5.0000000e+00 
7.5000000e-01 3.0250001e+00 5.5000000e+00 
7.5000000e-01 3.0250001e+00 6.0000000e+00 
7.5000000e-01 3.0250001e+00 6.5000000e+00 
7.5000000e-01 3.0250001e+00 7.0000000e+00 
7.5000000e-01 3.0250001e+00 7.5000000e+00 
7.5000000e-01 3.0250001e+00 8.0000000e+00 
7.5000000e-01 3.0250001e+00 8.5000000e+00 
7.5000000e-01 3.0250001e+00 9.0000000e+00 
7.5000000e-01 3.0250001e+00 9.5000000e+00 
7.5000000e-01 3.0250001e+00 1.0000000e+01 
7.5000000e-01 3.0250001e+00 1.0500000e+01 
7.5000000e-01 3.0250001e+00 1.1000000e+01 
7.5000000e-01 3.0250001e+00 1.1500000e+01 
7.5000000e-01 3.0250001e+00 1.2000000e+01 
7.5000000e-01 3.0250001e+00 1.2500000e+01 
7.5000000e-01 3.0250001e+00 1.3000000e+01 
7.5000000e-01 3.0250001e+00 1.3500000e+01 
7.5000000e-01 3.0250001e+00 1.4000000e+01 
7.5000000e-01 3.0250001e+00 1.4500000e+01 
7.5000000e-01 3.0250001e+00 1.5000000e+01 
7.5000000e-01 3.0250001e+00 1.5500000e+01 
7.5000000e-01 3.0250001e+00 1.6000000e+01 
7.5000000e-01 3.0250001e+00 1.6500000e+01 
7.5000000e-01 3.0250001e+00 1.7000000e+01 
7.5000000e-01 3.0250001e+00 1.7500000e+01 
7.5000000e-01 3.0250001e+00 1.8000000e+01 
7.5000000e-01 3.0250001e+00 1.8500000e+01 
7.5000000e-01 3.0250001e+00 1.9000000e+01 
7.5000000e-01 3.0250001e+00 1.9500000e+01 
7.5000000e-01 3.0250001e+00 2.0000000e+01 
7.5000000e-01 3.0250001e+00 2.0500000e+01 
7.5000000e-01 3.0250001e+00 2.1000000e+01 
7.5000000e-01 3.0250001e+00 2.1500000e+01 
7.5000000e-01 3.0250001e+00 2.2000000e+01 
7.5000000e-01 3.0250001e+00 2.2500000e+01 
7.5000000e-01 3.0250001e+00 2.3000000e+01 
7.5000000e-01 3.0250001e+00 2.3500000e+01 
7.5000000e-01 3.0250001e+00 2.4000000e+01 
7.5000000e-01 3.0250001e+00 2.4500000e+01 
7.5000000e-01 3.0250001e+00 2.5000000e+01 
7.5000000e-01 3.0250001e+00 2.5500000e+01 
7.5000000e-01 3.0250001e+00 2.6000000e+01 
7.5000000e-01 3.0250001e+00 2.6500000e+01 
7.5000000e-01 3.0250001e+00 2.7000000e+01 
7.5000000e-01 3.0250001e+00 2.7500000e+01 
7.5000000e-01 3.0250001e+00 2.8000000e+01 
7.5000000e-01 3.0250001e+00 2.8500000e+01 
7.5000000e-01 3.0250001e+00 2.9000000e+01 
7.5000000e-01 3.0250001e+00 2.9500000e+01 
7.5000000e-01 3.0250001e+00 3.0000000e+01 
7.5000000e-01 3.0250001e+00 3.0500000e+01 
7.5000000e-01 3.0250001e+00 3.1000000e+01 
7.5000000e-01 3.0250001e+00 3.1500000e+01 
7.5000000e-01 3.0250001e+00 3.2000000e+01 
7.5000000e-01 3.0250001e+00 3.2500000e+01 
7.5000000e-01 3.0250001e+00 3.3000000e+01 
7.5000000e-01 3.0250001e+00 3.3500000e+01 
7.5000000e-01 3.0250001e+00 3.4000000e+01 
7.5000000e-01 3.0250001e+00 3.4500000e+01 
7.5000000e-01 3.0250001e+00 3.5000000e+01 
7.5000000e-01 3.0250001e+00 3.5500000e+01 
7.5000000e-01 3.0250001e+00 3.6000000e+01 
7.5000000e-01 3.0250001e+00 3.6500000e+01 
7.5000000e-01 3.0250001e+00 3.7000000e+01 
7.5000000e-01 3.0250001e+00 3.7500000e+01 
7.5000000e-01 3.0250001e+00 3.8000000e+01 
7.5000000e-01 3.0250001e+00 3.8500000e+01 
7.5000000e-01 3.0250001e+00 3.9000000e+01 
7.5000000e-01 3.0250001e+00 3.9500000e+01 
7.5000000e-01 3.0250001e+00 4.0000000e+01 
7.5000000e-01 3.0250001e+00 4.0500000e+01 
7.5000000e-01 3.0250001e+00 4.1000000e+01 
7.5000000e-01 3.0250001e+00 4.1500000e+01 
7.5000000e-01 3.0250001e+00 4.2000000e+01 
7.5000000e-01 3.0250001e+00 4.2500000e+01 
7.5000000e-01 3.0250001e+00 4.3000000e+01 
7.5000000e-01 3.0250001e+00 4.3500000e+01 
7.5000000e-01 3.0250001e+00 4.4000000e+01 
7.5000000e-01 3.0250001e+00 4.4500000e+01 
7.5000000e-01 3.0250001e+00 4.5000000e+01 
7.5000000e-01 3.0250001e+00 4.5500000e+01 
7.5000000e-01 3.0250001e+00 4.6000000e+01 
7.5000000e-01 3.0250001e+00 4.6500000e+01 
7.5000000e-01 3.0250001e+00 4.7000000e+01 
7.5000000e-01 3.0250001e+00 4.7500000e+01 
7.5000000e-01 3.0250001e+00 4.8000000e+01 
7.5000000e-01 3.0250001e+00 4.8500000e+01 
7.5000000e-01 3.0250001e+00 4.9000000e+01 
7.5000000e-01 3.0250001e+00 4.9500000e+01 
7.5000000e-01 3.0250001e+00 5.0000000e+01 
3.0000000e+00 2.0000000e+00 3.6000000e+01 
8.0487806e-01 3.0000000e+00 3.6000000e+01 
0.0000000e+00 0.0000000e+00 1.0000000e+00 
0.0000000e+00 0.0000000e+00 2.0000000e+00 
0.0000000e+00 0.0000000e+00 3.0000000e+00 
0.0000000e+00 0.0000000e+00 4.0000000e+00 
0.0000000e+00 0.0000000e+00 5.0000000e+00 
0.0000000e+00 0.0000000e+00 6.0000000e+00 
0.0000000e+00 0.0000000e+00 7.0000000e+00 
0.0000000e+00 0.0000000e+00 8.0000000e+00 
[...]
POINT_DATA 1919
FIELD FieldData 3
DISPLACEMENT 3 1919  float
0.0000000e+00 0.0000000e+00 0.0000000e+00 
0.0000000e+00 0.0000000e+00 0.0000000e+00 
0.0000000e+00 0.0000000e+00 0.0000000e+00 
0.0000000e+00 0.0000000e+00 0.0000000e+00 
9.8712474e-07 -2.0502196e-06 -9.5109738e-07 
-5.5394295e-08 -3.1911145e-07 1.0080392e-06 
0.0000000e+00 1.0640243e-05 0.0000000e+00 
0.0000000e+00 1.2950212e-06 0.0000000e+00 
-2.8755963e-07 -3.6697459e-06 4.7353853e-07 
9.9789254e-08 -3.7391678e-07 1.7069181e-06 
1.6616094e-06 7.1760924e-06 1.4477729e-06 
1.0215570e-06 -8.6607639e-07 1.3483826e-06 
0.0000000e+00 1.3609928e-05 0.0000000e+00 
0.0000000e+00 3.1389659e-06 0.0000000e+00 
3.3451895e-05 2.0782492e-05 -1.9351672e-05 
-1.7873247e-06 2.7155756e-06 3.9644469e-06 
2.8269209e-05 1.1859729e-04 -3.2587825e-05 
1.7799160e-06 1.1894300e-05 -3.9065017e-06 
0.0000000e+00 1.0340475e-05 0.0000000e+00 
0.0000000e+00 8.1499120e-06 0.0000000e+00 
2.3775892e-05 1.1012146e-04 -4.3039217e-06 
2.1968626e-05 9.3100636e-05 9.5272395e-07 
1.8680055e-05 8.3661689e-05 -3.5901946e-06 
1.6273118e-05 9.0100177e-05 -2.9540611e-06 
2.0755519e-05 1.0640245e-04 7.1995267e-08 
2.3724353e-05 1.1386172e-04 6.6523626e-06 
6.2698286e-06 1.0512215e-04 1.3302212e-05 
1.3458218e-05 9.6761905e-05 4.6856917e-06 
3.2592736e-05 1.0975987e-04 -1.8410738e-05 
4.0247563e-05 1.5224825e-04 -3.1017207e-05 
4.7679550e-05 2.1591676e-04 -3.0465611e-05 
4.5585926e-05 2.7437575e-04 -1.0703046e-05 
6.7959576e-05 3.1636981e-04 -7.3720148e-06 
9.7660923e-05 3.4799436e-04 3.3581990e-05 
6.9130983e-05 3.7768931e-04 4.2848151e-05 
5.9009315e-05 4.0538624e-04 5.4012078e-05 
5.8083362e-05 3.7704196e-04 1.2396635e-04 
2.5328567e-05 1.6900644e-04 1.5708644e-04 
-1.3032311e-05 -3.2975574e-04 2.8789282e-04 
-8.3599334e-05 -1.1593847e-03 2.7735002e-04 
-1.7744396e-04 -2.2814537e-03 4.0905629e-04 
-2.9253741e-04 -3.5224254e-03 2.3916778e-04 
-3.5385272e-04 -4.6048644e-03 3.1684653e-04 
-3.8780380e-04 -5.0775623e-03 1.2178559e-04 
-3.6032585e-04 -5.0089192e-03 -2.4797768e-05 
-3.0312996e-04 -4.8603211e-03 -3.1418731e-05 
-2.4850559e-04 -4.9068313e-03 -2.2528377e-05 
-2.5466381e-04 -4.8943232e-03 -1.1953219e-04 
-2.5663356e-04 -4.3715145e-03 -2.2058492e-04 
-1.8946476e-04 -3.2427730e-03 -1.9471135e-04 
-1.2296799e-04 -2.0272150e-03 -3.4015020e-04 
-6.9561618e-05 -1.0336658e-03 -2.3137151e-04 
-1.4309547e-05 -3.5497066e-04 -2.3191510e-04 
1.2059350e-05 4.2162057e-05 -1.1771058e-04 
3.0629162e-05 2.1885408e-04 -7.9813341e-05 
2.1906533e-05 2.4646052e-04 -3.9126764e-05 
6.4142587e-06 1.9680467e-04 -2.6943528e-05 
1.9349400e-05 1.2433910e-04 -3.6999460e-05 
1.2075353e-05 5.7201920e-05 -3.0273854e-05 
3.1211312e-05 -2.1319725e-06 -2.7914537e-05 
3.3335924e-05 -5.4486769e-05 -1.0772219e-05 
2.3941362e-05 -9.0512520e-05 1.0966900e-05 
1.3067461e-05 -9.6415068e-05 9.3965182e-06 
2.2632936e-05 -6.7363937e-05 -4.8079329e-07 
8.5977254e-06 -1.3156887e-05 -3.8649381e-05 
1.3689462e-05 4.1664091e-05 -6.3694017e-05 
7.4286759e-06 8.1464794e-05 -7.5549753e-05 
4.2435495e-06 1.0784108e-04 -6.5982422e-05 
7.5790176e-06 1.3602829e-04 -7.2416507e-05 
2.6739956e-05 1.8720803e-04 -7.2513729e-05 
3.6165296e-05 2.5738330e-04 -6.0106879e-05 
4.6373068e-05 3.2116668e-04 -4.6715890e-05 
6.0362814e-05 3.6091974e-04 -4.2115455e-05 
6.7466026e-05 3.7147530e-04 -4.5173751e-06 
5.2456919e-05 3.6952615e-04 3.8706188e-05 
5.5920995e-05 3.5707938e-04 9.1230162e-05 
3.9821836e-05 2.9142681e-04 1.7203868e-04 
1.2785084e-05 8.4906584e-05 1.9618527e-04 
-2.3450524e-05 -3.9105988e-04 3.2182410e-04 
-7.4883603e-05 -1.2384843e-03 2.8478581e-04 
-1.2421265e-04 -2.4429052e-03 3.8608594e-04 
-2.2422212e-04 -3.7575038e-03 2.1859063e-04 
-2.9774060e-04 -4.7731576e-03 2.9051458e-04 
-3.4594024e-04 -4.9919747e-03 1.5601293e-04 
-3.4383213e-04 -4.8318077e-03 7.2584902e-05 
-3.3985297e-04 -4.7722091e-03 3.7919493e-05 
-3.2835413e-04 -4.9577858e-03 -3.0277493e-05 
-3.5210318e-04 -4.9666218e-03 -1.1995283e-04 
-3.2596383e-04 -4.3231770e-03 -2.5574918e-04 
-8.0608488e-06 -3.1863151e-03 -4.2936948e-04 
-1.2069853e-04 -1.9837008e-03 -3.0817415e-04 
-8.3357867e-05 -9.9720561e-04 -2.3569298e-04 
-5.0092760e-05 -3.1312299e-04 -2.9022692e-04 
-1.8379988e-05 8.1607875e-05 -2.1796276e-04 
1.7346707e-05 2.4149938e-04 -1.7735249e-04 
3.3600805e-05 2.5254532e-04 -9.3687959e-05 
3.9270424e-05 1.9505914e-04 -2.5681169e-05 
2.9730774e-05 1.1909379e-04 3.4015718e-06 
1.9907271e-05 4.6310593e-05 3.0429321e-05 
6.8915592e-06 -1.6155047e-05 3.5473800e-05 
1.9612705e-06 -6.1756786e-05 5.2030413e-05 
4.4777289e-06 -8.3333871e-05 5.5063811e-05 
-5.0528192e-06 -7.7905293e-05 5.0242073e-05 
-8.3765462e-06 -5.2868552e-05 3.8517075e-05 
-1.0358262e-05 -1.9832445e-05 1.0203862e-05 
-9.0648591e-06 1.0373534e-05 -1.0140531e-05 
-2.3833156e-06 3.2430329e-05 -2.7379692e-05 
-5.2080841e-06 4.3918953e-05 -2.7980583e-05 
3.4566788e-06 4.4189310e-05 -4.0070604e-06 
3.3166166e-06 3.3917189e-05 6.0204807e-06 
2.3877883e-06 1.6633599e-05 1.2124162e-05 
9.0234835e-07 -1.5180098e-06 7.6286551e-06 
1.6307180e-06 -1.4865235e-05 3.7379259e-06 
1.4388071e-06 -2.0989561e-05 -1.5346495e-06 
2.4407088e-06 -1.9976773e-05 -3.5334726e-06 
1.3569086e-06 -1.4177788e-05 -2.0231141e-06 
-2.0441264e-06 -5.8971978e-06 5.0696934e-07 
-2.3788327e-06 2.7074250e-06 2.6705065e-06 
-3.1060540e-06 9.3358522e-06 3.3447509e-07 
0.0000000e+00 1.1796937e-04 0.0000000e+00 
0.0000000e+00 1.0975481e-04 0.0000000e+00 
0.0000000e+00 9.3596238e-05 0.0000000e+00 
0.0000000e+00 8.4715823e-05 0.0000000e+00 
0.0000000e+00 9.1119531e-05 0.0000000e+00 
0.0000000e+00 1.0589871e-04 0.0000000e+00 
0.0000000e+00 1.1233742e-04 0.0000000e+00 
0.0000000e+00 1.0457010e-04 0.0000000e+00 
0.0000000e+00 9.7417440e-05 0.0000000e+00 
0.0000000e+00 1.1098332e-04 0.0000000e+00 
0.0000000e+00 1.5358518e-04 0.0000000e+00 
0.0000000e+00 2.1545183e-04 0.0000000e+00 
0.0000000e+00 2.7355380e-04 0.0000000e+00 
0.0000000e+00 3.1598765e-04 0.0000000e+00 
0.0000000e+00 3.4808903e-04 0.0000000e+00 
0.0000000e+00 3.8039702e-04 0.0000000e+00 
0.0000000e+00 4.0941886e-04 0.0000000e+00 
0.0000000e+00 3.7762013e-04 0.0000000e+00 
0.0000000e+00 1.6633517e-04 0.0000000e+00 
0.0000000e+00 -3.3452845e-04 0.0000000e+00 
0.0000000e+00 -1.1676322e-03 0.0000000e+00 
0.0000000e+00 -2.2882859e-03 0.0000000e+00 
0.0000000e+00 -3.5402100e-03 0.0000000e+00 
0.0000000e+00 -4.6252739e-03 0.0000000e+00 
0.0000000e+00 -5.1117567e-03 0.0000000e+00 
0.0000000e+00 -5.0313747e-03 0.0000000e+00 
0.0000000e+00 -4.8874682e-03 0.0000000e+00 
0.0000000e+00 -4.9266261e-03 0.0000000e+00 
0.0000000e+00 -4.9219267e-03 0.0000000e+00 
0.0000000e+00 -4.3939217e-03 0.0000000e+00 
0.0000000e+00 -3.2640377e-03 0.0000000e+00 
0.0000000e+00 -2.0373345e-03 0.0000000e+00 
0.0000000e+00 -1.0389109e-03 0.0000000e+00 
0.0000000e+00 -3.5608059e-04 0.0000000e+00 
0.0000000e+00 4.1686999e-05 0.0000000e+00 
0.0000000e+00 2.1897726e-04 0.0000000e+00 
0.0000000e+00 2.4771068e-04 0.0000000e+00 
0.0000000e+00 1.9847188e-04 0.0000000e+00 
0.0000000e+00 1.2573210e-04 0.0000000e+00 
0.0000000e+00 5.7341513e-05 0.0000000e+00 
0.0000000e+00 -2.6804978e-06 0.0000000e+00 
0.0000000e+00 -5.4720600e-05 0.0000000e+00 
0.0000000e+00 -9.0030771e-05 0.0000000e+00 
0.0000000e+00 -9.5659765e-05 0.0000000e+00 
0.0000000e+00 -6.6622510e-05 0.0000000e+00 
0.0000000e+00 -1.3348049e-05 0.0000000e+00 
0.0000000e+00 4.1118386e-05 0.0000000e+00 
0.0000000e+00 8.0760103e-05 0.0000000e+00 
0.0000000e+00 1.0723786e-04 0.0000000e+00 
0.0000000e+00 1.3702188e-04 0.0000000e+00 
0.0000000e+00 1.8839059e-04 0.0000000e+00 
0.0000000e+00 2.5763357e-04 0.0000000e+00 
0.0000000e+00 3.2115314e-04 0.0000000e+00 
0.0000000e+00 3.5998900e-04 0.0000000e+00 
0.0000000e+00 3.7195906e-04 0.0000000e+00 
0.0000000e+00 3.7126476e-04 0.0000000e+00 
0.0000000e+00 3.5907366e-04 0.0000000e+00 
0.0000000e+00 2.9410253e-04 0.0000000e+00 
0.0000000e+00 8.4890293e-05 0.0000000e+00 
0.0000000e+00 -3.9627697e-04 0.0000000e+00 
0.0000000e+00 -1.2505900e-03 0.0000000e+00 
0.0000000e+00 -2.4536892e-03 0.0000000e+00 
0.0000000e+00 -3.7785261e-03 0.0000000e+00 
0.0000000e+00 -4.7914418e-03 0.0000000e+00 
0.0000000e+00 -5.0241482e-03 0.0000000e+00 
0.0000000e+00 -4.8550148e-03 0.0000000e+00 
0.0000000e+00 -4.8018610e-03 0.0000000e+00 
0.0000000e+00 -4.9770446e-03 0.0000000e+00 
0.0000000e+00 -4.9967519e-03 0.0000000e+00 
0.0000000e+00 -4.3447451e-03 0.0000000e+00 
0.0000000e+00 -3.1978705e-03 0.0000000e+00 
0.0000000e+00 -1.9931449e-03 0.0000000e+00 
0.0000000e+00 -1.0027421e-03 0.0000000e+00 
0.0000000e+00 -3.1524492e-04 0.0000000e+00 
0.0000000e+00 8.0637430e-05 0.0000000e+00 
0.0000000e+00 2.4233229e-04 0.0000000e+00 
0.0000000e+00 2.5429495e-04 0.0000000e+00 
0.0000000e+00 1.9637523e-04 0.0000000e+00 
0.0000000e+00 1.1960636e-04 0.0000000e+00 
0.0000000e+00 4.6297871e-05 0.0000000e+00 
0.0000000e+00 -1.6057005e-05 0.0000000e+00 
0.0000000e+00 -6.1459759e-05 0.0000000e+00 
0.0000000e+00 -8.2902669e-05 0.0000000e+00 
0.0000000e+00 -7.7828619e-05 0.0000000e+00 
0.0000000e+00 -5.2958701e-05 0.0000000e+00 
0.0000000e+00 -2.0056392e-05 0.0000000e+00 
0.0000000e+00 1.0272092e-05 0.0000000e+00 
0.0000000e+00 3.2343007e-05 0.0000000e+00 
0.0000000e+00 4.3831762e-05 0.0000000e+00 
0.0000000e+00 4.4043132e-05 0.0000000e+00 
0.0000000e+00 3.3813842e-05 0.0000000e+00 
0.0000000e+00 1.6696635e-05 0.0000000e+00 
0.0000000e+00 -1.3346036e-06 0.0000000e+00 
0.0000000e+00 -1.4751055e-05 0.0000000e+00 
0.0000000e+00 -2.0904696e-05 0.0000000e+00 
0.0000000e+00 -1.9994732e-05 0.0000000e+00 
0.0000000e+00 -1.4192603e-05 0.0000000e+00 
0.0000000e+00 -5.8878322e-06 0.0000000e+00 
0.0000000e+00 2.7029846e-06 0.0000000e+00 
0.0000000e+00 9.2968239e-06 0.0000000e+00 
0.0000000e+00 1.1831360e-05 0.0000000e+00 
1.4254136e-05 -3.3998633e-05 -1.3966100e-05 
-8.9286921e-05 -9.0254616e-04 -2.5461314e-04 
0.0000000e+00 0.0000000e+00 0.0000000e+00 
0.0000000e+00 0.0000000e+00 0.0000000e+00 
0.0000000e+00 0.0000000e+00 0.0000000e+00 
0.0000000e+00 0.0000000e+00 0.0000000e+00 
0.0000000e+00 0.0000000e+00 0.0000000e+00 
0.0000000e+00 0.0000000e+00 0.0000000e+00 
0.0000000e+00 0.0000000e+00 0.0000000e+00 
0.0000000e+00 0.0000000e+00 0.0000000e+00 
0.0000000e+00 0.0000000e+00 0.0000000e+00 
0.0000000e+00 0.0000000e+00 0.0000000e+00 
0.0000000e+00 0.0000000e+00 0.0000000e+00 
0.0000000e+00 0.0000000e+00 0.0000000e+00 
0.0000000e+00 0.0000000e+00 0.0000000e+00 
0.0000000e+00 0.0000000e+00 0.0000000e+00 
0.0000000e+00 0.0000000e+00 0.0000000e+00 
0.0000000e+00 0.0000000e+00 0.0000000e+00 
0.0000000e+00 0.0000000e+00 0.0000000e+00 
0.0000000e+00 0.0000000e+00 0.0000000e+00 
0.0000000e+00 0.0000000e+00 0.0000000e+00 
0.0000000e+00 0.0000000e+00 0.0000000e+00 
0.0000000e+00 0.0000000e+00 0.0000000e+00 
0.0000000e+00 0.0000000e+00 0.0000000e+00 
0.0000000e+00 0.0000000e+00 0.0000000e+00 
0.0000000e+00 0.0000000e+00 0.0000000e+00 
0.0000000e+00 0.0000000e+00 0.0000000e+00 
0.0000000e+00 0.0000000e+00 0.0000000e+00 
0.0000000e+00 0.0000000e+00 0.0000000e+00 
0.0000000e+00 0.0000000e+00 0.0000000e+00 
0.0000000e+00 0.0000000e+00 0.0000000e+00 
0.0000000e+00 0.0000000e+00 0.0000000e+00 
0.0000000e+00 0.0000000e+00 0.0000000e+00 
0.0000000e+00 0.0000000e+00 0.0000000e+00 
0.0000000e+00 0.0000000e+00 0.0000000e+00 
0.0000000e+00 0.0000000e+00 0.0000000e+00 
0.0000000e+00 0.0000000e+00 0.0000000e+00 
0.0000000e+00 0.0000000e+00 0.0000000e+00 
0.0000000e+00 0.0000000e+00 0.0000000e+00 
0.0000000e+00 0.0000000e+00 0.0000000e+00 
0.0000000e+00 0.0000000e+00 0.0000000e+00 
0.0000000e+00 0.0000000e+00 0.0000000e+00 
0.0000000e+00 0.0000000e+00 0.0000000e+00 
0.0000000e+00 0.0000000e+00 0.0000000e+00 
0.0000000e+00 0.0000000e+00 0.0000000e+00 
0.0000000e+00 0.0000000e+00 0.0000000e+00 
0.0000000e+00 0.0000000e+00 0.0000000e+00 
0.0000000e+00 0.0000000e+00 0.0000000e+00 
0.0000000e+00 0.0000000e+00 0.0000000e+00 
0.0000000e+00 0.0000000e+00 0.0000000e+00 
0.0000000e+00 0.0000000e+00 0.0000000e+00 
0.0000000e+00 0.0000000e+00 0.0000000e+00 
0.0000000e+00 0.0000000e+00 0.0000000e+00 
0.0000000e+00 0.0000000e+00 0.0000000e+00 
0.0000000e+00 0.0000000e+00 0.0000000e+00 
0.0000000e+00 0.0000000e+00 0.0000000e+00 
0.0000000e+00 0.0000000e+00 0.0000000e+00 
0.0000000e+00 0.0000000e+00 0.0000000e+00 
0.0000000e+00 0.0000000e+00 0.0000000e+00 
0.0000000e+00 0.0000000e+00 0.0000000e+00 
0.0000000e+00 0.0000000e+00 0.0000000e+00 
0.0000000e+00 0.0000000e+00 0.0000000e+00 
0.0000000e+00 0.0000000e+00 0.0000000e+00 
0.0000000e+00 0.0000000e+00 0.0000000e+00 
0.0000000e+00 0.0000000e+00 0.0000000e+00 
0.0000000e+00 0.0000000e+00 0.0000000e+00 
0.0000000e+00 0.0000000e+00 0.0000000e+00 
0.0000000e+00 0.0000000e+00 0.0000000e+00 
0.0000000e+00 0.0000000e+00 0.0000000e+00 
0.0000000e+00 0.0000000e+00 0.0000000e+00 
0.0000000e+00 0.0000000e+00 0.0000000e+00 
0.0000000e+00 0.0000000e+00 0.0000000e+00 
0.0000000e+00 0.0000000e+00 0.0000000e+00 
0.0000000e+00 0.0000000e+00 0.0000000e+00 
0.0000000e+00 0.0000000e+00 0.0000000e+00 
0.0000000e+00 0.0000000e+00 0.0000000e+00 
0.0000000e+00 0.0000000e+00 0.0000000e+00 
0.0000000e+00 0.0000000e+00 0.0000000e+00 
0.0000000e+00 0.0000000e+00 0.0000000e+00 
0.0000000e+00 0.0000000e+00 0.0000000e+00 
0.0000000e+00 0.0000000e+00 0.0000000e+00 
0.0000000e+00 0.0000000e+00 0.0000000e+00 
0.0000000e+00 0.0000000e+00 0.0000000e+00 
0.0000000e+00 0.0000000e+00 0.0000000e+00 
0.0000000e+00 0.0000000e+00 0.0000000e+00 
0.0000000e+00 0.0000000e+00 0.0000000e+00 
0.0000000e+00 0.0000000e+00 0.0000000e+00 
0.0000000e+00 0.0000000e+00 0.0000000e+00 
0.0000000e+00 0.0000000e+00 0.0000000e+00 
0.0000000e+00 0.0000000e+00 0.0000000e+00 
0.0000000e+00 0.0000000e+00 0.0000000e+00 
0.0000000e+00 0.0000000e+00 0.0000000e+00 
0.0000000e+00 0.0000000e+00 0.0000000e+00 
0.0000000e+00 0.0000000e+00 0.0000000e+00 
0.0000000e+00 0.0000000e+00 0.0000000e+00 
0.0000000e+00 0.0000000e+00 0.0000000e+00 
0.0000000e+00 0.0000000e+00 0.0000000e+00 
0.0000000e+00 0.0000000e+00 0.0000000e+00 
0.0000000e+00 0.0000000e+00 0.0000000e+00 
0.0000000e+00 0.0000000e+00 0.0000000e+00 
0.0000000e+00 0.0000000e+00 0.0000000e+00 
0.0000000e+00 0.0000000e+00 0.0000000e+00 
0.0000000e+00 0.0000000e+00 0.0000000e+00 
0.0000000e+00 0.0000000e+00 0.0000000e+00 
0.0000000e+00 0.0000000e+00 0.0000000e+00 
0.0000000e+00 0.0000000e+00 0.0000000e+00 
0.0000000e+00 0.0000000e+00 0.0000000e+00 
0.0000000e+00 0.0000000e+00 0.0000000e+00 
-3.6689988e-07 1.6029064e-07 2.5286733e-06 
-5.7264037e-07 4.9280406e-08 -1.7012462e-06 
7.2327038e-07 -1.5111482e-06 1.7518233e-06 
-7.8670962e-07 -1.5691242e-06 2.0943723e-06 
2.0229891e-06 3.7133789e-06 -1.7499751e-06 
4.7108534e-07 -1.0231282e-05 -4.6125251e-06 
3.0500325e-06 -2.3239409e-06 -6.0384932e-06 
1.3443825e-05 -8.1348062e-06 -1.5541782e-05 
2.9273362e-05 -1.0686560e-05 -2.1436552e-05 
4.0366376e-05 -1.0789983e-05 -1.9232031e-05 
4.9949005e-05 -1.3919119e-05 -1.3338533e-05 
4.9830571e-05 -1.8037874e-05 -3.2951402e-06 
4.8306301e-05 -1.1368316e-05 4.3845712e-06 
3.7581776e-05 -9.7698958e-06 6.6334669e-06 
2.3964742e-05 -7.4122299e-06 5.8952091e-06 
1.4002601e-05 -7.1704835e-06 2.1443057e-06 
8.1487688e-06 -5.4830666e-06 1.4743324e-06 
5.9108120e-06 -2.5657818e-07 2.3410914e-06 
3.7198486e-06 5.2605487e-06 1.9307940e-06 
-3.9271998e-07 -2.4863552e-06 1.5854625e-06 
-2.7724750e-06 -4.0763107e-06 1.8848090e-06 
-5.6259609e-07 -4.5223442e-06 1.3404241e-06 
8.5532986e-07 -3.6908687e-06 2.6125319e-06 
-9.3887695e-07 -2.7943040e-06 4.7375506e-06 
-4.9695120e-07 3.2490771e-06 1.3643642e-06 
4.8690828e-07 -1.0797331e-05 -7.2347643e-07 
2.2742386e-06 -2.1617604e-06 -6.6719363e-06 
1.3064803e-05 -2.1970786e-06 -8.7154876e-06 
2.5791280e-05 -1.1429160e-05 -9.0095627e-06 
3.9848448e-05 -1.0880373e-05 -9.4645457e-06 
4.9002345e-05 -1.3506270e-05 -3.7367472e-06 
4.9906364e-05 -2.0071340e-05 -2.9130474e-06 
5.0324874e-05 -1.8622690e-05 1.3616988e-06 
4.4389482e-05 -1.4806449e-05 6.7791811e-06 
3.0738669e-05 -1.0819854e-05 7.3314532e-06 
1.7124252e-05 -1.2897364e-06 6.0728926e-06 
3.6034976e-06 5.1478228e-06 3.9009187e-06 
-6.7946661e-07 4.0150335e-06 8.9833685e-07 
-3.1823299e-06 1.4975728e-06 1.1330064e-06 
-1.3570869e-06 -5.9276908e-07 1.5357492e-06 
1.7448516e-06 -3.7086963e-06 3.1087595e-06 
4.0873379e-06 -3.5898277e-06 5.2633568e-06 
3.2356622e-06 -3.7963233e-07 5.2675723e-06 
1.1367547e-06 6.1971667e-07 2.6831276e-06 
-9.0599855e-07 4.0037693e-07 -6.8317627e-07 
-1.2228944e-06 1.4494157e-08 -1.9114691e-06 
-1.0303291e-06 1.1675398e-08 -2.1411827e-06 
-1.6470436e-07 1.8683785e-07 -1.0423275e-06 
3.4196634e-07 2.6783366e-07 -6.7833601e-09 
0.0000000e+00 -2.4914520e-05 0.0000000e+00 
0.0000000e+00 -1.2478534e-05 0.0000000e+00 
0.0000000e+00 -3.4051536e-05 0.0000000e+00 
0.0000000e+00 -2.5883879e-05 0.0000000e+00 
0.0000000e+00 -9.1533657e-06 0.0000000e+00 
0.0000000e+00 -7.8547491e-06 0.0000000e+00 
0.0000000e+00 -2.8251025e-06 0.0000000e+00 
0.0000000e+00 9.5071802e-05 0.0000000e+00 
0.0000000e+00 -2.7199460e-05 0.0000000e+00 
0.0000000e+00 -1.4457128e-04 0.0000000e+00 
0.0000000e+00 -3.5125695e-04 0.0000000e+00 
0.0000000e+00 -5.3268793e-04 0.0000000e+00 
0.0000000e+00 -5.8134657e-04 0.0000000e+00 
0.0000000e+00 -5.4470194e-04 0.0000000e+00 
0.0000000e+00 -4.2274082e-04 0.0000000e+00 
0.0000000e+00 -2.3889546e-04 0.0000000e+00 
0.0000000e+00 -1.0462372e-04 0.0000000e+00 
0.0000000e+00 -6.5300905e-05 0.0000000e+00 
0.0000000e+00 -7.6794378e-05 0.0000000e+00 
0.0000000e+00 -1.0482602e-04 0.0000000e+00 
0.0000000e+00 -1.2272604e-04 0.0000000e+00 
0.0000000e+00 -9.8433200e-05 0.0000000e+00 
0.0000000e+00 -6.8033893e-05 0.0000000e+00 
0.0000000e+00 -3.5586392e-05 0.0000000e+00 
0.0000000e+00 2.0640400e-06 0.0000000e+00 
0.0000000e+00 2.7435332e-05 0.0000000e+00 
0.0000000e+00 -9.6809081e-06 0.0000000e+00 
0.0000000e+00 7.2130351e-05 0.0000000e+00 
0.0000000e+00 8.1228982e-06 0.0000000e+00 
0.0000000e+00 -1.6862556e-04 0.0000000e+00 
0.0000000e+00 -3.5532838e-04 0.0000000e+00 
0.0000000e+00 -5.2706123e-04 0.0000000e+00 
0.0000000e+00 -5.7316956e-04 0.0000000e+00 
0.0000000e+00 -5.2583474e-04 0.0000000e+00 
0.0000000e+00 -3.6724086e-04 0.0000000e+00 
0.0000000e+00 -1.6790835e-04 0.0000000e+00 
0.0000000e+00 3.7392826e-06 0.0000000e+00 
0.0000000e+00 3.3611850e-05 0.0000000e+00 
0.0000000e+00 1.7981152e-05 0.0000000e+00 
0.0000000e+00 2.4804262e-07 0.0000000e+00 
0.0000000e+00 -1.5280222e-05 0.0000000e+00 
0.0000000e+00 -1.5612832e-05 0.0000000e+00 
0.0000000e+00 1.9247843e-06 0.0000000e+00 
0.0000000e+00 1.2459980e-05 0.0000000e+00 
0.0000000e+00 9.5769574e-06 0.0000000e+00 
0.0000000e+00 1.4200327e-07 0.0000000e+00 
0.0000000e+00 -7.2542521e-06 0.0000000e+00 
0.0000000e+00 -3.5848977e-06 0.0000000e+00 
0.0000000e+00 1.6430772e-06 0.0000000e+00 
-4.2773645e-06 7.5129697e-07 2.6829534e-06 
-1.0193190e-06 2.4168905e-06 2.2310762e-06 
-5.4682857e-07 6.6670664e-06 2.2804065e-06 
2.7835131e-06 3.0919550e-06 7.0195210e-06 
2.7680221e-07 -2.5246422e-07 3.6986714e-07 
5.1709281e-07 6.8062199e-08 -6.4436769e-08 
5.7813031e-07 8.0508045e-07 -3.4686980e-07 
2.3417094e-07 1.2296696e-06 -2.7442604e-07 
-1.4225432e-06 -7.5786795e-07 -3.4485714e-07 
-5.1484135e-06 -1.9997988e-06 -1.5035259e-07 
-9.0245464e-07 -5.9464719e-07 2.9355911e-06 
-2.1821306e-06 3.3441208e-06 -1.6041697e-07 
-1.0848696e-05 1.7122015e-06 -4.0997502e-06 
-7.2885257e-07 -1.0467606e-05 -3.9283855e-06 
1.3573156e-05 3.4101442e-06 -1.0232965e-05 
2.4755822e-05 -5.3036874e-06 -2.0544579e-05 
3.8587335e-05 -1.4690362e-05 -2.4018707e-05 
6.2279047e-05 -1.1286894e-05 -2.0851947e-05 
6.1416649e-05 -1.2616681e-05 -1.0146131e-05 
5.5282828e-05 -1.7784623e-05 2.3712971e-06 
4.3747252e-05 -7.1617128e-06 3.3987949e-06 
2.7361410e-05 -6.2117597e-06 4.4721728e-06 
1.2283572e-05 -6.0761622e-08 6.9625048e-06 
1.2189555e-07 -9.0796875e-06 7.1921157e-08 
-4.8338798e-06 -5.6387207e-06 -5.8396654e-06 
-1.1815849e-06 7.7960914e-07 -6.3192165e-06 
-3.9956362e-06 8.7327344e-06 9.6710551e-07 
-7.3797692e-06 -9.2096190e-07 8.3299956e-06 
-1.4304417e-05 -5.9889167e-06 7.8819203e-06 